FOO
135168
    1MOL0     O    1   5.313   6.289   4.550  0.2625 -0.2470  0.5819
    1MOL0     C    2   5.402   6.205   4.562  0.7594  0.5846  0.3126
    1MOL0     O    3   5.394   6.086   4.635  0.4702 -0.5341 -0.3225
    1MOL0     C    4   5.267   6.064   4.690 -0.3171  0.3217  0.2889
    1MOL0     C    5   5.246   6.079   4.819 -0.3514  0.2400 -0.0864
    1MOL0     C    6   5.111   6.053   4.881 -0.4050 -0.0552  0.1938
    1MOL0     C    7   5.008   5.999   4.796 -0.7616  1.5059 -1.0897
    1MOL0     O    8   4.876   5.970   4.832 -1.0698 -0.6310 -0.9157
    1MOL0     C    9   4.833   6.073   4.931  0.2883  0.2029 -0.0585
    1MOL0     C   10   4.679   6.055   4.962  0.0123 -0.2715  0.1644
    1MOL0     C   11   4.587   6.080   4.846  0.2913  0.3756  0.1143
    1MOL0     C   12   4.448   6.110   4.902  0.1964 -0.3162  0.0520
    1MOL0     C   13   4.371   6.187   4.794  0.5651  0.2527 -0.1090
    1MOL0     C   14   4.227   6.141   4.788 -1.2812  0.0495 -0.4533
    1MOL0     C   15   4.152   6.164   4.926  0.2007 -0.1656  0.4300
    1MOL0     C   16   4.001   6.196   4.910  0.5364 -0.0042 -0.5037
    1MOL0     N   17   3.917   6.100   4.987 -0.1174 -0.3773  0.0798
    1MOL0     C   18   3.792   6.047   4.954 -0.6490  0.7488 -0.3547
    1MOL0     C   19   3.742   6.000   5.068 -0.1256  0.4047 -0.1919
    1MOL0     C   20   3.632   5.888   5.070 -1.3444  0.1124 -0.6525
    1MOL0     C   21   3.682   5.766   5.157 -0.4287 -0.3836  0.1963
    1MOL0     C   22   3.590   5.643   5.150 -0.0815  0.0943 -0.4286
    1MOL0     C   23   3.651   5.516   5.224 -0.7752  0.2056  0.2725
    1MOL0     O   24   3.627   5.505   5.362 -0.4897  0.5640 -0.0910
    1MOL0     C   25   3.504   5.474   5.409 -0.7035  0.4200 -0.0158
    1MOL0     C   26   3.497   5.443   5.548 -0.1440  0.4298  0.1907
    1MOL0     C   27   3.380   5.388   5.610  1.0871 -0.0736 -0.1742
    1MOL0     C   28   3.274   5.361   5.529  0.0983 -0.5996  0.7079
    1MOL0     C   29   3.149   5.297   5.583 -0.5584  0.3863 -0.1395
    1MOL0     O   30   3.078   5.229   5.486  0.0284 -0.2608  0.1173
    1MOL0     C   31   2.945   5.173   5.496  0.2858  0.1213  0.3661
    1MOL0     C   32   2.842   5.217   5.579 -0.5463 -0.8137 -0.6639
    1MOL0     C   33   2.727   5.150   5.590 -0.4397 -0.6585  0.7285
    1MOL0     C   34   2.697   5.052   5.498 -0.5081 -0.6424 -0.0461
    1MOL0     O   35   2.583   4.986   5.487 -1.0731 -0.0595  0.0022
    1MOL0     C   36   2.466   5.029   5.559  0.8817 -1.1783 -0.8122
    1MOL0     C   37   2.346   4.944   5.517  0.2668 -0.5731  0.5707
    1MOL0     C   38   2.272   4.979   5.386  0.7673  0.3352  0.1443
    1MOL0     C   39   2.217   5.124   5.366  1.0691  0.0491 -0.9275
    1MOL0     C   40   2.171   5.158   5.229  0.3169 -0.5427  0.0782
    1MOL0     C   41   2.034   5.092   5.208  0.7045  0.1389  0.7791
    1MOL0     C   42   1.976   5.130   5.070 -0.4723  0.1637 -0.8858
    1MOL0     C   43   1.888   5.256   5.071  1.1974 -0.0195 -0.3740
    1MOL0    Cl   44   1.747   5.233   5.179  0.5078 -0.1594  0.0516
    1MOL0     C   45   2.793   5.003   5.412  0.6290 -0.5421 -0.1778
    1MOL0     C   46   2.918   5.068   5.409 -0.6875  0.3116  0.3350
    1MOL0     O   47   3.117   5.317   5.701 -0.5642 -0.2338 -0.2937
    1MOL0     C   48   3.274   5.397   5.387  0.0517  0.8067 -0.0058
    1MOL0     C   49   3.391   5.450   5.334 -0.5051  0.0613 -0.7584
    1MOL0     N   50   3.815   6.033   5.173 -0.2702  0.2239 -0.5756
    1MOL0     N   51   3.923   6.085   5.130  0.4702 -0.2572 -0.1659
    1MOL0     C   52   5.044   5.970   4.668 -0.4524  0.1566 -0.2465
    1MOL0     C   53   5.168   6.004   4.616 -0.1234  0.6335 -0.9013
    1MOL0     C   54   5.525   6.220   4.494  0.3860 -0.2598 -0.1224
    1MOL0     C   55   5.535   6.304   4.382  0.0008  0.2332 -0.1632
    1MOL0     C   56   5.658   6.308   4.302 -0.0364 -0.2440 -0.0636
    1MOL0     C   57   5.776   6.249   4.349 -0.5184  0.9863 -0.6577
    1MOL0     O   58   5.897   6.249   4.280  0.1005 -0.0113  0.3699
    1MOL0     C   59   5.950   6.377   4.237  0.7794 -0.5475 -0.2595
    1MOL0     C   60   6.090   6.401   4.297 -0.3271 -0.4348  0.0952
    1MOL0     C   61   6.068   6.426   4.447 -0.3682 -1.0323 -0.1790
    1MOL0     C   62   6.181   6.374   4.530  0.8940  0.8267 -1.0559
    1MOL0     C   63   6.291   6.472   4.535 -0.4815 -0.7223  0.3360
    1MOL0     C   64   6.380   6.557   4.548 -0.4650  0.5009  0.0905
    1MOL0     C   65   5.764   6.167   4.463 -0.7376  1.7502  0.2524
    1MOL0     C   66   5.644   6.153   4.537  0.1421  0.5151  0.4819
    1MOL0     H   67   5.333   6.108   4.877 -1.1319  1.6273  0.4566
    1MOL0     H   68   5.110   6.061   4.989 -0.6988  3.3116  0.0460
    1MOL0     H   69   4.856   6.171   4.888  0.3029  0.9199  1.4831
    1MOL0     H   70   4.896   6.060   5.020 -1.8766 -1.0158  1.3727
    1MOL0     H   71   4.665   6.137   5.034  2.0172  3.2227 -3.0639
    1MOL0     H   72   4.647   5.968   5.021 -1.5214  0.1905  0.0531
    1MOL0     H   73   4.595   6.000   4.772 -1.3978  0.5159 -0.2519
    1MOL0     H   74   4.621   6.167   4.788 -1.4649  0.9267 -0.1536
    1MOL0     H   75   4.396   6.019   4.932 -2.1912  1.0075  0.1630
    1MOL0     H   76   4.452   6.178   4.988  2.4105 -0.7169  0.3302
    1MOL0     H   77   4.409   6.169   4.693 -0.9592 -1.6632 -0.4052
    1MOL0     H   78   4.374   6.296   4.804  1.1265  0.3182 -0.9367
    1MOL0     H   79   4.225   6.034   4.769  2.1620 -0.0417 -1.0183
    1MOL0     H   80   4.173   6.191   4.708 -0.3914 -0.2931 -1.2824
    1MOL0     H   81   4.174   6.068   4.975  2.5890  0.9305  1.6417
    1MOL0     H   82   4.209   6.235   4.986  0.5447 -0.6011  0.6287
    1MOL0     H   83   3.975   6.188   4.804 -0.7001 -0.8918 -0.1587
    1MOL0     H   84   3.985   6.301   4.937  0.2158  0.4003 -2.1890
    1MOL0     H   85   3.764   6.045   4.849 -2.4624  1.0604  0.0983
    1MOL0     H   86   3.619   5.854   4.967 -0.5399  0.5160 -0.8981
    1MOL0     H   87   3.538   5.933   5.103  0.0862  3.3916 -0.6864
    1MOL0     H   88   3.678   5.800   5.261 -1.1589  2.7385 -0.7253
    1MOL0     H   89   3.783   5.735   5.131  0.8174  2.3734  1.2762
    1MOL0     H   90   3.492   5.677   5.185  0.5301  0.1987  1.2736
    1MOL0     H   91   3.590   5.618   5.043 -1.9179 -0.2735 -0.3630
    1MOL0     H   92   3.761   5.515   5.218 -0.8529  0.5073 -2.4652
    1MOL0     H   93   3.612   5.426   5.175 -4.3241  1.6459  0.1781
    1MOL0     H   94   3.589   5.451   5.605 -0.7591  0.5019  1.1956
    1MOL0     H   95   3.371   5.346   5.709  4.0035 -1.4871 -0.3882
    1MOL0     H   96   2.868   5.299   5.646  0.8905 -2.1884  0.5517
    1MOL0     H   97   2.644   5.178   5.655 -0.3438 -0.5500  0.8056
    1MOL0     H   98   2.442   5.136   5.549  0.0714 -0.9895  2.2824
    1MOL0     H   99   2.471   5.015   5.667 -0.7120 -0.8205 -0.6665
    1MOL0     H  100   2.271   4.961   5.594  1.2555  3.6509  0.8498
    1MOL0     H  101   2.374   4.839   5.515 -1.1504 -1.0031 -2.7732
    1MOL0     H  102   2.187   4.912   5.369  0.9504  0.2102 -0.3019
    1MOL0     H  103   2.339   4.960   5.301  0.4693  0.9027 -0.2242
    1MOL0     H  104   2.133   5.136   5.435 -0.8217 -0.9535 -2.9517
    1MOL0     H  105   2.290   5.203   5.386 -1.1341  1.4127  2.8293
    1MOL0     H  106   2.243   5.138   5.149  0.4733  0.7952 -0.1374
    1MOL0     H  107   2.168   5.267   5.221  2.4587 -0.3743  0.9576
    1MOL0     H  108   1.967   5.133   5.283  0.5286  1.8410 -0.2649
    1MOL0     H  109   2.047   4.983   5.206  2.1775  0.3053 -0.0830
    1MOL0     H  110   2.043   5.117   4.985  1.6974 -1.0270  0.9264
    1MOL0     H  111   1.900   5.054   5.049 -0.7772 -0.0239  0.7851
    1MOL0     H  112   1.836   5.268   4.976  0.9632 -1.6948 -0.4880
    1MOL0     H  113   1.936   5.353   5.091 -0.8499  0.6562  1.7179
    1MOL0     H  114   2.759   4.920   5.351 -3.0315 -0.7171  1.8547
    1MOL0     H  115   2.987   5.044   5.329  0.8146 -1.7771  2.1691
    1MOL0     H  116   3.182   5.390   5.330 -1.5932 -0.3639  2.5892
    1MOL0     H  117   3.402   5.461   5.227  2.8152 -2.3242 -0.8316
    1MOL0     H  118   4.973   5.937   4.593  0.3647 -0.3957 -0.7908
    1MOL0     H  119   5.181   5.994   4.509  1.9791  0.0021 -0.6324
    1MOL0     H  120   5.447   6.364   4.358  0.7362  2.7823  2.8525
    1MOL0     H  121   5.664   6.369   4.213 -0.1142  0.6248  0.5130
    1MOL0     H  122   5.876   6.453   4.264 -1.0981 -2.5336  0.4878
    1MOL0     H  123   5.966   6.372   4.129  0.3911 -5.4744 -0.2744
    1MOL0     H  124   6.149   6.308   4.297  1.8596  0.8271  2.2167
    1MOL0     H  125   6.140   6.483   4.244 -1.1842  0.7203  1.0512
    1MOL0     H  126   5.975   6.385   4.488  0.1590  1.3130  3.8525
    1MOL0     H  127   6.055   6.534   4.458 -1.3123 -1.0232 -1.1558
    1MOL0     H  128   6.146   6.358   4.633 -1.1196 -1.8508 -2.0281
    1MOL0     H  129   6.201   6.271   4.501 -2.1013  0.3548 -1.7582
    1MOL0     H  130   6.446   6.642   4.546  0.8198 -0.4592 -1.4610
    1MOL0     H  131   5.854   6.115   4.494 -3.4101 -2.6809  1.5686
    1MOL0     H  132   5.641   6.100   4.632  1.8680 -0.3208  0.1191
    2MOL0     O  133   0.056   9.901   8.773  0.0235 -0.1174 -0.0086
    2MOL0     C  134   0.081   9.986   8.691 -0.1604  0.6031 -0.4304
    2MOL0     O  135   0.002  10.097   8.661  0.0927  0.2320 -0.2616
    2MOL0     C  136  -0.124  10.117   8.711  0.1144 -1.0543 -0.0065
    2MOL0     C  137  -0.215  10.014   8.734  0.4899  0.6459 -0.1419
    2MOL0     C  138  -0.348  10.042   8.766 -0.3546  0.6046 -0.0199
    2MOL0     C  139  -0.389  10.173   8.798  0.4829 -0.3421 -0.2581
    2MOL0     O  140  -0.514  10.204   8.838 -0.3145 -0.2942  0.3177
    2MOL0     C  141  -0.619  10.106   8.811  0.1634  0.6740 -0.3343
    2MOL0     C  142  -0.741  10.192   8.801  0.1936 -0.6277 -0.1621
    2MOL0     C  143  -0.875  10.128   8.809  0.3837 -0.3745 -0.9819
    2MOL0     C  144  -0.993  10.201   8.726  1.1442 -0.2264  0.1476
    2MOL0     C  145  -1.116  10.110   8.730 -0.7447 -0.1798 -0.7300
    2MOL0     C  146  -1.236  10.188   8.670  0.2849 -0.0517  0.3690
    2MOL0     C  147  -1.348  10.086   8.664  0.0800 -0.2838  0.1372
    2MOL0     C  148  -1.473  10.144   8.608  0.3746  0.0009  0.3439
    2MOL0     N  149  -1.570  10.045   8.559  0.2085  0.8016 -0.0605
    2MOL0     C  150  -1.710  10.062   8.543 -0.7930 -0.0306  0.9303
    2MOL0     C  151  -1.757   9.955   8.483 -0.0290 -0.1587 -0.1181
    2MOL0     C  152  -1.905   9.935   8.445 -0.6082  0.2391 -0.1296
    2MOL0     C  153  -1.931   9.793   8.408  0.4970  0.6301  0.3052
    2MOL0     C  154  -1.971   9.704   8.528 -0.2442  0.9316  0.0092
    2MOL0     C  155  -2.121   9.680   8.540 -0.2941 -0.6022  0.1097
    2MOL0     O  156  -2.181   9.631   8.415 -0.3487  0.2703 -0.0795
    2MOL0     C  157  -2.309   9.668   8.394 -0.6388  0.0632 -0.6669
    2MOL0     C  158  -2.344   9.639   8.263 -0.5135  0.2920  0.1016
    2MOL0     C  159  -2.472   9.628   8.216  0.3001 -0.5862 -0.2746
    2MOL0     C  160  -2.577   9.675   8.302  0.1834  1.0269  0.4478
    2MOL0     C  161  -2.723   9.670   8.264  1.0463  0.1525  0.3870
    2MOL0     O  162  -2.805   9.691   8.369  1.2136  0.2480  0.2806
    2MOL0     C  163  -2.931   9.636   8.371  0.0603  0.3038 -0.0250
    2MOL0     C  164  -3.010   9.685   8.478 -0.2106 -0.1578  0.0091
    2MOL0     C  165  -3.134   9.626   8.510 -0.1663 -0.3654  0.2414
    2MOL0     C  166  -3.200   9.537   8.424 -0.6559  0.5879 -0.4145
    2MOL0     O  167  -3.325   9.482   8.443 -0.0097  0.7676  0.6169
    2MOL0     C  168  -3.399   9.521   8.554  0.3125 -0.2741  1.2355
    2MOL0     C  169  -3.541   9.495   8.530 -0.6794  0.4887 -0.3847
    2MOL0     C  170  -3.577   9.346   8.511  0.2074 -0.2887 -0.0420
    2MOL0     C  171  -3.726   9.311   8.530  0.4346 -0.6315  0.1090
    2MOL0     C  172  -3.747   9.162   8.514  0.2147  1.4992 -0.6927
    2MOL0     C  173  -3.754   9.126   8.371 -0.4808  0.6978  0.4612
    2MOL0     C  174  -3.764   8.972   8.356  0.0747 -0.2968 -0.3616
    2MOL0     C  175  -3.762   8.940   8.207  0.2643  0.9126 -0.0893
    2MOL0    Cl  176  -3.917   8.980   8.134 -0.2879  0.2867  0.1018
    2MOL0     C  177  -3.114   9.487   8.323  0.1213 -0.0724  0.5081
    2MOL0     C  178  -2.984   9.530   8.294 -0.2582  0.6275 -0.0002
    2MOL0     O  179  -2.763   9.646   8.151  0.0772 -0.1700  0.5842
    2MOL0     C  180  -2.533   9.708   8.439  0.1976 -0.4648  0.4739
    2MOL0     C  181  -2.403   9.720   8.481 -1.3116 -0.0466 -0.5453
    2MOL0     N  182  -1.651   9.866   8.468  0.2920  0.5910  0.2092
    2MOL0     N  183  -1.538   9.919   8.512  0.1211  0.8133 -0.1382
    2MOL0     C  184  -0.290  10.276   8.794  0.2334 -0.1553 -0.0414
    2MOL0     C  185  -0.163  10.246   8.738 -0.0484 -0.1029  0.9998
    2MOL0     C  186   0.212   9.985   8.636  0.4371  0.4774 -0.6976
    2MOL0     C  187   0.259  10.095   8.574  0.4743 -0.6646  0.4356
    2MOL0     C  188   0.394  10.104   8.524  0.3085  0.6766 -0.6451
    2MOL0     C  189   0.475   9.988   8.513 -0.6797 -1.2846 -0.5183
    2MOL0     O  190   0.597  10.011   8.448  0.6760  0.6239 -0.1635
    2MOL0     C  191   0.708   9.931   8.488 -0.9176  0.6405 -0.1770
    2MOL0     C  192   0.825   9.939   8.385 -0.1196  0.7040 -0.2444
    2MOL0     C  193   0.957   9.876   8.427  0.2472 -0.4568  0.1845
    2MOL0     C  194   1.070   9.980   8.427 -0.0118 -0.4464  0.3865
    2MOL0     C  195   1.199   9.918   8.445  0.3283  0.4233 -1.1436
    2MOL0     C  196   1.307   9.858   8.456  0.6605 -0.0898 -0.4769
    2MOL0     C  197   0.426   9.877   8.579  0.1007  0.0496 -1.1220
    2MOL0     C  198   0.297   9.872   8.636 -0.0814 -0.0024  0.6955
    2MOL0     H  199  -0.188   9.908   8.731 -0.5649  0.3434  0.6515
    2MOL0     H  200  -0.414   9.957   8.776  0.7458 -0.1615  0.9082
    2MOL0     H  201  -0.636  10.043   8.900 -0.6053  3.5186  1.6593
    2MOL0     H  202  -0.596  10.036   8.730 -2.4391  0.9542 -1.3936
    2MOL0     H  203  -0.749  10.241   8.703 -0.8236  0.4417  0.4303
    2MOL0     H  204  -0.737  10.275   8.872 -1.9652 -0.2286 -0.4187
    2MOL0     H  205  -0.905  10.118   8.914  1.9468 -4.4307 -0.7509
    2MOL0     H  206  -0.865  10.021   8.788  1.6161 -0.6417  0.7687
    2MOL0     H  207  -1.009  10.304   8.762  3.8575  0.8382 -1.3931
    2MOL0     H  208  -0.957  10.209   8.624  0.4794 -0.4304 -0.1114
    2MOL0     H  209  -1.144  10.088   8.833 -1.1710 -0.4519 -0.9018
    2MOL0     H  210  -1.091  10.019   8.675 -0.5948 -0.2582 -0.5334
    2MOL0     H  211  -1.213  10.222   8.568  0.8332 -2.5452 -0.4153
    2MOL0     H  212  -1.262  10.265   8.743 -1.2593  0.6624 -0.8621
    2MOL0     H  213  -1.324   9.998   8.604 -2.0242 -0.9887  0.2245
    2MOL0     H  214  -1.368  10.057   8.768  1.3930 -1.7923  0.0075
    2MOL0     H  215  -1.464  10.209   8.520 -0.4956  0.3476  0.5036
    2MOL0     H  216  -1.520  10.202   8.687 -2.3965  0.4483 -1.4723
    2MOL0     H  217  -1.768  10.148   8.576 -0.8402 -0.2600  1.4562
    2MOL0     H  218  -1.942  10.008   8.372  0.3981 -0.9404 -1.8638
    2MOL0     H  219  -1.967   9.962   8.532  0.3404 -0.2312  0.7139
    2MOL0     H  220  -1.844   9.756   8.353  1.2934  2.3043  0.3931
    2MOL0     H  221  -2.013   9.793   8.335 -0.5141  1.8209  1.4081
    2MOL0     H  222  -1.922   9.606   8.520  1.7026  1.7585  1.0746
    2MOL0     H  223  -1.926   9.742   8.621  0.2786  2.7948 -0.9552
    2MOL0     H  224  -2.166   9.778   8.561  0.3089 -0.4653  0.8156
    2MOL0     H  225  -2.142   9.612   8.623  3.5964 -0.2742  1.5796
    2MOL0     H  226  -2.275   9.600   8.189  1.2580  1.6747  0.9510
    2MOL0     H  227  -2.485   9.597   8.112  0.4960  2.1363 -1.2092
    2MOL0     H  228  -2.966   9.764   8.538  1.0731  0.3004 -1.4637
    2MOL0     H  229  -3.182   9.656   8.602  1.6803  0.2370  1.0475
    2MOL0     H  230  -3.404   9.630   8.565  1.5732 -0.1526  0.7793
    2MOL0     H  231  -3.348   9.484   8.643  0.3473  0.3074  1.4627
    2MOL0     H  232  -3.583   9.548   8.444 -2.9807 -1.6926 -0.7528
    2MOL0     H  233  -3.600   9.532   8.614 -0.5352  1.9405 -0.8992
    2MOL0     H  234  -3.510   9.291   8.578  1.8275  1.4447 -0.1548
    2MOL0     H  235  -3.552   9.311   8.410 -1.6669 -1.7318 -0.0641
    2MOL0     H  236  -3.756   9.347   8.629 -0.9492 -0.2538 -0.4181
    2MOL0     H  237  -3.789   9.363   8.457  1.9619  0.8815 -0.2009
    2MOL0     H  238  -3.835   9.123   8.567  1.6304 -1.6070 -0.3929
    2MOL0     H  239  -3.671   9.109   8.572 -1.9379  1.4638  2.3581
    2MOL0     H  240  -3.668   9.160   8.313 -1.3627  0.0382 -1.2998
    2MOL0     H  241  -3.834   9.190   8.333 -0.3530 -0.7437 -2.5741
    2MOL0     H  242  -3.675   8.925   8.400 -0.5827 -3.1787 -1.8551
    2MOL0     H  243  -3.852   8.937   8.410 -0.4589  0.3169 -0.8253
    2MOL0     H  244  -3.734   8.835   8.197  2.3324  1.3045  0.9756
    2MOL0     H  245  -3.684   8.996   8.154  1.6942 -1.8389 -1.1191
    2MOL0     H  246  -3.146   9.397   8.272 -0.0331  0.7960 -1.0254
    2MOL0     H  247  -2.915   9.472   8.235  0.7082  0.6065  1.1089
    2MOL0     H  248  -2.599   9.744   8.517  1.2513  2.7010  0.0099
    2MOL0     H  249  -2.393   9.726   8.589 -0.8436 -3.8568 -0.2374
    2MOL0     H  250  -0.304  10.380   8.822  1.0907 -0.1882  0.5689
    2MOL0     H  251  -0.094  10.327   8.722 -0.9437  0.4102 -0.4914
    2MOL0     H  252   0.198  10.185   8.574  2.0347  0.4781  2.1754
    2MOL0     H  253   0.427  10.196   8.477 -2.1978  3.0203  1.7997
    2MOL0     H  254   0.685   9.825   8.499 -1.3781  0.8801  1.4075
    2MOL0     H  255   0.745   9.954   8.588 -0.7423  6.9325 -1.2764
    2MOL0     H  256   0.808   9.886   8.291  0.5395 -2.2446  1.1731
    2MOL0     H  257   0.834  10.045   8.363 -1.4417  0.8812 -0.0231
    2MOL0     H  258   0.975   9.796   8.354 -1.4081 -2.7043  2.1146
    2MOL0     H  259   0.941   9.834   8.526  0.8307 -3.1847 -0.8001
    2MOL0     H  260   1.085  10.035   8.334  2.9373  0.7218  1.4438
    2MOL0     H  261   1.056  10.057   8.504 -0.8476 -0.6922  0.4925
    2MOL0     H  262   1.395   9.801   8.436  0.1406 -0.9938 -0.2530
    2MOL0     H  263   0.488   9.789   8.590 -0.7912 -0.5710 -0.9511
    2MOL0     H  264   0.271   9.776   8.680  0.3286  0.0224  1.0030
    3MOL0     O  265  10.933   3.197   5.314 -0.0202 -0.1825  0.0925
    3MOL0     C  266  10.933   3.112   5.403 -0.3577  0.0968  0.9899
    3MOL0     O  267  10.824   3.073   5.470 -0.9133 -0.5785  0.2547
    3MOL0     C  268  10.694   3.126   5.437 -0.2338  0.0181 -0.7197
    3MOL0     C  269  10.633   3.108   5.310  0.2410 -1.0057 -0.1186
    3MOL0     C  270  10.503   3.136   5.286  0.8123  0.7693 -0.2770
    3MOL0     C  271  10.429   3.196   5.389  0.5700  0.6585  0.1173
    3MOL0     O  272  10.295   3.227   5.370  0.7582 -0.2328 -0.6325
    3MOL0     C  273  10.201   3.239   5.476  0.3623  0.2995  0.5552
    3MOL0     C  274  10.190   3.392   5.513 -0.1848  0.6021  0.0234
    3MOL0     C  275  10.135   3.436   5.649  0.2082  0.4714  0.3001
    3MOL0     C  276  10.016   3.353   5.703 -0.1684  0.7367  0.0005
    3MOL0     C  277   9.902   3.332   5.601 -0.2821  0.4920  0.0686
    3MOL0     C  278   9.792   3.248   5.662  0.1070  0.2353 -0.2949
    3MOL0     C  279   9.686   3.215   5.558  1.0351  0.1125  0.0307
    3MOL0     C  280   9.574   3.130   5.622  0.9441 -0.0351 -0.4411
    3MOL0     N  281   9.472   3.208   5.694 -0.2814  0.4503 -1.0359
    3MOL0     C  282   9.447   3.193   5.827 -0.0005 -0.5595 -1.2032
    3MOL0     C  283   9.310   3.229   5.840  0.3075  0.1382  0.4739
    3MOL0     C  284   9.231   3.223   5.980 -0.4393 -0.5058  0.3008
    3MOL0     C  285   9.093   3.298   5.949  0.2165  0.0500  0.4781
    3MOL0     C  286   9.115   3.450   5.946  0.7458  0.1846  0.6916
    3MOL0     C  287   8.973   3.514   5.957  0.0189 -0.7690  0.6574
    3MOL0     O  288   8.899   3.481   5.834  0.1835  0.6170  0.0590
    3MOL0     C  289   8.780   3.529   5.803  0.4674 -0.3987 -0.6438
    3MOL0     C  290   8.768   3.657   5.748  0.8646  0.1785 -0.6512
    3MOL0     C  291   8.633   3.703   5.739 -0.3166  0.1080  0.5659
    3MOL0     C  292   8.516   3.625   5.757 -0.2921  0.0366  0.2173
    3MOL0     C  293   8.377   3.670   5.727 -0.1890 -0.3408  0.2698
    3MOL0     O  294   8.278   3.581   5.756  0.0673 -0.0525 -0.1833
    3MOL0     C  295   8.144   3.601   5.757  0.3325 -0.9679  1.3539
    3MOL0     C  296   8.060   3.495   5.812 -0.5919  0.2223 -0.4830
    3MOL0     C  297   7.917   3.503   5.810 -0.5039  0.9107 -0.2043
    3MOL0     C  298   7.860   3.615   5.761 -0.7253 -0.4880 -0.1894
    3MOL0     O  299   7.718   3.620   5.778  0.2545 -0.0072 -0.0938
    3MOL0     C  300   7.647   3.726   5.720 -0.3205  0.1565  0.7917
    3MOL0     C  301   7.502   3.724   5.768  0.2787 -0.5313  0.4009
    3MOL0     C  302   7.416   3.836   5.703 -0.1045 -0.6319  0.1962
    3MOL0     C  303   7.274   3.837   5.753 -0.0865 -0.3358 -0.3825
    3MOL0     C  304   7.176   3.912   5.661 -0.1131  0.3657  0.4675
    3MOL0     C  305   7.026   3.910   5.709  0.3360  0.1250 -0.6484
    3MOL0     C  306   6.951   4.040   5.666 -0.2441  0.2161  1.2085
    3MOL0     C  307   6.829   4.009   5.584  1.2660  0.2502  0.2855
    3MOL0    Cl  308   6.698   3.967   5.704  0.3766 -0.1746  0.0278
    3MOL0     C  309   7.941   3.720   5.707  0.4508 -0.0864 -0.1271
    3MOL0     C  310   8.081   3.705   5.700  0.8819  0.3457  0.0552
    3MOL0     O  311   8.362   3.784   5.678 -0.1518  0.5375 -0.0845
    3MOL0     C  312   8.535   3.496   5.803  0.3913 -0.2313  0.1714
    3MOL0     C  313   8.664   3.452   5.824 -0.5752  0.2175  0.0587
    3MOL0     N  314   9.276   3.267   5.707  0.2723 -0.6541  0.6681
    3MOL0     N  315   9.367   3.254   5.619  0.4263  0.1074 -0.2424
    3MOL0     C  316  10.486   3.210   5.516 -0.0244  0.7624 -0.2953
    3MOL0     C  317  10.617   3.174   5.543 -0.2064  0.9648  0.6322
    3MOL0     C  318  11.064   3.049   5.439  1.7359  0.3598 -0.2121
    3MOL0     C  319  11.096   3.018   5.574 -0.5210  0.6875  0.0873
    3MOL0     C  320  11.219   2.965   5.602 -0.1713  0.6439  0.2154
    3MOL0     C  321  11.312   2.939   5.502  0.8533 -0.4574  0.0917
    3MOL0     O  322  11.439   2.897   5.535  0.4365 -0.4931  0.0429
    3MOL0     C  323  11.506   2.809   5.437 -0.6635 -0.4241 -0.5892
    3MOL0     C  324  11.613   2.889   5.372  0.3713 -0.3944  0.1986
    3MOL0     C  325  11.691   2.802   5.277  0.8503 -0.3799 -0.3779
    3MOL0     C  326  11.808   2.875   5.225 -0.3634 -0.1470 -0.4922
    3MOL0     C  327  11.881   2.809   5.115 -0.6514 -0.2936 -0.0393
    3MOL0     C  328  11.947   2.764   5.021  0.3264  0.9993  0.4362
    3MOL0     C  329  11.272   2.975   5.368 -0.3238 -0.1694  0.5381
    3MOL0     C  330  11.148   3.027   5.336 -0.2883  0.6367  0.3940
    3MOL0     H  331  10.692   3.066   5.229  4.4596  1.0921  1.5684
    3MOL0     H  332  10.465   3.112   5.187  0.3181  0.3703  0.0057
    3MOL0     H  333  10.229   3.174   5.560  1.6039 -0.5876 -0.4928
    3MOL0     H  334  10.106   3.207   5.432  0.2845  3.4852 -1.9395
    3MOL0     H  335  10.130   3.442   5.437 -1.0015  4.3964  2.8542
    3MOL0     H  336  10.288   3.440   5.511 -0.1459  0.5172 -0.0952
    3MOL0     H  337  10.114   3.543   5.646  0.1548  0.4788  0.8562
    3MOL0     H  338  10.215   3.424   5.722  1.0538 -2.1386 -0.9269
    3MOL0     H  339  10.066   3.261   5.735  0.8635  1.6148  0.9924
    3MOL0     H  340   9.975   3.410   5.787 -0.2653 -1.5429  1.5870
    3MOL0     H  341   9.939   3.298   5.504  1.6742 -1.7547  1.5097
    3MOL0     H  342   9.848   3.427   5.593 -1.4781 -0.0961  0.8436
    3MOL0     H  343   9.737   3.300   5.741 -2.2941  3.1472 -3.5306
    3MOL0     H  344   9.828   3.154   5.704 -4.3736 -1.5132  0.2268
    3MOL0     H  345   9.651   3.304   5.506 -2.1325  0.4706  2.4582
    3MOL0     H  346   9.734   3.151   5.483  1.2250 -0.2358  0.4454
    3MOL0     H  347   9.619   3.048   5.680  1.0131  0.9318  0.9051
    3MOL0     H  348   9.526   3.073   5.542 -0.4976  0.2202  0.2139
    3MOL0     H  349   9.521   3.168   5.902  1.8206  2.9776 -1.6031
    3MOL0     H  350   9.286   3.278   6.057 -1.3309  2.1015 -0.7866
    3MOL0     H  351   9.222   3.123   6.021  0.2097 -1.0932 -0.9344
    3MOL0     H  352   9.018   3.282   6.027  1.5034 -0.5616  1.6390
    3MOL0     H  353   9.052   3.261   5.855  1.8932 -1.7889  0.4084
    3MOL0     H  354   9.180   3.480   6.029  1.0816  0.6351  0.2753
    3MOL0     H  355   9.151   3.481   5.847 -1.8497  0.7474 -0.1577
    3MOL0     H  356   8.984   3.623   5.961 -0.0271 -0.7783  1.1365
    3MOL0     H  357   8.925   3.475   6.048 -0.9033  0.5914  0.7858
    3MOL0     H  358   8.854   3.718   5.726 -0.0223  0.9654 -2.0625
    3MOL0     H  359   8.628   3.800   5.690  0.6401 -0.6068 -1.0315
    3MOL0     H  360   8.105   3.400   5.837  0.6657  1.2876  1.7030
    3MOL0     H  361   7.858   3.426   5.860 -0.4715  2.6396  2.7221
    3MOL0     H  362   7.647   3.713   5.612 -1.5574 -1.8258  0.9775
    3MOL0     H  363   7.688   3.825   5.743 -0.5312  0.4237  0.0225
    3MOL0     H  364   7.507   3.742   5.875 -0.5674  0.8774  0.2355
    3MOL0     H  365   7.449   3.630   5.749 -0.9101  0.7010 -3.2859
    3MOL0     H  366   7.417   3.828   5.594  3.4296 -1.1500  0.1647
    3MOL0     H  367   7.451   3.934   5.738  0.0548 -0.5195 -0.2710
    3MOL0     H  368   7.244   3.732   5.760 -0.6222 -0.1607 -0.0161
    3MOL0     H  369   7.289   3.874   5.855  2.4864 -1.2234 -0.3703
    3MOL0     H  370   7.177   3.863   5.563  0.7855 -0.6932  0.9827
    3MOL0     H  371   7.207   4.017   5.655  0.9027  0.0071 -1.6508
    3MOL0     H  372   7.029   3.913   5.819  2.0392  0.5726 -0.6680
    3MOL0     H  373   6.975   3.820   5.673  1.9965 -1.4033  0.6031
    3MOL0     H  374   6.924   4.089   5.760 -1.7423  2.5074 -0.3137
    3MOL0     H  375   7.019   4.106   5.612 -0.1598 -0.2504  0.7261
    3MOL0     H  376   6.839   3.925   5.514 -2.4953  1.0115 -1.4345
    3MOL0     H  377   6.802   4.097   5.524 -1.4909  0.0962  1.1868
    3MOL0     H  378   7.893   3.811   5.672 -0.5182  0.2931  2.0307
    3MOL0     H  379   8.110   3.794   5.646  0.0487  0.3605 -0.3868
    3MOL0     H  380   8.453   3.425   5.815 -2.3690  2.1051 -3.0854
    3MOL0     H  381   8.699   3.355   5.858  1.4404  1.4091  1.6095
    3MOL0     H  382  10.432   3.270   5.589 -0.2577  0.4044 -0.1705
    3MOL0     H  383  10.663   3.180   5.642  1.7973  0.5272 -0.2173
    3MOL0     H  384  11.020   3.035   5.650  0.6326  0.1082  1.4208
    3MOL0     H  385  11.250   2.932   5.700 -1.3198 -0.6220  0.1856
    3MOL0     H  386  11.437   2.766   5.364 -0.0536 -1.4108 -0.6027
    3MOL0     H  387  11.541   2.725   5.497 -2.3474 -0.2066  0.7854
    3MOL0     H  388  11.569   2.982   5.335 -1.2361 -1.7663 -1.5515
    3MOL0     H  389  11.677   2.941   5.443 -0.4660 -0.6671  1.1795
    3MOL0     H  390  11.637   2.766   5.189  0.1040  0.4574 -0.2755
    3MOL0     H  391  11.730   2.712   5.326  0.8999  0.2522  0.7704
    3MOL0     H  392  11.780   2.977   5.197  0.5396  1.1803  2.9764
    3MOL0     H  393  11.876   2.884   5.310  1.3081 -1.4073 -1.6167
    3MOL0     H  394  12.008   2.721   4.945 -2.5038 -1.5615 -0.6206
    3MOL0     H  395  11.348   2.959   5.293 -1.0105 -2.0866  0.1796
    3MOL0     H  396  11.137   3.055   5.232 -0.2511  1.8699  0.6983
    4MOL0     O  397   4.563   3.227   4.977  0.4143 -0.2727  0.0161
    4MOL0     C  398   4.565   3.173   5.089 -0.1841 -0.7327  0.0473
    4MOL0     O  399   4.469   3.099   5.141 -0.2600  0.1678 -0.0694
    4MOL0     C  400   4.361   3.066   5.063 -0.2895 -0.5082 -0.0025
    4MOL0     C  401   4.369   3.002   4.939 -0.4896  0.1238  0.9145
    4MOL0     C  402   4.260   2.967   4.863 -0.6394 -0.4378 -0.3011
    4MOL0     C  403   4.131   2.992   4.905 -0.4882 -0.1723  0.1989
    4MOL0     O  404   4.019   2.947   4.839 -0.5728  0.2466 -0.1451
    4MOL0     C  405   4.029   2.944   4.694  0.2481  0.3634 -0.3276
    4MOL0     C  406   3.902   2.903   4.620 -0.1431  0.1661  0.1937
    4MOL0     C  407   3.803   3.022   4.599  0.1942  0.3529  0.0033
    4MOL0     C  408   3.706   2.986   4.491 -0.4885 -0.4092 -0.3195
    4MOL0     C  409   3.586   3.081   4.493  0.1163  0.5006  0.7073
    4MOL0     C  410   3.513   3.093   4.362  0.3681  0.1649 -0.1147
    4MOL0     C  411   3.388   3.186   4.399 -0.7324 -0.8636 -0.1539
    4MOL0     C  412   3.351   3.267   4.281  0.9095  0.5628  0.5560
    4MOL0     N  413   3.261   3.379   4.317  0.3001 -0.1110 -0.3452
    4MOL0     C  414   3.124   3.360   4.320  0.1516 -0.5719  0.0130
    4MOL0     C  415   3.081   3.477   4.369  0.6268  0.2867 -0.2108
    4MOL0     C  416   2.939   3.511   4.394  0.9507 -0.4384 -0.5518
    4MOL0     C  417   2.877   3.477   4.536 -0.6439  0.3242  0.6821
    4MOL0     C  418   2.728   3.527   4.531 -0.9046 -0.1947 -0.3368
    4MOL0     C  419   2.642   3.453   4.620 -1.6380 -0.0102 -0.8262
    4MOL0     O  420   2.506   3.514   4.613 -0.7135 -0.3443 -0.6251
    4MOL0     C  421   2.403   3.441   4.652  0.0819  0.1325 -0.6960
    4MOL0     C  422   2.390   3.302   4.641 -0.0119  0.3516  0.3909
    4MOL0     C  423   2.266   3.243   4.680  0.1485  0.6497 -0.3311
    4MOL0     C  424   2.156   3.319   4.728  0.8507  0.2508  0.3902
    4MOL0     C  425   2.027   3.255   4.780  0.3345 -0.0066  0.3801
    4MOL0     O  426   1.927   3.336   4.825 -0.3649 -1.3847 -0.9753
    4MOL0     C  427   1.803   3.287   4.872  0.7849  0.7910 -0.5668
    4MOL0     C  428   1.750   3.159   4.841  0.2676  0.0217 -0.0988
    4MOL0     C  429   1.644   3.101   4.908  0.5666  0.7486 -0.4216
    4MOL0     C  430   1.583   3.170   5.014 -0.3716 -0.2597 -0.3098
    4MOL0     O  431   1.479   3.126   5.094  0.3785 -0.3460  0.2506
    4MOL0     C  432   1.397   3.021   5.052  0.2616 -0.8755  0.0584
    4MOL0     C  433   1.273   3.004   5.132  0.3696  0.0629 -0.9266
    4MOL0     C  434   1.196   3.140   5.132  0.3421  0.2652 -0.1124
    4MOL0     C  435   1.052   3.141   5.174 -0.7992 -0.9766  0.2163
    4MOL0     C  436   0.988   3.274   5.128 -0.3078 -0.2335  0.6492
    4MOL0     C  437   0.839   3.288   5.155  0.0062 -0.2090 -0.4336
    4MOL0     C  438   0.760   3.206   5.047 -0.0109  0.7540 -0.5126
    4MOL0     C  439   0.611   3.250   5.056  0.0444 -0.5349  0.1001
    4MOL0    Cl  440   0.507   3.171   4.929 -0.3961 -0.0986 -0.0137
    4MOL0     C  441   1.629   3.300   5.042 -0.4920  0.1047  0.1852
    4MOL0     C  442   1.740   3.358   4.977 -0.3430  0.3860  1.0198
    4MOL0     O  443   2.027   3.131   4.779 -0.1777  0.2985  0.0427
    4MOL0     C  444   2.177   3.459   4.736  0.3272 -0.4048  0.2953
    4MOL0     C  445   2.297   3.519   4.697  0.8779 -0.7021  0.5305
    4MOL0     N  446   3.183   3.571   4.372  0.3150  0.2177 -0.1118
    4MOL0     N  447   3.286   3.501   4.357 -0.2732  0.8608 -0.7366
    4MOL0     C  448   4.120   3.065   5.021 -0.0424  0.4358 -0.1510
    4MOL0     C  449   4.232   3.096   5.102  0.5118 -0.6966  0.4338
    4MOL0     C  450   4.689   3.207   5.168 -0.9530  1.0353  1.0693
    4MOL0     C  451   4.703   3.198   5.305 -0.5693 -0.1717 -0.4295
    4MOL0     C  452   4.816   3.233   5.372  0.5929  0.0536 -0.2133
    4MOL0     C  453   4.930   3.279   5.307 -0.8162  0.3504  0.6655
    4MOL0     O  454   5.057   3.302   5.364 -1.1115 -0.3561 -0.1282
    4MOL0     C  455   5.059   3.321   5.506 -0.3801 -0.8118  0.7567
    4MOL0     C  456   5.203   3.344   5.557 -0.8476 -0.4492  0.1793
    4MOL0     C  457   5.236   3.495   5.510  0.1254 -0.1393  0.0901
    4MOL0     C  458   5.356   3.554   5.588  0.8734  0.3150  0.5364
    4MOL0     C  459   5.458   3.447   5.609  0.5111  0.7777  0.2489
    4MOL0     C  460   5.537   3.357   5.620 -0.0628 -0.7044 -0.1588
    4MOL0     C  461   4.922   3.274   5.163 -0.0017  0.3604 -0.8168
    4MOL0     C  462   4.808   3.245   5.095  0.1329  0.5654  0.4354
    4MOL0     H  463   4.469   2.978   4.902 -1.0163 -1.7932  0.6145
    4MOL0     H  464   4.284   2.915   4.771  1.5216 -0.6092  0.3094
    4MOL0     H  465   4.093   2.862   4.661 -1.9155 -1.3804 -0.4490
    4MOL0     H  466   4.068   3.034   4.646 -1.7240  0.4169 -1.9930
    4MOL0     H  467   3.840   2.828   4.671 -0.0369  0.2172  0.3960
    4MOL0     H  468   3.921   2.852   4.525  0.5864  0.2362  0.3004
    4MOL0     H  469   3.862   3.105   4.559  0.2767  0.5300  0.4767
    4MOL0     H  470   3.754   3.043   4.695  1.6619 -0.6508  1.0414
    4MOL0     H  471   3.753   2.995   4.393 -3.2479  0.2320 -1.7017
    4MOL0     H  472   3.673   2.883   4.504 -1.5624  0.0776  1.3026
    4MOL0     H  473   3.630   3.178   4.514  1.5480 -0.6427  3.4687
    4MOL0     H  474   3.512   3.047   4.566 -0.8908  0.2443 -0.4018
    4MOL0     H  475   3.486   2.996   4.320  2.7088 -0.4299 -0.3461
    4MOL0     H  476   3.571   3.145   4.285  0.2137 -2.5860 -2.2514
    4MOL0     H  477   3.310   3.123   4.444  1.1309 -2.1707  1.3953
    4MOL0     H  478   3.421   3.260   4.472  0.9667 -0.8868 -0.8631
    4MOL0     H  479   3.296   3.203   4.211  1.1344 -1.5113  2.1771
    4MOL0     H  480   3.446   3.300   4.237  0.6076 -0.9502 -1.3547
    4MOL0     H  481   3.050   3.286   4.292 -0.8386  1.0898 -2.0150
    4MOL0     H  482   2.878   3.461   4.317  0.0363 -0.7970  0.3849
    4MOL0     H  483   2.945   3.618   4.370  4.3625 -0.3674  0.0721
    4MOL0     H  484   2.944   3.528   4.606  0.4238  1.9903 -1.4137
    4MOL0     H  485   2.878   3.370   4.558 -0.0422  0.4713  1.4273
    4MOL0     H  486   2.724   3.634   4.554  1.8990 -0.4215  1.8280
    4MOL0     H  487   2.696   3.516   4.427  0.3140  1.4984 -0.9493
    4MOL0     H  488   2.672   3.454   4.725  0.2254  1.2982 -1.3240
    4MOL0     H  489   2.635   3.347   4.594  0.4470 -0.6319  0.8227
    4MOL0     H  490   2.456   3.236   4.586  0.0248  0.4850  0.2753
    4MOL0     H  491   2.256   3.136   4.670  3.5187 -0.0319  1.9220
    4MOL0     H  492   1.812   3.098   4.777 -1.3729  0.2885 -2.0428
    4MOL0     H  493   1.634   2.993   4.896  2.0228  0.6671 -1.0613
    4MOL0     H  494   1.450   2.926   5.043  1.1008 -0.5367  1.2031
    4MOL0     H  495   1.361   3.033   4.949  1.1954 -2.8088 -0.5231
    4MOL0     H  496   1.300   2.976   5.234 -1.5045  1.1130 -0.0833
    4MOL0     H  497   1.213   2.922   5.091 -1.5875  0.2501  1.3340
    4MOL0     H  498   1.208   3.182   5.031  1.1592  2.0523  0.6643
    4MOL0     H  499   1.254   3.212   5.191 -0.8157  0.9958  0.1618
    4MOL0     H  500   1.003   3.058   5.121  1.2912  0.8739 -5.3527
    4MOL0     H  501   1.042   3.129   5.282  1.5477 -1.0137  0.4726
    4MOL0     H  502   1.004   3.280   5.020 -0.8170  3.5340  0.6367
    4MOL0     H  503   1.028   3.367   5.170 -0.4843  0.7869 -1.3125
    4MOL0     H  504   0.814   3.395   5.150 -0.8561 -0.2958  1.4144
    4MOL0     H  505   0.817   3.251   5.255 -0.9307  0.1948 -0.4794
    4MOL0     H  506   0.804   3.230   4.950  2.3643  2.6828  0.8943
    4MOL0     H  507   0.772   3.098   5.064  0.2882  0.6248 -1.4524
    4MOL0     H  508   0.612   3.357   5.035  1.9130 -0.8427 -1.7168
    4MOL0     H  509   0.565   3.232   5.153 -1.2106  0.3503 -0.3043
    4MOL0     H  510   1.587   3.352   5.127 -0.3694  1.1785 -0.3968
    4MOL0     H  511   1.781   3.458   4.990 -0.5541  0.6217 -0.0955
    4MOL0     H  512   2.097   3.515   4.784 -1.4194 -2.3949 -0.1748
    4MOL0     H  513   2.306   3.627   4.695  1.5373 -0.7618 -1.2502
    4MOL0     H  514   4.019   3.089   5.053 -0.1027  0.4392 -0.3387
    4MOL0     H  515   4.205   3.157   5.188 -3.2922 -0.4990 -0.7172
    4MOL0     H  516   4.610   3.166   5.352 -0.8133  1.2657  0.0957
    4MOL0     H  517   4.819   3.221   5.480  2.6250 -1.3143 -0.3646
    4MOL0     H  518   5.018   3.232   5.555 -0.0857 -1.1117  0.4657
    4MOL0     H  519   4.995   3.407   5.527  2.6070  2.3795 -2.0882
    4MOL0     H  520   5.216   3.336   5.665  2.0695  0.7037  0.0103
    4MOL0     H  521   5.272   3.268   5.518  0.7564 -1.0433  3.8364
    4MOL0     H  522   5.150   3.562   5.520 -0.2208 -0.6768  0.8241
    4MOL0     H  523   5.256   3.485   5.403 -1.6448 -2.5709 -0.1118
    4MOL0     H  524   5.403   3.631   5.526 -0.3557 -0.0282 -0.8653
    4MOL0     H  525   5.322   3.596   5.683  0.1638  0.1467  0.3597
    4MOL0     H  526   5.601   3.272   5.626  0.0598 -0.8821 -2.8207
    4MOL0     H  527   5.021   3.291   5.122 -0.1513 -1.4411 -2.0616
    4MOL0     H  528   4.807   3.258   4.987  0.3696 -1.2071  0.2036
    5MOL0     O  529   9.226   2.219  10.046  0.7912 -0.2358  0.5707
    5MOL0     C  530   9.185   2.326  10.089 -0.6781 -0.1723  0.6548
    5MOL0     O  531   9.061   2.371  10.089  0.2309  0.2426 -0.0108
    5MOL0     C  532   8.963   2.281  10.071  0.2561  0.2156  0.0164
    5MOL0     C  533   8.886   2.291   9.957  0.3409 -1.4697  0.3029
    5MOL0     C  534   8.770   2.216   9.934 -0.2810  0.0073  0.6549
    5MOL0     C  535   8.737   2.111  10.020  0.3883 -0.5594 -1.2087
    5MOL0     O  536   8.625   2.031  10.013 -0.0181 -0.0276 -1.1117
    5MOL0     C  537   8.526   2.073   9.915  0.7451  0.6689  0.4664
    5MOL0     C  538   8.387   2.012   9.953 -0.2799  0.5903  0.1327
    5MOL0     C  539   8.365   1.880   9.885  0.1850 -0.0203  1.2388
    5MOL0     C  540   8.353   1.877   9.727  0.0679 -0.3490 -0.6786
    5MOL0     C  541   8.432   1.753   9.673  0.3747  0.9099  0.0549
    5MOL0     C  542   8.410   1.748   9.521  0.3240 -0.5583  0.3103
    5MOL0     C  543   8.526   1.673   9.450  0.1522  0.9139  0.0902
    5MOL0     C  544   8.524   1.520   9.475  0.2081 -0.1878  0.6593
    5MOL0     N  545   8.397   1.450   9.433 -0.5324 -0.3617 -0.0474
    5MOL0     C  546   8.349   1.342   9.496  0.2604 -0.1240  0.3902
    5MOL0     C  547   8.248   1.299   9.426  0.1088 -0.1593  0.8539
    5MOL0     C  548   8.163   1.178   9.468  0.2240 -0.2998 -0.5154
    5MOL0     C  549   8.054   1.209   9.571 -0.1208 -0.2485  0.8870
    5MOL0     C  550   7.947   1.302   9.519 -0.8374 -0.4585 -0.3875
    5MOL0     C  551   7.861   1.354   9.635 -0.0274  0.5297 -0.0785
    5MOL0     O  552   7.757   1.430   9.579  0.0422 -0.0322  0.6741
    5MOL0     C  553   7.630   1.390   9.570  0.8315 -0.4003 -0.1683
    5MOL0     C  554   7.550   1.494   9.532  0.6446  0.3292 -0.6736
    5MOL0     C  555   7.403   1.468   9.524 -0.2813  0.3049  0.5902
    5MOL0     C  556   7.344   1.341   9.538 -0.1049 -0.4894  0.1211
    5MOL0     C  557   7.194   1.325   9.525 -0.3866  0.8164 -0.1352
    5MOL0     O  558   7.147   1.190   9.537  0.5462  0.0784 -0.3042
    5MOL0     C  559   7.014   1.168   9.513 -0.4346  0.3259 -0.7120
    5MOL0     C  560   6.917   1.201   9.608  1.0994 -0.3694 -0.4896
    5MOL0     C  561   6.783   1.194   9.573  0.4172 -0.2592 -0.3219
    5MOL0     C  562   6.745   1.142   9.455  0.4741  0.5047 -0.2853
    5MOL0     O  563   6.615   1.132   9.429  0.6159  0.3345  0.0536
    5MOL0     C  564   6.505   1.132   9.525 -1.3929  0.3134  0.2804
    5MOL0     C  565   6.386   1.084   9.442 -0.7599  0.3643 -0.2589
    5MOL0     C  566   6.265   1.058   9.538  0.4517 -0.4563 -0.8589
    5MOL0     C  567   6.140   1.035   9.444 -1.3135  0.9934 -0.6080
    5MOL0     C  568   6.014   1.022   9.523 -0.5953 -0.1492  0.1730
    5MOL0     C  569   5.888   0.997   9.451 -0.5284  0.9424  0.4932
    5MOL0     C  570   5.886   0.857   9.376  0.2014 -1.4709 -0.0484
    5MOL0     C  571   5.760   0.826   9.293  0.2648 -0.5786  0.3132
    5MOL0    Cl  572   5.604   0.882   9.374  0.4194  0.3619  0.1050
    5MOL0     C  573   6.838   1.094   9.363 -0.2672  0.6094  0.3903
    5MOL0     C  574   6.972   1.111   9.390 -0.5464  0.8318  0.6372
    5MOL0     O  575   7.123   1.426   9.517 -0.3239 -0.0702  0.9364
    5MOL0     C  576   7.428   1.241   9.571 -0.3570  0.6530  0.0539
    5MOL0     C  577   7.568   1.263   9.585 -0.0946  0.2414  0.8089
    5MOL0     N  578   8.228   1.381   9.311 -0.2841  0.1516  0.2516
    5MOL0     N  579   8.333   1.462   9.312  0.5357  0.0731 -0.0978
    5MOL0     C  580   8.822   2.091  10.130  0.2285 -0.6299 -0.3900
    5MOL0     C  581   8.937   2.177  10.157  0.1667 -0.2607  0.3147
    5MOL0     C  582   9.291   2.421  10.125  0.1512 -0.0900  0.4792
    5MOL0     C  583   9.257   2.556  10.142 -1.1586  0.1628 -0.4092
    5MOL0     C  584   9.351   2.652  10.167  0.5634  0.7453 -0.9154
    5MOL0     C  585   9.491   2.624  10.184 -0.0616  0.5998  0.0318
    5MOL0     O  586   9.599   2.714  10.198  0.0972  0.2754  0.4562
    5MOL0     C  587   9.572   2.851  10.209 -0.2933  0.0734 -0.1187
    5MOL0     C  588   9.579   2.880  10.369 -0.4621  0.8989 -0.1857
    5MOL0     C  589   9.710   2.822  10.435  0.1125 -0.1977 -0.6524
    5MOL0     C  590   9.734   2.865  10.577 -0.2914 -0.6429  0.0335
    5MOL0     C  591   9.616   2.853  10.658  0.3557  0.5313  0.2644
    5MOL0     C  592   9.519   2.838  10.733  0.3572  0.2737 -0.0295
    5MOL0     C  593   9.523   2.485  10.174  0.6636 -0.4959  0.2750
    5MOL0     C  594   9.422   2.385  10.145 -0.6679 -0.3910 -0.8238
    5MOL0     H  595   8.905   2.378   9.894 -0.4872  0.0539  2.0673
    5MOL0     H  596   8.714   2.231   9.842  0.0812  1.7433  0.6842
    5MOL0     H  597   8.559   2.043   9.815 -3.6556  1.8729 -1.6135
    5MOL0     H  598   8.511   2.181   9.914 -3.8781  0.2223  0.1289
    5MOL0     H  599   8.315   2.076   9.901 -4.0619 -2.6603  0.9019
    5MOL0     H  600   8.363   2.008  10.060 -2.5891 -1.2268 -0.3713
    5MOL0     H  601   8.272   1.833   9.919 -0.0953 -1.9058 -1.7559
    5MOL0     H  602   8.435   1.804   9.921  0.6992  0.0139  0.3480
    5MOL0     H  603   8.246   1.874   9.703 -0.9528  1.8413  2.9231
    5MOL0     H  604   8.397   1.967   9.684  2.6443 -1.0426  0.3479
    5MOL0     H  605   8.408   1.653   9.712 -0.3442  1.1937  0.3578
    5MOL0     H  606   8.535   1.765   9.708  1.1490 -1.1892 -1.3052
    5MOL0     H  607   8.412   1.848   9.477  1.4627 -1.8048 -2.6990
    5MOL0     H  608   8.312   1.705   9.500 -0.7402  1.3260  1.1079
    5MOL0     H  609   8.534   1.688   9.342 -0.0450  1.3341  0.1323
    5MOL0     H  610   8.622   1.713   9.485 -0.0183  0.6673  0.8443
    5MOL0     H  611   8.550   1.498   9.579 -1.2917 -2.9274  0.5486
    5MOL0     H  612   8.602   1.479   9.410 -1.5681  1.1865 -2.5599
    5MOL0     H  613   8.394   1.298   9.584 -0.0053  0.6621  0.9375
    5MOL0     H  614   8.226   1.097   9.507 -1.0827 -1.0387  0.1397
    5MOL0     H  615   8.116   1.126   9.384 -1.2750 -1.2805  0.8617
    5MOL0     H  616   8.097   1.262   9.656 -1.1084  4.0634 -1.0393
    5MOL0     H  617   8.015   1.114   9.609 -0.3836 -0.4104  0.2272
    5MOL0     H  618   7.992   1.388   9.468  1.0006 -2.7454 -2.8993
    5MOL0     H  619   7.889   1.248   9.444  0.6399  0.2507 -2.0966
    5MOL0     H  620   7.921   1.409   9.707 -2.2096  3.6326 -0.3977
    5MOL0     H  621   7.816   1.263   9.676 -2.0027  0.0710 -2.9419
    5MOL0     H  622   7.578   1.599   9.535 -5.1758  2.2188  0.5344
    5MOL0     H  623   7.344   1.554   9.494  0.4629  0.5877 -0.0852
    5MOL0     H  624   6.958   1.250   9.696  0.0897 -2.0516  0.9871
    5MOL0     H  625   6.709   1.225   9.646  3.0232  1.3151  1.8244
    5MOL0     H  626   6.484   1.230   9.569 -0.4529  1.3461 -1.4528
    5MOL0     H  627   6.518   1.062   9.608 -3.9293  0.2376  0.6921
    5MOL0     H  628   6.416   0.995   9.387 -1.5853  1.0955 -1.9552
    5MOL0     H  629   6.350   1.161   9.374  0.5934 -0.1878 -1.6574
    5MOL0     H  630   6.246   1.148   9.596 -2.7013  0.0231 -2.4460
    5MOL0     H  631   6.278   0.975   9.609 -1.8763 -0.5865 -0.5047
    5MOL0     H  632   6.114   1.110   9.368 -1.1945  1.2420 -0.4042
    5MOL0     H  633   6.163   0.939   9.398  0.8877  1.6892 -1.0750
    5MOL0     H  634   6.003   1.120   9.571  2.1805  0.5008 -0.3046
    5MOL0     H  635   6.045   0.948   9.598  0.7758 -1.2716 -1.4433
    5MOL0     H  636   5.857   1.076   9.383  0.3628 -0.1201 -1.2290
    5MOL0     H  637   5.808   0.990   9.526 -0.6604 -0.3253  0.2715
    5MOL0     H  638   5.970   0.855   9.305  1.2969 -2.7812  1.2298
    5MOL0     H  639   5.898   0.778   9.450 -0.9699  0.4421  2.3082
    5MOL0     H  640   5.750   0.720   9.268 -1.9752 -0.9447  2.3212
    5MOL0     H  641   5.775   0.896   9.210  4.4453  1.4754  2.4987
    5MOL0     H  642   6.813   1.048   9.268  2.0570 -4.0486  1.7327
    5MOL0     H  643   7.039   1.076   9.313  1.3037  2.6964  1.3097
    5MOL0     H  644   7.396   1.138   9.586  2.2055 -0.4304 -1.2499
    5MOL0     H  645   7.633   1.181   9.614  0.5826  0.3062 -0.4495
    5MOL0     H  646   8.787   2.003  10.183 -3.0264  1.2058  0.8061
    5MOL0     H  647   9.000   2.171  10.246  0.3620  2.1870  0.4156
    5MOL0     H  648   9.152   2.577  10.127 -2.3939 -4.1958  0.7033
    5MOL0     H  649   9.313   2.754  10.176  0.0487  0.6596 -2.0118
    5MOL0     H  650   9.483   2.902  10.171 -0.8319 -1.8579 -1.6408
    5MOL0     H  651   9.652   2.916  10.171 -1.2569  2.8766  2.2559
    5MOL0     H  652   9.579   2.987  10.395  1.5739  0.9842 -0.3410
    5MOL0     H  653   9.489   2.838  10.413 -0.8590  2.0915  0.1960
    5MOL0     H  654   9.800   2.842  10.376  0.7799 -2.6905 -0.5845
    5MOL0     H  655   9.699   2.713  10.439  0.4969 -0.1951  1.8948
    5MOL0     H  656   9.812   2.802  10.623 -1.1664 -2.1461 -0.4673
    5MOL0     H  657   9.756   2.971  10.565  0.3972 -0.8139 -0.2644
    5MOL0     H  658   9.434   2.827  10.798 -1.7395  1.0663 -2.4909
    5MOL0     H  659   9.624   2.446  10.176  0.7515 -0.3313 -0.6775
    5MOL0     H  660   9.454   2.282  10.154  4.2240  1.0485  2.7414
    6MOL0     O  661   5.346   1.563   4.687 -0.5075  0.3797  0.8845
    6MOL0     C  662   5.434   1.643   4.672  1.1853  0.3841 -1.1061
    6MOL0     O  663   5.412   1.761   4.601  0.1958 -0.0698 -0.3087
    6MOL0     C  664   5.275   1.802   4.581 -0.5406  0.4799 -0.4528
    6MOL0     C  665   5.261   1.884   4.475  0.1590 -0.6123  0.4539
    6MOL0     C  666   5.133   1.937   4.443  0.3388 -0.0294  0.5203
    6MOL0     C  667   5.019   1.910   4.521  0.4553 -0.2517  0.7610
    6MOL0     O  668   4.902   1.975   4.491  0.7970  0.2601 -0.5538
    6MOL0     C  669   4.804   1.885   4.445  0.3633 -0.1207 -0.0729
    6MOL0     C  670   4.679   1.965   4.401  1.0628 -0.5512 -0.1055
    6MOL0     C  671   4.559   1.872   4.381  0.1867  0.3336  0.4076
    6MOL0     C  672   4.456   1.954   4.291 -0.0058 -0.2234 -0.8913
    6MOL0     C  673   4.349   2.027   4.378  0.0079 -0.2933 -0.0751
    6MOL0     C  674   4.280   2.125   4.284  0.9672 -0.0502 -0.4829
    6MOL0     C  675   4.194   2.229   4.361 -1.5364 -0.7350  0.4536
    6MOL0     C  676   4.123   2.330   4.266 -0.8418 -0.1680 -0.2501
    6MOL0     N  677   4.033   2.417   4.354 -0.3021 -0.0764  0.4618
    6MOL0     C  678   3.919   2.369   4.414 -0.3584 -0.3356  0.4677
    6MOL0     C  679   3.867   2.481   4.469  0.8935 -0.0224  0.5741
    6MOL0     C  680   3.730   2.491   4.540 -0.1992 -0.9748  0.6193
    6MOL0     C  681   3.746   2.531   4.691  0.3190 -0.0583  0.1112
    6MOL0     C  682   3.614   2.575   4.756 -0.4586  0.6362  0.2859
    6MOL0     C  683   3.523   2.450   4.762 -0.1281  0.1432  0.3931
    6MOL0     O  684   3.425   2.487   4.863  0.0334 -0.6786  0.3445
    6MOL0     C  685   3.296   2.521   4.821  0.0543 -0.1877  1.0395
    6MOL0     C  686   3.187   2.489   4.904 -0.2556 -0.8683  0.1403
    6MOL0     C  687   3.058   2.499   4.871  0.2452  0.1221 -0.1791
    6MOL0     C  688   3.020   2.551   4.748  0.1563 -0.4154  0.7997
    6MOL0     C  689   2.873   2.571   4.711 -0.1700 -0.0119  0.3906
    6MOL0     O  690   2.785   2.541   4.821 -0.2719  0.1156  0.0285
    6MOL0     C  691   2.649   2.567   4.809  0.2351  0.5301 -0.0827
    6MOL0     C  692   2.582   2.596   4.924  0.0660 -0.2877 -0.3610
    6MOL0     C  693   2.442   2.606   4.922 -0.0337 -0.1815  1.0922
    6MOL0     C  694   2.366   2.619   4.808 -0.6049  0.2389 -0.5789
    6MOL0     O  695   2.236   2.669   4.810 -0.0165  0.1039  0.0541
    6MOL0     C  696   2.148   2.568   4.864 -1.4565  0.3201  0.2898
    6MOL0     C  697   2.015   2.640   4.839 -0.0793  0.6563 -0.1387
    6MOL0     C  698   1.895   2.558   4.889 -1.2095  0.3069  0.1072
    6MOL0     C  699   1.759   2.601   4.838 -0.3444 -0.0546 -0.3355
    6MOL0     C  700   1.646   2.508   4.884  0.5445  0.3113  0.1350
    6MOL0     C  701   1.506   2.577   4.863  0.0924  0.4000 -0.3895
    6MOL0     C  702   1.464   2.602   4.719  0.3002  0.0018 -0.9531
    6MOL0     C  703   1.327   2.666   4.684 -0.0124  1.0979  0.9347
    6MOL0    Cl  704   1.200   2.547   4.719 -0.3889 -0.1436  0.2393
    6MOL0     C  705   2.435   2.608   4.692 -0.9231 -0.7324 -0.2754
    6MOL0     C  706   2.567   2.568   4.685 -0.0907 -0.2612 -0.4681
    6MOL0     O  707   2.841   2.606   4.595  0.1150  0.1778 -0.4058
    6MOL0     C  708   3.127   2.603   4.668 -0.9057 -0.5664  0.3009
    6MOL0     C  709   3.264   2.578   4.694 -1.0184 -0.2783 -0.5497
    6MOL0     N  710   3.951   2.592   4.442 -0.4388  0.4760 -0.6759
    6MOL0     N  711   4.043   2.553   4.365 -0.5938 -0.0659 -0.1802
    6MOL0     C  712   5.042   1.838   4.644 -0.2264  0.0826  0.2279
    6MOL0     C  713   5.167   1.778   4.670 -0.8691 -0.1535 -0.3490
    6MOL0     C  714   5.566   1.618   4.740 -0.4435  0.3886 -0.4474
    6MOL0     C  715   5.672   1.706   4.712 -0.8045 -0.8145  0.5983
    6MOL0     C  716   5.798   1.687   4.776  0.2572 -0.3652  0.3106
    6MOL0     C  717   5.815   1.569   4.857 -0.0585  0.3269  0.1683
    6MOL0     O  718   5.932   1.525   4.919 -0.0367 -0.3327  0.0116
    6MOL0     C  719   6.045   1.611   4.901  0.3076  0.7978  0.0395
    6MOL0     C  720   6.152   1.556   4.996 -1.0793 -0.1249 -0.3474
    6MOL0     C  721   6.298   1.626   4.976  0.0176 -0.9944 -0.8338
    6MOL0     C  722   6.399   1.524   5.032  0.1177 -0.3774  0.6546
    6MOL0     C  723   6.544   1.567   5.034 -0.4598 -0.8582  0.6667
    6MOL0     C  724   6.661   1.578   5.022 -0.3607 -0.2938  0.0846
    6MOL0     C  725   5.710   1.484   4.872 -0.5328  0.5492 -0.3124
    6MOL0     C  726   5.585   1.509   4.819  0.5620 -0.0185 -0.1404
    6MOL0     H  727   5.346   1.898   4.408 -0.7445  3.7051 -0.0857
    6MOL0     H  728   5.133   1.996   4.352  0.5371  1.0779  1.2193
    6MOL0     H  729   4.780   1.820   4.529  2.6840 -0.0771  0.6851
    6MOL0     H  730   4.841   1.822   4.363 -0.9934 -2.3118  0.9281
    6MOL0     H  731   4.702   2.016   4.306  0.2435 -0.3704 -0.2133
    6MOL0     H  732   4.654   2.045   4.471 -1.0183 -1.2412 -0.0037
    6MOL0     H  733   4.517   1.833   4.474  0.2145 -1.1334 -0.1743
    6MOL0     H  734   4.592   1.789   4.318  2.1234 -0.0453  1.8045
    6MOL0     H  735   4.506   2.022   4.222  1.8933 -0.9185 -0.2619
    6MOL0     H  736   4.400   1.873   4.242  1.1042 -2.9835  2.0195
    6MOL0     H  737   4.384   2.081   4.466 -0.1959  1.5265 -1.0538
    6MOL0     H  738   4.307   1.936   4.419  3.2999 -0.8963  2.3880
    6MOL0     H  739   4.213   2.070   4.217 -3.7380  2.1666  1.9720
    6MOL0     H  740   4.356   2.172   4.220  1.7636 -1.4699 -0.6356
    6MOL0     H  741   4.122   2.187   4.432 -0.3846 -1.3790  1.2791
    6MOL0     H  742   4.269   2.278   4.424 -0.6503 -1.2508 -0.1678
    6MOL0     H  743   4.060   2.287   4.187 -3.1416  3.7023 -0.7925
    6MOL0     H  744   4.200   2.388   4.213 -0.0891 -1.9520 -1.1893
    6MOL0     H  745   3.873   2.272   4.430  0.9924 -1.4151 -1.6917
    6MOL0     H  746   3.671   2.399   4.530 -1.0414 -0.3510 -0.3586
    6MOL0     H  747   3.684   2.568   4.479  1.6193 -0.9660 -0.8029
    6MOL0     H  748   3.812   2.617   4.703  0.7764 -0.6134  1.8279
    6MOL0     H  749   3.786   2.449   4.752  0.9807  0.7461  0.7906
    6MOL0     H  750   3.624   2.605   4.861  1.6950 -2.0161  0.9485
    6MOL0     H  751   3.574   2.659   4.698  0.5625 -0.6801 -2.4615
    6MOL0     H  752   3.573   2.364   4.807  0.7668 -0.0091 -0.8517
    6MOL0     H  753   3.482   2.417   4.666 -3.3563 -0.0240  1.6974
    6MOL0     H  754   3.222   2.457   5.002 -2.2759 -0.6658  0.9890
    6MOL0     H  755   2.981   2.459   4.936  1.2909 -0.2393  0.8979
    6MOL0     H  756   2.637   2.606   5.017  2.1741  1.3881 -1.7044
    6MOL0     H  757   2.394   2.630   5.016 -2.0056  0.0017  0.0896
    6MOL0     H  758   2.174   2.547   4.969  2.7329  1.0918 -0.4394
    6MOL0     H  759   2.148   2.471   4.813  0.9377 -1.0043  2.5409
    6MOL0     H  760   2.012   2.669   4.733  0.3300  1.0510 -0.0465
    6MOL0     H  761   2.021   2.732   4.899 -1.0487 -0.2252  1.3730
    6MOL0     H  762   1.919   2.554   4.996  3.1448 -2.0320 -0.6850
    6MOL0     H  763   1.901   2.456   4.850  1.1576  0.9448 -1.4267
    6MOL0     H  764   1.748   2.705   4.873  1.3829 -0.1499  0.6055
    6MOL0     H  765   1.765   2.623   4.731 -0.7511  5.5236  0.4728
    6MOL0     H  766   1.653   2.481   4.990  2.0447 -5.6215 -1.1090
    6MOL0     H  767   1.658   2.417   4.824  3.8925  0.8225 -0.1429
    6MOL0     H  768   1.515   2.671   4.918  2.5820 -1.7515  3.3620
    6MOL0     H  769   1.432   2.522   4.921 -0.7883  0.3293 -1.5614
    6MOL0     H  770   1.528   2.684   4.685  0.4975  0.2697  0.0324
    6MOL0     H  771   1.486   2.514   4.658  0.7352  0.2748 -1.1881
    6MOL0     H  772   1.333   2.697   4.579  5.1226 -0.4423  0.5118
    6MOL0     H  773   1.315   2.751   4.752 -1.3176  0.0841  2.0206
    6MOL0     H  774   2.381   2.633   4.601 -2.6430 -0.1567  0.8465
    6MOL0     H  775   2.604   2.555   4.584 -2.6353 -2.3495 -1.2501
    6MOL0     H  776   3.108   2.677   4.591  2.3669  2.3833  2.0340
    6MOL0     H  777   3.337   2.612   4.621 -2.3718  0.8927 -1.4178
    6MOL0     H  778   4.955   1.829   4.709  1.1269 -1.5981  1.9117
    6MOL0     H  779   5.184   1.723   4.762  1.1087  1.6894  0.4809
    6MOL0     H  780   5.657   1.791   4.647 -0.3624 -1.7855 -0.8016
    6MOL0     H  781   5.882   1.754   4.762  0.4381 -0.5952  0.2956
    6MOL0     H  782   6.027   1.716   4.926  0.0722  1.1106 -1.3626
    6MOL0     H  783   6.084   1.599   4.800 -0.4347  0.0744 -0.1762
    6MOL0     H  784   6.119   1.557   5.100  0.6347 -0.0155  0.2265
    6MOL0     H  785   6.165   1.452   4.965  1.2562 -0.1685  0.5984
    6MOL0     H  786   6.291   1.726   5.020  3.4003 -0.5123 -1.1523
    6MOL0     H  787   6.321   1.647   4.871 -3.1700 -1.9363 -1.8600
    6MOL0     H  788   6.368   1.490   5.131  1.2458 -0.9994  0.8068
    6MOL0     H  789   6.389   1.442   4.960  0.6304  1.6087 -1.8419
    6MOL0     H  790   6.768   1.582   5.025 -0.4194  1.2217  1.5560
    6MOL0     H  791   5.723   1.392   4.928 -1.7302  1.3664  1.4247
    6MOL0     H  792   5.500   1.442   4.833  0.2689  0.3547 -0.1149
    7MOL0     O  793   4.683   4.749   8.901 -0.5425  0.0817  0.1404
    7MOL0     C  794   4.610   4.654   8.925 -0.3836 -0.1331 -0.6428
    7MOL0     O  795   4.647   4.543   8.994  0.2790  0.1585  0.5278
    7MOL0     C  796   4.757   4.547   9.071  0.3351  0.0189  0.3153
    7MOL0     C  797   4.789   4.642   9.168 -0.6642  0.3517  0.4450
    7MOL0     C  798   4.896   4.616   9.253 -0.0865  0.7418  0.5591
    7MOL0     C  799   5.000   4.526   9.217 -0.0303  0.0039 -0.2020
    7MOL0     O  800   5.115   4.523   9.295 -0.2922 -0.1271 -0.0266
    7MOL0     C  801   5.188   4.402   9.291 -0.5149  0.3604  0.2321
    7MOL0     C  802   5.305   4.415   9.386  0.8263  1.1818 -0.1056
    7MOL0     C  803   5.418   4.306   9.361 -0.7482 -1.3435  0.3403
    7MOL0     C  804   5.542   4.339   9.454 -0.0463 -0.5086  0.0366
    7MOL0     C  805   5.648   4.227   9.465 -0.6056  0.6290  0.4111
    7MOL0     C  806   5.726   4.217   9.597  0.5796  0.0510  0.8826
    7MOL0     C  807   5.773   4.345   9.666 -0.5857  1.0368  0.8483
    7MOL0     C  808   5.831   4.301   9.798  0.5563  0.2018  0.2410
    7MOL0     N  809   5.903   4.398   9.874 -1.4360 -0.7271  0.1223
    7MOL0     C  810   5.856   4.511   9.940 -0.3803  0.2179 -0.1956
    7MOL0     C  811   5.966   4.573   9.994 -0.0027  0.0353 -0.0102
    7MOL0     C  812   5.963   4.697  10.075  0.1878  0.1861 -0.1281
    7MOL0     C  813   6.015   4.822  10.006  0.4001  0.2928 -0.1748
    7MOL0     C  814   5.938   4.945  10.069  0.1350  0.3086 -0.3338
    7MOL0     C  815   5.804   4.976   9.996  0.2208  0.3762 -0.8080
    7MOL0     O  816   5.699   4.875   9.983 -0.2935 -0.0011 -0.2702
    7MOL0     C  817   5.630   4.817  10.087  0.7481 -0.6599 -1.1359
    7MOL0     C  818   5.656   4.845  10.225  0.1731  0.1943 -0.4360
    7MOL0     C  819   5.573   4.796  10.329 -0.5416  0.0926  0.1249
    7MOL0     C  820   5.462   4.731  10.288  0.5948 -0.4684  0.3902
    7MOL0     C  821   5.367   4.692  10.391 -0.3512  0.5917 -0.6500
    7MOL0     O  822   5.291   4.585  10.361 -0.4646 -0.0628 -0.3492
    7MOL0     C  823   5.173   4.553  10.417 -0.6217 -0.3716  0.0500
    7MOL0     C  824   5.137   4.586  10.552  0.0528  0.2317  0.3154
    7MOL0     C  825   5.010   4.554  10.596  0.9501  0.0798 -0.3826
    7MOL0     C  826   4.907   4.504  10.512  1.3206  0.4538 -0.2888
    7MOL0     O  827   4.779   4.484  10.555  0.3187  0.6430  0.1038
    7MOL0     C  828   4.756   4.491  10.695 -0.0667 -0.4613 -1.0687
    7MOL0     C  829   4.604   4.467  10.703  0.5690 -0.9236  0.3742
    7MOL0     C  830   4.535   4.514  10.836 -0.7344  1.1331  0.1004
    7MOL0     C  831   4.456   4.637  10.816 -0.6602 -0.1495 -0.0364
    7MOL0     C  832   4.374   4.672  10.949 -0.7272 -0.5007 -0.0458
    7MOL0     C  833   4.455   4.724  11.071 -0.3289 -0.0665 -0.9151
    7MOL0     C  834   4.517   4.858  11.037  0.9735  0.2076  0.0010
    7MOL0     C  835   4.636   4.881  11.141  0.0789  0.0473 -0.5077
    7MOL0    Cl  836   4.566   4.910  11.312 -0.1994  0.2459 -0.4817
    7MOL0     C  837   4.943   4.473  10.377 -0.6175  0.2959 -0.8100
    7MOL0     C  838   5.077   4.489  10.341  0.3384  0.1422  1.1017
    7MOL0     O  839   5.355   4.775  10.479  0.1085 -0.0788 -0.4277
    7MOL0     C  840   5.440   4.696  10.154  0.4610  0.1346  0.1247
    7MOL0     C  841   5.531   4.733  10.053  0.7402 -0.8432  0.8239
    7MOL0     N  842   6.079   4.513   9.961  0.1646 -0.3091  0.6557
    7MOL0     N  843   6.038   4.402   9.891 -0.2719 -0.0855  0.1984
    7MOL0     C  844   4.969   4.442   9.108  0.6366  0.5732 -0.8282
    7MOL0     C  845   4.844   4.443   9.046  0.1986 -0.3377  0.9788
    7MOL0     C  846   4.483   4.655   8.848  0.6345  0.3607 -0.0003
    7MOL0     C  847   4.410   4.536   8.826 -0.5969  0.1953 -0.5873
    7MOL0     C  848   4.291   4.533   8.748 -0.3838 -0.1103 -0.2540
    7MOL0     C  849   4.258   4.647   8.665  0.3284  1.0571 -0.0615
    7MOL0     O  850   4.149   4.658   8.583 -0.9714 -0.5050  0.1425
    7MOL0     C  851   4.053   4.549   8.565 -0.0127  0.4417  0.2010
    7MOL0     C  852   4.112   4.429   8.493  0.2154  0.3183  0.9335
    7MOL0     C  853   4.170   4.461   8.354 -0.9487 -0.8273 -0.3832
    7MOL0     C  854   4.227   4.336   8.295  0.1637 -0.3639  0.4370
    7MOL0     C  855   4.123   4.240   8.256  1.2582  0.0328  1.0574
    7MOL0     C  856   4.054   4.154   8.203 -0.4154 -0.2252 -0.7766
    7MOL0     C  857   4.330   4.765   8.686  0.5361  0.2653  0.1265
    7MOL0     C  858   4.446   4.769   8.773 -0.3849 -0.1807  0.1764
    7MOL0     H  859   4.721   4.725   9.182  0.8087  1.5388  0.7856
    7MOL0     H  860   4.917   4.685   9.334  0.0578  0.9582  0.3386
    7MOL0     H  861   5.227   4.374   9.193 -1.0972 -0.9624  0.3572
    7MOL0     H  862   5.123   4.317   9.316  1.6097 -1.2808  0.4360
    7MOL0     H  863   5.261   4.399   9.485 -0.7708  2.5843 -0.5414
    7MOL0     H  864   5.350   4.515   9.393  1.7490  0.7826 -0.1247
    7MOL0     H  865   5.448   4.333   9.260 -1.5031  1.2140  0.7188
    7MOL0     H  866   5.386   4.202   9.374  3.0191 -2.4107  2.4613
    7MOL0     H  867   5.582   4.431   9.412  2.5934 -2.5287 -2.2655
    7MOL0     H  868   5.501   4.374   9.548  1.0647 -0.5119  0.5365
    7MOL0     H  869   5.712   4.243   9.377 -1.4721  3.3538  0.1699
    7MOL0     H  870   5.597   4.131   9.451 -1.2496  0.7600  1.7532
    7MOL0     H  871   5.818   4.158   9.590 -0.5579 -1.6425 -0.8354
    7MOL0     H  872   5.656   4.165   9.663  0.5777 -2.2276 -0.7777
    7MOL0     H  873   5.846   4.393   9.600 -0.4300 -1.4011 -0.8879
    7MOL0     H  874   5.688   4.408   9.695 -0.6613  0.5035  1.8014
    7MOL0     H  875   5.914   4.232   9.782  0.8270  0.4259  0.6728
    7MOL0     H  876   5.751   4.258   9.858 -1.2059  2.4879 -0.3213
    7MOL0     H  877   5.750   4.538   9.944 -1.2217 -2.8937  2.1287
    7MOL0     H  878   6.033   4.690  10.159 -0.9756  1.2189  0.9735
    7MOL0     H  879   5.864   4.705  10.121  0.7998  2.2881  0.9312
    7MOL0     H  880   5.988   4.820   9.900 -0.6467 -0.5780  0.0943
    7MOL0     H  881   6.123   4.838  10.018  0.6685 -0.8387 -0.8659
    7MOL0     H  882   5.925   4.922  10.175  2.4656 -1.1018 -0.2870
    7MOL0     H  883   5.994   5.039  10.066  1.6928 -0.6167 -2.6951
    7MOL0     H  884   5.820   5.021   9.897 -0.4576  0.3811 -0.9183
    7MOL0     H  885   5.751   5.051  10.056  0.2829 -0.9781  1.0371
    7MOL0     H  886   5.733   4.910  10.264 -1.6988  2.1061  0.2485
    7MOL0     H  887   5.599   4.821  10.431  1.8288  0.0970 -0.4133
    7MOL0     H  888   5.211   4.629  10.619  0.8835 -0.1803 -0.3117
    7MOL0     H  889   4.990   4.563  10.703 -0.2560 -0.1757 -0.5632
    7MOL0     H  890   4.772   4.593  10.733  0.7564 -1.2487  0.7806
    7MOL0     H  891   4.819   4.423  10.753  0.3119  0.3709 -0.4723
    7MOL0     H  892   4.593   4.361  10.680 -0.5082 -0.3667 -1.8760
    7MOL0     H  893   4.555   4.515  10.618 -0.7710 -0.0454  1.5988
    7MOL0     H  894   4.613   4.529  10.912 -0.5613 -1.0667  0.4115
    7MOL0     H  895   4.473   4.428  10.863 -0.9758  0.5532 -2.1770
    7MOL0     H  896   4.528   4.712  10.781  0.5764 -0.8827  0.8694
    7MOL0     H  897   4.387   4.622  10.732 -1.6996  0.5764  0.6580
    7MOL0     H  898   4.325   4.578  10.976  0.9818 -1.6019 -0.6514
    7MOL0     H  899   4.304   4.751  10.920  1.8472  0.4782 -4.4732
    7MOL0     H  900   4.533   4.656  11.107  2.0090  1.9165 -1.8985
    7MOL0     H  901   4.379   4.738  11.148 -1.1809  3.7354 -2.2380
    7MOL0     H  902   4.549   4.843  10.933 -0.5554 -1.4542 -0.2667
    7MOL0     H  903   4.440   4.935  11.033 -0.2482 -0.9354  0.8428
    7MOL0     H  904   4.683   4.975  11.111 -2.2008  0.9668 -1.4017
    7MOL0     H  905   4.696   4.790  11.133  1.2297  0.6695  0.6486
    7MOL0     H  906   4.867   4.446  10.304 -0.0501 -0.1254 -1.2629
    7MOL0     H  907   5.108   4.451  10.244  0.1030  2.8315 -0.1127
    7MOL0     H  908   5.349   4.642  10.129  1.4938 -1.7113  0.1316
    7MOL0     H  909   5.511   4.714   9.948  2.3886  0.5470  0.2042
    7MOL0     H  910   5.041   4.366   9.079 -1.5221 -1.7568 -0.5118
    7MOL0     H  911   4.825   4.372   8.966  1.2292  0.5171 -0.0714
    7MOL0     H  912   4.416   4.448   8.889 -0.1256  0.1290 -0.7211
    7MOL0     H  913   4.230   4.444   8.740  2.0193 -1.6479 -4.7015
    7MOL0     H  914   3.969   4.584   8.505 -0.5193  0.5947  0.9908
    7MOL0     H  915   4.008   4.520   8.660  1.1912 -1.6745  0.1826
    7MOL0     H  916   4.195   4.388   8.551 -1.4354 -1.1315  2.4101
    7MOL0     H  917   4.034   4.353   8.483  1.0246 -0.5205  0.8511
    7MOL0     H  918   4.248   4.536   8.366 -1.5469 -0.4032  1.0241
    7MOL0     H  919   4.092   4.505   8.290 -0.2382  1.0774  0.0108
    7MOL0     H  920   4.273   4.362   8.200  1.2008  0.7445  1.2161
    7MOL0     H  921   4.307   4.300   8.360  0.3353  0.4622  0.6943
    7MOL0     H  922   3.999   4.067   8.173  0.4266 -0.7765 -0.7680
    7MOL0     H  923   4.307   4.862   8.643  2.3793  1.3330  1.4259
    7MOL0     H  924   4.499   4.864   8.775 -0.6064 -0.0643  2.1961
    8MOL0     O  925  10.749   9.150   1.662  0.5745  0.7250 -0.4174
    8MOL0     C  926  10.835   9.139   1.750 -0.3459 -0.1825  0.2225
    8MOL0     O  927  10.827   9.211   1.871 -1.0569 -0.0703  0.4819
    8MOL0     C  928  10.724   9.287   1.899 -0.0594  1.1355  0.4927
    8MOL0     C  929  10.672   9.380   1.814  0.2944  0.1927 -0.0422
    8MOL0     C  930  10.565   9.459   1.867 -0.6519 -0.0377 -0.5282
    8MOL0     C  931  10.539   9.455   2.000  1.0925 -0.9170  0.3222
    8MOL0     O  932  10.447   9.543   2.054  0.0806  0.2722 -0.4433
    8MOL0     C  933  10.328   9.581   1.987 -0.0803 -1.1063 -0.2558
    8MOL0     C  934  10.243   9.636   2.099 -0.7160  0.4388 -0.0872
    8MOL0     C  935  10.103   9.652   2.043  0.4230 -0.2681 -0.0367
    8MOL0     C  936   9.997   9.701   2.145 -0.0689  0.0475  0.3148
    8MOL0     C  937   9.993   9.633   2.285 -0.3199 -0.0205  0.6954
    8MOL0     C  938   9.893   9.700   2.378  0.4493  0.1913  0.0795
    8MOL0     C  939   9.889   9.653   2.517 -0.4386 -0.0550 -0.0683
    8MOL0     C  940   9.766   9.697   2.603  0.0271  0.0387  0.0157
    8MOL0     N  941   9.643   9.651   2.546 -0.3766  0.1235 -0.4208
    8MOL0     C  942   9.526   9.723   2.556 -0.2396  0.3258 -0.0414
    8MOL0     C  943   9.434   9.650   2.493 -0.4857 -0.0329  0.0347
    8MOL0     C  944   9.285   9.661   2.474  0.3374  0.6595 -0.0235
    8MOL0     C  945   9.225   9.800   2.460 -0.1505 -1.0618  0.8321
    8MOL0     C  946   9.071   9.815   2.427 -0.6358  0.2212 -0.7859
    8MOL0     C  947   8.985   9.819   2.552  0.0110  0.1545 -0.2036
    8MOL0     O  948   8.849   9.788   2.509  0.1263 -0.3510  0.5516
    8MOL0     C  949   8.730   9.838   2.552 -0.4743  0.2261  0.0548
    8MOL0     C  950   8.612   9.771   2.504 -0.0833  0.3394  0.1822
    8MOL0     C  951   8.490   9.817   2.552 -0.7639  0.2020 -0.1019
    8MOL0     C  952   8.478   9.919   2.646  0.1834 -0.3734  0.1273
    8MOL0     C  953   8.344   9.957   2.696 -0.2384 -0.4143  1.1725
    8MOL0     O  954   8.237   9.905   2.628  1.1121  0.4352 -0.1988
    8MOL0     C  955   8.107   9.940   2.676 -0.3594 -0.0984  0.4897
    8MOL0     C  956   8.041  10.054   2.643 -0.1964  0.0261  0.4123
    8MOL0     C  957   7.917  10.095   2.692 -0.6948 -0.2962 -0.0275
    8MOL0     C  958   7.851  10.015   2.782  0.2072 -0.0630 -0.1300
    8MOL0     O  959   7.745  10.067   2.851 -0.2856  0.1558  0.5993
    8MOL0     C  960   7.677   9.984   2.947 -0.3438 -0.1032 -0.3948
    8MOL0     C  961   7.557   9.915   2.891 -0.1937  0.0574 -0.3067
    8MOL0     C  962   7.503   9.809   2.986 -0.3270  0.0718  0.8903
    8MOL0     C  963   7.353   9.787   2.956 -0.3573  0.3181  0.0373
    8MOL0     C  964   7.300   9.678   3.051  0.1845 -0.2004 -0.0538
    8MOL0     C  965   7.164   9.708   3.112  0.8612  0.8458 -0.2510
    8MOL0     C  966   7.109   9.593   3.201 -0.3902  0.7130  0.0667
    8MOL0     C  967   6.962   9.594   3.227  0.1029 -0.0200  0.3574
    8MOL0    Cl  968   6.849   9.622   3.092  0.1597  0.2618  0.0121
    8MOL0     C  969   7.904   9.885   2.808 -0.7495 -0.8700  0.2193
    8MOL0     C  970   8.034   9.852   2.758  1.4305  0.0790  0.2098
    8MOL0     O  971   8.340  10.046   2.780  0.2755 -0.0761  0.7891
    8MOL0     C  972   8.592   9.979   2.690 -0.4877 -0.0415  0.2519
    8MOL0     C  973   8.719   9.939   2.655  0.2290  0.5570 -0.3918
    8MOL0     N  974   9.499   9.545   2.434  0.3130  0.1848  0.7040
    8MOL0     N  975   9.626   9.555   2.451 -0.2575  0.1935 -0.7849
    8MOL0     C  976  10.594   9.354   2.081  0.3836  0.5710  0.4627
    8MOL0     C  977  10.679   9.265   2.030 -0.8312 -0.0883  0.1827
    8MOL0     C  978  10.952   9.056   1.725 -0.1594  0.0427  0.0534
    8MOL0     C  979  10.963   8.950   1.626  0.3639 -0.3764  0.9277
    8MOL0     C  980  11.072   8.869   1.617 -0.7043 -0.0088  0.0500
    8MOL0     C  981  11.181   8.882   1.706 -0.2152 -0.1009  0.5481
    8MOL0     O  982  11.290   8.788   1.713  0.3688 -0.3845 -0.5476
    8MOL0     C  983  11.367   8.782   1.829 -0.3621 -0.2742  0.1728
    8MOL0     C  984  11.444   8.659   1.863  0.1603 -0.2018 -0.8895
    8MOL0     C  985  11.564   8.632   1.778 -0.4060  0.1286 -0.3825
    8MOL0     C  986  11.672   8.735   1.812  0.6709 -0.0207  0.6553
    8MOL0     C  987  11.810   8.694   1.809 -0.0135  0.4052  0.1942
    8MOL0     C  988  11.923   8.647   1.803  0.0055 -0.1960 -0.4817
    8MOL0     C  989  11.179   8.984   1.795 -0.0338  0.1846 -0.0371
    8MOL0     C  990  11.069   9.070   1.806 -0.0062 -0.8746  0.4953
    8MOL0     H  991  10.704   9.384   1.710 -0.6482  0.7614 -0.3190
    8MOL0     H  992  10.518   9.527   1.797 -2.9063 -0.8162  0.1466
    8MOL0     H  993  10.281   9.496   1.936  0.3449  0.1603 -2.9164
    8MOL0     H  994  10.357   9.659   1.916 -1.0125 -1.9644 -1.6292
    8MOL0     H  995  10.283   9.733   2.128  0.2334  0.3686 -1.1142
    8MOL0     H  996  10.252   9.568   2.184  0.1859 -1.5931 -1.7135
    8MOL0     H  997  10.065   9.552   2.022 -0.5831 -0.8770  3.8614
    8MOL0     H  998  10.111   9.716   1.955 -1.7763  0.0475 -0.0610
    8MOL0     H  999  10.026   9.805   2.164  2.9371 -0.7069  0.4106
    8MOL0     H 1000   9.897   9.705   2.101  0.6593  3.3873 -1.3611
    8MOL0     H 1001  10.090   9.649   2.333 -0.0571  2.1765 -0.4105
    8MOL0     H 1002   9.972   9.528   2.264 -2.3045  0.6431 -0.9725
    8MOL0     H 1003   9.795   9.682   2.333 -0.6032 -1.2064  2.6926
    8MOL0     H 1004   9.903   9.809   2.383 -0.9339  0.3177  0.5555
    8MOL0     H 1005   9.881   9.544   2.515  1.2592 -0.1947 -0.7828
    8MOL0     H 1006   9.981   9.682   2.568 -0.3571  0.9518 -0.7665
    8MOL0     H 1007   9.756   9.806   2.605  0.3558  0.1003 -0.9761
    8MOL0     H 1008   9.774   9.667   2.708 -2.0731 -0.9046 -0.0509
    8MOL0     H 1009   9.517   9.820   2.605 -2.1952 -0.0160  0.3557
    8MOL0     H 1010   9.243   9.602   2.555 -0.8173  1.9267  0.3365
    8MOL0     H 1011   9.251   9.605   2.386 -1.1794 -2.1246  2.1703
    8MOL0     H 1012   9.272   9.847   2.373 -0.2367 -2.2728  0.1160
    8MOL0     H 1013   9.242   9.867   2.545 -2.1253  0.3023  0.2175
    8MOL0     H 1014   9.048   9.896   2.358  3.2977  0.3453 -2.1999
    8MOL0     H 1015   9.044   9.726   2.370  1.2781 -2.6337  2.3900
    8MOL0     H 1016   8.993   9.919   2.596  0.5518  0.5053 -1.0741
    8MOL0     H 1017   9.017   9.740   2.621  1.6068 -0.9039 -2.0657
    8MOL0     H 1018   8.619   9.684   2.439 -0.3621  0.8258 -0.5065
    8MOL0     H 1019   8.402   9.764   2.518  1.9323 -3.1918 -2.6035
    8MOL0     H 1020   8.077  10.116   2.562  0.5173 -1.4952 -0.4784
    8MOL0     H 1021   7.879  10.194   2.666  3.0558  1.5498  0.8113
    8MOL0     H 1022   7.643  10.064   3.013  2.0020  0.4985  0.2017
    8MOL0     H 1023   7.753   9.931   3.007 -0.7637  1.2146  1.3897
    8MOL0     H 1024   7.595   9.867   2.801  2.3799 -0.5123  1.0075
    8MOL0     H 1025   7.482   9.992   2.869  0.6581  1.1425  0.4755
    8MOL0     H 1026   7.505   9.845   3.089  0.4772  0.6545  0.6771
    8MOL0     H 1027   7.560   9.717   2.971  1.1551  0.6302  2.8535
    8MOL0     H 1028   7.288   9.874   2.972 -0.0259  0.6486 -0.4013
    8MOL0     H 1029   7.348   9.746   2.855 -1.8803  0.1432  0.1614
    8MOL0     H 1030   7.368   9.666   3.136 -0.1035  1.1965  0.4090
    8MOL0     H 1031   7.299   9.580   3.002 -0.0051  0.4977 -1.4952
    8MOL0     H 1032   7.097   9.736   3.030  1.1253  0.9469 -0.4300
    8MOL0     H 1033   7.165   9.793   3.181 -0.8185 -0.0465  0.9599
    8MOL0     H 1034   7.130   9.499   3.148  3.7353  2.2350 -1.4008
    8MOL0     H 1035   7.170   9.590   3.292  0.4713 -1.9146 -0.4851
    8MOL0     H 1036   6.946   9.677   3.296  1.6606 -0.8142  1.7358
    8MOL0     H 1037   6.934   9.498   3.271  2.0046 -0.5769  0.4341
    8MOL0     H 1038   7.856   9.816   2.876 -1.4461  0.2649  0.9154
    8MOL0     H 1039   8.069   9.756   2.794  2.6142  1.0134  1.6918
    8MOL0     H 1040   8.597  10.036   2.782  0.0152  1.3745 -0.6274
    8MOL0     H 1041   8.804   9.991   2.698  0.6862  1.3806 -2.1776
    8MOL0     H 1042  10.564   9.344   2.185  0.1488 -0.4030  0.3054
    8MOL0     H 1043  10.726   9.180   2.079 -1.4975 -0.6889 -0.1995
    8MOL0     H 1044  10.882   8.938   1.555  0.6739  0.4078  0.4324
    8MOL0     H 1045  11.069   8.797   1.536 -0.1293  0.1695 -0.1345
    8MOL0     H 1046  11.299   8.795   1.913 -0.6648  1.8910 -0.3515
    8MOL0     H 1047  11.436   8.866   1.823 -1.4292  0.6032 -0.0492
    8MOL0     H 1048  11.470   8.653   1.969  0.1504 -1.4492 -0.9418
    8MOL0     H 1049  11.372   8.577   1.855  0.0644 -0.0583 -1.6299
    8MOL0     H 1050  11.531   8.646   1.675 -1.0871  0.6716 -0.0986
    8MOL0     H 1051  11.605   8.532   1.791  0.5753  0.5140 -0.4346
    8MOL0     H 1052  11.667   8.818   1.741  1.6387  0.1463  0.7749
    8MOL0     H 1053  11.649   8.773   1.913 -0.4260  0.2746  0.3088
    8MOL0     H 1054  12.021   8.605   1.791 -0.6253 -1.9972  0.2009
    8MOL0     H 1055  11.266   9.002   1.856 -1.5050 -1.1252  2.6433
    8MOL0     H 1056  11.069   9.152   1.877 -1.1390  1.1412 -1.6649
    9MOL0     O 1057   9.022   8.242   7.711  0.6779  0.2071 -0.8010
    9MOL0     C 1058   9.012   8.358   7.693 -0.5573 -0.2344  0.3556
    9MOL0     O 1059   8.895   8.420   7.658 -0.3399  0.2290  0.4579
    9MOL0     C 1060   8.773   8.358   7.658  0.6006 -0.3165 -0.2389
    9MOL0     C 1061   8.695   8.366   7.543  0.6690  0.6074  0.1076
    9MOL0     C 1062   8.571   8.302   7.529 -0.3467  0.8380 -0.4778
    9MOL0     C 1063   8.515   8.241   7.640 -0.1862  0.0473 -0.3106
    9MOL0     O 1064   8.387   8.195   7.616  0.2587 -0.3288  0.0668
    9MOL0     C 1065   8.302   8.174   7.737 -0.0841 -0.2131  0.2014
    9MOL0     C 1066   8.232   8.307   7.765 -0.2675 -0.5989 -1.0606
    9MOL0     C 1067   8.118   8.349   7.661 -0.8790  0.5081 -0.3420
    9MOL0     C 1068   8.064   8.491   7.675 -0.3513 -0.8273 -0.6715
    9MOL0     C 1069   7.918   8.513   7.627  0.2580 -0.8353 -0.5183
    9MOL0     C 1070   7.902   8.471   7.472  0.2312 -0.0452  0.4164
    9MOL0     C 1071   7.773   8.536   7.409 -0.4652  0.8245  0.2099
    9MOL0     C 1072   7.740   8.470   7.274 -1.2203 -0.5471 -0.8672
    9MOL0     N 1073   7.643   8.549   7.196  1.2294  0.4618 -0.9302
    9MOL0     C 1074   7.513   8.589   7.228  0.6979 -0.3117 -0.1175
    9MOL0     C 1075   7.462   8.642   7.114  1.8190 -0.5001  0.6422
    9MOL0     C 1076   7.317   8.681   7.085  0.7386 -0.8461 -0.3042
    9MOL0     C 1077   7.220   8.568   7.046  0.1210 -0.7804 -0.4593
    9MOL0     C 1078   7.161   8.513   7.175 -0.0075 -0.3906 -0.4114
    9MOL0     C 1079   7.037   8.433   7.141  0.6657 -0.3109  0.1396
    9MOL0     O 1080   6.917   8.500   7.195 -0.7819  0.1075 -0.8938
    9MOL0     C 1081   6.807   8.416   7.192 -0.4793  0.0791 -0.4494
    9MOL0     C 1082   6.781   8.299   7.115  0.0581 -0.3875 -0.1203
    9MOL0     C 1083   6.658   8.239   7.115 -0.3711  0.9731 -0.5978
    9MOL0     C 1084   6.554   8.268   7.199  0.4148  0.4548 -1.1051
    9MOL0     C 1085   6.420   8.208   7.199 -0.4705 -0.5866 -0.3872
    9MOL0     O 1086   6.312   8.275   7.251 -0.2822 -0.1842  0.0709
    9MOL0     C 1087   6.191   8.211   7.268  0.1144  0.2838 -0.4548
    9MOL0     C 1088   6.105   8.286   7.356 -0.4997  0.6586  0.4407
    9MOL0     C 1089   5.978   8.255   7.382 -0.0903  0.7053 -0.1493
    9MOL0     C 1090   5.925   8.137   7.330  0.2337 -1.5201 -0.4072
    9MOL0     O 1091   5.794   8.109   7.358  0.3243 -0.2153 -0.3319
    9MOL0     C 1092   5.701   8.222   7.327  0.4367 -0.3577  0.0002
    9MOL0     C 1093   5.554   8.180   7.327  0.0420 -0.2430 -0.2995
    9MOL0     C 1094   5.500   8.209   7.470 -0.4281  0.7346 -0.5198
    9MOL0     C 1095   5.348   8.193   7.472  0.1161  0.5357 -0.5180
    9MOL0     C 1096   5.293   8.187   7.612 -0.0273 -0.6387 -0.2250
    9MOL0     C 1097   5.141   8.174   7.620  0.2935  0.5080  1.3213
    9MOL0     C 1098   5.079   8.226   7.754  0.5975 -0.1385 -0.3862
    9MOL0     C 1099   4.925   8.243   7.739 -0.8324  0.7513 -0.0071
    9MOL0    Cl 1100   4.867   8.339   7.873  0.2299 -0.4096 -0.0836
    9MOL0     C 1101   5.998   8.054   7.250 -1.1230 -0.1046 -0.0921
    9MOL0     C 1102   6.139   8.089   7.218  1.0016  0.8055 -0.0564
    9MOL0     O 1103   6.424   8.087   7.172  0.2591  0.4903  0.2639
    9MOL0     C 1104   6.586   8.374   7.287  0.5125 -0.0089 -0.0499
    9MOL0     C 1105   6.701   8.455   7.270  0.5563  0.9984 -0.4132
    9MOL0     N 1106   7.559   8.622   7.018 -0.6477 -0.6648  0.0546
    9MOL0     N 1107   7.674   8.582   7.069  0.5679 -0.2258  0.2241
    9MOL0     C 1108   8.583   8.245   7.763  0.1055  0.5242 -1.0151
    9MOL0     C 1109   8.721   8.281   7.762 -0.1586  0.8882  0.2892
    9MOL0     C 1110   9.138   8.442   7.707  0.4192  0.1379 -0.9574
    9MOL0     C 1111   9.131   8.584   7.727 -0.5913 -0.4321  0.0840
    9MOL0     C 1112   9.258   8.659   7.718  0.4275 -0.4533  0.4948
    9MOL0     C 1113   9.378   8.594   7.690  0.0459  0.4233 -0.8540
    9MOL0     O 1114   9.501   8.650   7.686  0.5968  0.1024  0.3811
    9MOL0     C 1115   9.521   8.783   7.641  0.1697 -0.1104  1.2845
    9MOL0     C 1116   9.655   8.787   7.552  0.7489  0.4878 -0.1238
    9MOL0     C 1117   9.774   8.743   7.639  0.7838 -0.5610  1.2336
    9MOL0     C 1118   9.903   8.740   7.557  0.2223  0.2674  0.6174
    9MOL0     C 1119   9.946   8.874   7.504 -0.2062 -0.3080 -0.2630
    9MOL0     C 1120   9.997   8.980   7.489  0.5243 -0.3209  0.1485
    9MOL0     C 1121   9.383   8.459   7.677 -0.0971 -0.1814 -0.2320
    9MOL0     C 1122   9.263   8.383   7.685 -0.9385 -0.1511 -0.5510
    9MOL0     H 1123   8.736   8.419   7.458 -2.0834  1.0065 -1.0719
    9MOL0     H 1124   8.521   8.296   7.433 -0.1097  0.6618 -0.5934
    9MOL0     H 1125   8.353   8.123   7.820 -2.1034 -0.9906  1.0528
    9MOL0     H 1126   8.218   8.107   7.716  0.3532 -1.0104  0.8994
    9MOL0     H 1127   8.302   8.391   7.768 -1.2483  0.2113  0.1577
    9MOL0     H 1128   8.186   8.302   7.864 -0.8978  1.7794 -1.1750
    9MOL0     H 1129   8.030   8.284   7.663 -2.3933  2.3776 -1.5369
    9MOL0     H 1130   8.159   8.335   7.560  0.3951 -2.2993  0.4600
    9MOL0     H 1131   8.065   8.539   7.773 -0.2600 -1.0497 -0.5629
    9MOL0     H 1132   8.114   8.562   7.608  1.9160 -1.4898  0.2269
    9MOL0     H 1133   7.877   8.614   7.635  0.4078 -0.7330 -1.0362
    9MOL0     H 1134   7.855   8.444   7.685  0.5448  0.5368  1.5206
    9MOL0     H 1135   7.900   8.363   7.451 -4.8216  0.3867 -2.9482
    9MOL0     H 1136   7.993   8.520   7.435  0.7690 -1.7338 -0.6133
    9MOL0     H 1137   7.696   8.513   7.483 -0.5210 -0.8976 -0.3404
    9MOL0     H 1138   7.776   8.645   7.403  1.1724  0.7316 -2.8802
    9MOL0     H 1139   7.696   8.370   7.283 -1.1770 -0.7986 -2.9358
    9MOL0     H 1140   7.831   8.464   7.213 -0.9032 -0.5766 -0.3923
    9MOL0     H 1141   7.474   8.581   7.328  2.1049  2.1109  0.7097
    9MOL0     H 1142   7.326   8.752   7.002  1.0291  0.0093  0.4464
    9MOL0     H 1143   7.277   8.745   7.164  1.1334 -0.6151 -0.2892
    9MOL0     H 1144   7.264   8.488   6.986  2.6726 -2.1741  2.9723
    9MOL0     H 1145   7.139   8.613   6.988  1.0361  1.8319  0.1443
    9MOL0     H 1146   7.229   8.440   7.220 -2.0732 -0.4987  2.8375
    9MOL0     H 1147   7.146   8.583   7.258  2.4944  1.6822 -1.5354
    9MOL0     H 1148   7.042   8.334   7.187  0.2241 -1.0522 -1.3476
    9MOL0     H 1149   7.024   8.405   7.036 -0.7039 -1.1885  0.5082
    9MOL0     H 1150   6.857   8.253   7.053  0.5717 -1.0065  0.9179
    9MOL0     H 1151   6.629   8.161   7.046  0.0621  0.0433  0.2485
    9MOL0     H 1152   6.157   8.369   7.402  2.7707 -1.0364  0.1425
    9MOL0     H 1153   5.923   8.323   7.445  0.5058  0.3361  0.8072
    9MOL0     H 1154   5.710   8.240   7.219  0.3052 -0.4850 -0.0330
    9MOL0     H 1155   5.718   8.309   7.390  0.3974  1.6790 -2.5992
    9MOL0     H 1156   5.558   8.078   7.287  4.5741 -1.0928  1.7536
    9MOL0     H 1157   5.499   8.243   7.256  1.4637  0.1992 -1.0536
    9MOL0     H 1158   5.521   8.312   7.500  0.3216 -0.4153  3.3389
    9MOL0     H 1159   5.554   8.141   7.536 -1.1910 -2.6659 -3.0897
    9MOL0     H 1160   5.293   8.272   7.422 -0.8532  0.6620  0.7062
    9MOL0     H 1161   5.326   8.102   7.415  3.2863  0.1511 -1.3396
    9MOL0     H 1162   5.316   8.287   7.650 -0.6176  0.4690 -2.5954
    9MOL0     H 1163   5.344   8.113   7.674  1.2190 -0.2374 -0.7422
    9MOL0     H 1164   5.120   8.068   7.605  3.4891  0.1663 -2.1742
    9MOL0     H 1165   5.095   8.227   7.536 -0.7617 -1.7591  0.3971
    9MOL0     H 1166   5.100   8.156   7.835  2.8069  1.6720  0.6987
    9MOL0     H 1167   5.123   8.320   7.788 -1.5652  0.8943 -0.2320
    9MOL0     H 1168   4.879   8.144   7.741 -0.4577  0.5798  0.0683
    9MOL0     H 1169   4.912   8.298   7.645  1.3379  0.9851 -0.2268
    9MOL0     H 1170   5.950   7.967   7.208 -0.5667  0.4906 -2.0975
    9MOL0     H 1171   6.195   8.025   7.150  3.5390  3.9188 -1.1289
    9MOL0     H 1172   6.500   8.405   7.344 -0.9228 -0.6060 -1.7968
    9MOL0     H 1173   6.703   8.547   7.327  0.8242  0.4431  0.4973
    9MOL0     H 1174   8.545   8.203   7.855  0.4970 -0.9258 -1.4788
    9MOL0     H 1175   8.784   8.244   7.843  0.6686 -3.7571 -2.1067
    9MOL0     H 1176   9.035   8.631   7.742 -0.3496  0.0742  0.0696
    9MOL0     H 1177   9.269   8.765   7.735  2.8389 -0.6009  0.1155
    9MOL0     H 1178   9.527   8.855   7.722  0.8866  2.8363 -1.1970
    9MOL0     H 1179   9.443   8.813   7.571 -0.2864 -0.7349  1.5210
    9MOL0     H 1180   9.641   8.721   7.466  2.4185  0.6129 -0.5223
    9MOL0     H 1181   9.664   8.891   7.520 -1.3577  0.9786  0.6846
    9MOL0     H 1182   9.755   8.640   7.671 -2.6593 -0.0347  1.2105
    9MOL0     H 1183   9.776   8.805   7.729  0.8336  1.8706 -0.3491
    9MOL0     H 1184   9.992   8.707   7.611 -0.5680 -0.2778  1.6179
    9MOL0     H 1185   9.886   8.675   7.471 -1.4928  1.6794 -0.1720
    9MOL0     H 1186  10.055   9.071   7.488 -1.4187  0.9799  0.2766
    9MOL0     H 1187   9.477   8.413   7.649  0.9102  2.7957 -2.2565
    9MOL0     H 1188   9.267   8.275   7.674  0.6216  0.0510 -2.5759
   10MOL0     O 1189   9.659   2.777   5.699 -0.2444 -0.5834  0.1374
   10MOL0     C 1190   9.663   2.655   5.720 -0.1181 -0.3105  0.0432
   10MOL0     O 1191   9.588   2.584   5.805  0.3895 -0.3991 -0.0612
   10MOL0     C 1192   9.513   2.670   5.884 -0.1636 -0.4258 -0.1235
   10MOL0     C 1193   9.384   2.709   5.847 -0.4283  0.0296  1.1343
   10MOL0     C 1194   9.299   2.788   5.922 -0.1186 -0.2537  0.6919
   10MOL0     C 1195   9.339   2.820   6.054 -0.2261  0.2292  0.4379
   10MOL0     O 1196   9.263   2.897   6.142  1.2519  0.9414  0.3894
   10MOL0     C 1197   9.124   2.873   6.153  0.0132  0.1117 -0.7326
   10MOL0     C 1198   9.049   2.983   6.230 -0.8082 -0.3820  0.1831
   10MOL0     C 1199   9.097   3.009   6.372 -0.1037 -0.0659 -0.2371
   10MOL0     C 1200   9.004   3.108   6.441  0.0335 -0.0830  0.5064
   10MOL0     C 1201   8.874   3.033   6.476  0.6328 -0.0161 -0.2211
   10MOL0     C 1202   8.790   3.134   6.555 -0.3467  0.1689 -0.0109
   10MOL0     C 1203   8.662   3.064   6.593 -0.5507 -0.0714  0.3367
   10MOL0     C 1204   8.567   3.160   6.654  0.6952 -0.0756  0.5473
   10MOL0     N 1205   8.449   3.084   6.710 -0.8726  0.0097  0.0464
   10MOL0     C 1206   8.391   3.110   6.831 -1.1475  1.0655 -0.0725
   10MOL0     C 1207   8.285   3.032   6.839  0.0469 -0.0645 -0.2481
   10MOL0     C 1208   8.214   3.019   6.974  0.6309  0.1084 -0.2988
   10MOL0     C 1209   8.061   3.008   6.964  0.7696 -0.8197 -0.2994
   10MOL0     C 1210   7.996   2.935   7.085 -0.3635  0.3561  0.4260
   10MOL0     C 1211   7.844   2.945   7.085  0.6107  0.0499 -1.2126
   10MOL0     O 1212   7.797   3.063   7.145 -0.6908  0.4671 -0.2075
   10MOL0     C 1213   7.660   3.078   7.162  0.2786 -0.2116 -0.0547
   10MOL0     C 1214   7.626   3.204   7.215  0.2122  0.1484  0.5653
   10MOL0     C 1215   7.492   3.229   7.232 -0.0032  0.3238 -0.4440
   10MOL0     C 1216   7.391   3.132   7.201 -0.3239 -0.0883 -0.9385
   10MOL0     C 1217   7.250   3.166   7.219  0.6057  0.1017  0.2183
   10MOL0     O 1218   7.163   3.064   7.227 -0.3654  0.0617  0.3605
   10MOL0     C 1219   7.033   3.096   7.245  0.3222 -0.5276  0.0789
   10MOL0     C 1220   6.936   3.046   7.157 -0.0757  0.2459  0.3561
   10MOL0     C 1221   6.798   3.062   7.170 -0.1736  0.8011 -0.5581
   10MOL0     C 1222   6.749   3.104   7.293 -0.0056  0.3821 -0.8939
   10MOL0     O 1223   6.610   3.093   7.304 -0.1536  0.0197 -0.2642
   10MOL0     C 1224   6.556   3.107   7.442 -0.3411 -0.2034 -0.7089
   10MOL0     C 1225   6.398   3.085   7.435  0.1525 -0.3829  0.1241
   10MOL0     C 1226   6.310   3.206   7.402 -0.5647 -0.0191  0.4618
   10MOL0     C 1227   6.164   3.175   7.432  0.0730 -0.5214 -1.3072
   10MOL0     C 1228   6.092   3.119   7.309 -0.6284 -0.0588 -0.0760
   10MOL0     C 1229   5.967   3.052   7.363 -1.3717  0.7748  0.4517
   10MOL0     C 1230   5.903   2.976   7.248 -0.0899 -0.7932  0.3396
   10MOL0     C 1231   5.767   2.905   7.282  0.1807 -0.9534 -0.2809
   10MOL0    Cl 1232   5.639   3.022   7.319 -0.2500  0.0815 -0.3610
   10MOL0     C 1233   6.845   3.138   7.389 -0.9715  0.4200 -0.4115
   10MOL0     C 1234   6.981   3.141   7.369 -0.4916 -0.3136 -0.0409
   10MOL0     O 1235   7.212   3.285   7.212 -0.6294 -0.0348  0.1924
   10MOL0     C 1236   7.432   3.018   7.135 -0.5169 -0.4788  0.2837
   10MOL0     C 1237   7.571   2.989   7.122  0.5467  0.6073  0.3314
   10MOL0     N 1238   8.267   2.977   6.716 -0.5704  0.4669  0.6714
   10MOL0     N 1239   8.364   3.018   6.637  0.3087 -0.5565  0.7366
   10MOL0     C 1240   9.469   2.787   6.099 -1.0556 -0.3576 -0.2588
   10MOL0     C 1241   9.556   2.710   6.017 -1.6100 -1.5157 -0.1888
   10MOL0     C 1242   9.769   2.569   5.660 -0.3210  0.4184  0.5722
   10MOL0     C 1243   9.861   2.631   5.578  0.1507 -0.7052 -0.4755
   10MOL0     C 1244   9.975   2.561   5.537 -1.0261 -0.0490  0.0378
   10MOL0     C 1245   9.990   2.429   5.573 -0.3608  0.4349 -0.4478
   10MOL0     O 1246  10.105   2.357   5.548  0.2868  0.5211  0.9337
   10MOL0     C 1247  10.087   2.235   5.465  0.1973  0.0554  0.1893
   10MOL0     C 1248  10.211   2.153   5.467  0.1700  0.0483 -0.6411
   10MOL0     C 1249  10.240   2.083   5.606 -0.2631  0.0114  0.1326
   10MOL0     C 1250  10.356   1.978   5.585  0.3251  0.2941 -0.2105
   10MOL0     C 1251  10.427   1.954   5.712 -0.9587  0.9092  0.1565
   10MOL0     C 1252  10.496   1.925   5.812  0.1803 -0.7051 -0.6277
   10MOL0     C 1253   9.883   2.362   5.639  0.1068 -0.6608  0.4509
   10MOL0     C 1254   9.771   2.430   5.682 -0.2220 -0.2174 -0.4448
   10MOL0     H 1255   9.353   2.681   5.746  2.5771 -0.6113  0.2892
   10MOL0     H 1256   9.211   2.818   5.867 -0.3421  2.3057  2.2842
   10MOL0     H 1257   9.107   2.793   6.226  0.0539  0.5665 -0.2184
   10MOL0     H 1258   9.082   2.839   6.058  0.3038 -2.1191 -0.1266
   10MOL0     H 1259   8.946   2.949   6.234 -0.9303  0.1394  2.2704
   10MOL0     H 1260   9.067   3.081   6.183 -1.3111 -0.3131  0.1338
   10MOL0     H 1261   9.195   3.058   6.362 -0.6638  1.3421  0.9473
   10MOL0     H 1262   9.117   2.916   6.427  0.5322 -0.0476 -0.4204
   10MOL0     H 1263   9.066   3.131   6.528  0.2473 -1.3707  0.7294
   10MOL0     H 1264   8.987   3.199   6.383  1.1185  0.7577  1.4754
   10MOL0     H 1265   8.906   2.940   6.524  1.8450  0.0065 -0.9290
   10MOL0     H 1266   8.811   3.002   6.392 -2.2444 -2.8534  2.6822
   10MOL0     H 1267   8.774   3.223   6.493 -1.2255  0.4495  0.5986
   10MOL0     H 1268   8.855   3.163   6.638 -0.8788 -0.2221  0.5509
   10MOL0     H 1269   8.618   3.020   6.503  1.7358  0.4230 -1.1147
   10MOL0     H 1270   8.680   2.978   6.659 -2.4725 -2.1643 -1.6915
   10MOL0     H 1271   8.525   3.221   6.574 -2.6167 -1.4006  1.0806
   10MOL0     H 1272   8.613   3.231   6.724  0.5418 -0.6909  1.2922
   10MOL0     H 1273   8.440   3.170   6.907 -0.1774 -0.0018  0.1607
   10MOL0     H 1274   8.242   3.105   7.036 -0.3123  1.4934 -1.6982
   10MOL0     H 1275   8.256   2.927   7.016 -0.2958 -0.1037  0.1870
   10MOL0     H 1276   8.018   2.968   6.872 -2.2261  1.3624 -0.0146
   10MOL0     H 1277   8.022   3.111   6.963  0.1456 -1.0348 -2.0772
   10MOL0     H 1278   8.035   2.833   7.091 -0.8224  0.2308  1.5386
   10MOL0     H 1279   8.042   2.976   7.175  3.2373 -1.3502 -0.4443
   10MOL0     H 1280   7.811   2.862   7.148  1.2758  0.0924 -0.7999
   10MOL0     H 1281   7.799   2.934   6.986  1.4369 -1.9062 -1.4188
   10MOL0     H 1282   7.706   3.272   7.244 -0.6867  1.0685  0.9586
   10MOL0     H 1283   7.448   3.320   7.272 -0.9751  0.5148 -1.9086
   10MOL0     H 1284   6.972   3.004   7.064  0.9393  2.6790 -0.4344
   10MOL0     H 1285   6.721   3.037   7.098 -1.8091 -0.5580  1.5328
   10MOL0     H 1286   6.588   3.205   7.479  0.9891  1.0261 -4.6874
   10MOL0     H 1287   6.599   3.030   7.506 -0.8682  1.1846  1.4413
   10MOL0     H 1288   6.382   3.041   7.534  1.7185 -0.5070  0.3382
   10MOL0     H 1289   6.384   3.009   7.358  2.0002  0.2560 -0.8843
   10MOL0     H 1290   6.311   3.227   7.294  0.4327 -2.9239 -0.1804
   10MOL0     H 1291   6.338   3.295   7.459  0.4272  0.8382 -1.2650
   10MOL0     H 1292   6.164   3.110   7.519  2.9560  0.3226 -0.5696
   10MOL0     H 1293   6.118   3.266   7.472  2.0093 -0.3873  0.8053
   10MOL0     H 1294   6.164   3.051   7.262  1.7293  1.8262  0.5793
   10MOL0     H 1295   6.056   3.194   7.237 -0.9577  0.3275  0.4828
   10MOL0     H 1296   5.897   3.123   7.408 -0.4223  2.2716 -0.3337
   10MOL0     H 1297   6.001   2.985   7.442  1.7100 -3.9281 -4.1811
   10MOL0     H 1298   5.898   3.043   7.161  2.3829 -0.8049  0.1269
   10MOL0     H 1299   5.974   2.902   7.210 -0.3382 -0.5551 -0.6283
   10MOL0     H 1300   5.787   2.827   7.356  1.2269  0.9560  1.5405
   10MOL0     H 1301   5.723   2.856   7.194  2.1121 -2.8746 -0.2744
   10MOL0     H 1302   6.819   3.164   7.492  1.1563  2.3826 -0.2890
   10MOL0     H 1303   7.050   3.170   7.447 -1.9037 -1.8632  1.8699
   10MOL0     H 1304   7.359   2.941   7.114 -1.9844  0.9033  0.0789
   10MOL0     H 1305   7.588   2.890   7.079  1.0386  1.2660 -1.0409
   10MOL0     H 1306   9.497   2.807   6.202  1.1678 -0.6779 -0.7489
   10MOL0     H 1307   9.652   2.673   6.052 -0.0170  0.9087 -1.7046
   10MOL0     H 1308   9.847   2.736   5.555 -6.1345 -0.4918  2.3851
   10MOL0     H 1309  10.055   2.610   5.482 -2.1560 -0.7863 -2.3661
   10MOL0     H 1310  10.077   2.258   5.359  0.4000 -0.4058  0.0659
   10MOL0     H 1311  10.006   2.165   5.487  2.3684 -3.1404 -1.1083
   10MOL0     H 1312  10.196   2.076   5.390 -1.6440 -0.6361  0.3278
   10MOL0     H 1313  10.297   2.205   5.423  0.4768  0.7783  0.7674
   10MOL0     H 1314  10.151   2.031   5.641  0.5417 -2.9459 -1.8487
   10MOL0     H 1315  10.279   2.161   5.671 -1.9919  1.1621 -0.1335
   10MOL0     H 1316  10.306   1.887   5.549  0.7019  0.1903 -0.4725
   10MOL0     H 1317  10.423   2.019   5.509  1.3310 -1.7776 -0.5242
   10MOL0     H 1318  10.549   1.898   5.901 -2.4633 -0.4941  1.1194
   10MOL0     H 1319   9.879   2.255   5.660  1.6926 -0.9799 -0.6477
   10MOL0     H 1320   9.695   2.374   5.736 -0.3630  0.1380 -0.2691
   11MOL0     O 1321   4.987   1.008   0.247  0.1214 -0.4303 -0.3682
   11MOL0     C 1322   5.031   1.119   0.274  0.8236  0.8720  0.1594
   11MOL0     O 1323   4.967   1.220   0.344  0.2585 -0.0465  0.9067
   11MOL0     C 1324   4.839   1.208   0.383  0.5271 -0.9179 -0.8476
   11MOL0     C 1325   4.742   1.182   0.285 -0.4701 -0.1407  0.0355
   11MOL0     C 1326   4.606   1.179   0.325  0.2500 -0.0234  0.1289
   11MOL0     C 1327   4.566   1.199   0.464 -0.0208  0.0261 -0.2769
   11MOL0     O 1328   4.436   1.210   0.508  0.4680 -0.6943 -0.2215
   11MOL0     C 1329   4.321   1.226   0.418 -0.0003  0.1229  0.1757
   11MOL0     C 1330   4.266   1.089   0.382  0.0375 -1.0584 -0.1798
   11MOL0     C 1331   4.173   1.088   0.261 -1.1688 -0.9258 -0.8502
   11MOL0     C 1332   4.059   0.992   0.266 -0.1892 -0.6960  0.6789
   11MOL0     C 1333   3.971   1.012   0.147 -0.5558 -0.4309  0.2127
   11MOL0     C 1334   3.849   1.092   0.193  0.2290 -0.1730  0.1691
   11MOL0     C 1335   3.778   1.121   0.061 -0.1816  0.7761 -0.3551
   11MOL0     C 1336   3.626   1.133   0.065  0.6062  0.8037  0.9544
   11MOL0     N 1337   3.570   1.158  -0.068  0.1332 -0.4396 -0.3351
   11MOL0     C 1338   3.456   1.230  -0.077  0.3765  0.3432 -0.2437
   11MOL0     C 1339   3.417   1.210  -0.206  0.2906  0.1685  0.1115
   11MOL0     C 1340   3.291   1.265  -0.268  0.6520  0.1949  1.1638
   11MOL0     C 1341   3.197   1.153  -0.306  0.3634  0.2642  0.0682
   11MOL0     C 1342   3.087   1.191  -0.399  0.7186  0.4855  0.1900
   11MOL0     C 1343   3.005   1.314  -0.351 -0.4047  0.0504  1.0319
   11MOL0     O 1344   2.916   1.349  -0.467 -0.5097 -0.7534  0.0630
   11MOL0     C 1345   2.798   1.287  -0.474  0.0709  0.0439 -0.9510
   11MOL0     C 1346   2.710   1.283  -0.364 -1.0942 -0.2205 -0.2846
   11MOL0     C 1347   2.589   1.211  -0.372 -0.1261  0.5139 -0.2505
   11MOL0     C 1348   2.558   1.140  -0.487  0.7074 -0.2831  0.0259
   11MOL0     C 1349   2.428   1.072  -0.507  0.5115 -0.5879  0.6119
   11MOL0     O 1350   2.341   1.102  -0.604  0.1304 -0.6686 -0.0154
   11MOL0     C 1351   2.214   1.041  -0.585 -0.0274  0.2188  0.8188
   11MOL0     C 1352   2.099   1.093  -0.525 -0.4079  0.6894 -0.0220
   11MOL0     C 1353   1.975   1.027  -0.523 -0.2673 -1.3991  0.4182
   11MOL0     C 1354   1.966   0.895  -0.562 -0.3327 -0.3914 -0.4350
   11MOL0     O 1355   1.849   0.825  -0.557  0.0630  0.4715  0.6004
   11MOL0     C 1356   1.720   0.900  -0.548  0.4306 -1.0045  0.0484
   11MOL0     C 1357   1.594   0.823  -0.580  0.3806  0.5389 -0.6046
   11MOL0     C 1358   1.469   0.912  -0.587  0.6970 -1.3517 -0.6996
   11MOL0     C 1359   1.405   0.923  -0.446 -0.3413  0.0792  0.1227
   11MOL0     C 1360   1.286   1.014  -0.443 -0.4951  0.0864  0.3070
   11MOL0     C 1361   1.223   1.001  -0.309  0.6301 -0.7171 -0.1739
   11MOL0     C 1362   1.136   1.115  -0.256  0.5204  0.0593 -0.0481
   11MOL0     C 1363   0.985   1.109  -0.299 -0.1920  1.0649 -0.7754
   11MOL0    Cl 1364   0.955   1.156  -0.461  0.0869 -0.4229  0.4968
   11MOL0     C 1365   2.072   0.839  -0.624 -0.7485 -0.3728 -0.2198
   11MOL0     C 1366   2.198   0.903  -0.636 -0.0102 -1.3604 -0.1318
   11MOL0     O 1367   2.411   0.979  -0.424 -0.3078  0.9165  0.9430
   11MOL0     C 1368   2.641   1.142  -0.594 -0.5568 -0.0159 -0.0738
   11MOL0     C 1369   2.766   1.210  -0.587  0.3606 -0.4260  0.4565
   11MOL0     N 1370   3.504   1.129  -0.274  0.7380 -0.1630 -0.2657
   11MOL0     N 1371   3.588   1.094  -0.184  0.8606  0.5126 -0.4355
   11MOL0     C 1372   4.670   1.218   0.559 -0.1753  0.3972 -0.7076
   11MOL0     C 1373   4.800   1.230   0.514  0.0031 -0.8776 -0.0369
   11MOL0     C 1374   5.172   1.145   0.234 -0.4600  0.5112 -0.6793
   11MOL0     C 1375   5.244   1.260   0.281 -0.3200  0.3157 -0.0938
   11MOL0     C 1376   5.375   1.286   0.242 -1.0586  0.0543  0.5931
   11MOL0     C 1377   5.440   1.196   0.154  0.4444  0.0943 -0.5773
   11MOL0     O 1378   5.569   1.215   0.118  0.5585 -0.3792 -0.1829
   11MOL0     C 1379   5.655   1.325   0.147 -0.1288  0.8196  0.3000
   11MOL0     C 1380   5.809   1.301   0.117  0.4344 -0.0696 -0.4050
   11MOL0     C 1381   5.849   1.168   0.185  0.7723  0.1576 -0.1206
   11MOL0     C 1382   6.001   1.157   0.180  0.4472  0.3069 -0.3984
   11MOL0     C 1383   6.037   1.037   0.257  0.1483 -0.2448 -0.9384
   11MOL0     C 1384   6.056   0.942   0.330 -0.9108 -0.1521  0.1369
   11MOL0     C 1385   5.375   1.073   0.117 -0.7752 -0.9608  0.1920
   11MOL0     C 1386   5.241   1.052   0.157 -0.4214  0.1025 -1.0829
   11MOL0     H 1387   4.784   1.160   0.187  3.0213  0.0221  1.3622
   11MOL0     H 1388   4.531   1.161   0.248  0.4370  2.6002 -0.7633
   11MOL0     H 1389   4.356   1.275   0.326 -3.2882 -0.2598 -1.4222
   11MOL0     H 1390   4.238   1.289   0.451 -1.2871 -0.4917 -1.7256
   11MOL0     H 1391   4.202   1.046   0.460  0.2388 -0.5819  0.2546
   11MOL0     H 1392   4.340   1.010   0.369  0.6921 -0.6005  0.6361
   11MOL0     H 1393   4.233   1.065   0.173 -0.7087  1.4396 -1.2177
   11MOL0     H 1394   4.130   1.188   0.252  0.8559 -0.0247 -0.8978
   11MOL0     H 1395   4.103   0.892   0.256  1.5445  0.2080 -2.3482
   11MOL0     H 1396   4.011   0.999   0.363  1.3584  1.4512  1.3900
   11MOL0     H 1397   3.945   0.914   0.105 -1.0136 -1.5869  2.9429
   11MOL0     H 1398   4.023   1.065   0.068 -0.5287 -0.4225  0.2361
   11MOL0     H 1399   3.865   1.188   0.243 -3.2707  1.4735 -1.5468
   11MOL0     H 1400   3.795   1.026   0.262  0.2830 -1.7801 -1.2582
   11MOL0     H 1401   3.807   1.219   0.020  3.3864 -0.4251 -1.0309
   11MOL0     H 1402   3.811   1.041  -0.006  1.1327  0.6777  0.3771
   11MOL0     H 1403   3.592   1.212   0.133 -1.9281  0.9072 -0.3234
   11MOL0     H 1404   3.581   1.037   0.091  0.9138  0.3360 -0.1929
   11MOL0     H 1405   3.409   1.287   0.002  0.0489 -0.4012  0.1065
   11MOL0     H 1406   3.319   1.322  -0.357 -1.5912 -1.0540 -0.4360
   11MOL0     H 1407   3.238   1.326  -0.193 -0.5639  1.7711 -0.8580
   11MOL0     H 1408   3.151   1.114  -0.215  0.0581  1.5084  0.4738
   11MOL0     H 1409   3.255   1.073  -0.353  1.8055  0.3123  1.6875
   11MOL0     H 1410   3.134   1.209  -0.496  2.5265  4.3653  1.5853
   11MOL0     H 1411   3.015   1.109  -0.407  1.0458  0.2189 -0.0691
   11MOL0     H 1412   3.068   1.401  -0.334 -0.0919  0.4388 -1.6779
   11MOL0     H 1413   2.945   1.291  -0.263 -1.5236  0.3639  0.3735
   11MOL0     H 1414   2.740   1.336  -0.274  0.6228 -0.6199 -0.5864
   11MOL0     H 1415   2.528   1.200  -0.283 -1.5305 -0.0714 -1.2522
   11MOL0     H 1416   2.103   1.191  -0.481 -1.2765  0.8729 -0.3476
   11MOL0     H 1417   1.891   1.084  -0.485  1.5598  3.2626 -1.7496
   11MOL0     H 1418   1.716   0.994  -0.604  0.8318 -0.4499  0.9303
   11MOL0     H 1419   1.708   0.931  -0.444 -3.2094  1.2445 -0.8793
   11MOL0     H 1420   1.590   0.744  -0.505  1.9909 -0.1292 -1.1558
   11MOL0     H 1421   1.607   0.770  -0.675 -4.3268 -0.7407 -0.7454
   11MOL0     H 1422   1.393   0.875  -0.658 -1.6287  2.3207 -0.3996
   11MOL0     H 1423   1.485   1.014  -0.624 -1.3796  0.0300  1.8912
   11MOL0     H 1424   1.376   0.823  -0.414  0.6003  0.8468  3.7465
   11MOL0     H 1425   1.480   0.961  -0.377 -0.3368 -1.4914  1.0195
   11MOL0     H 1426   1.224   0.993  -0.531  0.4262  0.8572 -0.5517
   11MOL0     H 1427   1.329   1.114  -0.451 -0.7423  0.4524  2.8364
   11MOL0     H 1428   1.303   0.978  -0.238  0.2606  0.6679  0.7109
   11MOL0     H 1429   1.169   0.906  -0.321 -2.2568  0.9702 -1.6655
   11MOL0     H 1430   1.150   1.117  -0.147  0.8353 -1.5773 -0.0299
   11MOL0     H 1431   1.175   1.211  -0.293 -0.0605  0.8514  1.3114
   11MOL0     H 1432   0.928   1.176  -0.234  0.9037  0.1035  1.2564
   11MOL0     H 1433   0.942   1.009  -0.288 -0.4803  1.2809  0.0867
   11MOL0     H 1434   2.063   0.738  -0.663  1.9353  0.3116 -3.0787
   11MOL0     H 1435   2.283   0.850  -0.678  1.7400  0.2432  1.1636
   11MOL0     H 1436   2.603   1.096  -0.685  0.1883  0.1631 -0.4862
   11MOL0     H 1437   2.827   1.196  -0.676 -1.1203 -1.6454 -0.4169
   11MOL0     H 1438   4.641   1.239   0.661 -1.2722  1.5042 -1.2309
   11MOL0     H 1439   4.877   1.253   0.588 -2.2313  0.9583  1.8687
   11MOL0     H 1440   5.196   1.341   0.336  2.2426  1.4428  0.6281
   11MOL0     H 1441   5.423   1.381   0.259 -1.8845  0.1668  2.5939
   11MOL0     H 1442   5.631   1.334   0.253 -0.1714 -0.6796  0.4468
   11MOL0     H 1443   5.610   1.406   0.090 -4.2815 -1.2255  0.2809
   11MOL0     H 1444   5.827   1.304   0.009 -2.8456 -0.0902 -1.0409
   11MOL0     H 1445   5.859   1.389   0.159  1.6844 -1.0513  0.2263
   11MOL0     H 1446   5.813   1.082   0.128  0.0773  1.3615 -1.5779
   11MOL0     H 1447   5.817   1.170   0.290  0.1883  1.0573 -0.2969
   11MOL0     H 1448   6.048   1.156   0.082  0.4150 -0.0904 -0.4119
   11MOL0     H 1449   6.041   1.245   0.231  0.6366 -0.2875  0.4999
   11MOL0     H 1450   6.095   0.865   0.393 -1.6089 -0.1202  0.6250
   11MOL0     H 1451   5.420   1.002   0.049  1.1914  2.0020 -1.8652
   11MOL0     H 1452   5.186   0.968   0.115 -1.3375  0.7447 -1.1988
   12MOL0     O 1453   5.377   6.181  10.915  0.0319  0.5285  0.2845
   12MOL0     C 1454   5.347   6.065  10.897  0.0745  0.1059  0.2665
   12MOL0     O 1455   5.429   5.968  10.840 -0.0701 -0.2750  0.3329
   12MOL0     C 1456   5.540   5.997  10.771  1.2789 -0.0032  0.9142
   12MOL0     C 1457   5.657   6.033  10.838  0.7346  0.4694 -0.5284
   12MOL0     C 1458   5.775   6.065  10.771  0.5664  0.7954 -0.5359
   12MOL0     C 1459   5.779   6.050  10.631 -0.2234  0.5049 -0.0803
   12MOL0     O 1460   5.890   6.064  10.555  0.5559  0.1574 -0.3025
   12MOL0     C 1461   5.990   6.164  10.595 -0.3097 -0.0232 -0.1120
   12MOL0     C 1462   6.110   6.110  10.527 -0.1422 -0.4593 -0.1694
   12MOL0     C 1463   6.237   6.201  10.545  0.2256  1.0488 -0.4180
   12MOL0     C 1464   6.357   6.138  10.478  0.6988 -0.2054 -0.5361
   12MOL0     C 1465   6.484   6.211  10.507 -0.2767  0.3796  0.1382
   12MOL0     C 1466   6.618   6.131  10.489 -0.9956  0.1004  0.3558
   12MOL0     C 1467   6.747   6.198  10.450 -0.2239  0.3612  0.1595
   12MOL0     C 1468   6.769   6.316  10.535  0.4055 -0.0878 -0.4436
   12MOL0     N 1469   6.907   6.359  10.543  0.3778 -0.1247 -0.0120
   12MOL0     C 1470   6.992   6.395  10.440  0.3204 -0.4805 -0.0191
   12MOL0     C 1471   7.106   6.424  10.506 -1.0023 -0.5582 -0.2107
   12MOL0     C 1472   7.220   6.483  10.438 -0.5212  0.4889  0.2552
   12MOL0     C 1473   7.197   6.593  10.339 -0.4423  0.8890 -0.8657
   12MOL0     C 1474   7.083   6.686  10.369 -0.0360  0.1114 -0.3559
   12MOL0     C 1475   7.065   6.762  10.500  0.6037  0.4455 -0.2835
   12MOL0     O 1476   6.980   6.700  10.591 -0.3164  0.3653  0.6524
   12MOL0     C 1477   6.844   6.708  10.582 -1.5530  0.1674 -0.0704
   12MOL0     C 1478   6.782   6.787  10.488 -0.3002  0.2846 -0.2944
   12MOL0     C 1479   6.646   6.776  10.479  0.1644 -0.5165 -0.1404
   12MOL0     C 1480   6.561   6.707  10.563 -0.1296  0.1790 -0.2385
   12MOL0     C 1481   6.415   6.695  10.551  0.3875 -0.0856  0.1165
   12MOL0     O 1482   6.351   6.592  10.621  0.4023  0.6664  0.5283
   12MOL0     C 1483   6.214   6.572  10.594 -0.2019  0.9352  0.5460
   12MOL0     C 1484   6.160   6.554  10.463 -0.5799 -0.4483  0.4931
   12MOL0     C 1485   6.021   6.533  10.454 -0.4501 -0.9056 -0.2213
   12MOL0     C 1486   5.941   6.518  10.567  1.2333  0.7439 -0.3730
   12MOL0     O 1487   5.807   6.499  10.531  0.8261 -0.0366  0.4316
   12MOL0     C 1488   5.722   6.464  10.638  0.0742 -0.0394 -0.0390
   12MOL0     C 1489   5.595   6.421  10.574 -0.0535 -0.0304  0.1451
   12MOL0     C 1490   5.488   6.384  10.682  0.1146  0.0738  0.1422
   12MOL0     C 1491   5.355   6.366  10.607 -0.4307 -0.2874 -0.4048
   12MOL0     C 1492   5.218   6.342  10.691  0.1654  0.0871  0.5416
   12MOL0     C 1493   5.094   6.371  10.607 -0.0797 -0.5628 -0.3427
   12MOL0     C 1494   4.972   6.323  10.690 -0.5071  0.0853  0.1720
   12MOL0     C 1495   4.839   6.390  10.639  0.0359 -0.0826  0.1326
   12MOL0    Cl 1496   4.707   6.284  10.708  0.4695  0.0091 -0.6229
   12MOL0     C 1497   5.995   6.550  10.693  0.0800  0.4032 -0.3756
   12MOL0     C 1498   6.133   6.554  10.706 -0.0808 -1.6039 -0.0475
   12MOL0     O 1499   6.360   6.769  10.471 -0.2487  1.0019  0.1954
   12MOL0     C 1500   6.624   6.638  10.669  0.6454  0.5414 -0.7397
   12MOL0     C 1501   6.764   6.646  10.682 -0.0036  1.4758  0.1872
   12MOL0     N 1502   7.091   6.399  10.641 -0.4528 -0.4517 -0.6549
   12MOL0     N 1503   6.973   6.351  10.658  0.5300  0.3689 -0.7676
   12MOL0     C 1504   5.664   6.021  10.559  0.3074 -0.0515  0.8566
   12MOL0     C 1505   5.537   6.005  10.628 -0.4908  0.8943  0.7337
   12MOL0     C 1506   5.220   6.008  10.951  0.7998 -0.1212  0.0398
   12MOL0     C 1507   5.196   5.866  10.964 -0.3203 -0.1865  0.0480
   12MOL0     C 1508   5.069   5.817  11.009  0.0974 -0.5573 -0.1983
   12MOL0     C 1509   4.971   5.910  11.043 -0.1073 -0.1824 -0.0893
   12MOL0     O 1510   4.857   5.860  11.087  0.7959 -0.1330 -0.2649
   12MOL0     C 1511   4.835   5.871  11.226 -0.3133 -0.1283  1.2586
   12MOL0     C 1512   4.683   5.888  11.242 -0.5151  0.3984  0.2675
   12MOL0     C 1513   4.600   5.754  11.242  0.0713  1.3098  0.9445
   12MOL0     C 1514   4.439   5.757  11.260 -1.1202  0.5479 -0.1821
   12MOL0     C 1515   4.406   5.832  11.385  0.0938 -0.6343  0.7574
   12MOL0     C 1516   4.356   5.886  11.481  0.5816  0.6541 -0.9704
   12MOL0     C 1517   4.984   6.049  11.028  0.2929 -0.1173 -0.0816
   12MOL0     C 1518   5.110   6.103  10.981  0.1450  0.1990  0.0969
   12MOL0     H 1519   5.670   6.048  10.945 -3.9946  1.7306  0.0915
   12MOL0     H 1520   5.860   6.098  10.829  0.9268 -0.7838 -0.1091
   12MOL0     H 1521   6.000   6.182  10.703  1.7252  2.0478 -0.5721
   12MOL0     H 1522   5.975   6.266  10.558  0.4690  0.2734  0.3488
   12MOL0     H 1523   6.094   6.098  10.419 -1.9951  2.2211 -0.2813
   12MOL0     H 1524   6.141   6.015  10.570 -0.6884 -0.7559 -0.4173
   12MOL0     H 1525   6.255   6.212  10.653 -3.7541 -1.0039  0.6644
   12MOL0     H 1526   6.225   6.303  10.506 -2.6296  0.7534 -0.5400
   12MOL0     H 1527   6.363   6.032  10.505 -3.8313 -1.4918 -3.5612
   12MOL0     H 1528   6.353   6.140  10.369  1.9736 -2.5681 -0.7100
   12MOL0     H 1529   6.480   6.260  10.605 -1.8341  0.0538  0.2647
   12MOL0     H 1530   6.484   6.292  10.434 -1.3345 -2.1848 -2.9310
   12MOL0     H 1531   6.600   6.059  10.408  0.0250 -3.0156  2.6839
   12MOL0     H 1532   6.629   6.071  10.580 -1.9560 -2.5411 -1.1218
   12MOL0     H 1533   6.834   6.132  10.449 -0.1011  0.5157  0.5080
   12MOL0     H 1534   6.743   6.238  10.348 -3.2254  1.5574  0.6375
   12MOL0     H 1535   6.736   6.282  10.634 -1.2202  0.1814 -0.8718
   12MOL0     H 1536   6.712   6.404  10.505  0.3226  1.0582  2.7199
   12MOL0     H 1537   6.969   6.413  10.335 -0.2997 -0.6915  0.0773
   12MOL0     H 1538   7.283   6.404  10.396 -2.5036 -2.7938  2.9993
   12MOL0     H 1539   7.279   6.520  10.522  0.0163  0.7175 -0.2175
   12MOL0     H 1540   7.164   6.559  10.240 -4.3083  2.1489 -0.1746
   12MOL0     H 1541   7.294   6.642  10.326 -0.8464  2.4488  1.4122
   12MOL0     H 1542   7.077   6.768  10.297 -2.5405  0.9103  0.6326
   12MOL0     H 1543   6.995   6.623  10.351 -0.6613  1.6667 -3.2885
   12MOL0     H 1544   7.044   6.869  10.487 -2.1836 -0.1699 -1.7708
   12MOL0     H 1545   7.153   6.756  10.564 -0.1741  2.1418  1.0224
   12MOL0     H 1546   6.835   6.842  10.411 -0.5379  2.7147  1.1883
   12MOL0     H 1547   6.602   6.837  10.400 -0.0605 -0.8675 -0.2882
   12MOL0     H 1548   6.219   6.548  10.373 -3.4430 -1.6717 -1.4592
   12MOL0     H 1549   5.972   6.538  10.357  0.5559 -0.1195 -0.7158
   12MOL0     H 1550   5.711   6.549  10.705  1.9561  0.4682 -0.3336
   12MOL0     H 1551   5.768   6.378  10.687 -2.7999 -1.2583  0.7304
   12MOL0     H 1552   5.599   6.341  10.498  3.4130  1.5078 -1.5149
   12MOL0     H 1553   5.558   6.496  10.504  1.7482  0.1636 -0.6563
   12MOL0     H 1554   5.468   6.468  10.749  0.2122  0.7591 -0.6683
   12MOL0     H 1555   5.515   6.290  10.730 -0.8819 -1.9345 -2.9809
   12MOL0     H 1556   5.333   6.459  10.552 -1.3142  1.0119  1.9986
   12MOL0     H 1557   5.369   6.281  10.539  1.9051 -1.3114  1.2212
   12MOL0     H 1558   5.222   6.403  10.782 -1.8228 -1.3043  1.6386
   12MOL0     H 1559   5.219   6.236  10.715  2.6927 -1.1785 -3.8988
   12MOL0     H 1560   5.086   6.313  10.514  1.0896 -0.0220 -0.7973
   12MOL0     H 1561   5.093   6.479  10.591  0.4168 -0.7112 -1.4363
   12MOL0     H 1562   4.976   6.214  10.688  0.0185  0.0806  0.9579
   12MOL0     H 1563   4.985   6.353  10.795  1.5845 -0.3424  0.0844
   12MOL0     H 1564   4.843   6.389  10.530 -0.1357 -2.6718  0.0816
   12MOL0     H 1565   4.826   6.491  10.679  0.5797 -0.4075  1.1726
   12MOL0     H 1566   5.934   6.563  10.782  0.7998 -1.1905  0.4014
   12MOL0     H 1567   6.176   6.565  10.805 -1.6336  1.8406  0.3930
   12MOL0     H 1568   6.563   6.592  10.746  3.1266  1.7756  2.2400
   12MOL0     H 1569   6.826   6.593  10.753 -1.3228  0.7240  0.8184
   12MOL0     H 1570   5.657   6.013  10.451 -2.7191 -0.1778  0.9859
   12MOL0     H 1571   5.457   5.981  10.558  1.2295 -1.0320 -0.6918
   12MOL0     H 1572   5.272   5.792  10.943 -0.9916 -1.5367  2.0937
   12MOL0     H 1573   5.044   5.711  11.003 -2.0917 -0.1112  0.2374
   12MOL0     H 1574   4.887   5.958  11.267 -1.0745  0.2368  1.4698
   12MOL0     H 1575   4.881   5.780  11.266 -0.3230  0.4096  2.5382
   12MOL0     H 1576   4.666   5.941  11.336 -0.1072 -0.2942  0.7336
   12MOL0     H 1577   4.650   5.950  11.158  2.2951  0.2984 -0.9953
   12MOL0     H 1578   4.641   5.685  11.317  1.1247 -0.9302 -1.5181
   12MOL0     H 1579   4.608   5.699  11.148 -0.9126  1.5627  0.7076
   12MOL0     H 1580   4.402   5.813  11.174 -1.5468 -1.7250 -1.5752
   12MOL0     H 1581   4.394   5.658  11.246  2.8659 -1.0741 -4.0611
   12MOL0     H 1582   4.308   5.926  11.568 -0.6896  0.4724 -1.5747
   12MOL0     H 1583   4.887   6.092  11.048  0.2446 -0.6871  0.9791
   12MOL0     H 1584   5.115   6.208  10.955  0.0354 -0.0100 -0.7875
   13MOL0     O 1585   6.310   0.082   6.397 -0.3475 -0.1253 -0.3702
   13MOL0     C 1586   6.338   0.203   6.364  0.2635 -0.1610 -0.5008
   13MOL0     O 1587   6.249   0.309   6.352 -0.5846  0.2913  0.2328
   13MOL0     C 1588   6.115   0.289   6.352 -0.5473 -0.4765 -0.2055
   13MOL0     C 1589   6.060   0.193   6.265  0.5848  0.2062  0.4313
   13MOL0     C 1590   5.924   0.161   6.261 -0.6808 -0.3888 -0.1443
   13MOL0     C 1591   5.841   0.227   6.344 -0.1443 -0.1056 -0.7710
   13MOL0     O 1592   5.707   0.193   6.337 -0.4324  0.0009 -0.1060
   13MOL0     C 1593   5.625   0.180   6.448 -0.5415  0.6030  0.6144
   13MOL0     C 1594   5.486   0.129   6.412 -0.5984 -0.2867 -0.3248
   13MOL0     C 1595   5.400   0.232   6.329  0.0416 -0.0347 -0.4431
   13MOL0     C 1596   5.257   0.180   6.317  0.3833 -0.3587 -0.2969
   13MOL0     C 1597   5.160   0.293   6.302  0.5302  0.1075 -0.3768
   13MOL0     C 1598   5.011   0.242   6.313  0.3099 -0.5918 -0.4761
   13MOL0     C 1599   4.894   0.347   6.307  0.4969 -0.3414 -0.1089
   13MOL0     C 1600   4.752   0.287   6.333  0.3592 -0.6803  0.2227
   13MOL0     N 1601   4.647   0.380   6.292 -0.0149 -0.0710  0.3091
   13MOL0     C 1602   4.516   0.383   6.336  0.2469 -0.0566  0.7745
   13MOL0     C 1603   4.466   0.495   6.281 -0.4888 -0.5506  0.2994
   13MOL0     C 1604   4.323   0.549   6.304  0.3897  0.1312  0.4399
   13MOL0     C 1605   4.301   0.649   6.417  0.1396 -0.5447  0.4362
   13MOL0     C 1606   4.355   0.787   6.378  0.7345  0.1642  0.0315
   13MOL0     C 1607   4.348   0.877   6.498  0.2736 -0.0746  0.4657
   13MOL0     O 1608   4.431   0.822   6.592 -0.1960  0.4335 -0.8136
   13MOL0     C 1609   4.564   0.787   6.579 -0.5140 -0.0112  0.3444
   13MOL0     C 1610   4.653   0.891   6.553 -0.1336 -0.2098  0.2150
   13MOL0     C 1611   4.791   0.854   6.550  0.6058 -0.5174  0.3149
   13MOL0     C 1612   4.834   0.723   6.567  0.4158  0.0454 -0.5379
   13MOL0     C 1613   4.973   0.672   6.558  0.4791 -0.2638 -0.0863
   13MOL0     O 1614   5.062   0.775   6.549  0.2078 -0.3968  0.1387
   13MOL0     C 1615   5.185   0.743   6.507 -0.7976  1.0280  0.8063
   13MOL0     C 1616   5.297   0.791   6.573  0.1929  0.1444  0.3289
   13MOL0     C 1617   5.426   0.749   6.540 -0.4179  0.3837 -0.6490
   13MOL0     C 1618   5.457   0.653   6.450  1.6746 -0.3982  0.1715
   13MOL0     O 1619   5.583   0.594   6.441  0.3268  0.5117 -0.6224
   13MOL0     C 1620   5.681   0.664   6.366  0.3770 -0.2667 -0.5969
   13MOL0     C 1621   5.739   0.782   6.441 -0.1517 -0.4580 -0.4973
   13MOL0     C 1622   5.810   0.729   6.568  0.8181 -0.9914  0.1839
   13MOL0     C 1623   5.860   0.845   6.652 -0.1640 -0.3697 -1.0775
   13MOL0     C 1624   5.990   0.903   6.603  0.2667 -0.3342  0.5680
   13MOL0     C 1625   6.022   1.047   6.658 -0.3018  0.1003 -0.0579
   13MOL0     C 1626   6.156   1.101   6.584  1.1420 -0.2112 -0.5366
   13MOL0     C 1627   6.296   1.070   6.651 -0.7577  0.0465 -0.0813
   13MOL0    Cl 1628   6.435   1.128   6.550 -0.2316 -0.7099 -0.0840
   13MOL0     C 1629   5.345   0.606   6.370 -0.4711  0.2736  0.6556
   13MOL0     C 1630   5.214   0.655   6.399 -0.0937  0.6047  0.3457
   13MOL0     O 1631   4.999   0.552   6.548 -0.6447  0.3197  0.0031
   13MOL0     C 1632   4.740   0.620   6.596 -0.1817 -0.5573 -0.4566
   13MOL0     C 1633   4.605   0.653   6.608 -0.3509 -0.5931  0.4155
   13MOL0     N 1634   4.562   0.559   6.205 -0.1354  0.2467  0.1108
   13MOL0     N 1635   4.666   0.495   6.215 -0.7381 -0.2842 -0.0988
   13MOL0     C 1636   5.891   0.326   6.431  0.0941 -0.4249  0.5812
   13MOL0     C 1637   6.026   0.358   6.434 -0.0116  0.4511  0.2832
   13MOL0     C 1638   6.479   0.236   6.359 -0.5314  0.7671  0.0089
   13MOL0     C 1639   6.578   0.144   6.366  0.0916 -0.5180  0.3109
   13MOL0     C 1640   6.716   0.175   6.342 -0.3838  0.1445 -0.4205
   13MOL0     C 1641   6.755   0.304   6.313  0.0261  0.0500 -0.3874
   13MOL0     O 1642   6.880   0.341   6.281 -0.4504  0.1421  0.2187
   13MOL0     C 1643   6.956   0.366   6.405  0.1802 -0.1903 -0.5022
   13MOL0     C 1644   7.011   0.507   6.409  0.5629  0.9863  0.7730
   13MOL0     C 1645   7.098   0.542   6.287 -0.1415 -0.0199  0.3991
   13MOL0     C 1646   7.012   0.600   6.174 -0.6690  0.9215  0.2457
   13MOL0     C 1647   7.106   0.629   6.067 -0.2502 -0.1671  0.2121
   13MOL0     C 1648   7.186   0.650   5.975 -0.3690  0.3363 -0.8223
   13MOL0     C 1649   6.653   0.401   6.296  0.0305  0.3940  0.6479
   13MOL0     C 1650   6.516   0.368   6.325 -0.3481  0.8463  0.2863
   13MOL0     H 1651   6.134   0.147   6.200 -1.2231  0.7410 -2.1705
   13MOL0     H 1652   5.892   0.088   6.187  1.5872  1.9115 -3.7241
   13MOL0     H 1653   5.608   0.284   6.477 -1.2089  0.8262 -0.4876
   13MOL0     H 1654   5.676   0.120   6.524 -0.8359  1.7014  1.7045
   13MOL0     H 1655   5.437   0.100   6.506 -0.6012 -3.4081 -1.1647
   13MOL0     H 1656   5.492   0.033   6.359  0.9824  0.1943 -1.0670
   13MOL0     H 1657   5.435   0.263   6.230 -2.6122 -0.8790 -1.7401
   13MOL0     H 1658   5.402   0.324   6.389 -0.8240 -0.8643  0.9008
   13MOL0     H 1659   5.234   0.121   6.228  1.3826 -2.0230  0.4953
   13MOL0     H 1660   5.237   0.122   6.408 -1.7977 -1.4349 -1.3874
   13MOL0     H 1661   5.181   0.341   6.206  3.5671  0.9167  0.5574
   13MOL0     H 1662   5.179   0.361   6.387 -0.7476  0.3817 -0.2998
   13MOL0     H 1663   5.012   0.202   6.414 -1.1782  1.7453  0.5304
   13MOL0     H 1664   4.990   0.164   6.239  2.5326  0.5652 -2.4952
   13MOL0     H 1665   4.911   0.425   6.381 -2.4627  4.0969 -3.6363
   13MOL0     H 1666   4.909   0.396   6.211  1.9914 -0.6663 -0.0648
   13MOL0     H 1667   4.746   0.256   6.438  1.9190  0.2119  0.6105
   13MOL0     H 1668   4.734   0.188   6.290  0.6475 -0.3906 -0.5638
   13MOL0     H 1669   4.469   0.309   6.400 -0.4854  1.2647  1.8085
   13MOL0     H 1670   4.258   0.464   6.327 -1.1895  0.9436 -0.7865
   13MOL0     H 1671   4.282   0.593   6.212 -2.1306 -0.8011  1.0335
   13MOL0     H 1672   4.351   0.618   6.509  1.5935 -2.3853 -0.8781
   13MOL0     H 1673   4.197   0.661   6.447 -0.2221  2.8629 -1.6226
   13MOL0     H 1674   4.454   0.789   6.330  0.4605  5.1350 -0.8466
   13MOL0     H 1675   4.286   0.822   6.301  0.5862 -1.3669 -0.5690
   13MOL0     H 1676   4.244   0.882   6.531 -0.1116  3.9193 -0.8048
   13MOL0     H 1677   4.380   0.980   6.480  0.4084 -0.1532  0.2483
   13MOL0     H 1678   4.620   0.993   6.532 -3.0951 -1.1699 -0.2680
   13MOL0     H 1679   4.868   0.925   6.524  2.3263 -2.2888  0.3268
   13MOL0     H 1680   5.271   0.866   6.647  1.1946  0.2413  0.5945
   13MOL0     H 1681   5.505   0.775   6.611 -1.2093 -3.6625  2.1123
   13MOL0     H 1682   5.647   0.696   6.266  1.5441  1.0646 -0.6014
   13MOL0     H 1683   5.760   0.590   6.347 -0.6473 -1.7036  0.5177
   13MOL0     H 1684   5.662   0.853   6.474 -0.5765 -1.1081 -0.0681
   13MOL0     H 1685   5.812   0.826   6.373  0.4080 -0.4614  0.0862
   13MOL0     H 1686   5.892   0.661   6.546  2.6955  1.1076  0.3999
   13MOL0     H 1687   5.728   0.687   6.627 -1.2592  0.3833 -1.5525
   13MOL0     H 1688   5.780   0.918   6.636  0.8773  0.3514 -3.6462
   13MOL0     H 1689   5.871   0.810   6.755 -1.1242  0.4684 -0.6655
   13MOL0     H 1690   5.984   0.908   6.494  3.4515 -5.1363 -0.1515
   13MOL0     H 1691   6.079   0.841   6.619  2.9223  2.3561 -2.2757
   13MOL0     H 1692   6.023   1.042   6.767 -1.2105 -0.0537 -0.0424
   13MOL0     H 1693   5.944   1.116   6.625 -1.8821 -2.4039 -1.9021
   13MOL0     H 1694   6.156   1.050   6.488 -2.8365  0.0017 -0.7966
   13MOL0     H 1695   6.146   1.208   6.567 -0.2412 -0.0916  0.8273
   13MOL0     H 1696   6.300   0.962   6.665  0.9852 -0.0404 -0.9881
   13MOL0     H 1697   6.298   1.128   6.744  3.9504  0.2720 -0.0843
   13MOL0     H 1698   5.369   0.554   6.278 -0.0416  2.3475 -0.4848
   13MOL0     H 1699   5.124   0.610   6.358  0.9657 -1.8306  0.5407
   13MOL0     H 1700   4.769   0.517   6.610 -0.5617 -0.5327  0.6014
   13MOL0     H 1701   4.532   0.574   6.622  0.5367 -1.8527 -1.6426
   13MOL0     H 1702   5.825   0.377   6.500  2.7457  1.5595  1.8106
   13MOL0     H 1703   6.065   0.437   6.497  1.6348 -0.6787  0.7482
   13MOL0     H 1704   6.553   0.045   6.400 -0.7298  0.2514  2.0690
   13MOL0     H 1705   6.788   0.094   6.343  0.5000  0.7006 -4.3060
   13MOL0     H 1706   7.033   0.288   6.410  0.1369 -0.2808 -1.1315
   13MOL0     H 1707   6.888   0.347   6.489 -1.7283  1.1228 -1.6657
   13MOL0     H 1708   6.924   0.572   6.420 -0.2422 -0.4488  3.5829
   13MOL0     H 1709   7.061   0.511   6.506  0.8713  1.9144  0.5931
   13MOL0     H 1710   7.153   0.455   6.249  0.0145 -0.0710  0.7333
   13MOL0     H 1711   7.164   0.629   6.295 -1.0104  0.5473  1.8963
   13MOL0     H 1712   6.937   0.529   6.139  3.0294 -1.9745 -2.5861
   13MOL0     H 1713   6.958   0.693   6.196  1.3336  2.2521 -0.2405
   13MOL0     H 1714   7.263   0.663   5.901  0.1249  0.1897 -0.3431
   13MOL0     H 1715   6.666   0.495   6.244  0.1227  1.7173  2.9153
   13MOL0     H 1716   6.443   0.446   6.305  0.4516  1.1284 -1.8029
   14MOL0     O 1717   0.629   9.931   2.401  0.3028  0.3046 -0.4426
   14MOL0     C 1718   0.709   9.921   2.495 -0.0239 -0.3730 -0.1771
   14MOL0     O 1719   0.695   9.979   2.620 -0.4898 -0.4015 -0.6842
   14MOL0     C 1720   0.571   9.966   2.686 -0.0344 -0.1334  0.4722
   14MOL0     C 1721   0.550   9.859   2.775 -0.5226  0.4768 -0.8762
   14MOL0     C 1722   0.415   9.843   2.821 -0.7109 -0.7339 -0.2148
   14MOL0     C 1723   0.306   9.923   2.776 -0.0461 -0.6114 -0.3073
   14MOL0     O 1724   0.173   9.905   2.820 -0.2602  0.3509  0.1407
   14MOL0     C 1725   0.148   9.776   2.868  0.8699 -1.6568  0.0788
   14MOL0     C 1726   0.000   9.775   2.903 -1.0133 -0.1908  0.5980
   14MOL0     C 1727  -0.029   9.877   3.008 -0.2427 -0.2979 -0.2103
   14MOL0     C 1728  -0.181   9.886   3.037 -0.2854  0.0579  0.5261
   14MOL0     C 1729  -0.181   9.974   3.164  0.2633  0.1429 -1.0242
   14MOL0     C 1730  -0.319  10.022   3.205 -0.4804  0.1200 -0.5292
   14MOL0     C 1731  -0.321  10.135   3.312  0.3975 -0.2384 -0.6141
   14MOL0     C 1732  -0.450  10.142   3.387  0.5324 -0.4104 -0.7218
   14MOL0     N 1733  -0.558  10.148   3.285  0.1204 -0.8656 -0.3252
   14MOL0     C 1734  -0.603  10.256   3.213 -1.0562 -0.5802 -0.0342
   14MOL0     C 1735  -0.716  10.215   3.150 -0.4640 -1.5306  0.6016
   14MOL0     C 1736  -0.800  10.292   3.057  0.1094 -0.8699  0.3602
   14MOL0     C 1737  -0.953  10.265   3.059 -0.4140  0.6050 -0.4269
   14MOL0     C 1738  -1.017  10.312   3.193  0.8353  0.3876  0.3152
   14MOL0     C 1739  -1.172  10.293   3.210 -0.5750 -0.0566 -0.3665
   14MOL0     O 1740  -1.237  10.371   3.099 -0.2876  0.0749 -0.2817
   14MOL0     C 1741  -1.371  10.386   3.110 -0.5247  1.2315  0.0006
   14MOL0     C 1742  -1.434  10.404   2.988 -0.7054  0.1448 -0.0677
   14MOL0     C 1743  -1.570  10.413   2.978 -0.0619 -0.1246  0.1193
   14MOL0     C 1744  -1.641  10.425   3.100  0.3299  0.1988  0.1444
   14MOL0     C 1745  -1.791  10.440   3.091 -0.1828 -0.2754 -0.1996
   14MOL0     O 1746  -1.847  10.441   2.963 -0.1553 -0.0628 -0.4883
   14MOL0     C 1747  -1.978  10.457   2.932 -0.4406  0.7777  0.1502
   14MOL0     C 1748  -2.078  10.380   2.985  0.2251 -0.5068  0.3954
   14MOL0     C 1749  -2.217  10.400   2.954  0.6136  0.1204 -0.3591
   14MOL0     C 1750  -2.250  10.503   2.856  0.6796 -0.0341 -0.6609
   14MOL0     O 1751  -2.377  10.507   2.815 -0.1160  0.2201 -0.1400
   14MOL0     C 1752  -2.477  10.440   2.889  1.2217 -0.5431 -0.2284
   14MOL0     C 1753  -2.615  10.467   2.824  0.3419  0.7708  0.6231
   14MOL0     C 1754  -2.676  10.592   2.877 -0.2441 -0.5996  0.3596
   14MOL0     C 1755  -2.758  10.660   2.772 -0.9660 -0.1727 -0.3833
   14MOL0     C 1756  -2.822  10.786   2.840  0.6965 -0.4526  0.2227
   14MOL0     C 1757  -2.913  10.845   2.738  0.4748  0.5226  0.4630
   14MOL0     C 1758  -2.972  10.971   2.797  1.0915 -0.4117 -0.5707
   14MOL0     C 1759  -3.073  11.052   2.715  0.0053 -0.0361 -1.5471
   14MOL0    Cl 1760  -3.223  10.962   2.692 -0.0006  0.0666 -0.2448
   14MOL0     C 1761  -2.152  10.573   2.790 -0.0181  0.3215 -0.3931
   14MOL0     C 1762  -2.017  10.552   2.832 -0.5728 -0.0288  0.5681
   14MOL0     O 1763  -1.851  10.435   3.198 -0.2838  0.3291 -0.2745
   14MOL0     C 1764  -1.579  10.418   3.220  0.0847  0.3496 -0.5921
   14MOL0     C 1765  -1.440  10.390   3.231 -0.1228 -0.0152  0.2370
   14MOL0     N 1766  -0.737  10.085   3.184  0.3746  0.2789 -0.1497
   14MOL0     N 1767  -0.646  10.043   3.266 -0.5335  0.3543 -0.4848
   14MOL0     C 1768   0.339  10.027   2.698  0.5349 -0.7784 -0.3004
   14MOL0     C 1769   0.469  10.050   2.646 -0.3107 -0.1241 -1.2513
   14MOL0     C 1770   0.843   9.872   2.464 -0.2183  0.0104 -0.3098
   14MOL0     C 1771   0.925   9.924   2.368 -0.1688  0.0157  0.2989
   14MOL0     C 1772   1.064   9.886   2.365  0.1792 -0.5954  0.0402
   14MOL0     C 1773   1.123   9.791   2.445 -0.1134 -0.4491 -0.2653
   14MOL0     O 1774   1.260   9.777   2.438  0.4069  0.0842  0.7904
   14MOL0     C 1775   1.324   9.700   2.531 -0.2267  0.7549  0.5703
   14MOL0     C 1776   1.471   9.698   2.508 -0.5058 -0.9663  0.5630
   14MOL0     C 1777   1.503   9.643   2.369  0.0204 -0.2346 -0.2634
   14MOL0     C 1778   1.653   9.662   2.332  0.3833 -0.5573 -0.1380
   14MOL0     C 1779   1.692   9.605   2.209 -0.0145 -0.0358  0.3708
   14MOL0     C 1780   1.716   9.546   2.103 -1.1241  0.0229 -1.0147
   14MOL0     C 1781   1.035   9.745   2.546  0.0975 -0.0440 -0.7657
   14MOL0     C 1782   0.898   9.780   2.563 -0.2572 -0.3998  0.4656
   14MOL0     H 1783   0.623   9.789   2.815 -2.7402 -0.4574  1.9043
   14MOL0     H 1784   0.397   9.768   2.898  1.2265  0.5387  1.6206
   14MOL0     H 1785   0.203   9.753   2.959  5.4988  4.8512 -0.3369
   14MOL0     H 1786   0.164   9.702   2.788  2.3580  0.2292 -1.4899
   14MOL0     H 1787  -0.012   9.673   2.942  3.7888 -0.7012  1.4427
   14MOL0     H 1788  -0.057   9.800   2.814 -2.3253 -1.0680  1.1564
   14MOL0     H 1789   0.015   9.971   2.976  1.4942 -1.4126 -1.3081
   14MOL0     H 1790   0.019   9.847   3.102  2.4561  0.0669 -1.3756
   14MOL0     H 1791  -0.223   9.932   2.947  0.0232 -0.1887  0.2550
   14MOL0     H 1792  -0.234   9.792   3.055  0.7678 -0.2796  2.0845
   14MOL0     H 1793  -0.120  10.065   3.157 -2.0602  2.1792  2.3442
   14MOL0     H 1794  -0.154   9.920   3.255 -1.2059 -2.5744 -2.1010
   14MOL0     H 1795  -0.379   9.937   3.237 -3.7786  1.8695 -1.6240
   14MOL0     H 1796  -0.366  10.071   3.119 -3.0646  1.1534  1.3694
   14MOL0     H 1797  -0.247  10.119   3.392  1.0456  2.2156 -0.6320
   14MOL0     H 1798  -0.299  10.229   3.259 -0.5763 -0.4497 -1.4087
   14MOL0     H 1799  -0.453  10.233   3.447 -2.8724 -1.6558  1.2323
   14MOL0     H 1800  -0.459  10.051   3.447  1.7976 -1.2581 -1.7445
   14MOL0     H 1801  -0.569  10.359   3.210 -0.9404 -0.3633  3.5359
   14MOL0     H 1802  -0.770  10.275   2.953  1.0701 -0.0871  0.4960
   14MOL0     H 1803  -0.778  10.399   3.056  1.7171 -1.1434 -2.0230
   14MOL0     H 1804  -0.970  10.158   3.042  2.4993 -0.4095  2.2412
   14MOL0     H 1805  -1.006  10.318   2.979 -1.4672 -1.8221 -1.4648
   14MOL0     H 1806  -0.958  10.266   3.273  3.1245  4.9306  1.6274
   14MOL0     H 1807  -0.996  10.420   3.200  2.5037  0.2579 -1.8300
   14MOL0     H 1808  -1.212  10.332   3.304 -1.0113 -3.4276  0.9913
   14MOL0     H 1809  -1.194  10.186   3.213  0.3117 -0.2334  0.1778
   14MOL0     H 1810  -1.379  10.401   2.894 -0.3615 -2.4338  0.1450
   14MOL0     H 1811  -1.620  10.425   2.883 -0.6276  2.2050  0.6406
   14MOL0     H 1812  -2.051  10.300   3.052 -0.6204 -0.6384  0.5924
   14MOL0     H 1813  -2.278  10.337   3.018  2.1051 -0.7327  0.2775
   14MOL0     H 1814  -2.478  10.474   2.993 -3.5722  1.2893 -0.6014
   14MOL0     H 1815  -2.463  10.332   2.876 -2.6426 -1.0148 -1.7322
   14MOL0     H 1816  -2.689  10.388   2.842 -1.3366  1.8692 -1.0912
   14MOL0     H 1817  -2.602  10.476   2.716  0.2476 -0.6699  0.4762
   14MOL0     H 1818  -2.597  10.661   2.908 -1.5911  1.0239  0.2679
   14MOL0     H 1819  -2.730  10.584   2.971  2.4829  2.8374  2.4488
   14MOL0     H 1820  -2.697  10.685   2.685 -1.4938 -1.3255 -1.1040
   14MOL0     H 1821  -2.839  10.596   2.736 -1.4334 -0.8745  1.7692
   14MOL0     H 1822  -2.737  10.847   2.871  1.1640 -1.6147  1.3199
   14MOL0     H 1823  -2.894  10.764   2.919 -0.3898  3.4340  0.5395
   14MOL0     H 1824  -2.990  10.776   2.705  1.1182  0.8134 -1.8640
   14MOL0     H 1825  -2.857  10.861   2.645  0.3335  1.4589  0.5303
   14MOL0     H 1826  -3.032  10.932   2.879  0.7613 -0.5208 -0.8638
   14MOL0     H 1827  -2.895  11.039   2.836  0.3192  0.7593 -1.0298
   14MOL0     H 1828  -3.023  11.082   2.622  1.4151 -0.3879 -0.9389
   14MOL0     H 1829  -3.083  11.146   2.771  1.3607 -0.5918 -0.2898
   14MOL0     H 1830  -2.169  10.646   2.712  2.4811  2.1345  0.5990
   14MOL0     H 1831  -1.935  10.604   2.784  0.4317 -1.7444  0.3251
   14MOL0     H 1832  -1.646  10.417   3.306  0.2026  1.0776 -0.4906
   14MOL0     H 1833  -1.400  10.372   3.330 -0.7254 -0.5998  0.3839
   14MOL0     H 1834   0.251  10.087   2.679  1.8442  1.0856 -0.7057
   14MOL0     H 1835   0.495  10.130   2.577 -1.8208  1.6477  0.1201
   14MOL0     H 1836   0.890   9.999   2.298  0.2655  0.6772  0.7743
   14MOL0     H 1837   1.118   9.951   2.297 -0.1577  0.4424  0.7473
   14MOL0     H 1838   1.277   9.601   2.531 -1.6176  1.3768 -0.9095
   14MOL0     H 1839   1.304   9.748   2.627  1.2153 -0.1403  1.3499
   14MOL0     H 1840   1.507   9.801   2.509 -1.0150 -0.7675 -0.4742
   14MOL0     H 1841   1.529   9.638   2.579  0.6554 -1.1335 -0.4927
   14MOL0     H 1842   1.436   9.695   2.301 -1.8585 -0.7900  1.0892
   14MOL0     H 1843   1.483   9.536   2.368 -3.8697  0.3766 -0.4031
   14MOL0     H 1844   1.661   9.771   2.321 -4.3579 -0.1561 -1.8748
   14MOL0     H 1845   1.729   9.624   2.400  0.9079 -4.3803 -2.5522
   14MOL0     H 1846   1.740   9.482   2.020  2.3971  0.7733 -0.7436
   14MOL0     H 1847   1.088   9.683   2.618  3.5170  0.8261 -2.3499
   14MOL0     H 1848   0.838   9.745   2.647 -0.5510 -0.0207  0.4149
   15MOL0     O 1849  11.112   8.426   2.566  0.0845 -0.2708  0.0530
   15MOL0     C 1850  11.192   8.453   2.478  0.1806 -0.0860  0.6037
   15MOL0     O 1851  11.162   8.430   2.350 -0.4222  0.4626 -0.0038
   15MOL0     C 1852  11.036   8.399   2.300 -0.1014 -0.1655 -0.4276
   15MOL0     C 1853  11.025   8.288   2.215  0.4638  0.0485 -0.8083
   15MOL0     C 1854  10.899   8.265   2.152 -0.3739  0.0158 -0.1818
   15MOL0     C 1855  10.787   8.345   2.178 -0.2114  0.2308  0.3579
   15MOL0     O 1856  10.678   8.332   2.095  0.3802  0.0285  0.5259
   15MOL0     C 1857  10.556   8.415   2.119  0.0343  0.2903  0.3556
   15MOL0     C 1858  10.447   8.375   2.021 -0.3845  0.2360 -0.6226
   15MOL0     C 1859  10.332   8.470   2.038 -0.2373 -0.0141  0.5419
   15MOL0     C 1860  10.209   8.428   1.958  0.1568  1.5343  0.5230
   15MOL0     C 1861  10.109   8.537   1.944  0.4894  0.0756  0.3507
   15MOL0     C 1862   9.989   8.487   1.858  0.1762  0.0558  0.5324
   15MOL0     C 1863   9.907   8.592   1.789 -1.1061 -0.6675 -0.5057
   15MOL0     C 1864   9.809   8.531   1.683  0.2199 -0.1895  0.2010
   15MOL0     N 1865   9.679   8.524   1.746  0.1414 -0.3537 -0.0345
   15MOL0     C 1866   9.642   8.429   1.836 -0.6768 -0.4823  0.4122
   15MOL0     C 1867   9.528   8.470   1.880  0.6169  0.9554  0.3370
   15MOL0     C 1868   9.443   8.399   1.972  1.0168 -0.2897 -0.5541
   15MOL0     C 1869   9.292   8.390   1.926 -0.6667  0.1715 -0.3187
   15MOL0     C 1870   9.206   8.296   2.009 -0.2309  0.2938 -0.7751
   15MOL0     C 1871   9.057   8.306   1.971 -0.0407  0.3115 -0.4678
   15MOL0     O 1872   8.980   8.249   2.073  0.2850  0.2158  0.8949
   15MOL0     C 1873   8.839   8.255   2.078 -0.0385  0.2465 -0.4739
   15MOL0     C 1874   8.787   8.188   2.191 -0.2170 -0.4883 -0.2707
   15MOL0     C 1875   8.651   8.200   2.230 -0.2661  0.2029  0.6018
   15MOL0     C 1876   8.563   8.265   2.138 -0.0168 -0.2268 -0.1670
   15MOL0     C 1877   8.417   8.271   2.156  0.0020 -0.2839 -0.2012
   15MOL0     O 1878   8.373   8.201   2.264  0.2118 -0.1157 -0.2956
   15MOL0     C 1879   8.239   8.205   2.304 -0.6324  0.2111  0.1305
   15MOL0     C 1880   8.199   8.260   2.423  0.0590 -0.1149  0.1061
   15MOL0     C 1881   8.061   8.240   2.465  0.4180  0.0531  0.5248
   15MOL0     C 1882   7.972   8.167   2.378  0.0804  0.1244  0.8402
   15MOL0     O 1883   7.853   8.138   2.437  0.9549 -0.0787  0.2804
   15MOL0     C 1884   7.741   8.159   2.354 -1.2639 -0.0578 -0.1235
   15MOL0     C 1885   7.604   8.183   2.418 -0.1202 -0.6455 -1.3777
   15MOL0     C 1886   7.486   8.211   2.320 -0.6073 -0.6653 -0.5769
   15MOL0     C 1887   7.438   8.078   2.251 -0.1700 -0.0900 -0.4090
   15MOL0     C 1888   7.338   8.107   2.147 -0.4110  1.3302 -0.0469
   15MOL0     C 1889   7.224   8.202   2.190 -0.5107  0.1113 -0.5004
   15MOL0     C 1890   7.109   8.209   2.088  0.3606  0.7957  0.5167
   15MOL0     C 1891   7.008   8.304   2.159  0.1339  0.0093  0.6719
   15MOL0    Cl 1892   6.851   8.302   2.077 -0.0524  0.2650 -0.7224
   15MOL0     C 1893   8.017   8.117   2.248 -0.0874 -0.5656 -0.9783
   15MOL0     C 1894   8.153   8.136   2.218 -0.3291  0.7632  0.4445
   15MOL0     O 1895   8.343   8.337   2.088  0.8658 -1.5050  0.1834
   15MOL0     C 1896   8.611   8.319   2.022 -0.4762 -0.1703 -0.4368
   15MOL0     C 1897   8.750   8.318   1.987 -0.0638  0.9488 -0.3680
   15MOL0     N 1898   9.484   8.589   1.820 -0.8298  0.2901  0.2265
   15MOL0     N 1899   9.577   8.615   1.739 -0.5594 -0.1711  0.1826
   15MOL0     C 1900  10.795   8.450   2.265  0.1414 -0.3958  0.4055
   15MOL0     C 1901  10.925   8.477   2.325  0.2347  0.0164  0.0206
   15MOL0     C 1902  11.332   8.478   2.505 -0.5201  0.0514 -1.0863
   15MOL0     C 1903  11.421   8.540   2.416  0.0059  0.3741  0.0927
   15MOL0     C 1904  11.554   8.558   2.446 -0.1357  0.4529  0.1003
   15MOL0     C 1905  11.595   8.535   2.581  0.4127 -0.8378 -0.5650
   15MOL0     O 1906  11.723   8.562   2.615 -0.3855  0.2871  0.2985
   15MOL0     C 1907  11.769   8.566   2.748 -0.9478  0.3683  0.2985
   15MOL0     C 1908  11.908   8.490   2.751 -0.0993 -0.0049 -0.3398
   15MOL0     C 1909  11.882   8.331   2.727 -0.4956  0.3125 -0.8280
   15MOL0     C 1910  12.018   8.264   2.689 -0.4500  0.1946 -0.0964
   15MOL0     C 1911  12.139   8.302   2.771 -0.3199  0.4946 -0.6732
   15MOL0     C 1912  12.228   8.350   2.847  0.4775 -0.2210  0.9940
   15MOL0     C 1913  11.501   8.490   2.672  0.5844  0.0761 -0.0461
   15MOL0     C 1914  11.373   8.453   2.637  0.6499 -1.1147  0.6164
   15MOL0     H 1915  11.114   8.233   2.186  1.5568  2.0948 -1.5781
   15MOL0     H 1916  10.888   8.189   2.076 -0.5002  0.0580 -0.2066
   15MOL0     H 1917  10.571   8.523   2.110  0.8845  0.0201 -1.8837
   15MOL0     H 1918  10.518   8.388   2.219  0.7082 -0.6328  0.3761
   15MOL0     H 1919  10.408   8.276   2.045  0.4642  0.2455  0.9561
   15MOL0     H 1920  10.491   8.391   1.923  1.9892  1.8104  0.5892
   15MOL0     H 1921  10.364   8.566   1.999 -0.4274 -0.4639 -0.7812
   15MOL0     H 1922  10.309   8.486   2.144  2.8196  2.6012  0.9466
   15MOL0     H 1923  10.237   8.394   1.858 -4.7481 -1.3897 -0.1978
   15MOL0     H 1924  10.167   8.337   2.000 -0.3253  0.7005 -1.6182
   15MOL0     H 1925  10.151   8.626   1.896  3.4074 -0.6052  1.4459
   15MOL0     H 1926  10.082   8.563   2.047  0.5794 -1.6374  0.8303
   15MOL0     H 1927   9.922   8.431   1.923  0.1605  0.8879  1.2461
   15MOL0     H 1928  10.023   8.408   1.789 -2.2269 -2.0780  1.6362
   15MOL0     H 1929   9.849   8.642   1.868 -0.3587 -1.5663  0.6328
   15MOL0     H 1930   9.986   8.651   1.741 -1.4032  2.1554  2.1484
   15MOL0     H 1931   9.849   8.433   1.657  0.9295  0.1231  0.0785
   15MOL0     H 1932   9.812   8.597   1.596  1.2612 -1.7862 -1.0184
   15MOL0     H 1933   9.694   8.337   1.859 -0.3234 -0.5087 -0.4503
   15MOL0     H 1934   9.444   8.453   2.067 -1.7028 -1.6991  0.3995
   15MOL0     H 1935   9.481   8.299   1.993 -1.0102 -1.1277 -0.6041
   15MOL0     H 1936   9.296   8.363   1.820  2.0319  2.9060 -1.0398
   15MOL0     H 1937   9.250   8.491   1.937  1.1275  0.9798 -0.5332
   15MOL0     H 1938   9.238   8.191   2.008 -1.2363 -0.0226 -1.4165
   15MOL0     H 1939   9.204   8.343   2.108  2.3933  4.0213 -2.2525
   15MOL0     H 1940   9.044   8.265   1.870 -0.7617  0.3410 -0.3948
   15MOL0     H 1941   9.026   8.410   1.957 -0.5016  0.3816  0.9665
   15MOL0     H 1942   8.839   8.133   2.269 -2.5109 -2.7809 -0.2132
   15MOL0     H 1943   8.611   8.163   2.324 -3.0064  0.2091 -0.4732
   15MOL0     H 1944   8.273   8.293   2.495 -0.1382  1.6857 -0.4722
   15MOL0     H 1945   8.025   8.273   2.562 -0.9158 -0.7558  0.3194
   15MOL0     H 1946   7.742   8.075   2.284  1.1707  1.9996 -2.8236
   15MOL0     H 1947   7.760   8.244   2.288  1.9910 -1.5447 -1.3395
   15MOL0     H 1948   7.613   8.268   2.486  3.3760 -1.4027 -0.7350
   15MOL0     H 1949   7.578   8.101   2.485 -0.1542 -0.1347 -0.7620
   15MOL0     H 1950   7.502   8.289   2.245 -1.2139 -2.7536 -3.0488
   15MOL0     H 1951   7.412   8.253   2.388  2.3421  1.9601  1.2446
   15MOL0     H 1952   7.526   8.032   2.206  0.3489  0.1863  0.2920
   15MOL0     H 1953   7.400   8.012   2.330 -0.8234  0.8452  0.0898
   15MOL0     H 1954   7.299   8.017   2.099  0.9838 -0.2997  1.6924
   15MOL0     H 1955   7.390   8.151   2.062  1.1855 -3.4290 -1.8646
   15MOL0     H 1956   7.262   8.297   2.226 -0.2448 -0.1323 -0.1390
   15MOL0     H 1957   7.182   8.148   2.275 -1.6390 -1.3161 -1.8865
   15MOL0     H 1958   7.134   8.245   1.988 -0.7256  1.3122  0.4143
   15MOL0     H 1959   7.066   8.110   2.072 -0.3268  1.2406 -0.4962
   15MOL0     H 1960   7.054   8.403   2.168  3.9943 -1.3238 -1.5084
   15MOL0     H 1961   6.994   8.291   2.266 -1.7366  1.1480  0.6039
   15MOL0     H 1962   7.953   8.053   2.187  1.0959 -0.3691 -2.4750
   15MOL0     H 1963   8.188   8.096   2.124  1.4534  0.8071  1.0588
   15MOL0     H 1964   8.538   8.362   1.954 -1.2541 -0.8994 -0.0855
   15MOL0     H 1965   8.801   8.370   1.906  1.4231 -2.3117 -1.7127
   15MOL0     H 1966  10.714   8.518   2.285 -0.0184 -0.5553  0.3055
   15MOL0     H 1967  10.938   8.562   2.392  3.3927 -0.0175 -0.4003
   15MOL0     H 1968  11.391   8.565   2.315  0.0815  1.0410  0.2274
   15MOL0     H 1969  11.622   8.605   2.376 -0.3346  0.3271 -0.1823
   15MOL0     H 1970  11.704   8.519   2.822 -0.2663 -1.4824 -0.2114
   15MOL0     H 1971  11.790   8.672   2.764  3.2688 -0.4273  1.2440
   15MOL0     H 1972  11.967   8.532   2.670  1.9650  2.7039  2.3292
   15MOL0     H 1973  11.955   8.511   2.847  1.1701 -0.1453 -0.9144
   15MOL0     H 1974  11.808   8.326   2.646  3.1630 -0.8047 -4.4156
   15MOL0     H 1975  11.857   8.275   2.817 -0.5648  1.0318 -0.3945
   15MOL0     H 1976  11.993   8.159   2.707  0.4919  0.0034  0.1593
   15MOL0     H 1977  12.049   8.277   2.585  0.7822 -1.7668 -0.0275
   15MOL0     H 1978  12.305   8.403   2.898 -0.5201  3.5103 -1.0302
   15MOL0     H 1979  11.517   8.473   2.778 -1.3460 -2.2149 -0.0409
   15MOL0     H 1980  11.313   8.398   2.708  0.8309 -1.3358  0.5971
   16MOL0     O 1981   3.243   9.694  11.196 -0.5018 -0.3948  0.0609
   16MOL0     C 1982   3.241   9.719  11.076  0.0501  0.8669 -0.7531
   16MOL0     O 1983   3.147   9.792  11.013 -0.7189 -0.2725 -0.2245
   16MOL0     C 1984   3.036   9.841  11.077  0.0185  0.1955 -0.0622
   16MOL0     C 1985   2.918   9.850  11.010  0.3289  0.4682  0.5437
   16MOL0     C 1986   2.808   9.913  11.065  0.0974 -0.1324  0.0711
   16MOL0     C 1987   2.811   9.968  11.195  0.8270  0.3159  0.4091
   16MOL0     O 1988   2.703  10.022  11.250 -0.0868 -0.2377 -0.1427
   16MOL0     C 1989   2.579   9.960  11.221 -0.1956  0.1636 -0.0615
   16MOL0     C 1990   2.464  10.019  11.307  0.7001 -0.0634  0.1233
   16MOL0     C 1991   2.486  10.003  11.460 -0.1130  0.6438  0.3536
   16MOL0     C 1992   2.482   9.855  11.493 -0.6141  0.8178  0.5056
   16MOL0     C 1993   2.520   9.822  11.638  0.6811 -0.3381 -0.1386
   16MOL0     C 1994   2.503   9.676  11.684  0.2214  0.5941 -0.4125
   16MOL0     C 1995   2.442   9.672  11.822 -0.4765 -0.0404  0.4558
   16MOL0     C 1996   2.437   9.521  11.874 -0.4504 -0.9531  0.7272
   16MOL0     N 1997   2.328   9.450  11.805  0.2571  0.3740 -0.1825
   16MOL0     C 1998   2.199   9.496  11.803  0.1392 -0.0761  0.7891
   16MOL0     C 1999   2.133   9.396  11.738 -0.6171  0.4047 -0.7912
   16MOL0     C 2000   1.988   9.414  11.695 -0.5263  0.8236 -1.3432
   16MOL0     C 2001   1.976   9.372  11.556  0.5059 -0.2906  1.0821
   16MOL0     C 2002   1.844   9.396  11.490  0.2345 -0.2726  0.4416
   16MOL0     C 2003   1.745   9.289  11.538 -0.4880 -0.1093 -0.0270
   16MOL0     O 2004   1.624   9.313  11.464  0.0741  0.2063  0.3681
   16MOL0     C 2005   1.511   9.237  11.476 -0.2374  0.6085  0.3343
   16MOL0     C 2006   1.492   9.122  11.553  0.2436  0.1708 -0.4251
   16MOL0     C 2007   1.377   9.041  11.569  0.3920  0.4513  0.0657
   16MOL0     C 2008   1.266   9.092  11.489 -0.1643  0.1280 -0.2817
   16MOL0     C 2009   1.125   9.032  11.506  0.3862 -0.4373 -0.0904
   16MOL0     O 2010   1.121   8.918  11.560 -0.2094  0.7015  0.1795
   16MOL0     C 2011   1.000   8.855  11.572 -0.0768  0.1645  0.1728
   16MOL0     C 2012   0.923   8.809  11.462  0.6922  0.8545  0.0387
   16MOL0     C 2013   0.806   8.730  11.478 -0.2966  0.7403 -0.0425
   16MOL0     C 2014   0.768   8.694  11.607 -0.0093 -0.6025  0.1197
   16MOL0     O 2015   0.656   8.616  11.614 -0.5470 -0.3004  0.2315
   16MOL0     C 2016   0.539   8.685  11.636  1.1529  0.0373  0.0996
   16MOL0     C 2017   0.425   8.599  11.579 -0.3617  0.0571 -0.1577
   16MOL0     C 2018   0.286   8.626  11.620 -0.2709  0.2715 -0.1509
   16MOL0     C 2019   0.183   8.512  11.576  0.0183 -0.1655  0.2381
   16MOL0     C 2020   0.034   8.558  11.620  0.0362  0.5784  0.6277
   16MOL0     C 2021  -0.071   8.455  11.566  0.3984  0.0659 -0.0840
   16MOL0     C 2022  -0.048   8.303  11.594  0.3193 -1.2970 -0.8490
   16MOL0     C 2023  -0.177   8.221  11.578 -1.0318 -0.5687  0.6443
   16MOL0    Cl 2024  -0.239   8.243  11.414  0.2816  0.3048 -0.0673
   16MOL0     C 2025   0.849   8.740  11.712  1.0106  0.0096  0.1933
   16MOL0     C 2026   0.962   8.813  11.697  0.6482 -0.0016 -0.6083
   16MOL0     O 2027   1.020   9.093  11.471  0.3358 -0.2355  0.1238
   16MOL0     C 2028   1.279   9.207  11.411 -0.2397  0.1073  0.4252
   16MOL0     C 2029   1.398   9.275  11.404 -0.4034 -0.6888  0.1620
   16MOL0     N 2030   2.219   9.292  11.708  0.1956  0.9277 -0.7952
   16MOL0     N 2031   2.337   9.328  11.752 -0.2843 -0.3427 -0.1369
   16MOL0     C 2032   2.934   9.973  11.263 -0.4166  0.7953 -0.4318
   16MOL0     C 2033   3.050   9.914  11.202  0.6898  0.2571  0.6197
   16MOL0     C 2034   3.362   9.687  11.004  0.1468  0.5231 -0.5875
   16MOL0     C 2035   3.374   9.712  10.863 -0.0715  0.3491 -0.6822
   16MOL0     C 2036   3.491   9.684  10.794 -0.4265 -0.5070  0.6117
   16MOL0     C 2037   3.600   9.623  10.856  0.0764 -0.7933 -0.4235
   16MOL0     O 2038   3.723   9.583  10.797 -0.3530 -0.3678  0.4150
   16MOL0     C 2039   3.739   9.599  10.655  0.4666  0.3210 -0.2900
   16MOL0     C 2040   3.836   9.476  10.620 -0.6635 -0.1756 -0.2955
   16MOL0     C 2041   3.874   9.472  10.472 -1.4798  0.1706  0.4502
   16MOL0     C 2042   3.934   9.327  10.449  0.2968  0.1863  0.1331
   16MOL0     C 2043   3.971   9.307  10.301 -0.1103  0.2590 -0.4928
   16MOL0     C 2044   4.005   9.314  10.186  0.0395 -0.6249 -0.4911
   16MOL0     C 2045   3.593   9.614  10.996 -0.0404 -0.2795  0.5681
   16MOL0     C 2046   3.478   9.640  11.076 -0.3067 -0.8747  0.1101
   16MOL0     H 2047   2.917   9.808  10.910 -2.7440  1.2938  0.1321
   16MOL0     H 2048   2.714   9.915  11.010  1.2956 -1.1135 -2.1242
   16MOL0     H 2049   2.577   9.853  11.243 -2.0474  0.3353  0.7788
   16MOL0     H 2050   2.551   9.971  11.116  0.5439 -1.2656 -0.4374
   16MOL0     H 2051   2.370   9.974  11.275  0.7628  0.3815 -0.7045
   16MOL0     H 2052   2.454  10.127  11.294  2.1737  0.2696  1.4293
   16MOL0     H 2053   2.412  10.054  11.522 -1.0912 -0.3705  0.0390
   16MOL0     H 2054   2.586  10.047  11.472  0.3678  0.9410 -3.5210
   16MOL0     H 2055   2.381   9.817  11.480  0.0259 -0.4854 -1.0183
   16MOL0     H 2056   2.560   9.801  11.439  0.8860  0.7720  2.5739
   16MOL0     H 2057   2.470   9.886  11.711 -1.6398  0.1868 -2.0712
   16MOL0     H 2058   2.626   9.847  11.641 -0.0206  3.0458  0.0420
   16MOL0     H 2059   2.592   9.613  11.682 -0.7993 -0.9054 -1.1314
   16MOL0     H 2060   2.436   9.610  11.627  1.2259 -1.0933  0.2720
   16MOL0     H 2061   2.506   9.721  11.896  0.5851  0.2560 -0.6356
   16MOL0     H 2062   2.345   9.722  11.829  0.0044  1.2091 -1.1990
   16MOL0     H 2063   2.407   9.519  11.979 -3.2390 -0.3887  0.0332
   16MOL0     H 2064   2.533   9.474  11.848 -1.0268 -1.1077 -1.3312
   16MOL0     H 2065   2.158   9.593  11.832  1.7014  0.6589  0.6144
   16MOL0     H 2066   1.965   9.521  11.695  1.3509  1.2700 -2.6794
   16MOL0     H 2067   1.918   9.362  11.761  3.0529 -2.4890  0.2566
   16MOL0     H 2068   1.983   9.264  11.546 -3.5374 -0.5270 -1.7201
   16MOL0     H 2069   2.057   9.415  11.496 -2.1272  1.2004 -1.6631
   16MOL0     H 2070   1.812   9.499  11.510 -0.0950 -0.5946  1.6796
   16MOL0     H 2071   1.873   9.385  11.385  0.2470 -0.8845  0.5052
   16MOL0     H 2072   1.719   9.291  11.644 -1.2065 -0.6974 -0.1832
   16MOL0     H 2073   1.789   9.193  11.508  0.2594  0.1744  0.1638
   16MOL0     H 2074   1.560   9.097  11.634 -2.4236 -1.5184  1.4832
   16MOL0     H 2075   1.365   8.957  11.637 -0.5807  1.1804  0.8274
   16MOL0     H 2076   0.971   8.827  11.366  3.9184 -2.4596  0.7780
   16MOL0     H 2077   0.739   8.705  11.397  0.9999  1.2890 -1.3237
   16MOL0     H 2078   0.531   8.781  11.584  0.4138 -1.3626 -2.5586
   16MOL0     H 2079   0.523   8.705  11.742  0.6768 -0.1590  0.0644
   16MOL0     H 2080   0.444   8.496  11.610  1.7802  0.1451 -0.9815
   16MOL0     H 2081   0.426   8.611  11.471 -1.7680 -0.6279 -0.2660
   16MOL0     H 2082   0.258   8.727  11.590 -1.4055  0.1600  0.4628
   16MOL0     H 2083   0.297   8.619  11.729  4.0875 -0.2491 -0.4250
   16MOL0     H 2084   0.187   8.504  11.467  1.0025  1.9315  0.0590
   16MOL0     H 2085   0.206   8.416  11.624  1.3776  0.7687  1.5611
   16MOL0     H 2086   0.013   8.655  11.574 -1.0146  0.7188  1.3663
   16MOL0     H 2087   0.022   8.561  11.729 -2.1102 -1.5009  0.5414
   16MOL0     H 2088  -0.078   8.476  11.459  0.4188  0.9430  0.0787
   16MOL0     H 2089  -0.171   8.474  11.606 -0.7449 -2.4436 -1.4951
   16MOL0     H 2090   0.025   8.272  11.518  1.5243 -1.0967  0.1893
   16MOL0     H 2091   0.013   8.285  11.683  4.2342 -2.2487 -3.4648
   16MOL0     H 2092  -0.252   8.244  11.655 -0.9116  1.2255  0.2501
   16MOL0     H 2093  -0.164   8.115  11.602 -1.2958 -0.5712  0.7839
   16MOL0     H 2094   0.814   8.717  11.812 -0.2732  1.5406  0.1333
   16MOL0     H 2095   1.007   8.830  11.794  0.8765 -0.9966 -0.5266
   16MOL0     H 2096   1.193   9.237  11.352 -1.1756 -0.4731  1.4578
   16MOL0     H 2097   1.414   9.361  11.339  2.3687  1.4380  3.2921
   16MOL0     H 2098   2.947  10.016  11.361 -1.1875  0.5551 -0.2146
   16MOL0     H 2099   3.148   9.916  11.249  1.5199 -1.5907 -0.8788
   16MOL0     H 2100   3.293   9.751  10.802  0.8337  6.5407  1.3641
   16MOL0     H 2101   3.492   9.692  10.685  3.3023  0.1776  0.5887
   16MOL0     H 2102   3.784   9.691  10.618  2.6700 -0.2596  0.7782
   16MOL0     H 2103   3.639   9.575  10.617 -1.5060  1.8219  3.4673
   16MOL0     H 2104   3.920   9.492  10.689 -1.3996 -2.8792  1.3951
   16MOL0     H 2105   3.788   9.381  10.647 -0.4305 -0.0787  0.4921
   16MOL0     H 2106   3.952   9.547  10.457 -2.8336  1.9326  1.7404
   16MOL0     H 2107   3.792   9.492  10.401 -0.8467  3.4601  0.4724
   16MOL0     H 2108   4.024   9.313  10.509  1.2449 -0.7099 -1.4380
   16MOL0     H 2109   3.854   9.257  10.478  0.5431 -0.1048  0.1111
   16MOL0     H 2110   4.025   9.319  10.081 -0.3980 -2.9581 -0.7408
   16MOL0     H 2111   3.680   9.567  11.041 -0.3872 -0.1563  1.3892
   16MOL0     H 2112   3.486   9.636  11.184  1.3604 -0.5901  0.0094
   17MOL0     O 2113   9.033   9.386   7.033  0.0044  0.4397  0.2613
   17MOL0     C 2114   9.096   9.315   6.951  0.8297  0.5954  0.1218
   17MOL0     O 2115   9.046   9.210   6.887 -0.3240 -0.0038  0.5905
   17MOL0     C 2116   8.922   9.156   6.919  0.4784  0.4456  0.4704
   17MOL0     C 2117   8.805   9.232   6.946 -0.0613  0.4669  0.2332
   17MOL0     C 2118   8.688   9.167   6.986  0.3488  0.6183 -0.7613
   17MOL0     C 2119   8.678   9.028   6.975  0.0339 -1.1496  0.3401
   17MOL0     O 2120   8.566   8.958   7.002  0.2868  0.3558  0.0553
   17MOL0     C 2121   8.464   9.005   7.087 -0.5182  0.1705 -0.0518
   17MOL0     C 2122   8.352   9.082   7.013 -0.6409  1.3671 -0.2356
   17MOL0     C 2123   8.287   8.981   6.926 -0.2191  0.4101 -0.5791
   17MOL0     C 2124   8.160   9.042   6.886  0.2446  0.2756 -0.3694
   17MOL0     C 2125   8.070   8.931   6.829 -0.4153 -0.2463  0.7437
   17MOL0     C 2126   7.932   8.985   6.795  0.7796 -0.0297  0.6456
   17MOL0     C 2127   7.845   8.872   6.746 -0.3123  0.1550 -0.0496
   17MOL0     C 2128   7.708   8.936   6.705  0.3506  0.0237 -0.2976
   17MOL0     N 2129   7.615   8.847   6.631 -0.3030 -0.2037  0.7158
   17MOL0     C 2130   7.543   8.742   6.697 -0.0544  0.1260  0.5322
   17MOL0     C 2131   7.493   8.678   6.587 -0.1511  1.2562  0.2935
   17MOL0     C 2132   7.407   8.553   6.616  0.7365  0.1827 -0.6787
   17MOL0     C 2133   7.264   8.569   6.578  0.2405 -0.2475 -0.0040
   17MOL0     C 2134   7.200   8.664   6.670 -1.2630  0.1879 -0.4305
   17MOL0     C 2135   7.052   8.629   6.693  0.8842 -0.4677 -0.4096
   17MOL0     O 2136   6.983   8.742   6.751  0.4422 -0.3196 -0.5083
   17MOL0     C 2137   6.844   8.747   6.748  1.0008 -0.2403  0.1684
   17MOL0     C 2138   6.789   8.870   6.750  0.0918  0.2334  0.4809
   17MOL0     C 2139   6.646   8.885   6.743 -0.0661  0.3507  0.4321
   17MOL0     C 2140   6.565   8.777   6.708  0.2074 -0.1579 -0.4575
   17MOL0     C 2141   6.412   8.784   6.701  0.0756 -0.7052  0.3221
   17MOL0     O 2142   6.352   8.909   6.706  0.3344 -0.5124 -0.8309
   17MOL0     C 2143   6.220   8.907   6.749  0.2862  0.2803 -0.9340
   17MOL0     C 2144   6.122   8.927   6.654 -0.3526  0.2290 -0.7687
   17MOL0     C 2145   5.988   8.924   6.693  0.1786 -0.5799 -0.6390
   17MOL0     C 2146   5.947   8.889   6.820  0.0167 -0.7000 -0.2118
   17MOL0     O 2147   5.803   8.885   6.839 -0.4684 -0.4082 -0.3412
   17MOL0     C 2148   5.744   8.837   6.965 -0.0803 -0.9594  0.2493
   17MOL0     C 2149   5.616   8.923   6.977 -0.0742 -0.0009 -0.5194
   17MOL0     C 2150   5.520   8.885   7.092 -0.5926  0.4259  0.0520
   17MOL0     C 2151   5.376   8.925   7.067  0.2157  0.4575  0.1801
   17MOL0     C 2152   5.274   8.872   7.180 -0.4917  0.2342  1.0294
   17MOL0     C 2153   5.140   8.880   7.134  0.0052  0.5310  0.2032
   17MOL0     C 2154   5.036   8.845   7.248 -0.8601 -0.1558 -0.0941
   17MOL0     C 2155   4.894   8.841   7.208 -0.3777  0.0316 -0.1608
   17MOL0    Cl 2156   4.825   8.997   7.142 -0.3588 -0.1843 -0.1787
   17MOL0     C 2157   6.050   8.868   6.918 -1.5082  0.2923  0.4627
   17MOL0     C 2158   6.188   8.889   6.883  0.3425 -0.5266 -0.6198
   17MOL0     O 2159   6.352   8.678   6.701 -0.5256  0.0901  0.1764
   17MOL0     C 2160   6.627   8.648   6.698  0.7656 -0.5142 -0.1237
   17MOL0     C 2161   6.762   8.634   6.732  0.1224  0.1913 -0.0957
   17MOL0     N 2162   7.522   8.746   6.470  0.2397 -0.0295  0.8315
   17MOL0     N 2163   7.611   8.839   6.499 -0.2148  0.6033  0.7521
   17MOL0     C 2164   8.787   8.959   6.935 -0.9089 -0.4200 -0.3075
   17MOL0     C 2165   8.911   9.020   6.908 -0.0302  1.1137  0.0995
   17MOL0     C 2166   9.236   9.344   6.925 -0.0982 -0.0253  0.1994
   17MOL0     C 2167   9.321   9.256   6.867 -0.0151  0.9913  0.1788
   17MOL0     C 2168   9.449   9.298   6.837  0.1307  0.5832  0.3238
   17MOL0     C 2169   9.498   9.425   6.857  0.6329 -0.4538 -0.5091
   17MOL0     O 2170   9.633   9.445   6.827  0.3199 -1.0394 -0.2085
   17MOL0     C 2171   9.695   9.555   6.904  0.2271  0.6312 -0.2274
   17MOL0     C 2172   9.843   9.539   6.913 -0.1204 -0.4937 -0.1083
   17MOL0     C 2173   9.892   9.409   6.976  0.1428  0.6736 -0.3547
   17MOL0     C 2174  10.046   9.408   6.986  1.1481 -0.2898 -0.4337
   17MOL0     C 2175  10.093   9.282   7.053  0.8261  0.8768 -1.3272
   17MOL0     C 2176  10.121   9.175   7.098  0.5599  0.1134 -0.4138
   17MOL0     C 2177   9.406   9.523   6.910 -0.1080  0.3446  0.3286
   17MOL0     C 2178   9.280   9.473   6.941  0.1626 -0.0675 -0.5193
   17MOL0     H 2179   8.799   9.340   6.936 -0.7638  0.3319 -0.9829
   17MOL0     H 2180   8.601   9.221   7.024  0.8214  0.8857 -0.0128
   17MOL0     H 2181   8.506   9.073   7.161  0.6446 -2.4596  1.8803
   17MOL0     H 2182   8.416   8.917   7.130  4.9825 -3.0695  0.4300
   17MOL0     H 2183   8.388   9.165   6.951 -2.1385  1.5928 -0.8443
   17MOL0     H 2184   8.291   9.131   7.089  1.0042  1.5875  1.0014
   17MOL0     H 2185   8.272   8.897   6.994  1.5326 -0.0545 -0.7146
   17MOL0     H 2186   8.346   8.957   6.837 -0.5763 -3.4090  0.0366
   17MOL0     H 2187   8.110   9.096   6.967 -0.1781  2.3205 -1.9096
   17MOL0     H 2188   8.181   9.113   6.805 -1.1901 -2.0214 -2.9299
   17MOL0     H 2189   8.063   8.837   6.884 -2.5778 -1.4074 -1.3264
   17MOL0     H 2190   8.123   8.914   6.735 -1.0773  2.9661 -0.3651
   17MOL0     H 2191   7.937   9.073   6.731 -0.1950  2.3879  3.6488
   17MOL0     H 2192   7.890   9.017   6.890  1.2389 -0.6324  1.0637
   17MOL0     H 2193   7.887   8.832   6.653 -1.8865 -0.1723 -0.6597
   17MOL0     H 2194   7.833   8.794   6.822 -1.3703  0.0131 -0.3434
   17MOL0     H 2195   7.730   9.023   6.642  0.3638 -0.4424 -0.9595
   17MOL0     H 2196   7.659   8.980   6.792  0.8788 -1.1308  0.6001
   17MOL0     H 2197   7.525   8.715   6.801  1.3462  1.5520  1.1902
   17MOL0     H 2198   7.404   8.528   6.723 -1.4560  0.7879 -0.5416
   17MOL0     H 2199   7.455   8.478   6.554 -0.8112 -0.9302 -0.5922
   17MOL0     H 2200   7.209   8.477   6.597 -1.0653  1.1236  3.7224
   17MOL0     H 2201   7.247   8.614   6.479 -1.7206  0.6981  0.7193
   17MOL0     H 2202   7.249   8.655   6.767  1.5337  0.7250 -1.6893
   17MOL0     H 2203   7.223   8.770   6.654  0.0772  0.3367  2.1075
   17MOL0     H 2204   7.041   8.540   6.756 -0.7666  0.0583  0.0857
   17MOL0     H 2205   6.991   8.616   6.603  0.3730  0.8219 -0.2754
   17MOL0     H 2206   6.852   8.954   6.776 -2.6660  3.0656 -1.4038
   17MOL0     H 2207   6.607   8.982   6.773 -0.8811  0.0547  0.3680
   17MOL0     H 2208   6.141   8.938   6.547  0.5217 -1.7833 -0.8579
   17MOL0     H 2209   5.905   8.953   6.630 -1.0737  1.6523  1.8516
   17MOL0     H 2210   5.805   8.862   7.052  1.9127 -0.8598 -1.1100
   17MOL0     H 2211   5.726   8.730   6.952  4.3219 -1.8266 -0.3545
   17MOL0     H 2212   5.565   8.932   6.880 -0.3576  0.6135 -0.3221
   17MOL0     H 2213   5.644   9.026   7.001  1.8410  0.0362 -2.5382
   17MOL0     H 2214   5.550   8.942   7.180 -0.5121  1.5245 -0.6632
   17MOL0     H 2215   5.529   8.777   7.105  2.2617  0.2504 -2.3241
   17MOL0     H 2216   5.384   9.034   7.073  0.4201  0.5561 -1.3140
   17MOL0     H 2217   5.345   8.884   6.970 -1.1728  0.3448  0.6507
   17MOL0     H 2218   5.291   8.941   7.263  1.2524  2.1513 -0.8143
   17MOL0     H 2219   5.301   8.770   7.211 -3.2139 -1.6346 -2.0624
   17MOL0     H 2220   5.125   8.823   7.043  1.0207  2.9951 -1.6142
   17MOL0     H 2221   5.128   8.983   7.100  0.7680  0.4809 -0.2149
   17MOL0     H 2222   5.054   8.754   7.307  0.5015  1.1223  1.5527
   17MOL0     H 2223   5.047   8.917   7.329  1.5301 -0.4397 -0.0869
   17MOL0     H 2224   4.834   8.813   7.295 -0.0570 -0.1932 -0.0138
   17MOL0     H 2225   4.879   8.766   7.130 -2.8485  0.2567  0.0219
   17MOL0     H 2226   6.014   8.850   7.019  2.4311 -0.9929  1.8206
   17MOL0     H 2227   6.263   8.874   6.960 -1.8093  1.9288  2.1986
   17MOL0     H 2228   6.577   8.552   6.691  2.2733 -1.3566  0.1901
   17MOL0     H 2229   6.812   8.538   6.738  2.4707  1.4305  1.9356
   17MOL0     H 2230   8.765   8.854   6.928 -1.3192 -0.4901  1.5656
   17MOL0     H 2231   8.998   8.961   6.878 -1.0640 -0.2118 -0.4039
   17MOL0     H 2232   9.289   9.155   6.846  0.1967  0.9939 -0.1538
   17MOL0     H 2233   9.508   9.217   6.797 -0.2506 -0.1720  1.2549
   17MOL0     H 2234   9.661   9.564   7.007  2.7908 -0.7519  0.8124
   17MOL0     H 2235   9.674   9.649   6.851 -1.4392  0.6797  0.4647
   17MOL0     H 2236   9.888   9.565   6.817  0.1611 -0.1035  0.1252
   17MOL0     H 2237   9.864   9.624   6.979 -2.0234  0.1255 -0.2568
   17MOL0     H 2238   9.863   9.330   6.906  1.4995 -0.2408  0.0848
   17MOL0     H 2239   9.842   9.405   7.073 -0.7983  0.2652 -0.8404
   17MOL0     H 2240  10.078   9.413   6.881  0.8805  0.7251 -0.4817
   17MOL0     H 2241  10.071   9.499   7.041 -1.2357 -0.3165  0.7838
   17MOL0     H 2242  10.128   9.072   7.125 -0.1629  0.5672  1.6985
   17MOL0     H 2243   9.434   9.625   6.933 -2.0082  0.9061  0.3405
   17MOL0     H 2244   9.203   9.541   6.977 -0.4024 -0.3608 -1.1377
   18MOL0     O 2245   2.532   2.196   2.427 -0.4482  0.3552 -0.4557
   18MOL0     C 2246   2.475   2.183   2.317  0.3194  0.7534  0.4358
   18MOL0     O 2247   2.533   2.162   2.196 -0.2584 -1.0017 -0.5359
   18MOL0     C 2248   2.671   2.159   2.196 -0.1623 -0.0860  1.2013
   18MOL0     C 2249   2.737   2.041   2.229 -0.5677 -0.1133  0.6412
   18MOL0     C 2250   2.876   2.030   2.226  0.1558  0.2916  0.4739
   18MOL0     C 2251   2.950   2.145   2.201  0.8693  0.0391  0.8477
   18MOL0     O 2252   3.084   2.137   2.217 -0.1925  0.2000  0.3848
   18MOL0     C 2253   3.162   2.181   2.103  0.1282 -0.1471  0.4208
   18MOL0     C 2254   3.275   2.082   2.072  0.0551 -0.5646  0.1216
   18MOL0     C 2255   3.363   2.034   2.182 -0.5483  0.4872  0.0124
   18MOL0     C 2256   3.466   1.922   2.127 -0.0919  0.2516 -0.1349
   18MOL0     C 2257   3.543   1.865   2.247  0.3187 -0.4309 -0.2504
   18MOL0     C 2258   3.650   1.766   2.191  0.1043  0.5273 -0.1626
   18MOL0     C 2259   3.725   1.705   2.312  0.6581  1.1786 -0.7884
   18MOL0     C 2260   3.765   1.555   2.285  0.6892 -0.4390  0.0912
   18MOL0     N 2261   3.837   1.543   2.148  0.0093 -0.5351  0.4847
   18MOL0     C 2262   3.779   1.473   2.041 -0.1304 -0.7227 -0.2747
   18MOL0     C 2263   3.871   1.485   1.944 -0.5432 -0.6473  0.0819
   18MOL0     C 2264   3.850   1.421   1.806 -0.3203  0.1060 -1.0053
   18MOL0     C 2265   3.907   1.510   1.698  0.2910  0.3093  0.5615
   18MOL0     C 2266   3.946   1.432   1.572 -0.7828  0.4623 -0.0152
   18MOL0     C 2267   3.992   1.518   1.449 -0.2357 -0.9354  0.8493
   18MOL0     O 2268   3.906   1.638   1.429  0.3482  0.0782 -0.0931
   18MOL0     C 2269   3.778   1.642   1.372  0.4308  0.0993 -0.4256
   18MOL0     C 2270   3.706   1.758   1.376  0.2413 -0.1695 -0.1480
   18MOL0     C 2271   3.571   1.769   1.334 -0.3915  0.4151 -0.5650
   18MOL0     C 2272   3.510   1.657   1.278 -0.1871  0.3916  0.2199
   18MOL0     C 2273   3.365   1.656   1.228  0.1273  0.5321 -0.3958
   18MOL0     O 2274   3.315   1.772   1.192  0.8403  0.0014  0.2087
   18MOL0     C 2275   3.194   1.777   1.124  0.5591  0.3664 -0.0805
   18MOL0     C 2276   3.113   1.873   1.179 -1.2440 -0.4954  0.0085
   18MOL0     C 2277   2.982   1.893   1.129 -0.3485 -0.6977  0.0699
   18MOL0     C 2278   2.943   1.800   1.023  0.5454 -0.5132  1.2507
   18MOL0     O 2279   2.826   1.794   0.946 -1.2098  0.4515  0.5516
   18MOL0     C 2280   2.712   1.850   1.002 -0.7986 -0.4931 -0.2767
   18MOL0     C 2281   2.623   1.883   0.882 -0.3072 -0.0212 -0.1626
   18MOL0     C 2282   2.467   1.888   0.901  0.5593  0.5375 -0.0638
   18MOL0     C 2283   2.386   1.928   0.775 -0.1781  0.3890 -0.2441
   18MOL0     C 2284   2.229   1.912   0.793 -0.3200 -0.2521 -0.3690
   18MOL0     C 2285   2.151   2.046   0.743  0.0916 -0.0710  0.5822
   18MOL0     C 2286   2.006   2.015   0.713 -0.4763 -0.1315  0.7419
   18MOL0     C 2287   1.927   1.998   0.842  1.0576  0.0876  0.1518
   18MOL0    Cl 2288   1.911   2.145   0.936  0.3661  0.1770 -0.5167
   18MOL0     C 2289   3.038   1.718   0.968 -0.6174  0.4687  0.2162
   18MOL0     C 2290   3.161   1.700   1.013 -0.2297  0.5368 -0.7442
   18MOL0     O 2291   3.307   1.549   1.237  0.5892 -0.5698  0.4849
   18MOL0     C 2292   3.589   1.541   1.259  0.1298 -0.4972  0.7451
   18MOL0     C 2293   3.719   1.532   1.309 -0.2111 -0.1678  0.2882
   18MOL0     N 2294   3.981   1.554   1.997  0.5722  0.9594  0.8879
   18MOL0     N 2295   3.949   1.602   2.108  0.4489  0.4850 -0.4638
   18MOL0     C 2296   2.880   2.259   2.172 -0.0147 -0.8795 -0.6791
   18MOL0     C 2297   2.741   2.271   2.163  0.6207  0.2086  0.5709
   18MOL0     C 2298   2.327   2.200   2.327 -0.0171  0.3095 -0.0185
   18MOL0     C 2299   2.253   2.219   2.210 -0.6880  0.4932  0.2421
   18MOL0     C 2300   2.116   2.242   2.219  0.0222  0.8797  0.3413
   18MOL0     C 2301   2.047   2.228   2.343  0.3768  0.9734  0.1825
   18MOL0     O 2302   1.916   2.260   2.343 -0.1618 -0.0916 -0.5821
   18MOL0     C 2303   1.846   2.291   2.461  0.6318  0.6486 -0.6742
   18MOL0     C 2304   1.813   2.150   2.517 -0.2396  0.1923 -1.4916
   18MOL0     C 2305   1.722   2.168   2.641  0.3900 -0.6395  0.3307
   18MOL0     C 2306   1.653   2.033   2.663  0.7583 -0.4739  0.0285
   18MOL0     C 2307   1.580   2.022   2.799  0.8236 -0.1262 -0.1905
   18MOL0     C 2308   1.503   2.013   2.889  0.3900 -0.0152 -0.4073
   18MOL0     C 2309   2.121   2.206   2.461 -0.4812 -0.2089 -0.6142
   18MOL0     C 2310   2.257   2.195   2.454 -0.3877  0.4776  0.0472
   18MOL0     H 2311   2.678   1.955   2.259 -0.3196 -0.9817 -1.2122
   18MOL0     H 2312   2.930   1.939   2.248  0.1276  0.2893  0.5318
   18MOL0     H 2313   3.211   2.274   2.134  1.4946 -0.9587  0.7666
   18MOL0     H 2314   3.107   2.204   2.011 -0.4774 -1.8031  0.3230
   18MOL0     H 2315   3.338   2.138   2.004 -0.5608  0.8513  0.6804
   18MOL0     H 2316   3.238   1.994   2.019  2.2840 -1.2464 -0.4218
   18MOL0     H 2317   3.304   1.999   2.267 -0.9449  0.4423 -0.2784
   18MOL0     H 2318   3.421   2.121   2.212 -1.0072  0.4108  1.1385
   18MOL0     H 2319   3.408   1.842   2.079  0.0661 -0.6042  1.0594
   18MOL0     H 2320   3.531   1.969   2.053 -3.1853  2.7962 -1.4855
   18MOL0     H 2321   3.467   1.817   2.309 -0.4021  0.6990 -0.2323
   18MOL0     H 2322   3.585   1.951   2.300 -0.0683  0.1485 -0.8660
   18MOL0     H 2323   3.725   1.816   2.130 -0.0915  1.0178 -0.0049
   18MOL0     H 2324   3.595   1.696   2.126  0.0289  2.0333 -1.7981
   18MOL0     H 2325   3.815   1.765   2.328  0.5938  0.6556  2.1512
   18MOL0     H 2326   3.659   1.711   2.400  3.7863  2.0592  1.6855
   18MOL0     H 2327   3.690   1.475   2.292  1.0809 -0.8675 -0.4904
   18MOL0     H 2328   3.836   1.530   2.365  1.4468  1.6297  0.1162
   18MOL0     H 2329   3.684   1.421   2.045  0.3456 -1.5859  0.1001
   18MOL0     H 2330   3.744   1.399   1.792 -0.2388  0.1365 -1.7034
   18MOL0     H 2331   3.903   1.327   1.821  1.1097  0.3639 -3.7586
   18MOL0     H 2332   3.990   1.573   1.731  0.6990 -0.1309  0.3848
   18MOL0     H 2333   3.826   1.582   1.682  0.3194  0.0215 -1.0968
   18MOL0     H 2334   4.026   1.361   1.595 -0.8630 -0.2042 -1.6374
   18MOL0     H 2335   3.861   1.369   1.544  0.7804 -0.3742 -3.5324
   18MOL0     H 2336   3.991   1.452   1.362 -3.5539  1.3016 -1.0282
   18MOL0     H 2337   4.087   1.568   1.468 -1.3499  0.9310  1.9023
   18MOL0     H 2338   3.754   1.854   1.391  3.1831 -1.3479 -1.1790
   18MOL0     H 2339   3.511   1.860   1.336 -0.0269  0.6475  0.6652
   18MOL0     H 2340   3.159   1.931   1.258 -0.5598  0.0094 -0.7424
   18MOL0     H 2341   2.925   1.973   1.174  2.7561  1.1857  0.9231
   18MOL0     H 2342   2.732   1.943   1.056  0.3429 -0.5585 -0.5511
   18MOL0     H 2343   2.660   1.771   1.056  0.3920 -0.3341  1.1637
   18MOL0     H 2344   2.638   1.805   0.807 -2.2724  1.4879 -2.2697
   18MOL0     H 2345   2.666   1.973   0.837 -0.9328 -1.2782 -3.5033
   18MOL0     H 2346   2.453   1.961   0.982 -0.2097  2.1366 -1.5780
   18MOL0     H 2347   2.425   1.793   0.936 -3.3162  3.3441  4.0995
   18MOL0     H 2348   2.417   2.029   0.749 -2.1892  0.9626 -0.6085
   18MOL0     H 2349   2.423   1.869   0.690  0.6778 -0.3020  0.5801
   18MOL0     H 2350   2.205   1.899   0.899  1.8194 -0.6230  0.1074
   18MOL0     H 2351   2.198   1.826   0.732 -2.5693 -0.5082  1.0006
   18MOL0     H 2352   2.189   2.085   0.648 -0.2803  0.8562  0.8048
   18MOL0     H 2353   2.155   2.129   0.815 -1.5413 -1.4728  2.4094
   18MOL0     H 2354   1.958   2.096   0.657  2.0362 -0.7686 -2.6521
   18MOL0     H 2355   2.004   1.927   0.649  1.4732 -0.5463  1.1774
   18MOL0     H 2356   1.962   1.918   0.909 -0.7136  0.4378  1.5921
   18MOL0     H 2357   1.822   1.983   0.814  0.6310  3.0220 -0.0602
   18MOL0     H 2358   3.004   1.661   0.882 -1.8809  1.2947  0.1412
   18MOL0     H 2359   3.224   1.628   0.962 -2.9173 -2.7909  0.2802
   18MOL0     H 2360   3.543   1.452   1.218 -1.3817 -1.7383  4.6820
   18MOL0     H 2361   3.770   1.437   1.303  2.6199  1.2004  0.9286
   18MOL0     H 2362   2.932   2.352   2.153 -0.1942 -0.6439 -0.0545
   18MOL0     H 2363   2.691   2.366   2.150  0.3743 -0.1045 -0.9723
   18MOL0     H 2364   2.298   2.228   2.111 -0.2187 -0.3591  0.3627
   18MOL0     H 2365   2.052   2.243   2.131  0.9484 -1.7131 -0.4628
   18MOL0     H 2366   1.761   2.346   2.421  0.6609  0.6631 -0.7154
   18MOL0     H 2367   1.894   2.364   2.527 -0.0156  3.4612 -3.0799
   18MOL0     H 2368   1.765   2.100   2.432 -1.7844  1.6957 -1.5630
   18MOL0     H 2369   1.904   2.100   2.551  0.2274  2.3227  0.7143
   18MOL0     H 2370   1.648   2.245   2.617  0.3669 -2.0372 -5.8594
   18MOL0     H 2371   1.795   2.208   2.712 -1.0274  0.6696  1.1020
   18MOL0     H 2372   1.573   2.035   2.588 -2.3244 -1.1267  3.0327
   18MOL0     H 2373   1.725   1.954   2.637  1.9143  0.4348  0.3863
   18MOL0     H 2374   1.431   2.008   2.969  1.5896  1.6065  0.8303
   18MOL0     H 2375   2.083   2.210   2.563  2.2549 -2.4324  0.6256
   18MOL0     H 2376   2.322   2.175   2.538  1.0847  0.2470 -1.1020
   19MOL0     O 2377   1.857  10.366  11.161 -0.3236  0.6210 -0.3753
   19MOL0     C 2378   1.893  10.445  11.247 -0.3425 -0.5103  0.3285
   19MOL0     O 2379   1.809  10.524  11.324  0.4949  0.0091 -0.7214
   19MOL0     C 2380   1.677  10.533  11.297 -0.7397  0.6950 -0.0719
   19MOL0     C 2381   1.624  10.550  11.166  1.0640 -0.5394 -0.0211
   19MOL0     C 2382   1.482  10.569  11.149 -0.3447 -0.4855  0.3830
   19MOL0     C 2383   1.396  10.592  11.258  0.0300 -0.2460  0.5397
   19MOL0     O 2384   1.257  10.599  11.255 -1.0062 -0.0415 -0.5520
   19MOL0     C 2385   1.203  10.624  11.125  0.1202  0.0215 -0.5537
   19MOL0     C 2386   1.049  10.600  11.145 -0.2655  0.3169  0.3362
   19MOL0     C 2387   0.973  10.615  11.010 -0.1390 -0.3989  0.0484
   19MOL0     C 2388   0.827  10.579  11.028 -0.3084 -0.1503 -0.6810
   19MOL0     C 2389   0.748  10.598  10.898  0.3806  0.0355  0.2658
   19MOL0     C 2390   0.598  10.578  10.923  0.5434  1.4282  0.5006
   19MOL0     C 2391   0.523  10.598  10.794  0.0110 -0.0272  0.3506
   19MOL0     C 2392   0.379  10.552  10.812  0.8561 -0.9715 -0.7171
   19MOL0     N 2393   0.312  10.535  10.685 -0.3017  0.3057  0.3868
   19MOL0     C 2394   0.313  10.426  10.593 -0.7238  0.5235  0.3858
   19MOL0     C 2395   0.222  10.446  10.498  0.2667  0.3951  0.1471
   19MOL0     C 2396   0.166  10.344  10.406  0.3899 -0.2823  0.4924
   19MOL0     C 2397   0.046  10.403  10.324  0.0252  0.3776  0.1985
   19MOL0     C 2398  -0.027  10.300  10.240 -0.2656  0.9124 -0.4179
   19MOL0     C 2399  -0.157  10.348  10.194 -0.6647  0.6309 -0.1259
   19MOL0     O 2400  -0.197  10.256  10.095 -0.7442 -0.2215  0.4312
   19MOL0     C 2401  -0.308  10.287  10.027  0.2666  1.1930  0.5578
   19MOL0     C 2402  -0.347  10.187   9.938 -0.2191  0.2547 -0.2283
   19MOL0     C 2403  -0.463  10.206   9.862 -0.6679  0.6132 -0.1869
   19MOL0     C 2404  -0.545  10.313   9.873  0.1935  0.0637 -0.1882
   19MOL0     C 2405  -0.673  10.325   9.801 -0.8015 -1.1596 -0.1464
   19MOL0     O 2406  -0.761  10.435   9.825  0.3782  0.0730  0.1266
   19MOL0     C 2407  -0.885  10.435   9.764 -0.0532 -0.0233 -0.0688
   19MOL0     C 2408  -0.912  10.430   9.626  0.3852 -0.7037 -0.9047
   19MOL0     C 2409  -1.046  10.431   9.584 -0.0238 -0.2111 -0.6104
   19MOL0     C 2410  -1.152  10.452   9.671  0.6242 -0.4358  0.0473
   19MOL0     O 2411  -1.279  10.442   9.609  0.4670 -0.0470 -0.8709
   19MOL0     C 2412  -1.397  10.425   9.692 -0.2904  0.1652  0.6629
   19MOL0     C 2413  -1.514  10.364   9.618  0.5067 -0.5169 -0.0514
   19MOL0     C 2414  -1.626  10.343   9.725  0.0829  0.4217 -0.2233
   19MOL0     C 2415  -1.724  10.232   9.674 -0.1557 -0.4866  0.3310
   19MOL0     C 2416  -1.840  10.205   9.771  0.2520 -0.0900 -0.0203
   19MOL0     C 2417  -1.930  10.086   9.728 -0.2827 -0.7925  0.7317
   19MOL0     C 2418  -2.039  10.064   9.837  0.9718  0.2941  0.1235
   19MOL0     C 2419  -2.130   9.938   9.808  0.0075 -0.3216  1.1291
   19MOL0    Cl 2420  -2.181   9.934   9.644  0.0520 -0.4016 -0.3777
   19MOL0     C 2421  -1.117  10.465   9.808  0.2234  1.4653 -0.1061
   19MOL0     C 2422  -0.985  10.468   9.851  0.0687 -0.2805  0.2500
   19MOL0     O 2423  -0.694  10.229   9.732  0.4892  0.3662 -0.4143
   19MOL0     C 2424  -0.512  10.415   9.963  0.1455 -1.2916  1.0395
   19MOL0     C 2425  -0.400  10.397  10.039 -0.1055  1.0251 -0.0296
   19MOL0     N 2426   0.180  10.580  10.511  0.7837 -0.5067 -0.1212
   19MOL0     N 2427   0.230  10.623  10.625  0.2269  0.2212  0.7589
   19MOL0     C 2428   1.449  10.581  11.384 -1.1130  0.9860  0.0920
   19MOL0     C 2429   1.592  10.566  11.403  0.2450  0.0527  0.2843
   19MOL0     C 2430   2.037  10.435  11.285 -0.0712 -0.4907  0.6387
   19MOL0     C 2431   2.073  10.451  11.410  0.1466 -0.3382 -0.6921
   19MOL0     C 2432   2.211  10.448  11.445  0.2227  0.1259 -0.8780
   19MOL0     C 2433   2.307  10.403  11.361  0.3628 -0.0673  0.4831
   19MOL0     O 2434   2.436  10.380  11.406  0.2523 -0.3951 -0.3420
   19MOL0     C 2435   2.543  10.466  11.349 -0.0818 -0.7979 -0.0266
   19MOL0     C 2436   2.651  10.472  11.453  0.1710  0.4752 -1.3224
   19MOL0     C 2437   2.613  10.522  11.593  0.0686 -0.4793  0.7091
   19MOL0     C 2438   2.509  10.640  11.587 -0.2916 -0.4355 -0.4140
   19MOL0     C 2439   2.487  10.693  11.724 -0.7898  0.3562 -0.3530
   19MOL0     C 2440   2.487  10.739  11.835 -0.4222  0.1523  0.2112
   19MOL0     C 2441   2.268  10.376  11.228  0.1031  0.8606 -0.0260
   19MOL0     C 2442   2.136  10.400  11.187 -0.9798  0.2303  0.1711
   19MOL0     H 2443   1.702  10.556  11.090  1.8805 -1.7249  0.6824
   19MOL0     H 2444   1.455  10.596  11.047  1.2359  1.1954  0.3589
   19MOL0     H 2445   1.236  10.559  11.043  0.1205  1.3613 -1.6489
   19MOL0     H 2446   1.216  10.732  11.110  1.6066  0.4517  2.8373
   19MOL0     H 2447   1.012  10.677  11.213 -2.5490 -3.1818  3.4459
   19MOL0     H 2448   1.029  10.505  11.196 -0.7056  1.0950  1.6620
   19MOL0     H 2449   1.021  10.547  10.939 -1.0543 -0.8662 -0.1314
   19MOL0     H 2450   0.987  10.720  10.982 -1.2194  0.8811  3.7256
   19MOL0     H 2451   0.805  10.481  11.070 -0.2481  0.6006  1.2157
   19MOL0     H 2452   0.799  10.646  11.110 -0.0398 -1.3935  0.4519
   19MOL0     H 2453   0.771  10.536  10.810  1.9561  0.2879  0.4609
   19MOL0     H 2454   0.765  10.700  10.863 -1.3254 -0.3413 -1.8492
   19MOL0     H 2455   0.559  10.645  11.001 -4.1929 -0.8135  0.4132
   19MOL0     H 2456   0.580  10.476  10.959  2.6194  1.7008  2.5883
   19MOL0     H 2457   0.529  10.704  10.766 -2.6645 -0.0336 -0.4938
   19MOL0     H 2458   0.564  10.538  10.712 -2.5605  0.4681 -1.4017
   19MOL0     H 2459   0.328  10.630  10.869  1.6414 -2.9353  2.9984
   19MOL0     H 2460   0.361  10.458  10.866 -0.4602 -0.3846 -0.0833
   19MOL0     H 2461   0.352  10.328  10.615  0.8338  1.3424  1.4408
   19MOL0     H 2462   0.139  10.248  10.451 -1.6105 -0.3790 -0.7897
   19MOL0     H 2463   0.243  10.315  10.333 -1.7710  0.0641 -2.0634
   19MOL0     H 2464   0.069  10.482  10.252  1.3042 -0.1622 -0.0171
   19MOL0     H 2465  -0.018  10.431  10.408  2.6918 -1.7488  3.2126
   19MOL0     H 2466   0.037  10.281  10.154 -1.2844  1.0341 -1.2199
   19MOL0     H 2467  -0.028  10.203  10.290  1.3686  1.6117  1.0771
   19MOL0     H 2468  -0.139  10.446  10.150  0.9092  0.3659 -0.1079
   19MOL0     H 2469  -0.229  10.355  10.276 -0.0575 -2.2251  0.7544
   19MOL0     H 2470  -0.284  10.101   9.918 -1.5876 -0.3503 -2.1504
   19MOL0     H 2471  -0.491  10.132   9.788  0.4234  0.4988 -0.4993
   19MOL0     H 2472  -0.829  10.437   9.556  2.4292  1.9147  1.5282
   19MOL0     H 2473  -1.060  10.436   9.477  3.4128  0.7681 -1.1027
   19MOL0     H 2474  -1.427  10.521   9.736  1.0771 -0.9714  4.4882
   19MOL0     H 2475  -1.378  10.363   9.780  1.4031 -1.7083 -0.9282
   19MOL0     H 2476  -1.484  10.271   9.568 -1.7121 -2.5167  2.0477
   19MOL0     H 2477  -1.561  10.430   9.545 -0.0018 -0.2239  0.5365
   19MOL0     H 2478  -1.680  10.435   9.751 -0.4870 -0.1496  0.6607
   19MOL0     H 2479  -1.579  10.303   9.816  0.4905 -1.8727 -1.3889
   19MOL0     H 2480  -1.770  10.254   9.577 -0.0058  2.4563  0.8317
   19MOL0     H 2481  -1.668  10.140   9.655  0.9357 -0.0546  1.3652
   19MOL0     H 2482  -1.900  10.295   9.789  0.6246  0.7341 -2.4275
   19MOL0     H 2483  -1.798  10.168   9.864  1.1264  1.6547  0.3208
   19MOL0     H 2484  -1.860  10.001   9.725 -0.3046 -0.8343  1.2677
   19MOL0     H 2485  -1.981  10.087   9.631 -1.1965 -0.6719  1.2039
   19MOL0     H 2486  -1.989  10.035   9.930  1.0295 -0.3806 -0.1112
   19MOL0     H 2487  -2.100  10.153   9.851  0.9739  0.0883  1.6678
   19MOL0     H 2488  -2.204   9.918   9.886 -0.2369 -0.3894  0.8804
   19MOL0     H 2489  -2.066   9.850   9.815 -0.8025 -0.8970  1.4589
   19MOL0     H 2490  -1.201  10.478   9.876 -1.3259  0.8986 -1.8232
   19MOL0     H 2491  -0.970  10.494   9.955  1.0684 -0.3375  0.1297
   19MOL0     H 2492  -0.581  10.495   9.990  2.8159  1.9265 -0.7722
   19MOL0     H 2493  -0.392  10.478  10.112  2.3268  0.1807  0.7181
   19MOL0     H 2494   1.379  10.596  11.466 -1.3557 -0.2137  0.1208
   19MOL0     H 2495   1.629  10.553  11.505  1.0797 -1.8378 -0.2082
   19MOL0     H 2496   1.989  10.468  11.478  0.7251  2.1009 -0.4724
   19MOL0     H 2497   2.250  10.471  11.544  3.6716 -2.0579 -1.5612
   19MOL0     H 2498   2.517  10.571  11.331  0.5603 -0.6683 -0.2190
   19MOL0     H 2499   2.572  10.421  11.253 -0.9882 -2.9239  0.6213
   19MOL0     H 2500   2.700  10.377  11.474  1.6089  1.4245 -0.1637
   19MOL0     H 2501   2.737  10.534  11.426 -1.1783  3.1990  0.1984
   19MOL0     H 2502   2.706  10.535  11.648  1.0409 -2.7303 -0.3002
   19MOL0     H 2503   2.560  10.438  11.638 -1.0318  0.0915  0.5083
   19MOL0     H 2504   2.557  10.716  11.524  1.2982 -0.2661  0.9280
   19MOL0     H 2505   2.410  10.611  11.553 -0.3944 -0.8734  0.2378
   19MOL0     H 2506   2.479  10.776  11.936  1.7096  0.3412  0.3407
   19MOL0     H 2507   2.348  10.331  11.171  0.0552 -2.7917  2.4412
   19MOL0     H 2508   2.102  10.372  11.087 -1.5610 -2.2237  0.9925
   20MOL0     O 2509   3.054   2.004   7.902 -0.7703 -0.3546  0.6585
   20MOL0     C 2510   3.141   2.083   7.941  0.6949 -0.4090  0.1293
   20MOL0     O 2511   3.118   2.211   7.982  0.4710 -0.3769 -0.4495
   20MOL0     C 2512   2.996   2.278   7.977 -0.0657 -0.2623  0.5266
   20MOL0     C 2513   2.993   2.413   8.032 -0.1360 -0.0172 -0.6604
   20MOL0     C 2514   2.882   2.499   8.014 -0.2648  0.3303 -0.4324
   20MOL0     C 2515   2.767   2.451   7.954 -0.3992 -0.0949  0.0200
   20MOL0     O 2516   2.653   2.533   7.934 -0.4099 -0.1293 -0.4622
   20MOL0     C 2517   2.669   2.677   7.969 -0.2707  0.3113 -0.3427
   20MOL0     C 2518   2.535   2.758   7.949 -0.1330  0.9054 -0.6994
   20MOL0     C 2519   2.545   2.902   7.884 -0.0348  0.8583 -1.0115
   20MOL0     C 2520   2.402   2.944   7.839 -0.5783 -0.5995  0.4085
   20MOL0     C 2521   2.403   3.081   7.774  0.2211  0.4469  0.0180
   20MOL0     C 2522   2.264   3.139   7.756  0.8102  0.1771 -1.1266
   20MOL0     C 2523   2.166   3.040   7.691  0.3681  0.6164  0.7055
   20MOL0     C 2524   2.019   3.088   7.680 -0.0206 -0.2879  0.1157
   20MOL0     N 2525   1.938   2.974   7.635 -0.0970 -0.4836 -0.0429
   20MOL0     C 2526   1.976   2.874   7.537 -0.1988  0.2169  0.1274
   20MOL0     C 2527   1.883   2.775   7.559 -0.3664 -0.0423 -0.2054
   20MOL0     C 2528   1.862   2.642   7.476 -0.3009  0.0383 -0.2588
   20MOL0     C 2529   1.803   2.679   7.344  0.0040 -0.1405 -0.5203
   20MOL0     C 2530   1.792   2.561   7.249  0.4365 -1.3063 -0.9037
   20MOL0     C 2531   1.919   2.518   7.184  0.4977  1.0495 -1.1887
   20MOL0     O 2532   2.010   2.628   7.164  0.6999  0.6515  0.5898
   20MOL0     C 2533   2.145   2.592   7.164 -0.1083  0.2101 -0.1999
   20MOL0     C 2534   2.202   2.470   7.120  0.4187 -0.1530  0.0851
   20MOL0     C 2535   2.342   2.455   7.117 -0.7932 -0.0122 -0.6929
   20MOL0     C 2536   2.430   2.561   7.152  0.2435  0.0126  0.6309
   20MOL0     C 2537   2.575   2.546   7.142  1.0124 -0.0028  0.1717
   20MOL0     O 2538   2.639   2.659   7.120  0.2321 -0.8478 -0.2084
   20MOL0     C 2539   2.772   2.657   7.093  0.6223 -0.6853 -0.0608
   20MOL0     C 2540   2.845   2.754   7.146 -0.8708 -0.4267 -0.2959
   20MOL0     C 2541   2.983   2.771   7.128 -0.2627  0.1069  0.5307
   20MOL0     C 2542   3.039   2.688   7.030 -0.7687 -0.7048 -0.1464
   20MOL0     O 2543   3.173   2.693   7.013  0.8212 -0.1688 -0.6793
   20MOL0     C 2544   3.229   2.656   6.884 -0.2564  0.0253 -0.8504
   20MOL0     C 2545   3.374   2.684   6.890 -0.0687  0.1148 -0.1840
   20MOL0     C 2546   3.443   2.628   6.763 -0.3934  0.3352  0.3261
   20MOL0     C 2547   3.594   2.662   6.748 -0.4988 -0.0472 -0.1034
   20MOL0     C 2548   3.629   2.641   6.593  0.3286 -0.5739  0.4935
   20MOL0     C 2549   3.784   2.626   6.591  0.7994 -0.6449  0.0853
   20MOL0     C 2550   3.826   2.576   6.457  0.4590 -0.4367  0.8424
   20MOL0     C 2551   3.978   2.580   6.431  0.6510 -0.2067  0.8741
   20MOL0    Cl 2552   4.052   2.744   6.445  0.2942 -0.2645  0.0328
   20MOL0     C 2553   2.961   2.592   6.969 -0.0330 -0.1980  0.5659
   20MOL0     C 2554   2.831   2.574   7.001 -0.0085 -0.1126  0.2116
   20MOL0     O 2555   2.623   2.444   7.177  0.1141  0.3301  0.0312
   20MOL0     C 2556   2.374   2.679   7.200 -0.1061 -0.0095  1.0261
   20MOL0     C 2557   2.237   2.695   7.202  0.8462  0.5995 -0.5724
   20MOL0     N 2558   1.807   2.805   7.672 -0.1952 -0.3011  0.0457
   20MOL0     N 2559   1.852   2.912   7.724 -0.4576  0.1327  0.5915
   20MOL0     C 2560   2.766   2.318   7.897  0.3813 -1.1041  0.2301
   20MOL0     C 2561   2.872   2.229   7.912  0.3927 -0.0801 -0.4503
   20MOL0     C 2562   3.281   2.036   7.919 -0.3193 -0.4608 -1.0675
   20MOL0     C 2563   3.309   1.901   7.927  0.2261 -0.3719 -0.0187
   20MOL0     C 2564   3.442   1.854   7.911  0.0956  0.6939 -0.8907
   20MOL0     C 2565   3.552   1.939   7.914 -0.1338  0.0942 -0.3365
   20MOL0     O 2566   3.686   1.914   7.929 -0.2398  0.3101  0.6027
   20MOL0     C 2567   3.733   1.780   7.924 -0.1987 -0.5269 -0.5468
   20MOL0     C 2568   3.888   1.794   7.905 -0.2789  0.7528 -0.2609
   20MOL0     C 2569   3.943   1.657   7.879 -0.4709 -0.3396  0.1011
   20MOL0     C 2570   4.098   1.650   7.878 -0.5021  0.1591  0.2768
   20MOL0     C 2571   4.129   1.505   7.853  0.6622  0.0195 -0.5839
   20MOL0     C 2572   4.140   1.381   7.834 -0.6804 -0.3582 -0.9094
   20MOL0     C 2573   3.519   2.076   7.901  0.2469  0.4504 -0.3532
   20MOL0     C 2574   3.385   2.127   7.893  0.3782 -0.6158 -0.3548
   20MOL0     H 2575   3.078   2.444   8.092  0.8627 -2.2739 -0.8045
   20MOL0     H 2576   2.897   2.592   8.067  1.2010  0.6566 -1.3746
   20MOL0     H 2577   2.738   2.726   7.900  0.3145 -0.5335 -0.3688
   20MOL0     H 2578   2.705   2.689   8.071  2.0072 -2.0408 -0.7764
   20MOL0     H 2579   2.481   2.779   8.042  1.6278  0.3463  0.4942
   20MOL0     H 2580   2.471   2.700   7.882  1.3387  1.9133 -3.0880
   20MOL0     H 2581   2.610   2.908   7.796  0.0178 -1.9383 -1.2448
   20MOL0     H 2582   2.592   2.972   7.954  1.6035 -1.5802  0.4461
   20MOL0     H 2583   2.367   2.867   7.769  0.1682  0.6843 -1.4302
   20MOL0     H 2584   2.338   2.946   7.928  0.2985  3.2362  1.1320
   20MOL0     H 2585   2.446   3.069   7.675 -0.9703  0.2635 -0.5002
   20MOL0     H 2586   2.476   3.144   7.826  1.7224 -3.4104  3.0666
   20MOL0     H 2587   2.265   3.228   7.693  0.7343  0.2384 -1.0423
   20MOL0     H 2588   2.230   3.169   7.856  0.2162 -1.7462 -0.7032
   20MOL0     H 2589   2.203   3.016   7.592  0.3473 -4.2494  1.6500
   20MOL0     H 2590   2.161   2.954   7.759 -0.9343  0.4679  0.4612
   20MOL0     H 2591   2.004   3.165   7.603 -0.7463  1.1850  1.6693
   20MOL0     H 2592   1.982   3.121   7.777  0.6122  4.2674 -0.9353
   20MOL0     H 2593   2.050   2.888   7.458  1.9312 -0.0901  1.9524
   20MOL0     H 2594   1.807   2.567   7.534  1.8925  0.4621  2.5862
   20MOL0     H 2595   1.965   2.607   7.475 -0.7119 -1.3869  1.1626
   20MOL0     H 2596   1.855   2.759   7.290  0.6421 -0.6664 -0.6959
   20MOL0     H 2597   1.700   2.714   7.355 -0.8516 -2.7989  0.7611
   20MOL0     H 2598   1.743   2.475   7.295 -2.9907  1.7025  1.6402
   20MOL0     H 2599   1.721   2.585   7.169 -1.0986  0.8034  1.0078
   20MOL0     H 2600   1.909   2.472   7.085 -0.5324  0.3422 -0.7645
   20MOL0     H 2601   1.969   2.446   7.249  2.4972 -0.8855 -4.5589
   20MOL0     H 2602   2.137   2.394   7.077  1.2372 -1.2902  0.7942
   20MOL0     H 2603   2.405   2.379   7.074  3.7676  2.6678  0.5457
   20MOL0     H 2604   2.802   2.831   7.210 -1.0897 -0.0122 -0.9353
   20MOL0     H 2605   3.045   2.845   7.177  1.8347 -1.0658 -0.2699
   20MOL0     H 2606   3.175   2.714   6.810 -1.5634  3.4664  2.4459
   20MOL0     H 2607   3.211   2.548   6.877 -1.1360  0.0738  0.3256
   20MOL0     H 2608   3.432   2.655   6.979  0.8274  0.0894 -0.7621
   20MOL0     H 2609   3.378   2.791   6.870  1.2750 -0.5044 -4.1829
   20MOL0     H 2610   3.394   2.660   6.671  1.7195  0.9511 -0.6590
   20MOL0     H 2611   3.437   2.519   6.759  2.2095  0.0485  1.6017
   20MOL0     H 2612   3.625   2.763   6.776 -2.1252  0.2631  0.6815
   20MOL0     H 2613   3.654   2.591   6.805  1.0811  1.5543  0.3103
   20MOL0     H 2614   3.597   2.732   6.541  0.7618  0.2989  1.6979
   20MOL0     H 2615   3.584   2.550   6.553  1.5059 -1.1285  0.3829
   20MOL0     H 2616   3.821   2.566   6.675 -0.3271  0.5092  1.4612
   20MOL0     H 2617   3.815   2.730   6.609 -1.2254 -0.2954  1.9181
   20MOL0     H 2618   3.807   2.469   6.450  1.2754 -0.7555  2.8906
   20MOL0     H 2619   3.768   2.621   6.375  2.4385  0.5709 -0.0711
   20MOL0     H 2620   4.001   2.552   6.328 -1.1381 -0.4477  0.4986
   20MOL0     H 2621   4.030   2.512   6.498  0.3774 -1.0054  0.2812
   20MOL0     H 2622   3.005   2.530   6.892  1.8069  0.6156  0.9102
   20MOL0     H 2623   2.783   2.500   6.938  1.6129 -0.3432 -0.8095
   20MOL0     H 2624   2.441   2.761   7.221  2.8872 -1.8217 -0.7220
   20MOL0     H 2625   2.208   2.788   7.249 -0.1740  0.9488 -1.8580
   20MOL0     H 2626   2.676   2.280   7.850  1.3503 -1.2404 -1.5845
   20MOL0     H 2627   2.873   2.129   7.870  3.1590 -0.2111 -0.2787
   20MOL0     H 2628   3.225   1.832   7.917 -2.1464  2.5011 -1.7926
   20MOL0     H 2629   3.458   1.747   7.909  0.3557  0.6746  0.8649
   20MOL0     H 2630   3.699   1.738   7.828 -0.9510  1.4812 -1.2251
   20MOL0     H 2631   3.701   1.720   8.009  2.6859  0.2543  1.2030
   20MOL0     H 2632   3.917   1.868   7.831 -0.3347  1.9571  0.8831
   20MOL0     H 2633   3.944   1.831   7.992  2.1707  1.4962 -2.0485
   20MOL0     H 2634   3.906   1.618   7.783 -1.0605 -1.2012  0.6723
   20MOL0     H 2635   3.906   1.588   7.954 -0.5549 -1.4355 -0.9167
   20MOL0     H 2636   4.131   1.720   7.800 -2.8120 -0.2613 -1.1785
   20MOL0     H 2637   4.132   1.693   7.972  0.6534  0.1281 -0.1137
   20MOL0     H 2638   4.167   1.281   7.809  0.8704 -0.0445 -0.5765
   20MOL0     H 2639   3.602   2.146   7.903 -2.7237  4.3527 -0.9896
   20MOL0     H 2640   3.380   2.235   7.878  0.0942 -0.6003 -0.1495
   21MOL0     O 2641  11.134   8.806   6.665  0.3197 -0.5631 -0.1832
   21MOL0     C 2642  11.160   8.781   6.786 -0.2399  0.3252  0.1624
   21MOL0     O 2643  11.071   8.737   6.878 -0.0223  0.0490 -0.1398
   21MOL0     C 2644  10.935   8.721   6.844 -0.1576  0.1282 -0.2220
   21MOL0     C 2645  10.864   8.806   6.762  1.0785 -0.2462  0.2500
   21MOL0     C 2646  10.733   8.784   6.720 -0.0772  0.5943 -0.0971
   21MOL0     C 2647  10.672   8.664   6.750 -0.6176 -0.1082 -0.7582
   21MOL0     O 2648  10.556   8.610   6.693  0.3191 -0.0519 -0.2126
   21MOL0     C 2649  10.460   8.693   6.626  0.7795 -0.0361 -0.2647
   21MOL0     C 2650  10.327   8.617   6.646 -0.7394 -0.2386 -1.0161
   21MOL0     C 2651  10.337   8.472   6.631 -1.1891  0.3605 -1.0545
   21MOL0     C 2652  10.356   8.420   6.484  0.4991 -0.5848  0.1364
   21MOL0     C 2653  10.338   8.269   6.485 -0.0377  0.0451  0.1724
   21MOL0     C 2654  10.198   8.207   6.508  0.5024  0.0290  0.1021
   21MOL0     C 2655  10.205   8.054   6.496  0.4522  0.3227 -0.4363
   21MOL0     C 2656  10.290   8.002   6.379 -0.8695 -0.7526  0.1626
   21MOL0     N 2657  10.274   7.849   6.372 -0.5065 -0.1862  0.2491
   21MOL0     C 2658  10.302   7.767   6.481 -0.1378 -0.7811  1.1331
   21MOL0     C 2659  10.235   7.655   6.461 -0.8304 -0.7443 -0.4738
   21MOL0     C 2660  10.228   7.546   6.557  0.0406 -0.2777 -0.0971
   21MOL0     C 2661  10.329   7.436   6.520  0.2373 -0.0374 -0.6634
   21MOL0     C 2662  10.452   7.437   6.602 -0.1183 -0.3405  0.0121
   21MOL0     C 2663  10.437   7.408   6.754 -0.3654  0.4756  0.9198
   21MOL0     O 2664  10.434   7.531   6.831 -0.3226  0.0656  0.1725
   21MOL0     C 2665  10.552   7.590   6.881 -0.1037 -0.0739  0.1133
   21MOL0     C 2666  10.682   7.555   6.847 -1.8163  1.1106 -0.6513
   21MOL0     C 2667  10.791   7.632   6.883  0.0044 -0.0560 -0.0001
   21MOL0     C 2668  10.775   7.739   6.970  0.2474 -0.3540 -0.0284
   21MOL0     C 2669  10.893   7.804   7.025  0.4530  0.6528 -0.3986
   21MOL0     O 2670  11.010   7.735   7.014  0.1030 -0.3198  0.4321
   21MOL0     C 2671  11.126   7.779   7.074 -0.2873 -0.7504 -1.3336
   21MOL0     C 2672  11.173   7.909   7.080 -0.2873 -0.0664  0.1534
   21MOL0     C 2673  11.292   7.949   7.136  0.9440  1.2240  0.5349
   21MOL0     C 2674  11.378   7.862   7.199  0.3660  0.4389  0.1374
   21MOL0     O 2675  11.493   7.911   7.250 -0.5339 -0.0029  0.5054
   21MOL0     C 2676  11.600   7.814   7.278  0.1475  0.1608 -0.0915
   21MOL0     C 2677  11.723   7.864   7.214 -0.1980  0.2421  0.7323
   21MOL0     C 2678  11.791   7.982   7.294 -0.3905 -0.4969  0.4634
   21MOL0     C 2679  11.937   8.013   7.266  0.5723 -0.1154 -0.0100
   21MOL0     C 2680  12.031   7.901   7.312 -0.1247  0.3768 -0.1623
   21MOL0     C 2681  12.174   7.961   7.301 -0.4032 -0.1331  0.2010
   21MOL0     C 2682  12.264   7.850   7.362  0.4819 -0.3863  0.6475
   21MOL0     C 2683  12.417   7.857   7.321 -0.2641  0.1144  0.0701
   21MOL0    Cl 2684  12.488   7.990   7.402 -0.1784  0.3679  0.0669
   21MOL0     C 2685  11.324   7.730   7.211 -0.1421  0.1318  0.5024
   21MOL0     C 2686  11.206   7.688   7.143 -0.6146  0.0858 -0.4161
   21MOL0     O 2687  10.875   7.913   7.076  0.3742  0.3680 -0.1736
   21MOL0     C 2688  10.640   7.774   7.000 -0.0776 -0.3078  0.5409
   21MOL0     C 2689  10.528   7.697   6.960  0.5180  0.6302 -0.4660
   21MOL0     N 2690  10.172   7.661   6.338 -0.3391 -0.6778  0.6298
   21MOL0     N 2691  10.201   7.776   6.286 -0.2782  0.0593  0.0999
   21MOL0     C 2692  10.731   8.582   6.848  0.6170 -0.2406  0.2219
   21MOL0     C 2693  10.863   8.611   6.891  0.1866 -0.2076 -0.3937
   21MOL0     C 2694  11.296   8.798   6.842  0.0162 -0.3722  0.9176
   21MOL0     C 2695  11.406   8.830   6.764 -0.0638  0.3855 -0.2082
   21MOL0     C 2696  11.530   8.859   6.824  0.2445  0.4706 -0.4246
   21MOL0     C 2697  11.548   8.843   6.960 -0.8194  0.4866 -0.3071
   21MOL0     O 2698  11.665   8.880   7.018  0.5147  0.2023  0.9900
   21MOL0     C 2699  11.746   8.765   7.053 -0.3567  0.0744 -0.4192
   21MOL0     C 2700  11.825   8.713   6.935  0.4686  0.1353  0.1456
   21MOL0     C 2701  11.937   8.814   6.896  0.7945  0.0414  0.1089
   21MOL0     C 2702  12.033   8.787   6.781  0.2667  0.6387  0.1601
   21MOL0     C 2703  12.116   8.669   6.807  0.3756  0.0254  0.7238
   21MOL0     C 2704  12.161   8.561   6.846 -0.1932 -1.1332 -0.4362
   21MOL0     C 2705  11.436   8.808   7.038  0.6084 -0.2227 -0.3481
   21MOL0     C 2706  11.316   8.779   6.985  0.0561 -0.2694  0.8185
   21MOL0     H 2707  10.914   8.894   6.722 -0.9287  0.9779  0.2638
   21MOL0     H 2708  10.677   8.845   6.649 -0.1704  1.3973  0.6542
   21MOL0     H 2709  10.485   8.669   6.522  0.1791 -0.7566 -0.2533
   21MOL0     H 2710  10.460   8.801   6.639  1.0732  0.0266 -0.7474
   21MOL0     H 2711  10.256   8.654   6.573  1.4891  3.6168 -1.5064
   21MOL0     H 2712  10.295   8.642   6.748 -0.7683  0.5645 -1.2183
   21MOL0     H 2713  10.243   8.428   6.666  0.7945 -2.1370  1.5474
   21MOL0     H 2714  10.418   8.438   6.696 -3.0352  0.2090  1.2990
   21MOL0     H 2715  10.290   8.472   6.414 -0.0934 -0.7203  0.5792
   21MOL0     H 2716  10.453   8.458   6.452  0.4093  0.7866  1.4050
   21MOL0     H 2717  10.406   8.225   6.559 -0.1177 -3.1774 -1.4868
   21MOL0     H 2718  10.375   8.229   6.391  0.9248 -0.8487  0.9014
   21MOL0     H 2719  10.124   8.252   6.440  0.0429 -0.0448  0.5471
   21MOL0     H 2720  10.165   8.225   6.610 -3.4991 -4.5565  0.0386
   21MOL0     H 2721  10.232   8.021   6.596 -1.9101  2.5510  1.0735
   21MOL0     H 2722  10.105   8.021   6.466 -0.8162  1.2378  2.4161
   21MOL0     H 2723  10.393   8.037   6.365 -1.5590  1.8026  0.9870
   21MOL0     H 2724  10.241   8.046   6.292  1.3791 -0.2639 -0.9311
   21MOL0     H 2725  10.353   7.796   6.573  1.6349 -0.5231  0.1031
   21MOL0     H 2726  10.129   7.501   6.552 -0.1346 -0.1911  1.8402
   21MOL0     H 2727  10.244   7.585   6.658 -2.2416 -0.8948  0.5715
   21MOL0     H 2728  10.363   7.442   6.417  0.1802 -3.1346 -0.9357
   21MOL0     H 2729  10.275   7.342   6.531 -0.8546  0.4627 -1.6023
   21MOL0     H 2730  10.513   7.359   6.555 -1.4163  0.2633 -2.9074
   21MOL0     H 2731  10.497   7.536   6.588 -2.0393  0.5630 -0.0353
   21MOL0     H 2732  10.519   7.341   6.779  0.2079  0.1481 -1.6315
   21MOL0     H 2733  10.340   7.359   6.764 -1.0039  1.3398 -0.7240
   21MOL0     H 2734  10.709   7.468   6.787 -2.8803 -0.4379  1.0134
   21MOL0     H 2735  10.886   7.591   6.850  0.7448 -1.0249  2.9985
   21MOL0     H 2736  11.111   7.983   7.031  2.0175  0.5368 -2.1346
   21MOL0     H 2737  11.303   8.057   7.129 -0.4791  1.4215  1.0696
   21MOL0     H 2738  11.566   7.718   7.237  0.1477  1.5139 -3.6235
   21MOL0     H 2739  11.615   7.804   7.386  2.0332  1.8926 -0.1337
   21MOL0     H 2740  11.695   7.909   7.119 -2.1677  0.2964  1.2844
   21MOL0     H 2741  11.791   7.780   7.201 -2.0014 -1.4541  1.7130
   21MOL0     H 2742  11.790   7.961   7.401 -3.7411 -2.0571  0.2519
   21MOL0     H 2743  11.740   8.076   7.271  1.2281  0.2070 -0.3892
   21MOL0     H 2744  11.957   8.020   7.159 -1.3040  1.7997 -0.3125
   21MOL0     H 2745  11.971   8.108   7.309  2.3817 -0.6028 -0.2806
   21MOL0     H 2746  12.021   7.824   7.235  2.1329 -1.2690  1.0797
   21MOL0     H 2747  12.010   7.862   7.412  3.1326  1.3152  0.9986
   21MOL0     H 2748  12.194   8.042   7.372  2.8565 -0.6511  0.0365
   21MOL0     H 2749  12.203   7.987   7.199 -2.4707  1.6477 -0.0147
   21MOL0     H 2750  12.265   7.870   7.469 -0.1598  3.0182  0.1140
   21MOL0     H 2751  12.210   7.756   7.347 -0.7358  0.1932  1.2717
   21MOL0     H 2752  12.413   7.868   7.212 -2.5192 -1.2808 -0.0494
   21MOL0     H 2753  12.464   7.759   7.338  0.8849  0.2255 -2.0533
   21MOL0     H 2754  11.387   7.659   7.263  2.1491  0.3882 -1.7394
   21MOL0     H 2755  11.167   7.587   7.140  0.4571 -0.3300 -0.6960
   21MOL0     H 2756  10.639   7.864   7.060  1.1519 -0.9387  1.5639
   21MOL0     H 2757  10.430   7.718   7.000  0.9665  1.4145  0.2615
   21MOL0     H 2758  10.682   8.492   6.884  1.4746 -2.7729 -4.1857
   21MOL0     H 2759  10.909   8.536   6.955 -0.2426 -2.1659 -2.2536
   21MOL0     H 2760  11.395   8.847   6.657 -0.9576 -0.3720 -0.2550
   21MOL0     H 2761  11.612   8.879   6.757  1.0940  1.5723  0.8974
   21MOL0     H 2762  11.683   8.687   7.098  2.0236  0.5594  4.3275
   21MOL0     H 2763  11.811   8.795   7.136 -3.5614  0.3216  2.2260
   21MOL0     H 2764  11.875   8.621   6.967 -1.1567 -1.0976 -0.7499
   21MOL0     H 2765  11.757   8.689   6.853  1.2088  1.0317 -0.7624
   21MOL0     H 2766  12.005   8.826   6.981  3.7349 -0.3823 -2.0203
   21MOL0     H 2767  11.891   8.909   6.868  0.0893 -0.8491 -1.9643
   21MOL0     H 2768  11.977   8.761   6.691  2.0008  0.8309 -1.0245
   21MOL0     H 2769  12.087   8.881   6.770  0.8881  0.6430  2.5718
   21MOL0     H 2770  12.203   8.467   6.877 -2.4325 -2.9901 -2.5394
   21MOL0     H 2771  11.451   8.800   7.145  0.4328 -1.9772 -0.4148
   21MOL0     H 2772  11.246   8.748   7.062 -2.0779  0.6903 -0.6517
   22MOL0     O 2773   1.761   0.852   2.886  0.0570 -0.3934 -0.5886
   22MOL0     C 2774   1.811   0.966   2.897 -0.6799 -0.5342  0.2218
   22MOL0     O 2775   1.752   1.085   2.930  0.2851 -0.1697 -0.2656
   22MOL0     C 2776   1.613   1.075   2.943  0.5564  0.5254  0.2234
   22MOL0     C 2777   1.529   1.144   2.856 -0.8475 -0.3420 -0.6270
   22MOL0     C 2778   1.396   1.163   2.883 -0.1775  0.3250  0.5732
   22MOL0     C 2779   1.330   1.106   2.992  0.5916  0.4652  0.3270
   22MOL0     O 2780   1.196   1.126   3.007  0.8957 -0.0203  0.9242
   22MOL0     C 2781   1.127   1.070   3.122 -0.2537 -0.7637 -0.1078
   22MOL0     C 2782   1.148   1.142   3.254  0.1702  0.5549  0.1697
   22MOL0     C 2783   1.077   1.075   3.378  0.6336 -0.1735 -0.6005
   22MOL0     C 2784   1.061   1.168   3.496  0.3333  0.1386 -0.2273
   22MOL0     C 2785   1.020   1.091   3.627 -0.2188 -0.2980  0.5217
   22MOL0     C 2786   0.887   1.015   3.636  0.8475  0.4872  0.6932
   22MOL0     C 2787   0.843   0.966   3.771  0.7382  0.0477  0.6124
   22MOL0     C 2788   0.721   0.875   3.784  0.0605  0.2245  0.4624
   22MOL0     N 2789   0.608   0.923   3.871  0.6041 -0.1007  0.5948
   22MOL0     C 2790   0.482   0.967   3.829 -0.4433  0.2621  0.0050
   22MOL0     C 2791   0.420   1.007   3.941  0.2388 -0.2718 -0.2626
   22MOL0     C 2792   0.281   1.073   3.945 -0.9890  0.6806 -0.9483
   22MOL0     C 2793   0.159   0.986   3.996 -0.0274  0.2839 -0.4855
   22MOL0     C 2794   0.115   0.873   3.905 -0.0181 -0.6252  0.0827
   22MOL0     C 2795   0.024   0.772   3.981  0.0367  0.6153 -0.8526
   22MOL0     O 2796  -0.079   0.832   4.061 -0.5335  0.5529  0.3128
   22MOL0     C 2797  -0.192   0.750   4.058  0.3059 -0.1301  0.0155
   22MOL0     C 2798  -0.178   0.617   4.098 -0.1195  0.8660 -0.9346
   22MOL0     C 2799  -0.296   0.537   4.114 -1.2256  0.0547 -0.7697
   22MOL0     C 2800  -0.420   0.590   4.083  0.1472 -0.1978  0.0397
   22MOL0     C 2801  -0.539   0.509   4.081  0.0655 -0.0082 -0.6266
   22MOL0     O 2802  -0.664   0.577   4.067  0.1293  0.0135  0.3051
   22MOL0     C 2803  -0.762   0.483   4.074 -0.0793  0.4876 -0.4157
   22MOL0     C 2804  -0.782   0.384   3.975 -0.1655 -1.4628  0.2547
   22MOL0     C 2805  -0.880   0.289   3.985 -0.6367  0.4123 -0.4549
   22MOL0     C 2806  -0.961   0.284   4.095 -0.7381 -0.1325 -0.5096
   22MOL0     O 2807  -1.037   0.179   4.133  0.2620  0.7267 -0.1356
   22MOL0     C 2808  -1.011   0.057   4.065 -0.5792 -0.1305 -0.3920
   22MOL0     C 2809  -1.141  -0.031   4.083  0.1001 -0.0770  0.1716
   22MOL0     C 2810  -1.167  -0.083   4.219 -0.3349 -0.4674  0.3218
   22MOL0     C 2811  -1.292  -0.161   4.246  0.3156 -0.3313 -0.1448
   22MOL0     C 2812  -1.304  -0.291   4.176 -0.9420  0.3701  0.9096
   22MOL0     C 2813  -1.411  -0.377   4.229 -0.0427  0.2257  0.2373
   22MOL0     C 2814  -1.441  -0.502   4.144 -0.4929 -0.3916 -0.3708
   22MOL0     C 2815  -1.532  -0.596   4.220  0.1747 -1.1989  0.0606
   22MOL0    Cl 2816  -1.709  -0.555   4.209 -0.0798 -0.5000 -0.4020
   22MOL0     C 2817  -0.948   0.381   4.191  0.7412  0.2160  0.1663
   22MOL0     C 2818  -0.850   0.481   4.181  0.1221 -0.1582 -0.1111
   22MOL0     O 2819  -0.520   0.397   4.122 -0.0217 -1.1187  0.3994
   22MOL0     C 2820  -0.429   0.724   4.022  0.4804 -0.0634 -0.0356
   22MOL0     C 2821  -0.320   0.805   4.035 -1.0453  0.8511  0.3557
   22MOL0     N 2822   0.494   0.969   4.051 -0.3511  0.7957 -0.2723
   22MOL0     N 2823   0.603   0.915   4.010  0.0550  0.3728  0.5564
   22MOL0     C 2824   1.421   1.028   3.079 -0.0250  0.5385  0.8395
   22MOL0     C 2825   1.565   1.016   3.053 -0.5644  0.0632 -0.6945
   22MOL0     C 2826   1.962   0.991   2.885  0.1447  0.9757 -0.2434
   22MOL0     C 2827   2.026   1.112   2.894 -0.0298  0.3841 -0.4453
   22MOL0     C 2828   2.157   1.136   2.873 -0.2886  0.0772  0.3108
   22MOL0     C 2829   2.248   1.031   2.840 -0.2924 -0.3098  0.2984
   22MOL0     O 2830   2.386   1.031   2.848 -0.2542  0.4630 -0.1826
   22MOL0     C 2831   2.466   1.148   2.827  0.1766  0.1934  0.3166
   22MOL0     C 2832   2.508   1.212   2.964 -0.9962 -0.7562 -0.4960
   22MOL0     C 2833   2.611   1.332   2.957  0.8228  1.4921  0.0551
   22MOL0     C 2834   2.758   1.305   2.924  1.4955  0.3628  0.2030
   22MOL0     C 2835   2.832   1.415   2.986 -0.2277 -0.5339 -0.6950
   22MOL0     C 2836   2.902   1.502   3.038 -0.4076  0.4711 -0.4004
   22MOL0     C 2837   2.189   0.907   2.816 -0.0147  0.2558  0.1585
   22MOL0     C 2838   2.048   0.892   2.833 -0.0987  0.5907  0.0512
   22MOL0     H 2839   1.574   1.201   2.775 -1.6416  2.8319  0.9806
   22MOL0     H 2840   1.339   1.222   2.812 -1.5079 -0.2267  1.1592
   22MOL0     H 2841   1.151   0.963   3.130 -0.0386 -0.6428  0.9001
   22MOL0     H 2842   1.018   1.067   3.110 -0.3406 -2.2888  0.7647
   22MOL0     H 2843   1.108   1.244   3.240 -1.3094  0.0046  0.1508
   22MOL0     H 2844   1.255   1.154   3.271 -0.1543  0.6808  2.3276
   22MOL0     H 2845   1.132   0.983   3.400  1.2095  0.7073  2.0039
   22MOL0     H 2846   0.982   1.035   3.341  1.5477 -0.9642 -2.1697
   22MOL0     H 2847   1.155   1.222   3.512  0.5558 -0.2324 -0.2803
   22MOL0     H 2848   0.982   1.242   3.479  0.1379 -0.0576 -0.1782
   22MOL0     H 2849   1.015   1.169   3.703  0.2938 -0.6734  0.9524
   22MOL0     H 2850   1.105   1.027   3.654  1.5868  1.2800 -1.0756
   22MOL0     H 2851   0.904   0.925   3.575  4.5118  0.4103  1.6230
   22MOL0     H 2852   0.799   1.073   3.608 -0.5848 -1.4419  0.9500
   22MOL0     H 2853   0.921   0.907   3.818  0.4566  0.8840  2.2039
   22MOL0     H 2854   0.821   1.054   3.833 -0.2100 -0.4294  0.9706
   22MOL0     H 2855   0.744   0.774   3.820 -1.4156 -0.5514 -0.6808
   22MOL0     H 2856   0.678   0.868   3.684  2.1212 -0.4474 -0.4348
   22MOL0     H 2857   0.446   0.966   3.727  0.7042  0.6546 -0.4237
   22MOL0     H 2858   0.265   1.110   3.843 -1.1710  3.1043 -0.1097
   22MOL0     H 2859   0.285   1.161   4.010 -0.9746 -2.6257  4.0573
   22MOL0     H 2860   0.074   1.053   4.011  2.1102  3.6347 -1.9691
   22MOL0     H 2861   0.190   0.935   4.087  3.1360  1.2578 -0.8658
   22MOL0     H 2862   0.056   0.914   3.823 -1.1864  0.0826  1.2380
   22MOL0     H 2863   0.208   0.826   3.870  0.1497 -0.9804  0.9618
   22MOL0     H 2864   0.083   0.693   4.028 -1.3584 -0.7324 -1.2558
   22MOL0     H 2865  -0.025   0.708   3.907 -0.0592 -1.1671  0.6669
   22MOL0     H 2866  -0.080   0.585   4.131 -0.8805 -1.0188 -0.3813
   22MOL0     H 2867  -0.282   0.437   4.154 -0.0888  0.6596  0.4154
   22MOL0     H 2868  -0.721   0.380   3.885  2.1400 -3.0264  1.7696
   22MOL0     H 2869  -0.880   0.223   3.899  1.4999  0.7792 -0.7912
   22MOL0     H 2870  -0.915   0.015   4.095 -0.2727  0.3036 -0.7413
   22MOL0     H 2871  -1.003   0.071   3.956  3.6287 -1.0877 -0.3754
   22MOL0     H 2872  -1.132  -0.121   4.022  0.0905 -1.8748  2.6464
   22MOL0     H 2873  -1.226   0.032   4.060  0.0965 -0.0019  0.3862
   22MOL0     H 2874  -1.178   0.002   4.288  1.2410 -1.2337  1.5773
   22MOL0     H 2875  -1.085  -0.146   4.253 -1.3922 -0.5874  2.9530
   22MOL0     H 2876  -1.279  -0.190   4.351 -0.5533  0.2157  0.1264
   22MOL0     H 2877  -1.390  -0.114   4.235 -0.0106 -0.8047  0.6082
   22MOL0     H 2878  -1.207  -0.341   4.174 -1.8300 -1.4065  0.0949
   22MOL0     H 2879  -1.323  -0.254   4.075  0.1950  0.5871  0.7648
   22MOL0     H 2880  -1.509  -0.329   4.229 -0.5395 -0.6819 -1.5566
   22MOL0     H 2881  -1.383  -0.404   4.331 -2.1239 -2.2920  0.2637
   22MOL0     H 2882  -1.499  -0.490   4.052  0.2887 -3.7524 -1.4586
   22MOL0     H 2883  -1.342  -0.539   4.117  0.5863  2.8603 -1.3027
   22MOL0     H 2884  -1.505  -0.600   4.326  0.7938  1.9601  0.1172
   22MOL0     H 2885  -1.524  -0.691   4.166  0.5733 -1.6937  0.9709
   22MOL0     H 2886  -1.011   0.368   4.279  0.7976 -5.3067 -0.2737
   22MOL0     H 2887  -0.833   0.547   4.266 -0.3701 -1.2879  0.8808
   22MOL0     H 2888  -0.525   0.768   3.997 -0.5606 -1.9285  0.4818
   22MOL0     H 2889  -0.347   0.909   4.019 -2.1421  0.3626 -1.1330
   22MOL0     H 2890   1.383   0.989   3.172  0.6120 -0.7125  0.5924
   22MOL0     H 2891   1.637   0.979   3.125  0.1416  1.6192 -0.5649
   22MOL0     H 2892   1.967   1.190   2.942 -1.8405 -0.2370 -1.5570
   22MOL0     H 2893   2.199   1.234   2.895  1.9431  0.2461 -3.7116
   22MOL0     H 2894   2.407   1.216   2.765  0.4619  2.8664  2.7905
   22MOL0     H 2895   2.554   1.109   2.774 -0.2391 -1.6723  0.9015
   22MOL0     H 2896   2.412   1.249   3.002 -1.1897 -1.4019 -0.3359
   22MOL0     H 2897   2.563   1.147   3.033  0.7153  2.1985  1.1389
   22MOL0     H 2898   2.607   1.370   3.059 -1.0093 -0.2651  0.7207
   22MOL0     H 2899   2.584   1.415   2.890 -0.4482  1.6423  0.7303
   22MOL0     H 2900   2.795   1.209   2.960  1.2520 -0.1425 -0.8715
   22MOL0     H 2901   2.785   1.300   2.818 -0.8672  1.6762 -0.5182
   22MOL0     H 2902   2.957   1.586   3.075  0.1256  0.0856 -0.3191
   22MOL0     H 2903   2.247   0.817   2.799  0.7425  0.7224  0.2072
   22MOL0     H 2904   2.006   0.795   2.807 -1.0093  0.6451  1.2629
   23MOL0     O 2905  10.630   8.035   6.145 -0.1873  0.1457 -1.0101
   23MOL0     C 2906  10.668   8.090   6.044  1.0835 -0.6099  0.3031
   23MOL0     O 2907  10.593   8.165   5.951 -0.0300 -0.0043 -0.9626
   23MOL0     C 2908  10.455   8.171   5.982  0.6929 -0.3500  0.0124
   23MOL0     C 2909  10.355   8.081   5.928 -0.4336  0.8660 -0.5899
   23MOL0     C 2910  10.223   8.094   5.983 -0.6615  0.0716 -0.1365
   23MOL0     C 2911  10.187   8.202   6.058  0.7229 -0.2551  0.6534
   23MOL0     O 2912  10.055   8.234   6.076  0.0764 -0.1837 -0.0649
   23MOL0     C 2913   9.986   8.134   6.149 -0.1210  0.2643 -0.5829
   23MOL0     C 2914   9.842   8.184   6.178 -0.0481 -0.4239  0.4492
   23MOL0     C 2915   9.744   8.066   6.193 -0.5191  0.3264 -0.4591
   23MOL0     C 2916   9.600   8.109   6.186  0.9193  0.1409  0.5891
   23MOL0     C 2917   9.494   8.005   6.234 -0.2394  0.2847  0.7244
   23MOL0     C 2918   9.496   7.892   6.137  0.4217 -1.1623  0.5894
   23MOL0     C 2919   9.559   7.762   6.193  0.2962 -0.4310 -0.8507
   23MOL0     C 2920   9.539   7.653   6.101 -0.1340 -0.4926  0.2738
   23MOL0     N 2921   9.404   7.604   6.075  0.3699 -0.1737 -0.0248
   23MOL0     C 2922   9.339   7.499   6.144 -0.7722 -0.4780  0.4217
   23MOL0     C 2923   9.207   7.500   6.102 -0.0348 -0.7034 -0.2714
   23MOL0     C 2924   9.104   7.410   6.150  0.1043  0.2769  0.5867
   23MOL0     C 2925   8.973   7.410   6.062 -0.1657 -0.2993  0.5463
   23MOL0     C 2926   8.898   7.275   6.086 -0.2002  0.3092  0.1648
   23MOL0     C 2927   8.827   7.289   6.215 -0.1033 -1.0242  0.4543
   23MOL0     O 2928   8.750   7.171   6.245 -0.3097  0.0767  0.5181
   23MOL0     C 2929   8.621   7.156   6.197  0.7080 -0.9005  0.0870
   23MOL0     C 2930   8.539   7.058   6.260 -0.2754 -0.4235 -0.5720
   23MOL0     C 2931   8.410   7.030   6.213  0.4149 -1.1206 -0.4546
   23MOL0     C 2932   8.351   7.110   6.109  0.2015  0.4804  0.4431
   23MOL0     C 2933   8.218   7.075   6.048  1.0165 -0.3340 -0.4816
   23MOL0     O 2934   8.154   6.967   6.114  0.4058 -0.3607  0.6550
   23MOL0     C 2935   8.018   6.941   6.113 -0.4314  0.3342  1.0854
   23MOL0     C 2936   7.921   7.034   6.075 -0.7898 -0.0581  0.4805
   23MOL0     C 2937   7.784   7.003   6.085 -0.0157 -0.1218 -0.1111
   23MOL0     C 2938   7.745   6.873   6.138  0.1726 -0.4683 -0.0573
   23MOL0     O 2939   7.618   6.824   6.145 -0.3875 -0.4867 -0.3958
   23MOL0     C 2940   7.511   6.908   6.100  0.1909 -0.1704  0.0817
   23MOL0     C 2941   7.373   6.840   6.139 -0.5441 -0.3295  0.3878
   23MOL0     C 2942   7.347   6.697   6.077 -0.8779 -0.2696 -0.6920
   23MOL0     C 2943   7.257   6.690   5.957  0.8544 -0.2188  0.6369
   23MOL0     C 2944   7.189   6.551   5.937  0.3985 -0.2271 -0.1143
   23MOL0     C 2945   7.095   6.530   5.817  0.8863 -0.1467  0.1154
   23MOL0     C 2946   6.973   6.621   5.810 -0.7768 -0.6815 -0.4811
   23MOL0     C 2947   6.878   6.578   5.695  0.4651 -0.2037  0.0041
   23MOL0    Cl 2948   6.758   6.717   5.646  0.1567  0.1968  0.0195
   23MOL0     C 2949   7.843   6.790   6.184  0.6063 -0.0035 -0.2198
   23MOL0     C 2950   7.977   6.823   6.170 -1.0007  0.4957 -0.0806
   23MOL0     O 2951   8.180   7.124   5.944 -0.8719 -0.0726  0.5515
   23MOL0     C 2952   8.425   7.210   6.056 -0.5904  0.0174  0.2583
   23MOL0     C 2953   8.554   7.238   6.102 -0.0996  0.4457 -0.1844
   23MOL0     N 2954   9.199   7.604   6.008 -0.1903  0.7010 -0.0322
   23MOL0     N 2955   9.314   7.654   5.984 -0.7471 -0.1879 -0.6927
   23MOL0     C 2956  10.284   8.290   6.106  0.7455 -0.6912  0.5638
   23MOL0     C 2957  10.416   8.269   6.074 -0.3193  0.1698  0.0140
   23MOL0     C 2958  10.810   8.090   6.024 -0.7917  0.1625 -0.2828
   23MOL0     C 2959  10.860   8.162   5.916  0.1984  0.2461  0.3619
   23MOL0     C 2960  10.995   8.145   5.875  0.1137  1.0506 -0.0173
   23MOL0     C 2961  11.085   8.083   5.962  0.1412 -0.2088 -0.3607
   23MOL0     O 2962  11.222   8.084   5.948  0.0327  0.0135 -0.4202
   23MOL0     C 2963  11.293   8.133   5.834 -0.3974  0.4148 -0.7738
   23MOL0     C 2964  11.445   8.114   5.833 -0.6445  0.0372 -0.7392
   23MOL0     C 2965  11.508   8.205   5.942 -0.0073  0.1926 -0.2145
   23MOL0     C 2966  11.661   8.183   5.960  0.4083  0.3739 -0.2006
   23MOL0     C 2967  11.721   8.248   6.080  0.0016  0.4557 -0.7064
   23MOL0     C 2968  11.772   8.302   6.182  0.2746  0.6249 -0.1426
   23MOL0     C 2969  11.035   8.023   6.075 -0.7037 -0.3740 -1.0966
   23MOL0     C 2970  10.898   8.016   6.102 -0.6039  0.4963  0.8346
   23MOL0     H 2971  10.395   8.000   5.868 -2.4664 -2.6301  2.2838
   23MOL0     H 2972  10.158   8.019   5.938 -0.1617 -0.0333 -0.6998
   23MOL0     H 2973  10.046   8.114   6.238  0.2026 -2.3921 -1.3277
   23MOL0     H 2974   9.989   8.048   6.081 -3.4321 -0.1591 -0.3423
   23MOL0     H 2975   9.822   8.254   6.096  5.4702 -0.1789 -1.1235
   23MOL0     H 2976   9.842   8.240   6.272  2.3236 -3.1886  2.2454
   23MOL0     H 2977   9.762   8.027   6.294  0.8625  1.3555 -0.2844
   23MOL0     H 2978   9.762   7.987   6.121 -0.7118  0.3862 -0.5749
   23MOL0     H 2979   9.582   8.204   6.238  1.3100  0.0686  0.8557
   23MOL0     H 2980   9.592   8.127   6.078  2.5959  1.0082  0.5687
   23MOL0     H 2981   9.399   8.056   6.249 -0.1191  1.6942 -2.4152
   23MOL0     H 2982   9.515   7.973   6.336 -1.0375  1.3547  1.2409
   23MOL0     H 2983   9.547   7.921   6.044 -0.3062  3.3095  1.3585
   23MOL0     H 2984   9.391   7.870   6.117  0.2188 -1.0055  1.4488
   23MOL0     H 2985   9.665   7.791   6.194  0.5573 -0.4192 -5.5997
   23MOL0     H 2986   9.504   7.743   6.286 -0.5107  3.1288 -0.4620
   23MOL0     H 2987   9.602   7.570   6.133 -0.6371 -0.5919  1.0360
   23MOL0     H 2988   9.579   7.685   6.004  0.8185 -1.5286  0.3089
   23MOL0     H 2989   9.378   7.426   6.215 -0.6176 -0.6214  0.1913
   23MOL0     H 2990   9.083   7.425   6.257  1.2701 -0.0424  0.8701
   23MOL0     H 2991   9.147   7.310   6.149 -1.5178 -0.5677  3.2923
   23MOL0     H 2992   9.002   7.416   5.956 -4.3972 -0.3196 -0.7778
   23MOL0     H 2993   8.917   7.501   6.087  1.4697  0.2157  2.6969
   23MOL0     H 2994   8.843   7.238   5.999  1.3679 -0.8026 -0.3921
   23MOL0     H 2995   8.970   7.193   6.097 -0.8943 -0.1744  1.4106
   23MOL0     H 2996   8.760   7.375   6.214  2.8741  1.5021 -0.6531
   23MOL0     H 2997   8.908   7.297   6.289  0.0200 -4.1868  0.7919
   23MOL0     H 2998   8.568   6.999   6.346  1.1957  2.6396  1.1841
   23MOL0     H 2999   8.354   6.946   6.252 -1.0150  0.7822  1.8514
   23MOL0     H 3000   7.948   7.134   6.042  6.2001 -1.1834  1.2097
   23MOL0     H 3001   7.703   7.069   6.055 -1.8863 -1.6554  1.3197
   23MOL0     H 3002   7.518   6.923   5.991  1.3078  0.0452  0.1768
   23MOL0     H 3003   7.510   7.007   6.146  0.4554 -0.4987  0.8074
   23MOL0     H 3004   7.303   6.912   6.095  2.0528  1.2941 -1.3762
   23MOL0     H 3005   7.358   6.822   6.246  2.9227 -1.3599  0.8200
   23MOL0     H 3006   7.310   6.638   6.161  1.0774  2.4862  2.3537
   23MOL0     H 3007   7.445   6.656   6.049 -0.0669  0.4193  0.9975
   23MOL0     H 3008   7.181   6.769   5.950  0.1043 -0.9232  0.6801
   23MOL0     H 3009   7.328   6.704   5.874  1.9760 -0.9499  1.4559
   23MOL0     H 3010   7.128   6.534   6.026 -0.2485  1.0718 -0.2884
   23MOL0     H 3011   7.261   6.469   5.931  0.9730  0.0812  1.8474
   23MOL0     H 3012   7.047   6.432   5.825  0.9514 -0.0705  2.0341
   23MOL0     H 3013   7.146   6.545   5.721  0.7760  0.5363  0.1577
   23MOL0     H 3014   6.920   6.619   5.906 -0.6172  1.3084 -0.3087
   23MOL0     H 3015   7.008   6.723   5.791  0.6350 -1.4228 -2.0802
   23MOL0     H 3016   6.820   6.490   5.727 -0.9651  1.0612  1.0514
   23MOL0     H 3017   6.937   6.562   5.605  2.1237  2.8014  0.4340
   23MOL0     H 3018   7.827   6.689   6.220  2.3974 -0.9620 -1.9036
   23MOL0     H 3019   8.049   6.749   6.206 -2.3348 -0.6308  0.3560
   23MOL0     H 3020   8.390   7.280   5.981  0.0611 -0.4525 -0.4963
   23MOL0     H 3021   8.617   7.321   6.070  2.7121 -1.6164 -0.3657
   23MOL0     H 3022  10.248   8.367   6.173  3.7551 -1.8025  3.7476
   23MOL0     H 3023  10.495   8.325   6.122  0.9045 -0.4850 -1.1422
   23MOL0     H 3024  10.800   8.226   5.854  0.3624 -0.4154 -0.4997
   23MOL0     H 3025  11.030   8.176   5.777  1.1336  2.7315  0.8275
   23MOL0     H 3026  11.273   8.240   5.828  0.9636  0.6548 -1.4593
   23MOL0     H 3027  11.248   8.096   5.741  2.3483  0.0353 -2.0660
   23MOL0     H 3028  11.466   8.008   5.846  0.6561  0.2598 -0.8743
   23MOL0     H 3029  11.498   8.139   5.740  1.4780 -1.4521 -0.0011
   23MOL0     H 3030  11.456   8.185   6.036  3.5395  0.6552  2.0177
   23MOL0     H 3031  11.490   8.307   5.908  0.4200  0.0995 -0.7222
   23MOL0     H 3032  11.685   8.077   5.954 -2.3686 -0.3319  0.0982
   23MOL0     H 3033  11.719   8.224   5.876  0.6329  1.8081  0.6193
   23MOL0     H 3034  11.804   8.357   6.268 -1.9917 -1.1053  1.9697
   23MOL0     H 3035  11.109   7.977   6.140  1.0697  0.0723 -2.7230
   23MOL0     H 3036  10.861   7.952   6.182  1.2852 -1.9367 -0.1240
   24MOL0     O 3037   3.462   9.400   4.039 -0.1649  0.2451 -0.4303
   24MOL0     C 3038   3.387   9.491   4.085 -0.2102  0.3395 -0.1689
   24MOL0     O 3039   3.250   9.474   4.096 -0.0475 -1.0210 -0.0192
   24MOL0     C 3040   3.185   9.367   4.044  0.0412  0.2617  0.0473
   24MOL0     C 3041   3.194   9.335   3.911  0.1414  0.5558 -0.2742
   24MOL0     C 3042   3.120   9.223   3.860  1.1449 -0.2007  1.6104
   24MOL0     C 3043   3.029   9.154   3.937 -0.0163  0.8938 -0.4764
   24MOL0     O 3044   2.981   9.040   3.876 -0.2217 -0.3724 -0.3613
   24MOL0     C 3045   2.932   8.941   3.964  0.9113 -0.1967 -0.7381
   24MOL0     C 3046   2.875   8.826   3.872 -0.8571  0.0470 -0.8171
   24MOL0     C 3047   2.773   8.886   3.781  0.0057 -0.1845  0.4209
   24MOL0     C 3048   2.739   8.790   3.673 -0.6342  0.8468  0.1193
   24MOL0     C 3049   2.619   8.833   3.601 -0.5529  0.6329  0.0510
   24MOL0     C 3050   2.562   8.720   3.510 -0.4936  0.1116  0.2286
   24MOL0     C 3051   2.450   8.627   3.566  0.5356  0.1549  0.3220
   24MOL0     C 3052   2.485   8.534   3.687  0.0512 -0.0416 -0.1241
   24MOL0     N 3053   2.360   8.458   3.724  0.4160  0.2984  0.5055
   24MOL0     C 3054   2.282   8.381   3.640  0.1354  0.3561 -0.0181
   24MOL0     C 3055   2.174   8.356   3.718  0.6741 -0.1812 -0.5711
   24MOL0     C 3056   2.061   8.273   3.658 -0.8887 -0.0988 -0.3237
   24MOL0     C 3057   2.016   8.298   3.516 -0.5725 -0.3482  0.3862
   24MOL0     C 3058   1.903   8.201   3.495  0.4954 -0.7921  0.0736
   24MOL0     C 3059   1.855   8.206   3.353  0.3303 -0.4513 -0.1974
   24MOL0     O 3060   1.804   8.340   3.336 -0.1112 -0.0640 -0.5532
   24MOL0     C 3061   1.714   8.339   3.239  0.2502  0.0248  0.3158
   24MOL0     C 3062   1.749   8.295   3.115  0.4712 -0.5162  0.4734
   24MOL0     C 3063   1.648   8.263   3.023  0.4568 -0.5483 -0.5177
   24MOL0     C 3064   1.515   8.293   3.049 -0.1080  0.0454 -0.8370
   24MOL0     C 3065   1.411   8.274   2.946 -0.0508  1.2576 -0.1688
   24MOL0     O 3066   1.449   8.194   2.840  0.8370 -0.5563  0.3751
   24MOL0     C 3067   1.371   8.197   2.724 -0.7698  0.8379  0.1430
   24MOL0     C 3068   1.234   8.196   2.713  0.8409  0.5915  0.0662
   24MOL0     C 3069   1.164   8.192   2.595 -1.0007 -0.4733  0.0366
   24MOL0     C 3070   1.237   8.207   2.476  0.0272  0.8299  0.0050
   24MOL0     O 3071   1.157   8.210   2.365 -0.1762 -0.5481  0.3585
   24MOL0     C 3072   1.186   8.141   2.246 -0.2819  0.8591  0.0207
   24MOL0     C 3073   1.074   8.035   2.215 -0.3017  0.5073  0.0307
   24MOL0     C 3074   0.930   8.089   2.208  0.3600 -0.5547 -0.8577
   24MOL0     C 3075   0.829   7.975   2.168 -0.8724 -0.4357  0.1882
   24MOL0     C 3076   0.680   8.001   2.173  0.3381 -0.4970  0.1448
   24MOL0     C 3077   0.627   8.052   2.306  0.2601  0.0886 -0.5894
   24MOL0     C 3078   0.476   8.074   2.299  0.1036  0.6655  0.3741
   24MOL0     C 3079   0.423   8.135   2.430 -0.1823 -0.5008 -0.2543
   24MOL0    Cl 3080   0.264   8.168   2.449  0.1898 -0.0033 -0.4549
   24MOL0     C 3081   1.378   8.207   2.479  0.1709 -0.7366 -1.1664
   24MOL0     C 3082   1.438   8.205   2.602  0.3999  0.3403  0.0934
   24MOL0     O 3083   1.308   8.338   2.965  0.1849  0.3863 -0.4375
   24MOL0     C 3084   1.485   8.343   3.178 -0.0386 -0.2049 -0.1215
   24MOL0     C 3085   1.580   8.358   3.272 -0.3251 -0.8278  0.5427
   24MOL0     N 3086   2.182   8.405   3.841 -0.0783 -0.4018  0.4073
   24MOL0     N 3087   2.288   8.471   3.839  0.1117  0.1028  0.5002
   24MOL0     C 3088   3.021   9.188   4.079 -0.2677 -0.5889  0.8584
   24MOL0     C 3089   3.092   9.293   4.130 -0.6776 -0.4524 -0.0289
   24MOL0     C 3090   3.453   9.615   4.119  0.3642  0.7327 -0.8710
   24MOL0     C 3091   3.592   9.633   4.117 -0.1958  0.2168 -0.2867
   24MOL0     C 3092   3.657   9.754   4.155  0.0665 -0.3659  0.1333
   24MOL0     C 3093   3.576   9.861   4.194 -0.2493 -0.6356 -0.2743
   24MOL0     O 3094   3.637   9.976   4.224 -0.9814  0.3453  0.2708
   24MOL0     C 3095   3.588  10.105   4.209  0.2646 -0.1099  0.7647
   24MOL0     C 3096   3.677  10.199   4.115  0.1045  1.0173  0.5773
   24MOL0     C 3097   3.814  10.217   4.189 -0.5139 -1.6524 -0.0788
   24MOL0     C 3098   3.887  10.345   4.146 -0.3410 -0.0552 -0.2721
   24MOL0     C 3099   3.908  10.358   4.003 -0.7407  0.5116  0.6400
   24MOL0     C 3100   3.913  10.370   3.881 -0.0730  0.3325  0.1278
   24MOL0     C 3101   3.432   9.851   4.200 -0.7486 -0.3912 -0.5285
   24MOL0     C 3102   3.375   9.733   4.166  0.2480 -0.4047 -0.6150
   24MOL0     H 3103   3.281   9.376   3.862  0.5923 -1.4766 -1.2648
   24MOL0     H 3104   3.136   9.201   3.755 -1.7619  1.5851  0.6793
   24MOL0     H 3105   2.846   8.970   4.024  1.3422 -2.2485  0.9767
   24MOL0     H 3106   3.004   8.913   4.042  2.0452  3.6605 -0.2010
   24MOL0     H 3107   2.833   8.734   3.913  1.7560 -2.0615 -2.5341
   24MOL0     H 3108   2.964   8.793   3.816  0.1342  1.3650 -0.0859
   24MOL0     H 3109   2.810   8.977   3.734  0.0807  1.4777  3.4368
   24MOL0     H 3110   2.683   8.902   3.841  0.0647 -1.8433  1.0169
   24MOL0     H 3111   2.821   8.782   3.600  0.2887 -1.2952  1.3251
   24MOL0     H 3112   2.724   8.687   3.706  3.9998 -0.7253 -1.8768
   24MOL0     H 3113   2.641   8.916   3.534  0.2280  1.0524  0.7965
   24MOL0     H 3114   2.541   8.878   3.664 -2.7532  1.2422 -2.9231
   24MOL0     H 3115   2.636   8.644   3.487 -1.3618 -1.0095  1.0407
   24MOL0     H 3116   2.520   8.755   3.415  0.1513 -0.4452 -0.2641
   24MOL0     H 3117   2.365   8.687   3.600  1.7005  0.7157  2.4286
   24MOL0     H 3118   2.403   8.566   3.488 -0.1256  0.2393  0.6406
   24MOL0     H 3119   2.529   8.593   3.768  0.3345  3.6316 -2.7065
   24MOL0     H 3120   2.565   8.467   3.654  2.2482  2.2777  0.1905
   24MOL0     H 3121   2.297   8.347   3.538 -2.8730  0.8027 -0.7081
   24MOL0     H 3122   1.975   8.285   3.725 -1.3200 -0.8076 -0.7307
   24MOL0     H 3123   2.093   8.168   3.663  2.6634  0.8953  0.4160
   24MOL0     H 3124   2.096   8.280   3.443 -0.9619  1.6332 -0.6017
   24MOL0     H 3125   1.986   8.401   3.493 -0.6527 -0.6492 -0.9834
   24MOL0     H 3126   1.935   8.101   3.527  1.9031 -0.1077  0.9166
   24MOL0     H 3127   1.821   8.222   3.564 -0.1019  1.8526 -1.3160
   24MOL0     H 3128   1.780   8.129   3.333 -1.5411  1.6248 -1.4987
   24MOL0     H 3129   1.946   8.195   3.293  2.0296  1.4557  1.8450
   24MOL0     H 3130   1.855   8.280   3.093  0.5029 -0.2344  0.4315
   24MOL0     H 3131   1.661   8.240   2.918 -6.0260  0.7419 -2.0777
   24MOL0     H 3132   1.178   8.171   2.802  0.5617 -0.8846 -0.4813
   24MOL0     H 3133   1.056   8.188   2.603 -1.2479  3.5114  0.9953
   24MOL0     H 3134   1.285   8.096   2.261 -1.1189 -2.1390 -2.4727
   24MOL0     H 3135   1.203   8.211   2.164  3.1406  0.0262 -0.1449
   24MOL0     H 3136   1.065   7.977   2.308 -3.7054  1.3894  0.3803
   24MOL0     H 3137   1.104   7.978   2.127 -0.7256 -0.6123  0.5866
   24MOL0     H 3138   0.936   8.173   2.139 -0.3470  1.4190  1.3716
   24MOL0     H 3139   0.912   8.129   2.308  0.9780 -3.1056  0.3814
   24MOL0     H 3140   0.846   7.955   2.062 -1.8514  1.6427 -0.4150
   24MOL0     H 3141   0.858   7.892   2.233 -0.9372 -0.6325 -0.0346
   24MOL0     H 3142   0.629   7.916   2.127  1.2644  0.1644 -2.2664
   24MOL0     H 3143   0.665   8.078   2.097  3.7361 -0.6034 -0.8253
   24MOL0     H 3144   0.675   8.145   2.335 -3.4905  2.6479 -1.8937
   24MOL0     H 3145   0.642   7.974   2.381  1.9528 -1.4199 -2.3517
   24MOL0     H 3146   0.458   8.143   2.216  2.5987  1.1259  0.1332
   24MOL0     H 3147   0.434   7.974   2.284  0.1164  0.8523 -1.0115
   24MOL0     H 3148   0.485   8.226   2.434 -0.8450 -0.0663  0.4727
   24MOL0     H 3149   0.448   8.078   2.520  0.2641 -2.1680 -1.3932
   24MOL0     H 3150   1.439   8.213   2.390  0.0108 -2.6644 -1.4543
   24MOL0     H 3151   1.545   8.220   2.587  0.3270 -0.3472 -1.3260
   24MOL0     H 3152   1.387   8.379   3.206 -0.0009 -0.2917  0.1272
   24MOL0     H 3153   1.554   8.401   3.368  0.8447  1.5517 -0.1208
   24MOL0     H 3154   2.955   9.132   4.145 -1.0253  2.0676  2.5227
   24MOL0     H 3155   3.083   9.321   4.234 -1.1893  1.2399 -0.4806
   24MOL0     H 3156   3.655   9.551   4.085  1.1363  1.1506 -0.1255
   24MOL0     H 3157   3.765   9.752   4.153  0.1026 -0.9721  1.6011
   24MOL0     H 3158   3.569  10.148   4.308 -1.3187 -0.9006  0.8274
   24MOL0     H 3159   3.492  10.099   4.158 -0.0361  0.2732  1.2733
   24MOL0     H 3160   3.704  10.148   4.022  1.6539 -0.7518  1.9122
   24MOL0     H 3161   3.636  10.299   4.102  1.4322  1.8110  2.1750
   24MOL0     H 3162   3.871  10.129   4.157  1.2428 -0.7899  0.5667
   24MOL0     H 3163   3.792  10.227   4.296 -1.0480  1.2781 -0.3777
   24MOL0     H 3164   3.823  10.429   4.174 -1.3103 -0.3194 -1.6155
   24MOL0     H 3165   3.978  10.338   4.206  0.2883  1.2969 -1.0231
   24MOL0     H 3166   3.899  10.378   3.776 -2.9987  0.7214  0.4623
   24MOL0     H 3167   3.380   9.940   4.233  1.3387  0.7334 -0.1251
   24MOL0     H 3168   3.267   9.733   4.176  0.3926  2.6660  3.1482
   25MOL0     O 3169   7.275  10.184  10.973 -0.1321 -0.1551 -0.0347
   25MOL0     C 3170   7.305  10.274  11.060 -0.7542  0.1016  0.2214
   25MOL0     O 3171   7.225  10.375  11.099 -0.3386  0.0699 -0.3823
   25MOL0     C 3172   7.099  10.389  11.052 -0.7243 -0.6153  0.6417
   25MOL0     C 3173   7.063  10.371  10.917 -0.7230 -1.0857 -0.0497
   25MOL0     C 3174   6.929  10.357  10.878  0.9474 -0.0658 -0.0290
   25MOL0     C 3175   6.824  10.359  10.965  0.0341 -0.0290 -0.5590
   25MOL0     O 3176   6.689  10.375  10.929 -0.0247 -0.1894  0.1876
   25MOL0     C 3177   6.586  10.360  11.026 -0.8396 -0.0471 -0.9706
   25MOL0     C 3178   6.467  10.309  10.935  0.2025 -0.2324  1.0967
   25MOL0     C 3179   6.408  10.433  10.861 -0.0360 -0.1128 -0.7358
   25MOL0     C 3180   6.263  10.414  10.811  0.5890 -0.1365 -0.2629
   25MOL0     C 3181   6.217  10.526  10.719 -0.4225  0.1040 -0.7113
   25MOL0     C 3182   6.066  10.520  10.718  0.3096 -0.6651  1.1785
   25MOL0     C 3183   5.996  10.390  10.680  0.1416  0.1844 -0.2723
   25MOL0     C 3184   5.923  10.330  10.804  0.2184  0.4272 -0.2336
   25MOL0     N 3185   5.790  10.395  10.818  0.3568 -0.0563  0.2497
   25MOL0     C 3186   5.757  10.487  10.920 -0.2798 -0.5355 -1.2049
   25MOL0     C 3187   5.633  10.526  10.901  0.1974  0.6331 -0.3265
   25MOL0     C 3188   5.541  10.603  11.004  0.1548  0.4111 -0.4379
   25MOL0     C 3189   5.485  10.729  10.943 -0.9822 -0.2360  0.2529
   25MOL0     C 3190   5.375  10.721  10.840 -0.5711 -0.2301 -0.1485
   25MOL0     C 3191   5.334  10.860  10.778  0.1556 -0.2207  0.7195
   25MOL0     O 3192   5.253  10.937  10.863  0.1229  0.1170 -0.4983
   25MOL0     C 3193   5.137  10.880  10.915  0.0965  0.0953  0.2113
   25MOL0     C 3194   5.135  10.806  11.030 -1.3230  0.6844  0.7039
   25MOL0     C 3195   5.017  10.759  11.083  0.7938 -0.5559 -0.3188
   25MOL0     C 3196   4.891  10.786  11.024 -0.2809  0.4350  0.4058
   25MOL0     C 3197   4.771  10.757  11.102  0.4327 -0.8024  0.0384
   25MOL0     O 3198   4.655  10.739  11.029  0.6020  0.5961 -0.2564
   25MOL0     C 3199   4.528  10.768  11.083 -1.1963 -0.7495 -0.8356
   25MOL0     C 3200   4.486  10.772  11.228  0.2498  0.1290 -0.2284
   25MOL0     C 3201   4.357  10.811  11.269  0.4280 -0.0732  1.2741
   25MOL0     C 3202   4.254  10.834  11.178  0.4301  0.2470  0.6541
   25MOL0     O 3203   4.119  10.847  11.200 -0.0525  0.3981 -0.1434
   25MOL0     C 3204   4.062  10.741  11.278  0.0585 -0.2061  0.6574
   25MOL0     C 3205   3.919  10.772  11.309 -0.0725 -0.4202  0.2715
   25MOL0     C 3206   3.834  10.812  11.189  0.1559 -0.7813  0.1530
   25MOL0     C 3207   3.782  10.689  11.118 -0.5113 -0.8902  0.2567
   25MOL0     C 3208   3.753  10.725  10.965 -0.3318  0.2946  0.3424
   25MOL0     C 3209   3.864  10.713  10.870  0.7381 -0.9356 -0.2981
   25MOL0     C 3210   3.909  10.568  10.849 -0.5044 -0.1755 -0.4255
   25MOL0     C 3211   4.045  10.556  10.771 -0.0226  0.4729 -0.7724
   25MOL0    Cl 3212   4.024  10.649  10.627 -0.2675  0.5703  0.0805
   25MOL0     C 3213   4.295  10.824  11.041 -0.5154  0.8219  0.0776
   25MOL0     C 3214   4.426  10.792  10.996 -1.6020  0.2647 -1.2065
   25MOL0     O 3215   4.781  10.762  11.229  0.1073 -0.0663  0.1668
   25MOL0     C 3216   4.894  10.860  10.903  0.2708  0.2408 -0.6157
   25MOL0     C 3217   5.013  10.903  10.849  0.2320 -0.6211 -1.1694
   25MOL0     N 3218   5.585  10.466  10.786 -0.6865 -0.5149  0.4147
   25MOL0     N 3219   5.680  10.390  10.736 -0.5337  0.4112 -0.0994
   25MOL0     C 3220   6.864  10.382  11.099 -0.2714 -0.1411 -0.2087
   25MOL0     C 3221   6.989  10.396  11.143 -0.7174 -0.9576  0.9663
   25MOL0     C 3222   7.444  10.282  11.118  0.1682 -0.7944  0.5710
   25MOL0     C 3223   7.483  10.389  11.204  0.6739 -0.1619  0.1270
   25MOL0     C 3224   7.605  10.378  11.260 -0.4616 -0.7488  0.3404
   25MOL0     C 3225   7.696  10.278  11.233  0.8472  0.3933  0.9770
   25MOL0     O 3226   7.812  10.255  11.296 -0.2034  0.1472 -0.6620
   25MOL0     C 3227   7.806  10.262  11.434 -0.2293  0.2964 -1.2065
   25MOL0     C 3228   7.933  10.203  11.497  0.0235  0.5079 -0.5812
   25MOL0     C 3229   8.067  10.266  11.449 -0.8843 -0.1322  0.3389
   25MOL0     C 3230   8.200  10.194  11.500 -0.2600 -0.1710  0.7817
   25MOL0     C 3231   8.225  10.204  11.642 -0.1612 -0.1210 -0.7414
   25MOL0     C 3232   8.245  10.201  11.766 -0.5599 -0.0205 -0.1489
   25MOL0     C 3233   7.660  10.192  11.134  0.5533 -0.1773 -0.0382
   25MOL0     C 3234   7.537  10.196  11.070  1.0956 -0.1459  0.1563
   25MOL0     H 3235   7.131  10.370  10.833 -1.9779 -0.9745 -1.1093
   25MOL0     H 3236   6.902  10.352  10.773 -1.5310  0.8011  0.4891
   25MOL0     H 3237   6.576  10.452  11.086  3.1591 -0.3146  0.3959
   25MOL0     H 3238   6.609  10.283  11.100 -0.2701 -0.1223 -1.2175
   25MOL0     H 3239   6.395  10.269  11.007 -0.0983 -0.1840  0.8264
   25MOL0     H 3240   6.510  10.235  10.867  0.3870  1.2758 -0.5020
   25MOL0     H 3241   6.473  10.465  10.778  0.9546  0.8793  0.3910
   25MOL0     H 3242   6.402  10.508  10.940 -2.9816 -1.5023  0.5164
   25MOL0     H 3243   6.267  10.319  10.758  1.1068  0.6776 -1.7359
   25MOL0     H 3244   6.194  10.405  10.896  0.7284 -0.6094 -0.1995
   25MOL0     H 3245   6.249  10.497  10.618 -2.3916  0.0228 -1.3636
   25MOL0     H 3246   6.272  10.616  10.748 -1.4942  0.3744  0.5803
   25MOL0     H 3247   6.030  10.585  10.638 -0.9741 -0.9025  1.5463
   25MOL0     H 3248   6.017  10.570  10.801 -1.4944 -0.5768  0.1059
   25MOL0     H 3249   5.921  10.402  10.602  0.4385  1.1330 -0.4257
   25MOL0     H 3250   6.067  10.317  10.639  0.4682  0.8534 -0.9176
   25MOL0     H 3251   5.987  10.339  10.893 -1.3278 -1.9233  1.2478
   25MOL0     H 3252   5.899  10.224  10.789 -1.8772  0.5149  1.9125
   25MOL0     H 3253   5.811  10.514  11.010 -1.7319  0.6185 -0.6411
   25MOL0     H 3254   5.601  10.633  11.091 -1.2372  0.8599  0.3986
   25MOL0     H 3255   5.462  10.542  11.048  1.5248 -0.5372  0.8258
   25MOL0     H 3256   5.569  10.782  10.897 -2.5563  0.2545 -2.2054
   25MOL0     H 3257   5.451  10.781  11.033  0.2854 -0.7878  1.0960
   25MOL0     H 3258   5.418  10.658  10.762  0.3377 -3.8943  3.0107
   25MOL0     H 3259   5.291  10.669  10.886 -1.0288  0.5472 -0.0829
   25MOL0     H 3260   5.278  10.838  10.687  0.1667 -0.5176  0.7848
   25MOL0     H 3261   5.414  10.929  10.749 -0.5395 -0.0601 -0.9343
   25MOL0     H 3262   5.229  10.803  11.084 -0.2104  2.0129 -1.0556
   25MOL0     H 3263   5.019  10.709  11.179  0.6284 -0.3587 -0.2111
   25MOL0     H 3264   4.556  10.739  11.304  0.4908  2.8620  0.8781
   25MOL0     H 3265   4.320  10.813  11.371 -0.2476  4.4648  1.1486
   25MOL0     H 3266   4.119  10.725  11.370  0.2687 -0.8042  0.4276
   25MOL0     H 3267   4.083  10.648  11.224  3.0589  0.4947  0.4191
   25MOL0     H 3268   3.921  10.856  11.380  3.2482 -1.3107  1.3930
   25MOL0     H 3269   3.880  10.690  11.370 -0.3552  0.4821  1.3527
   25MOL0     H 3270   3.890  10.883  11.127 -1.8167 -0.5382 -1.4708
   25MOL0     H 3271   3.752  10.872  11.229 -1.9019 -2.2687 -1.5820
   25MOL0     H 3272   3.860  10.612  11.123  0.2271 -0.3242 -1.5948
   25MOL0     H 3273   3.692  10.653  11.168 -1.1697  2.0985  1.4522
   25MOL0     H 3274   3.700  10.821  10.968 -0.5913  0.2934 -1.9893
   25MOL0     H 3275   3.677  10.654  10.931  0.9945 -0.3078 -1.4993
   25MOL0     H 3276   3.947  10.779  10.898  0.0489  0.3846 -1.2340
   25MOL0     H 3277   3.828  10.752  10.774 -0.5662  1.7712  1.1644
   25MOL0     H 3278   3.907  10.508  10.940  0.1208 -2.0227 -1.5590
   25MOL0     H 3279   3.830  10.524  10.786 -0.2007 -2.9152  0.9625
   25MOL0     H 3280   4.065  10.454  10.737 -0.4711 -0.6914  2.1628
   25MOL0     H 3281   4.135  10.588  10.824 -1.8480  1.9420  1.6651
   25MOL0     H 3282   4.227  10.841  10.958 -1.1884  2.6426  0.9430
   25MOL0     H 3283   4.443  10.787  10.889 -1.1174 -0.2499 -1.1106
   25MOL0     H 3284   4.807  10.864  10.838 -0.4536 -1.5425  0.1519
   25MOL0     H 3285   4.995  10.969  10.765 -2.4849  1.1165  0.5823
   25MOL0     H 3286   6.792  10.399  11.178 -0.1837  1.7565 -0.4844
   25MOL0     H 3287   7.015  10.412  11.247  1.4417  2.1553  0.1101
   25MOL0     H 3288   7.410  10.462  11.237  0.0700 -0.5608 -0.2999
   25MOL0     H 3289   7.641  10.447  11.336  0.2552  0.0831 -0.7187
   25MOL0     H 3290   7.716  10.208  11.467  1.0373 -1.8030 -1.0157
   25MOL0     H 3291   7.791  10.366  11.467 -0.7687  0.5553 -2.2392
   25MOL0     H 3292   7.924  10.219  11.605 -1.3246  0.0447 -0.6038
   25MOL0     H 3293   7.946  10.096  11.480 -0.9902 -0.0827  2.0031
   25MOL0     H 3294   8.067  10.373  11.475 -0.2801 -0.4607  1.8156
   25MOL0     H 3295   8.073  10.249  11.342 -1.9059  2.0835 -0.1411
   25MOL0     H 3296   8.196  10.089  11.469  3.5560 -0.0775 -0.5907
   25MOL0     H 3297   8.285  10.233  11.444 -2.5062  2.1906 -1.2880
   25MOL0     H 3298   8.274  10.205  11.869  1.0321  1.0160 -0.5916
   25MOL0     H 3299   7.723  10.109  11.104  0.0021 -0.3717 -0.6730
   25MOL0     H 3300   7.511  10.124  10.994 -2.1382  2.8306 -1.8394
   26MOL0     O 3301   4.076   8.969  10.030  0.2177 -0.0401 -0.0805
   26MOL0     C 3302   4.027   8.906  10.125  0.9913  0.1798  0.0980
   26MOL0     O 3303   3.940   8.793  10.114 -0.6233 -0.1363 -0.3655
   26MOL0     C 3304   3.950   8.716   9.999 -0.2244  0.6470 -0.0868
   26MOL0     C 3305   3.845   8.631   9.977 -0.4467  0.0159 -0.2567
   26MOL0     C 3306   3.840   8.544   9.864 -0.1316 -0.3362 -0.2200
   26MOL0     C 3307   3.936   8.554   9.768  0.4198  0.2531  0.2877
   26MOL0     O 3308   3.937   8.469   9.663 -0.3848 -0.0883  0.2413
   26MOL0     C 3309   3.815   8.473   9.585 -1.6092 -0.1941 -0.2918
   26MOL0     C 3310   3.832   8.391   9.457  0.3835  0.0497 -0.2486
   26MOL0     C 3311   3.888   8.248   9.487  0.4340 -0.1982 -0.1275
   26MOL0     C 3312   3.785   8.144   9.532  0.2117  0.0687  0.0156
   26MOL0     C 3313   3.682   8.113   9.428 -0.3545 -0.2989  1.2506
   26MOL0     C 3314   3.594   7.993   9.462 -0.4890  0.4318 -0.7019
   26MOL0     C 3315   3.492   7.956   9.343 -0.7311  1.0666 -0.5526
   26MOL0     C 3316   3.365   8.042   9.347  1.9591 -0.2748 -0.3543
   26MOL0     N 3317   3.296   8.032   9.217  0.3769 -0.6372 -0.2283
   26MOL0     C 3318   3.227   7.925   9.167  0.5293  0.0068  1.0889
   26MOL0     C 3319   3.161   7.972   9.055  0.0579  0.0118 -0.3021
   26MOL0     C 3320   3.061   7.899   8.969  0.5778 -1.0779 -0.2965
   26MOL0     C 3321   2.930   7.882   9.042 -0.1748 -0.1241 -0.1605
   26MOL0     C 3322   2.844   7.752   9.003 -0.1681 -0.6025 -0.0588
   26MOL0     C 3323   2.708   7.746   9.068 -0.0605 -0.7057 -0.7447
   26MOL0     O 3324   2.645   7.627   9.030 -0.6695 -0.5842 -1.2240
   26MOL0     C 3325   2.518   7.603   9.072  0.4513 -0.7630  0.0592
   26MOL0     C 3326   2.424   7.705   9.105  0.2413 -0.0320  0.0253
   26MOL0     C 3327   2.289   7.669   9.123  0.0830  0.5224  0.3795
   26MOL0     C 3328   2.244   7.541   9.096  0.2387  0.2686  0.4626
   26MOL0     C 3329   2.101   7.501   9.104 -0.4960  0.2812 -0.3322
   26MOL0     O 3330   2.065   7.384   9.043  0.4494  0.0045  0.2171
   26MOL0     C 3331   1.930   7.353   9.067 -1.0651  0.8616  0.1286
   26MOL0     C 3332   1.847   7.331   8.959 -0.3141  0.4216 -0.9016
   26MOL0     C 3333   1.720   7.268   8.968  0.0484  0.1451  0.0432
   26MOL0     C 3334   1.676   7.223   9.096  0.0650 -0.2955 -0.1535
   26MOL0     O 3335   1.550   7.167   9.102  0.0770  1.3641  0.1969
   26MOL0     C 3336   1.494   7.114   9.229  0.3936  0.5068  0.3269
   26MOL0     C 3337   1.345   7.140   9.220 -0.4793  0.3413 -1.0917
   26MOL0     C 3338   1.282   7.088   9.348 -0.2896  0.2240 -0.7515
   26MOL0     C 3339   1.136   7.058   9.314  0.8351  0.0208  0.7289
   26MOL0     C 3340   1.051   7.047   9.439  0.0193  0.0806  0.6574
   26MOL0     C 3341   0.901   7.025   9.398 -0.7296  0.6630  0.2190
   26MOL0     C 3342   0.821   6.947   9.506  0.3581 -0.3220  0.3035
   26MOL0     C 3343   0.676   6.981   9.488  1.1665  0.3493  0.1959
   26MOL0    Cl 3344   0.603   6.955   9.647 -0.3040 -0.5284 -0.7450
   26MOL0     C 3345   1.751   7.255   9.207 -0.6421 -0.4411  1.1217
   26MOL0     C 3346   1.880   7.312   9.195 -0.6093  0.5798  0.3320
   26MOL0     O 3347   2.028   7.576   9.166  0.5922 -1.3043 -0.2436
   26MOL0     C 3348   2.335   7.447   9.058 -1.3202  0.2601 -1.0595
   26MOL0     C 3349   2.473   7.478   9.045  0.5185  0.7463 -0.2422
   26MOL0     N 3350   3.217   8.095   9.032  0.4895  1.0881  1.1709
   26MOL0     N 3351   3.295   8.136   9.125  0.4439 -0.0273  0.4716
   26MOL0     C 3352   4.056   8.622   9.797 -0.2979  0.0203 -0.0157
   26MOL0     C 3353   4.064   8.702   9.912 -0.6135  0.9215 -0.2088
   26MOL0     C 3354   4.059   8.957  10.255 -0.5428 -0.4790 -0.3293
   26MOL0     C 3355   4.168   9.040  10.282  0.7159  0.0791  0.2564
   26MOL0     C 3356   4.187   9.089  10.409  0.4971  0.5549 -0.2924
   26MOL0     C 3357   4.104   9.052  10.519 -0.2836 -0.6855 -0.6589
   26MOL0     O 3358   4.119   9.101  10.653 -0.3917  0.2509  0.1312
   26MOL0     C 3359   4.227   9.187  10.684 -0.0722 -0.0395  0.1090
   26MOL0     C 3360   4.259   9.203  10.826 -0.7726  0.8560  1.0033
   26MOL0     C 3361   4.173   9.303  10.898 -0.4704  0.8637 -1.2765
   26MOL0     C 3362   4.208   9.286  11.044 -0.4947  0.4733 -0.2888
   26MOL0     C 3363   4.177   9.399  11.137  0.0488 -0.9287  0.3200
   26MOL0     C 3364   4.164   9.488  11.216 -0.2869 -0.1979  0.1288
   26MOL0     C 3365   4.002   8.971  10.501 -0.0653 -0.0364  0.2518
   26MOL0     C 3366   3.977   8.924  10.365  0.2254 -0.1883  0.9473
   26MOL0     H 3367   3.759   8.623  10.043  1.0981  2.8596  2.3544
   26MOL0     H 3368   3.756   8.482   9.834 -0.3068 -0.2303  0.0421
   26MOL0     H 3369   3.792   8.566   9.532  0.3546 -1.1706 -3.0281
   26MOL0     H 3370   3.722   8.446   9.636  0.6593 -2.0946  3.2019
   26MOL0     H 3371   3.899   8.435   9.382  0.4159 -0.4625 -0.5211
   26MOL0     H 3372   3.736   8.373   9.408  0.6314  0.5189 -0.9194
   26MOL0     H 3373   3.966   8.263   9.562  0.2211  0.6643 -0.0627
   26MOL0     H 3374   3.927   8.212   9.391 -2.6628 -1.0207 -1.2203
   26MOL0     H 3375   3.855   8.060   9.537 -0.3002 -0.3392  0.4548
   26MOL0     H 3376   3.735   8.173   9.625 -1.2231  1.0651 -1.0179
   26MOL0     H 3377   3.711   8.104   9.323 -3.2334  0.4681  0.2718
   26MOL0     H 3378   3.619   8.202   9.432  0.0319 -0.0111  0.8869
   26MOL0     H 3379   3.548   8.031   9.553 -2.4579  1.2159 -1.9686
   26MOL0     H 3380   3.658   7.907   9.486 -2.3140 -0.5477  0.9363
   26MOL0     H 3381   3.533   7.970   9.243  1.8222  0.4606  0.3321
   26MOL0     H 3382   3.466   7.850   9.354 -0.3680  0.7161 -2.6696
   26MOL0     H 3383   3.387   8.147   9.369 -0.7605 -0.0621  1.8644
   26MOL0     H 3384   3.301   8.003   9.426 -1.1592  3.1662 -0.9263
   26MOL0     H 3385   3.206   7.824   9.202 -3.3932  0.1531 -0.3489
   26MOL0     H 3386   3.103   7.801   8.946  1.7741 -0.3685 -1.2307
   26MOL0     H 3387   3.039   7.954   8.877  1.3438 -2.1005 -1.1143
   26MOL0     H 3388   2.875   7.975   9.023  0.1748  1.0709  3.8310
   26MOL0     H 3389   2.945   7.875   9.150 -0.0655  3.1451  0.1380
   26MOL0     H 3390   2.821   7.759   8.896 -3.9997 -1.8392  0.5412
   26MOL0     H 3391   2.899   7.661   9.025  1.7826  0.9674  2.0015
   26MOL0     H 3392   2.642   7.832   9.057 -0.4685 -0.6309  1.6928
   26MOL0     H 3393   2.722   7.753   9.176  0.2965  0.6454 -0.8656
   26MOL0     H 3394   2.450   7.810   9.116  1.3876 -0.3640  0.5548
   26MOL0     H 3395   2.217   7.740   9.163 -0.8311 -0.5758  0.7764
   26MOL0     H 3396   1.885   7.343   8.858  2.1490  2.3005  0.1352
   26MOL0     H 3397   1.663   7.246   8.878 -2.0022 -1.7288  1.6897
   26MOL0     H 3398   1.527   7.169   9.318  1.4798  2.2685 -1.0835
   26MOL0     H 3399   1.513   7.007   9.233 -1.4272  0.1655  0.4890
   26MOL0     H 3400   1.292   7.089   9.138 -1.5653 -1.1739  0.4764
   26MOL0     H 3401   1.327   7.247   9.206  1.7695  0.8970 -0.0726
   26MOL0     H 3402   1.287   7.157   9.433  3.8304 -0.5383 -0.1804
   26MOL0     H 3403   1.330   6.994   9.377  0.8246  1.1512  0.5093
   26MOL0     H 3404   1.096   7.135   9.247 -2.1232 -1.6285  0.4188
   26MOL0     H 3405   1.128   6.972   9.248 -1.1443 -0.0803  1.0295
   26MOL0     H 3406   1.066   7.138   9.499  2.4083  0.0146  0.2524
   26MOL0     H 3407   1.090   6.963   9.497  1.1536 -0.2705 -0.5808
   26MOL0     H 3408   0.882   6.971   9.305 -3.9257 -0.1433  1.2220
   26MOL0     H 3409   0.867   7.129   9.394  0.2990  1.0328  0.8125
   26MOL0     H 3410   0.838   6.839   9.500  0.4764 -0.2145 -2.5052
   26MOL0     H 3411   0.848   6.978   9.607 -1.0060 -2.2611  1.3288
   26MOL0     H 3412   0.625   6.919   9.414 -2.6016  2.3099  0.8811
   26MOL0     H 3413   0.648   7.085   9.472 -4.6157 -1.0817 -1.3225
   26MOL0     H 3414   1.726   7.223   9.308 -2.1959 -0.1829  0.8439
   26MOL0     H 3415   1.944   7.316   9.282 -0.1071  0.9884 -0.0469
   26MOL0     H 3416   2.313   7.342   9.038  1.3994 -0.3634 -1.2137
   26MOL0     H 3417   2.541   7.401   9.010 -0.9594 -1.1076  0.7898
   26MOL0     H 3418   4.151   8.604   9.750  1.1685 -0.0882  2.7562
   26MOL0     H 3419   4.159   8.753   9.929  2.2705 -3.1791 -2.3632
   26MOL0     H 3420   4.232   9.073  10.201  0.9710  0.8591  0.7563
   26MOL0     H 3421   4.261   9.163  10.438  1.5874 -0.9852  1.1204
   26MOL0     H 3422   4.234   9.286  10.637 -0.0187  0.3259  0.8547
   26MOL0     H 3423   4.319   9.138  10.651  0.0669 -0.5275  1.1560
   26MOL0     H 3424   4.237   9.109  10.876 -0.9413  1.2171  1.6222
   26MOL0     H 3425   4.365   9.230  10.838 -0.7201  0.8318  0.5864
   26MOL0     H 3426   4.064   9.297  10.886 -0.4196  0.2262 -1.4918
   26MOL0     H 3427   4.196   9.404  10.862 -3.6820  0.3106 -5.7799
   26MOL0     H 3428   4.155   9.199  11.084  3.3982 -0.1650  4.3938
   26MOL0     H 3429   4.314   9.269  11.066 -0.3885  1.8293  0.3388
   26MOL0     H 3430   4.159   9.549  11.303  1.6328 -0.7638  0.6822
   26MOL0     H 3431   3.925   8.950  10.574  0.0009  0.1884  0.3876
   26MOL0     H 3432   3.888   8.864  10.349  0.8540 -1.7684  3.0141
   27MOL0     O 3433   3.324   9.739   5.675  0.2651 -0.2281 -0.3357
   27MOL0     C 3434   3.380   9.841   5.691 -0.7831 -0.1375 -0.5409
   27MOL0     O 3435   3.320   9.958   5.722 -0.6709 -0.4387  0.2084
   27MOL0     C 3436   3.187   9.960   5.747 -0.0090  0.3204 -0.0495
   27MOL0     C 3437   3.128   9.975   5.874  0.4467 -0.4389  0.4101
   27MOL0     C 3438   2.985   9.982   5.890  0.4672 -0.3877  0.2660
   27MOL0     C 3439   2.900   9.969   5.777 -0.6523 -0.2980 -0.8118
   27MOL0     O 3440   2.762   9.984   5.776  0.6999  0.3197 -0.1381
   27MOL0     C 3441   2.693   9.950   5.896 -0.1967 -0.7060 -0.1898
   27MOL0     C 3442   2.544   9.939   5.864 -0.7728  0.4844 -0.0684
   27MOL0     C 3443   2.480  10.068   5.798 -0.6121  0.1811 -0.7195
   27MOL0     C 3444   2.330  10.036   5.789 -0.7878 -0.0279  0.5189
   27MOL0     C 3445   2.243  10.158   5.783 -0.5251 -1.1341 -0.1790
   27MOL0     C 3446   2.295  10.243   5.669 -0.3890 -0.0300  0.1708
   27MOL0     C 3447   2.179  10.327   5.612  0.6762  1.3105 -0.0793
   27MOL0     C 3448   2.081  10.249   5.526 -0.0184  0.2888  0.7783
   27MOL0     N 3449   1.979  10.328   5.451  0.1392 -0.1009 -1.1076
   27MOL0     C 3450   1.872  10.401   5.497  0.0565 -0.6454  0.1487
   27MOL0     C 3451   1.810  10.453   5.387  0.1309 -0.1405 -0.0668
   27MOL0     C 3452   1.678  10.528   5.382  0.5681  0.2574  0.4719
   27MOL0     C 3453   1.557  10.445   5.434  0.8613 -1.1494  0.2418
   27MOL0     C 3454   1.435  10.533   5.449 -0.9627 -0.4034  0.0804
   27MOL0     C 3455   1.310  10.454   5.471  0.6337  0.3834 -0.5522
   27MOL0     O 3456   1.202  10.557   5.477 -0.3552 -0.2356  0.0960
   27MOL0     C 3457   1.089  10.540   5.556  0.0340 -0.7263  0.5799
   27MOL0     C 3458   1.007  10.653   5.589  0.4844  0.4966  0.6152
   27MOL0     C 3459   0.898  10.637   5.672 -0.6993 -0.0573  0.3964
   27MOL0     C 3460   0.877  10.516   5.739  0.0172  0.3049 -0.2896
   27MOL0     C 3461   0.793  10.499   5.852 -0.6407  0.3421 -0.3733
   27MOL0     O 3462   0.741  10.383   5.877  0.6953 -0.2434 -0.6008
   27MOL0     C 3463   0.642  10.383   5.974  0.5075  0.3605 -0.3710
   27MOL0     C 3464   0.510  10.413   5.942 -0.8187 -0.1432  0.4423
   27MOL0     C 3465   0.414  10.417   6.044 -0.7148 -0.4175  0.1129
   27MOL0     C 3466   0.458  10.401   6.187 -0.0476 -0.1619 -0.1387
   27MOL0     O 3467   0.369  10.413   6.290  0.5357 -0.4194  0.2309
   27MOL0     C 3468   0.246  10.345   6.289 -0.3295 -0.3678 -0.4206
   27MOL0     C 3469   0.137  10.446   6.260 -0.3478  0.3093  0.2423
   27MOL0     C 3470   0.002  10.368   6.288  0.0435  0.6404 -1.0263
   27MOL0     C 3471  -0.117  10.462   6.276 -0.4865 -0.7333  0.5170
   27MOL0     C 3472  -0.246  10.403   6.324 -0.2461  1.1663 -0.1270
   27MOL0     C 3473  -0.293  10.296   6.229 -0.5392 -0.7842  1.6167
   27MOL0     C 3474  -0.434  10.263   6.275 -0.4389  0.0581 -0.8150
   27MOL0     C 3475  -0.486  10.138   6.210  0.0248  0.3010  0.0914
   27MOL0    Cl 3476  -0.671  10.118   6.209  0.0945 -0.5862  0.2898
   27MOL0     C 3477   0.589  10.389   6.214 -0.4631  0.5133 -1.0319
   27MOL0     C 3478   0.680  10.371   6.109 -0.4171 -0.4080  0.4995
   27MOL0     O 3479   0.783  10.601   5.915  0.4206 -1.0022 -0.4401
   27MOL0     C 3480   0.951  10.400   5.700 -0.5645  0.5157 -0.4397
   27MOL0     C 3481   1.055  10.418   5.606 -0.0779  0.5619  0.0105
   27MOL0     N 3482   1.885  10.412   5.278 -0.0904  0.1453  0.3804
   27MOL0     N 3483   1.982  10.339   5.317 -0.1773 -0.0222  0.1586
   27MOL0     C 3484   2.958   9.974   5.650  0.4110 -0.5204 -0.0164
   27MOL0     C 3485   3.100   9.959   5.634  0.2369 -1.4923 -0.4787
   27MOL0     C 3486   3.532   9.849   5.668 -0.2489 -0.0411  0.0897
   27MOL0     C 3487   3.603   9.964   5.679  0.3860 -0.2268 -0.5682
   27MOL0     C 3488   3.746   9.976   5.674 -0.1161 -0.3196 -0.0612
   27MOL0     C 3489   3.827   9.864   5.658 -0.3012 -0.3341  0.0891
   27MOL0     O 3490   3.965   9.880   5.645  0.0481 -0.7639  0.0133
   27MOL0     C 3491   4.036   9.753   5.660  0.2240 -0.1591 -0.3410
   27MOL0     C 3492   4.181   9.799   5.681 -0.3767 -1.0503  0.2305
   27MOL0     C 3493   4.254   9.899   5.580  0.0691  0.6197  0.2970
   27MOL0     C 3494   4.411   9.876   5.609 -0.5397  0.0609 -0.1013
   27MOL0     C 3495   4.486   9.758   5.558 -0.5881 -0.4716  0.3012
   27MOL0     C 3496   4.574   9.695   5.508  0.1778  0.1016 -0.4404
   27MOL0     C 3497   3.757   9.744   5.643  0.0704  0.5131 -0.0042
   27MOL0     C 3498   3.617   9.739   5.637 -1.4543  0.1989  0.1880
   27MOL0     H 3499   3.181   9.988   5.968  2.5218  0.3715 -0.7958
   27MOL0     H 3500   2.935   9.997   5.985 -1.6112  0.3077 -0.8830
   27MOL0     H 3501   2.703  10.021   5.979 -2.9496  0.2322 -0.5404
   27MOL0     H 3502   2.732   9.852   5.926  0.6244 -0.4123 -0.2672
   27MOL0     H 3503   2.482   9.890   5.940 -0.4522  0.0467 -0.0816
   27MOL0     H 3504   2.553   9.857   5.793  0.1423 -0.7616  1.4170
   27MOL0     H 3505   2.528  10.072   5.699  0.3770 -0.7328 -0.3033
   27MOL0     H 3506   2.499  10.151   5.866  2.4040 -1.8749  1.1713
   27MOL0     H 3507   2.322   9.979   5.697  1.1038  2.4586 -1.3404
   27MOL0     H 3508   2.296   9.986   5.880 -0.7871  2.3899  1.9687
   27MOL0     H 3509   2.240  10.216   5.876  1.2018 -0.4551 -0.4985
   27MOL0     H 3510   2.142  10.122   5.759 -0.7772 -1.6003  1.4894
   27MOL0     H 3511   2.338  10.180   5.590 -3.3409 -1.3415 -0.5282
   27MOL0     H 3512   2.375  10.305   5.712 -1.7049  1.6370  0.3217
   27MOL0     H 3513   2.118  10.367   5.693 -0.3556 -2.3054  1.0954
   27MOL0     H 3514   2.227  10.396   5.542  0.3491  0.8300 -0.7788
   27MOL0     H 3515   2.035  10.168   5.583  2.6441 -1.3746  0.7483
   27MOL0     H 3516   2.143  10.218   5.441  0.6831  1.8291  0.6989
   27MOL0     H 3517   1.829  10.409   5.597  2.9700 -1.0306  1.5528
   27MOL0     H 3518   1.660  10.551   5.277 -0.4060 -1.6072  0.1855
   27MOL0     H 3519   1.682  10.617   5.446  1.8281  1.5620 -1.3219
   27MOL0     H 3520   1.582  10.395   5.529  2.0202  0.9925  1.1367
   27MOL0     H 3521   1.542  10.370   5.356 -2.1349  1.0978 -1.5673
   27MOL0     H 3522   1.462  10.593   5.537  0.4092 -2.9591  1.5057
   27MOL0     H 3523   1.434  10.587   5.353  1.1137 -0.5106 -0.0460
   27MOL0     H 3524   1.317  10.396   5.563  0.3335  0.8093 -0.2500
   27MOL0     H 3525   1.299  10.375   5.397 -2.3919  1.5031 -1.4403
   27MOL0     H 3526   1.020  10.749   5.540 -1.2012  0.0175 -0.8946
   27MOL0     H 3527   0.848  10.732   5.685 -0.4378 -0.0376  1.3312
   27MOL0     H 3528   0.487  10.432   5.837  3.0254  0.0479 -0.5221
   27MOL0     H 3529   0.311  10.440   6.016 -0.0073 -1.0018 -3.4755
   27MOL0     H 3530   0.243  10.314   6.394 -0.5280 -0.2859 -0.4024
   27MOL0     H 3531   0.253  10.256   6.226  2.3769 -1.9043  1.7892
   27MOL0     H 3532   0.142  10.486   6.158  3.7148  0.2190  0.2450
   27MOL0     H 3533   0.145  10.534   6.324 -2.5407  2.2212 -1.8943
   27MOL0     H 3534   0.014  10.320   6.386  0.9037 -4.0866 -3.1268
   27MOL0     H 3535  -0.009  10.281   6.223  0.2636 -0.2938  0.1447
   27MOL0     H 3536  -0.103  10.547   6.342 -3.0936 -0.1127  0.3898
   27MOL0     H 3537  -0.119  10.494   6.171 -0.4201  0.7986  0.9697
   27MOL0     H 3538  -0.314  10.487   6.335 -1.5224  0.1692 -0.1912
   27MOL0     H 3539  -0.223  10.359   6.422  0.2733 -0.8069 -1.0736
   27MOL0     H 3540  -0.227  10.209   6.230 -0.6569 -0.9320  4.5039
   27MOL0     H 3541  -0.298  10.334   6.127  0.4390 -2.6044  0.8560
   27MOL0     H 3542  -0.420  10.231   6.379  0.5902  1.7592 -0.3850
   27MOL0     H 3543  -0.506  10.346   6.268 -0.9870 -0.3181  0.1965
   27MOL0     H 3544  -0.436  10.047   6.242 -0.8529 -0.1543  0.2141
   27MOL0     H 3545  -0.454  10.136   6.106  1.7306  1.6185  0.5508
   27MOL0     H 3546   0.611  10.387   6.320 -0.3647 -0.5393 -1.0527
   27MOL0     H 3547   0.782  10.334   6.111  0.6163  1.8119 -2.7731
   27MOL0     H 3548   0.940  10.296   5.730 -1.6717  0.4320 -1.0605
   27MOL0     H 3549   1.115  10.337   5.567 -0.9367 -0.1944  0.2146
   27MOL0     H 3550   2.892   9.977   5.564  2.8045  1.1628 -1.9667
   27MOL0     H 3551   3.149   9.955   5.538 -0.6562 -1.1555 -0.9637
   27MOL0     H 3552   3.543  10.052   5.703 -0.3775 -1.5069  2.8158
   27MOL0     H 3553   3.794  10.072   5.693 -0.2480 -0.2218 -0.2175
   27MOL0     H 3554   4.037   9.701   5.565 -1.7990 -0.6391 -0.1437
   27MOL0     H 3555   4.001   9.693   5.744  0.4632  2.4877  1.8140
   27MOL0     H 3556   4.183   9.859   5.772 -1.5031  1.2694 -1.1890
   27MOL0     H 3557   4.241   9.708   5.695 -1.6032 -1.4714  3.9651
   27MOL0     H 3558   4.227  10.005   5.593 -0.1013  0.3742  2.3364
   27MOL0     H 3559   4.225   9.872   5.478 -2.0626  1.9036  0.5169
   27MOL0     H 3560   4.456   9.970   5.574 -0.6109 -0.3433 -1.3249
   27MOL0     H 3561   4.419   9.867   5.717  0.5638 -3.3187 -0.3678
   27MOL0     H 3562   4.651   9.636   5.463  0.5825  0.5070 -0.2901
   27MOL0     H 3563   3.811   9.654   5.617 -0.4729  0.1063  0.2648
   27MOL0     H 3564   3.562   9.646   5.622  2.4754 -2.7363  2.1317
   28MOL0     O 3565   6.286   0.025   8.626 -0.1974  0.1262 -0.0423
   28MOL0     C 3566   6.327   0.111   8.703 -0.9106  1.0317 -0.1963
   28MOL0     O 3567   6.261   0.204   8.772  0.2143  0.1293  0.4442
   28MOL0     C 3568   6.144   0.254   8.709  0.4945 -0.1069  0.3975
   28MOL0     C 3569   6.140   0.295   8.574 -0.0352 -0.0382 -0.0101
   28MOL0     C 3570   6.024   0.351   8.528 -0.7366 -0.0166 -0.5120
   28MOL0     C 3571   5.912   0.371   8.616  0.3556 -0.0651  0.2930
   28MOL0     O 3572   5.785   0.419   8.579 -0.2679 -0.2871  0.6246
   28MOL0     C 3573   5.743   0.412   8.443 -0.5400 -0.3407 -0.3645
   28MOL0     C 3574   5.588   0.429   8.439  0.6972  0.0847  0.0366
   28MOL0     C 3575   5.508   0.314   8.501  0.3419 -0.3254 -0.0025
   28MOL0     C 3576   5.354   0.327   8.483 -0.4181 -0.3070  0.1173
   28MOL0     C 3577   5.267   0.228   8.568  0.2436  0.1456  0.1940
   28MOL0     C 3578   5.113   0.225   8.538 -0.6327 -0.4684 -0.7359
   28MOL0     C 3579   5.027   0.154   8.644  1.2139 -0.3427  0.4807
   28MOL0     C 3580   4.881   0.184   8.618 -0.1109 -0.1387  0.5485
   28MOL0     N 3581   4.798   0.121   8.714  0.2160  0.0700  0.1090
   28MOL0     C 3582   4.768   0.179   8.839  0.5145  0.3832  0.1628
   28MOL0     C 3583   4.661   0.107   8.884 -0.1613  0.5768  0.3300
   28MOL0     C 3584   4.603   0.107   9.023  0.0158  0.2947 -0.1907
   28MOL0     C 3585   4.459   0.159   9.007  0.1208 -0.1718  0.3336
   28MOL0     C 3586   4.452   0.313   9.007 -0.2942 -0.2275  0.2286
   28MOL0     C 3587   4.311   0.368   9.035  0.5202 -0.9278  0.0867
   28MOL0     O 3588   4.245   0.369   8.903 -0.3424 -0.1826 -0.6536
   28MOL0     C 3589   4.113   0.402   8.899 -0.1764  0.2412 -0.3929
   28MOL0     C 3590   4.055   0.405   8.778  0.2719 -0.6416 -0.4221
   28MOL0     C 3591   3.918   0.449   8.763  0.5733  0.3557 -0.5754
   28MOL0     C 3592   3.843   0.482   8.884  0.3662  0.7356 -0.9126
   28MOL0     C 3593   3.696   0.533   8.873 -1.0718  0.1814 -0.0911
   28MOL0     O 3594   3.656   0.586   8.755 -0.3963 -0.0704 -0.0125
   28MOL0     C 3595   3.526   0.632   8.750  0.0045  0.0466 -0.2701
   28MOL0     C 3596   3.425   0.547   8.698 -0.6593  0.2334  0.2989
   28MOL0     C 3597   3.294   0.591   8.707 -0.6377  0.4077 -0.8873
   28MOL0     C 3598   3.260   0.711   8.764 -1.1128 -0.1420 -0.6343
   28MOL0     O 3599   3.130   0.737   8.762  0.2651  0.2369  0.2664
   28MOL0     C 3600   3.066   0.665   8.870  0.0988 -0.3899  0.4552
   28MOL0     C 3601   2.918   0.713   8.869 -0.4722 -0.0098  0.5785
   28MOL0     C 3602   2.833   0.637   8.973 -0.0879  0.6230 -0.5145
   28MOL0     C 3603   2.680   0.668   8.955 -0.4130 -0.0061  0.4914
   28MOL0     C 3604   2.599   0.604   9.063  0.2512  0.4999 -0.7781
   28MOL0     C 3605   2.452   0.610   9.017  0.2597  0.3691  0.5128
   28MOL0     C 3606   2.409   0.759   9.023  0.0408 -0.6313  0.6646
   28MOL0     C 3607   2.264   0.773   9.077 -0.6097 -0.3072  0.3513
   28MOL0    Cl 3608   2.147   0.734   8.961  0.0160 -0.0119  0.4847
   28MOL0     C 3609   3.360   0.802   8.801  0.1360 -0.7658  0.7109
   28MOL0     C 3610   3.495   0.762   8.793 -0.2642 -0.4295  0.2398
   28MOL0     O 3611   3.633   0.530   8.978 -0.5206  1.0323 -0.2953
   28MOL0     C 3612   3.905   0.459   9.006 -0.4823 -0.8378  0.3991
   28MOL0     C 3613   4.035   0.421   9.017 -1.0442 -0.2929  0.0900
   28MOL0     N 3614   4.618   0.018   8.785 -0.3899 -0.8075  0.4592
   28MOL0     N 3615   4.696   0.038   8.680  1.0157  0.5984 -0.3498
   28MOL0     C 3616   5.924   0.324   8.741  0.1848 -0.2705  0.7573
   28MOL0     C 3617   6.035   0.262   8.789  0.5402 -0.4077 -0.1833
   28MOL0     C 3618   6.477   0.103   8.719  0.6517  0.1481  0.2618
   28MOL0     C 3619   6.541   0.212   8.765 -0.6252  0.5180  0.4421
   28MOL0     C 3620   6.683   0.205   8.796  0.7362 -0.2529  0.1177
   28MOL0     C 3621   6.749   0.085   8.794 -0.5866 -0.1631  0.3333
   28MOL0     O 3622   6.888   0.085   8.829  1.4559  0.1027 -0.6527
   28MOL0     C 3623   6.962  -0.031   8.802  0.9723 -0.7269 -0.1362
   28MOL0     C 3624   7.111   0.009   8.833  1.2583  0.2451 -0.1036
   28MOL0     C 3625   7.132   0.029   8.987 -0.3941  0.3559 -0.6723
   28MOL0     C 3626   7.085  -0.099   9.061 -0.0741 -0.3965  0.2094
   28MOL0     C 3627   7.126  -0.101   9.204  0.5538 -0.0158  0.4558
   28MOL0     C 3628   7.165  -0.107   9.317 -0.3258 -0.1910  0.7359
   28MOL0     C 3629   6.682  -0.030   8.741 -0.0084  0.0969 -0.4397
   28MOL0     C 3630   6.552  -0.013   8.696  0.0226 -0.7012  0.0970
   28MOL0     H 3631   6.229   0.297   8.512 -1.7626 -1.3411 -2.6960
   28MOL0     H 3632   6.018   0.368   8.421  0.1750 -1.1552 -0.7679
   28MOL0     H 3633   5.777   0.315   8.407  2.0137  0.0699  0.7069
   28MOL0     H 3634   5.777   0.493   8.378  0.5675 -1.1410 -0.8146
   28MOL0     H 3635   5.549   0.446   8.339  4.5296  1.2377 -1.4302
   28MOL0     H 3636   5.562   0.524   8.486  2.4627  1.2809 -1.3091
   28MOL0     H 3637   5.540   0.315   8.606  0.9775  3.3808 -0.0817
   28MOL0     H 3638   5.530   0.218   8.455 -2.1017 -0.4583 -1.0495
   28MOL0     H 3639   5.320   0.430   8.496 -0.7248 -0.4590  0.5370
   28MOL0     H 3640   5.337   0.310   8.376  2.4428  1.6695 -0.7722
   28MOL0     H 3641   5.288   0.252   8.673  0.7504  0.5871 -0.0069
   28MOL0     H 3642   5.302   0.125   8.556 -1.1117 -0.4941  1.3936
   28MOL0     H 3643   5.091   0.182   8.440  0.0011 -2.6328  0.0097
   28MOL0     H 3644   5.084   0.330   8.542  0.6519 -0.1095 -0.3906
   28MOL0     H 3645   5.044   0.047   8.627 -1.5383 -0.3072 -3.6380
   28MOL0     H 3646   5.051   0.179   8.748  0.6071 -1.8293  1.0114
   28MOL0     H 3647   4.862   0.158   8.513 -3.8796 -2.1622  1.5364
   28MOL0     H 3648   4.865   0.292   8.624 -2.7445 -0.4425  0.2622
   28MOL0     H 3649   4.820   0.255   8.897  2.1006 -0.1029 -0.5832
   28MOL0     H 3650   4.648   0.170   9.101 -0.5307 -3.3207  3.3641
   28MOL0     H 3651   4.611   0.010   9.072  3.0273  1.3418  1.6532
   28MOL0     H 3652   4.387   0.118   9.080  0.1247  0.3595  0.6412
   28MOL0     H 3653   4.420   0.122   8.912 -0.6619 -0.7584  0.8610
   28MOL0     H 3654   4.504   0.364   9.088 -0.0015 -0.1865  0.0192
   28MOL0     H 3655   4.495   0.355   8.915 -0.9786  0.8750  0.4088
   28MOL0     H 3656   4.315   0.467   9.082 -2.2453 -1.5910  1.9656
   28MOL0     H 3657   4.258   0.306   9.107  1.4158 -1.3198  0.4202
   28MOL0     H 3658   4.107   0.406   8.682  0.2116 -0.2987 -0.4528
   28MOL0     H 3659   3.867   0.455   8.667 -0.6115 -0.6918 -0.0380
   28MOL0     H 3660   3.447   0.452   8.650 -5.7760  0.0860 -2.5694
   28MOL0     H 3661   3.215   0.531   8.663 -1.6180  0.7766  0.3054
   28MOL0     H 3662   3.108   0.701   8.964  0.9077  0.2314 -0.1373
   28MOL0     H 3663   3.070   0.556   8.864  0.5328 -0.3552  0.0565
   28MOL0     H 3664   2.866   0.713   8.773 -0.6785  2.9270  0.6098
   28MOL0     H 3665   2.932   0.818   8.895 -0.2671  0.3704 -0.9584
   28MOL0     H 3666   2.857   0.676   9.072  1.6695 -2.6632  0.5148
   28MOL0     H 3667   2.856   0.530   8.973  0.1867  0.6785 -1.0355
   28MOL0     H 3668   2.665   0.776   8.955  0.9705  0.2210  2.0800
   28MOL0     H 3669   2.648   0.627   8.858  2.0017 -1.9465  0.4372
   28MOL0     H 3670   2.632   0.661   9.151  3.2128  1.0255 -2.0895
   28MOL0     H 3671   2.633   0.500   9.075  1.8356  1.1733  1.2110
   28MOL0     H 3672   2.401   0.543   9.086  1.2193 -0.7712  0.1597
   28MOL0     H 3673   2.440   0.575   8.914  4.9896  2.1304 -0.9019
   28MOL0     H 3674   2.470   0.833   9.076 -1.1054 -0.3055  1.5598
   28MOL0     H 3675   2.411   0.782   8.916  0.9030 -1.0425  0.5834
   28MOL0     H 3676   2.254   0.877   9.107  1.0572  0.4930 -1.5803
   28MOL0     H 3677   2.258   0.705   9.162  0.3674 -0.7962  0.0499
   28MOL0     H 3678   3.338   0.887   8.865 -0.2632 -0.5238  0.2500
   28MOL0     H 3679   3.566   0.830   8.840 -0.1146  0.5885 -1.3891
   28MOL0     H 3680   3.853   0.498   9.093  1.1241 -0.9070  1.4429
   28MOL0     H 3681   4.076   0.425   9.118 -2.1534  2.5703  0.5239
   28MOL0     H 3682   5.836   0.337   8.803  0.5852 -1.6469  1.6433
   28MOL0     H 3683   6.037   0.229   8.893 -0.3213 -0.8087 -0.2894
   28MOL0     H 3684   6.483   0.302   8.786 -2.6883 -1.0784  2.0017
   28MOL0     H 3685   6.735   0.297   8.821  3.4272 -0.9693 -2.3531
   28MOL0     H 3686   6.945  -0.061   8.698 -0.8782 -0.2371  0.0024
   28MOL0     H 3687   6.920  -0.116   8.856 -3.8765  2.2163  1.3406
   28MOL0     H 3688   7.185  -0.061   8.792 -0.6842 -2.5911  0.9004
   28MOL0     H 3689   7.133   0.104   8.785  2.0149 -1.5026 -3.4936
   28MOL0     H 3690   7.074   0.120   9.002 -1.5388 -0.6880  1.8466
   28MOL0     H 3691   7.239   0.035   9.006  0.2655 -4.0200 -1.8164
   28MOL0     H 3692   6.976  -0.112   9.064 -0.0719 -0.2471  1.5315
   28MOL0     H 3693   7.114  -0.193   9.013  0.5767 -0.4628  0.7174
   28MOL0     H 3694   7.204  -0.105   9.417 -1.2368  1.5337  1.0954
   28MOL0     H 3695   6.710  -0.135   8.747 -2.9159 -0.7988 -0.8875
   28MOL0     H 3696   6.509  -0.108   8.668  1.2195 -0.3730 -3.3414
   29MOL0     O 3697   3.711   4.744   5.110  0.4901 -0.2312  0.3894
   29MOL0     C 3698   3.778   4.701   5.013 -0.6061 -0.4049 -0.7634
   29MOL0     O 3699   3.735   4.648   4.894 -0.5491  0.3474 -0.8312
   29MOL0     C 3700   3.597   4.628   4.868 -0.8595 -0.6665  0.6598
   29MOL0     C 3701   3.500   4.726   4.897 -0.0762 -0.3422  0.2654
   29MOL0     C 3702   3.364   4.699   4.869  0.1220  0.7141  0.7559
   29MOL0     C 3703   3.319   4.582   4.803 -0.2222  0.5211 -0.5905
   29MOL0     O 3704   3.190   4.564   4.783  0.3092  1.0790 -0.1299
   29MOL0     C 3705   3.151   4.438   4.732 -0.1328 -0.2992 -0.3455
   29MOL0     C 3706   2.998   4.460   4.718  0.0148  0.1285 -0.5287
   29MOL0     C 3707   2.962   4.538   4.594 -0.1056  0.6038 -0.6773
   29MOL0     C 3708   2.809   4.550   4.567 -0.5995  0.2569 -0.1373
   29MOL0     C 3709   2.788   4.673   4.476 -0.3223  1.1974  0.2232
   29MOL0     C 3710   2.819   4.813   4.527  0.2683 -0.0064 -0.1997
   29MOL0     C 3711   2.770   4.926   4.436 -0.0602  0.0547  0.3362
   29MOL0     C 3712   2.857   4.924   4.304  0.2791  0.0000 -0.5479
   29MOL0     N 3713   2.830   5.043   4.221  0.0317  0.2954  0.0022
   29MOL0     C 3714   2.743   5.051   4.116  0.4361 -0.5735 -0.1561
   29MOL0     C 3715   2.749   5.176   4.066  0.5889  0.3512  0.1567
   29MOL0     C 3716   2.658   5.261   3.966 -0.0903  0.5364 -1.0013
   29MOL0     C 3717   2.731   5.305   3.834 -0.2145  0.3485 -0.2682
   29MOL0     C 3718   2.644   5.400   3.746  0.4988  0.1623  0.1319
   29MOL0     C 3719   2.732   5.452   3.638 -0.4859  0.3075 -0.3756
   29MOL0     O 3720   2.763   5.349   3.540  0.4458  0.4621 -0.2842
   29MOL0     C 3721   2.667   5.305   3.454 -0.8828  0.4402  0.0569
   29MOL0     C 3722   2.541   5.367   3.424 -0.1871 -0.0753  0.1371
   29MOL0     C 3723   2.438   5.312   3.344 -0.7870  0.3207 -0.4608
   29MOL0     C 3724   2.463   5.184   3.291 -0.4628 -0.1526  0.6475
   29MOL0     C 3725   2.360   5.114   3.220  0.4850  0.4117 -1.1948
   29MOL0     O 3726   2.225   5.163   3.216  1.0363 -0.2004  0.1617
   29MOL0     C 3727   2.148   5.094   3.125 -0.6324 -0.6714 -0.1378
   29MOL0     C 3728   2.168   5.131   2.992 -0.2248  0.4444  0.6994
   29MOL0     C 3729   2.088   5.074   2.897  0.2395  0.8154  0.8275
   29MOL0     C 3730   1.985   4.985   2.927  0.3586 -0.0203  0.4672
   29MOL0     O 3731   1.914   4.951   2.809 -0.3231 -0.0769 -0.7264
   29MOL0     C 3732   1.784   4.890   2.822  0.7567  0.5929  0.6970
   29MOL0     C 3733   1.688   4.982   2.749  0.7949 -0.6842  0.1552
   29MOL0     C 3734   1.644   5.099   2.825  0.1398  0.4411 -0.9218
   29MOL0     C 3735   1.549   5.189   2.748  0.3767 -0.6664 -0.1526
   29MOL0     C 3736   1.486   5.288   2.852 -0.5018 -0.4184  0.4882
   29MOL0     C 3737   1.577   5.392   2.924 -0.7805 -0.5637 -0.1572
   29MOL0     C 3738   1.545   5.530   2.867 -0.3421 -0.5291  0.0021
   29MOL0     C 3739   1.417   5.595   2.920 -0.0115 -0.4061  1.0399
   29MOL0    Cl 3740   1.449   5.644   3.093 -0.2382 -0.3408  0.1437
   29MOL0     C 3741   1.965   4.944   3.061 -0.8286  0.0820 -0.6070
   29MOL0     C 3742   2.047   5.005   3.161 -0.9340 -0.0855  0.0859
   29MOL0     O 3743   2.407   5.020   3.159 -0.0771  0.5432  0.2820
   29MOL0     C 3744   2.587   5.121   3.321 -0.6046 -0.8118 -0.4156
   29MOL0     C 3745   2.694   5.192   3.386 -0.7770 -0.3769 -0.0285
   29MOL0     N 3746   2.841   5.250   4.136 -0.3229  0.3333 -0.4839
   29MOL0     N 3747   2.887   5.165   4.235 -0.2857  0.0207  0.2523
   29MOL0     C 3748   3.428   4.496   4.761 -0.1400 -0.2615  0.3915
   29MOL0     C 3749   3.559   4.521   4.792  0.6816 -0.0699 -0.0876
   29MOL0     C 3750   3.924   4.710   5.036  0.3339 -0.5083  0.4566
   29MOL0     C 3751   4.022   4.647   4.955  1.1449  0.7973  0.2302
   29MOL0     C 3752   4.159   4.663   4.967 -0.4673  0.4621 -0.1195
   29MOL0     C 3753   4.210   4.742   5.075  0.4393 -0.1891 -0.2268
   29MOL0     O 3754   4.351   4.749   5.079 -0.3016  0.4405 -0.6954
   29MOL0     C 3755   4.410   4.837   5.182  0.0117  0.3061 -0.4081
   29MOL0     C 3756   4.566   4.865   5.191  1.3042  0.0811  0.0250
   29MOL0     C 3757   4.644   4.744   5.240 -0.4458 -0.2388  0.2205
   29MOL0     C 3758   4.792   4.770   5.262 -0.9126 -0.2635 -0.3922
   29MOL0     C 3759   4.821   4.866   5.360  0.4843 -0.1669 -0.5706
   29MOL0     C 3760   4.862   4.927   5.457  0.6430  0.1790 -0.1159
   29MOL0     C 3761   4.116   4.808   5.153  0.7352  0.3589  0.0754
   29MOL0     C 3762   3.976   4.792   5.134 -0.7728 -0.5279 -0.4620
   29MOL0     H 3763   3.532   4.820   4.939 -0.4713  0.3220 -0.8740
   29MOL0     H 3764   3.284   4.773   4.873  0.0478  0.8456 -1.6679
   29MOL0     H 3765   3.173   4.351   4.795 -0.2035  0.0218  0.1230
   29MOL0     H 3766   3.197   4.419   4.634  3.1565 -3.2185  1.5487
   29MOL0     H 3767   2.955   4.495   4.812  0.7171  0.3106 -0.2703
   29MOL0     H 3768   2.946   4.364   4.711 -1.7474  0.9901  0.0871
   29MOL0     H 3769   3.008   4.496   4.504  2.5568  0.4984  0.6523
   29MOL0     H 3770   2.996   4.641   4.611 -0.7694  0.3998  2.3237
   29MOL0     H 3771   2.758   4.459   4.536 -4.7039  1.8819  1.1988
   29MOL0     H 3772   2.773   4.574   4.667  0.4703  1.4323  0.0008
   29MOL0     H 3773   2.692   4.668   4.423 -1.2550 -1.9608  1.9411
   29MOL0     H 3774   2.858   4.651   4.394  0.5701 -0.1461  1.3092
   29MOL0     H 3775   2.922   4.827   4.559  0.1835  1.0097 -0.3210
   29MOL0     H 3776   2.767   4.830   4.621 -0.5657  0.0096 -0.6544
   29MOL0     H 3777   2.664   4.902   4.421 -0.5821  2.7942 -0.9551
   29MOL0     H 3778   2.774   5.020   4.493 -0.9666  0.2953  0.0149
   29MOL0     H 3779   2.833   4.835   4.245  0.2060 -0.0463 -0.4468
   29MOL0     H 3780   2.960   4.934   4.339  0.1920 -2.6130  0.6617
   29MOL0     H 3781   2.682   4.972   4.074 -0.4847  0.2942 -0.4976
   29MOL0     H 3782   2.631   5.354   4.016 -3.0250 -0.3403 -0.7535
   29MOL0     H 3783   2.561   5.213   3.949 -1.7642  3.6142 -0.8691
   29MOL0     H 3784   2.782   5.221   3.787  0.5991  1.9532 -2.3738
   29MOL0     H 3785   2.817   5.362   3.870  0.9382 -1.5223  0.0614
   29MOL0     H 3786   2.563   5.339   3.706  0.4038 -0.8971  1.8183
   29MOL0     H 3787   2.600   5.476   3.812 -1.9069 -0.1061 -1.0703
   29MOL0     H 3788   2.826   5.492   3.679 -1.2390  1.3472  0.3767
   29MOL0     H 3789   2.690   5.537   3.584 -0.8168  0.5267  0.2208
   29MOL0     H 3790   2.523   5.465   3.467  2.2095  0.7440 -0.5711
   29MOL0     H 3791   2.346   5.369   3.334  0.8808  3.1032 -0.8423
   29MOL0     H 3792   2.230   5.213   2.959 -1.1562  1.3317  1.0904
   29MOL0     H 3793   2.086   5.114   2.796 -2.3059 -1.3515 -0.1107
   29MOL0     H 3794   1.748   4.877   2.925  2.6040  0.4063  1.3565
   29MOL0     H 3795   1.789   4.796   2.767  0.4895  1.4288 -0.8120
   29MOL0     H 3796   1.600   4.921   2.730  1.7256 -1.5388 -1.7020
   29MOL0     H 3797   1.713   5.020   2.650  1.2786  1.7099  1.1132
   29MOL0     H 3798   1.726   5.153   2.872 -0.9279  0.0988  1.5205
   29MOL0     H 3799   1.597   5.061   2.917  0.0739 -2.9419 -2.2194
   29MOL0     H 3800   1.603   5.242   2.669 -0.2036 -0.7083 -0.5834
   29MOL0     H 3801   1.468   5.134   2.698  0.8527 -0.5284 -1.1017
   29MOL0     H 3802   1.429   5.229   2.925 -1.7817  1.7713  1.3673
   29MOL0     H 3803   1.408   5.346   2.801 -1.4470  0.8805  3.2034
   29MOL0     H 3804   1.679   5.364   2.895 -0.8479  0.5991 -1.6537
   29MOL0     H 3805   1.570   5.391   3.033  1.1288 -0.5300  0.0087
   29MOL0     H 3806   1.628   5.596   2.892  1.7055 -2.8093 -0.4744
   29MOL0     H 3807   1.540   5.527   2.757 -4.0167 -1.8957  0.0476
   29MOL0     H 3808   1.342   5.516   2.924  0.1228 -0.4843  2.6149
   29MOL0     H 3809   1.373   5.676   2.862  0.6825 -0.0134  1.0522
   29MOL0     H 3810   1.903   4.857   3.080 -0.3339  0.2980  2.3543
   29MOL0     H 3811   2.028   4.975   3.264 -1.3032  0.5657  0.2146
   29MOL0     H 3812   2.627   5.030   3.278 -0.3251 -1.2639  0.7578
   29MOL0     H 3813   2.778   5.125   3.401 -0.4996 -0.1220 -0.4201
   29MOL0     H 3814   3.401   4.409   4.701  2.0828 -0.6775 -0.0909
   29MOL0     H 3815   3.634   4.448   4.763  0.6936 -1.3490  2.8030
   29MOL0     H 3816   3.981   4.580   4.881 -1.1364  1.4547  0.8131
   29MOL0     H 3817   4.237   4.614   4.909  0.1229  2.7760 -1.3859
   29MOL0     H 3818   4.373   4.794   5.276  1.4998 -0.3540 -0.0931
   29MOL0     H 3819   4.359   4.932   5.167  1.6183  1.7448  2.4445
   29MOL0     H 3820   4.597   4.890   5.089 -1.4540 -2.8729 -1.7154
   29MOL0     H 3821   4.588   4.951   5.255 -1.6237  0.9439 -0.0081
   29MOL0     H 3822   4.630   4.672   5.159 -1.1536  1.6596 -1.4073
   29MOL0     H 3823   4.603   4.705   5.334 -0.7585  1.3021  0.7567
   29MOL0     H 3824   4.823   4.670   5.295 -1.9242 -0.5125 -0.1739
   29MOL0     H 3825   4.833   4.799   5.165 -1.1117  0.6235 -0.2207
   29MOL0     H 3826   4.888   4.983   5.545  0.0081 -0.0737  0.2345
   29MOL0     H 3827   4.151   4.878   5.228  1.2001  1.1512 -0.8517
   29MOL0     H 3828   3.915   4.858   5.196 -0.0014  0.8302 -1.1135
   30MOL0     O 3829   4.974   2.373   4.941  0.1217  0.1515  1.2202
   30MOL0     C 3830   5.003   2.255   4.956  0.3859 -0.2083 -0.5352
   30MOL0     O 3831   4.921   2.149   4.954 -0.4892 -0.0331  0.0757
   30MOL0     C 3832   4.789   2.149   4.903  0.1285 -0.1563  0.5266
   30MOL0     C 3833   4.693   2.260   4.906 -0.5956  0.4715 -0.1441
   30MOL0     C 3834   4.569   2.239   4.838 -0.0801 -0.1919 -0.8449
   30MOL0     C 3835   4.534   2.121   4.787  0.4007 -0.2734  0.1436
   30MOL0     O 3836   4.417   2.090   4.724  0.2071  0.7626  0.7553
   30MOL0     C 3837   4.304   2.170   4.759  0.3802 -0.1375 -0.8033
   30MOL0     C 3838   4.189   2.078   4.733  0.4174 -0.0795  0.3654
   30MOL0     C 3839   4.045   2.146   4.765  0.0518 -0.5356  0.0134
   30MOL0     C 3840   3.937   2.038   4.779  0.3588  0.0609 -0.7270
   30MOL0     C 3841   3.795   2.106   4.795  0.8249  0.2517  0.4408
   30MOL0     C 3842   3.679   2.004   4.815  0.1668 -0.4008  0.2821
   30MOL0     C 3843   3.613   1.953   4.690 -0.5536 -0.0774  0.2012
   30MOL0     C 3844   3.526   1.833   4.731 -0.2248  0.2864  0.0782
   30MOL0     N 3845   3.447   1.793   4.620  0.0199 -0.3957  0.1174
   30MOL0     C 3846   3.322   1.850   4.583  0.4264  0.3423  0.6357
   30MOL0     C 3847   3.276   1.773   4.487 -0.3673  0.7405  0.5823
   30MOL0     C 3848   3.135   1.769   4.425 -0.4919 -0.4683  0.5861
   30MOL0     C 3849   3.118   1.890   4.342  0.0792 -1.1576  0.1764
   30MOL0     C 3850   2.984   1.905   4.266 -0.0705 -0.1835  0.5475
   30MOL0     C 3851   2.949   1.796   4.166 -0.3113  0.3808  0.2122
   30MOL0     O 3852   2.829   1.829   4.099 -0.3508 -1.2063  0.3511
   30MOL0     C 3853   2.718   1.786   4.167  0.0120 -0.2413 -0.6772
   30MOL0     C 3854   2.634   1.874   4.239 -0.0197 -0.1027 -0.6595
   30MOL0     C 3855   2.513   1.834   4.300  0.1968  1.0164 -0.0073
   30MOL0     C 3856   2.485   1.696   4.306 -0.9610 -0.0998  0.2652
   30MOL0     C 3857   2.376   1.644   4.386  0.4621  0.2679 -0.5648
   30MOL0     O 3858   2.304   1.729   4.468  0.3608  0.5032  0.7671
   30MOL0     C 3859   2.185   1.701   4.545  0.0199  0.4650  0.3079
   30MOL0     C 3860   2.073   1.640   4.487  0.5594 -0.1390  0.1612
   30MOL0     C 3861   1.953   1.623   4.564 -1.0077  0.1272  0.3011
   30MOL0     C 3862   1.936   1.674   4.689  0.0037 -0.3174  1.0646
   30MOL0     O 3863   1.829   1.661   4.778  0.7184  0.6017  0.2908
   30MOL0     C 3864   1.704   1.682   4.715  0.3594 -0.3373  0.6085
   30MOL0     C 3865   1.599   1.720   4.817 -0.4948  0.3481  0.1732
   30MOL0     C 3866   1.557   1.608   4.910  0.1266 -0.2824  0.6611
   30MOL0     C 3867   1.454   1.655   5.017  0.5737  0.3810 -0.0500
   30MOL0     C 3868   1.357   1.532   5.041  0.6397 -0.3972 -0.5158
   30MOL0     C 3869   1.427   1.420   5.113  0.1268 -0.2383  0.3624
   30MOL0     C 3870   1.326   1.314   5.169  0.0289 -0.1419  0.4321
   30MOL0     C 3871   1.372   1.212   5.265  0.1408  0.0785 -0.6960
   30MOL0    Cl 3872   1.512   1.105   5.208 -0.0922  0.1832  0.1464
   30MOL0     C 3873   2.042   1.753   4.735  0.1778 -0.6060  0.1865
   30MOL0     C 3874   2.166   1.766   4.665 -0.4880 -1.0972  0.0144
   30MOL0     O 3875   2.352   1.524   4.366 -0.7355  0.0230  1.4271
   30MOL0     C 3876   2.571   1.607   4.246  0.1549 -0.4961 -0.1410
   30MOL0     C 3877   2.687   1.649   4.172  0.8452 -0.1366 -0.2502
   30MOL0     N 3878   3.377   1.686   4.447 -0.2853  1.0963 -0.3197
   30MOL0     N 3879   3.474   1.690   4.536  0.0789 -0.4530 -0.4026
   30MOL0     C 3880   4.621   2.020   4.791 -1.2566 -0.4425 -0.4227
   30MOL0     C 3881   4.749   2.035   4.841 -0.8304  0.1260 -0.1366
   30MOL0     C 3882   5.142   2.234   4.980  0.2421  0.8140  0.7396
   30MOL0     C 3883   5.192   2.103   4.963  0.2302  0.7659  0.8123
   30MOL0     C 3884   5.333   2.079   4.982 -0.3617  0.4689 -0.3730
   30MOL0     C 3885   5.419   2.189   5.014 -0.7618 -0.2996  0.0226
   30MOL0     O 3886   5.559   2.185   5.023 -0.6108  0.1788 -0.1429
   30MOL0     C 3887   5.624   2.055   5.015  0.1411 -0.0311  0.3166
   30MOL0     C 3888   5.754   2.053   5.083  0.1725 -0.5705  0.1981
   30MOL0     C 3889   5.847   1.938   5.028 -0.1390  0.0182 -1.2510
   30MOL0     C 3890   5.981   1.940   5.114 -0.3599  1.1354  0.6397
   30MOL0     C 3891   5.969   1.861   5.241  1.9077 -0.4048  0.1602
   30MOL0     C 3892   5.976   1.801   5.341 -0.1896  0.2558 -1.0882
   30MOL0     C 3893   5.363   2.315   5.043  0.1287  0.0468 -0.2675
   30MOL0     C 3894   5.221   2.333   5.031  0.4432  0.1299  0.7041
   30MOL0     H 3895   4.728   2.355   4.945 -1.5058  0.7758 -0.0246
   30MOL0     H 3896   4.487   2.310   4.846  0.2474 -0.0003  1.6460
   30MOL0     H 3897   4.304   2.268   4.709 -0.2746  1.3217  1.8562
   30MOL0     H 3898   4.295   2.185   4.867 -0.7696 -2.4476 -0.5293
   30MOL0     H 3899   4.190   1.995   4.805 -2.1728  0.2547  0.8773
   30MOL0     H 3900   4.194   2.044   4.630  5.5759  0.1034  0.3059
   30MOL0     H 3901   4.027   2.226   4.691 -0.8324  2.2664  3.0136
   30MOL0     H 3902   4.064   2.195   4.861  0.7631 -2.5462  0.9494
   30MOL0     H 3903   3.940   1.966   4.696  2.5198  1.5462 -2.0456
   30MOL0     H 3904   3.953   1.982   4.871  0.5258  1.9491  0.4413
   30MOL0     H 3905   3.759   2.161   4.708 -0.8421  1.3668  1.7779
   30MOL0     H 3906   3.802   2.163   4.889 -1.4235 -1.5932  1.8459
   30MOL0     H 3907   3.600   2.044   4.879  1.9486  1.3270  1.5510
   30MOL0     H 3908   3.718   1.919   4.873  0.5679 -0.8435 -0.6252
   30MOL0     H 3909   3.553   2.033   4.645 -0.8943  0.2013  1.1193
   30MOL0     H 3910   3.685   1.920   4.615  0.2891  1.8496  0.1100
   30MOL0     H 3911   3.451   1.855   4.807 -2.4146  1.4607 -2.2623
   30MOL0     H 3912   3.592   1.752   4.764 -1.8429 -2.3850 -2.7322
   30MOL0     H 3913   3.272   1.932   4.631 -0.3667 -0.3541  1.0204
   30MOL0     H 3914   3.068   1.769   4.511  1.7791  0.8470  2.4926
   30MOL0     H 3915   3.120   1.678   4.367 -0.4477  1.3857 -2.5829
   30MOL0     H 3916   3.184   1.892   4.254 -0.4920  3.6429 -0.3917
   30MOL0     H 3917   3.142   1.980   4.399  2.7809  0.1496 -2.7077
   30MOL0     H 3918   2.903   1.925   4.337 -0.5944  0.0523 -0.1068
   30MOL0     H 3919   2.989   1.997   4.207  0.0244 -1.2041 -1.0994
   30MOL0     H 3920   2.934   1.701   4.218  1.2588  0.8189  1.5675
   30MOL0     H 3921   3.035   1.782   4.100 -1.3360  0.3295 -1.1274
   30MOL0     H 3922   2.661   1.979   4.245  1.3178 -0.4920  3.5690
   30MOL0     H 3923   2.447   1.893   4.363 -1.5381 -2.2950  1.5043
   30MOL0     H 3924   2.075   1.595   4.388  1.4908  2.7953 -1.2910
   30MOL0     H 3925   1.864   1.575   4.526 -0.0067 -1.3687 -0.2693
   30MOL0     H 3926   1.663   1.599   4.657  0.5223 -0.2238  0.3313
   30MOL0     H 3927   1.718   1.766   4.647 -0.2418  1.5572  2.7149
   30MOL0     H 3928   1.516   1.753   4.754  0.8832 -1.6773 -2.9698
   30MOL0     H 3929   1.629   1.805   4.878  0.4512 -0.3040  0.6520
   30MOL0     H 3930   1.643   1.559   4.957  0.0583 -0.2033  0.8687
   30MOL0     H 3931   1.507   1.537   4.843 -0.2727 -0.0680  0.7327
   30MOL0     H 3932   1.508   1.683   5.108  0.2111  0.2400  0.2084
   30MOL0     H 3933   1.388   1.737   4.987  1.7630  1.9281  1.3239
   30MOL0     H 3934   1.306   1.504   4.949  0.0935 -2.2016  0.3001
   30MOL0     H 3935   1.274   1.568   5.101  0.4318 -1.1671 -0.3350
   30MOL0     H 3936   1.483   1.465   5.195  1.0979  0.8026 -0.8304
   30MOL0     H 3937   1.504   1.374   5.050  3.6858 -0.4275  4.3600
   30MOL0     H 3938   1.244   1.365   5.220  0.9522 -0.4845  2.3403
   30MOL0     H 3939   1.275   1.269   5.083 -0.7580  1.6155 -0.0850
   30MOL0     H 3940   1.288   1.147   5.290  1.9827 -1.6789  1.4150
   30MOL0     H 3941   1.408   1.256   5.359  1.2167 -0.2604 -0.9303
   30MOL0     H 3942   2.044   1.797   4.834 -3.2231 -1.6381  0.8670
   30MOL0     H 3943   2.246   1.828   4.704  0.3466 -1.8477 -0.4488
   30MOL0     H 3944   2.544   1.502   4.248  1.3237 -0.8211 -0.4576
   30MOL0     H 3945   2.733   1.574   4.109 -0.1843  1.3527 -2.9309
   30MOL0     H 3946   4.597   1.923   4.748 -2.0097 -0.4965  0.1131
   30MOL0     H 3947   4.823   1.955   4.847  0.1527  1.1414  2.4553
   30MOL0     H 3948   5.138   2.012   4.939  2.1425 -0.4008  0.7788
   30MOL0     H 3949   5.379   1.986   4.951 -0.1802  0.8703 -1.3655
   30MOL0     H 3950   5.654   2.020   4.915  1.0779 -0.9189  0.8861
   30MOL0     H 3951   5.569   1.979   5.071  0.3725 -2.8969 -2.9659
   30MOL0     H 3952   5.802   2.148   5.057 -0.1864  0.3307  2.5996
   30MOL0     H 3953   5.744   2.045   5.191 -0.0334 -0.8724  0.1564
   30MOL0     H 3954   5.872   1.956   4.923 -1.5292  0.5537 -1.5145
   30MOL0     H 3955   5.803   1.837   5.032  3.4604 -1.6681 -0.1072
   30MOL0     H 3956   6.063   1.911   5.047 -1.1405  2.5601 -1.0430
   30MOL0     H 3957   5.998   2.043   5.147 -0.4549  2.1494 -2.1991
   30MOL0     H 3958   6.003   1.746   5.429  1.2780 -0.8722 -2.1974
   30MOL0     H 3959   5.424   2.402   5.066  0.1174 -0.0211  0.0217
   30MOL0     H 3960   5.180   2.427   5.067  1.4213 -0.5408  3.8952
   31MOL0     O 3961   4.391   7.161   6.914 -0.3077  0.3836 -0.5894
   31MOL0     C 3962   4.458   7.180   7.016 -0.9318  1.4487  1.1693
   31MOL0     O 3963   4.408   7.179   7.136  0.3164 -0.4338  0.0715
   31MOL0     C 3964   4.268   7.200   7.142 -0.1972  0.6566 -0.6322
   31MOL0     C 3965   4.183   7.104   7.190  0.0909 -0.4098  0.2810
   31MOL0     C 3966   4.050   7.149   7.230 -0.1431  1.3851  0.9810
   31MOL0     C 3967   4.000   7.273   7.197 -0.2212 -0.3308 -0.4110
   31MOL0     O 3968   3.869   7.296   7.231 -0.1091  0.0198  0.5032
   31MOL0     C 3969   3.868   7.408   7.316  0.7775 -0.0964 -0.2859
   31MOL0     C 3970   3.746   7.389   7.404  0.5147  0.5702  0.1964
   31MOL0     C 3971   3.714   7.491   7.509 -0.3973  0.2913  0.2224
   31MOL0     C 3972   3.664   7.624   7.450 -0.3909 -0.8600  0.4133
   31MOL0     C 3973   3.641   7.722   7.563 -0.5060  0.4774  0.8314
   31MOL0     C 3974   3.598   7.860   7.512 -0.3358 -0.5846  0.7295
   31MOL0     C 3975   3.555   7.954   7.627  0.2228  0.4074 -0.1161
   31MOL0     C 3976   3.514   8.099   7.584 -0.2719  0.6414 -0.3962
   31MOL0     N 3977   3.405   8.095   7.489  0.2254 -0.1178  0.1739
   31MOL0     C 3978   3.271   8.086   7.512  0.2628  0.4820 -0.1980
   31MOL0     C 3979   3.215   8.062   7.390 -0.3138  0.1398  0.4007
   31MOL0     C 3980   3.076   8.052   7.345  0.0207  0.5009 -0.3121
   31MOL0     C 3981   2.985   8.008   7.453  0.0807 -0.2982 -0.2938
   31MOL0     C 3982   2.844   7.982   7.395 -0.3276  0.1087  0.1348
   31MOL0     C 3983   2.768   8.090   7.323 -0.2278 -0.4440  0.8821
   31MOL0     O 3984   2.636   8.037   7.277  0.1613 -0.4131 -0.1085
   31MOL0     C 3985   2.595   8.056   7.145  0.5502  0.0097  0.3113
   31MOL0     C 3986   2.602   8.179   7.074  0.9665 -0.3301 -0.8338
   31MOL0     C 3987   2.526   8.193   6.951  0.0128  0.8969  0.2987
   31MOL0     C 3988   2.450   8.091   6.899  0.9332  0.7095 -0.8006
   31MOL0     C 3989   2.353   8.107   6.781  1.2320 -0.2808  0.2119
   31MOL0     O 3990   2.273   7.999   6.749 -0.0082 -0.3174  0.4207
   31MOL0     C 3991   2.177   8.012   6.651  0.2653 -0.2348 -0.8114
   31MOL0     C 3992   2.080   8.108   6.668  0.4314 -0.7393 -0.4219
   31MOL0     C 3993   1.980   8.123   6.577 -0.8395  0.2508 -0.8439
   31MOL0     C 3994   1.973   8.040   6.461  0.3759 -0.1346  0.8502
   31MOL0     O 3995   1.873   8.055   6.355 -0.4044 -0.4110  0.1710
   31MOL0     C 3996   1.760   8.144   6.372 -0.5961  0.3127 -0.1740
   31MOL0     C 3997   1.664   8.123   6.256  1.2924  0.1970 -0.6874
   31MOL0     C 3998   1.536   8.219   6.266 -0.8612 -0.7157 -0.0520
   31MOL0     C 3999   1.433   8.173   6.158 -0.1073 -0.3702  0.3488
   31MOL0     C 4000   1.286   8.232   6.187 -0.8082  0.4698 -0.0840
   31MOL0     C 4001   1.236   8.369   6.145 -0.0042  0.4195 -0.9171
   31MOL0     C 4002   1.313   8.477   6.215 -0.5986  0.1751  0.1560
   31MOL0     C 4003   1.246   8.619   6.167 -0.3813  0.5119  0.1567
   31MOL0    Cl 4004   1.339   8.746   6.247 -0.2753 -0.5741 -0.1651
   31MOL0     C 4005   2.065   7.935   6.458  0.3329  1.0462  0.0109
   31MOL0     C 4006   2.168   7.925   6.547 -0.4041  0.0266 -0.3861
   31MOL0     O 4007   2.356   8.210   6.717  0.2620 -0.2076 -0.3264
   31MOL0     C 4008   2.450   7.972   6.969 -0.3140  0.0801 -0.2425
   31MOL0     C 4009   2.525   7.954   7.087  0.7162  0.2551 -0.7169
   31MOL0     N 4010   3.319   8.047   7.296 -0.3124 -0.6404 -0.4024
   31MOL0     N 4011   3.424   8.094   7.355  0.3312  0.5143 -0.5349
   31MOL0     C 4012   4.086   7.368   7.146 -1.0272  0.4112  0.2015
   31MOL0     C 4013   4.221   7.331   7.123  0.5884 -0.3710  0.5304
   31MOL0     C 4014   4.607   7.199   6.996 -0.1499 -0.3607  0.5924
   31MOL0     C 4015   4.665   7.199   6.858  0.2094  0.2226  0.1935
   31MOL0     C 4016   4.803   7.214   6.837  0.2441  0.1640  0.6969
   31MOL0     C 4017   4.882   7.226   6.949  0.1323  0.0073 -0.1260
   31MOL0     O 4018   5.019   7.224   6.935  0.3683  0.1602 -0.1990
   31MOL0     C 4019   5.096   7.165   6.827  0.5806  0.7299  0.2976
   31MOL0     C 4020   5.162   7.276   6.757 -0.7817  0.1432 -0.4416
   31MOL0     C 4021   5.244   7.212   6.640 -0.2602 -1.1036  1.1059
   31MOL0     C 4022   5.329   7.310   6.570 -0.2360  0.0426  0.6318
   31MOL0     C 4023   5.453   7.345   6.638  0.4712  0.8869  0.0248
   31MOL0     C 4024   5.564   7.381   6.679  0.4996 -0.3175 -0.2715
   31MOL0     C 4025   4.833   7.228   7.084 -0.5644  0.4813  0.2119
   31MOL0     C 4026   4.698   7.209   7.107  0.5048  0.7259  0.0926
   31MOL0     H 4027   4.205   7.001   7.217 -0.6253 -0.3013  1.3508
   31MOL0     H 4028   3.988   7.075   7.280  1.8691 -2.0688 -1.1899
   31MOL0     H 4029   3.846   7.504   7.269  1.0612 -0.4633 -1.1790
   31MOL0     H 4030   3.958   7.414   7.378  1.3544 -2.8689 -0.6967
   31MOL0     H 4031   3.764   7.291   7.448  0.8572  1.4225  2.0461
   31MOL0     H 4032   3.660   7.385   7.336 -0.6999 -1.7656  1.7537
   31MOL0     H 4033   3.803   7.523   7.564 -1.0400  1.8801  0.4044
   31MOL0     H 4034   3.644   7.449   7.583 -1.4157  1.7708  0.1592
   31MOL0     H 4035   3.735   7.661   7.375  0.6549 -2.0820  0.7521
   31MOL0     H 4036   3.570   7.605   7.399 -0.3913 -0.4755  0.2679
   31MOL0     H 4037   3.732   7.727   7.624 -0.0329  0.3878  0.1435
   31MOL0     H 4038   3.565   7.684   7.632  0.0476 -3.0822 -0.2932
   31MOL0     H 4039   3.507   7.845   7.452  0.4451 -2.0288 -0.1517
   31MOL0     H 4040   3.669   7.918   7.453  2.0795  0.5769  4.4736
   31MOL0     H 4041   3.469   7.913   7.680 -0.6706 -0.3149 -2.0355
   31MOL0     H 4042   3.637   7.957   7.700 -0.3952 -0.0472  0.6119
   31MOL0     H 4043   3.601   8.149   7.540 -0.0432 -0.8975 -1.7909
   31MOL0     H 4044   3.494   8.167   7.667  3.1216 -0.7103  1.7669
   31MOL0     H 4045   3.214   8.093   7.604  1.2778  0.2772  0.4611
   31MOL0     H 4046   3.078   7.975   7.268 -1.4739  0.5143 -0.3910
   31MOL0     H 4047   3.047   8.149   7.304  2.9843  2.2283  1.3217
   31MOL0     H 4048   2.986   8.092   7.523  0.2644 -0.9351  0.4872
   31MOL0     H 4049   3.030   7.923   7.505  1.7499  0.1264 -0.9772
   31MOL0     H 4050   2.854   7.888   7.339 -1.2193 -1.6250  2.7207
   31MOL0     H 4051   2.779   7.960   7.480 -3.2345  0.7701 -1.7698
   31MOL0     H 4052   2.827   8.131   7.241  1.0099 -0.5103  1.7078
   31MOL0     H 4053   2.748   8.172   7.392  1.2856 -0.0696  0.9129
   31MOL0     H 4054   2.657   8.258   7.124 -1.9573  0.8075  0.8400
   31MOL0     H 4055   2.525   8.290   6.901 -0.5592  0.0144 -1.5075
   31MOL0     H 4056   2.098   8.188   6.739 -0.7368 -0.5250 -0.3466
   31MOL0     H 4057   1.922   8.212   6.597 -1.1234 -0.0126 -0.4923
   31MOL0     H 4058   1.780   8.251   6.373 -1.9164  0.7143 -3.7245
   31MOL0     H 4059   1.701   8.112   6.458 -0.9126 -2.5218 -1.3028
   31MOL0     H 4060   1.628   8.020   6.260  1.4155  0.1990  0.9563
   31MOL0     H 4061   1.714   8.130   6.159  1.1529  0.9753 -0.7039
   31MOL0     H 4062   1.561   8.321   6.237 -1.0164 -0.9115 -0.8898
   31MOL0     H 4063   1.506   8.212   6.371 -0.4230  2.3675  0.3573
   31MOL0     H 4064   1.450   8.222   6.061 -1.5557 -3.1152 -1.4240
   31MOL0     H 4065   1.435   8.064   6.151  0.5510 -0.4287  1.2729
   31MOL0     H 4066   1.258   8.217   6.292  0.7945 -1.9362  0.0954
   31MOL0     H 4067   1.218   8.164   6.134 -2.1881 -2.6007  4.9345
   31MOL0     H 4068   1.129   8.375   6.169 -0.7506  0.5119 -3.8461
   31MOL0     H 4069   1.238   8.373   6.036 -0.8633 -1.0297 -1.0076
   31MOL0     H 4070   1.316   8.463   6.323  0.9642 -0.7416  0.0208
   31MOL0     H 4071   1.418   8.466   6.188 -0.2766  1.1545  0.9663
   31MOL0     H 4072   1.142   8.616   6.201 -1.8467 -0.3273 -3.8337
   31MOL0     H 4073   1.232   8.634   6.060 -1.4973  2.6137  0.5392
   31MOL0     H 4074   2.057   7.869   6.372 -0.0287  0.0998  0.7535
   31MOL0     H 4075   2.249   7.854   6.543  1.2011  1.6811  0.7518
   31MOL0     H 4076   2.392   7.884   6.942 -0.8279 -0.7436  3.1170
   31MOL0     H 4077   2.520   7.870   7.155 -0.6179  2.3307  1.9554
   31MOL0     H 4078   4.062   7.473   7.132 -0.9555  0.8939  3.0462
   31MOL0     H 4079   4.292   7.412   7.109  3.4194 -2.3881  2.1677
   31MOL0     H 4080   4.602   7.177   6.772  0.9613 -2.2622  0.2116
   31MOL0     H 4081   4.840   7.215   6.735  0.6640 -4.4625  0.5596
   31MOL0     H 4082   5.037   7.105   6.757 -0.0696  2.3514 -0.5886
   31MOL0     H 4083   5.166   7.090   6.864  0.3286  1.2791  2.0015
   31MOL0     H 4084   5.085   7.340   6.713  0.6959  1.2090 -1.6425
   31MOL0     H 4085   5.229   7.328   6.826  1.8531  1.5669 -3.7429
   31MOL0     H 4086   5.171   7.171   6.569  0.7361 -1.7737  0.4458
   31MOL0     H 4087   5.302   7.128   6.680  0.5724 -1.7822 -1.3575
   31MOL0     H 4088   5.350   7.275   6.468 -1.0746  2.1860 -0.3550
   31MOL0     H 4089   5.279   7.407   6.565 -1.0618 -0.3232  1.4813
   31MOL0     H 4090   5.660   7.424   6.700  0.2148 -0.1518  0.7591
   31MOL0     H 4091   4.910   7.237   7.159  1.5379  1.0278 -1.9075
   31MOL0     H 4092   4.653   7.218   7.205  4.3807  3.5282  1.9203
   32MOL0     O 4093   4.054   5.939   9.574  0.3600 -0.2555  0.2718
   32MOL0     C 4094   4.050   5.882   9.678  0.3198  0.4082  0.5255
   32MOL0     O 4095   4.158   5.813   9.738 -0.0759  0.5585  0.1808
   32MOL0     C 4096   4.276   5.820   9.670  0.1248 -1.1940  0.0943
   32MOL0     C 4097   4.357   5.701   9.674  1.4853 -0.4229 -0.0948
   32MOL0     C 4098   4.485   5.696   9.630 -0.9523 -0.8918  1.1189
   32MOL0     C 4099   4.532   5.808   9.565  0.2174 -0.0110 -0.4071
   32MOL0     O 4100   4.661   5.799   9.521 -0.5313  0.1689 -0.1002
   32MOL0     C 4101   4.693   5.849   9.393 -0.9674  0.1412  0.6795
   32MOL0     C 4102   4.622   5.788   9.275  0.4835 -1.0446 -0.4004
   32MOL0     C 4103   4.621   5.632   9.292  0.4939 -0.3189  0.9654
   32MOL0     C 4104   4.541   5.584   9.162  0.2976 -0.8117 -0.1477
   32MOL0     C 4105   4.546   5.431   9.145  0.6916  0.7455 -0.5425
   32MOL0     C 4106   4.507   5.338   9.264  0.7629 -0.4547  0.2071
   32MOL0     C 4107   4.369   5.374   9.317  0.4277  0.0638  1.1505
   32MOL0     C 4108   4.339   5.290   9.447 -0.0676 -0.7360 -0.0019
   32MOL0     N 4109   4.197   5.289   9.480  0.3616  0.6571 -0.7171
   32MOL0     C 4110   4.112   5.390   9.497 -0.2595 -0.4460  0.3695
   32MOL0     C 4111   3.989   5.338   9.534 -0.7310 -0.5258  0.1028
   32MOL0     C 4112   3.867   5.424   9.553  0.6881 -0.5265  0.3463
   32MOL0     C 4113   3.847   5.444   9.702 -0.0565  0.1397  0.3513
   32MOL0     C 4114   3.717   5.524   9.733 -0.3880  0.3774 -0.7676
   32MOL0     C 4115   3.593   5.440   9.723 -0.4958  0.0886  0.1466
   32MOL0     O 4116   3.479   5.523   9.742 -0.1323 -0.7351  0.3026
   32MOL0     C 4117   3.370   5.490   9.674  0.2914 -0.8387 -0.4814
   32MOL0     C 4118   3.362   5.440   9.540  0.3620 -0.1113 -0.1983
   32MOL0     C 4119   3.240   5.417   9.478  0.1151 -0.3743 -1.1959
   32MOL0     C 4120   3.127   5.408   9.563  0.0477 -0.1021 -0.4852
   32MOL0     C 4121   2.989   5.376   9.516 -0.7799 -0.5067  1.1555
   32MOL0     O 4122   2.979   5.355   9.386  0.4691  0.7249  0.3467
   32MOL0     C 4123   2.852   5.348   9.335 -0.7060 -0.1879  0.8815
   32MOL0     C 4124   2.826   5.462   9.241 -0.3126 -0.2114 -0.6383
   32MOL0     C 4125   2.704   5.464   9.167 -0.3172 -0.3946  0.2454
   32MOL0     C 4126   2.612   5.359   9.180  1.0446 -0.7193 -0.5652
   32MOL0     O 4127   2.502   5.355   9.096  0.3777 -0.1509  0.9412
   32MOL0     C 4128   2.392   5.263   9.130 -0.1555  0.1217  0.3012
   32MOL0     C 4129   2.255   5.292   9.052 -0.5191  0.5385  0.2029
   32MOL0     C 4130   2.196   5.428   9.094 -0.2861 -0.5841  0.7407
   32MOL0     C 4131   2.067   5.459   9.016  0.3572 -0.6532 -0.0811
   32MOL0     C 4132   2.050   5.617   9.003  0.1062  0.9401  0.0653
   32MOL0     C 4133   1.928   5.646   8.909  0.7244 -0.1881  0.1678
   32MOL0     C 4134   1.914   5.797   8.904  0.0015  0.1793  0.0891
   32MOL0     C 4135   1.803   5.854   8.819 -1.3153  0.2335  0.4973
   32MOL0    Cl 4136   1.640   5.775   8.828  0.7399 -0.2273 -0.0773
   32MOL0     C 4137   2.627   5.267   9.280 -1.2743 -0.4423 -1.0336
   32MOL0     C 4138   2.754   5.258   9.355 -0.1378 -0.0761 -0.0351
   32MOL0     O 4139   2.901   5.395   9.597  0.8029  0.2794 -0.2609
   32MOL0     C 4140   3.133   5.455   9.694  0.5638  0.0863 -0.8883
   32MOL0     C 4141   3.252   5.507   9.749 -0.3349 -0.4541 -0.0271
   32MOL0     N 4142   4.007   5.204   9.557  0.0651 -0.9177  0.1391
   32MOL0     N 4143   4.132   5.174   9.522 -0.0507 -0.7416 -0.0112
   32MOL0     C 4144   4.453   5.921   9.555 -0.4751 -0.5668  0.2086
   32MOL0     C 4145   4.334   5.941   9.624  1.1202 -0.3537  0.7285
   32MOL0     C 4146   3.925   5.890   9.755 -0.0617  0.4366 -0.1275
   32MOL0     C 4147   3.812   5.971   9.723  0.2636 -0.3190 -0.3734
   32MOL0     C 4148   3.692   5.977   9.805 -0.3905  0.3791 -0.2659
   32MOL0     C 4149   3.677   5.892   9.912  0.2627  0.4797 -0.6556
   32MOL0     O 4150   3.560   5.899   9.981  0.4060  0.1775  0.7652
   32MOL0     C 4151   3.514   5.779  10.049  0.0843  0.5222 -0.0338
   32MOL0     C 4152   3.373   5.748  10.017  0.6595 -0.1254  0.1632
   32MOL0     C 4153   3.294   5.854  10.083 -0.0147 -0.1818 -0.1464
   32MOL0     C 4154   3.150   5.870  10.030  0.0760 -0.2417  0.0047
   32MOL0     C 4155   3.082   5.738  10.023 -0.4392 -0.4996 -0.2637
   32MOL0     C 4156   3.017   5.634  10.013 -0.6949 -0.2370  0.8420
   32MOL0     C 4157   3.785   5.807   9.947  0.3395  0.2306  0.1941
   32MOL0     C 4158   3.908   5.809   9.873 -0.5704 -0.6285 -0.2533
   32MOL0     H 4159   4.316   5.613   9.723  3.2564 -2.4353 -2.0062
   32MOL0     H 4160   4.542   5.604   9.637 -1.2010 -1.3146 -1.4004
   32MOL0     H 4161   4.797   5.815   9.393 -0.9328  0.2032  1.6415
   32MOL0     H 4162   4.670   5.956   9.400 -3.0611 -0.3550  5.2238
   32MOL0     H 4163   4.666   5.831   9.185 -3.1053  3.5596 -0.2773
   32MOL0     H 4164   4.517   5.818   9.281  1.0098  0.8212  0.2728
   32MOL0     H 4165   4.561   5.614   9.381 -1.3341  1.6382  0.2220
   32MOL0     H 4166   4.723   5.596   9.309  2.1904  2.6850 -1.7628
   32MOL0     H 4167   4.441   5.626   9.172  0.5134  0.0437 -1.4372
   32MOL0     H 4168   4.586   5.635   9.077 -1.7783  1.7843  0.2025
   32MOL0     H 4169   4.651   5.407   9.124  0.6115 -0.0796 -0.0498
   32MOL0     H 4170   4.497   5.396   9.053 -0.1784  0.2321  0.0940
   32MOL0     H 4171   4.584   5.357   9.340  0.6448  3.4589 -0.4521
   32MOL0     H 4172   4.507   5.233   9.234  0.5266 -0.1946 -0.7346
   32MOL0     H 4173   4.377   5.481   9.338  2.8927 -0.0447  1.0559
   32MOL0     H 4174   4.290   5.364   9.241  1.0142  3.1368 -0.0398
   32MOL0     H 4175   4.397   5.329   9.531 -1.6930 -0.7408  1.1560
   32MOL0     H 4176   4.367   5.188   9.422  2.1948 -1.1582  3.5800
   32MOL0     H 4177   4.143   5.494   9.490  0.9032 -0.8336 -0.5439
   32MOL0     H 4178   3.780   5.369   9.516  1.6864 -0.2304 -2.6666
   32MOL0     H 4179   3.881   5.518   9.499 -1.0026 -2.2816 -3.5631
   32MOL0     H 4180   3.923   5.497   9.759 -0.9661  1.5160  0.3135
   32MOL0     H 4181   3.842   5.345   9.749  3.0599 -0.3468 -0.1331
   32MOL0     H 4182   3.723   5.557   9.837  0.2311  0.0386 -0.6932
   32MOL0     H 4183   3.716   5.611   9.668  2.3978  0.7587 -0.4073
   32MOL0     H 4184   3.606   5.356   9.793  4.1003  0.2431 -0.2009
   32MOL0     H 4185   3.587   5.388   9.627 -3.3427 -2.1337  1.3508
   32MOL0     H 4186   3.454   5.438   9.482 -0.6540  0.2761 -1.8850
   32MOL0     H 4187   3.239   5.383   9.375 -1.1026 -0.7581 -1.0739
   32MOL0     H 4188   2.892   5.547   9.224 -2.5124  1.9206  0.7340
   32MOL0     H 4189   2.677   5.539   9.094  0.4465  1.7278  2.0339
   32MOL0     H 4190   2.374   5.250   9.237  1.7928 -3.5112  0.3424
   32MOL0     H 4191   2.416   5.163   9.093  0.1040 -0.3556  1.6856
   32MOL0     H 4192   2.193   5.205   9.074  1.0901 -0.9821 -0.9419
   32MOL0     H 4193   2.269   5.298   8.943  2.7984  2.2113  0.5823
   32MOL0     H 4194   2.273   5.504   9.081 -0.0234 -1.0476 -0.5399
   32MOL0     H 4195   2.174   5.427   9.201  0.6956 -2.4249  0.9770
   32MOL0     H 4196   2.077   5.423   8.914 -0.9145 -0.3397 -0.3371
   32MOL0     H 4197   1.981   5.408   9.061  1.8963 -4.6470 -1.2217
   32MOL0     H 4198   2.141   5.667   8.969  1.2608  0.1517  1.8255
   32MOL0     H 4199   2.032   5.666   9.099  0.2806  0.6835  0.2298
   32MOL0     H 4200   1.839   5.602   8.955  0.5458 -0.0180 -0.0112
   32MOL0     H 4201   1.928   5.606   8.808  1.4389 -0.2899  0.2052
   32MOL0     H 4202   1.896   5.832   9.006  0.8778 -1.0186  0.6815
   32MOL0     H 4203   2.013   5.837   8.879  1.4231 -0.7383  3.5760
   32MOL0     H 4204   1.841   5.855   8.716  2.3089 -0.1504  1.6670
   32MOL0     H 4205   1.795   5.963   8.832  2.0140  0.5113  1.1400
   32MOL0     H 4206   2.562   5.182   9.296 -0.6377 -0.3809  2.9590
   32MOL0     H 4207   2.770   5.175   9.422  2.7610 -0.2869 -0.8958
   32MOL0     H 4208   3.049   5.445   9.762  0.0769  1.5951 -1.2215
   32MOL0     H 4209   3.257   5.526   9.856  0.7293 -2.4915  0.3320
   32MOL0     H 4210   4.505   6.003   9.507 -0.4509 -1.6036 -1.6325
   32MOL0     H 4211   4.273   6.030   9.626 -2.8625 -2.8424  1.2881
   32MOL0     H 4212   3.821   6.031   9.633 -0.1811  2.0324  1.0475
   32MOL0     H 4213   3.608   6.038   9.774  0.0755 -0.3029 -3.1911
   32MOL0     H 4214   3.529   5.795  10.156  0.8813  0.2114 -0.0908
   32MOL0     H 4215   3.569   5.686  10.030 -0.1893  0.3901 -0.1859
   32MOL0     H 4216   3.369   5.755   9.908 -2.6614 -2.1730 -0.0142
   32MOL0     H 4217   3.335   5.651  10.052 -1.1586  1.0760  1.6980
   32MOL0     H 4218   3.336   5.955  10.081 -1.3370  0.4318 -3.4775
   32MOL0     H 4219   3.278   5.836  10.190  0.4395 -0.3931 -0.1130
   32MOL0     H 4220   3.095   5.940  10.093 -1.4338 -0.4077 -1.0573
   32MOL0     H 4221   3.163   5.903   9.926  1.5670  0.5083  0.3989
   32MOL0     H 4222   2.947   5.553  10.015  0.1175 -1.0527 -1.1834
   32MOL0     H 4223   3.778   5.735  10.028 -1.1963 -1.5742 -1.4725
   32MOL0     H 4224   3.994   5.748   9.896  1.0145 -0.0447 -3.8115
   33MOL0     O 4225   8.329   1.478   6.184  0.1236  0.2735 -0.0670
   33MOL0     C 4226   8.369   1.373   6.237  0.3688 -0.0592  0.9148
   33MOL0     O 4227   8.402   1.260   6.165  0.1562  0.0164  0.3595
   33MOL0     C 4228   8.386   1.276   6.026  0.3632  0.4283  1.1488
   33MOL0     C 4229   8.257   1.256   5.972  0.1491  0.0741  1.4346
   33MOL0     C 4230   8.243   1.276   5.837 -0.1238 -0.5666 -0.4325
   33MOL0     C 4231   8.350   1.307   5.751  0.1290  0.0121 -0.3500
   33MOL0     O 4232   8.316   1.344   5.630  0.5232 -0.3854  0.3371
   33MOL0     C 4233   8.414   1.398   5.543 -0.2383 -0.7427  0.3797
   33MOL0     C 4234   8.353   1.399   5.406  0.0334  0.4006  0.3305
   33MOL0     C 4235   8.434   1.455   5.290 -0.4964 -0.2427  0.0760
   33MOL0     C 4236   8.497   1.341   5.199  0.1495  0.0304  0.4438
   33MOL0     C 4237   8.535   1.395   5.060 -0.2224  0.5556  0.0217
   33MOL0     C 4238   8.432   1.487   4.977 -0.0437 -0.1728  0.0895
   33MOL0     C 4239   8.288   1.439   4.934  0.0167 -0.6410  0.0085
   33MOL0     C 4240   8.284   1.308   4.859 -0.4556 -0.5304 -0.1737
   33MOL0     N 4241   8.142   1.268   4.826  0.9493  0.6562  1.0116
   33MOL0     C 4242   8.056   1.318   4.728  0.4886  0.0099 -0.2021
   33MOL0     C 4243   7.939   1.247   4.746  0.3774 -0.7657  0.4487
   33MOL0     C 4244   7.811   1.281   4.675  0.0815 -0.0376  0.1042
   33MOL0     C 4245   7.750   1.152   4.622 -0.2349 -0.5244 -0.0171
   33MOL0     C 4246   7.621   1.187   4.544 -0.1097 -0.3761 -0.5941
   33MOL0     C 4247   7.547   1.058   4.495  0.2947  0.1170 -0.0832
   33MOL0     O 4248   7.439   1.100   4.407  0.2697  0.0560 -0.1596
   33MOL0     C 4249   7.359   1.000   4.351 -0.5222 -0.0104 -0.5099
   33MOL0     C 4250   7.245   1.039   4.287 -0.3529  0.0355 -0.4564
   33MOL0     C 4251   7.153   0.952   4.232 -0.2556  0.1057  0.5153
   33MOL0     C 4252   7.176   0.812   4.237 -1.0277 -1.0716  0.8281
   33MOL0     C 4253   7.071   0.735   4.181 -0.2349  0.4030 -0.3711
   33MOL0     O 4254   6.977   0.802   4.099 -0.4816 -0.4018 -0.0879
   33MOL0     C 4255   6.864   0.722   4.084  0.6745 -0.3059  0.3701
   33MOL0     C 4256   6.854   0.622   3.987  0.5783  0.1787  0.3676
   33MOL0     C 4257   6.734   0.545   3.968 -0.3784  0.4732 -0.1843
   33MOL0     C 4258   6.622   0.572   4.041 -0.5398 -1.1213  0.1988
   33MOL0     O 4259   6.513   0.500   3.996 -1.3417 -0.0557  0.0054
   33MOL0     C 4260   6.384   0.556   4.006 -0.0917  0.1036  0.2015
   33MOL0     C 4261   6.264   0.472   3.950  0.2589  0.1925 -0.6520
   33MOL0     C 4262   6.120   0.541   3.958 -0.0601 -0.0392  0.3679
   33MOL0     C 4263   6.081   0.597   4.089  0.0155  0.7325 -0.6723
   33MOL0     C 4264   5.940   0.669   4.086  0.7492 -0.6923  0.0554
   33MOL0     C 4265   5.828   0.580   4.033  0.3926 -0.0769  0.9050
   33MOL0     C 4266   5.685   0.639   4.046 -0.0473 -0.3002  0.3214
   33MOL0     C 4267   5.572   0.539   4.036 -0.0309  0.0470  0.2170
   33MOL0    Cl 4268   5.586   0.448   3.875  0.3194 -0.4217  0.0989
   33MOL0     C 4269   6.628   0.672   4.139 -0.4640  0.2831 -0.8154
   33MOL0     C 4270   6.744   0.746   4.161 -0.1628  0.6857 -0.1416
   33MOL0     O 4271   7.069   0.613   4.216  0.2999 -0.6094 -0.1909
   33MOL0     C 4272   7.293   0.773   4.309  0.2425 -0.7401 -0.7091
   33MOL0     C 4273   7.389   0.868   4.357  0.3844  0.3552  0.5161
   33MOL0     N 4274   7.960   1.143   4.839 -0.1071  0.2596 -0.3591
   33MOL0     N 4275   8.080   1.161   4.886 -0.0730  0.3878  0.1918
   33MOL0     C 4276   8.479   1.313   5.808 -0.3874 -0.3220 -0.5329
   33MOL0     C 4277   8.499   1.311   5.952 -0.3328 -0.0521  0.0239
   33MOL0     C 4278   8.384   1.363   6.381  0.3546 -0.6594  0.0362
   33MOL0     C 4279   8.387   1.478   6.460 -1.0383  0.6176 -0.7048
   33MOL0     C 4280   8.397   1.475   6.604 -0.0459  0.2408  0.3069
   33MOL0     C 4281   8.404   1.351   6.669 -0.2997 -0.9023  0.3588
   33MOL0     O 4282   8.421   1.321   6.794  0.4196 -0.2851 -0.1065
   33MOL0     C 4283   8.391   1.416   6.902  0.1376 -0.4613 -0.1203
   33MOL0     C 4284   8.516   1.495   6.933 -0.7275 -0.1321  1.0616
   33MOL0     C 4285   8.478   1.621   7.004  0.1271  0.2623 -1.1207
   33MOL0     C 4286   8.596   1.710   7.042  0.6489  0.4248  0.6015
   33MOL0     C 4287   8.685   1.641   7.131 -0.1276  0.0378  0.2936
   33MOL0     C 4288   8.756   1.573   7.206 -0.0588  0.5299 -0.0514
   33MOL0     C 4289   8.406   1.236   6.590 -0.2645 -0.4577 -0.0015
   33MOL0     C 4290   8.396   1.242   6.455  0.2042  0.0818  0.6827
   33MOL0     H 4291   8.171   1.248   6.038  0.2018 -0.7787  1.4035
   33MOL0     H 4292   8.141   1.271   5.799  0.0847  1.2713 -1.3766
   33MOL0     H 4293   8.503   1.336   5.534 -0.2856 -0.5496 -2.2440
   33MOL0     H 4294   8.448   1.496   5.578  0.5395 -1.7124  2.4506
   33MOL0     H 4295   8.272   1.472   5.415 -0.6572 -0.0602 -1.6987
   33MOL0     H 4296   8.310   1.301   5.385 -2.6599  1.4467  0.5930
   33MOL0     H 4297   8.517   1.520   5.320 -1.2834 -0.8683  4.1218
   33MOL0     H 4298   8.364   1.516   5.232  0.8808  1.1297 -0.2260
   33MOL0     H 4299   8.591   1.302   5.240 -0.9905 -3.7095 -0.0664
   33MOL0     H 4300   8.422   1.261   5.193  0.0263  0.0972  1.1181
   33MOL0     H 4301   8.554   1.299   5.011  1.8907  1.0470 -0.2286
   33MOL0     H 4302   8.628   1.453   5.060 -0.3572  0.7795  0.2575
   33MOL0     H 4303   8.482   1.503   4.881 -0.4899 -1.9737 -0.4949
   33MOL0     H 4304   8.409   1.577   5.034  0.5547 -0.3005  0.5467
   33MOL0     H 4305   8.218   1.432   5.018  1.4800 -0.9435  1.2717
   33MOL0     H 4306   8.246   1.512   4.865 -0.8996 -0.9473  0.2214
   33MOL0     H 4307   8.340   1.231   4.913 -2.0235 -1.7237 -0.1825
   33MOL0     H 4308   8.338   1.324   4.765 -0.1298  1.9634  0.3726
   33MOL0     H 4309   8.072   1.397   4.656 -1.8648  1.1360  0.4173
   33MOL0     H 4310   7.841   1.322   4.578  1.3304 -0.2819  0.3756
   33MOL0     H 4311   7.752   1.363   4.717  0.0518  1.4780 -2.6694
   33MOL0     H 4312   7.725   1.091   4.709  1.8001  0.4106  1.2880
   33MOL0     H 4313   7.825   1.092   4.570  0.0796 -0.9580  0.9196
   33MOL0     H 4314   7.549   1.248   4.599  3.3243 -0.4527  4.7450
   33MOL0     H 4315   7.640   1.232   4.446  0.0151  0.3925 -0.2251
   33MOL0     H 4316   7.522   1.001   4.585  1.9093 -0.7451 -0.1344
   33MOL0     H 4317   7.616   0.998   4.435  0.8044 -0.2801  0.8690
   33MOL0     H 4318   7.206   1.141   4.285  0.0145  0.1736 -1.6381
   33MOL0     H 4319   7.058   0.994   4.202 -1.0243 -1.2072  1.0755
   33MOL0     H 4320   6.948   0.590   3.942  0.2008 -0.5186  0.0599
   33MOL0     H 4321   6.740   0.479   3.882 -0.9594  1.2389 -0.8325
   33MOL0     H 4322   6.381   0.653   3.956 -0.0475 -0.0427 -0.0821
   33MOL0     H 4323   6.365   0.556   4.114  0.4260 -3.1729  0.3904
   33MOL0     H 4324   6.259   0.373   3.997  0.1069 -0.2153 -1.5148
   33MOL0     H 4325   6.273   0.443   3.845 -0.2472 -0.2895 -0.5668
   33MOL0     H 4326   6.040   0.471   3.932 -1.1231  1.5004 -0.7484
   33MOL0     H 4327   6.118   0.625   3.887  0.9731  0.1492  0.5411
   33MOL0     H 4328   6.087   0.514   4.160  1.6872  1.5744  0.2315
   33MOL0     H 4329   6.149   0.673   4.127  0.7239  0.9177 -2.2362
   33MOL0     H 4330   5.955   0.760   4.027  1.0391  0.1457  1.3608
   33MOL0     H 4331   5.915   0.708   4.186 -3.8145  0.7444 -1.3659
   33MOL0     H 4332   5.835   0.488   4.091  0.4736  1.2227  3.0644
   33MOL0     H 4333   5.837   0.560   3.926 -1.7636  1.7644  0.2813
   33MOL0     H 4334   5.683   0.683   4.146  0.3738  0.1219  0.1451
   33MOL0     H 4335   5.664   0.719   3.975  0.7904 -2.3107 -2.3916
   33MOL0     H 4336   5.476   0.591   4.050  0.0542  0.7383 -1.4158
   33MOL0     H 4337   5.581   0.479   4.126 -0.0429  2.0182  1.6095
   33MOL0     H 4338   6.536   0.689   4.195 -0.2294  0.5270 -0.5012
   33MOL0     H 4339   6.750   0.819   4.241 -0.2256 -0.7097  1.1531
   33MOL0     H 4340   7.312   0.668   4.332  1.4997 -0.0053  2.0145
   33MOL0     H 4341   7.471   0.824   4.413  0.5021  1.9024  1.5934
   33MOL0     H 4342   8.567   1.336   5.748 -0.8628  2.3079 -0.3505
   33MOL0     H 4343   8.596   1.330   5.997 -1.0129  2.8670  0.4838
   33MOL0     H 4344   8.386   1.581   6.425 -0.3484  1.8104  2.4283
   33MOL0     H 4345   8.391   1.568   6.659 -1.6197  0.5341 -0.3061
   33MOL0     H 4346   8.341   1.382   6.993  0.0706  1.6056  0.6577
   33MOL0     H 4347   8.309   1.478   6.864  0.0045  0.8612  2.1772
   33MOL0     H 4348   8.576   1.423   6.990 -0.4207 -1.4762 -0.8375
   33MOL0     H 4349   8.577   1.522   6.846 -0.1800  0.5716  1.6499
   33MOL0     H 4350   8.425   1.617   7.099  0.0318  1.2253 -1.1232
   33MOL0     H 4351   8.412   1.687   6.946 -0.4341  2.4222  1.7642
   33MOL0     H 4352   8.650   1.756   6.959 -0.2230  4.6172  2.1454
   33MOL0     H 4353   8.563   1.797   7.098  2.0436  0.1478  1.9320
   33MOL0     H 4354   8.824   1.531   7.277  1.0413 -0.9453 -1.9047
   33MOL0     H 4355   8.415   1.141   6.640  1.2890  1.7576  4.4852
   33MOL0     H 4356   8.399   1.154   6.391  2.3678  1.3215 -1.1103
   34MOL0     O 4357   9.435   1.044  11.117  0.4031 -0.8184 -0.5510
   34MOL0     C 4358   9.474   1.052  11.001  0.6130  0.9524  0.6485
   34MOL0     O 4359   9.397   1.038  10.890 -0.4761  0.2121  0.4672
   34MOL0     C 4360   9.265   0.991  10.894 -0.9032 -0.6814  0.1045
   34MOL0     C 4361   9.183   1.064  10.816 -0.3754 -0.2387 -0.4294
   34MOL0     C 4362   9.050   1.027  10.819  0.6433  0.6378 -0.4521
   34MOL0     C 4363   8.997   0.926  10.895 -0.2223  0.0828 -0.6235
   34MOL0     O 4364   8.857   0.896  10.885 -0.1629  0.5394 -0.3757
   34MOL0     C 4365   8.830   0.753  10.913  0.0782 -0.6311 -0.1975
   34MOL0     C 4366   8.705   0.704  10.828  0.0399 -0.4891 -0.2533
   34MOL0     C 4367   8.591   0.795  10.856  0.1036 -0.3024  0.4825
   34MOL0     C 4368   8.466   0.739  10.779  1.0607  0.3428  0.0534
   34MOL0     C 4369   8.341   0.841  10.788 -0.4712  0.3141 -0.0741
   34MOL0     C 4370   8.215   0.757  10.756  0.5615 -0.2012  0.3030
   34MOL0     C 4371   8.086   0.841  10.758  0.5118 -1.1431  0.0986
   34MOL0     C 4372   7.971   0.767  10.691  0.4863  0.4984 -0.2357
   34MOL0     N 4373   7.845   0.832  10.712  0.1263 -0.0895 -0.1360
   34MOL0     C 4374   7.762   0.894  10.622  0.5585  0.1081 -0.7325
   34MOL0     C 4375   7.645   0.912  10.688 -0.1319 -0.5984  0.8102
   34MOL0     C 4376   7.508   0.960  10.631  0.7310  1.0034  0.8336
   34MOL0     C 4377   7.391   0.896  10.711  0.4183 -0.3989  0.3090
   34MOL0     C 4378   7.260   0.926  10.637  0.6003  0.2588  0.2287
   34MOL0     C 4379   7.242   0.847  10.512 -1.1127 -0.4000 -0.0588
   34MOL0     O 4380   7.281   0.928  10.400 -0.3359 -0.2885 -0.1334
   34MOL0     C 4381   7.175   0.968  10.314 -0.6173 -0.1023  0.3908
   34MOL0     C 4382   7.220   0.997  10.185  0.2768 -0.0182  0.3710
   34MOL0     C 4383   7.135   1.043  10.084  0.3048  0.1314 -0.1344
   34MOL0     C 4384   7.002   1.072  10.121  0.3554  0.1770 -0.2724
   34MOL0     C 4385   6.907   1.131  10.024  0.3425 -0.1354 -1.2634
   34MOL0     O 4386   6.764   1.122  10.049  0.2863 -0.6026 -0.5479
   34MOL0     C 4387   6.674   1.183   9.962  0.2585 -1.1143  0.1339
   34MOL0     C 4388   6.670   1.325   9.953  0.3002 -0.4552  0.1780
   34MOL0     C 4389   6.557   1.384   9.885 -0.5409  0.1393  0.4249
   34MOL0     C 4390   6.449   1.312   9.843  0.9246 -1.2432  0.4249
   34MOL0     O 4391   6.348   1.388   9.795 -0.5942 -0.2785 -0.2903
   34MOL0     C 4392   6.235   1.386   9.884 -0.8194 -0.5876 -1.1021
   34MOL0     C 4393   6.097   1.398   9.812 -0.8965 -0.5648 -0.9588
   34MOL0     C 4394   6.022   1.274   9.846  0.0226  0.6149  1.1794
   34MOL0     C 4395   5.877   1.298   9.794 -0.8519  0.1720  0.0758
   34MOL0     C 4396   5.787   1.186   9.847 -0.0927 -0.3119  0.7211
   34MOL0     C 4397   5.640   1.203   9.798 -0.3498  0.2961 -0.3010
   34MOL0     C 4398   5.554   1.088   9.833  0.9283  0.1549 -0.5462
   34MOL0     C 4399   5.456   1.045   9.723  0.0752 -1.1065  0.1942
   34MOL0    Cl 4400   5.324   1.170   9.694  0.3313 -0.6071 -0.0534
   34MOL0     C 4401   6.454   1.176   9.853 -0.6471  0.3825 -0.3401
   34MOL0     C 4402   6.563   1.109   9.909 -0.2302  1.1061 -0.9788
   34MOL0     O 4403   6.959   1.187   9.931 -0.5396  0.1187 -0.2939
   34MOL0     C 4404   6.957   1.039  10.248  1.0699 -0.2486  0.1571
   34MOL0     C 4405   7.040   0.992  10.346  0.0492  0.6447  0.1674
   34MOL0     N 4406   7.655   0.873  10.814 -0.4844 -1.1083  0.7665
   34MOL0     N 4407   7.768   0.822  10.829 -0.0921  0.1696 -0.6199
   34MOL0     C 4408   9.088   0.847  10.970  0.8099 -0.5261  0.3220
   34MOL0     C 4409   9.227   0.884  10.975 -0.4101  0.7932  0.7060
   34MOL0     C 4410   9.619   1.067  10.971  0.1024 -0.1535  0.0873
   34MOL0     C 4411   9.666   1.046  10.839 -1.1283 -0.3366  0.3484
   34MOL0     C 4412   9.794   1.076  10.805  0.5874  0.3840 -0.1797
   34MOL0     C 4413   9.883   1.106  10.905 -1.3250 -0.6837  0.2060
   34MOL0     O 4414  10.019   1.130  10.862  0.6977  0.3326 -1.2842
   34MOL0     C 4415  10.119   1.185  10.956 -0.6488  0.7860 -0.0119
   34MOL0     C 4416  10.226   1.226  10.858 -0.1577  0.5668  0.6611
   34MOL0     C 4417  10.267   1.117  10.741  0.5575 -0.2570  0.3183
   34MOL0     C 4418  10.396   1.158  10.681 -0.3107 -1.1528  0.3707
   34MOL0     C 4419  10.382   1.285  10.604 -0.5774  0.0033 -0.0242
   34MOL0     C 4420  10.354   1.392  10.547  0.4267  0.7698 -0.0306
   34MOL0     C 4421   9.847   1.106  11.040  0.4920  0.2139 -0.4666
   34MOL0     C 4422   9.716   1.084  11.070  0.7494 -0.6602 -1.2575
   34MOL0     H 4423   9.209   1.148  10.753  1.3570  0.9413  1.6957
   34MOL0     H 4424   8.988   1.081  10.748 -2.3395 -2.6269 -0.5590
   34MOL0     H 4425   8.798   0.746  11.018 -0.4255  0.2149 -0.2793
   34MOL0     H 4426   8.910   0.687  10.878  2.2056  0.9617  1.3518
   34MOL0     H 4427   8.676   0.605  10.866  0.5404 -0.5338  0.0287
   34MOL0     H 4428   8.725   0.705  10.720 -0.3456  2.2035 -0.3460
   34MOL0     H 4429   8.594   0.897  10.815  0.6400  0.5101  2.4420
   34MOL0     H 4430   8.581   0.798  10.965  3.4946  3.1829  0.8974
   34MOL0     H 4431   8.486   0.716  10.674 -0.1365 -0.3892 -0.0344
   34MOL0     H 4432   8.447   0.645  10.831 -1.2165  1.4186  1.2830
   34MOL0     H 4433   8.361   0.917  10.712  3.9586 -2.2448 -1.8228
   34MOL0     H 4434   8.332   0.883  10.889 -0.5737 -1.8377  0.8491
   34MOL0     H 4435   8.208   0.680  10.834 -0.5023  1.8419  2.3502
   34MOL0     H 4436   8.237   0.712  10.658 -0.1902  1.0626 -0.4778
   34MOL0     H 4437   8.066   0.894  10.851 -2.2308  0.7595 -1.4328
   34MOL0     H 4438   8.115   0.923  10.692  0.8873 -0.5919  0.9336
   34MOL0     H 4439   7.964   0.677  10.752  0.3242  1.3927  1.1112
   34MOL0     H 4440   7.982   0.736  10.587 -1.1759  1.4616 -0.7386
   34MOL0     H 4441   7.783   0.933  10.523  0.2795  3.5581  0.4439
   34MOL0     H 4442   7.497   0.942  10.524  3.7260  1.5620  0.3477
   34MOL0     H 4443   7.490   1.066  10.651  1.5004  0.6801  3.6421
   34MOL0     H 4444   7.395   0.945  10.808  0.8624  1.6828 -0.6967
   34MOL0     H 4445   7.413   0.790  10.728  0.0441 -0.7866 -1.3924
   34MOL0     H 4446   7.177   0.898  10.702  1.2203 -0.7217  0.6329
   34MOL0     H 4447   7.251   1.033  10.617 -0.1879 -0.0679 -1.3056
   34MOL0     H 4448   7.142   0.802  10.512 -0.5101 -1.8156 -0.6174
   34MOL0     H 4449   7.318   0.769  10.501 -1.3696 -0.5620 -0.7595
   34MOL0     H 4450   7.323   0.966  10.174 -0.6031 -3.7160  1.0997
   34MOL0     H 4451   7.169   1.060   9.982 -1.6337  0.8545 -0.7051
   34MOL0     H 4452   6.742   1.396   9.991  0.3798 -0.3860 -0.1039
   34MOL0     H 4453   6.559   1.492   9.875 -0.7009  0.0682 -0.4410
   34MOL0     H 4454   6.248   1.463   9.961 -1.0189 -1.8242  0.1952
   34MOL0     H 4455   6.236   1.295   9.943 -0.3724  0.1158  0.0033
   34MOL0     H 4456   6.120   1.395   9.705  0.8397  0.6439 -0.6769
   34MOL0     H 4457   6.060   1.496   9.842  1.3771  0.6659 -1.8680
   34MOL0     H 4458   6.021   1.249   9.952 -2.7479  4.1456  2.1982
   34MOL0     H 4459   6.076   1.194   9.796 -0.4644  0.3963  1.0007
   34MOL0     H 4460   5.843   1.388   9.846 -0.0342  1.1524 -1.0340
   34MOL0     H 4461   5.875   1.310   9.685  1.8196  0.8697  0.0520
   34MOL0     H 4462   5.798   1.181   9.956 -1.9399 -0.7354  0.9081
   34MOL0     H 4463   5.821   1.092   9.804 -1.5940 -0.4202 -0.2584
   34MOL0     H 4464   5.633   1.225   9.691 -3.5647 -1.2633 -0.5093
   34MOL0     H 4465   5.593   1.293   9.836  0.2663  0.6456 -0.3499
   34MOL0     H 4466   5.628   1.009   9.848 -1.7302 -2.3253  0.6990
   34MOL0     H 4467   5.513   1.104   9.934 -0.1715 -1.4361 -0.7055
   34MOL0     H 4468   5.419   0.947   9.756  0.5011 -1.9352 -1.6852
   34MOL0     H 4469   5.511   1.036   9.629  1.2362  1.2291  0.5762
   34MOL0     H 4470   6.369   1.125   9.809 -1.2941  0.0904  1.1634
   34MOL0     H 4471   6.565   1.002   9.922 -1.3248  0.9769 -1.7091
   34MOL0     H 4472   6.852   1.036  10.276  0.1131 -1.4489 -3.0810
   34MOL0     H 4473   7.012   0.976  10.449  3.3885  0.7992  1.2235
   34MOL0     H 4474   9.057   0.762  11.029 -2.6130  0.3314 -0.0453
   34MOL0     H 4475   9.300   0.824  11.028 -3.6707 -2.7255  1.7688
   34MOL0     H 4476   9.595   1.013  10.765 -0.6920  2.0600 -1.2401
   34MOL0     H 4477   9.828   1.073  10.702 -0.8397 -2.7570 -0.6689
   34MOL0     H 4478  10.158   1.104  11.019 -1.1134 -0.5073 -1.3123
   34MOL0     H 4479  10.070   1.267  11.009  2.2674  0.8089  3.0271
   34MOL0     H 4480  10.208   1.322  10.808 -1.6879  0.1048  0.3012
   34MOL0     H 4481  10.320   1.243  10.912  0.5296  1.3866 -0.7387
   34MOL0     H 4482  10.194   1.122  10.660  1.7724 -0.7627 -0.8490
   34MOL0     H 4483  10.267   1.017  10.785  0.8156  0.9871  3.4110
   34MOL0     H 4484  10.476   1.161  10.755  0.3543  2.0119 -0.3153
   34MOL0     H 4485  10.432   1.081  10.612  0.8446 -0.2160 -0.1083
   34MOL0     H 4486  10.325   1.487  10.506  0.9783  1.7369  1.6710
   34MOL0     H 4487   9.913   1.136  11.121 -0.2357  0.1591  0.1544
   34MOL0     H 4488   9.689   1.098  11.175  1.0610 -2.4291 -0.9199
   35MOL0     O 4489   9.417   5.058   6.339  0.1082 -0.4169 -0.0893
   35MOL0     C 4490   9.469   5.154   6.292  0.0569 -0.1877  0.0788
   35MOL0     O 4491   9.404   5.253   6.229 -0.1752 -0.9453 -0.0899
   35MOL0     C 4492   9.272   5.268   6.214  1.1200  0.2105  0.0143
   35MOL0     C 4493   9.165   5.224   6.300 -0.2957 -0.0552 -0.4069
   35MOL0     C 4494   9.032   5.244   6.272  0.7604  0.6154  0.1210
   35MOL0     C 4495   9.000   5.316   6.155 -0.5686 -0.0600  0.5657
   35MOL0     O 4496   8.869   5.338   6.130  0.1459 -0.1169 -0.2496
   35MOL0     C 4497   8.822   5.385   6.008  0.0736  0.0816  0.4386
   35MOL0     C 4498   8.668   5.386   6.001 -0.1160  0.3315  0.2171
   35MOL0     C 4499   8.600   5.253   6.029 -0.4147  0.4274 -0.5225
   35MOL0     C 4500   8.584   5.234   6.186  0.3908 -0.5121  0.5404
   35MOL0     C 4501   8.505   5.103   6.203  0.7064  0.8271  0.2324
   35MOL0     C 4502   8.480   5.085   6.351 -0.8339 -0.2211 -0.5306
   35MOL0     C 4503   8.389   4.961   6.382 -0.3512  0.0135  0.0567
   35MOL0     C 4504   8.476   4.830   6.351 -0.8030  0.3397 -0.7657
   35MOL0     N 4505   8.409   4.717   6.424  0.2595 -0.6208 -0.2979
   35MOL0     C 4506   8.272   4.694   6.437 -0.3660 -1.5377  0.6522
   35MOL0     C 4507   8.263   4.575   6.500  0.9540  1.2537  0.4905
   35MOL0     C 4508   8.128   4.522   6.539 -0.1080  0.7071 -0.0784
   35MOL0     C 4509   8.115   4.514   6.694 -0.2629  0.1408 -0.6403
   35MOL0     C 4510   8.106   4.370   6.747 -0.3795 -0.1455  0.4190
   35MOL0     C 4511   8.113   4.372   6.898  0.2434 -1.0480 -0.4884
   35MOL0     O 4512   8.014   4.453   6.959 -0.9858  0.4376  1.2684
   35MOL0     C 4513   7.885   4.406   6.945  0.3423 -1.1329  0.4700
   35MOL0     C 4514   7.792   4.510   6.976  0.1359  0.2032  0.1197
   35MOL0     C 4515   7.656   4.476   6.948  0.2844 -0.9753  0.2436
   35MOL0     C 4516   7.612   4.354   6.911  0.2625 -0.1867 -0.9554
   35MOL0     C 4517   7.465   4.321   6.884  0.5092 -0.0698 -0.2864
   35MOL0     O 4518   7.377   4.415   6.873 -0.8637  0.6401  0.1647
   35MOL0     C 4519   7.243   4.385   6.855 -0.4141  0.4198  0.6712
   35MOL0     C 4520   7.168   4.477   6.781 -0.0244  0.8496  0.1207
   35MOL0     C 4521   7.031   4.464   6.752 -0.0109 -0.0061 -0.2192
   35MOL0     C 4522   6.969   4.348   6.798  0.0500 -0.3519 -0.5048
   35MOL0     O 4523   6.835   4.312   6.792  0.1385 -0.8345 -0.3307
   35MOL0     C 4524   6.741   4.410   6.826 -0.1227  0.0805  0.3910
   35MOL0     C 4525   6.711   4.421   6.980 -0.3806 -0.4717 -0.5753
   35MOL0     C 4526   6.654   4.557   7.004  0.5317 -1.0568  0.0599
   35MOL0     C 4527   6.563   4.554   7.129  0.3310  0.1354 -0.1863
   35MOL0     C 4528   6.483   4.676   7.160 -0.3861 -0.4280  0.9043
   35MOL0     C 4529   6.401   4.662   7.285  0.4488 -0.8350 -0.1302
   35MOL0     C 4530   6.367   4.801   7.332 -0.1251 -0.5701  0.3667
   35MOL0     C 4531   6.272   4.796   7.448  0.4889  0.1316 -0.5118
   35MOL0    Cl 4532   6.265   4.959   7.517  0.2220 -0.2082 -0.5449
   35MOL0     C 4533   7.041   4.257   6.883 -0.3108  0.4765 -0.6428
   35MOL0     C 4534   7.177   4.269   6.907  0.2059 -0.5062  0.0541
   35MOL0     O 4535   7.439   4.201   6.869  0.5105  0.2655 -0.1027
   35MOL0     C 4536   7.704   4.254   6.893  0.2656  0.5015  0.8237
   35MOL0     C 4537   7.836   4.273   6.900 -0.5511  0.3544 -0.0549
   35MOL0     N 4538   8.392   4.535   6.532 -0.2472 -0.2696  0.3633
   35MOL0     N 4539   8.477   4.618   6.480 -1.3701 -0.2643 -0.0117
   35MOL0     C 4540   9.103   5.356   6.060  0.3420  0.2151  0.1055
   35MOL0     C 4541   9.237   5.321   6.090  1.4024 -0.0122  0.6039
   35MOL0     C 4542   9.609   5.161   6.320  0.0830 -0.2016 -0.1619
   35MOL0     C 4543   9.689   5.251   6.236 -0.2019 -0.4964 -0.6852
   35MOL0     C 4544   9.830   5.242   6.262 -0.3537 -0.6664  0.0200
   35MOL0     C 4545   9.894   5.149   6.343 -0.3216 -0.0098  0.9021
   35MOL0     O 4546  10.034   5.171   6.356 -0.3599 -0.4992 -0.2761
   35MOL0     C 4547  10.111   5.090   6.442 -0.1988  0.0259 -0.1818
   35MOL0     C 4548  10.251   5.066   6.391 -0.0849  0.0109 -0.8008
   35MOL0     C 4549  10.314   4.934   6.430  0.0447 -1.0453 -0.0604
   35MOL0     C 4550  10.464   4.920   6.390 -0.1877 -0.1143  0.9206
   35MOL0     C 4551  10.545   5.037   6.425  0.2428 -0.3455 -0.0368
   35MOL0     C 4552  10.600   5.147   6.426 -0.3836 -0.1922  0.1850
   35MOL0     C 4553   9.811   5.054   6.409  0.4066  0.1543  0.4525
   35MOL0     C 4554   9.677   5.070   6.396 -0.1344 -0.0220 -0.1847
   35MOL0     H 4555   9.200   5.168   6.387  0.2240 -1.5241 -1.5278
   35MOL0     H 4556   8.958   5.198   6.336  0.0110  1.2360 -0.2797
   35MOL0     H 4557   8.859   5.312   5.935  1.8547 -0.6038  1.9474
   35MOL0     H 4558   8.865   5.480   5.978 -3.4199  1.7879  0.3480
   35MOL0     H 4559   8.653   5.426   5.900  3.1847  0.7139 -0.2583
   35MOL0     H 4560   8.639   5.458   6.079 -0.9036 -0.6563  0.8573
   35MOL0     H 4561   8.655   5.167   5.991  0.9321  0.1044  1.9301
   35MOL0     H 4562   8.505   5.266   5.977  0.5291  2.8163 -1.8117
   35MOL0     H 4563   8.679   5.232   6.240  1.4805  1.9497 -1.0895
   35MOL0     H 4564   8.520   5.317   6.221  0.6677  1.1596 -2.5643
   35MOL0     H 4565   8.567   5.019   6.172 -2.4113 -1.5838 -0.0129
   35MOL0     H 4566   8.411   5.099   6.147  2.3311  1.5469 -2.7634
   35MOL0     H 4567   8.434   5.181   6.377 -0.5337 -0.1109 -0.4031
   35MOL0     H 4568   8.569   5.070   6.413 -1.2790  1.2107  0.5120
   35MOL0     H 4569   8.349   4.954   6.484 -2.5005  0.0578 -0.7370
   35MOL0     H 4570   8.302   4.957   6.316  1.6243 -1.8820 -2.6411
   35MOL0     H 4571   8.578   4.847   6.385 -1.7959  3.4257  1.0413
   35MOL0     H 4572   8.469   4.811   6.244 -1.3984 -3.7538 -0.1948
   35MOL0     H 4573   8.188   4.760   6.416  0.4441 -0.0263  1.9039
   35MOL0     H 4574   8.107   4.419   6.507  0.2121 -0.0509  1.9844
   35MOL0     H 4575   8.055   4.594   6.501 -0.7350  1.4862  2.4349
   35MOL0     H 4576   8.035   4.577   6.735  0.7259  0.7302  0.4370
   35MOL0     H 4577   8.211   4.554   6.729  1.2227 -0.8227 -3.3246
   35MOL0     H 4578   8.015   4.327   6.706  0.1468 -2.1183  1.1850
   35MOL0     H 4579   8.183   4.299   6.715  0.7209  1.2471 -0.1073
   35MOL0     H 4580   8.210   4.416   6.925 -0.6192  0.4569  0.3153
   35MOL0     H 4581   8.110   4.267   6.929 -1.5024 -1.6568 -2.5539
   35MOL0     H 4582   7.831   4.610   6.991 -0.3395  0.7307 -1.8153
   35MOL0     H 4583   7.590   4.560   6.965  2.8554  0.6441  3.1105
   35MOL0     H 4584   7.234   4.555   6.746  0.2010  0.3981 -0.4755
   35MOL0     H 4585   6.996   4.546   6.690  3.0332 -0.3993 -2.6737
   35MOL0     H 4586   6.647   4.378   6.780  0.3756 -2.1027  0.7498
   35MOL0     H 4587   6.769   4.506   6.783 -0.3957  1.1124  2.3925
   35MOL0     H 4588   6.794   4.403   7.049  0.2173  2.2287 -0.5110
   35MOL0     H 4589   6.632   4.349   7.006 -1.2931  0.3648 -0.9824
   35MOL0     H 4590   6.598   4.603   6.922  1.0664  0.6164  0.5738
   35MOL0     H 4591   6.740   4.624   7.014 -0.4852  0.5717 -1.5134
   35MOL0     H 4592   6.476   4.489   7.114 -1.7587  2.4820  1.0873
   35MOL0     H 4593   6.620   4.518   7.215  3.1138  3.5320 -0.3947
   35MOL0     H 4594   6.414   4.699   7.078 -0.2616  0.1986  0.9696
   35MOL0     H 4595   6.551   4.761   7.152  1.0497 -1.7005 -1.5829
   35MOL0     H 4596   6.443   4.605   7.368  0.0999 -1.0777 -0.1178
   35MOL0     H 4597   6.311   4.606   7.257 -0.8771  0.5791  1.1303
   35MOL0     H 4598   6.456   4.854   7.365  0.1693 -0.9274  0.1490
   35MOL0     H 4599   6.328   4.852   7.244 -2.5841 -1.4541  0.8574
   35MOL0     H 4600   6.292   4.722   7.527 -0.1925  2.0380  1.5367
   35MOL0     H 4601   6.174   4.779   7.402 -0.3664  0.3978  1.1241
   35MOL0     H 4602   6.982   4.180   6.931  1.1221  0.4496  1.1709
   35MOL0     H 4603   7.221   4.179   6.950  2.0411 -0.7285 -2.0869
   35MOL0     H 4604   7.676   4.152   6.868 -1.2601  0.9462  0.5921
   35MOL0     H 4605   7.905   4.193   6.874  2.0379  1.4957  2.7033
   35MOL0     H 4606   9.078   5.408   5.968  4.3502 -1.2453 -2.0580
   35MOL0     H 4607   9.319   5.343   6.022 -2.0162  1.7743 -3.4115
   35MOL0     H 4608   9.657   5.305   6.148  1.2054  0.2664 -0.7427
   35MOL0     H 4609   9.900   5.309   6.212  0.7089 -1.8697 -0.1435
   35MOL0     H 4610  10.073   4.993   6.474  0.7345 -0.5653 -0.8023
   35MOL0     H 4611  10.106   5.145   6.536 -0.5169  0.1257 -0.2560
   35MOL0     H 4612  10.232   5.072   6.283 -2.0981  0.9395 -0.4572
   35MOL0     H 4613  10.309   5.150   6.429 -0.6855  0.0673  0.0326
   35MOL0     H 4614  10.262   4.851   6.380  0.7678  0.2946 -3.3067
   35MOL0     H 4615  10.315   4.927   6.539  0.1836  1.0020  0.1056
   35MOL0     H 4616  10.504   4.829   6.436 -3.2237 -1.0399  1.9980
   35MOL0     H 4617  10.476   4.892   6.286 -0.6021  0.6295  0.6634
   35MOL0     H 4618  10.643   5.243   6.445 -1.7530  0.1142  1.9803
   35MOL0     H 4619   9.862   4.973   6.460 -0.7248 -3.7922 -3.9871
   35MOL0     H 4620   9.625   4.991   6.450  1.4497 -1.1644 -0.2347
   36MOL0     O 4621   0.350   1.814   1.730 -0.1132 -0.3953 -0.3691
   36MOL0     C 4622   0.417   1.784   1.634  0.2398 -0.0741  0.2891
   36MOL0     O 4623   0.363   1.733   1.520 -0.2460 -0.0545  0.2541
   36MOL0     C 4624   0.225   1.737   1.504  0.0465 -0.2689  0.0697
   36MOL0     C 4625   0.161   1.863   1.485  0.1632  0.5982  0.4400
   36MOL0     C 4626   0.023   1.861   1.469  0.0961 -0.0379  0.3771
   36MOL0     C 4627  -0.049   1.750   1.479 -0.3167 -0.6081  0.2761
   36MOL0     O 4628  -0.182   1.763   1.472  0.0887  0.8109  0.6266
   36MOL0     C 4629  -0.259   1.725   1.581 -0.5821  0.0884 -0.8746
   36MOL0     C 4630  -0.314   1.861   1.639 -0.0472 -0.0411 -0.6992
   36MOL0     C 4631  -0.410   1.923   1.547 -0.4477 -0.0288  0.0603
   36MOL0     C 4632  -0.550   1.858   1.549  0.0236 -0.4950 -0.2199
   36MOL0     C 4633  -0.669   1.912   1.474  0.1166  0.1358 -0.4446
   36MOL0     C 4634  -0.719   2.042   1.545  0.1962 -0.2916 -0.0420
   36MOL0     C 4635  -0.842   2.103   1.470 -0.1763 -0.1378 -0.4680
   36MOL0     C 4636  -0.881   2.221   1.558 -0.8109  0.4379 -0.8381
   36MOL0     N 4637  -0.997   2.289   1.512  0.6690  0.2082 -0.4002
   36MOL0     C 4638  -1.109   2.319   1.586  0.0656 -0.3884  0.1477
   36MOL0     C 4639  -1.202   2.343   1.495  0.2578 -0.4456 -0.9973
   36MOL0     C 4640  -1.351   2.366   1.530 -0.4336  0.2886 -0.1823
   36MOL0     C 4641  -1.379   2.508   1.562  0.0653  0.2798  0.3003
   36MOL0     C 4642  -1.517   2.537   1.626  0.5643  0.6134  0.2159
   36MOL0     C 4643  -1.640   2.478   1.547  0.0348  0.2572 -0.8448
   36MOL0     O 4644  -1.739   2.464   1.645  0.4445 -0.0741  0.5358
   36MOL0     C 4645  -1.858   2.397   1.606 -0.6113 -0.6032 -0.0160
   36MOL0     C 4646  -1.964   2.421   1.689  0.5300  0.4179 -1.0745
   36MOL0     C 4647  -2.099   2.382   1.660 -0.9080  0.4930  0.4261
   36MOL0     C 4648  -2.117   2.310   1.535 -0.2237  0.8248 -0.0066
   36MOL0     C 4649  -2.254   2.264   1.500  0.6603  0.8106 -0.2400
   36MOL0     O 4650  -2.347   2.278   1.596 -1.0594 -0.0006 -0.6814
   36MOL0     C 4651  -2.480   2.257   1.560 -0.6320  0.1270 -0.7895
   36MOL0     C 4652  -2.560   2.152   1.611 -0.1011 -1.4738 -0.5274
   36MOL0     C 4653  -2.697   2.139   1.571 -0.0857 -0.3524 -0.2066
   36MOL0     C 4654  -2.747   2.236   1.488  0.0826  1.0713 -0.9024
   36MOL0     O 4655  -2.883   2.233   1.459  0.0711  1.1120  0.2515
   36MOL0     C 4656  -2.972   2.263   1.569  0.6318 -0.6787 -0.5974
   36MOL0     C 4657  -3.107   2.307   1.511  0.7195  0.9536  0.5915
   36MOL0     C 4658  -3.201   2.376   1.612 -0.9009  0.0887 -0.6775
   36MOL0     C 4659  -3.323   2.420   1.549 -0.0526 -1.4088  0.4144
   36MOL0     C 4660  -3.427   2.464   1.650 -0.6226 -0.0704 -0.5645
   36MOL0     C 4661  -3.499   2.352   1.719  1.3801  0.5484  1.1578
   36MOL0     C 4662  -3.650   2.385   1.742  0.8923  0.5914 -0.3330
   36MOL0     C 4663  -3.722   2.264   1.820  0.6101  0.1927  0.2909
   36MOL0    Cl 4664  -3.891   2.320   1.813  0.0557 -0.1252 -0.0378
   36MOL0     C 4665  -2.663   2.337   1.429  0.1010  0.1908  0.2687
   36MOL0     C 4666  -2.535   2.354   1.476 -0.1977 -0.1494 -0.0206
   36MOL0     O 4667  -2.279   2.240   1.388  1.1044  0.3647  0.0049
   36MOL0     C 4668  -2.007   2.286   1.448 -0.4161  0.5762  0.3571
   36MOL0     C 4669  -1.876   2.326   1.484 -0.9533 -0.2933  0.2795
   36MOL0     N 4670  -1.149   2.370   1.371  0.6157  0.3567 -0.2681
   36MOL0     N 4671  -1.028   2.339   1.391 -0.6415 -0.6794 -0.3004
   36MOL0     C 4672   0.006   1.622   1.501  0.5939 -0.9081  0.7019
   36MOL0     C 4673   0.146   1.613   1.515 -0.8548 -1.5218 -0.6045
   36MOL0     C 4674   0.561   1.804   1.634  0.1437  1.2852 -0.0004
   36MOL0     C 4675   0.643   1.778   1.518 -0.5081  0.0728  0.4461
   36MOL0     C 4676   0.785   1.784   1.515 -0.1404 -0.0381  0.0778
   36MOL0     C 4677   0.853   1.815   1.633 -0.1875 -1.0726  0.1663
   36MOL0     O 4678   0.988   1.830   1.618 -0.0339 -1.2137 -0.5117
   36MOL0     C 4679   1.042   1.960   1.659  1.1300  0.6564 -0.7349
   36MOL0     C 4680   1.193   1.934   1.680  0.4121  0.6671  1.1229
   36MOL0     C 4681   1.258   2.072   1.677  0.1986  0.0351 -0.3097
   36MOL0     C 4682   1.409   2.069   1.708  0.3019 -0.6451 -0.2984
   36MOL0     C 4683   1.456   1.976   1.808  0.4005  0.6208 -0.3389
   36MOL0     C 4684   1.485   1.896   1.893 -0.2211 -0.9360  0.0434
   36MOL0     C 4685   0.777   1.840   1.752 -0.4540  0.2505  0.0183
   36MOL0     C 4686   0.633   1.830   1.748 -0.2929 -0.5282  0.4620
   36MOL0     H 4687   0.229   1.947   1.498 -0.0914  0.5449  2.5086
   36MOL0     H 4688  -0.033   1.951   1.447  1.5323  1.7395  3.3680
   36MOL0     H 4689  -0.200   1.676   1.659 -1.9225 -0.3429 -0.1015
   36MOL0     H 4690  -0.340   1.658   1.550 -2.4250  0.9450  1.7360
   36MOL0     H 4691  -0.229   1.929   1.636  0.5107 -0.7152 -0.3957
   36MOL0     H 4692  -0.358   1.845   1.738  0.7464  1.8499 -0.0051
   36MOL0     H 4693  -0.358   1.916   1.452 -0.2816  0.3240  0.1235
   36MOL0     H 4694  -0.419   2.021   1.596 -0.1456  0.4059 -0.7366
   36MOL0     H 4695  -0.530   1.760   1.505  0.0115  0.2994 -2.0591
   36MOL0     H 4696  -0.582   1.836   1.652 -2.7552 -3.2571 -1.4994
   36MOL0     H 4697  -0.743   1.831   1.474  0.9511 -0.6584  0.7053
   36MOL0     H 4698  -0.651   1.937   1.369 -0.8845 -0.9141 -0.8896
   36MOL0     H 4699  -0.639   2.116   1.551  0.6200 -0.7791  0.4561
   36MOL0     H 4700  -0.752   2.027   1.648 -2.4251 -1.9653 -1.0266
   36MOL0     H 4701  -0.822   2.140   1.369 -1.7269  2.9549  0.2415
   36MOL0     H 4702  -0.917   2.023   1.470  1.5479 -1.8415 -0.8746
   36MOL0     H 4703  -0.797   2.292   1.555  0.5028 -1.0653 -1.1124
   36MOL0     H 4704  -0.908   2.184   1.657 -0.3905  0.8482 -0.5663
   36MOL0     H 4705  -1.122   2.297   1.691  2.0964  0.5099  0.6393
   36MOL0     H 4706  -1.373   2.298   1.613  3.2218 -2.5374 -1.2344
   36MOL0     H 4707  -1.417   2.341   1.446 -2.2767  2.4388  0.5427
   36MOL0     H 4708  -1.366   2.567   1.471  0.2304  0.9996  0.7807
   36MOL0     H 4709  -1.309   2.542   1.640  1.4369  2.3994 -1.7261
   36MOL0     H 4710  -1.511   2.491   1.726  0.2273 -0.2131 -0.1403
   36MOL0     H 4711  -1.542   2.643   1.635 -0.3784  0.5738 -1.6017
   36MOL0     H 4712  -1.617   2.381   1.501  0.0267  0.7485 -1.9268
   36MOL0     H 4713  -1.668   2.547   1.467 -2.0587 -0.7544 -1.0659
   36MOL0     H 4714  -1.940   2.493   1.766 -1.3035 -0.3046  0.2338
   36MOL0     H 4715  -2.182   2.426   1.713 -1.1554 -0.2213  0.6424
   36MOL0     H 4716  -2.510   2.086   1.681  3.1526  1.9558  0.7588
   36MOL0     H 4717  -2.764   2.063   1.608 -1.6882  0.6656 -0.9201
   36MOL0     H 4718  -2.931   2.354   1.612 -0.2382  0.4877 -2.1441
   36MOL0     H 4719  -2.993   2.195   1.652  2.2200 -0.0038  0.3972
   36MOL0     H 4720  -3.155   2.216   1.476  1.3718 -0.1461  2.4342
   36MOL0     H 4721  -3.095   2.382   1.431  0.0613  1.1590  0.6779
   36MOL0     H 4722  -3.153   2.464   1.655  2.4213 -0.4849 -2.8634
   36MOL0     H 4723  -3.225   2.307   1.694 -0.3322  0.9554  0.2397
   36MOL0     H 4724  -3.310   2.503   1.479 -2.3665  0.8440  2.4234
   36MOL0     H 4725  -3.371   2.337   1.497 -2.2918  0.5554 -0.8463
   36MOL0     H 4726  -3.497   2.537   1.607 -0.2858  0.8603  0.4232
   36MOL0     H 4727  -3.375   2.525   1.724  1.7289 -2.7505  0.1399
   36MOL0     H 4728  -3.459   2.331   1.819  1.3643 -0.3899  0.9741
   36MOL0     H 4729  -3.492   2.260   1.662  0.0849  0.7696  0.5966
   36MOL0     H 4730  -3.665   2.471   1.807 -2.4682 -0.7183  0.8637
   36MOL0     H 4731  -3.708   2.408   1.652  0.2072 -2.4291 -0.7716
   36MOL0     H 4732  -3.698   2.260   1.927 -1.7540 -2.4822  0.8553
   36MOL0     H 4733  -3.713   2.168   1.768  1.9322  1.6923 -2.4367
   36MOL0     H 4734  -2.698   2.400   1.347 -1.6034 -1.4743 -0.3636
   36MOL0     H 4735  -2.477   2.440   1.444  2.1460 -1.7684 -0.3398
   36MOL0     H 4736  -2.023   2.248   1.348  2.3984 -2.2922  0.8225
   36MOL0     H 4737  -1.795   2.305   1.415 -0.8595 -3.3282  1.1745
   36MOL0     H 4738  -0.055   1.533   1.493  0.4826 -1.0375  2.5394
   36MOL0     H 4739   0.196   1.518   1.533 -0.0033 -0.6474  2.1751
   36MOL0     H 4740   0.591   1.756   1.425  2.8988  0.5218 -1.7252
   36MOL0     H 4741   0.844   1.762   1.427 -1.0422  0.8948 -0.7955
   36MOL0     H 4742   0.996   1.988   1.754 -0.2927 -0.3696 -1.0704
   36MOL0     H 4743   1.015   2.043   1.593  0.6860  0.4610 -0.8039
   36MOL0     H 4744   1.201   1.883   1.777 -1.3484 -0.4072  0.7585
   36MOL0     H 4745   1.237   1.872   1.601  1.5762  3.0284 -0.1724
   36MOL0     H 4746   1.188   2.131   1.736 -2.1594 -2.6232 -0.2554
   36MOL0     H 4747   1.249   2.109   1.574 -1.5982  1.3905  0.2886
   36MOL0     H 4748   1.460   2.041   1.616 -2.1147  0.2944 -2.0347
   36MOL0     H 4749   1.441   2.167   1.744  1.5998 -1.8227  2.0234
   36MOL0     H 4750   1.499   1.825   1.973 -2.7297 -2.6659 -0.9078
   36MOL0     H 4751   0.843   1.868   1.833  1.3135  1.9859 -1.9007
   36MOL0     H 4752   0.588   1.842   1.846  2.2782 -2.6510  2.0364
   37MOL0     O 4753   4.037   5.320   1.663 -0.5464  0.4817  0.2448
   37MOL0     C 4754   4.038   5.320   1.788  0.4252  0.9482 -0.0052
   37MOL0     O 4755   3.942   5.294   1.877 -0.1365 -0.3793  0.2632
   37MOL0     C 4756   3.826   5.243   1.839  0.1202  0.1610  0.3800
   37MOL0     C 4757   3.767   5.128   1.903 -0.7087 -0.7339 -0.5248
   37MOL0     C 4758   3.640   5.090   1.872  0.0669 -0.3889 -0.1941
   37MOL0     C 4759   3.567   5.152   1.772  0.2216 -0.1367  0.5322
   37MOL0     O 4760   3.441   5.110   1.721  0.2956  0.3960 -0.2898
   37MOL0     C 4761   3.375   5.005   1.792  0.7524  0.0036 -0.1650
   37MOL0     C 4762   3.235   4.965   1.741 -0.7956  0.6149 -0.5552
   37MOL0     C 4763   3.118   5.067   1.750 -0.3267 -0.2545 -0.1923
   37MOL0     C 4764   2.979   5.007   1.706 -0.1877  0.6829 -0.1611
   37MOL0     C 4765   2.865   5.103   1.753 -0.1064 -0.6613  0.1642
   37MOL0     C 4766   2.723   5.071   1.699  0.1160 -0.2107 -0.1640
   37MOL0     C 4767   2.635   5.191   1.685  0.5830 -0.6353  0.0355
   37MOL0     C 4768   2.518   5.171   1.588 -0.5089 -0.2225 -0.6332
   37MOL0     N 4769   2.410   5.256   1.608  0.4596 -0.4890  0.2500
   37MOL0     C 4770   2.344   5.277   1.727 -0.5051 -0.3777 -0.3720
   37MOL0     C 4771   2.232   5.358   1.689 -0.1928 -0.5351 -0.0988
   37MOL0     C 4772   2.117   5.404   1.788 -1.3036  1.1635  0.0006
   37MOL0     C 4773   2.153   5.542   1.835  0.5726 -0.7443 -0.2029
   37MOL0     C 4774   2.042   5.589   1.925  0.0440 -0.7454 -0.3420
   37MOL0     C 4775   2.067   5.739   1.965  0.8085 -0.5338 -0.1479
   37MOL0     O 4776   1.988   5.779   2.077  0.0240  0.3446 -0.6187
   37MOL0     C 4777   1.877   5.847   2.039 -0.2424  1.0558 -0.6181
   37MOL0     C 4778   1.876   5.968   1.978  0.1688 -0.7433  0.2202
   37MOL0     C 4779   1.752   6.035   1.944 -0.8851 -0.0584 -0.0607
   37MOL0     C 4780   1.630   5.966   1.970  0.5734 -0.6173  0.3093
   37MOL0     C 4781   1.503   6.024   1.947  0.4750  0.1933 -0.4974
   37MOL0     O 4782   1.506   6.159   1.921  0.2661 -0.8173  0.1836
   37MOL0     C 4783   1.393   6.237   1.888 -0.2877 -0.9336 -0.4499
   37MOL0     C 4784   1.360   6.340   1.972 -0.0205  0.6219 -0.5649
   37MOL0     C 4785   1.242   6.420   1.935 -0.0092 -0.4308  0.4542
   37MOL0     C 4786   1.180   6.396   1.815 -1.3544  0.0318  0.0433
   37MOL0     O 4787   1.079   6.483   1.793  0.0885  0.1305  0.2719
   37MOL0     C 4788   0.952   6.428   1.772  0.0578 -0.6604 -0.2039
   37MOL0     C 4789   0.850   6.519   1.701  0.4926 -0.0130  0.1659
   37MOL0     C 4790   0.707   6.447   1.704 -0.2686  0.3601 -0.3488
   37MOL0     C 4791   0.605   6.535   1.637  0.1718  0.0772 -0.4418
   37MOL0     C 4792   0.477   6.453   1.624  0.6252 -0.4594 -1.0090
   37MOL0     C 4793   0.371   6.546   1.568 -0.4326  0.3068  0.2535
   37MOL0     C 4794   0.243   6.476   1.533 -0.0012 -0.9397 -0.4901
   37MOL0     C 4795   0.145   6.571   1.463  0.4405  0.2906  0.2069
   37MOL0    Cl 4796  -0.019   6.509   1.490  0.3830 -0.1185 -0.6508
   37MOL0     C 4797   1.221   6.295   1.724  0.7271  0.8313 -0.7546
   37MOL0     C 4798   1.331   6.217   1.768  0.0177 -0.2159  0.3168
   37MOL0     O 4799   1.402   5.952   1.952  0.0583 -0.4072 -0.0367
   37MOL0     C 4800   1.639   5.836   2.020 -0.1529  0.5895 -1.1852
   37MOL0     C 4801   1.761   5.774   2.059  0.5805 -0.1062 -1.0186
   37MOL0     N 4802   2.249   5.391   1.556 -0.2279 -0.2964 -0.0958
   37MOL0     N 4803   2.353   5.331   1.507 -0.1801 -0.3863 -0.4537
   37MOL0     C 4804   3.622   5.259   1.699  0.6556 -0.0903 -0.1683
   37MOL0     C 4805   3.749   5.308   1.748  0.8267  0.3569  0.8527
   37MOL0     C 4806   4.166   5.369   1.847  0.4562  1.2013 -0.0465
   37MOL0     C 4807   4.188   5.386   1.983 -0.2241 -0.7826  0.3391
   37MOL0     C 4808   4.318   5.406   2.028 -0.1664 -0.1320  0.1592
   37MOL0     C 4809   4.423   5.451   1.944  0.2180 -0.5847 -0.5006
   37MOL0     O 4810   4.540   5.479   2.012 -0.1008 -0.2504 -0.7063
   37MOL0     C 4811   4.649   5.529   1.935 -0.3772 -0.6563  0.0350
   37MOL0     C 4812   4.774   5.562   2.010  0.1430  0.4410  0.2552
   37MOL0     C 4813   4.835   5.435   2.075 -0.1477 -0.2969 -0.8023
   37MOL0     C 4814   4.949   5.480   2.165  0.2361  0.0698  0.1526
   37MOL0     C 4815   5.079   5.467   2.090 -0.3585 -0.5262 -0.4031
   37MOL0     C 4816   5.173   5.439   2.011 -0.2278  0.4645  0.3198
   37MOL0     C 4817   4.399   5.436   1.807 -0.9343 -1.0936 -0.2370
   37MOL0     C 4818   4.272   5.397   1.760  0.5787 -0.0223  0.0247
   37MOL0     H 4819   3.824   5.074   1.978  1.5510 -1.0090 -2.3238
   37MOL0     H 4820   3.609   5.007   1.935 -1.8864  0.3797 -0.0855
   37MOL0     H 4821   3.377   5.039   1.896  1.4238  0.2556 -0.2561
   37MOL0     H 4822   3.434   4.913   1.785  2.2148  0.7864  1.2827
   37MOL0     H 4823   3.206   4.870   1.785 -0.8094  1.6515  1.8077
   37MOL0     H 4824   3.246   4.941   1.635  2.2945 -1.3277  0.0803
   37MOL0     H 4825   3.142   5.151   1.684  0.6852 -1.5762 -1.5971
   37MOL0     H 4826   3.108   5.099   1.854  0.0581 -2.0599  0.4296
   37MOL0     H 4827   2.976   4.975   1.601  2.6679  1.1396 -0.4336
   37MOL0     H 4828   2.959   4.914   1.761  0.6396  1.9698  2.4703
   37MOL0     H 4829   2.909   5.191   1.705 -0.2994 -1.6613 -1.9651
   37MOL0     H 4830   2.867   5.121   1.861  1.1705  0.2238  0.0060
   37MOL0     H 4831   2.675   4.993   1.758 -0.5873 -0.2356 -0.7480
   37MOL0     H 4832   2.738   5.028   1.599  0.1092  0.2278 -0.3563
   37MOL0     H 4833   2.606   5.225   1.785  0.6903  0.6373 -0.3437
   37MOL0     H 4834   2.696   5.274   1.648 -1.6254  1.2150  0.3414
   37MOL0     H 4835   2.472   5.073   1.600  0.6918 -0.5479  1.8424
   37MOL0     H 4836   2.553   5.184   1.485  0.1934  1.2902 -0.2255
   37MOL0     H 4837   2.362   5.239   1.827 -1.8454 -0.6434 -0.2095
   37MOL0     H 4838   2.104   5.335   1.872 -2.0644 -1.0040 -1.7860
   37MOL0     H 4839   2.019   5.393   1.741 -1.1926 -1.4195  0.2202
   37MOL0     H 4840   2.164   5.606   1.746  2.4379 -1.2310 -0.3557
   37MOL0     H 4841   2.246   5.529   1.890  2.2429 -0.0292 -2.6602
   37MOL0     H 4842   1.939   5.566   1.894  0.4413 -0.6612 -1.7792
   37MOL0     H 4843   2.065   5.529   2.013  3.2847  0.0165 -0.5538
   37MOL0     H 4844   2.050   5.805   1.880 -0.9815 -0.7519  0.0187
   37MOL0     H 4845   2.173   5.759   1.988  0.3021  3.8016 -0.6435
   37MOL0     H 4846   1.964   6.030   1.965  0.5762 -0.7061  2.7644
   37MOL0     H 4847   1.752   6.135   1.902 -1.2943 -0.8090 -1.9691
   37MOL0     H 4848   1.426   6.359   2.056 -3.1272 -0.0393  2.2131
   37MOL0     H 4849   1.198   6.485   2.011  0.1630 -1.3327  1.3515
   37MOL0     H 4850   0.906   6.401   1.868 -1.0751  1.3897 -0.1173
   37MOL0     H 4851   0.961   6.333   1.719  1.4860 -0.6607  0.0021
   37MOL0     H 4852   0.880   6.548   1.600  0.2343  1.1614  0.4037
   37MOL0     H 4853   0.838   6.608   1.764  0.3435 -1.3627  2.1263
   37MOL0     H 4854   0.667   6.431   1.804  0.0509 -0.4643 -0.3423
   37MOL0     H 4855   0.714   6.344   1.669  1.0849 -0.7556  2.8830
   37MOL0     H 4856   0.582   6.628   1.690 -1.3102  0.5053 -1.7324
   37MOL0     H 4857   0.648   6.554   1.538 -1.1105 -5.2687 -2.3900
   37MOL0     H 4858   0.439   6.421   1.721 -0.6921  1.1529 -0.9364
   37MOL0     H 4859   0.491   6.365   1.561 -2.3596 -2.1437  0.4477
   37MOL0     H 4860   0.400   6.594   1.474 -1.9552 -1.7383 -1.3384
   37MOL0     H 4861   0.356   6.623   1.645 -1.4713 -0.9902  1.4272
   37MOL0     H 4862   0.277   6.388   1.478  1.1588 -2.4023  2.3765
   37MOL0     H 4863   0.197   6.445   1.627 -1.3404  0.5349 -0.6113
   37MOL0     H 4864   0.159   6.581   1.355 -0.6049  0.4213  0.0741
   37MOL0     H 4865   0.152   6.669   1.511  1.8987 -0.2717  1.1980
   37MOL0     H 4866   1.174   6.291   1.626 -0.0603 -0.0719 -0.3527
   37MOL0     H 4867   1.360   6.134   1.705 -1.1898 -0.5437  0.1628
   37MOL0     H 4868   1.548   5.783   2.046  0.3050  0.5340  0.4574
   37MOL0     H 4869   1.754   5.677   2.108  1.6121  0.5358  0.4581
   37MOL0     H 4870   3.571   5.311   1.619  2.9340  1.8216 -0.4986
   37MOL0     H 4871   3.791   5.390   1.691 -1.4107  2.5878  2.1840
   37MOL0     H 4872   4.101   5.376   2.049 -2.2022  1.0693 -1.8132
   37MOL0     H 4873   4.342   5.417   2.133  0.9526  1.6082 -0.2265
   37MOL0     H 4874   4.613   5.613   1.876  1.2185 -0.2995 -0.4765
   37MOL0     H 4875   4.680   5.460   1.857 -0.5633  1.0819 -1.6387
   37MOL0     H 4876   4.841   5.619   1.944  1.2410  2.4237  2.8723
   37MOL0     H 4877   4.739   5.624   2.093  0.9102  3.0804 -1.2658
   37MOL0     H 4878   4.856   5.357   2.002 -5.2997 -1.3811 -1.5305
   37MOL0     H 4879   4.757   5.381   2.129 -0.1174 -1.2512 -1.6930
   37MOL0     H 4880   4.943   5.584   2.199  0.7380  0.3815 -0.6959
   37MOL0     H 4881   4.944   5.419   2.256 -1.6910 -3.8263 -2.2917
   37MOL0     H 4882   5.252   5.404   1.947 -0.6260  0.2834 -0.0733
   37MOL0     H 4883   4.477   5.459   1.735  1.1291 -2.2504  1.5299
   37MOL0     H 4884   4.265   5.395   1.651 -1.6213  0.6920  0.0925
   38MOL0     O 4885   5.957   5.207   9.743 -0.8189 -0.3517  0.4835
   38MOL0     C 4886   5.942   5.324   9.696 -0.1481  0.6543 -0.5318
   38MOL0     O 4887   5.835   5.396   9.709 -0.2747  0.3115 -0.5227
   38MOL0     C 4888   5.742   5.345   9.799 -0.2241 -0.5294  0.2043
   38MOL0     C 4889   5.749   5.389   9.931  0.3711  0.4707  0.4729
   38MOL0     C 4890   5.656   5.339  10.037 -0.2688  0.3424  0.3025
   38MOL0     C 4891   5.556   5.241   9.993  1.2709 -0.0004 -0.3430
   38MOL0     O 4892   5.448   5.199  10.080 -0.4248  0.3346  0.3215
   38MOL0     C 4893   5.345   5.112  10.029 -0.0518 -0.3382  0.3455
   38MOL0     C 4894   5.247   5.062  10.135 -0.4963  0.3462  0.4137
   38MOL0     C 4895   5.139   4.957  10.082 -0.0635  0.1415 -0.2339
   38MOL0     C 4896   5.048   4.920  10.206 -0.4542 -0.1788 -0.8691
   38MOL0     C 4897   4.921   4.834  10.173  1.1287  0.0547  0.6650
   38MOL0     C 4898   4.842   4.808  10.302 -0.5471  0.5674  0.1272
   38MOL0     C 4899   4.793   4.932  10.376  0.1505 -0.0938 -0.2708
   38MOL0     C 4900   4.707   4.891  10.494 -0.2954  0.2883 -0.1630
   38MOL0     N 4901   4.645   5.006  10.571 -0.7130 -0.5542  0.0127
   38MOL0     C 4902   4.512   5.030  10.575  0.6812 -0.6291 -0.0847
   38MOL0     C 4903   4.506   5.129  10.671 -0.3668 -0.1748  0.6972
   38MOL0     C 4904   4.367   5.180  10.702  0.0196  0.2110 -0.1130
   38MOL0     C 4905   4.295   5.088  10.805  0.1494 -0.2701 -0.1867
   38MOL0     C 4906   4.146   5.086  10.796  0.2260 -0.6435  0.2495
   38MOL0     C 4907   4.081   5.224  10.836 -0.7399 -0.2638  0.4823
   38MOL0     O 4908   3.950   5.191  10.884 -0.2243 -0.1251 -0.1423
   38MOL0     C 4909   3.850   5.164  10.791  0.8107 -0.3901  0.3284
   38MOL0     C 4910   3.763   5.067  10.831  0.0960 -0.1314  0.5534
   38MOL0     C 4911   3.660   5.029  10.736 -0.4217  0.2803  0.1618
   38MOL0     C 4912   3.644   5.098  10.614  0.1996 -1.2071  0.0687
   38MOL0     C 4913   3.538   5.059  10.515 -0.2674  0.0012 -0.1331
   38MOL0     O 4914   3.515   5.132  10.401  0.0108 -0.1050 -0.3632
   38MOL0     C 4915   3.406   5.086  10.326 -0.6934 -0.0895  0.2383
   38MOL0     C 4916   3.436   5.015  10.208 -0.0682  0.4479 -0.2174
   38MOL0     C 4917   3.332   4.956  10.143  0.7600  0.6395 -0.7290
   38MOL0     C 4918   3.196   4.988  10.170 -0.3731  0.8241 -0.4292
   38MOL0     O 4919   3.099   4.937  10.081  0.1399  0.0592 -0.4905
   38MOL0     C 4920   2.960   4.936  10.123 -0.0928  0.1661 -0.0721
   38MOL0     C 4921   2.896   5.051  10.053 -0.6328 -0.2348  0.7550
   38MOL0     C 4922   2.751   5.075  10.114  0.8486 -0.1124  0.7642
   38MOL0     C 4923   2.693   5.201  10.035 -0.3240  1.0783  0.8259
   38MOL0     C 4924   2.564   5.267  10.094 -0.7480 -0.5150 -0.3740
   38MOL0     C 4925   2.482   5.345   9.988  0.3577 -0.0661 -0.3547
   38MOL0     C 4926   2.357   5.411  10.059  0.0235 -0.4271 -0.1909
   38MOL0     C 4927   2.252   5.454   9.958  0.7447  0.2154  0.5402
   38MOL0    Cl 4928   2.166   5.304   9.889  0.0002 -0.1311 -0.1608
   38MOL0     C 4929   3.166   5.059  10.291  0.1219 -0.5342  1.4569
   38MOL0     C 4930   3.275   5.108  10.366  0.4413 -0.0921  0.0214
   38MOL0     O 4931   3.485   4.950  10.542  0.1261 -0.2785 -0.0201
   38MOL0     C 4932   3.724   5.216  10.587  0.3983 -0.1756 -0.4578
   38MOL0     C 4933   3.834   5.239  10.674  1.0565 -0.4841  0.3774
   38MOL0     N 4934   4.632   5.165  10.709  0.4058  1.1144  0.2046
   38MOL0     N 4935   4.720   5.090  10.649  1.1555 -0.1600  0.3545
   38MOL0     C 4936   5.560   5.196   9.857 -0.2350 -0.0436  0.2246
   38MOL0     C 4937   5.646   5.250   9.763  0.5637 -0.1183  0.3899
   38MOL0     C 4938   6.051   5.390   9.625 -0.3572  0.1555  0.4290
   38MOL0     C 4939   6.183   5.375   9.660 -1.3444  0.0587  0.0859
   38MOL0     C 4940   6.287   5.440   9.589 -0.7462  0.4344 -0.2713
   38MOL0     C 4941   6.254   5.539   9.493  0.0219 -0.7677 -0.2986
   38MOL0     O 4942   6.342   5.603   9.419  0.4611 -0.3282  0.5570
   38MOL0     C 4943   6.480   5.624   9.465  0.7742 -0.4909 -1.0879
   38MOL0     C 4944   6.566   5.518   9.415  0.3233  0.6401  0.3076
   38MOL0     C 4945   6.546   5.492   9.261  0.2462 -0.6949 -0.1542
   38MOL0     C 4946   6.602   5.364   9.215 -0.1929 -0.1359  0.3421
   38MOL0     C 4947   6.748   5.356   9.229 -0.1556  0.0165  1.0714
   38MOL0     C 4948   6.871   5.352   9.235  0.1876 -0.0783 -0.1926
   38MOL0     C 4949   6.115   5.548   9.459  0.2486 -0.1015 -0.5136
   38MOL0     C 4950   6.011   5.473   9.522 -0.3174  0.3581  0.4698
   38MOL0     H 4951   5.836   5.450   9.951 -1.0319  2.3634  1.0910
   38MOL0     H 4952   5.657   5.365  10.142 -0.0982  1.2720  0.0826
   38MOL0     H 4953   5.382   5.030   9.967 -0.0498 -0.7285  0.8561
   38MOL0     H 4954   5.281   5.172   9.962  0.9519  1.5687  1.0279
   38MOL0     H 4955   5.191   5.153  10.160  0.7314  1.4834 -0.7622
   38MOL0     H 4956   5.316   5.026  10.211 -0.5490 -0.7602 -0.0429
   38MOL0     H 4957   5.196   4.882  10.027  0.9022 -0.1455  1.1119
   38MOL0     H 4958   5.069   5.004  10.013 -1.3149 -3.7399 -1.8731
   38MOL0     H 4959   5.105   4.865  10.281 -1.3559 -1.8134 -1.3236
   38MOL0     H 4960   5.002   5.011  10.244 -0.8756  0.3466 -2.5363
   38MOL0     H 4961   4.957   4.744  10.122  1.3885  0.6727 -0.2581
   38MOL0     H 4962   4.852   4.882  10.102  0.2095  0.4536  1.7937
   38MOL0     H 4963   4.901   4.736  10.359  2.4803  1.7346 -1.3215
   38MOL0     H 4964   4.755   4.748  10.273  1.6349 -0.6009 -5.0050
   38MOL0     H 4965   4.875   4.995  10.412  0.7143 -0.5427 -0.7484
   38MOL0     H 4966   4.730   4.994  10.311  1.3633 -0.1549 -1.5458
   38MOL0     H 4967   4.763   4.824  10.558 -2.0469 -3.7589 -2.4800
   38MOL0     H 4968   4.631   4.822  10.457  0.8244 -1.0568 -0.0092
   38MOL0     H 4969   4.429   4.990  10.519  1.2774 -1.5993 -0.3007
   38MOL0     H 4970   4.309   5.176  10.610  0.7704 -0.9181 -0.5558
   38MOL0     H 4971   4.378   5.280  10.745 -0.2738 -0.6373  2.0648
   38MOL0     H 4972   4.336   5.117  10.903 -1.1869  0.5299  0.1671
   38MOL0     H 4973   4.329   4.985  10.791 -0.7590 -0.5679 -0.1949
   38MOL0     H 4974   4.120   5.065  10.692 -0.5400 -2.8058  0.8104
   38MOL0     H 4975   4.110   5.005  10.860 -1.6608 -0.5345 -0.5977
   38MOL0     H 4976   4.092   5.303  10.762  0.4517  0.0459  0.9660
   38MOL0     H 4977   4.121   5.262  10.931 -1.6137  3.4472 -0.4959
   38MOL0     H 4978   3.774   5.021  10.929  2.7331  0.0349  0.4175
   38MOL0     H 4979   3.600   4.944  10.766  0.3877  0.5271  2.6347
   38MOL0     H 4980   3.541   5.013  10.183 -0.1282  0.7560 -0.5054
   38MOL0     H 4981   3.365   4.886  10.067 -3.4238 -1.3144 -1.0098
   38MOL0     H 4982   2.948   4.937  10.231  0.5865 -0.7960  0.0339
   38MOL0     H 4983   2.919   4.841  10.085  3.2487 -1.1605 -0.7514
   38MOL0     H 4984   2.883   5.031   9.946 -4.1391  2.7842  0.4302
   38MOL0     H 4985   2.963   5.137  10.064 -0.2835 -0.3090 -0.5988
   38MOL0     H 4986   2.759   5.096  10.221  0.0024 -1.7065  1.1703
   38MOL0     H 4987   2.687   4.987  10.111  0.5644  0.0728  1.2827
   38MOL0     H 4988   2.761   5.286  10.020  1.9729 -0.9067 -0.9457
   38MOL0     H 4989   2.678   5.162   9.934  0.3944 -1.6324  1.6683
   38MOL0     H 4990   2.599   5.325  10.180  2.7290 -0.2268 -1.8130
   38MOL0     H 4991   2.494   5.196  10.139 -0.4381  0.0978  1.1287
   38MOL0     H 4992   2.436   5.269   9.925 -2.2522  2.1162 -1.2535
   38MOL0     H 4993   2.533   5.412   9.917 -0.9847 -0.2140 -1.4924
   38MOL0     H 4994   2.321   5.341  10.135 -0.5670  3.3422  3.3595
   38MOL0     H 4995   2.388   5.495  10.122 -4.0891  1.7951 -0.7506
   38MOL0     H 4996   2.285   5.517   9.875  0.6228 -2.2234 -1.4795
   38MOL0     H 4997   2.169   5.505  10.007 -0.6701 -2.3002  0.9367
   38MOL0     H 4998   3.068   5.099  10.316 -0.1755 -0.7545  0.6702
   38MOL0     H 4999   3.264   5.162  10.459  2.5745 -1.0815  0.9246
   38MOL0     H 5000   3.718   5.273  10.494  2.4931 -0.8616 -1.0599
   38MOL0     H 5001   3.907   5.317  10.656  2.1302 -0.8958  2.6900
   38MOL0     H 5002   5.489   5.124   9.819 -1.5648  1.7873 -0.9062
   38MOL0     H 5003   5.637   5.216   9.660 -0.6867 -0.0923  0.4741
   38MOL0     H 5004   6.216   5.308   9.738  1.9355 -0.7531 -1.7876
   38MOL0     H 5005   6.388   5.413   9.617 -1.2735 -1.5977 -0.1500
   38MOL0     H 5006   6.489   5.627   9.574  0.7490 -3.9344 -0.8597
   38MOL0     H 5007   6.522   5.720   9.434 -1.7543  0.8870 -0.5294
   38MOL0     H 5008   6.668   5.555   9.428  1.2152 -0.3709 -2.9929
   38MOL0     H 5009   6.559   5.423   9.469 -0.1233 -1.4828 -3.2007
   38MOL0     H 5010   6.594   5.580   9.216  4.1644 -1.8698  1.2542
   38MOL0     H 5011   6.439   5.486   9.242  0.0224 -0.9688  1.1157
   38MOL0     H 5012   6.549   5.288   9.273 -0.4517 -0.3649 -0.1852
   38MOL0     H 5013   6.590   5.348   9.108 -0.0885 -0.2062  0.3419
   38MOL0     H 5014   6.978   5.342   9.243 -0.1450 -3.4834  2.8042
   38MOL0     H 5015   6.093   5.618   9.378 -1.5578 -0.3449 -0.2857
   38MOL0     H 5016   5.908   5.477   9.488 -0.5265  1.5751  1.1995
   39MOL0     O 5017   1.817   4.557   9.503  0.6366  0.0584  0.4272
   39MOL0     C 5018   1.909   4.610   9.434  0.2214 -0.7919  0.8029
   39MOL0     O 5019   1.889   4.678   9.316  1.2117 -0.8616  0.4389
   39MOL0     C 5020   1.762   4.710   9.275  0.4861 -0.6334 -0.4727
   39MOL0     C 5021   1.724   4.841   9.272  0.6050 -1.0705  1.1816
   39MOL0     C 5022   1.602   4.888   9.227  0.2651 -0.1282  0.6001
   39MOL0     C 5023   1.521   4.789   9.160  0.1979  0.3351 -0.2551
   39MOL0     O 5024   1.399   4.810   9.103  0.3216  0.7125 -0.7303
   39MOL0     C 5025   1.397   4.943   9.046  0.1292  0.5232  0.0661
   39MOL0     C 5026   1.255   4.960   8.990 -0.3372 -0.2495 -0.1352
   39MOL0     C 5027   1.137   4.905   9.077  1.0971 -0.5026  0.2698
   39MOL0     C 5028   1.008   4.964   9.018  0.8001 -0.5130 -0.7438
   39MOL0     C 5029   0.888   4.951   9.116 -0.2218 -0.1617  0.3064
   39MOL0     C 5030   0.825   4.812   9.116  0.0699  0.2387 -0.8527
   39MOL0     C 5031   0.724   4.800   9.004  0.0656 -0.4608 -0.2520
   39MOL0     C 5032   0.656   4.664   8.997  0.6424 -0.0447 -0.3641
   39MOL0     N 5033   0.584   4.653   8.874  0.9907 -0.2880 -0.6378
   39MOL0     C 5034   0.622   4.604   8.751  0.4734  0.5465  0.2731
   39MOL0     C 5035   0.510   4.610   8.670  0.1723 -0.3330  0.0909
   39MOL0     C 5036   0.484   4.543   8.531 -0.8221 -1.2382  0.2150
   39MOL0     C 5037   0.477   4.385   8.534  0.0305 -0.0974 -0.2147
   39MOL0     C 5038   0.385   4.331   8.640  0.5672 -0.5045 -0.8690
   39MOL0     C 5039   0.340   4.185   8.620  0.1600  0.3536  0.1960
   39MOL0     O 5040   0.260   4.140   8.726 -0.6193 -0.6500 -0.0533
   39MOL0     C 5041   0.185   4.028   8.723  0.6405 -0.2669  0.3443
   39MOL0     C 5042   0.046   4.051   8.737 -0.1143  0.1060 -0.3500
   39MOL0     C 5043  -0.044   3.946   8.736 -0.5396  0.5492 -0.4454
   39MOL0     C 5044   0.007   3.818   8.713  0.5328  0.1685 -0.4881
   39MOL0     C 5045  -0.102   3.717   8.684  0.7926 -1.0318  0.5434
   39MOL0     O 5046  -0.241   3.734   8.715  0.0352  0.0109 -0.1919
   39MOL0     C 5047  -0.337   3.632   8.711 -0.3602 -0.0995 -0.3490
   39MOL0     C 5048  -0.467   3.673   8.714 -0.2796  0.9822  0.4910
   39MOL0     C 5049  -0.573   3.584   8.699  0.1716  0.4932  0.2322
   39MOL0     C 5050  -0.553   3.446   8.679  0.4497 -0.0205  0.6191
   39MOL0     O 5051  -0.657   3.350   8.669 -0.4730 -0.1444 -0.2964
   39MOL0     C 5052  -0.786   3.377   8.709  1.0835  0.8317 -0.3951
   39MOL0     C 5053  -0.797   3.372   8.859 -0.2164 -0.1060  0.3314
   39MOL0     C 5054  -0.768   3.227   8.910 -0.1886 -0.0880  0.8581
   39MOL0     C 5055  -0.806   3.206   9.057  0.3194  0.6566  0.4096
   39MOL0     C 5056  -0.743   3.083   9.108  0.1427 -0.0223 -0.1374
   39MOL0     C 5057  -0.797   3.066   9.253 -0.0702  0.3228  0.2763
   39MOL0     C 5058  -0.717   2.959   9.333  0.0885  0.6316 -0.0939
   39MOL0     C 5059  -0.725   2.814   9.291 -0.2026 -0.1174  0.7107
   39MOL0    Cl 5060  -0.891   2.764   9.266  0.0762 -0.1749  0.2578
   39MOL0     C 5061  -0.423   3.405   8.673 -0.3593  0.3969  0.6714
   39MOL0     C 5062  -0.314   3.500   8.684  0.2148  0.0401 -0.5755
   39MOL0     O 5063  -0.064   3.623   8.619 -0.4529  0.2738 -0.0609
   39MOL0     C 5064   0.143   3.796   8.681 -0.6364  0.7498  0.6340
   39MOL0     C 5065   0.233   3.904   8.691  0.8434 -0.1614 -0.4475
   39MOL0     N 5066   0.413   4.667   8.755 -0.2439  0.8183 -0.0192
   39MOL0     N 5067   0.451   4.688   8.870  0.4214  0.0288 -1.2534
   39MOL0     C 5068   1.559   4.656   9.159 -0.7835 -1.2104 -0.2295
   39MOL0     C 5069   1.680   4.615   9.215  0.2451  0.6572  0.4002
   39MOL0     C 5070   2.043   4.589   9.483 -0.9054 -0.1534 -0.0997
   39MOL0     C 5071   2.145   4.569   9.388 -1.0823 -0.2864  0.7779
   39MOL0     C 5072   2.269   4.537   9.444 -0.5068  1.4448 -0.7213
   39MOL0     C 5073   2.292   4.530   9.584  0.3748  0.5215 -0.5396
   39MOL0     O 5074   2.417   4.495   9.633 -0.0183 -0.6026 -0.3483
   39MOL0     C 5075   2.520   4.462   9.547  0.3493 -0.3422  0.0466
   39MOL0     C 5076   2.653   4.436   9.620 -0.4229 -0.1236  0.7278
   39MOL0     C 5077   2.687   4.559   9.710  0.2929 -0.2106  0.4239
   39MOL0     C 5078   2.820   4.531   9.781 -0.1328  1.0600  0.3859
   39MOL0     C 5079   2.943   4.555   9.697  0.5938 -0.4411 -0.2191
   39MOL0     C 5080   3.042   4.560   9.630 -0.1538 -0.8473  0.2974
   39MOL0     C 5081   2.186   4.549   9.676 -0.5137  0.2888 -0.2157
   39MOL0     C 5082   2.068   4.580   9.619 -0.0923 -0.4538 -0.7201
   39MOL0     H 5083   1.793   4.919   9.300  0.4940 -1.2570  2.0024
   39MOL0     H 5084   1.579   4.993   9.243  1.4622 -0.1801  3.2091
   39MOL0     H 5085   1.472   4.952   8.967 -0.0262 -1.8028 -0.4102
   39MOL0     H 5086   1.405   5.028   9.114 -1.3376  3.9735 -3.6816
   39MOL0     H 5087   1.255   4.928   8.886  0.7145 -0.2458 -0.1518
   39MOL0     H 5088   1.242   5.069   8.987 -0.4384 -0.2596 -3.7562
   39MOL0     H 5089   1.151   4.945   9.178  0.5720 -1.1553  0.6094
   39MOL0     H 5090   1.143   4.796   9.073  0.2047 -0.5310 -0.8468
   39MOL0     H 5091   1.024   5.071   8.999 -0.0122 -0.2603 -0.0746
   39MOL0     H 5092   0.974   4.917   8.925 -4.0646 -2.2868  1.6090
   39MOL0     H 5093   0.811   5.024   9.094 -1.1922 -0.8099  1.4148
   39MOL0     H 5094   0.927   4.966   9.218 -0.6494 -0.9806  0.6003
   39MOL0     H 5095   0.768   4.799   9.209 -3.3148 -0.2803 -2.8312
   39MOL0     H 5096   0.907   4.741   9.104  0.0006  0.2695 -1.5449
   39MOL0     H 5097   0.653   4.882   9.019  2.0258  0.6506  5.0032
   39MOL0     H 5098   0.781   4.831   8.916 -0.5040  3.0718  0.4781
   39MOL0     H 5099   0.589   4.662   9.084  0.0904  0.1211 -0.7803
   39MOL0     H 5100   0.737   4.591   9.007 -1.3285 -2.5920 -1.7620
   39MOL0     H 5101   0.711   4.550   8.720 -0.6267 -0.5898 -0.9874
   39MOL0     H 5102   0.565   4.563   8.460 -0.1888 -0.2045  1.1817
   39MOL0     H 5103   0.392   4.578   8.483  0.1827 -1.8120 -2.2849
   39MOL0     H 5104   0.573   4.344   8.564  0.1889  1.6507  1.8806
   39MOL0     H 5105   0.455   4.341   8.436 -0.0368  2.7897 -1.6113
   39MOL0     H 5106   0.435   4.338   8.738 -0.6917 -0.8247 -0.1829
   39MOL0     H 5107   0.293   4.389   8.635 -0.2701 -1.5770  0.8969
   39MOL0     H 5108   0.423   4.115   8.606  0.1022  0.6978 -2.5211
   39MOL0     H 5109   0.284   4.176   8.526 -0.7070 -2.2161  0.8607
   39MOL0     H 5110   0.003   4.149   8.753 -0.7012 -0.2925  0.6744
   39MOL0     H 5111  -0.149   3.957   8.760 -0.2988  0.9751  0.4623
   39MOL0     H 5112  -0.497   3.777   8.717 -3.1941  0.2213  0.8598
   39MOL0     H 5113  -0.671   3.630   8.702  0.6773  1.5721  0.5011
   39MOL0     H 5114  -0.852   3.301   8.666  0.3098  1.2774 -0.0309
   39MOL0     H 5115  -0.833   3.467   8.667 -1.6000 -1.1716 -2.0257
   39MOL0     H 5116  -0.894   3.414   8.889 -0.2585  0.3776 -0.4506
   39MOL0     H 5117  -0.734   3.457   8.887 -0.8988  1.1300 -1.7114
   39MOL0     H 5118  -0.662   3.211   8.888 -0.7561 -0.2400 -2.3114
   39MOL0     H 5119  -0.816   3.152   8.846  3.0469 -4.1090  2.6546
   39MOL0     H 5120  -0.771   3.285   9.123 -0.4971  0.2469  1.3717
   39MOL0     H 5121  -0.915   3.206   9.070  0.4162 -0.1704  1.3424
   39MOL0     H 5122  -0.635   3.090   9.097  0.1289  1.7798  0.6387
   39MOL0     H 5123  -0.782   2.999   9.049  0.7051 -2.5617  2.8728
   39MOL0     H 5124  -0.903   3.052   9.230  0.2604 -0.1381 -1.0627
   39MOL0     H 5125  -0.780   3.156   9.312  4.7355  0.3442 -0.7482
   39MOL0     H 5126  -0.614   2.994   9.333 -0.3802  2.1115 -1.3164
   39MOL0     H 5127  -0.755   2.961   9.436  1.2774  0.4599  0.3603
   39MOL0     H 5128  -0.686   2.755   9.374  0.3534 -1.0900 -0.2171
   39MOL0     H 5129  -0.663   2.806   9.201 -1.9707  3.1304 -0.9814
   39MOL0     H 5130  -0.401   3.302   8.647 -1.2798  0.7895 -1.9707
   39MOL0     H 5131  -0.215   3.457   8.676  0.3888  0.7134 -3.0111
   39MOL0     H 5132   0.180   3.700   8.646  1.4874  2.1366 -1.2393
   39MOL0     H 5133   0.339   3.893   8.667  1.1823 -1.7751  1.5886
   39MOL0     H 5134   1.493   4.577   9.125 -0.6698 -1.5474  0.3185
   39MOL0     H 5135   1.696   4.508   9.212 -0.7638  0.5070  0.3144
   39MOL0     H 5136   2.134   4.555   9.281  1.1753 -3.5922  0.8256
   39MOL0     H 5137   2.356   4.516   9.382  0.9614  0.0260  1.6830
   39MOL0     H 5138   2.554   4.528   9.466  2.6468 -0.6638  0.6947
   39MOL0     H 5139   2.488   4.370   9.497  0.0664 -1.6591  2.5358
   39MOL0     H 5140   2.646   4.339   9.670 -2.2902 -0.1071  0.5899
   39MOL0     H 5141   2.728   4.425   9.542  0.5887 -0.2673  1.6994
   39MOL0     H 5142   2.618   4.584   9.791  0.8799  2.0867  0.2906
   39MOL0     H 5143   2.676   4.655   9.658 -0.8223 -0.7362 -0.3540
   39MOL0     H 5144   2.834   4.596   9.868  1.1589  1.4845 -0.1101
   39MOL0     H 5145   2.813   4.424   9.806 -3.8481  0.5754 -2.0111
   39MOL0     H 5146   3.136   4.559   9.578 -0.0489  4.3790 -0.1704
   39MOL0     H 5147   2.202   4.546   9.784  0.1516 -0.8849 -0.3363
   39MOL0     H 5148   1.984   4.598   9.684 -0.4180 -0.2807 -1.1823
   40MOL0     O 5149   5.694   8.488   7.109  0.1411  0.0648  0.8626
   40MOL0     C 5150   5.766   8.545   7.182  0.1127 -1.3325 -1.0759
   40MOL0     O 5151   5.731   8.600   7.309  0.3666  0.4408  0.3761
   40MOL0     C 5152   5.597   8.602   7.365 -0.1023  0.7478 -0.3960
   40MOL0     C 5153   5.473   8.581   7.303  0.9422 -0.3122  0.0487
   40MOL0     C 5154   5.355   8.589   7.378 -0.2120  0.0887  0.6206
   40MOL0     C 5155   5.364   8.607   7.521  0.9476 -0.2587  0.7031
   40MOL0     O 5156   5.255   8.617   7.604  0.3779 -0.2908  0.1871
   40MOL0     C 5157   5.121   8.573   7.563  0.1363 -0.8180  0.7906
   40MOL0     C 5158   5.031   8.691   7.586  0.0768  0.3337 -0.7508
   40MOL0     C 5159   4.895   8.640   7.541  0.0488 -0.0197 -0.2653
   40MOL0     C 5160   4.782   8.739   7.560 -0.1557 -0.1001 -0.0159
   40MOL0     C 5161   4.716   8.718   7.697 -0.0479  0.4447  0.4231
   40MOL0     C 5162   4.583   8.786   7.700 -0.6920  0.5274  0.1597
   40MOL0     C 5163   4.527   8.763   7.842  1.2497  0.1091  0.5740
   40MOL0     C 5164   4.391   8.834   7.851 -0.3460  0.2789 -0.5495
   40MOL0     N 5165   4.287   8.779   7.762  0.0690  0.0960 -0.4331
   40MOL0     C 5166   4.204   8.868   7.695 -0.4165 -0.0320  0.1548
   40MOL0     C 5167   4.094   8.803   7.654 -1.2995  0.0739 -0.0795
   40MOL0     C 5168   3.979   8.870   7.594 -0.4227  0.4216 -0.5244
   40MOL0     C 5169   3.975   8.874   7.442  0.0377  0.0078  0.1309
   40MOL0     C 5170   3.873   8.974   7.389 -0.4566  0.8058  0.5857
   40MOL0     C 5171   3.739   8.905   7.353 -0.0457  0.1325 -0.5033
   40MOL0     O 5172   3.651   8.916   7.465  0.2738 -0.4220  0.7182
   40MOL0     C 5173   3.515   8.917   7.446  0.2692  0.9642  0.7505
   40MOL0     C 5174   3.457   8.893   7.318  1.0337  0.0062 -0.5556
   40MOL0     C 5175   3.317   8.901   7.307 -0.2213 -1.1658  0.7641
   40MOL0     C 5176   3.238   8.923   7.416  0.3185 -0.1103 -0.1932
   40MOL0     C 5177   3.084   8.936   7.405 -0.1301  0.3046  0.5461
   40MOL0     O 5178   3.034   8.946   7.279 -0.5937 -0.2800 -0.2699
   40MOL0     C 5179   2.899   8.923   7.268  0.4831  0.0169 -0.0033
   40MOL0     C 5180   2.819   9.037   7.240  0.1724  0.1967 -0.3706
   40MOL0     C 5181   2.679   9.026   7.217  1.1603  0.6801  1.0286
   40MOL0     C 5182   2.614   8.901   7.207 -0.5169 -0.4668  0.8635
   40MOL0     O 5183   2.476   8.905   7.192 -1.1953 -0.5956 -0.0167
   40MOL0     C 5184   2.408   8.780   7.222 -0.4832 -0.5316  0.1025
   40MOL0     C 5185   2.284   8.790   7.133  0.0338 -0.3137 -0.1885
   40MOL0     C 5186   2.205   8.658   7.120  0.5908  0.2144  0.0324
   40MOL0     C 5187   2.285   8.541   7.053 -0.2877 -0.5424 -0.2841
   40MOL0     C 5188   2.189   8.423   7.028 -0.3252 -0.8895 -0.1960
   40MOL0     C 5189   2.095   8.441   6.904  0.8458  0.4038  0.3192
   40MOL0     C 5190   1.958   8.515   6.909 -0.1104 -0.5549  0.0215
   40MOL0     C 5191   1.881   8.471   7.030 -0.2829 -0.2726 -0.6158
   40MOL0    Cl 5192   1.855   8.295   7.026  0.2305 -0.4892 -0.1174
   40MOL0     C 5193   2.691   8.787   7.244 -0.3579  0.0119  0.3993
   40MOL0     C 5194   2.829   8.794   7.275 -0.7545 -0.2991  0.0310
   40MOL0     O 5195   3.017   8.921   7.505 -0.4238  0.9615 -0.1673
   40MOL0     C 5196   3.295   8.957   7.536 -0.3938  0.0967  0.2982
   40MOL0     C 5197   3.433   8.951   7.551  0.1927 -0.2342 -0.2789
   40MOL0     N 5198   4.116   8.671   7.687  0.2825  0.4798  1.0985
   40MOL0     N 5199   4.234   8.652   7.745  0.1377  0.4227  0.5365
   40MOL0     C 5200   5.488   8.632   7.576 -0.7032 -0.2890  1.1799
   40MOL0     C 5201   5.598   8.631   7.499 -0.1154  0.6883 -0.0627
   40MOL0     C 5202   5.906   8.561   7.146  0.4066  0.5440  0.0355
   40MOL0     C 5203   5.951   8.552   7.013 -0.3074 -0.4150 -0.5842
   40MOL0     C 5204   6.090   8.568   6.979  0.2014 -0.9311 -0.6713
   40MOL0     C 5205   6.175   8.610   7.080 -0.4372 -0.1163  0.8106
   40MOL0     O 5206   6.304   8.632   7.039  0.6129  0.0872  0.6947
   40MOL0     C 5207   6.383   8.702   7.134  0.0892  0.2791 -0.0453
   40MOL0     C 5208   6.517   8.749   7.077  0.2147  0.3072  0.3139
   40MOL0     C 5209   6.621   8.794   7.186 -0.1004 -0.3646 -0.6315
   40MOL0     C 5210   6.762   8.816   7.118  0.6880 -0.2272  0.1260
   40MOL0     C 5211   6.861   8.840   7.226 -0.5031  0.3658  0.6067
   40MOL0     C 5212   6.946   8.863   7.309 -0.8267 -0.1656 -1.0217
   40MOL0     C 5213   6.126   8.616   7.207 -0.3282  0.4981 -0.0602
   40MOL0     C 5214   5.996   8.596   7.247 -0.4678 -0.0644 -0.3157
   40MOL0     H 5215   5.480   8.552   7.198 -0.6665 -3.6494  0.7276
   40MOL0     H 5216   5.260   8.589   7.326 -0.7358  0.1672  1.5586
   40MOL0     H 5217   5.093   8.488   7.625 -0.2766 -0.7746  0.6647
   40MOL0     H 5218   5.117   8.543   7.458  0.6840  0.7761  0.2779
   40MOL0     H 5219   5.052   8.785   7.535  0.5662  0.1852 -0.8207
   40MOL0     H 5220   5.024   8.715   7.693 -0.3388  0.4028 -0.7902
   40MOL0     H 5221   4.866   8.545   7.588 -2.2086  1.3694  1.3607
   40MOL0     H 5222   4.910   8.610   7.437  0.6025 -1.3820  0.1765
   40MOL0     H 5223   4.823   8.841   7.552  2.6642 -1.2211 -1.2080
   40MOL0     H 5224   4.707   8.742   7.480  1.4642  1.4038 -1.5758
   40MOL0     H 5225   4.774   8.761   7.779  1.8829 -0.6840 -0.2719
   40MOL0     H 5226   4.715   8.611   7.719 -2.0726  0.0470 -1.2937
   40MOL0     H 5227   4.515   8.729   7.636  0.2700 -0.9674  0.4110
   40MOL0     H 5228   4.579   8.890   7.666 -3.2341  0.2815 -0.4772
   40MOL0     H 5229   4.508   8.657   7.863  1.3424  0.0528  0.3820
   40MOL0     H 5230   4.588   8.804   7.923 -0.6353 -0.9270  2.6049
   40MOL0     H 5231   4.404   8.942   7.838 -2.7489  0.3958 -2.6037
   40MOL0     H 5232   4.344   8.819   7.948 -0.9854  1.4180 -0.6736
   40MOL0     H 5233   4.224   8.973   7.680  1.6465 -0.5106 -0.7286
   40MOL0     H 5234   3.978   8.977   7.618 -2.3810  0.5837 -1.1866
   40MOL0     H 5235   3.886   8.826   7.631 -0.2717 -0.7655 -1.5112
   40MOL0     H 5236   3.955   8.775   7.400  0.3250 -0.3472  0.8044
   40MOL0     H 5237   4.074   8.887   7.398 -1.2083  0.2893 -2.8119
   40MOL0     H 5238   3.868   9.068   7.445  3.5305  2.0623 -0.8540
   40MOL0     H 5239   3.917   9.002   7.293 -0.9795  0.2010  0.1602
   40MOL0     H 5240   3.758   8.800   7.328  0.3911 -0.2307  1.2319
   40MOL0     H 5241   3.696   8.959   7.268  0.3178  1.6331  0.2211
   40MOL0     H 5242   3.515   8.860   7.232 -0.2191  2.1267 -2.2982
   40MOL0     H 5243   3.272   8.921   7.210 -0.9835  2.2061  1.6978
   40MOL0     H 5244   2.873   9.131   7.245 -0.2198  0.3717  1.3877
   40MOL0     H 5245   2.607   9.106   7.210 -0.6783 -0.4165  4.7876
   40MOL0     H 5246   2.373   8.764   7.324 -2.2386 -3.4938 -0.8460
   40MOL0     H 5247   2.461   8.693   7.184 -0.2963 -0.6107  0.5393
   40MOL0     H 5248   2.312   8.826   7.033  1.6750 -1.6016 -0.2280
   40MOL0     H 5249   2.207   8.859   7.169 -0.7435 -0.7124 -1.0083
   40MOL0     H 5250   2.133   8.673   7.039  4.0426  1.1013 -3.1323
   40MOL0     H 5251   2.164   8.629   7.217 -2.3609 -0.1363 -1.2350
   40MOL0     H 5252   2.343   8.574   6.967  3.1987 -0.7535  1.8022
   40MOL0     H 5253   2.356   8.508   7.129 -1.3216 -0.6570  0.6705
   40MOL0     H 5254   2.137   8.386   7.117  0.0359  0.3156  0.5449
   40MOL0     H 5255   2.256   8.344   6.996  1.4570 -0.2503  1.6809
   40MOL0     H 5256   2.068   8.343   6.862 -0.3844  0.9009 -0.1010
   40MOL0     H 5257   2.147   8.488   6.819  0.4079 -0.3830 -0.4028
   40MOL0     H 5258   1.969   8.624   6.910  0.7923 -0.5891  3.3287
   40MOL0     H 5259   1.885   8.488   6.832 -1.4528 -1.3473  1.5137
   40MOL0     H 5260   1.780   8.512   7.037  0.3207  1.0635  0.8659
   40MOL0     H 5261   1.939   8.498   7.119 -1.5041 -1.3352  0.5702
   40MOL0     H 5262   2.646   8.691   7.266  0.1709 -0.8890 -2.1475
   40MOL0     H 5263   2.881   8.703   7.303 -0.2703 -0.1040 -0.2089
   40MOL0     H 5264   3.225   8.971   7.618  0.4444 -1.0503  1.2602
   40MOL0     H 5265   3.472   8.986   7.647 -1.2986 -0.5077  0.4627
   40MOL0     H 5266   5.502   8.650   7.683  0.0947 -0.6192  1.1349
   40MOL0     H 5267   5.696   8.656   7.537 -0.7798 -0.7866  3.0239
   40MOL0     H 5268   5.891   8.523   6.927 -0.9830  0.4466 -0.4135
   40MOL0     H 5269   6.126   8.570   6.876  0.8231 -2.3826 -0.4984
   40MOL0     H 5270   6.411   8.643   7.222  1.6426  0.5969 -0.2934
   40MOL0     H 5271   6.331   8.792   7.169 -0.2255  0.5001 -1.0605
   40MOL0     H 5272   6.562   8.665   7.023  2.0088  1.2799  0.1991
   40MOL0     H 5273   6.499   8.834   7.011  0.9662 -1.1182 -1.8334
   40MOL0     H 5274   6.618   8.710   7.257 -3.4748  1.0419  1.1721
   40MOL0     H 5275   6.575   8.875   7.243  2.4344  1.4161 -0.9621
   40MOL0     H 5276   6.787   8.723   7.064  0.1182  0.3592 -1.1907
   40MOL0     H 5277   6.758   8.896   7.044 -2.3307 -1.6676 -1.4598
   40MOL0     H 5278   7.008   8.867   7.396 -1.1268  3.3524 -0.8570
   40MOL0     H 5279   6.184   8.651   7.291  0.5828 -0.6067 -0.2027
   40MOL0     H 5280   5.967   8.609   7.350  1.9816 -2.6436  0.8245
   41MOL0     O 5281   6.929   5.730   7.667  0.1029  0.2073 -0.4394
   41MOL0     C 5282   6.967   5.633   7.594  0.7858  0.3653 -0.5281
   41MOL0     O 5283   6.883   5.536   7.547 -0.5320  0.0457 -0.0525
   41MOL0     C 5284   6.747   5.551   7.575 -0.4764 -0.4849  0.2544
   41MOL0     C 5285   6.668   5.443   7.635 -0.3302 -0.0470  0.2156
   41MOL0     C 5286   6.524   5.441   7.619 -0.1803 -1.0597 -0.0712
   41MOL0     C 5287   6.456   5.550   7.566 -0.9669  0.4007  0.0638
   41MOL0     O 5288   6.316   5.530   7.563 -0.4566  0.1346 -0.3130
   41MOL0     C 5289   6.230   5.647   7.566  0.5239  0.2656 -0.1128
   41MOL0     C 5290   6.088   5.597   7.594  0.0273  0.5035  0.4112
   41MOL0     C 5291   6.030   5.509   7.481 -0.3349  0.2670  0.9040
   41MOL0     C 5292   5.877   5.501   7.477 -0.0694 -0.5515 -0.3593
   41MOL0     C 5293   5.800   5.630   7.427  0.3382 -0.1744 -0.4133
   41MOL0     C 5294   5.835   5.670   7.281 -0.1370 -0.0823  0.0638
   41MOL0     C 5295   5.779   5.572   7.180  0.6187 -0.2448  0.3541
   41MOL0     C 5296   5.622   5.538   7.189 -0.2497  0.6336  0.3300
   41MOL0     N 5297   5.583   5.460   7.074 -0.7425  0.3913  0.1254
   41MOL0     C 5298   5.521   5.341   7.089  0.7008  0.3131  0.8435
   41MOL0     C 5299   5.515   5.289   6.959  1.0869 -1.2612  0.0983
   41MOL0     C 5300   5.487   5.142   6.925  0.0471 -0.0737 -0.5831
   41MOL0     C 5301   5.345   5.131   6.886 -0.3452 -0.3241  0.3075
   41MOL0     C 5302   5.295   5.005   6.819  0.5608 -0.0835  0.4268
   41MOL0     C 5303   5.342   4.993   6.668  0.0300 -0.2472 -0.2283
   41MOL0     O 5304   5.293   4.868   6.617 -0.9074  0.1631  0.0134
   41MOL0     C 5305   5.160   4.858   6.578  0.2555 -0.0052 -0.5272
   41MOL0     C 5306   5.065   4.967   6.584  0.1359  0.2535 -0.2774
   41MOL0     C 5307   4.937   4.951   6.529  0.9273 -0.3314  0.1160
   41MOL0     C 5308   4.896   4.827   6.473  0.0229  1.1296  0.0600
   41MOL0     C 5309   4.761   4.817   6.419  0.1770 -0.1118  0.1643
   41MOL0     O 5310   4.738   4.715   6.326  0.0085  0.2033  0.7272
   41MOL0     C 5311   4.620   4.682   6.261  0.2469  0.1502  0.2009
   41MOL0     C 5312   4.502   4.760   6.235  0.2810  0.3430 -0.3482
   41MOL0     C 5313   4.386   4.715   6.180 -0.1440  0.2552 -0.3909
   41MOL0     C 5314   4.381   4.583   6.134  0.8616 -0.1661  0.2635
   41MOL0     O 5315   4.279   4.531   6.060  0.1918 -0.2653 -0.1328
   41MOL0     C 5316   4.147   4.587   6.069 -0.2213  0.4309 -0.6310
   41MOL0     C 5317   4.056   4.538   5.964 -0.3815  0.5042  1.3104
   41MOL0     C 5318   3.913   4.595   5.981 -0.2006  0.9817 -0.3779
   41MOL0     C 5319   3.833   4.496   6.077 -0.3352 -0.0233 -0.2836
   41MOL0     C 5320   3.686   4.544   6.109  0.3305 -0.6010  0.3345
   41MOL0     C 5321   3.601   4.548   5.981 -0.1709  0.5088 -0.1264
   41MOL0     C 5322   3.451   4.577   6.005  0.3396  1.1594  0.9929
   41MOL0     C 5323   3.386   4.619   5.880 -0.2119 -0.0836  0.0372
   41MOL0    Cl 5324   3.335   4.487   5.790  0.1232  0.1168 -0.0324
   41MOL0     C 5325   4.499   4.504   6.144  0.2887 -0.5571  0.5961
   41MOL0     C 5326   4.620   4.558   6.204  1.0733  0.2414  0.0338
   41MOL0     O 5327   4.679   4.901   6.449 -0.0040 -0.6017 -0.6524
   41MOL0     C 5328   4.987   4.718   6.469 -0.1796 -0.7392 -0.4835
   41MOL0     C 5329   5.117   4.738   6.522  0.5089  0.3689  0.3314
   41MOL0     N 5330   5.579   5.387   6.875  0.5504  0.4895 -0.5022
   41MOL0     N 5331   5.616   5.486   6.943 -0.1626 -1.2864  0.2074
   41MOL0     C 5332   6.530   5.663   7.525  0.2585  0.1229  0.1242
   41MOL0     C 5333   6.673   5.656   7.516 -0.4683  0.3145 -0.3357
   41MOL0     C 5334   7.105   5.633   7.552  0.1933 -0.6062 -1.3923
   41MOL0     C 5335   7.194   5.734   7.601 -0.8218 -0.3104  0.2103
   41MOL0     C 5336   7.328   5.722   7.561  0.8198  0.5838  0.5871
   41MOL0     C 5337   7.373   5.637   7.457  0.9762 -0.0500  0.6971
   41MOL0     O 5338   7.495   5.629   7.391  0.3126  1.1079 -0.4763
   41MOL0     C 5339   7.595   5.721   7.423 -0.6562 -0.1730 -0.1449
   41MOL0     C 5340   7.729   5.684   7.360  0.3636 -0.1904  1.2451
   41MOL0     C 5341   7.843   5.776   7.392  0.3012  0.7222  0.4292
   41MOL0     C 5342   7.976   5.703   7.380  0.1250 -0.7885  1.1157
   41MOL0     C 5343   8.096   5.798   7.400  0.3496  0.5180 -1.1109
   41MOL0     C 5344   8.195   5.869   7.408  0.1394  0.4612 -1.2901
   41MOL0     C 5345   7.281   5.542   7.416 -0.1450 -0.4584 -0.5904
   41MOL0     C 5346   7.150   5.537   7.448  0.2815  0.4085 -0.1209
   41MOL0     H 5347   6.716   5.355   7.676  2.0800  0.5904 -1.0071
   41MOL0     H 5348   6.473   5.354   7.661 -2.3674  1.3186  2.5781
   41MOL0     H 5349   6.236   5.699   7.470  0.8722  0.1435 -0.1578
   41MOL0     H 5350   6.272   5.719   7.637 -0.9980 -0.3168  1.4499
   41MOL0     H 5351   6.024   5.686   7.595  0.6891  0.9845  0.7388
   41MOL0     H 5352   6.076   5.536   7.684 -0.0933  0.1837  0.1821
   41MOL0     H 5353   6.067   5.408   7.499 -1.4087 -0.2455  0.3419
   41MOL0     H 5354   6.063   5.545   7.382 -0.9435 -0.0796  0.5719
   41MOL0     H 5355   5.845   5.412   7.422 -4.7478  0.3391  0.4819
   41MOL0     H 5356   5.841   5.484   7.579  0.7547 -0.6299 -0.0707
   41MOL0     H 5357   5.809   5.717   7.492 -0.4270  1.8382 -2.8684
   41MOL0     H 5358   5.699   5.588   7.429  1.5381 -3.3437  0.2292
   41MOL0     H 5359   5.944   5.682   7.281  0.4115 -3.6030  1.7686
   41MOL0     H 5360   5.789   5.766   7.259 -1.6011 -0.9602 -0.8848
   41MOL0     H 5361   5.799   5.628   7.088 -0.3900 -0.6295 -0.1194
   41MOL0     H 5362   5.833   5.477   7.181  0.9024 -0.0877 -0.0030
   41MOL0     H 5363   5.556   5.626   7.193 -0.6272  0.5323 -2.1706
   41MOL0     H 5364   5.597   5.475   7.275 -1.7560  1.0849  0.2556
   41MOL0     H 5365   5.496   5.304   7.188  1.7748  0.7464  1.2880
   41MOL0     H 5366   5.503   5.067   7.004  2.8598 -2.4022 -3.1237
   41MOL0     H 5367   5.551   5.110   6.842  1.4940  3.1444 -0.8311
   41MOL0     H 5368   5.324   5.210   6.813  0.9179 -0.0370  0.2235
   41MOL0     H 5369   5.301   5.139   6.986  3.0098 -0.6327  1.9844
   41MOL0     H 5370   5.323   4.911   6.867 -1.1112 -0.9355 -0.2039
   41MOL0     H 5371   5.187   5.018   6.830  0.5027 -0.6997  0.6125
   41MOL0     H 5372   5.451   4.992   6.665  0.0420 -0.0769  0.1054
   41MOL0     H 5373   5.301   5.072   6.604 -2.6004  0.6354  2.3128
   41MOL0     H 5374   5.103   5.054   6.637  2.9767 -1.7376  1.2338
   41MOL0     H 5375   4.869   5.036   6.531  1.3616  0.2172 -3.2707
   41MOL0     H 5376   4.503   4.860   6.279 -3.6189 -0.1657  1.2983
   41MOL0     H 5377   4.303   4.783   6.164 -1.8369 -0.9749  2.3053
   41MOL0     H 5378   4.143   4.697   6.067 -2.2596  0.3905 -0.9555
   41MOL0     H 5379   4.117   4.546   6.166 -2.2110 -2.0142 -2.1394
   41MOL0     H 5380   4.062   4.429   5.960  1.2489  0.5836  0.7489
   41MOL0     H 5381   4.088   4.580   5.868  0.6345  0.3992  1.5925
   41MOL0     H 5382   3.855   4.602   5.889 -2.1618 -2.6652  0.4021
   41MOL0     H 5383   3.924   4.695   6.023 -0.6504  0.8052  0.1726
   41MOL0     H 5384   3.817   4.398   6.031 -1.7202 -0.5321  1.1961
   41MOL0     H 5385   3.900   4.469   6.159 -1.6242 -3.5614 -0.2113
   41MOL0     H 5386   3.697   4.644   6.152  2.9007 -1.1780  1.2078
   41MOL0     H 5387   3.653   4.473   6.186 -1.3721 -0.8317 -0.5585
   41MOL0     H 5388   3.594   4.451   5.931  0.0516  0.7936 -0.7052
   41MOL0     H 5389   3.646   4.622   5.915  1.3362 -0.5972 -0.3844
   41MOL0     H 5390   3.397   4.495   6.054 -1.3681  1.3262 -0.4794
   41MOL0     H 5391   3.461   4.654   6.082  0.2533  3.0354 -0.7764
   41MOL0     H 5392   3.452   4.675   5.813 -0.6574  1.1889  0.6419
   41MOL0     H 5393   3.307   4.692   5.899 -1.5326 -0.5510 -3.1178
   41MOL0     H 5394   4.495   4.401   6.112  1.0666 -0.8949  1.5378
   41MOL0     H 5395   4.710   4.496   6.208  0.1749 -1.8736 -5.0084
   41MOL0     H 5396   4.949   4.622   6.434 -1.1013 -0.9285  0.9551
   41MOL0     H 5397   5.179   4.650   6.536  1.9034  0.8942 -1.9958
   41MOL0     H 5398   6.477   5.737   7.464 -1.1670 -0.8911  0.0744
   41MOL0     H 5399   6.727   5.742   7.476 -1.2919  0.4309 -1.2352
   41MOL0     H 5400   7.170   5.810   7.674  0.8379  1.6119 -1.1207
   41MOL0     H 5401   7.394   5.791   7.614 -1.4434  1.6194  2.2289
   41MOL0     H 5402   7.614   5.720   7.531 -0.0743  1.8555 -0.1716
   41MOL0     H 5403   7.551   5.817   7.392 -0.5441  0.8276  2.5408
   41MOL0     H 5404   7.753   5.584   7.399  0.5094 -1.1901 -1.2201
   41MOL0     H 5405   7.722   5.683   7.251  3.4299 -0.1222  0.9461
   41MOL0     H 5406   7.824   5.806   7.495 -4.0768  0.9762 -0.2613
   41MOL0     H 5407   7.839   5.857   7.318 -0.9581  1.5491  1.3779
   41MOL0     H 5408   7.983   5.614   7.443  0.2580 -0.6656  1.2757
   41MOL0     H 5409   7.990   5.672   7.277 -1.0418  0.8268  0.4267
   41MOL0     H 5410   8.282   5.929   7.424  1.0496 -1.6570  3.1271
   41MOL0     H 5411   7.324   5.460   7.359 -0.3519 -3.6343  3.3714
   41MOL0     H 5412   7.091   5.457   7.405  0.1662  1.0060 -1.1192
   42MOL0     O 5413  11.114   6.802   6.856  0.3536  0.3674 -0.4488
   42MOL0     C 5414  11.075   6.794   6.971 -0.2766 -0.7174 -0.0063
   42MOL0     O 5415  11.153   6.781   7.086  0.1085 -0.0972  0.2694
   42MOL0     C 5416  11.295   6.788   7.080  0.2712  0.5734 -0.2527
   42MOL0     C 5417  11.367   6.855   6.977 -0.0194 -0.7427  0.2546
   42MOL0     C 5418  11.501   6.847   6.950 -0.5564  0.0695 -0.0948
   42MOL0     C 5419  11.582   6.766   7.035  0.5011  1.5266 -0.1625
   42MOL0     O 5420  11.715   6.754   7.020 -0.8965  0.1686  0.9560
   42MOL0     C 5421  11.750   6.618   6.998  0.1620 -0.0147  0.1595
   42MOL0     C 5422  11.828   6.606   6.862 -0.2535  0.2035 -0.1693
   42MOL0     C 5423  11.977   6.622   6.875  0.1497 -0.6868 -0.6524
   42MOL0     C 5424  12.058   6.516   6.956  0.9519 -0.0196 -0.6628
   42MOL0     C 5425  12.026   6.364   6.928  0.2023 -0.0672  0.5817
   42MOL0     C 5426  12.061   6.317   6.781 -0.2592  0.2277  0.3757
   42MOL0     C 5427  12.052   6.168   6.749 -0.4388  0.0407  0.1404
   42MOL0     C 5428  11.921   6.128   6.676  0.6559  0.0323  0.0488
   42MOL0     N 5429  11.805   6.127   6.771 -0.1116  0.3433  0.4183
   42MOL0     C 5430  11.793   6.041   6.877  0.6546 -0.2794  0.0591
   42MOL0     C 5431  11.686   6.098   6.948 -0.4225  0.1290  0.5559
   42MOL0     C 5432  11.641   6.046   7.082  0.1530 -0.7101  0.5184
   42MOL0     C 5433  11.558   5.918   7.069  0.4291 -0.8701 -0.7527
   42MOL0     C 5434  11.444   5.902   7.175 -0.6602  0.3385  0.0501
   42MOL0     C 5435  11.406   5.755   7.187  1.1887  0.1268 -0.0498
   42MOL0     O 5436  11.314   5.737   7.296 -0.4438  0.3839  0.7194
   42MOL0     C 5437  11.180   5.749   7.266  0.0900 -0.0214 -0.9902
   42MOL0     C 5438  11.085   5.712   7.364  0.5585  0.0869 -0.9769
   42MOL0     C 5439  10.944   5.727   7.349  0.0713 -0.6300 -0.0238
   42MOL0     C 5440  10.893   5.764   7.221 -0.2252 -0.0004 -0.0320
   42MOL0     C 5441  10.749   5.776   7.194  0.0361 -0.3517  0.7395
   42MOL0     O 5442  10.669   5.711   7.287  0.5466  0.0739 -0.4303
   42MOL0     C 5443  10.530   5.720   7.269  0.6178  0.0812  0.7270
   42MOL0     C 5444  10.456   5.836   7.313  0.8037  0.4773  0.2182
   42MOL0     C 5445  10.319   5.854   7.265 -1.1351 -0.6070 -0.0852
   42MOL0     C 5446  10.257   5.752   7.191 -0.5591  0.0546  0.0159
   42MOL0     O 5447  10.126   5.774   7.164 -0.3735 -0.2268 -0.2594
   42MOL0     C 5448  10.031   5.672   7.161  0.2495 -0.2680 -0.0308
   42MOL0     C 5449   9.891   5.734   7.174 -1.0772 -0.0479  0.6059
   42MOL0     C 5450   9.777   5.634   7.171  0.2301 -0.2651  0.1905
   42MOL0     C 5451   9.635   5.701   7.167  0.0270  0.0063  0.1168
   42MOL0     C 5452   9.529   5.613   7.084  0.2200 -0.5316 -0.1919
   42MOL0     C 5453   9.383   5.669   7.098 -0.0853  0.5811 -0.8980
   42MOL0     C 5454   9.353   5.791   7.011  0.6059  0.8966  0.3779
   42MOL0     C 5455   9.222   5.849   7.050  0.4518 -0.8848 -0.5750
   42MOL0    Cl 5456   9.250   5.961   7.190 -0.0340 -0.1985 -0.3287
   42MOL0     C 5457  10.333   5.633   7.157  0.7233 -1.0576 -0.3149
   42MOL0     C 5458  10.470   5.624   7.194  0.3883  0.5914 -0.3108
   42MOL0     O 5459  10.710   5.840   7.100  0.0019  0.1895  0.8279
   42MOL0     C 5460  10.985   5.812   7.128  0.0706  0.3210 -1.0374
   42MOL0     C 5461  11.122   5.806   7.153  0.7530 -0.7441  0.5045
   42MOL0     N 5462  11.651   6.215   6.888 -0.8027  0.4633 -0.0913
   42MOL0     N 5463  11.730   6.242   6.787  0.3176  0.2796  0.2137
   42MOL0     C 5464  11.515   6.695   7.130  0.4317 -0.4508 -0.3415
   42MOL0     C 5465  11.377   6.712   7.153 -0.6597 -0.2066  0.0437
   42MOL0     C 5466  10.930   6.787   6.985 -0.1020  1.3715 -0.3303
   42MOL0     C 5467  10.852   6.721   6.891 -0.3885 -0.7319  0.2865
   42MOL0     C 5468  10.712   6.700   6.913 -0.4816  0.0829  0.5391
   42MOL0     C 5469  10.649   6.743   7.025  0.1557  0.7028 -0.3772
   42MOL0     O 5470  10.521   6.703   7.062  0.2415  0.4315 -0.0247
   42MOL0     C 5471  10.412   6.748   6.977  0.2036  0.1204 -0.5376
   42MOL0     C 5472  10.331   6.846   7.061  0.1510 -0.1857  0.3768
   42MOL0     C 5473  10.284   6.780   7.188  0.1508  0.3567  0.0740
   42MOL0     C 5474  10.175   6.861   7.262 -0.3606 -0.7434  0.2657
   42MOL0     C 5475  10.175   6.848   7.405  0.0601  1.2117  0.8898
   42MOL0     C 5476  10.163   6.840   7.522 -0.4720 -1.0030  0.2981
   42MOL0     C 5477  10.730   6.813   7.115  0.1594 -0.3886  0.1993
   42MOL0     C 5478  10.874   6.831   7.100 -0.0926 -0.8638  0.7121
   42MOL0     H 5479  11.322   6.927   6.910  0.6916  0.3707  0.9168
   42MOL0     H 5480  11.536   6.901   6.863 -2.5688  2.8707  0.6975
   42MOL0     H 5481  11.653   6.570   6.983 -0.8812  1.6366  1.3505
   42MOL0     H 5482  11.802   6.577   7.085  0.3268 -0.2022 -0.0255
   42MOL0     H 5483  11.787   6.684   6.797 -2.5408 -1.8633 -1.4113
   42MOL0     H 5484  11.812   6.516   6.801  2.3072  0.3253 -1.1358
   42MOL0     H 5485  11.990   6.722   6.918 -1.4903 -0.8995  0.4270
   42MOL0     H 5486  12.020   6.634   6.775  0.1581 -0.1098 -0.5818
   42MOL0     H 5487  12.166   6.528   6.943  0.8893 -0.3723 -1.5814
   42MOL0     H 5488  12.033   6.512   7.062 -0.8472  1.3557 -0.9760
   42MOL0     H 5489  11.921   6.345   6.952 -0.0122  0.1194 -0.1697
   42MOL0     H 5490  12.092   6.303   6.990  1.2563  1.1610  0.7099
   42MOL0     H 5491  12.161   6.356   6.757 -1.0957  2.2666 -0.0242
   42MOL0     H 5492  11.993   6.372   6.715 -1.7862 -0.1942  1.5536
   42MOL0     H 5493  12.134   6.148   6.679  1.7461 -0.7457  2.7278
   42MOL0     H 5494  12.078   6.099   6.830 -0.3190 -1.0129 -0.7696
   42MOL0     H 5495  11.950   6.027   6.646 -0.4038 -1.0588  2.4359
   42MOL0     H 5496  11.905   6.197   6.592  1.1976 -2.5056 -2.2737
   42MOL0     H 5497  11.847   5.951   6.903  0.1548 -0.7100 -0.3639
   42MOL0     H 5498  11.585   6.126   7.133  2.9116  2.3144 -0.8142
   42MOL0     H 5499  11.729   6.025   7.144 -0.6197 -0.9685  1.5719
   42MOL0     H 5500  11.621   5.829   7.070 -0.0649 -1.2264 -0.0320
   42MOL0     H 5501  11.510   5.925   6.970 -0.7171 -0.1832 -0.1756
   42MOL0     H 5502  11.471   5.951   7.270 -1.9051 -0.3899  0.8118
   42MOL0     H 5503  11.361   5.963   7.138 -0.2958  0.6670 -0.2276
   42MOL0     H 5504  11.499   5.699   7.202  1.1909  0.3842  0.9410
   42MOL0     H 5505  11.356   5.711   7.100  2.9199  2.2273 -2.2442
   42MOL0     H 5506  11.132   5.674   7.454 -0.2155 -1.1298 -1.0663
   42MOL0     H 5507  10.867   5.693   7.418  1.4572 -2.0431  0.8802
   42MOL0     H 5508  10.497   5.915   7.375  1.2952 -0.2784  0.8679
   42MOL0     H 5509  10.264   5.945   7.284  0.6669  0.6937 -0.8020
   42MOL0     H 5510  10.057   5.589   7.226  2.7250 -0.9126 -1.6950
   42MOL0     H 5511  10.043   5.608   7.073  0.4678  0.0479 -0.2316
   42MOL0     H 5512   9.872   5.813   7.101  2.8913  0.5401 -0.0047
   42MOL0     H 5513   9.889   5.781   7.273 -2.6040 -1.2727  1.2048
   42MOL0     H 5514   9.786   5.559   7.251 -1.4180  0.8107  1.4616
   42MOL0     H 5515   9.790   5.582   7.076  1.9313  3.5792 -1.8834
   42MOL0     H 5516   9.600   5.720   7.269 -0.9065 -0.5139 -0.0937
   42MOL0     H 5517   9.630   5.794   7.110 -2.2864  0.0459  0.2887
   42MOL0     H 5518   9.527   5.512   7.126 -3.2304 -0.2094  0.7815
   42MOL0     H 5519   9.556   5.601   6.979 -0.4419 -0.5791 -0.3598
   42MOL0     H 5520   9.373   5.705   7.201 -4.8783  0.5725 -1.1334
   42MOL0     H 5521   9.313   5.586   7.083  1.2889 -0.5835 -1.0350
   42MOL0     H 5522   9.440   5.857   7.012  1.1540  0.2148 -0.5938
   42MOL0     H 5523   9.348   5.752   6.909 -1.2632 -0.0538  0.7805
   42MOL0     H 5524   9.147   5.774   7.077  0.7684 -0.2857  2.2778
   42MOL0     H 5525   9.172   5.902   6.968 -1.1991 -1.7145 -0.1498
   42MOL0     H 5526  10.278   5.549   7.116 -1.7568  0.8237 -1.0850
   42MOL0     H 5527  10.525   5.532   7.173 -1.2403 -1.1035  2.1976
   42MOL0     H 5528  10.945   5.853   7.036 -0.3783 -2.5466 -2.2463
   42MOL0     H 5529  11.186   5.837   7.070 -2.2359  0.6586 -1.4410
   42MOL0     H 5530  11.572   6.633   7.199  2.8079  1.1619 -0.7052
   42MOL0     H 5531  11.348   6.639   7.228  2.3836 -3.6774 -1.8302
   42MOL0     H 5532  10.895   6.681   6.800  1.7825 -0.1262  0.9794
   42MOL0     H 5533  10.655   6.645   6.839  0.1240 -1.2850  1.0664
   42MOL0     H 5534  10.350   6.659   6.961  0.1423  0.2768 -1.2143
   42MOL0     H 5535  10.449   6.791   6.883  1.5889  0.2055  0.0285
   42MOL0     H 5536  10.388   6.933   7.094 -2.6078  2.0256 -0.3265
   42MOL0     H 5537  10.254   6.882   6.992  3.3240  3.0436 -1.8725
   42MOL0     H 5538  10.374   6.765   7.248  0.9481 -0.4326 -1.2657
   42MOL0     H 5539  10.246   6.680   7.166  0.6166 -0.1323  1.4159
   42MOL0     H 5540  10.184   6.969   7.243  1.6690 -0.7903  0.7720
   42MOL0     H 5541  10.072   6.834   7.239 -0.8915  1.2978 -0.0171
   42MOL0     H 5542  10.151   6.859   7.626 -0.1163 -0.9759  0.3368
   42MOL0     H 5543  10.686   6.853   7.207 -2.1848  0.8062 -1.3277
   42MOL0     H 5544  10.927   6.884   7.178 -2.1336  2.8298 -0.1562
   43MOL0     O 5545   4.908   0.191  11.022 -0.3439 -0.3396  0.2777
   43MOL0     C 5546   4.938   0.086  10.966  0.3573 -0.6530 -0.4744
   43MOL0     O 5547   4.856  -0.031  10.959 -0.4520  0.1098 -0.4277
   43MOL0     C 5548   4.721  -0.021  10.988 -0.3474 -0.2048 -0.2369
   43MOL0     C 5549   4.651  -0.124  11.049  0.2878 -0.0693 -0.5389
   43MOL0     C 5550   4.515  -0.114  11.061  0.2985  0.1050 -0.1186
   43MOL0     C 5551   4.439  -0.004  11.006 -0.7006 -0.2553  1.5801
   43MOL0     O 5552   4.302   0.007  11.020  0.0690  0.1566  0.3431
   43MOL0     C 5553   4.219  -0.108  11.047 -0.2080  0.0720  0.2186
   43MOL0     C 5554   4.082  -0.075  11.000 -0.2253  0.4570 -0.2021
   43MOL0     C 5555   4.057  -0.086  10.850  1.3899  0.4712  0.3564
   43MOL0     C 5556   3.919  -0.039  10.820  0.0531  0.1050  0.0111
   43MOL0     C 5557   3.866  -0.083  10.685  0.1651  0.6663 -0.0881
   43MOL0     C 5558   3.818  -0.231  10.693  0.1306 -0.9975 -0.4193
   43MOL0     C 5559   3.777  -0.271  10.554  0.0438  0.8133  0.3345
   43MOL0     C 5560   3.658  -0.371  10.547 -0.7240  0.1763 -0.9856
   43MOL0     N 5561   3.532  -0.315  10.603 -0.1414 -0.1520  0.7028
   43MOL0     C 5562   3.468  -0.371  10.715 -0.3407 -0.0707  0.3424
   43MOL0     C 5563   3.359  -0.298  10.733  0.2501  0.0250  0.4108
   43MOL0     C 5564   3.265  -0.320  10.844 -0.0949  0.0154 -0.1849
   43MOL0     C 5565   3.308  -0.248  10.974  0.5129  0.0591 -0.5316
   43MOL0     C 5566   3.425  -0.328  11.032  1.2612 -0.7554 -0.7405
   43MOL0     C 5567   3.368  -0.459  11.094 -0.4327  0.0178  0.3110
   43MOL0     O 5568   3.270  -0.453  11.201  0.1492 -0.2841 -0.8732
   43MOL0     C 5569   3.131  -0.462  11.166 -0.6143 -0.1414  0.4186
   43MOL0     C 5570   3.035  -0.364  11.185 -0.0593  0.7784  0.3343
   43MOL0     C 5571   2.897  -0.397  11.163  0.6520 -0.0850 -1.2304
   43MOL0     C 5572   2.856  -0.531  11.132  1.2458 -0.2409 -0.9435
   43MOL0     C 5573   2.710  -0.559  11.124 -0.6971 -0.2717  0.2706
   43MOL0     O 5574   2.619  -0.459  11.167 -0.2748 -0.6821  0.1358
   43MOL0     C 5575   2.483  -0.477  11.165  0.0348  0.2917  1.8487
   43MOL0     C 5576   2.420  -0.488  11.045  0.5646 -0.4169 -0.5189
   43MOL0     C 5577   2.277  -0.498  11.046 -0.4664  0.1221  0.9433
   43MOL0     C 5578   2.201  -0.491  11.163  0.1159  0.0797  0.8924
   43MOL0     O 5579   2.061  -0.510  11.160  0.1277  0.2039 -0.2818
   43MOL0     C 5580   1.990  -0.461  11.040 -0.9780  0.2629  0.8051
   43MOL0     C 5581   1.854  -0.416  11.064 -0.0965  0.5905  0.6337
   43MOL0     C 5582   1.765  -0.412  10.941  0.4657 -0.0927 -0.0603
   43MOL0     C 5583   1.632  -0.365  10.988  0.3246  0.0311 -0.6885
   43MOL0     C 5584   1.569  -0.284  10.875  0.3827 -0.8436  0.4997
   43MOL0     C 5585   1.440  -0.209  10.898  0.0370 -1.2120 -0.4734
   43MOL0     C 5586   1.323  -0.302  10.921 -0.0164  0.1497 -0.5180
   43MOL0     C 5587   1.187  -0.229  10.905 -0.2928 -0.2817 -0.2311
   43MOL0    Cl 5588   1.127  -0.189  10.736  0.2198 -0.0034 -0.0223
   43MOL0     C 5589   2.267  -0.464  11.279 -0.2135 -0.8360  0.2376
   43MOL0     C 5590   2.403  -0.454  11.281 -0.1473 -0.4570 -0.0158
   43MOL0     O 5591   2.678  -0.671  11.084 -0.0885  0.6206 -0.0697
   43MOL0     C 5592   2.956  -0.627  11.113  0.0572  1.0430  0.6491
   43MOL0     C 5593   3.083  -0.593  11.128 -0.7320 -0.0570 -0.4829
   43MOL0     N 5594   3.345  -0.206  10.630 -0.8299  0.1945  0.4898
   43MOL0     N 5595   3.450  -0.211  10.553  0.2830 -0.7851  0.2406
   43MOL0     C 5596   4.503   0.100  10.948 -0.1926 -0.6192  0.2138
   43MOL0     C 5597   4.644   0.090  10.936 -0.1955  0.1982 -1.0609
   43MOL0     C 5598   5.065   0.085  10.886 -0.3474 -0.2937  0.3143
   43MOL0     C 5599   5.112  -0.019  10.806  0.3858 -0.0909 -0.2521
   43MOL0     C 5600   5.225  -0.004  10.728  1.2261  1.1441  0.6735
   43MOL0     C 5601   5.305   0.105  10.721  0.0970  0.1611  0.3504
   43MOL0     O 5602   5.419   0.120  10.649  0.2063  0.6495  0.7187
   43MOL0     C 5603   5.478   0.015  10.588  0.4044  0.3430  1.4322
   43MOL0     C 5604   5.620   0.049  10.541 -0.1830 -0.4384  0.1718
   43MOL0     C 5605   5.705   0.051  10.667  0.7036  0.2970  0.4891
   43MOL0     C 5606   5.834   0.139  10.653  0.2737 -0.4722 -0.1285
   43MOL0     C 5607   5.919   0.120  10.535 -0.3683  0.3706 -0.1500
   43MOL0     C 5608   5.994   0.122  10.443 -0.1993  1.2726 -0.7839
   43MOL0     C 5609   5.259   0.215  10.793 -0.4761 -0.1301 -0.0057
   43MOL0     C 5610   5.136   0.209  10.862  0.9832 -0.1872 -0.6196
   43MOL0     H 5611   4.706  -0.210  11.086 -1.0516 -1.6199 -2.0065
   43MOL0     H 5612   4.464  -0.197  11.109  2.2768 -0.1499  1.7370
   43MOL0     H 5613   4.224  -0.134  11.153 -0.2206  0.0800  0.2208
   43MOL0     H 5614   4.259  -0.192  10.991  2.2179  0.9305  0.5298
   43MOL0     H 5615   4.053   0.025  11.033 -0.0614 -0.0391  1.5494
   43MOL0     H 5616   4.030  -0.153  11.056  3.9111 -1.9524  0.7060
   43MOL0     H 5617   4.066  -0.191  10.819  0.9918  0.7994 -0.9366
   43MOL0     H 5618   4.125  -0.020  10.796  2.0848 -0.2898  0.2692
   43MOL0     H 5619   3.853  -0.065  10.904  0.6698 -2.3473 -0.2096
   43MOL0     H 5620   3.899   0.069  10.824 -4.0271 -0.4860  0.6153
   43MOL0     H 5621   3.936  -0.061  10.604  0.7621  0.1019  0.2576
   43MOL0     H 5622   3.776  -0.027  10.659  0.5195  1.1202 -0.3569
   43MOL0     H 5623   3.738  -0.228  10.768  1.8474  1.5126  1.4546
   43MOL0     H 5624   3.897  -0.293  10.736 -1.1085 -0.5528  2.7911
   43MOL0     H 5625   3.745  -0.179  10.505  0.5356  1.5931  1.4268
   43MOL0     H 5626   3.858  -0.320  10.498  0.2031 -0.4590  1.6133
   43MOL0     H 5627   3.687  -0.460  10.603 -0.1813  0.2784 -1.0900
   43MOL0     H 5628   3.652  -0.396  10.440 -1.5958  0.7273 -1.0725
   43MOL0     H 5629   3.509  -0.453  10.772  1.0956  1.9887  2.4429
   43MOL0     H 5630   3.252  -0.427  10.859  2.5583 -0.1150  2.0859
   43MOL0     H 5631   3.168  -0.281  10.813 -0.0492  0.1357 -0.1767
   43MOL0     H 5632   3.229  -0.227  11.047  0.5348  2.8757 -1.1924
   43MOL0     H 5633   3.335  -0.149  10.935 -0.7023 -0.5953 -3.3334
   43MOL0     H 5634   3.510  -0.342  10.965  2.0924  0.6052 -0.0173
   43MOL0     H 5635   3.465  -0.282  11.123  2.7017 -0.1447 -1.6635
   43MOL0     H 5636   3.463  -0.507  11.118  0.1336  0.3803 -1.1331
   43MOL0     H 5637   3.327  -0.522  11.014  0.7652 -1.0043  0.4726
   43MOL0     H 5638   3.075  -0.270  11.222  3.2985 -0.9745  1.6494
   43MOL0     H 5639   2.827  -0.315  11.176  2.6169  1.5501 -0.3201
   43MOL0     H 5640   2.481  -0.511  10.958 -0.1708 -1.6456 -0.7345
   43MOL0     H 5641   2.229  -0.526  10.953  0.3510 -0.3604  0.6513
   43MOL0     H 5642   2.008  -0.531  10.958  0.9049 -1.0478  2.2610
   43MOL0     H 5643   2.040  -0.370  11.005  1.6156 -1.2510  0.3523
   43MOL0     H 5644   1.870  -0.317  11.106  3.3432  1.0827 -1.4295
   43MOL0     H 5645   1.807  -0.475  11.143 -2.5398 -1.2310 -1.9560
   43MOL0     H 5646   1.741  -0.515  10.913 -1.8106  0.2322  0.4819
   43MOL0     H 5647   1.816  -0.359  10.861  3.5649 -2.1878  0.3252
   43MOL0     H 5648   1.571  -0.449  11.025  0.6144  0.9506  2.1305
   43MOL0     H 5649   1.645  -0.297  11.072 -1.5438 -0.0327 -0.2847
   43MOL0     H 5650   1.555  -0.359  10.796 -0.5043 -3.6737  3.1282
   43MOL0     H 5651   1.644  -0.220  10.829  1.0113 -2.3098 -0.6193
   43MOL0     H 5652   1.425  -0.147  10.809 -0.3574 -2.5097 -1.3334
   43MOL0     H 5653   1.453  -0.137  10.980  0.9609  0.2508 -1.8352
   43MOL0     H 5654   1.322  -0.378  10.842  1.9243 -0.9354  0.4547
   43MOL0     H 5655   1.343  -0.350  11.017  2.6941  2.1845  0.0446
   43MOL0     H 5656   1.186  -0.136  10.961  3.4176  1.7774 -3.1361
   43MOL0     H 5657   1.108  -0.286  10.954 -0.0878  1.6646  2.5886
   43MOL0     H 5658   2.214  -0.439  11.370  0.0234 -1.7355  0.6344
   43MOL0     H 5659   2.439  -0.438  11.382 -2.1550 -1.5876  0.9259
   43MOL0     H 5660   2.928  -0.725  11.075 -2.9776  2.4778 -1.1998
   43MOL0     H 5661   3.153  -0.675  11.119 -1.9514 -1.2771  0.7557
   43MOL0     H 5662   4.448   0.180  10.901  0.4259  0.9540  2.0457
   43MOL0     H 5663   4.693   0.168  10.878 -0.1993 -1.4201 -3.3917
   43MOL0     H 5664   5.055  -0.111  10.809  0.7902 -0.3664 -0.9132
   43MOL0     H 5665   5.255  -0.098  10.682 -2.6359 -1.3742  2.7878
   43MOL0     H 5666   5.422  -0.018  10.500 -0.6978  3.3221  0.9219
   43MOL0     H 5667   5.467  -0.075  10.650 -1.0722 -1.8152 -1.6675
   43MOL0     H 5668   5.669  -0.026  10.478  2.2599  2.1770 -1.2794
   43MOL0     H 5669   5.629   0.149  10.500  1.7378 -1.4661 -2.1655
   43MOL0     H 5670   5.729  -0.054  10.688 -0.7628  0.1944  1.7393
   43MOL0     H 5671   5.645   0.078  10.754 -0.3597  1.1579 -0.4829
   43MOL0     H 5672   5.805   0.245  10.656  0.4407 -0.4033 -0.7305
   43MOL0     H 5673   5.906   0.117  10.733  3.3676 -0.9781 -2.8355
   43MOL0     H 5674   6.068   0.118  10.366  0.2555  2.6856 -0.4594
   43MOL0     H 5675   5.322   0.303  10.788 -1.8905  0.9282  0.3758
   43MOL0     H 5676   5.099   0.298  10.913 -0.1083 -1.4664  0.8982
   44MOL0     O 5677  10.665   2.510   3.210  0.1680  0.0551  0.4095
   44MOL0     C 5678  10.683   2.527   3.096  0.7040  0.0708  0.5264
   44MOL0     O 5679  10.589   2.507   3.000 -0.0987  0.8746  0.3422
   44MOL0     C 5680  10.455   2.488   3.035 -0.1677 -0.0330 -0.3619
   44MOL0     C 5681  10.363   2.589   3.002 -0.4468  0.2005 -0.3207
   44MOL0     C 5682  10.227   2.564   3.006 -0.4124 -0.3472  0.2527
   44MOL0     C 5683  10.174   2.431   3.043 -0.9993 -0.1467  0.3806
   44MOL0     O 5684  10.037   2.417   3.044 -0.2330 -0.1790  0.9448
   44MOL0     C 5685   9.997   2.291   3.099 -0.4025 -0.4844 -0.0641
   44MOL0     C 5686   9.847   2.325   3.118  0.0552  0.8447 -0.1807
   44MOL0     C 5687   9.768   2.207   3.140  1.0021  0.3556  0.0664
   44MOL0     C 5688   9.771   2.104   3.032  0.1056 -0.1673  0.4181
   44MOL0     C 5689   9.670   1.987   3.060 -0.7499 -0.4647 -0.2232
   44MOL0     C 5690   9.525   2.034   3.037  0.1802 -0.1409 -0.3188
   44MOL0     C 5691   9.439   1.910   3.010 -0.4605  0.1514  0.4685
   44MOL0     C 5692   9.307   1.972   2.962 -0.2078 -0.2409 -0.6591
   44MOL0     N 5693   9.204   1.871   2.938 -0.7559  0.0856 -0.2850
   44MOL0     C 5694   9.091   1.854   3.019  1.7373  0.7045 -1.0035
   44MOL0     C 5695   9.008   1.778   2.956 -0.4125  0.6772 -0.0911
   44MOL0     C 5696   8.878   1.735   2.989  0.4652  0.3994 -0.0906
   44MOL0     C 5697   8.781   1.843   3.019  0.4031  0.2713  0.6168
   44MOL0     C 5698   8.635   1.781   3.022  0.3066  0.8777 -0.3478
   44MOL0     C 5699   8.536   1.878   3.070  0.1282  0.5623  0.9744
   44MOL0     O 5700   8.527   1.991   2.981  0.3120  0.6072 -0.2962
   44MOL0     C 5701   8.434   2.083   2.996 -0.9328 -0.1591  0.5310
   44MOL0     C 5702   8.431   2.191   2.900  1.0474  0.4130  0.5374
   44MOL0     C 5703   8.340   2.300   2.906  0.0657  0.0922  1.0287
   44MOL0     C 5704   8.253   2.295   3.014  0.9497 -0.3407 -0.2637
   44MOL0     C 5705   8.128   2.389   3.026 -0.1304 -0.5706 -0.1127
   44MOL0     O 5706   8.029   2.344   3.112 -0.5825 -0.3721  0.5046
   44MOL0     C 5707   7.940   2.435   3.157 -0.5211 -0.2652  0.8728
   44MOL0     C 5708   7.976   2.563   3.218 -0.7224  0.4047  0.0459
   44MOL0     C 5709   7.882   2.646   3.259  0.9794  0.0781  0.0978
   44MOL0     C 5710   7.745   2.617   3.240 -0.2198  0.1707  0.5424
   44MOL0     O 5711   7.654   2.713   3.282  0.2931  0.1814 -0.1355
   44MOL0     C 5712   7.542   2.661   3.357 -0.7037  0.1912  0.2221
   44MOL0     C 5713   7.454   2.779   3.413 -0.6709 -0.2360  0.1494
   44MOL0     C 5714   7.345   2.828   3.314  0.1948  0.0226  0.4802
   44MOL0     C 5715   7.253   2.935   3.383  0.3235  0.0032 -0.7625
   44MOL0     C 5716   7.157   3.019   3.285 -0.6514  0.5475  0.4963
   44MOL0     C 5717   7.093   3.141   3.357 -0.7912 -0.1329  0.1997
   44MOL0     C 5718   6.955   3.167   3.296 -0.3780  0.2441  0.4224
   44MOL0     C 5719   6.863   3.282   3.350 -1.0269  0.6488 -0.6930
   44MOL0    Cl 5720   6.936   3.442   3.320 -0.1805  0.1098  0.4928
   44MOL0     C 5721   7.707   2.490   3.203 -0.9512  0.3222 -0.5628
   44MOL0     C 5722   7.800   2.400   3.157 -0.3009  0.1510  0.0166
   44MOL0     O 5723   8.116   2.485   2.948 -0.0616 -0.6231  0.4815
   44MOL0     C 5724   8.262   2.195   3.114  0.5159  0.1127 -0.4780
   44MOL0     C 5725   8.347   2.090   3.106  0.4438 -0.1832 -0.2300
   44MOL0     N 5726   9.070   1.748   2.839  0.5705 -0.0431 -0.1438
   44MOL0     N 5727   9.184   1.799   2.828  0.1414  0.6982 -0.8244
   44MOL0     C 5728  10.269   2.337   3.093  0.1261 -0.5728 -0.1440
   44MOL0     C 5729  10.405   2.363   3.082  0.4049 -0.0766  0.4707
   44MOL0     C 5730  10.818   2.569   3.073 -0.3357 -0.3379  0.2794
   44MOL0     C 5731  10.913   2.608   3.171 -0.2657 -0.8447  1.0584
   44MOL0     C 5732  11.041   2.648   3.123 -0.6832  0.3319 -1.3648
   44MOL0     C 5733  11.081   2.641   2.992 -0.0116 -0.2191  0.3562
   44MOL0     O 5734  11.208   2.667   2.938  0.3414  0.2827  0.7947
   44MOL0     C 5735  11.293   2.764   3.003  0.4842 -0.3990 -0.0396
   44MOL0     C 5736  11.426   2.763   2.929 -0.9546  0.1031 -0.2490
   44MOL0     C 5737  11.534   2.851   2.993 -0.3804  0.1203  0.1454
   44MOL0     C 5738  11.656   2.841   2.921 -0.4060 -0.2310  0.9482
   44MOL0     C 5739  11.738   2.721   2.947 -0.1184  0.2268  0.3790
   44MOL0     C 5740  11.808   2.629   2.992  0.3112  0.6271 -0.8912
   44MOL0     C 5741  10.985   2.599   2.904  0.2718  0.2240 -0.1845
   44MOL0     C 5742  10.855   2.566   2.935 -0.2984 -0.6167 -0.1768
   44MOL0     H 5743  10.396   2.674   2.944  0.4850 -1.1690 -1.8637
   44MOL0     H 5744  10.158   2.640   2.971  0.3764  0.9024  1.3110
   44MOL0     H 5745  10.038   2.263   3.196  0.8848 -2.2420 -1.0698
   44MOL0     H 5746  10.028   2.206   3.038  0.1433  0.6253 -1.3929
   44MOL0     H 5747   9.801   2.369   3.029  0.2644  1.1922 -0.1198
   44MOL0     H 5748   9.844   2.395   3.202 -1.4718  1.3007 -0.5892
   44MOL0     H 5749   9.666   2.240   3.162 -0.2076 -3.2246  0.5796
   44MOL0     H 5750   9.796   2.158   3.234  0.3828  0.4568  0.3108
   44MOL0     H 5751   9.756   2.153   2.936 -1.9604  1.1925  1.3526
   44MOL0     H 5752   9.869   2.057   3.021 -1.1798 -2.3818 -3.0606
   44MOL0     H 5753   9.686   1.937   3.156  0.7138 -1.0926 -0.7696
   44MOL0     H 5754   9.702   1.912   2.987  0.5707 -2.0716  1.8935
   44MOL0     H 5755   9.527   2.090   2.943  2.0203 -0.8782 -0.7768
   44MOL0     H 5756   9.488   2.088   3.124  0.4043  1.2702 -1.0779
   44MOL0     H 5757   9.497   1.858   2.933 -0.8151 -0.0268  0.3200
   44MOL0     H 5758   9.437   1.846   3.099  1.8577 -0.7500 -0.0740
   44MOL0     H 5759   9.333   2.033   2.875  1.5069  1.8860  1.1987
   44MOL0     H 5760   9.282   2.033   3.050  1.1347  1.4771 -1.4077
   44MOL0     H 5761   9.087   1.896   3.119  2.3067 -0.7480 -0.3351
   44MOL0     H 5762   8.886   1.667   3.075 -2.0014 -0.1855 -0.2314
   44MOL0     H 5763   8.840   1.676   2.905  0.1611 -2.7780  2.1099
   44MOL0     H 5764   8.780   1.916   2.938  0.5264 -1.2738 -0.8301
   44MOL0     H 5765   8.795   1.888   3.118 -1.0339  0.7205  0.6313
   44MOL0     H 5766   8.594   1.752   2.925 -2.4138  1.4272  0.5457
   44MOL0     H 5767   8.629   1.693   3.087  2.2441  0.9528 -0.0320
   44MOL0     H 5768   8.572   1.900   3.171  0.3045  0.4263  0.9415
   44MOL0     H 5769   8.434   1.839   3.071  0.6609 -1.3314 -2.5162
   44MOL0     H 5770   8.498   2.194   2.814 -0.3068  4.5265 -0.6028
   44MOL0     H 5771   8.331   2.368   2.822 -2.5875  0.4719  1.5413
   44MOL0     H 5772   8.080   2.592   3.221 -0.6746  0.1583  0.9438
   44MOL0     H 5773   7.916   2.742   3.297 -0.4192  0.1958  1.1580
   44MOL0     H 5774   7.577   2.598   3.440  0.9213  2.3855  1.3154
   44MOL0     H 5775   7.478   2.601   3.292  0.2836  1.7272 -2.3094
   44MOL0     H 5776   7.513   2.865   3.443 -1.2781  0.7061 -1.2416
   44MOL0     H 5777   7.404   2.740   3.502 -0.4055  0.2390  0.5084
   44MOL0     H 5778   7.288   2.743   3.274  0.6746 -0.1080  0.0560
   44MOL0     H 5779   7.399   2.856   3.223 -0.3429 -0.4802 -0.0112
   44MOL0     H 5780   7.191   2.875   3.450  3.3782 -1.3145  1.0297
   44MOL0     H 5781   7.322   2.994   3.443  2.6405 -1.1082 -2.1989
   44MOL0     H 5782   7.084   2.956   3.234 -0.2010  0.1661  0.3074
   44MOL0     H 5783   7.213   3.046   3.195 -0.1451  1.0490  0.9531
   44MOL0     H 5784   7.156   3.230   3.344  1.6301 -1.8967 -0.9547
   44MOL0     H 5785   7.091   3.130   3.465  2.7626 -0.0538  0.4066
   44MOL0     H 5786   6.964   3.184   3.188  1.3786 -0.6771  0.3840
   44MOL0     H 5787   6.895   3.077   3.314 -2.5103  1.2422 -1.2043
   44MOL0     H 5788   6.847   3.264   3.457 -1.3869  0.9207 -0.6966
   44MOL0     H 5789   6.760   3.268   3.315 -1.5853  3.7603 -0.5905
   44MOL0     H 5790   7.600   2.475   3.189 -0.9198 -1.4672  0.8356
   44MOL0     H 5791   7.770   2.301   3.124  1.0521 -1.5412  3.3430
   44MOL0     H 5792   8.195   2.176   3.197  0.1620 -2.2542 -1.2193
   44MOL0     H 5793   8.352   2.018   3.187  1.8510 -0.7250 -0.7534
   44MOL0     H 5794  10.241   2.245   3.143 -0.4915 -0.2191  0.1818
   44MOL0     H 5795  10.465   2.275   3.099  0.6955 -0.1886 -0.9853
   44MOL0     H 5796  10.900   2.600   3.278 -0.5169  1.3792  1.2599
   44MOL0     H 5797  11.102   2.676   3.208 -2.0573 -0.6243 -0.0229
   44MOL0     H 5798  11.313   2.745   3.109 -0.4911 -0.8615  0.0702
   44MOL0     H 5799  11.246   2.862   2.995  0.3007 -0.4864 -0.0485
   44MOL0     H 5800  11.465   2.661   2.927  0.1559  0.5170 -1.6252
   44MOL0     H 5801  11.409   2.796   2.826 -1.2848  1.3410  0.1793
   44MOL0     H 5802  11.558   2.824   3.097 -0.4331  1.0258  0.3980
   44MOL0     H 5803  11.503   2.956   2.997 -0.2113  0.6369 -5.2383
   44MOL0     H 5804  11.630   2.851   2.815 -0.2068 -0.1720  0.9050
   44MOL0     H 5805  11.714   2.928   2.952 -1.6454  2.0954 -2.6539
   44MOL0     H 5806  11.880   2.558   3.027  0.3738  0.7070 -0.8585
   44MOL0     H 5807  11.017   2.590   2.800  3.8835  0.2551  0.7763
   44MOL0     H 5808  10.779   2.546   2.861 -0.1163  2.9472 -1.5173
   45MOL0     O 5809   4.908   9.546   7.223  0.6393 -0.5490 -0.4063
   45MOL0     C 5810   4.875   9.451   7.155  0.6655 -0.0003  1.0640
   45MOL0     O 5811   4.952   9.345   7.125  0.9046  0.6883  0.0016
   45MOL0     C 5812   5.086   9.352   7.166  0.5787  0.0385 -0.4076
   45MOL0     C 5813   5.144   9.256   7.259 -0.5170 -0.2076  0.3075
   45MOL0     C 5814   5.273   9.276   7.298 -0.8594 -0.3073  0.5395
   45MOL0     C 5815   5.351   9.382   7.239  0.7834 -0.6142 -0.4408
   45MOL0     O 5816   5.484   9.381   7.276 -0.3899  0.1593 -0.0159
   45MOL0     C 5817   5.559   9.501   7.228  0.2137  0.2095 -0.4024
   45MOL0     C 5818   5.697   9.475   7.273  0.3217 -0.0811 -0.0652
   45MOL0     C 5819   5.765   9.354   7.205 -0.3915  0.3965 -0.8700
   45MOL0     C 5820   5.904   9.316   7.260 -0.5796  0.7984 -0.5149
   45MOL0     C 5821   5.979   9.232   7.158  0.1848  0.3554  0.1290
   45MOL0     C 5822   6.123   9.211   7.206  0.4270  0.0087  0.6932
   45MOL0     C 5823   6.202   9.124   7.110 -0.4315  0.5850 -0.0738
   45MOL0     C 5824   6.348   9.172   7.087  0.3625  0.1209  0.3644
   45MOL0     N 5825   6.412   9.226   7.205 -0.2917 -0.6746  0.2069
   45MOL0     C 5826   6.448   9.362   7.218  0.2194 -0.0074  0.1305
   45MOL0     C 5827   6.548   9.366   7.313 -0.1939 -0.3562 -0.2201
   45MOL0     C 5828   6.629   9.486   7.358  0.3713  0.3890  0.1243
   45MOL0     C 5829   6.631   9.518   7.513 -0.8164  0.4536  0.9846
   45MOL0     C 5830   6.497   9.516   7.591 -0.0747 -0.9429 -1.0718
   45MOL0     C 5831   6.408   9.639   7.548 -0.7225  1.1538  1.0531
   45MOL0     O 5832   6.295   9.665   7.640 -0.1436  0.4265  0.2526
   45MOL0     C 5833   6.163   9.684   7.603 -0.6824  0.0630 -0.5432
   45MOL0     C 5834   6.127   9.737   7.479  0.4576 -0.2563  0.4277
   45MOL0     C 5835   5.998   9.782   7.452 -0.3140  0.3064  0.7819
   45MOL0     C 5836   5.902   9.759   7.543  1.2296  0.3884 -0.8262
   45MOL0     C 5837   5.761   9.799   7.509 -0.3726  0.3608  0.0708
   45MOL0     O 5838   5.678   9.789   7.606  0.1102  0.0229 -0.3038
   45MOL0     C 5839   5.547   9.814   7.562  0.1132  0.4788  0.1767
   45MOL0     C 5840   5.462   9.700   7.540 -0.1355 -0.5144 -0.1917
   45MOL0     C 5841   5.338   9.725   7.487  0.7906  0.3388 -0.2273
   45MOL0     C 5842   5.288   9.856   7.475 -0.8127 -0.1075  0.3281
   45MOL0     O 5843   5.171   9.900   7.428 -0.1134  0.3345 -0.2093
   45MOL0     C 5844   5.080   9.829   7.341  0.0448 -0.4259 -1.0137
   45MOL0     C 5845   5.018   9.924   7.242  0.2996  0.0071 -0.6685
   45MOL0     C 5846   4.914   9.867   7.155  1.2446  0.7266 -0.5036
   45MOL0     C 5847   4.847   9.966   7.070  0.7449 -0.8100  0.0493
   45MOL0     C 5848   4.740   9.894   6.990  0.1190 -0.7842  0.3755
   45MOL0     C 5849   4.680   9.979   6.871  0.0004  0.1791 -0.2030
   45MOL0     C 5850   4.554   9.898   6.815  0.0477 -0.3049  0.1276
   45MOL0     C 5851   4.409   9.934   6.863 -0.5048 -0.3119 -0.3468
   45MOL0    Cl 5852   4.392   9.945   7.043 -0.0526  0.0241 -0.0956
   45MOL0     C 5853   5.374   9.958   7.513 -0.8403  0.5460 -0.0108
   45MOL0     C 5854   5.504   9.941   7.553 -0.4895  0.4425 -0.3568
   45MOL0     O 5855   5.732   9.820   7.387  0.8245  0.3503 -0.0710
   45MOL0     C 5856   5.933   9.697   7.668  1.4521 -0.5032  0.0313
   45MOL0     C 5857   6.068   9.670   7.699  0.1658  0.3665 -0.4041
   45MOL0     N 5858   6.564   9.238   7.357 -0.0878 -0.7017 -0.4969
   45MOL0     N 5859   6.489   9.160   7.296  0.6579 -0.5915  0.0730
   45MOL0     C 5860   5.284   9.474   7.159 -0.4557  0.4493  0.9529
   45MOL0     C 5861   5.164   9.454   7.115  0.8479 -0.0505  0.0752
   45MOL0     C 5862   4.742   9.458   7.088  0.3248  0.2926 -0.7958
   45MOL0     C 5863   4.659   9.569   7.099  0.3000 -0.1031 -0.2731
   45MOL0     C 5864   4.533   9.565   7.040 -0.2871 -0.1555  1.7807
   45MOL0     C 5865   4.491   9.449   6.970  0.7191  0.0739 -0.7061
   45MOL0     O 5866   4.371   9.435   6.904 -0.5961  0.7602 -0.3248
   45MOL0     C 5867   4.302   9.555   6.862 -0.6591  0.4587 -0.1537
   45MOL0     C 5868   4.191   9.534   6.767 -0.2954 -0.6140  0.3112
   45MOL0     C 5869   4.082   9.441   6.830  0.0916  0.0886  0.0466
   45MOL0     C 5870   3.955   9.420   6.751 -0.3338  0.4795 -0.1865
   45MOL0     C 5871   3.880   9.539   6.725  1.4835  0.3061  0.4009
   45MOL0     C 5872   3.801   9.633   6.708 -0.5981  0.5704 -0.5557
   45MOL0     C 5873   4.568   9.340   6.962 -0.7886 -0.7335 -0.2802
   45MOL0     C 5874   4.695   9.341   7.018 -0.1864 -0.7687  0.2794
   45MOL0     H 5875   5.098   9.164   7.293 -0.7118 -0.3365 -0.3031
   45MOL0     H 5876   5.327   9.204   7.359  1.4578  1.1505  0.3445
   45MOL0     H 5877   5.523   9.590   7.281 -1.7023 -1.4854  1.3290
   45MOL0     H 5878   5.559   9.509   7.119 -2.4686  2.3837 -0.3488
   45MOL0     H 5879   5.695   9.465   7.382  1.2917 -1.1296 -0.1280
   45MOL0     H 5880   5.753   9.565   7.245  0.9609 -0.5671 -0.3874
   45MOL0     H 5881   5.762   9.368   7.097 -0.3213 -2.0415 -1.2395
   45MOL0     H 5882   5.695   9.271   7.214  0.1512  0.1205  1.6025
   45MOL0     H 5883   5.960   9.408   7.280 -0.9655  0.8721  0.2745
   45MOL0     H 5884   5.887   9.255   7.350  1.1802 -1.0156 -1.3404
   45MOL0     H 5885   5.969   9.284   7.062  0.2389  0.3642  0.1282
   45MOL0     H 5886   5.931   9.134   7.148  0.3829  0.1733  0.9215
   45MOL0     H 5887   6.135   9.159   7.301  2.3297 -0.6267  0.1444
   45MOL0     H 5888   6.172   9.308   7.219 -0.4467  0.8709 -1.7711
   45MOL0     H 5889   6.213   9.025   7.155  4.4673  1.1494  0.4765
   45MOL0     H 5890   6.146   9.126   7.015  1.1850  1.0480 -1.0532
   45MOL0     H 5891   6.360   9.248   7.010 -0.1105 -2.3551 -2.3091
   45MOL0     H 5892   6.400   9.082   7.052 -2.5395 -1.1744 -0.9616
   45MOL0     H 5893   6.405   9.439   7.154  1.6177  0.8321  0.1654
   45MOL0     H 5894   6.597   9.578   7.309 -2.1981  0.2748  1.4254
   45MOL0     H 5895   6.732   9.469   7.325  1.1531  3.1004  0.9560
   45MOL0     H 5896   6.689   9.607   7.540 -1.0114  0.8306  0.1892
   45MOL0     H 5897   6.698   9.441   7.552  1.2773  3.0392  2.8558
   45MOL0     H 5898   6.437   9.429   7.565 -1.4293  0.6471 -3.7139
   45MOL0     H 5899   6.518   9.521   7.698  0.8051 -1.5100 -1.2112
   45MOL0     H 5900   6.381   9.619   7.443  3.1839  0.9423 -0.0520
   45MOL0     H 5901   6.480   9.721   7.548  1.4171 -0.5274 -1.5675
   45MOL0     H 5902   6.202   9.745   7.400 -0.1616  0.7254 -0.0876
   45MOL0     H 5903   5.967   9.818   7.354 -0.3162  0.0360  0.6830
   45MOL0     H 5904   5.497   9.598   7.544  2.8474  0.4449  1.7340
   45MOL0     H 5905   5.286   9.640   7.444  0.8092  0.7329 -1.0387
   45MOL0     H 5906   5.000   9.801   7.410  0.6716  0.9935  0.3610
   45MOL0     H 5907   5.127   9.747   7.287 -1.2921 -0.5726 -1.9910
   45MOL0     H 5908   5.103   9.959   7.182 -1.8706  0.1895 -3.8826
   45MOL0     H 5909   4.977  10.008   7.300  0.0713 -0.1357 -0.6206
   45MOL0     H 5910   4.833   9.826   7.216  2.1520  0.2257  0.3964
   45MOL0     H 5911   4.943   9.779   7.096  0.0205 -1.4320  1.8956
   45MOL0     H 5912   4.817  10.053   7.129 -0.6496 -0.3152 -1.3392
   45MOL0     H 5913   4.922  10.016   7.009  0.5892  0.0393  0.5368
   45MOL0     H 5914   4.657   9.867   7.057  2.3490  0.2512  3.8512
   45MOL0     H 5915   4.783   9.807   6.938 -0.5528  0.9810 -3.4420
   45MOL0     H 5916   4.751   9.979   6.789 -1.4951  0.8093 -1.5430
   45MOL0     H 5917   4.660  10.084   6.897 -0.7333 -0.0314  0.1144
   45MOL0     H 5918   4.558   9.898   6.706 -1.5817  0.9164  0.0302
   45MOL0     H 5919   4.567   9.791   6.833  1.1103  0.1372  2.4221
   45MOL0     H 5920   4.337   9.863   6.821 -2.8379  1.9637 -0.4105
   45MOL0     H 5921   4.399  10.035   6.822 -1.7607  1.5199  3.9450
   45MOL0     H 5922   5.340  10.060   7.501 -1.7488  0.1942 -0.5307
   45MOL0     H 5923   5.566  10.024   7.586  1.6537 -1.1035 -0.2966
   45MOL0     H 5924   5.862   9.695   7.749  0.7502 -0.0295 -0.5641
   45MOL0     H 5925   6.089   9.638   7.800  1.3015 -0.9255 -1.0072
   45MOL0     H 5926   5.332   9.563   7.119 -1.9827  1.5737  1.5175
   45MOL0     H 5927   5.129   9.513   7.030  2.0958 -1.3391 -1.3873
   45MOL0     H 5928   4.679   9.665   7.145 -2.4510  0.0775  0.7566
   45MOL0     H 5929   4.470   9.653   7.041 -1.3152 -0.8691  1.0745
   45MOL0     H 5930   4.369   9.619   6.805 -0.0187  0.1322  0.2223
   45MOL0     H 5931   4.267   9.612   6.949 -0.5777  1.8765 -1.0233
   45MOL0     H 5932   4.140   9.622   6.727 -1.0261 -1.0806  0.1859
   45MOL0     H 5933   4.232   9.485   6.678 -0.3999  0.4687 -0.3540
   45MOL0     H 5934   4.058   9.477   6.931 -0.6830  5.2108 -1.6674
   45MOL0     H 5935   4.122   9.339   6.835 -2.0385 -0.7926  0.2881
   45MOL0     H 5936   3.998   9.381   6.658  2.1847 -1.1149  1.5312
   45MOL0     H 5937   3.883   9.347   6.790  1.2560 -0.2041  1.6423
   45MOL0     H 5938   3.739   9.721   6.708  1.4868  2.1459 -2.1499
   45MOL0     H 5939   4.535   9.255   6.904  1.6167 -1.3332 -0.8772
   45MOL0     H 5940   4.754   9.250   7.018  3.2943  1.2221  3.2799
   46MOL0     O 5941   4.460   9.346   8.825  0.3993  0.4043 -0.8447
   46MOL0     C 5942   4.375   9.380   8.909 -0.4011 -0.7585 -0.9011
   46MOL0     O 5943   4.389   9.372   9.050  0.1149 -0.0060 -0.0954
   46MOL0     C 5944   4.466   9.268   9.094 -0.1952  0.5744  0.1073
   46MOL0     C 5945   4.409   9.183   9.186  0.5015  0.4893 -0.1702
   46MOL0     C 5946   4.472   9.070   9.237 -0.2328 -0.0539 -0.6687
   46MOL0     C 5947   4.605   9.032   9.203 -0.5977  1.2054  0.3939
   46MOL0     O 5948   4.681   8.929   9.265  0.3489  0.2606 -0.1167
   46MOL0     C 5949   4.804   8.895   9.212 -1.1440  0.2585  0.1064
   46MOL0     C 5950   4.847   8.766   9.285  0.5132 -0.0335  0.7316
   46MOL0     C 5951   4.758   8.647   9.236 -0.1437 -0.5087 -0.9418
   46MOL0     C 5952   4.814   8.512   9.272 -0.1068  0.3498  0.2915
   46MOL0     C 5953   4.728   8.406   9.199 -0.6513  0.6851 -0.1749
   46MOL0     C 5954   4.598   8.355   9.246 -0.1243 -0.4697 -0.5294
   46MOL0     C 5955   4.560   8.229   9.162  0.2411  0.7012 -0.1156
   46MOL0     C 5956   4.425   8.178   9.205 -0.0916  1.0693  0.4387
   46MOL0     N 5957   4.370   8.087   9.103 -0.1329  0.1481 -0.0719
   46MOL0     C 5958   4.383   7.947   9.099  0.2940 -0.2910  0.1256
   46MOL0     C 5959   4.308   7.918   8.985  0.1617  0.6563  0.1782
   46MOL0     C 5960   4.309   7.791   8.910 -0.6462  0.2294 -0.2195
   46MOL0     C 5961   4.212   7.696   8.974 -0.5205  0.4669  0.6227
   46MOL0     C 5962   4.212   7.560   8.899 -0.6300  0.0526 -0.5118
   46MOL0     C 5963   4.122   7.564   8.768 -0.7262 -0.4201  0.2201
   46MOL0     O 5964   4.088   7.433   8.716  0.7453 -0.0761  0.1913
   46MOL0     C 5965   3.969   7.365   8.757  0.9837 -0.9092 -0.1645
   46MOL0     C 5966   3.899   7.277   8.670 -0.3174  0.4119 -0.3946
   46MOL0     C 5967   3.772   7.217   8.707  0.3892 -0.7105  0.5537
   46MOL0     C 5968   3.712   7.253   8.824  0.3302  0.4603 -0.6545
   46MOL0     C 5969   3.578   7.201   8.857  0.1078  0.2735  0.1303
   46MOL0     O 5970   3.496   7.144   8.764  0.2375  0.5205 -0.1682
   46MOL0     C 5971   3.377   7.087   8.798  0.6512  1.0389 -0.3832
   46MOL0     C 5972   3.270   7.161   8.834  0.9741 -0.6112 -0.9009
   46MOL0     C 5973   3.144   7.107   8.873  0.8125 -0.5321  1.0352
   46MOL0     C 5974   3.137   6.962   8.883  0.1539 -0.2443 -0.3847
   46MOL0     O 5975   3.026   6.887   8.932  0.3474  0.5867  0.1971
   46MOL0     C 5976   3.012   6.747   8.902 -0.0035  0.9010  0.2539
   46MOL0     C 5977   2.858   6.734   8.903 -0.0623  0.6133  0.6847
   46MOL0     C 5978   2.818   6.586   8.883 -0.3561  1.1419  0.4611
   46MOL0     C 5979   2.666   6.557   8.884  0.1819 -0.4853 -0.0258
   46MOL0     C 5980   2.604   6.634   8.771  0.7708  1.1291 -0.0840
   46MOL0     C 5981   2.456   6.589   8.769  0.1278  0.3410 -0.3479
   46MOL0     C 5982   2.366   6.670   8.673 -0.7690  0.1728 -0.3325
   46MOL0     C 5983   2.222   6.625   8.698 -1.0138  0.8393  0.4298
   46MOL0    Cl 5984   2.199   6.472   8.616 -0.0477 -0.0814 -0.3012
   46MOL0     C 5985   3.252   6.890   8.849  0.0047 -0.1953  0.7772
   46MOL0     C 5986   3.373   6.953   8.815  0.4345 -0.1919  0.0805
   46MOL0     O 5987   3.553   7.201   8.968  0.0718  0.4269 -0.3934
   46MOL0     C 5988   3.774   7.354   8.904  0.4353  0.5112 -0.4190
   46MOL0     C 5989   3.898   7.408   8.871  0.7776  0.0777 -0.5047
   46MOL0     N 5990   4.251   8.023   8.934  0.5316 -0.1049  0.0224
   46MOL0     N 5991   4.292   8.127   8.994 -0.3008 -0.5095 -0.6369
   46MOL0     C 5992   4.670   9.119   9.112 -0.6633 -0.5346  0.0751
   46MOL0     C 5993   4.602   9.232   9.054  0.1626 -0.3535 -0.5590
   46MOL0     C 5994   4.251   9.439   8.848  0.0786 -0.0656  0.4292
   46MOL0     C 5995   4.243   9.452   8.708 -1.0633 -0.5448 -0.2016
   46MOL0     C 5996   4.127   9.492   8.650  0.0031 -0.2258 -0.9288
   46MOL0     C 5997   4.015   9.532   8.719 -0.3000  0.6384  0.5033
   46MOL0     O 5998   3.900   9.565   8.643 -0.0693 -0.2007  0.0454
   46MOL0     C 5999   3.808   9.447   8.629 -0.1518 -1.3431 -1.3972
   46MOL0     C 6000   3.700   9.446   8.741  0.0626 -0.0119 -0.4141
   46MOL0     C 6001   3.618   9.324   8.738 -0.3803  0.0558  0.0824
   46MOL0     C 6002   3.659   9.204   8.830  0.0648  0.3958  0.5544
   46MOL0     C 6003   3.558   9.098   8.835  0.1535  0.0852  0.0873
   46MOL0     C 6004   3.467   9.021   8.814  0.2191 -0.6789 -0.5350
   46MOL0     C 6005   4.019   9.529   8.850  0.0524  0.9563 -0.0479
   46MOL0     C 6006   4.136   9.479   8.917  0.8670  0.6082 -0.1811
   46MOL0     H 6007   4.308   9.210   9.215  0.4037  1.2465 -1.1757
   46MOL0     H 6008   4.433   9.009   9.318  4.4454 -0.6257  1.5182
   46MOL0     H 6009   4.877   8.974   9.231  0.1628 -0.5790 -1.1167
   46MOL0     H 6010   4.793   8.893   9.103  1.8006 -1.2588 -0.2779
   46MOL0     H 6011   4.832   8.791   9.391 -1.7355 -1.7990  0.9131
   46MOL0     H 6012   4.952   8.743   9.266 -0.1002 -2.4665 -0.1088
   46MOL0     H 6013   4.763   8.652   9.127  0.7028  0.7768 -0.8623
   46MOL0     H 6014   4.659   8.664   9.277  1.1871  4.3581  0.9098
   46MOL0     H 6015   4.920   8.511   9.242  0.9234  0.1184  3.4870
   46MOL0     H 6016   4.809   8.490   9.379 -0.5503 -1.0472 -0.0016
   46MOL0     H 6017   4.781   8.310   9.192 -0.3769  0.5930  2.3737
   46MOL0     H 6018   4.710   8.436   9.095  1.8641 -0.6378 -1.0819
   46MOL0     H 6019   4.523   8.434   9.233 -0.8639 -1.2219 -0.8988
   46MOL0     H 6020   4.597   8.337   9.353 -3.2519  2.2705  0.0689
   46MOL0     H 6021   4.567   8.246   9.054 -2.3199 -0.6202 -0.5501
   46MOL0     H 6022   4.625   8.144   9.186 -1.6591 -0.8868 -0.3424
   46MOL0     H 6023   4.356   8.261   9.223  0.7958  1.6232  1.3961
   46MOL0     H 6024   4.428   8.126   9.301  1.2247  1.2551  0.5149
   46MOL0     H 6025   4.441   7.887   9.168 -1.1806  0.7811  2.4364
   46MOL0     H 6026   4.408   7.750   8.929 -0.3496  1.1293  0.2388
   46MOL0     H 6027   4.291   7.803   8.803 -3.3643 -3.2475 -0.3547
   46MOL0     H 6028   4.111   7.739   8.978 -0.9628 -0.4435 -0.4191
   46MOL0     H 6029   4.248   7.686   9.077  1.1283  0.1642  0.0475
   46MOL0     H 6030   4.313   7.526   8.876  1.6419  4.0880  2.3319
   46MOL0     H 6031   4.173   7.489   8.973 -2.7114 -0.6966 -2.2160
   46MOL0     H 6032   4.175   7.628   8.697 -1.7758  1.8355  1.3625
   46MOL0     H 6033   4.029   7.617   8.789 -2.1037 -2.4988 -0.3041
   46MOL0     H 6034   3.943   7.262   8.572  3.1902  1.1647  0.9139
   46MOL0     H 6035   3.712   7.165   8.632  0.5732  2.1439 -1.7543
   46MOL0     H 6036   3.278   7.266   8.805 -2.3984 -0.0916 -0.3906
   46MOL0     H 6037   3.060   7.174   8.886  2.4101  1.6728  0.7065
   46MOL0     H 6038   3.051   6.676   8.975 -1.6231  0.4913  0.7740
   46MOL0     H 6039   3.046   6.718   8.802  2.9475  1.6889  0.9283
   46MOL0     H 6040   2.816   6.792   8.820  1.5970 -0.0376 -0.6989
   46MOL0     H 6041   2.822   6.766   9.001 -1.1588 -1.2975  0.9677
   46MOL0     H 6042   2.861   6.521   8.960 -1.1495  0.9180  0.7170
   46MOL0     H 6043   2.851   6.551   8.784 -0.4281  1.3215  0.3731
   46MOL0     H 6044   2.646   6.450   8.869 -2.3712  0.1016 -1.4821
   46MOL0     H 6045   2.628   6.596   8.978  2.3053  0.9147  0.3319
   46MOL0     H 6046   2.654   6.615   8.675  0.4296  2.1979 -0.4915
   46MOL0     H 6047   2.620   6.738   8.799  0.9809  0.9045  0.6612
   46MOL0     H 6048   2.421   6.605   8.872  1.9443 -1.6684  0.6773
   46MOL0     H 6049   2.447   6.482   8.746 -0.3473  0.3579 -0.2401
   46MOL0     H 6050   2.384   6.776   8.693  4.6026  0.2292 -3.4340
   46MOL0     H 6051   2.395   6.664   8.568 -0.3124 -0.3952 -0.1787
   46MOL0     H 6052   2.147   6.705   8.690  0.1306  2.4228  3.5447
   46MOL0     H 6053   2.219   6.604   8.806  0.6664 -1.9757  0.0331
   46MOL0     H 6054   3.248   6.782   8.852  2.1392 -0.3105  2.7691
   46MOL0     H 6055   3.457   6.888   8.795  0.6499  0.1795 -0.2237
   46MOL0     H 6056   3.722   7.399   8.988 -2.3480 -1.3091 -1.0512
   46MOL0     H 6057   3.917   7.501   8.923 -1.4959  1.0283 -1.2217
   46MOL0     H 6058   4.771   9.091   9.084  0.3809  1.6092  1.4344
   46MOL0     H 6059   4.655   9.293   8.981 -1.7856  0.3251 -1.4785
   46MOL0     H 6060   4.326   9.421   8.646  1.4649  1.3563  2.0014
   46MOL0     H 6061   4.119   9.505   8.542 -0.4897  3.1260 -0.5879
   46MOL0     H 6062   3.875   9.360   8.627  3.7915  1.4117 -0.5664
   46MOL0     H 6063   3.754   9.464   8.535 -2.2843 -0.9840 -0.1700
   46MOL0     H 6064   3.738   9.459   8.843 -0.0037 -1.0266 -0.2516
   46MOL0     H 6065   3.627   9.524   8.717  0.6892  1.1532  1.2492
   46MOL0     H 6066   3.622   9.282   8.637 -1.0364 -1.5025  0.6677
   46MOL0     H 6067   3.512   9.351   8.748 -1.0471 -1.2352 -2.5943
   46MOL0     H 6068   3.758   9.170   8.798  0.3803  1.0586  0.8051
   46MOL0     H 6069   3.665   9.245   8.931 -1.7247  1.3875  0.2947
   46MOL0     H 6070   3.377   8.962   8.810 -1.3613  1.6501 -2.4835
   46MOL0     H 6071   3.932   9.556   8.909 -0.1538  1.7439 -0.6931
   46MOL0     H 6072   4.149   9.471   9.025  1.9714 -1.2575 -0.4260
   47MOL0     O 6073   1.839   1.622   7.172 -0.5074 -0.1970  0.0684
   47MOL0     C 6074   1.880   1.661   7.283  0.5704 -0.4958 -0.8501
   47MOL0     O 6075   1.801   1.707   7.384  0.4709 -0.1460 -0.2858
   47MOL0     C 6076   1.661   1.692   7.367 -0.4728  0.7432 -0.1406
   47MOL0     C 6077   1.585   1.814   7.372  0.0688 -0.0127 -0.7901
   47MOL0     C 6078   1.447   1.807   7.347  0.8529 -0.0812  0.4191
   47MOL0     C 6079   1.380   1.687   7.342  0.4155  0.2643  0.2886
   47MOL0     O 6080   1.241   1.688   7.331 -0.5643  0.4874  0.1973
   47MOL0     C 6081   1.171   1.582   7.269  0.0645  0.5378  1.0245
   47MOL0     C 6082   1.020   1.602   7.295  0.0092  0.7369 -0.0126
   47MOL0     C 6083   0.978   1.519   7.416  0.2934  0.1070 -0.0367
   47MOL0     C 6084   0.836   1.552   7.460  0.3462 -0.4039 -0.1294
   47MOL0     C 6085   0.773   1.468   7.574  0.2307  0.6410  0.3051
   47MOL0     C 6086   0.639   1.509   7.613  0.5850 -0.6678 -0.1615
   47MOL0     C 6087   0.561   1.398   7.690 -0.4159 -0.1416 -0.1928
   47MOL0     C 6088   0.414   1.429   7.686  0.5414  0.5546  0.5491
   47MOL0     N 6089   0.324   1.336   7.760 -0.8127  0.7113  0.3198
   47MOL0     C 6090   0.252   1.241   7.699  0.4858  0.7411 -0.0507
   47MOL0     C 6091   0.158   1.209   7.792  0.1497  0.0924 -0.9316
   47MOL0     C 6092   0.066   1.095   7.785  0.6011 -0.1558  0.4182
   47MOL0     C 6093   0.094   0.991   7.891 -0.3087  0.1512  0.7150
   47MOL0     C 6094   0.016   0.867   7.859  0.8871  0.1252 -0.2281
   47MOL0     C 6095  -0.013   0.793   7.991  0.6454  0.4174 -0.3303
   47MOL0     O 6096  -0.070   0.667   7.954 -0.3411  0.6181 -0.0070
   47MOL0     C 6097  -0.101   0.567   8.039  0.6747 -0.3672  0.4315
   47MOL0     C 6098  -0.069   0.563   8.174  0.8531 -0.7488 -0.3446
   47MOL0     C 6099  -0.110   0.464   8.265 -0.2146 -0.8311  0.1087
   47MOL0     C 6100  -0.175   0.346   8.207  0.3855 -1.0993 -0.4281
   47MOL0     C 6101  -0.196   0.230   8.294  0.1099  0.0972  0.3482
   47MOL0     O 6102  -0.294   0.141   8.255 -0.6088 -0.5234  0.7415
   47MOL0     C 6103  -0.320   0.030   8.325  1.4086  0.3797  0.0248
   47MOL0     C 6104  -0.452   0.009   8.360  1.0486  0.6331  0.0955
   47MOL0     C 6105  -0.500  -0.103   8.427 -0.5843  0.4296  0.0598
   47MOL0     C 6106  -0.417  -0.204   8.475 -0.1099 -0.6318 -0.1245
   47MOL0     O 6107  -0.460  -0.315   8.542  0.1751  0.1555 -0.4599
   47MOL0     C 6108  -0.380  -0.428   8.601  0.0202 -0.4205  0.0323
   47MOL0     C 6109  -0.469  -0.550   8.596 -0.4215  0.1270  0.1840
   47MOL0     C 6110  -0.569  -0.556   8.709  0.1044 -0.4179 -0.1091
   47MOL0     C 6111  -0.648  -0.693   8.704 -0.2981  0.0105  0.7569
   47MOL0     C 6112  -0.770  -0.693   8.785  0.1966 -0.0908 -0.3310
   47MOL0     C 6113  -0.900  -0.628   8.728 -0.7234  0.1207  1.1255
   47MOL0     C 6114  -0.990  -0.600   8.845  0.1249 -0.5628  0.4398
   47MOL0     C 6115  -1.132  -0.579   8.781  0.1951  0.0495  0.4194
   47MOL0    Cl 6116  -1.204  -0.740   8.755  0.2121  0.5080  0.3960
   47MOL0     C 6117  -0.283  -0.184   8.449 -0.5629 -0.3003  0.2701
   47MOL0     C 6118  -0.237  -0.072   8.381  0.3270 -0.3209  0.3148
   47MOL0     O 6119  -0.143   0.229   8.405  0.1504 -0.1291  0.0157
   47MOL0     C 6120  -0.203   0.349   8.068 -0.0880  0.0770 -0.8491
   47MOL0     C 6121  -0.174   0.459   7.988 -0.4459 -0.4118 -0.1577
   47MOL0     N 6122   0.165   1.296   7.894  0.4670 -0.1943 -0.1562
   47MOL0     N 6123   0.272   1.362   7.880 -0.8164 -0.6212 -0.2049
   47MOL0     C 6124   1.452   1.572   7.351 -0.2129  0.0317  0.2994
   47MOL0     C 6125   1.590   1.570   7.347  0.0971  0.2276 -0.9605
   47MOL0     C 6126   2.023   1.679   7.306  0.0039  0.5006 -0.0729
   47MOL0     C 6127   2.078   1.780   7.386  0.5587 -1.0428  0.4527
   47MOL0     C 6128   2.216   1.780   7.409 -0.8922  0.0111 -0.7123
   47MOL0     C 6129   2.305   1.692   7.340 -0.2728  0.5992  0.4571
   47MOL0     O 6130   2.440   1.683   7.353  0.6405 -1.4031 -0.4573
   47MOL0     C 6131   2.483   1.735   7.482  0.4407  0.3759  1.0251
   47MOL0     C 6132   2.620   1.680   7.511 -0.1953  0.5084 -0.7087
   47MOL0     C 6133   2.687   1.732   7.647 -0.0390 -0.2989 -0.4493
   47MOL0     C 6134   2.605   1.699   7.773  1.1146 -0.4189 -0.2474
   47MOL0     C 6135   2.670   1.778   7.877 -0.6981  0.4128  0.6710
   47MOL0     C 6136   2.730   1.839   7.963  0.2288  0.0305  0.2631
   47MOL0     C 6137   2.256   1.612   7.248 -0.1304  0.1925 -0.1949
   47MOL0     C 6138   2.121   1.605   7.232 -0.6795  0.5279  0.3459
   47MOL0     H 6139   1.633   1.908   7.399 -0.5975 -0.2078  1.2830
   47MOL0     H 6140   1.394   1.901   7.345  0.6474 -0.1966  0.3725
   47MOL0     H 6141   1.205   1.483   7.303 -2.8088 -1.1010 -0.5101
   47MOL0     H 6142   1.184   1.593   7.161 -0.2717  1.5301  1.0780
   47MOL0     H 6143   0.967   1.572   7.204  2.0818  1.9272 -1.7127
   47MOL0     H 6144   1.003   1.710   7.290  1.5687  0.9819 -0.9748
   47MOL0     H 6145   1.049   1.535   7.498 -0.2500  1.7818  0.1401
   47MOL0     H 6146   0.979   1.413   7.391 -0.0796 -0.2144  1.2300
   47MOL0     H 6147   0.838   1.658   7.486 -0.2677  0.6955 -3.9151
   47MOL0     H 6148   0.773   1.558   7.371 -0.9544 -2.4534  0.6097
   47MOL0     H 6149   0.843   1.467   7.658  2.7196  1.3426 -1.6480
   47MOL0     H 6150   0.771   1.363   7.542  0.1380  0.8899 -0.5203
   47MOL0     H 6151   0.582   1.518   7.521 -0.2845  0.1502  0.4441
   47MOL0     H 6152   0.633   1.608   7.659 -3.4121  1.2988 -4.1978
   47MOL0     H 6153   0.583   1.300   7.647  3.4831  0.8641 -0.8609
   47MOL0     H 6154   0.590   1.395   7.795  2.6040  0.1778 -0.9055
   47MOL0     H 6155   0.375   1.444   7.585 -0.9678 -0.3534  0.9603
   47MOL0     H 6156   0.394   1.521   7.742  1.5412 -0.5024  2.7734
   47MOL0     H 6157   0.272   1.185   7.608  2.1421  1.5440 -0.2066
   47MOL0     H 6158   0.081   1.055   7.684  2.4134  2.2608 -0.3772
   47MOL0     H 6159  -0.034   1.136   7.805  1.4677  1.7318  1.1579
   47MOL0     H 6160   0.067   1.032   7.989  2.0133  0.6105  1.2178
   47MOL0     H 6161   0.200   0.964   7.895 -0.0821  1.1265  2.1440
   47MOL0     H 6162  -0.081   0.892   7.815 -0.7429 -3.1726  1.1858
   47MOL0     H 6163   0.064   0.794   7.793 -0.6195 -2.8003  1.7112
   47MOL0     H 6164  -0.083   0.863   8.038 -1.7299  0.7484 -3.9744
   47MOL0     H 6165   0.079   0.775   8.048 -1.1383 -1.6390  2.0802
   47MOL0     H 6166  -0.005   0.640   8.217 -0.8441 -0.1156  1.1790
   47MOL0     H 6167  -0.086   0.469   8.371 -4.3336  1.4156  1.1577
   47MOL0     H 6168  -0.522   0.083   8.321 -0.3242  0.0170  1.2898
   47MOL0     H 6169  -0.608  -0.112   8.441 -0.9273  2.3585 -0.9726
   47MOL0     H 6170  -0.356  -0.409   8.706 -0.1333 -0.7136  0.1211
   47MOL0     H 6171  -0.290  -0.448   8.543 -0.1513 -0.0922 -0.3499
   47MOL0     H 6172  -0.406  -0.638   8.584  0.1335  0.7326 -1.5171
   47MOL0     H 6173  -0.528  -0.550   8.504  0.0246 -0.1735 -0.1030
   47MOL0     H 6174  -0.641  -0.476   8.688 -0.0514 -0.6236 -0.3641
   47MOL0     H 6175  -0.522  -0.532   8.805  1.9604  0.8814 -1.2719
   47MOL0     H 6176  -0.682  -0.716   8.603  1.0201  3.2436 -0.5565
   47MOL0     H 6177  -0.580  -0.773   8.736  0.4567  0.7130  0.9480
   47MOL0     H 6178  -0.741  -0.646   8.880  1.9204 -0.6264 -0.5580
   47MOL0     H 6179  -0.796  -0.795   8.815  0.2403  0.3100  1.1421
   47MOL0     H 6180  -0.937  -0.700   8.655 -1.0876 -2.0423  3.2961
   47MOL0     H 6181  -0.870  -0.537   8.675 -0.6388 -0.4644  0.1643
   47MOL0     H 6182  -0.992  -0.692   8.904  0.9593 -2.3814 -2.1799
   47MOL0     H 6183  -0.963  -0.514   8.907  2.3595 -0.5053 -0.5292
   47MOL0     H 6184  -1.122  -0.518   8.691  0.6262 -1.6401 -0.7047
   47MOL0     H 6185  -1.192  -0.533   8.860  0.4265 -0.2678  0.7860
   47MOL0     H 6186  -0.219  -0.266   8.480 -0.5485  0.6988  3.2766
   47MOL0     H 6187  -0.133  -0.048   8.360  0.8621 -1.0898  1.9816
   47MOL0     H 6188  -0.236   0.257   8.021 -2.2425  0.9334 -1.1646
   47MOL0     H 6189  -0.215   0.459   7.887 -1.1089  0.1231  0.0995
   47MOL0     H 6190   1.404   1.475   7.363  2.0179 -1.3951 -1.4274
   47MOL0     H 6191   1.635   1.471   7.355 -1.9278 -0.6275  1.1193
   47MOL0     H 6192   2.011   1.855   7.426  3.1978  1.3534  0.6672
   47MOL0     H 6193   2.255   1.853   7.479 -1.4302 -0.7010  0.3457
   47MOL0     H 6194   2.414   1.695   7.557  0.4893 -0.1603  0.7866
   47MOL0     H 6195   2.481   1.844   7.485 -0.6784  0.4451 -0.7082
   47MOL0     H 6196   2.629   1.571   7.516  2.7726  0.5768 -2.2005
   47MOL0     H 6197   2.685   1.707   7.427  0.6993 -0.1376 -0.2452
   47MOL0     H 6198   2.712   1.838   7.631 -2.4212  0.5295  0.7803
   47MOL0     H 6199   2.778   1.677   7.672 -0.0709  0.3870  1.3199
   47MOL0     H 6200   2.504   1.733   7.751  0.3654 -3.3383 -1.8239
   47MOL0     H 6201   2.608   1.593   7.799  1.2735 -0.6337 -1.1120
   47MOL0     H 6202   2.793   1.896   8.028  1.3710  0.6311 -1.3041
   47MOL0     H 6203   2.323   1.562   7.178  0.4079  1.2048 -0.4238
   47MOL0     H 6204   2.088   1.554   7.142 -1.3577  1.4479  0.0595
   48MOL0     O 6205   6.964   4.243   5.423  0.3465 -0.6151  0.0276
   48MOL0     C 6206   6.985   4.354   5.484  0.3363  0.7174 -0.4973
   48MOL0     O 6207   6.892   4.452   5.507  0.7384  0.3277 -0.2538
   48MOL0     C 6208   6.764   4.406   5.507 -0.0623 -0.0003  0.5667
   48MOL0     C 6209   6.690   4.405   5.393  0.6211  0.0250 -0.3126
   48MOL0     C 6210   6.548   4.385   5.402 -0.0160  0.1536 -0.1242
   48MOL0     C 6211   6.493   4.338   5.524  0.0572 -0.9634 -0.1062
   48MOL0     O 6212   6.364   4.314   5.547  0.4984 -0.7474  0.6754
   48MOL0     C 6213   6.276   4.288   5.441  0.0016 -0.0360 -0.8329
   48MOL0     C 6214   6.216   4.418   5.389  0.9909 -0.0959 -0.5713
   48MOL0     C 6215   6.106   4.377   5.295 -0.7028 -0.2106  0.2109
   48MOL0     C 6216   6.011   4.486   5.254 -0.5889  0.2250  0.0493
   48MOL0     C 6217   5.921   4.431   5.141 -0.3303 -0.1687 -0.9709
   48MOL0     C 6218   5.965   4.460   5.003 -1.0014 -0.5938  0.9720
   48MOL0     C 6219   5.916   4.358   4.900  0.6590 -0.5859 -0.5643
   48MOL0     C 6220   5.766   4.346   4.902 -0.2756 -0.5249 -0.8209
   48MOL0     N 6221   5.708   4.472   4.855  0.1158 -0.1118 -0.6899
   48MOL0     C 6222   5.711   4.512   4.727  0.9307 -0.0626  0.0212
   48MOL0     C 6223   5.635   4.620   4.723 -0.6904 -0.5015 -0.7232
   48MOL0     C 6224   5.625   4.702   4.597 -0.2802 -0.3671  0.0123
   48MOL0     C 6225   5.479   4.737   4.553 -0.9181  1.5488 -0.4885
   48MOL0     C 6226   5.409   4.856   4.625 -0.1844 -0.2542  0.2964
   48MOL0     C 6227   5.268   4.877   4.570 -0.0913  0.8445  0.3949
   48MOL0     O 6228   5.196   4.765   4.605  0.0420  0.0091 -0.1741
   48MOL0     C 6229   5.067   4.745   4.561 -0.2413  0.2515 -0.4607
   48MOL0     C 6230   5.015   4.814   4.452  0.6387 -0.5447  0.1363
   48MOL0     C 6231   4.876   4.806   4.415  0.3979  0.3647  1.2693
   48MOL0     C 6232   4.785   4.723   4.476 -0.0113  0.0141 -0.0741
   48MOL0     C 6233   4.646   4.707   4.430 -0.6125  0.3367 -0.3308
   48MOL0     O 6234   4.590   4.584   4.440 -0.2514 -0.2851  0.3295
   48MOL0     C 6235   4.460   4.559   4.406  0.4949  0.0328  0.0676
   48MOL0     C 6236   4.396   4.466   4.497  0.9298 -0.6176 -0.0226
   48MOL0     C 6237   4.258   4.441   4.479 -0.2290 -0.5680  0.2296
   48MOL0     C 6238   4.194   4.481   4.361  0.3982 -0.2584  0.4329
   48MOL0     O 6239   4.071   4.425   4.336 -0.0533  0.1830  0.4172
   48MOL0     C 6240   3.987   4.479   4.232  1.7469 -0.4994 -0.0040
   48MOL0     C 6241   3.859   4.402   4.238 -1.0618 -1.3778 -0.1647
   48MOL0     C 6242   3.870   4.256   4.254 -0.0525 -0.4712 -0.1711
   48MOL0     C 6243   3.737   4.197   4.234 -0.1546  0.2980 -0.1359
   48MOL0     C 6244   3.725   4.057   4.287  0.2842  1.3426 -0.1944
   48MOL0     C 6245   3.588   4.002   4.260 -0.1426 -1.3336  0.2902
   48MOL0     C 6246   3.569   3.867   4.333  0.1512  0.3244 -0.1048
   48MOL0     C 6247   3.434   3.807   4.303  0.5356 -0.7178 -0.2323
   48MOL0    Cl 6248   3.467   3.720   4.150 -0.4460 -0.2438 -0.6650
   48MOL0     C 6249   4.248   4.583   4.277 -0.0385  0.4722 -0.4349
   48MOL0     C 6250   4.385   4.616   4.306  0.4030 -0.4754  0.6661
   48MOL0     O 6251   4.587   4.806   4.392  0.1669  0.2721  0.8165
   48MOL0     C 6252   4.840   4.655   4.589  0.2287 -0.2910  0.6883
   48MOL0     C 6253   4.977   4.671   4.639  0.6965  0.2284 -0.1069
   48MOL0     N 6254   5.595   4.651   4.851 -0.2004 -0.1405 -0.0074
   48MOL0     N 6255   5.633   4.557   4.926 -0.4861  0.0610 -0.1523
   48MOL0     C 6256   6.574   4.320   5.637  0.3871  0.0846 -0.6401
   48MOL0     C 6257   6.710   4.352   5.625  0.6261 -0.3240 -0.4832
   48MOL0     C 6258   7.128   4.393   5.505  0.8864  0.1340 -0.6228
   48MOL0     C 6259   7.147   4.503   5.589  0.8444 -0.0158 -0.3833
   48MOL0     C 6260   7.276   4.555   5.596 -0.4004 -0.4695  0.0229
   48MOL0     C 6261   7.383   4.486   5.551 -0.2457  0.0429  0.2672
   48MOL0     O 6262   7.506   4.546   5.591  0.2971  0.0969 -0.0967
   48MOL0     C 6263   7.628   4.479   5.593 -0.8458 -0.0850 -0.1889
   48MOL0     C 6264   7.732   4.567   5.519  0.7098  0.0733 -0.6723
   48MOL0     C 6265   7.797   4.681   5.596  0.4779 -0.2726  0.2473
   48MOL0     C 6266   7.693   4.793   5.645  0.4963  0.0433  0.3428
   48MOL0     C 6267   7.754   4.872   5.745 -0.3281  0.6249  0.0395
   48MOL0     C 6268   7.807   4.930   5.839 -0.5337 -0.4911  0.6905
   48MOL0     C 6269   7.373   4.368   5.473  1.1400 -0.0230  0.1546
   48MOL0     C 6270   7.241   4.325   5.453  1.1937 -0.6384  0.4267
   48MOL0     H 6271   6.749   4.447   5.312 -0.1301 -0.5767 -1.1965
   48MOL0     H 6272   6.486   4.389   5.313 -1.2046  0.9528  0.7076
   48MOL0     H 6273   6.197   4.223   5.479  0.0544 -0.3973 -1.3376
   48MOL0     H 6274   6.327   4.235   5.361  1.2714 -1.6536  0.9794
   48MOL0     H 6275   6.301   4.459   5.334  0.5875 -1.3320 -2.2129
   48MOL0     H 6276   6.181   4.477   5.474  4.6355 -1.2907  2.0192
   48MOL0     H 6277   6.062   4.281   5.323  1.2795 -1.8241 -1.8397
   48MOL0     H 6278   6.160   4.343   5.207  0.5009 -1.8969  1.5183
   48MOL0     H 6279   5.956   4.503   5.347  1.7582 -0.0363  1.5699
   48MOL0     H 6280   6.057   4.581   5.228 -1.6979  0.6948 -0.2677
   48MOL0     H 6281   5.825   4.485   5.144  0.2401  0.8256  0.4985
   48MOL0     H 6282   5.916   4.322   5.150  2.3464 -0.3004 -0.3383
   48MOL0     H 6283   6.071   4.435   4.995 -1.1939 -1.7356  1.6323
   48MOL0     H 6284   5.961   4.565   4.974  2.4285 -0.5489  0.2011
   48MOL0     H 6285   5.950   4.396   4.803 -0.6021  2.2170 -0.0039
   48MOL0     H 6286   5.966   4.263   4.918  4.1057  0.4466 -3.3766
   48MOL0     H 6287   5.728   4.327   5.002 -0.7733 -1.0881 -1.1114
   48MOL0     H 6288   5.723   4.261   4.848  0.2422 -1.0160 -0.4697
   48MOL0     H 6289   5.752   4.463   4.639  3.7457 -2.8060  2.6240
   48MOL0     H 6290   5.669   4.650   4.511  0.7599 -0.3289  0.5046
   48MOL0     H 6291   5.694   4.787   4.599  1.8376 -1.9755 -0.9245
   48MOL0     H 6292   5.413   4.649   4.554  1.5256 -0.4279 -0.6683
   48MOL0     H 6293   5.500   4.764   4.449  0.5240  2.1343 -0.0638
   48MOL0     H 6294   5.422   4.841   4.733 -1.3077 -2.8935  0.1405
   48MOL0     H 6295   5.475   4.936   4.589  1.5781 -1.3426  0.9422
   48MOL0     H 6296   5.273   4.894   4.462 -3.4064  3.5443  0.4985
   48MOL0     H 6297   5.232   4.971   4.613 -2.1062 -0.4201  1.6297
   48MOL0     H 6298   5.075   4.876   4.386  1.5035 -0.4366  0.9934
   48MOL0     H 6299   4.848   4.865   4.328  1.0550 -0.1225  0.7194
   48MOL0     H 6300   4.432   4.415   4.586 -4.6814 -4.8743  0.3784
   48MOL0     H 6301   4.205   4.372   4.545  1.4322 -1.9276  0.2091
   48MOL0     H 6302   4.034   4.448   4.138  0.6372 -0.5834 -0.5493
   48MOL0     H 6303   3.966   4.586   4.235 -0.6897 -0.8971 -0.8426
   48MOL0     H 6304   3.796   4.422   4.151  0.3736  1.2747 -0.7200
   48MOL0     H 6305   3.821   4.448   4.330 -0.9805  0.8166 -1.1442
   48MOL0     H 6306   3.916   4.230   4.350 -1.2625 -1.1604  0.2370
   48MOL0     H 6307   3.935   4.214   4.177 -1.0604 -0.8123 -0.8596
   48MOL0     H 6308   3.661   4.259   4.282  0.3959  2.7117 -2.1777
   48MOL0     H 6309   3.711   4.211   4.129  0.9525  3.9994 -0.0666
   48MOL0     H 6310   3.740   4.065   4.395  0.0974 -0.3807 -0.0119
   48MOL0     H 6311   3.806   3.991   4.255  2.1787  4.3590 -2.1592
   48MOL0     H 6312   3.579   3.992   4.152  0.3784 -1.1815  0.2319
   48MOL0     H 6313   3.513   4.067   4.305 -0.3772  0.2007 -2.1558
   48MOL0     H 6314   3.651   3.801   4.303  0.5322  2.5256 -4.8032
   48MOL0     H 6315   3.562   3.896   4.439  0.4733 -2.1441  0.6607
   48MOL0     H 6316   3.348   3.875   4.301  1.5042  0.6484  1.4995
   48MOL0     H 6317   3.396   3.734   4.375 -1.5172  1.1528  0.7168
   48MOL0     H 6318   4.192   4.619   4.191  1.3853 -0.5135 -1.8503
   48MOL0     H 6319   4.428   4.686   4.235  0.2720 -1.2782 -0.2390
   48MOL0     H 6320   4.773   4.595   4.651  0.4692 -2.2670 -0.8525
   48MOL0     H 6321   5.003   4.618   4.730  1.3098 -1.5749 -1.2791
   48MOL0     H 6322   6.528   4.297   5.732 -0.8927  2.4463 -0.6112
   48MOL0     H 6323   6.759   4.340   5.721 -1.8520 -0.5931  0.8490
   48MOL0     H 6324   7.079   4.557   5.655  0.5757 -0.0317 -0.6449
   48MOL0     H 6325   7.296   4.647   5.650  0.1185  1.1069 -2.6640
   48MOL0     H 6326   7.631   4.384   5.540 -1.0396 -0.5067  0.5413
   48MOL0     H 6327   7.653   4.458   5.697  0.7111  0.1088 -0.5046
   48MOL0     H 6328   7.812   4.501   5.486  0.0587 -1.5808  0.8439
   48MOL0     H 6329   7.680   4.613   5.434 -1.5858  0.0445  0.6079
   48MOL0     H 6330   7.866   4.729   5.525  3.5200 -3.5039  0.7384
   48MOL0     H 6331   7.855   4.651   5.683  5.2212  3.5877 -1.0660
   48MOL0     H 6332   7.649   4.867   5.578 -4.9128 -0.6594  2.5986
   48MOL0     H 6333   7.605   4.740   5.680 -1.0411 -0.4914 -3.7394
   48MOL0     H 6334   7.844   5.000   5.912 -0.9927  0.6004 -0.0909
   48MOL0     H 6335   7.448   4.310   5.420  0.1341 -0.3249 -0.9836
   48MOL0     H 6336   7.210   4.243   5.389 -2.8855  0.6232  0.5221
   49MOL0     O 6337   6.037   8.337   2.770 -0.5479 -0.4355  0.6541
   49MOL0     C 6338   6.070   8.392   2.879  0.7619 -0.4924 -0.2261
   49MOL0     O 6339   5.986   8.470   2.959  0.0905  0.1305  0.3931
   49MOL0     C 6340   5.858   8.489   2.917  0.7132  0.7462  0.6675
   49MOL0     C 6341   5.753   8.442   2.989  0.8603  0.1032  0.1559
   49MOL0     C 6342   5.616   8.442   2.947  0.0047  0.4589  0.4279
   49MOL0     C 6343   5.595   8.497   2.819 -0.2171  0.4952 -0.4230
   49MOL0     O 6344   5.468   8.503   2.768 -0.1679  0.6037  0.0283
   49MOL0     C 6345   5.416   8.633   2.753  0.1526  0.2238 -0.3972
   49MOL0     C 6346   5.270   8.637   2.811 -0.1345 -0.3364 -0.0796
   49MOL0     C 6347   5.247   8.610   2.952 -0.1160  0.1587  0.1608
   49MOL0     C 6348   5.095   8.622   2.977  0.1450  0.4295 -1.0088
   49MOL0     C 6349   5.049   8.583   3.119  0.2774  0.4783  0.0479
   49MOL0     C 6350   5.025   8.699   3.214  0.2425  1.2824  0.1535
   49MOL0     C 6351   4.933   8.815   3.172  0.6295  0.0131  0.7676
   49MOL0     C 6352   4.909   8.916   3.288 -0.0937  0.2523 -0.1670
   49MOL0     N 6353   4.813   8.883   3.394  0.3126 -0.0856 -0.4242
   49MOL0     C 6354   4.683   8.851   3.375 -0.1646 -0.0034  1.1319
   49MOL0     C 6355   4.619   8.859   3.494 -0.1278 -0.5697  0.0657
   49MOL0     C 6356   4.476   8.810   3.514 -0.5551  0.3735 -0.7900
   49MOL0     C 6357   4.354   8.903   3.473  0.3260  0.4804  0.3962
   49MOL0     C 6358   4.381   9.037   3.532 -0.2157 -0.3306  0.3472
   49MOL0     C 6359   4.263   9.139   3.553  0.1858  0.2187  0.4463
   49MOL0     O 6360   4.184   9.155   3.429 -0.2022  0.4811 -0.2530
   49MOL0     C 6361   4.074   9.070   3.395  0.5094 -0.6134 -1.3510
   49MOL0     C 6362   4.005   9.098   3.281 -0.7687  0.4786 -0.0591
   49MOL0     C 6363   3.897   9.013   3.246 -0.0716 -0.0759  0.5138
   49MOL0     C 6364   3.833   8.919   3.334 -0.2991 -0.5359 -0.0701
   49MOL0     C 6365   3.716   8.835   3.295 -0.0280  0.4192 -0.2972
   49MOL0     O 6366   3.692   8.731   3.382 -0.0851  0.3650  0.0301
   49MOL0     C 6367   3.592   8.638   3.364  0.2657  0.1686  0.2486
   49MOL0     C 6368   3.496   8.627   3.255 -0.5682  0.0240  0.4361
   49MOL0     C 6369   3.395   8.534   3.243  0.1021 -0.0771  0.0530
   49MOL0     C 6370   3.388   8.429   3.329 -0.7876 -0.5458 -0.1755
   49MOL0     O 6371   3.293   8.334   3.302 -0.1171 -0.7420  0.1676
   49MOL0     C 6372   3.307   8.201   3.372 -0.5469 -0.6201  0.3056
   49MOL0     C 6373   3.218   8.097   3.306  0.3216  0.9346  0.9271
   49MOL0     C 6374   3.066   8.121   3.337  0.3966  0.3651 -0.2841
   49MOL0     C 6375   2.983   8.002   3.282 -0.0709 -0.7816  0.6715
   49MOL0     C 6376   2.829   8.024   3.271  0.2540  0.4166 -0.2891
   49MOL0     C 6377   2.745   7.906   3.246  0.3883 -0.2996  0.0076
   49MOL0     C 6378   2.636   7.937   3.149  0.5407  0.7528  0.2860
   49MOL0     C 6379   2.690   7.950   3.004  0.1771 -0.3979 -0.6601
   49MOL0    Cl 6380   2.557   8.000   2.914  0.5150  0.1183  0.2031
   49MOL0     C 6381   3.476   8.429   3.439  0.2053 -0.8224  0.5492
   49MOL0     C 6382   3.574   8.534   3.458  0.5478  0.3514  0.3267
   49MOL0     O 6383   3.666   8.851   3.183  0.5014 -0.1449 -0.5089
   49MOL0     C 6384   3.909   8.902   3.454 -0.4699 -0.5542 -0.7469
   49MOL0     C 6385   4.018   8.979   3.485  0.3149 -1.2641 -0.0442
   49MOL0     N 6386   4.700   8.912   3.583  0.0533  0.8268 -0.5476
   49MOL0     N 6387   4.820   8.916   3.532  0.2275  0.0808 -0.0915
   49MOL0     C 6388   5.702   8.542   2.737  0.0671  0.2180  0.5893
   49MOL0     C 6389   5.826   8.532   2.791 -0.0164 -1.1455  0.3627
   49MOL0     C 6390   6.214   8.388   2.906 -0.0961  1.1084  0.4217
   49MOL0     C 6391   6.308   8.323   2.816 -0.1761 -0.0733 -0.2727
   49MOL0     C 6392   6.445   8.322   2.835 -0.1340  0.4711  1.1507
   49MOL0     C 6393   6.495   8.389   2.944  0.4632 -1.0041 -0.5197
   49MOL0     O 6394   6.626   8.374   2.981 -0.0995 -0.0315 -0.5765
   49MOL0     C 6395   6.717   8.305   2.890 -0.4823 -0.4112 -0.7785
   49MOL0     C 6396   6.849   8.281   2.968  0.5623 -0.6430  0.3672
   49MOL0     C 6397   6.908   8.428   2.989  0.4262  0.3138 -0.0082
   49MOL0     C 6398   7.055   8.405   2.958 -0.5039 -0.2002 -0.5766
   49MOL0     C 6399   7.129   8.536   2.977  0.7120  1.5195  0.1991
   49MOL0     C 6400   7.177   8.647   3.007 -0.6683 -0.7810  0.0876
   49MOL0     C 6401   6.408   8.449   3.046 -0.2614  0.2956 -0.1706
   49MOL0     C 6402   6.271   8.446   3.022 -0.1302 -0.6551 -0.0972
   49MOL0     H 6403   5.770   8.398   3.087 -0.7173 -1.7844 -0.3533
   49MOL0     H 6404   5.530   8.406   3.001 -0.7079  1.8571  0.2830
   49MOL0     H 6405   5.407   8.655   2.646 -3.3501 -2.6392 -0.8798
   49MOL0     H 6406   5.480   8.708   2.801  1.2764 -1.6454  1.1693
   49MOL0     H 6407   5.221   8.565   2.745  2.0137 -1.1246 -0.8958
   49MOL0     H 6408   5.228   8.737   2.798 -1.1274 -0.5688  1.2039
   49MOL0     H 6409   5.308   8.679   3.011 -1.7909  1.9683 -0.1168
   49MOL0     H 6410   5.282   8.508   2.970  0.8572 -0.2032 -3.1422
   49MOL0     H 6411   5.055   8.719   2.946 -1.2943 -0.1951 -1.1681
   49MOL0     H 6412   5.045   8.549   2.913 -1.1907 -2.5674  2.9821
   49MOL0     H 6413   5.111   8.502   3.159 -1.9362  0.2878  3.5537
   49MOL0     H 6414   4.950   8.536   3.106  0.3785  0.7424 -1.8911
   49MOL0     H 6415   5.127   8.734   3.233  0.3440  1.0231  0.0840
   49MOL0     H 6416   4.975   8.667   3.306 -1.5312 -3.8102 -2.2307
   49MOL0     H 6417   4.960   8.872   3.084  0.5487  0.5944  1.1151
   49MOL0     H 6418   4.836   8.771   3.146  0.6906 -0.6524  1.6090
   49MOL0     H 6419   4.859   9.007   3.254  1.0780  1.8358  2.1002
   49MOL0     H 6420   5.006   8.951   3.324  0.3941 -0.3204 -0.8888
   49MOL0     H 6421   4.656   8.804   3.282  1.5814  0.6354  0.2547
   49MOL0     H 6422   4.464   8.779   3.618 -0.7028  1.7696 -0.3766
   49MOL0     H 6423   4.469   8.725   3.445 -1.9140 -0.0600 -0.1394
   49MOL0     H 6424   4.267   8.854   3.518 -0.6966 -0.2331 -2.1942
   49MOL0     H 6425   4.333   8.911   3.366 -0.8802 -0.2525  0.5643
   49MOL0     H 6426   4.417   9.017   3.633 -0.3841  3.1070  1.1972
   49MOL0     H 6427   4.460   9.085   3.475 -1.1630 -1.0943 -1.7211
   49MOL0     H 6428   4.305   9.233   3.591 -1.9206  0.3370  2.8129
   49MOL0     H 6429   4.203   9.105   3.639  2.4920 -0.9347  1.6898
   49MOL0     H 6430   4.033   9.182   3.218  1.3760 -0.8406 -0.9974
   49MOL0     H 6431   3.844   9.030   3.152 -1.3279  0.6888  1.3350
   49MOL0     H 6432   3.486   8.695   3.171 -1.4050 -0.8771 -0.2140
   49MOL0     H 6433   3.339   8.517   3.151  0.8551 -1.9782 -0.0961
   49MOL0     H 6434   3.297   8.202   3.481 -2.5362  1.1847  0.1597
   49MOL0     H 6435   3.403   8.155   3.345 -1.9266 -3.5027 -0.0816
   49MOL0     H 6436   3.255   7.995   3.319  2.2336  1.2456 -1.2701
   49MOL0     H 6437   3.224   8.108   3.197  0.8338  0.9257  0.9542
   49MOL0     H 6438   3.034   8.222   3.310  3.7860  1.9960  1.1695
   49MOL0     H 6439   3.052   8.110   3.445 -2.6573 -1.1650 -0.7379
   49MOL0     H 6440   3.019   7.968   3.185 -2.2127 -0.7206 -0.2033
   49MOL0     H 6441   3.002   7.924   3.355  0.2300 -0.4975  0.9006
   49MOL0     H 6442   2.820   8.095   3.189 -1.3518 -0.4566 -0.9081
   49MOL0     H 6443   2.798   8.081   3.359  2.6038 -0.5128  1.2507
   49MOL0     H 6444   2.707   7.877   3.344  0.7480  2.4677  1.0370
   49MOL0     H 6445   2.804   7.821   3.210 -1.0644 -0.5095 -2.0483
   49MOL0     H 6446   2.564   7.858   3.127 -1.0147  2.8368 -2.8246
   49MOL0     H 6447   2.589   8.034   3.167 -0.1894  0.7725 -1.4613
   49MOL0     H 6448   2.728   7.859   2.958 -0.1720  0.5952 -3.0693
   49MOL0     H 6449   2.762   8.033   3.006 -0.6264  0.4459 -3.2922
   49MOL0     H 6450   3.475   8.347   3.511  1.6917 -1.9921 -0.6736
   49MOL0     H 6451   3.637   8.527   3.546  1.4561  2.2585 -0.1088
   49MOL0     H 6452   3.887   8.827   3.529  0.8768 -0.1044  0.1227
   49MOL0     H 6453   4.061   8.958   3.582 -1.4158 -1.9717  0.5978
   49MOL0     H 6454   5.691   8.577   2.635  2.6355 -0.9323 -0.1509
   49MOL0     H 6455   5.911   8.577   2.739 -1.1424 -0.2695 -0.7948
   49MOL0     H 6456   6.277   8.282   2.720 -0.5058  0.3862 -0.3678
   49MOL0     H 6457   6.498   8.275   2.753 -0.8004 -0.1495  1.0598
   49MOL0     H 6458   6.744   8.355   2.797  2.5958 -1.3752 -0.5008
   49MOL0     H 6459   6.674   8.208   2.863  0.5597 -0.4690 -2.2845
   49MOL0     H 6460   6.854   8.241   3.069  3.6184  2.4308  1.6283
   49MOL0     H 6461   6.917   8.211   2.919 -0.5943 -2.7215  1.5861
   49MOL0     H 6462   6.908   8.451   3.096 -2.7214 -1.8440  0.6041
   49MOL0     H 6463   6.862   8.508   2.931  0.1309 -0.6227 -1.1072
   49MOL0     H 6464   7.109   8.333   3.020 -1.8208 -0.9268 -0.2331
   49MOL0     H 6465   7.071   8.384   2.852 -1.0584  3.0707 -1.4148
   49MOL0     H 6466   7.220   8.737   3.045  0.4375 -2.4322  3.0868
   49MOL0     H 6467   6.465   8.482   3.132 -0.0831 -1.4447  0.4108
   49MOL0     H 6468   6.218   8.511   3.092 -0.3849 -1.5774  0.5802
   50MOL0     O 6469   3.733   5.918   3.236 -0.6881  0.0509  0.5749
   50MOL0     C 6470   3.674   6.027   3.244  0.1420  0.3904  0.5194
   50MOL0     O 6471   3.539   6.046   3.231 -0.7013 -0.2594 -0.5238
   50MOL0     C 6472   3.458   5.944   3.199 -0.4314  0.5365  0.9996
   50MOL0     C 6473   3.472   5.803   3.209 -0.3272  0.5714 -0.3555
   50MOL0     C 6474   3.361   5.728   3.172  0.5895  0.5045 -0.1141
   50MOL0     C 6475   3.242   5.772   3.126  0.2069 -0.6736 -0.2481
   50MOL0     O 6476   3.138   5.680   3.099 -0.0029 -0.5925 -0.4199
   50MOL0     C 6477   3.033   5.725   3.010  0.2202 -0.2092 -0.4603
   50MOL0     C 6478   2.980   5.593   2.948 -0.2934 -0.3273 -0.4329
   50MOL0     C 6479   2.840   5.617   2.880 -0.9056  0.0165 -0.0407
   50MOL0     C 6480   2.789   5.476   2.840  0.2367  0.3803 -0.0951
   50MOL0     C 6481   2.660   5.475   2.750  0.2485  1.3289 -0.3762
   50MOL0     C 6482   2.562   5.357   2.770 -0.7522  0.0304 -0.0354
   50MOL0     C 6483   2.453   5.356   2.651  0.1851  0.3619  0.1745
   50MOL0     C 6484   2.509   5.276   2.530 -0.2884  0.2441  0.4042
   50MOL0     N 6485   2.418   5.278   2.407  0.3342 -0.9028 -0.7964
   50MOL0     C 6486   2.368   5.172   2.337  0.3321 -0.0288  1.2431
   50MOL0     C 6487   2.296   5.228   2.239  0.2576 -0.1535 -0.1882
   50MOL0     C 6488   2.223   5.163   2.127  0.3423  1.1626 -0.0672
   50MOL0     C 6489   2.077   5.199   2.152  0.8316 -0.3198  0.0601
   50MOL0     C 6490   1.976   5.128   2.063  0.0191  0.9931 -0.0555
   50MOL0     C 6491   1.829   5.163   2.086  0.2219 -1.1175  0.2800
   50MOL0     O 6492   1.824   5.306   2.050 -0.7573  0.4009 -0.1971
   50MOL0     C 6493   1.711   5.364   2.079 -0.6188 -0.9593  0.8628
   50MOL0     C 6494   1.661   5.381   2.207  0.1543  0.7786 -0.5081
   50MOL0     C 6495   1.538   5.448   2.226 -0.1921  0.5661  0.1931
   50MOL0     C 6496   1.449   5.486   2.118  0.2061 -0.4398  0.3006
   50MOL0     C 6497   1.310   5.546   2.141  0.0695 -0.1057 -0.3419
   50MOL0     O 6498   1.245   5.610   2.037  0.3035 -0.2772 -0.8796
   50MOL0     C 6499   1.122   5.666   2.059 -1.3803  0.5378 -1.1860
   50MOL0     C 6500   1.101   5.803   2.048  0.2430  0.6200  0.5859
   50MOL0     C 6501   0.972   5.857   2.061 -0.6086 -0.3947 -0.7685
   50MOL0     C 6502   0.860   5.781   2.090 -0.4810 -0.1567 -0.6081
   50MOL0     O 6503   0.732   5.842   2.109  0.4834 -0.0452  0.5557
   50MOL0     C 6504   0.616   5.746   2.099 -0.3743 -0.8721 -0.0767
   50MOL0     C 6505   0.486   5.819   2.090 -0.0784 -0.1167  0.4219
   50MOL0     C 6506   0.351   5.743   2.066  0.7720  0.0846 -0.8554
   50MOL0     C 6507   0.272   5.730   2.203 -0.0715  0.4830  0.6428
   50MOL0     C 6508   0.134   5.679   2.184  0.0517  0.4173 -0.1579
   50MOL0     C 6509   0.023   5.776   2.157 -0.1605  0.4553 -0.1151
   50MOL0     C 6510  -0.100   5.698   2.125  0.0806  0.4408  0.1477
   50MOL0     C 6511  -0.198   5.781   2.047  0.5190 -0.6812 -0.2179
   50MOL0    Cl 6512  -0.311   5.842   2.169 -0.7178  0.2632  0.2486
   50MOL0     C 6513   0.882   5.639   2.102 -0.8460  0.7941  0.3807
   50MOL0     C 6514   1.006   5.583   2.083  0.3802  0.7713 -0.1341
   50MOL0     O 6515   1.269   5.535   2.254 -0.1981 -0.7746  0.2044
   50MOL0     C 6516   1.494   5.455   1.988 -0.4957  0.0800 -0.1212
   50MOL0     C 6517   1.622   5.402   1.967 -0.2730 -0.3788 -0.1649
   50MOL0     N 6518   2.303   5.361   2.251 -0.3948  0.4009  0.1948
   50MOL0     N 6519   2.372   5.392   2.356  0.0754  0.4692  0.1445
   50MOL0     C 6520   3.226   5.909   3.106 -0.0397  0.0324 -0.5961
   50MOL0     C 6521   3.332   5.993   3.148 -0.0775 -0.4253  0.0092
   50MOL0     C 6522   3.773   6.135   3.254  0.5755  0.1512  0.1821
   50MOL0     C 6523   3.729   6.265   3.281  1.0708 -0.7755  0.1660
   50MOL0     C 6524   3.817   6.376   3.305  0.4882 -0.0524 -0.1330
   50MOL0     C 6525   3.962   6.358   3.290  0.4399 -0.3371 -0.6005
   50MOL0     O 6526   4.034   6.472   3.287  0.0007 -0.4221 -0.2929
   50MOL0     C 6527   4.143   6.454   3.379 -0.5878  0.5523  0.0782
   50MOL0     C 6528   4.116   6.553   3.491  0.3298  0.0065  0.9861
   50MOL0     C 6529   4.219   6.554   3.602 -0.4704  0.1354  0.4662
   50MOL0     C 6530   4.243   6.413   3.669  0.5740 -0.3187 -0.0495
   50MOL0     C 6531   4.120   6.366   3.734  0.2393  0.0615 -0.3355
   50MOL0     C 6532   4.013   6.331   3.788 -0.2579 -0.0656  0.6894
   50MOL0     C 6533   4.002   6.228   3.260  0.4834 -0.0844 -0.1411
   50MOL0     C 6534   3.914   6.121   3.244  0.6098 -0.5032  0.0554
   50MOL0     H 6535   3.559   5.756   3.253 -0.6260  0.0596 -0.2955
   50MOL0     H 6536   3.382   5.622   3.185 -1.9071 -0.4759 -2.8832
   50MOL0     H 6537   3.088   5.783   2.936  0.1020 -0.9750 -1.1681
   50MOL0     H 6538   2.951   5.786   3.048 -1.5529  0.0824 -4.3385
   50MOL0     H 6539   2.952   5.524   3.028 -0.2053 -2.1056 -1.8780
   50MOL0     H 6540   3.042   5.536   2.879 -0.7664  0.1456 -1.2617
   50MOL0     H 6541   2.848   5.687   2.796 -0.9606  0.0522 -0.0159
   50MOL0     H 6542   2.765   5.670   2.939  0.7787  2.1949  0.2552
   50MOL0     H 6543   2.860   5.414   2.784 -1.2190  0.2088 -1.8398
   50MOL0     H 6544   2.762   5.429   2.935 -5.0393  2.1154 -0.4032
   50MOL0     H 6545   2.688   5.484   2.645  2.9580 -0.9097  0.0383
   50MOL0     H 6546   2.594   5.556   2.783  1.0168  1.9011 -0.2253
   50MOL0     H 6547   2.515   5.355   2.869 -0.0707  0.1881  0.2938
   50MOL0     H 6548   2.620   5.264   2.771 -0.2019  0.3674  0.0200
   50MOL0     H 6549   2.360   5.305   2.679 -0.3783  1.1358 -0.2626
   50MOL0     H 6550   2.417   5.456   2.625  1.9394  1.1699  0.6497
   50MOL0     H 6551   2.539   5.173   2.549  1.1899  0.5782  0.0529
   50MOL0     H 6552   2.604   5.320   2.496  0.6922 -0.5652  1.9583
   50MOL0     H 6553   2.381   5.065   2.344 -0.1985 -0.3931 -1.7887
   50MOL0     H 6554   2.233   5.054   2.129 -4.2965  0.5593  0.5660
   50MOL0     H 6555   2.260   5.206   2.033 -0.3746  0.1388 -0.8457
   50MOL0     H 6556   2.057   5.307   2.152 -1.1084 -0.4166  4.8548
   50MOL0     H 6557   2.038   5.167   2.249  0.3540  1.1279  0.3696
   50MOL0     H 6558   2.010   5.156   1.962 -0.6698 -1.1970 -0.9516
   50MOL0     H 6559   1.992   5.020   2.066  0.4041  0.9869 -1.5709
   50MOL0     H 6560   1.802   5.141   2.189  2.1833 -1.0855  0.8532
   50MOL0     H 6561   1.764   5.107   2.019 -1.8581  0.3773  0.9390
   50MOL0     H 6562   1.728   5.348   2.285 -0.5977  1.4016  0.4326
   50MOL0     H 6563   1.510   5.466   2.329  0.1845 -0.8927  0.5715
   50MOL0     H 6564   1.190   5.860   2.023 -0.3263  0.8505 -1.1113
   50MOL0     H 6565   0.977   5.965   2.065  1.0350 -0.4888  1.1966
   50MOL0     H 6566   0.613   5.681   2.187 -0.9888 -1.3067 -0.4079
   50MOL0     H 6567   0.624   5.686   2.008  2.6380 -1.7921  0.7032
   50MOL0     H 6568   0.511   5.877   2.001  3.1104 -0.8754  0.7011
   50MOL0     H 6569   0.475   5.884   2.178 -1.8113 -0.0811  0.2218
   50MOL0     H 6570   0.372   5.647   2.020  0.6070  1.0433 -3.0814
   50MOL0     H 6571   0.289   5.805   2.000 -0.2457 -0.6910 -0.6441
   50MOL0     H 6572   0.320   5.658   2.270 -0.1218 -0.8871 -0.7253
   50MOL0     H 6573   0.273   5.825   2.257 -0.4116 -0.0298  1.5681
   50MOL0     H 6574   0.094   5.632   2.274 -1.1693  0.3082 -0.7288
   50MOL0     H 6575   0.139   5.608   2.100 -0.4153 -1.9635  1.7042
   50MOL0     H 6576   0.057   5.830   2.068 -0.7747  2.4326  0.7838
   50MOL0     H 6577   0.013   5.851   2.235  1.9426 -0.9712  1.6565
   50MOL0     H 6578  -0.074   5.608   2.068 -0.5273  1.1796 -1.3654
   50MOL0     H 6579  -0.146   5.663   2.218  1.0675 -0.8789  0.1579
   50MOL0     H 6580  -0.262   5.718   1.985 -0.9882  0.3198  0.2563
   50MOL0     H 6581  -0.150   5.859   1.987  1.8635  0.9186  2.7302
   50MOL0     H 6582   0.799   5.572   2.119  1.2719 -1.4721  2.5890
   50MOL0     H 6583   1.003   5.477   2.062 -1.4261  1.2625 -2.8857
   50MOL0     H 6584   1.432   5.474   1.901  1.2511 -2.2096 -2.0104
   50MOL0     H 6585   1.663   5.389   1.867  0.8836  1.1263  0.0896
   50MOL0     H 6586   3.131   5.953   3.080  0.5562  1.1086 -1.0297
   50MOL0     H 6587   3.321   6.100   3.140  2.3268 -0.1292 -0.3237
   50MOL0     H 6588   3.623   6.285   3.279  0.8413 -1.5622 -3.6634
   50MOL0     H 6589   3.788   6.478   3.325  0.1785 -0.2705  0.5803
   50MOL0     H 6590   4.225   6.485   3.314 -2.3941 -3.6103 -4.8311
   50MOL0     H 6591   4.166   6.355   3.419 -0.5751  0.0012 -1.2379
   50MOL0     H 6592   4.106   6.653   3.448  0.3882  0.0170  0.9964
   50MOL0     H 6593   4.022   6.518   3.534 -0.8015  1.7891  0.0534
   50MOL0     H 6594   4.183   6.623   3.678  2.2401  1.8703  0.2951
   50MOL0     H 6595   4.318   6.580   3.565 -1.3474 -0.5432 -2.6304
   50MOL0     H 6596   4.288   6.339   3.603  1.2902  0.9770 -1.0626
   50MOL0     H 6597   4.312   6.414   3.754  0.2549 -2.5480  0.2987
   50MOL0     H 6598   3.920   6.290   3.823  0.3639 -1.6619  0.5797
   50MOL0     H 6599   4.107   6.202   3.255  0.2068 -1.0494 -1.8735
   50MOL0     H 6600   3.945   6.017   3.231 -0.3575 -0.9539  1.1480
   51MOL0     O 6601  10.961   1.448   0.156 -0.0775  0.5521  0.1030
   51MOL0     C 6602  10.993   1.514   0.060 -0.0903 -0.6256 -0.2444
   51MOL0     O 6603  10.920   1.620   0.003 -0.4514 -0.7804 -0.6156
   51MOL0     C 6604  10.824   1.686   0.075 -0.7185  0.2927  0.3161
   51MOL0     C 6605  10.850   1.806   0.142  0.3950  0.7184 -0.4601
   51MOL0     C 6606  10.749   1.864   0.221 -0.5494  0.7871 -0.2090
   51MOL0     C 6607  10.625   1.804   0.239  0.3595  0.7033  0.6175
   51MOL0     O 6608  10.534   1.863   0.330  0.1925  0.0048  0.1563
   51MOL0     C 6609  10.395   1.828   0.313 -0.5489 -0.0923 -0.4598
   51MOL0     C 6610  10.312   1.910   0.420 -0.3018  0.0099  0.2416
   51MOL0     C 6611  10.166   1.878   0.415  0.1924 -1.4262  1.0994
   51MOL0     C 6612  10.062   1.995   0.443 -0.4171  0.0130 -0.3716
   51MOL0     C 6613   9.920   1.975   0.403  0.2876 -0.0224 -0.2538
   51MOL0     C 6614   9.832   2.082   0.473  0.3077  0.2776  0.2712
   51MOL0     C 6615   9.682   2.039   0.459 -0.2790 -0.0321 -0.2407
   51MOL0     C 6616   9.635   2.081   0.309 -0.0348  0.0029 -1.3660
   51MOL0     N 6617   9.498   2.045   0.274 -0.5200  0.1443  0.3154
   51MOL0     C 6618   9.446   1.922   0.316 -0.3520 -0.7857  0.1487
   51MOL0     C 6619   9.330   1.907   0.250 -0.5326 -1.1736 -0.3589
   51MOL0     C 6620   9.254   1.784   0.253  1.1346  1.2263 -0.1171
   51MOL0     C 6621   9.105   1.798   0.270 -0.1917 -0.2854  0.1860
   51MOL0     C 6622   9.035   1.670   0.293  0.1268  0.3998 -0.0181
   51MOL0     C 6623   8.885   1.688   0.302  0.6378  0.5910  0.3715
   51MOL0     O 6624   8.828   1.556   0.318 -0.0024  0.1665  0.5600
   51MOL0     C 6625   8.695   1.536   0.331 -0.3927 -1.2861  0.4100
   51MOL0     C 6626   8.660   1.408   0.338  0.0661 -0.5641 -0.0203
   51MOL0     C 6627   8.528   1.363   0.325  0.8693  0.9958  0.3123
   51MOL0     C 6628   8.420   1.451   0.308 -0.3881 -0.4898 -1.0894
   51MOL0     C 6629   8.274   1.418   0.302  0.2289 -0.4457  0.2011
   51MOL0     O 6630   8.189   1.516   0.276  0.0877 -0.2467  0.1550
   51MOL0     C 6631   8.063   1.479   0.250 -0.4791  0.3229  0.4353
   51MOL0     C 6632   7.959   1.500   0.345 -0.1371  0.8496  0.8172
   51MOL0     C 6633   7.833   1.450   0.327 -0.9320  0.0036  0.1455
   51MOL0     C 6634   7.795   1.402   0.205  0.0251  0.2857  0.2119
   51MOL0     O 6635   7.666   1.358   0.168  0.3989 -0.3987  0.7146
   51MOL0     C 6636   7.572   1.355   0.276  0.8572 -0.5222  0.2319
   51MOL0     C 6637   7.446   1.273   0.235  0.4865 -0.2084 -0.4943
   51MOL0     C 6638   7.349   1.264   0.346  0.0527  1.0372  0.4200
   51MOL0     C 6639   7.202   1.299   0.303 -0.3231 -0.3201 -0.0594
   51MOL0     C 6640   7.102   1.260   0.409  0.3809 -0.3859  0.3412
   51MOL0     C 6641   6.966   1.335   0.374  0.2012  0.1453 -0.2756
   51MOL0     C 6642   6.861   1.283   0.470 -0.9168  0.8795 -0.0888
   51MOL0     C 6643   6.720   1.330   0.447  0.7336 -0.3452 -0.9041
   51MOL0    Cl 6644   6.630   1.333   0.608 -0.3493 -0.1323 -0.1139
   51MOL0     C 6645   7.895   1.388   0.110  1.0266  0.2960  0.3799
   51MOL0     C 6646   8.030   1.421   0.129  0.1534 -0.5282  0.3720
   51MOL0     O 6647   8.250   1.295   0.320 -0.2697  0.5049 -0.2603
   51MOL0     C 6648   8.455   1.596   0.300  0.8006  1.4483  0.7757
   51MOL0     C 6649   8.593   1.630   0.304 -0.2355 -1.0076 -0.8273
   51MOL0     N 6650   9.303   2.028   0.178 -0.4442  0.5722  0.8803
   51MOL0     N 6651   9.406   2.107   0.193 -0.1259  0.6771  1.0516
   51MOL0     C 6652  10.594   1.689   0.158  0.0402  0.3227  0.1361
   51MOL0     C 6653  10.696   1.631   0.081  1.1389 -1.2097  0.3402
   51MOL0     C 6654  11.125   1.474   0.001 -0.5143 -0.4265  0.0405
   51MOL0     C 6655  11.211   1.380   0.067  0.7136 -0.7741  0.0032
   51MOL0     C 6656  11.339   1.345   0.013  0.3275 -0.3638  0.4940
   51MOL0     C 6657  11.372   1.401  -0.109  0.2337 -0.5145  0.5908
   51MOL0     O 6658  11.491   1.359  -0.157 -0.6265  0.8812 -0.0870
   51MOL0     C 6659  11.539   1.415  -0.276 -0.6691  0.4210  0.3338
   51MOL0     C 6660  11.673   1.339  -0.303 -0.3621  0.1482  0.0834
   51MOL0     C 6661  11.752   1.320  -0.178 -0.3578  0.3879 -0.3627
   51MOL0     C 6662  11.890   1.246  -0.177  0.4925 -0.7481  0.6517
   51MOL0     C 6663  11.892   1.123  -0.259  0.0245  0.2820  0.3356
   51MOL0     C 6664  11.893   1.028  -0.338  0.8345 -0.3381  0.1611
   51MOL0     C 6665  11.287   1.494  -0.174  0.1214 -0.0600  0.1899
   51MOL0     C 6666  11.162   1.534  -0.124  0.4827  0.2404  0.2415
   51MOL0     H 6667  10.948   1.853   0.136  0.1776  1.1884 -0.3350
   51MOL0     H 6668  10.788   1.940   0.288 -1.1649  0.3581  0.6642
   51MOL0     H 6669  10.384   1.721   0.334 -2.5938  0.1852  0.0967
   51MOL0     H 6670  10.369   1.858   0.211  0.9409  2.3367 -0.1982
   51MOL0     H 6671  10.331   2.014   0.395 -3.9113  0.7427  0.0882
   51MOL0     H 6672  10.357   1.899   0.519 -0.2800 -0.8008  0.1495
   51MOL0     H 6673  10.147   1.794   0.482 -0.1549 -1.5038  0.9028
   51MOL0     H 6674  10.150   1.844   0.312 -2.4616  1.1015  0.5641
   51MOL0     H 6675  10.074   2.020   0.549 -0.5064  0.3774 -0.4440
   51MOL0     H 6676  10.095   2.088   0.396  1.6971  0.2451  1.4045
   51MOL0     H 6677   9.883   1.882   0.448  1.6758 -1.6490 -2.2421
   51MOL0     H 6678   9.915   1.974   0.294  2.8393  2.8910 -0.5326
   51MOL0     H 6679   9.856   2.182   0.435 -0.6789  0.1055 -0.8640
   51MOL0     H 6680   9.856   2.083   0.580  0.9164  1.2416  0.1396
   51MOL0     H 6681   9.683   1.931   0.478  1.3966 -0.2705 -1.4451
   51MOL0     H 6682   9.611   2.082   0.529 -1.1007 -1.1849 -0.3345
   51MOL0     H 6683   9.710   2.049   0.236  1.7324 -1.3161  0.8981
   51MOL0     H 6684   9.645   2.188   0.286 -1.5197 -0.3019 -3.6951
   51MOL0     H 6685   9.505   1.849   0.371 -0.3507 -1.1485 -0.3336
   51MOL0     H 6686   9.300   1.717   0.325 -1.1383 -2.1356 -1.5137
   51MOL0     H 6687   9.267   1.730   0.159 -0.2636 -0.8464  0.7934
   51MOL0     H 6688   9.060   1.844   0.182  0.2381 -1.8510 -0.8813
   51MOL0     H 6689   9.090   1.855   0.362 -1.6363  0.8569 -0.7142
   51MOL0     H 6690   9.052   1.597   0.213 -4.0747 -0.0315 -0.7648
   51MOL0     H 6691   9.077   1.618   0.380  3.0626 -1.7726 -2.5148
   51MOL0     H 6692   8.853   1.739   0.211  2.6599 -2.9729 -2.5936
   51MOL0     H 6693   8.864   1.749   0.391 -2.7358  0.1781  0.0003
   51MOL0     H 6694   8.741   1.336   0.334  1.1450  0.1256  4.2165
   51MOL0     H 6695   8.509   1.257   0.320  1.9392  0.7916  0.3776
   51MOL0     H 6696   7.977   1.525   0.449 -0.7513  2.1191  0.6413
   51MOL0     H 6697   7.777   1.448   0.421  0.5719 -3.0063  1.0904
   51MOL0     H 6698   7.530   1.448   0.315  0.8970 -0.9393  1.2904
   51MOL0     H 6699   7.605   1.303   0.366 -0.3747 -1.4995  0.1491
   51MOL0     H 6700   7.459   1.174   0.189  0.5254  0.5940 -2.3209
   51MOL0     H 6701   7.408   1.345   0.161  2.3975  1.3507 -0.0213
   51MOL0     H 6702   7.379   1.334   0.424 -0.7528  1.6621  0.1853
   51MOL0     H 6703   7.341   1.165   0.392 -0.4779  0.2207 -1.3321
   51MOL0     H 6704   7.197   1.407   0.287 -2.8326 -0.7027 -2.3834
   51MOL0     H 6705   7.169   1.259   0.207 -0.9157  0.7027 -0.2957
   51MOL0     H 6706   7.136   1.273   0.512  1.9269 -3.0551  0.2859
   51MOL0     H 6707   7.073   1.155   0.401 -1.8502 -0.0524  2.7477
   51MOL0     H 6708   6.937   1.323   0.270  0.2913 -1.5049 -0.1483
   51MOL0     H 6709   6.987   1.438   0.405  1.9222 -0.5008  0.8986
   51MOL0     H 6710   6.850   1.178   0.443 -0.9462  1.1592 -1.2227
   51MOL0     H 6711   6.887   1.301   0.574  0.7504 -0.3021 -0.2637
   51MOL0     H 6712   6.669   1.272   0.370 -0.7447  3.3101 -2.9386
   51MOL0     H 6713   6.719   1.426   0.395 -1.1156  1.1299  1.5908
   51MOL0     H 6714   7.875   1.342   0.014 -0.5586  1.4653  0.0862
   51MOL0     H 6715   8.106   1.409   0.052 -0.4961 -0.6415 -0.2713
   51MOL0     H 6716   8.376   1.669   0.284 -1.5023 -1.0713 -0.1817
   51MOL0     H 6717   8.618   1.736   0.299 -0.1944 -0.6732  3.2249
   51MOL0     H 6718  10.496   1.642   0.160 -1.6856  3.6385  0.0248
   51MOL0     H 6719  10.678   1.539   0.028  0.2301 -0.6127 -0.4080
   51MOL0     H 6720  11.182   1.360   0.169 -0.0461  0.5951  0.0812
   51MOL0     H 6721  11.398   1.267   0.061  0.5773 -1.1987 -1.1266
   51MOL0     H 6722  11.557   1.518  -0.243 -0.4982  0.8491 -1.0568
   51MOL0     H 6723  11.489   1.408  -0.373 -0.0690 -3.2860  0.1815
   51MOL0     H 6724  11.648   1.242  -0.346  0.5348  0.4073 -1.0716
   51MOL0     H 6725  11.728   1.384  -0.386 -1.8205  2.5542  0.3162
   51MOL0     H 6726  11.694   1.255  -0.112  0.8013  1.6714  2.0645
   51MOL0     H 6727  11.775   1.417  -0.131  2.3968  0.1007 -0.9132
   51MOL0     H 6728  11.958   1.319  -0.222 -6.2492  4.3810 -3.1544
   51MOL0     H 6729  11.923   1.229  -0.074  1.5136 -0.5751  0.3629
   51MOL0     H 6730  11.887   0.945  -0.405 -4.7539  1.5987 -2.4483
   51MOL0     H 6731  11.326   1.531  -0.268  1.4032 -1.1465  0.2670
   51MOL0     H 6732  11.107   1.612  -0.175  1.7163 -0.2514 -2.0101
   52MOL0     O 6733   4.420   2.681  10.438 -0.0557  1.0612  0.6838
   52MOL0     C 6734   4.392   2.564  10.465 -0.0344  0.5134 -0.6077
   52MOL0     O 6735   4.275   2.502  10.427  0.1121 -0.1293 -0.7941
   52MOL0     C 6736   4.195   2.557  10.320  0.4010 -0.6150  0.4643
   52MOL0     C 6737   4.144   2.482  10.207  0.0912  0.7598 -0.3227
   52MOL0     C 6738   4.061   2.528  10.112  0.4973 -1.2456 -0.4334
   52MOL0     C 6739   4.029   2.662  10.112  0.9967  0.5106 -0.1902
   52MOL0     O 6740   3.945   2.697  10.004 -0.3082 -0.4201 -0.4542
   52MOL0     C 6741   3.916   2.834   9.976 -0.3040  1.0684 -0.3117
   52MOL0     C 6742   3.859   2.845   9.837 -0.3233  0.3165  0.5620
   52MOL0     C 6743   3.799   2.983   9.811 -0.2308 -0.4341  0.5239
   52MOL0     C 6744   3.756   2.998   9.664  0.0251 -0.4482 -0.8053
   52MOL0     C 6745   3.689   3.134   9.628 -0.1548 -0.1060 -0.0614
   52MOL0     C 6746   3.631   3.133   9.492  0.0783 -0.1701 -0.3693
   52MOL0     C 6747   3.579   3.277   9.461 -0.1302  0.2093 -1.0318
   52MOL0     C 6748   3.525   3.281   9.318  0.4720 -0.1388 -0.2069
   52MOL0     N 6749   3.377   3.257   9.309  0.6753  0.7597  0.7277
   52MOL0     C 6750   3.273   3.354   9.288 -0.3076  0.2392  0.5393
   52MOL0     C 6751   3.170   3.272   9.251  0.4862 -0.1379  0.3559
   52MOL0     C 6752   3.031   3.332   9.220  0.0458  0.4302 -0.3414
   52MOL0     C 6753   3.020   3.395   9.082  0.5039 -0.3102  0.2714
   52MOL0     C 6754   2.885   3.467   9.048  0.2688 -0.5675 -1.2756
   52MOL0     C 6755   2.760   3.375   9.041 -0.1639  0.4213  0.0129
   52MOL0     O 6756   2.640   3.454   9.024  0.5591 -0.1952 -0.1660
   52MOL0     C 6757   2.523   3.380   9.050  0.0797  0.4919 -0.9152
   52MOL0     C 6758   2.516   3.236   9.071 -0.6192  0.2291  0.4633
   52MOL0     C 6759   2.390   3.176   9.091 -0.2728  0.8047  0.5145
   52MOL0     C 6760   2.276   3.246   9.092 -0.3651 -1.1380 -0.4889
   52MOL0     C 6761   2.152   3.173   9.117  0.8286 -0.0393 -0.2842
   52MOL0     O 6762   2.038   3.250   9.137  0.4736  0.6168  0.3757
   52MOL0     C 6763   1.907   3.198   9.125  0.2237  0.0266  0.2221
   52MOL0     C 6764   1.868   3.061   9.083  0.5980 -0.0428  0.0644
   52MOL0     C 6765   1.731   3.030   9.061 -0.0767  0.1921 -0.3620
   52MOL0     C 6766   1.629   3.122   9.104 -0.2935 -0.4138 -0.4186
   52MOL0     O 6767   1.496   3.092   9.110 -0.4736  1.0577 -0.6314
   52MOL0     C 6768   1.463   2.952   9.077  0.2299 -0.3887 -0.3403
   52MOL0     C 6769   1.311   2.953   9.082 -0.3415  0.8533  0.0928
   52MOL0     C 6770   1.263   2.935   9.234 -0.0062 -0.1747  0.0171
   52MOL0     C 6771   1.263   2.779   9.262  0.4218 -0.3421  0.3778
   52MOL0     C 6772   1.238   2.735   9.413  0.3302  0.2690  0.9505
   52MOL0     C 6773   1.123   2.798   9.497  0.4557 -0.1143 -0.3836
   52MOL0     C 6774   0.978   2.777   9.449 -0.0677  0.3826 -0.6679
   52MOL0     C 6775   0.949   2.637   9.452 -0.8305  0.1130  1.2805
   52MOL0    Cl 6776   0.763   2.630   9.430  0.5110 -0.4871  0.2127
   52MOL0     C 6777   1.663   3.251   9.144  0.0503 -0.1930 -0.4370
   52MOL0     C 6778   1.801   3.290   9.150  0.5016  1.3976 -0.0284
   52MOL0     O 6779   2.157   3.052   9.119 -0.0344 -0.1394  0.9836
   52MOL0     C 6780   2.277   3.385   9.082  0.5576 -0.3759 -1.3671
   52MOL0     C 6781   2.403   3.447   9.063  0.3527 -0.0742 -0.2160
   52MOL0     N 6782   3.196   3.140   9.263 -0.0403  0.5030  0.2668
   52MOL0     N 6783   3.320   3.132   9.298  0.9639  0.1481 -0.5853
   52MOL0     C 6784   4.076   2.747  10.211  0.1107 -0.3907 -0.0106
   52MOL0     C 6785   4.157   2.694  10.321  0.1362  0.3917 -0.1513
   52MOL0     C 6786   4.493   2.497  10.561 -0.7244  0.1384  0.3402
   52MOL0     C 6787   4.634   2.513  10.549 -0.6036 -0.0755 -0.8570
   52MOL0     C 6788   4.730   2.443  10.627 -0.4712  0.5906  0.3466
   52MOL0     C 6789   4.679   2.362  10.732  0.1623  0.5170  0.0093
   52MOL0     O 6790   4.757   2.301  10.825  0.2814  0.5272 -0.6317
   52MOL0     C 6791   4.900   2.272  10.795  0.1237  0.1280  0.8965
   52MOL0     C 6792   4.953   2.178  10.902  0.3509 -0.4043 -0.4120
   52MOL0     C 6793   5.095   2.143  10.876  1.2821 -0.0306 -0.7252
   52MOL0     C 6794   5.198   2.262  10.889  0.1380 -0.3325 -0.2952
   52MOL0     C 6795   5.278   2.265  10.759  0.7868 -0.3681 -0.5346
   52MOL0     C 6796   5.343   2.246  10.655  0.1734 -0.9808  0.3442
   52MOL0     C 6797   4.538   2.341  10.748 -0.4201  0.7557 -0.3541
   52MOL0     C 6798   4.448   2.403  10.662  0.0734  0.5131  1.0845
   52MOL0     H 6799   4.163   2.375  10.197 -2.1152  0.3355 -0.4186
   52MOL0     H 6800   4.029   2.462  10.032  0.7757 -0.3143 -1.3479
   52MOL0     H 6801   4.008   2.890   9.990  0.5627 -0.4303  0.2800
   52MOL0     H 6802   3.842   2.867  10.049 -0.4477 -0.4148  0.2634
   52MOL0     H 6803   3.783   2.770   9.813  3.2205 -2.6224 -2.9535
   52MOL0     H 6804   3.933   2.817   9.761 -1.3285  0.0076 -0.3275
   52MOL0     H 6805   3.881   3.049   9.841 -1.1163 -0.8987  4.5623
   52MOL0     H 6806   3.713   2.997   9.877 -1.4788 -0.0794 -1.1313
   52MOL0     H 6807   3.837   2.995   9.591 -0.9403 -0.7720 -1.8905
   52MOL0     H 6808   3.688   2.915   9.644 -2.1238  0.3939  2.2917
   52MOL0     H 6809   3.757   3.217   9.649 -0.0144 -1.0528  3.8652
   52MOL0     H 6810   3.605   3.150   9.696  0.3007 -0.1473  0.5149
   52MOL0     H 6811   3.539   3.075   9.493  0.4563 -0.7625  0.3164
   52MOL0     H 6812   3.708   3.108   9.418  0.1849 -3.1824  0.6264
   52MOL0     H 6813   3.502   3.296   9.537 -0.8015 -1.4414 -1.2527
   52MOL0     H 6814   3.669   3.339   9.462  1.0130 -1.3933  0.3108
   52MOL0     H 6815   3.570   3.205   9.253 -0.0595 -0.6518  0.0223
   52MOL0     H 6816   3.545   3.378   9.272 -1.5457  0.0890 -0.6877
   52MOL0     H 6817   3.271   3.461   9.307  2.2500  0.3746  0.4121
   52MOL0     H 6818   3.006   3.402   9.300  0.2392  1.1581 -0.9066
   52MOL0     H 6819   2.954   3.255   9.218  0.4198  0.0257 -2.8865
   52MOL0     H 6820   3.036   3.316   9.008 -0.8607 -0.3570  0.0034
   52MOL0     H 6821   3.095   3.473   9.067  0.0514 -0.3044 -2.4619
   52MOL0     H 6822   2.872   3.545   9.123  0.4950 -1.3276 -0.4300
   52MOL0     H 6823   2.886   3.514   8.949  2.3170  2.4946  0.0475
   52MOL0     H 6824   2.761   3.312   9.131  0.9258 -1.5844 -1.3336
   52MOL0     H 6825   2.780   3.307   8.958  0.8660  0.1437  0.4729
   52MOL0     H 6826   2.598   3.166   9.060 -1.7285 -0.7867 -2.1776
   52MOL0     H 6827   2.378   3.069   9.090 -0.9028  0.8602 -1.3476
   52MOL0     H 6828   1.939   2.985   9.052  0.7936  0.7098 -1.4323
   52MOL0     H 6829   1.708   2.927   9.037 -2.5091  0.8036 -0.8805
   52MOL0     H 6830   1.513   2.873   9.135  2.3532  2.0888  1.4677
   52MOL0     H 6831   1.489   2.935   8.972 -1.9115 -0.6193 -0.8714
   52MOL0     H 6832   1.275   2.864   9.031 -0.1526  2.2186 -2.5980
   52MOL0     H 6833   1.265   3.038   9.031  0.0959  2.4197  2.1679
   52MOL0     H 6834   1.166   2.980   9.257 -0.7902 -1.0312 -1.4458
   52MOL0     H 6835   1.341   2.986   9.291  0.7530 -0.2720 -0.9103
   52MOL0     H 6836   1.177   2.741   9.206  0.3627  0.5361 -0.1422
   52MOL0     H 6837   1.355   2.734   9.224  0.6114 -0.7437  1.2766
   52MOL0     H 6838   1.335   2.759   9.458  0.9421  0.5888 -0.5015
   52MOL0     H 6839   1.239   2.625   9.415  1.5098  0.2564  0.4778
   52MOL0     H 6840   1.135   2.906   9.508 -1.0731  0.1638 -1.1220
   52MOL0     H 6841   1.130   2.761   9.599  2.1360  0.9893 -0.0623
   52MOL0     H 6842   0.916   2.827   9.524  2.3138  0.6925  1.2181
   52MOL0     H 6843   0.958   2.825   9.352 -1.9519 -0.0715 -0.5393
   52MOL0     H 6844   0.980   2.584   9.543 -0.7371 -0.6543  0.8083
   52MOL0     H 6845   0.996   2.592   9.365 -1.7874 -1.4184  1.5263
   52MOL0     H 6846   1.583   3.318   9.173 -0.3042 -0.3612 -1.0074
   52MOL0     H 6847   1.815   3.389   9.191  3.5678  1.1143 -0.1167
   52MOL0     H 6848   2.189   3.447   9.080  1.6161  1.2261 -0.4238
   52MOL0     H 6849   2.403   3.554   9.081  2.9181 -0.4305  3.0748
   52MOL0     H 6850   4.056   2.854  10.213  1.4225 -0.1290 -0.2256
   52MOL0     H 6851   4.198   2.756  10.400  0.5185 -0.9728  0.7605
   52MOL0     H 6852   4.665   2.578  10.468  2.4044 -0.3589 -0.0555
   52MOL0     H 6853   4.831   2.444  10.589 -1.3785  0.1681 -2.3645
   52MOL0     H 6854   4.966   2.359  10.789 -1.1099  1.0784  0.6657
   52MOL0     H 6855   4.903   2.222  10.698 -2.5008 -1.5908  1.5784
   52MOL0     H 6856   4.948   2.227  10.999  3.5188  0.1221 -0.4147
   52MOL0     H 6857   4.885   2.093  10.903 -0.6825  0.2824 -2.9268
   52MOL0     H 6858   5.102   2.080  10.786 -2.3166 -0.2567 -0.9724
   52MOL0     H 6859   5.124   2.081  10.961  1.0653 -0.1180 -0.7160
   52MOL0     H 6860   5.165   2.364  10.910 -0.1663 -0.7560  1.3759
   52MOL0     H 6861   5.269   2.246  10.970 -2.5061  0.6434  2.3618
   52MOL0     H 6862   5.420   2.247  10.581  1.7155 -0.2759  1.8859
   52MOL0     H 6863   4.503   2.265  10.817  0.9591 -1.4006 -1.9230
   52MOL0     H 6864   4.341   2.392  10.673 -0.4232  4.5498  1.7831
   53MOL0     O 6865   2.280   8.962   4.385 -0.3675  0.7012  0.0477
   53MOL0     C 6866   2.261   9.069   4.319 -0.0201  0.9222 -0.9085
   53MOL0     O 6867   2.178   9.167   4.363  0.2494  0.1998 -0.2726
   53MOL0     C 6868   2.119   9.143   4.492 -0.2216  0.0089  0.2564
   53MOL0     C 6869   1.978   9.136   4.488 -0.3734 -1.0267  0.3535
   53MOL0     C 6870   1.914   9.138   4.609  0.4594  0.1314 -0.7818
   53MOL0     C 6871   1.979   9.143   4.737 -0.9275  0.2681  0.4631
   53MOL0     O 6872   1.903   9.160   4.847 -0.0976  0.2295  0.6100
   53MOL0     C 6873   1.955   9.108   4.974 -0.0183  0.0143 -0.0174
   53MOL0     C 6874   1.839   9.080   5.065 -0.0658 -0.6925 -1.1245
   53MOL0     C 6875   1.747   8.982   4.997  0.0337 -0.3044 -0.4189
   53MOL0     C 6876   1.629   8.962   5.091  0.3710  0.0399  0.4087
   53MOL0     C 6877   1.525   8.864   5.021  1.2010 -0.4570 -0.0780
   53MOL0     C 6878   1.542   8.721   5.041  0.1763  1.0530  1.0627
   53MOL0     C 6879   1.438   8.636   4.961  0.4696 -0.3243 -0.9193
   53MOL0     C 6880   1.294   8.662   5.019  0.3336 -0.7968  0.2694
   53MOL0     N 6881   1.202   8.561   4.977  0.0053  0.1607  0.1488
   53MOL0     C 6882   1.198   8.435   5.033 -0.0091  0.0739  0.1610
   53MOL0     C 6883   1.105   8.367   4.958 -0.3110  0.0074  0.0196
   53MOL0     C 6884   1.083   8.217   4.960 -0.6876 -0.0533 -0.4929
   53MOL0     C 6885   0.960   8.167   5.046  0.3003 -0.1723 -0.1358
   53MOL0     C 6886   0.972   8.017   5.068 -0.6402  0.3237 -0.1233
   53MOL0     C 6887   0.841   7.959   5.125  0.0256 -0.4995 -0.2411
   53MOL0     O 6888   0.801   8.022   5.251  0.6370  0.4637  1.3562
   53MOL0     C 6889   0.665   7.998   5.286  0.2619  0.0932 -0.4267
   53MOL0     C 6890   0.591   7.880   5.250  0.2316 -0.9343  0.6290
   53MOL0     C 6891   0.457   7.874   5.296  0.0076  0.3641  0.6029
   53MOL0     C 6892   0.393   7.964   5.382 -0.4065  0.1132 -0.4537
   53MOL0     C 6893   0.256   7.941   5.445 -0.0404  0.0019 -0.9978
   53MOL0     O 6894   0.193   7.817   5.414 -0.5210 -0.9696 -0.6962
   53MOL0     C 6895   0.063   7.817   5.462 -0.8850 -0.3227  0.6493
   53MOL0     C 6896   0.034   7.780   5.587  0.1520  0.1195 -0.2222
   53MOL0     C 6897  -0.098   7.785   5.625  0.0395  0.7337 -0.2903
   53MOL0     C 6898  -0.209   7.804   5.533  0.0829 -0.5825  0.1175
   53MOL0     O 6899  -0.345   7.803   5.564  0.1232  1.3414  0.2011
   53MOL0     C 6900  -0.390   7.890   5.672  0.0804 -0.2727 -0.2341
   53MOL0     C 6901  -0.548   7.882   5.691  0.5831 -0.4167 -0.6559
   53MOL0     C 6902  -0.592   7.749   5.760  0.2410  0.3847 -0.6520
   53MOL0     C 6903  -0.597   7.768   5.917  0.3452 -0.0743  0.0882
   53MOL0     C 6904  -0.646   7.640   5.983  0.0021 -0.3863 -0.9494
   53MOL0     C 6905  -0.676   7.679   6.133  0.5325  0.2649 -0.2797
   53MOL0     C 6906  -0.696   7.564   6.221  0.0227  0.6697  0.0045
   53MOL0     C 6907  -0.575   7.461   6.213  0.4294  0.4297 -0.0328
   53MOL0    Cl 6908  -0.575   7.326   6.343  0.3607  0.1594  0.3022
   53MOL0     C 6909  -0.175   7.831   5.400 -0.2475 -0.1239 -0.3931
   53MOL0     C 6910  -0.030   7.838   5.367  0.7606 -0.2405 -0.7644
   53MOL0     O 6911   0.221   8.032   5.515  0.0516  1.0888  0.7112
   53MOL0     C 6912   0.473   8.078   5.411  0.3812 -0.1001  0.1285
   53MOL0     C 6913   0.608   8.096   5.362 -0.6575 -0.3298  1.1340
   53MOL0     N 6914   1.058   8.455   4.863  1.0073 -0.4621 -0.1505
   53MOL0     N 6915   1.117   8.569   4.871 -0.0582  0.0725 -0.6936
   53MOL0     C 6916   2.122   9.139   4.737 -0.1128 -0.5249 -0.1116
   53MOL0     C 6917   2.188   9.142   4.617 -0.8840 -0.0072  0.5346
   53MOL0     C 6918   2.320   9.078   4.183  0.1453 -0.6195  0.1444
   53MOL0     C 6919   2.313   9.212   4.124 -0.6567  0.1534 -0.1918
   53MOL0     C 6920   2.379   9.236   4.005  0.3798  0.7614  0.3389
   53MOL0     C 6921   2.438   9.132   3.932  0.1096 -0.4853 -0.0418
   53MOL0     O 6922   2.481   9.151   3.808 -0.0021  0.2563  0.3994
   53MOL0     C 6923   2.588   9.240   3.786 -0.8835  0.0664  0.0703
   53MOL0     C 6924   2.623   9.274   3.635 -0.1924  0.1971 -1.1306
   53MOL0     C 6925   2.745   9.367   3.637 -0.4809 -0.8099 -0.0908
   53MOL0     C 6926   2.853   9.315   3.539 -0.6198 -0.2920 -0.4653
   53MOL0     C 6927   2.986   9.381   3.546 -0.4734  0.5000  0.4033
   53MOL0     C 6928   3.091   9.441   3.553  0.6093 -0.5460 -0.6509
   53MOL0     C 6929   2.427   9.000   3.975 -0.3892 -0.6687 -0.0344
   53MOL0     C 6930   2.375   8.975   4.101  1.3877  0.0276  0.6311
   53MOL0     H 6931   1.931   9.167   4.396 -0.9679 -1.6858  0.4265
   53MOL0     H 6932   1.806   9.133   4.614  0.5623 -0.9461  0.7477
   53MOL0     H 6933   2.025   9.185   5.007  0.7927 -0.4930 -0.5254
   53MOL0     H 6934   2.010   9.016   4.954  1.5184  0.6747  1.0313
   53MOL0     H 6935   1.782   9.168   5.097  3.0378  1.3564 -0.7943
   53MOL0     H 6936   1.880   9.028   5.152  1.1686  1.6237 -0.2405
   53MOL0     H 6937   1.803   8.888   4.986  3.6658  1.5972  0.3319
   53MOL0     H 6938   1.713   9.012   4.898 -2.0055 -0.1689  0.2782
   53MOL0     H 6939   1.652   8.922   5.190 -1.2904  1.7477  1.5580
   53MOL0     H 6940   1.577   9.058   5.102  0.3266  0.2474 -1.3489
   53MOL0     H 6941   1.524   8.882   4.913  0.5214 -1.5873 -0.2766
   53MOL0     H 6942   1.430   8.900   5.063  1.1928 -0.0277 -0.4635
   53MOL0     H 6943   1.533   8.700   5.148  1.1829  2.5183  1.4603
   53MOL0     H 6944   1.636   8.673   5.011 -0.9345 -0.9869  0.6073
   53MOL0     H 6945   1.438   8.656   4.853 -0.1519  1.8163 -0.5792
   53MOL0     H 6946   1.463   8.531   4.976  0.3733  0.0110  2.2430
   53MOL0     H 6947   1.260   8.758   4.978 -1.2913 -1.7972 -0.8401
   53MOL0     H 6948   1.297   8.662   5.128 -1.4276 -3.9722  0.4200
   53MOL0     H 6949   1.255   8.384   5.110 -1.8582 -0.4643  1.2138
   53MOL0     H 6950   1.179   8.183   4.999  0.2481  0.5423 -2.1475
   53MOL0     H 6951   1.084   8.189   4.854 -0.1877  0.9696 -0.7753
   53MOL0     H 6952   0.871   8.186   4.985 -1.0361 -1.1259  1.4287
   53MOL0     H 6953   0.967   8.217   5.143 -1.8420  0.6106 -0.3262
   53MOL0     H 6954   1.011   7.963   4.981  1.6658 -0.9249  1.5944
   53MOL0     H 6955   1.037   8.000   5.154  0.8603  0.8112 -1.1254
   53MOL0     H 6956   0.844   7.851   5.143 -1.4585 -0.5548 -0.2103
   53MOL0     H 6957   0.759   7.978   5.055 -0.4273  0.2150  0.4578
   53MOL0     H 6958   0.635   7.812   5.178  1.1122  1.3782 -1.1405
   53MOL0     H 6959   0.404   7.785   5.264 -1.8241  1.7525 -0.4096
   53MOL0     H 6960   0.113   7.760   5.660 -0.4529 -0.3500  0.3241
   53MOL0     H 6961  -0.114   7.769   5.731  2.9069  1.8520  0.3958
   53MOL0     H 6962  -0.372   7.995   5.649  1.6877 -0.8201 -1.7088
   53MOL0     H 6963  -0.337   7.859   5.762 -1.1615 -0.6619  0.3916
   53MOL0     H 6964  -0.582   7.885   5.587  0.8240 -1.4064 -0.7720
   53MOL0     H 6965  -0.599   7.959   5.750 -0.4671 -0.0013 -2.0647
   53MOL0     H 6966  -0.521   7.671   5.733 -1.6787 -0.6379 -3.2113
   53MOL0     H 6967  -0.693   7.724   5.726  0.9134 -0.0837 -2.4151
   53MOL0     H 6968  -0.501   7.797   5.960 -0.3215  2.1307  0.1885
   53MOL0     H 6969  -0.673   7.845   5.936  1.5835  1.6362 -1.5762
   53MOL0     H 6970  -0.572   7.561   5.964 -0.7251 -0.7983 -2.2010
   53MOL0     H 6971  -0.741   7.608   5.940  0.6012 -0.2361 -2.4534
   53MOL0     H 6972  -0.752   7.758   6.139  0.6727  0.3474  0.6450
   53MOL0     H 6973  -0.579   7.725   6.158  0.4593 -0.0800  0.6783
   53MOL0     H 6974  -0.707   7.607   6.321  1.8694  3.2754 -0.8292
   53MOL0     H 6975  -0.784   7.504   6.195 -0.3420 -0.4701  3.3539
   53MOL0     H 6976  -0.482   7.517   6.208  1.1919 -0.8707 -0.9815
   53MOL0     H 6977  -0.580   7.408   6.117  1.2459  2.0556 -1.0194
   53MOL0     H 6978  -0.254   7.854   5.330 -2.3430 -0.2078  1.8223
   53MOL0     H 6979   0.003   7.849   5.264  2.8001 -0.7402 -0.2161
   53MOL0     H 6980   0.442   8.162   5.473 -2.3430  1.9267 -3.5534
   53MOL0     H 6981   0.658   8.188   5.391 -0.2150 -0.3796  0.5397
   53MOL0     H 6982   2.173   9.140   4.832 -0.6232 -2.7047  0.2547
   53MOL0     H 6983   2.296   9.141   4.606 -0.8157 -0.1995  1.1760
   53MOL0     H 6984   2.271   9.301   4.170 -1.1896 -0.5149  0.6541
   53MOL0     H 6985   2.389   9.340   3.979 -0.5670  1.2383  1.7697
   53MOL0     H 6986   2.673   9.188   3.831 -0.3861  1.3394  0.6545
   53MOL0     H 6987   2.567   9.333   3.840  0.1933 -0.6736  1.8646
   53MOL0     H 6988   2.648   9.184   3.579 -0.5271 -1.3027  1.0296
   53MOL0     H 6989   2.545   9.331   3.583 -0.9897  1.1882  1.0167
   53MOL0     H 6990   2.796   9.365   3.733  0.3951  0.8363 -0.4740
   53MOL0     H 6991   2.725   9.472   3.612  1.7666 -0.4450 -0.5770
   53MOL0     H 6992   2.884   9.212   3.559  1.4774  0.3138 -0.3403
   53MOL0     H 6993   2.821   9.309   3.435  1.7591 -1.0744 -1.2060
   53MOL0     H 6994   3.175   9.507   3.563 -0.2637  0.5065  0.0059
   53MOL0     H 6995   2.466   8.923   3.908 -2.4759 -5.7516  3.9550
   53MOL0     H 6996   2.384   8.877   4.145  0.3710 -0.1332  0.5013
   54MOL0     O 6997   0.192   6.742   5.682  0.0167  0.0301 -0.7669
   54MOL0     C 6998   0.256   6.646   5.729 -0.2025 -0.3132 -0.0899
   54MOL0     O 6999   0.245   6.524   5.676 -0.3518  0.6282 -0.5644
   54MOL0     C 7000   0.125   6.465   5.632 -1.0819  0.0124 -0.0814
   54MOL0     C 7001   0.006   6.486   5.697  0.5212 -0.0685  0.0842
   54MOL0     C 7002  -0.110   6.420   5.662  0.5127  0.2637 -0.8813
   54MOL0     C 7003  -0.111   6.337   5.549  1.8337 -0.3350  0.2106
   54MOL0     O 7004  -0.211   6.258   5.503  0.0162  0.4926  0.0824
   54MOL0     C 7005  -0.347   6.288   5.551  0.3325  0.2641  1.0966
   54MOL0     C 7006  -0.376   6.206   5.674 -0.4162  0.0563 -0.2503
   54MOL0     C 7007  -0.530   6.196   5.710 -0.5233  0.4007  0.0722
   54MOL0     C 7008  -0.603   6.333   5.722 -0.4223  0.9831  1.5339
   54MOL0     C 7009  -0.751   6.316   5.754 -0.8226  0.0651 -0.1056
   54MOL0     C 7010  -0.811   6.454   5.736 -0.2189 -0.8701 -0.3893
   54MOL0     C 7011  -0.965   6.421   5.715 -0.1771 -0.9772  0.5644
   54MOL0     C 7012  -1.048   6.547   5.683 -0.2835 -0.2243  0.0001
   54MOL0     N 7013  -1.197   6.536   5.688 -0.1731 -0.2496 -0.3930
   54MOL0     C 7014  -1.274   6.514   5.796 -0.4400 -0.1645  0.2009
   54MOL0     C 7015  -1.392   6.508   5.739  1.0883 -0.0329 -0.2345
   54MOL0     C 7016  -1.523   6.465   5.807  1.2890 -0.1924 -0.7754
   54MOL0     C 7017  -1.597   6.578   5.870  1.0667  0.5274  0.3650
   54MOL0     C 7018  -1.756   6.554   5.875 -0.6403  0.0839 -0.0325
   54MOL0     C 7019  -1.834   6.617   5.990 -0.2420 -0.1172 -0.5404
   54MOL0     O 7020  -1.854   6.760   5.960  0.2338  0.3411  0.5863
   54MOL0     C 7021  -1.893   6.840   6.066 -0.0316  0.8161 -0.4561
   54MOL0     C 7022  -1.886   6.976   6.056 -0.7763 -0.2255 -0.3326
   54MOL0     C 7023  -1.927   7.064   6.154 -0.1680 -0.4480 -0.7535
   54MOL0     C 7024  -1.972   7.016   6.276  0.1854 -0.4730  0.2225
   54MOL0     C 7025  -2.005   7.104   6.387  0.0775 -0.1915 -0.4946
   54MOL0     O 7026  -2.015   7.245   6.373  0.1893  0.0816  0.1364
   54MOL0     C 7027  -2.035   7.325   6.480 -0.2971 -0.1288 -0.0056
   54MOL0     C 7028  -2.155   7.341   6.537  0.7978 -0.7169 -0.3395
   54MOL0     C 7029  -2.168   7.441   6.645 -0.3785  0.6119 -0.4572
   54MOL0     C 7030  -2.055   7.501   6.689 -0.0837  0.1967 -0.5726
   54MOL0     O 7031  -2.066   7.582   6.793 -0.0509  0.8139 -0.5886
   54MOL0     C 7032  -1.956   7.664   6.834  0.1774  0.0785  0.0482
   54MOL0     C 7033  -1.999   7.752   6.954 -0.4774  0.0749 -0.7044
   54MOL0     C 7034  -2.068   7.668   7.065 -0.6217  0.2735  1.0023
   54MOL0     C 7035  -2.069   7.749   7.186  0.0892 -0.8198  0.7344
   54MOL0     C 7036  -2.121   7.663   7.299  0.7535 -0.1033 -0.2921
   54MOL0     C 7037  -2.272   7.673   7.315 -0.1639 -0.4061  0.9601
   54MOL0     C 7038  -2.325   7.571   7.409 -0.4894  0.0828  0.3963
   54MOL0     C 7039  -2.473   7.592   7.452 -0.3704 -0.0955  0.0372
   54MOL0    Cl 7040  -2.573   7.630   7.299  0.0450 -0.1294 -0.4159
   54MOL0     C 7041  -1.933   7.466   6.641 -0.5236  0.5051 -0.4178
   54MOL0     C 7042  -1.920   7.379   6.534 -0.3186 -1.1742  0.4294
   54MOL0     O 7043  -2.020   7.046   6.496  0.3447  0.2870 -0.2957
   54MOL0     C 7044  -1.962   6.878   6.296  0.0815  0.7295  0.0004
   54MOL0     C 7045  -1.932   6.789   6.191 -0.4487  0.0340 -0.2107
   54MOL0     N 7046  -1.394   6.534   5.607 -0.8323  0.0800 -0.3488
   54MOL0     N 7047  -1.273   6.564   5.579 -0.0838  0.6140 -0.2206
   54MOL0     C 7048   0.003   6.317   5.478 -0.9178 -0.8841 -0.2420
   54MOL0     C 7049   0.127   6.385   5.519  0.3574  0.5592  0.8048
   54MOL0     C 7050   0.352   6.665   5.835  0.3021 -0.2384 -0.6942
   54MOL0     C 7051   0.437   6.559   5.889  0.0407 -0.0952  0.0281
   54MOL0     C 7052   0.538   6.593   5.976 -0.3939 -0.3206 -0.5878
   54MOL0     C 7053   0.536   6.711   6.042  0.3097  0.9368  0.0510
   54MOL0     O 7054   0.633   6.721   6.146  0.0935  0.0874 -0.1191
   54MOL0     C 7055   0.630   6.824   6.243 -0.4897  1.0071  0.1433
   54MOL0     C 7056   0.515   6.821   6.338 -0.1415  0.3216 -0.3911
   54MOL0     C 7057   0.476   6.676   6.378 -0.6348  0.2863  0.2097
   54MOL0     C 7058   0.551   6.626   6.514 -0.5281 -0.4756  0.6408
   54MOL0     C 7059   0.697   6.606   6.497  0.4773 -0.7937  0.5302
   54MOL0     C 7060   0.811   6.570   6.489 -0.1314  0.8130 -0.4966
   54MOL0     C 7061   0.453   6.810   6.006  1.0056 -0.3985 -1.0182
   54MOL0     C 7062   0.360   6.790   5.903 -0.6557 -0.6118 -0.3639
   54MOL0     H 7063  -0.004   6.561   5.775  1.7015 -1.6185  1.8458
   54MOL0     H 7064  -0.202   6.439   5.716  0.4196  0.9427 -1.2651
   54MOL0     H 7065  -0.409   6.257   5.467  1.3256  0.1561  0.3917
   54MOL0     H 7066  -0.350   6.396   5.568 -0.2101  0.4834 -0.3002
   54MOL0     H 7067  -0.313   6.231   5.760 -2.0999  0.9341  0.7666
   54MOL0     H 7068  -0.357   6.099   5.656  0.0527  0.2395 -0.8716
   54MOL0     H 7069  -0.551   6.156   5.809 -0.2804  1.2135  0.4589
   54MOL0     H 7070  -0.571   6.132   5.631 -1.7682  0.1644  0.8810
   54MOL0     H 7071  -0.553   6.394   5.798  3.3781  0.5288 -0.3681
   54MOL0     H 7072  -0.588   6.378   5.624 -2.1353 -0.2906  0.6369
   54MOL0     H 7073  -0.769   6.285   5.858  1.0504 -0.8741 -0.0208
   54MOL0     H 7074  -0.789   6.245   5.680  0.6790  2.8076 -3.8402
   54MOL0     H 7075  -0.773   6.494   5.641  1.6727 -1.3023  0.1504
   54MOL0     H 7076  -0.791   6.523   5.819 -0.8715 -1.1179 -0.0190
   54MOL0     H 7077  -0.976   6.355   5.628 -0.6115 -1.8374  1.2455
   54MOL0     H 7078  -1.014   6.383   5.805  2.6229 -2.0589  1.7557
   54MOL0     H 7079  -1.013   6.594   5.591 -1.7404  4.0188  1.3932
   54MOL0     H 7080  -1.030   6.622   5.760 -0.1747 -1.9944  1.7882
   54MOL0     H 7081  -1.239   6.498   5.898  1.0379 -0.6820 -0.3580
   54MOL0     H 7082  -1.517   6.381   5.877 -0.2100 -0.0065 -0.3959
   54MOL0     H 7083  -1.584   6.432   5.722  0.3508  1.9393 -0.9941
   54MOL0     H 7084  -1.559   6.661   5.810  1.2956 -1.7847 -2.9281
   54MOL0     H 7085  -1.571   6.579   5.977  0.2334  1.4660  0.5709
   54MOL0     H 7086  -1.795   6.594   5.781 -0.7259  0.1901  0.0471
   54MOL0     H 7087  -1.773   6.446   5.883 -2.6565  0.3121 -0.5722
   54MOL0     H 7088  -1.773   6.609   6.080  1.4679  2.2628 -1.3548
   54MOL0     H 7089  -1.927   6.567   6.015  0.4666 -1.2564 -0.1466
   54MOL0     H 7090  -1.857   7.018   5.961 -0.7872  1.0893  0.2258
   54MOL0     H 7091  -1.935   7.171   6.135  1.6476 -0.2565 -0.6609
   54MOL0     H 7092  -2.242   7.285   6.504  1.1502 -1.1486 -0.5416
   54MOL0     H 7093  -2.268   7.459   6.682 -0.7484  0.2581 -1.2458
   54MOL0     H 7094  -1.935   7.725   6.746  0.4518  1.4798  1.0467
   54MOL0     H 7095  -1.872   7.600   6.864 -1.7469 -1.0379  3.6607
   54MOL0     H 7096  -2.072   7.828   6.924 -1.3817 -0.1883  0.7321
   54MOL0     H 7097  -1.911   7.803   6.996 -0.0667 -1.0375 -0.1725
   54MOL0     H 7098  -2.025   7.569   7.081 -3.5226 -1.5114 -1.2026
   54MOL0     H 7099  -2.173   7.658   7.035 -0.5199  2.4967 -0.2809
   54MOL0     H 7100  -1.969   7.785   7.211  0.2594 -0.9278  0.2162
   54MOL0     H 7101  -2.135   7.836   7.173  0.9870 -0.3740 -1.0202
   54MOL0     H 7102  -2.075   7.703   7.390 -2.7023  1.9813  0.7155
   54MOL0     H 7103  -2.098   7.558   7.281  0.4032 -0.5801  1.7928
   54MOL0     H 7104  -2.318   7.663   7.216 -1.0838 -0.1492  1.3532
   54MOL0     H 7105  -2.290   7.775   7.350  0.2731  0.8494 -2.1437
   54MOL0     H 7106  -2.309   7.472   7.365 -1.8173  0.1501 -0.2653
   54MOL0     H 7107  -2.269   7.584   7.502  1.4735 -2.2954 -0.3443
   54MOL0     H 7108  -2.477   7.673   7.526  4.7127  0.5363  0.0211
   54MOL0     H 7109  -2.505   7.492   7.481 -6.2441  1.3568 -0.3272
   54MOL0     H 7110  -1.838   7.510   6.669  0.6794 -2.0811 -0.1547
   54MOL0     H 7111  -1.822   7.358   6.493  1.0579  0.4184  2.6296
   54MOL0     H 7112  -1.995   6.829   6.388 -0.3895 -1.6202 -1.3352
   54MOL0     H 7113  -1.946   6.682   6.204 -2.5560  0.4972  2.0441
   54MOL0     H 7114   0.003   6.254   5.389 -0.1085  0.0814 -0.9492
   54MOL0     H 7115   0.223   6.366   5.472  1.6921  2.7115  2.4816
   54MOL0     H 7116   0.444   6.468   5.831 -2.0795 -0.1423 -0.2308
   54MOL0     H 7117   0.623   6.526   5.990 -1.4185 -1.4135  0.8175
   54MOL0     H 7118   0.651   6.913   6.183  1.2991  0.6162  0.1185
   54MOL0     H 7119   0.710   6.802   6.314  0.9872  0.2696 -1.6344
   54MOL0     H 7120   0.538   6.883   6.425  0.4965  0.8191 -0.9051
   54MOL0     H 7121   0.433   6.876   6.291 -0.7687  0.4840  0.8545
   54MOL0     H 7122   0.498   6.599   6.303  1.8214 -1.3851  2.4683
   54MOL0     H 7123   0.368   6.671   6.397 -0.4294 -0.2481  1.3305
   54MOL0     H 7124   0.524   6.691   6.598 -1.1179  0.0023  0.0887
   54MOL0     H 7125   0.507   6.528   6.537 -0.0552 -1.0161 -0.6554
   54MOL0     H 7126   0.915   6.550   6.478  0.5863  3.9897 -0.4855
   54MOL0     H 7127   0.461   6.905   6.059 -1.4797 -0.4644 -0.4184
   54MOL0     H 7128   0.320   6.878   5.854  4.0544  1.6589 -0.6877
   55MOL0     O 7129   1.469   1.535   1.905 -0.3846  0.0042  0.5319
   55MOL0     C 7130   1.416   1.429   1.905 -0.2477 -0.0730  0.1949
   55MOL0     O 7131   1.487   1.317   1.904 -0.1895  0.3119  0.2236
   55MOL0     C 7132   1.618   1.317   1.933 -0.5303  0.0981 -0.0074
   55MOL0     C 7133   1.716   1.405   1.877  0.0198 -1.0338 -0.1282
   55MOL0     C 7134   1.850   1.397   1.914  1.5686 -0.3222  0.6939
   55MOL0     C 7135   1.895   1.284   1.996  0.2391  0.6046  0.4477
   55MOL0     O 7136   2.024   1.275   2.022  0.4378  0.6640 -0.5802
   55MOL0     C 7137   2.098   1.225   1.917 -0.3584 -0.1628  0.2087
   55MOL0     C 7138   2.246   1.189   1.963  0.4193 -0.2691  0.1688
   55MOL0     C 7139   2.344   1.180   1.848 -0.5206  0.2331  0.7470
   55MOL0     C 7140   2.484   1.161   1.911  0.3858  0.1992  0.0901
   55MOL0     C 7141   2.589   1.168   1.799 -0.2132 -0.3908  0.3811
   55MOL0     C 7142   2.728   1.131   1.863  0.5016  0.3292 -0.9770
   55MOL0     C 7143   2.832   1.087   1.768  0.2403 -0.5616  0.3329
   55MOL0     C 7144   2.964   1.040   1.835  0.4473  0.2220 -0.1416
   55MOL0     N 7145   2.934   0.905   1.880  0.0120  0.3347  0.4611
   55MOL0     C 7146   2.920   0.802   1.787 -0.7938 -0.5469 -0.2815
   55MOL0     C 7147   2.920   0.693   1.856 -0.0400  0.0610  0.2881
   55MOL0     C 7148   2.910   0.552   1.804 -0.0816  0.4045  0.3156
   55MOL0     C 7149   3.049   0.488   1.777  0.0691 -0.3343  0.5066
   55MOL0     C 7150   3.135   0.464   1.904  0.4398  0.3370  0.8668
   55MOL0     C 7151   3.064   0.400   2.017  0.3031  0.2809 -0.4316
   55MOL0     O 7152   2.981   0.285   1.976 -0.0747  0.5822 -0.6225
   55MOL0     C 7153   2.851   0.266   2.021 -0.0717 -1.0107 -0.5726
   55MOL0     C 7154   2.790   0.325   2.136  0.6979  0.3211 -0.5651
   55MOL0     C 7155   2.650   0.306   2.171 -0.1360 -0.1725  0.0173
   55MOL0     C 7156   2.572   0.230   2.079  0.1538 -0.1177  0.9065
   55MOL0     C 7157   2.426   0.226   2.105  0.3347 -0.3567 -0.1977
   55MOL0     O 7158   2.371   0.318   2.199 -0.6387  1.0846 -0.5720
   55MOL0     C 7159   2.229   0.307   2.224 -1.0745 -0.3981  0.2761
   55MOL0     C 7160   2.153   0.416   2.172 -0.2322 -0.2387 -0.1719
   55MOL0     C 7161   2.007   0.400   2.174 -0.1106 -0.6836 -1.0337
   55MOL0     C 7162   1.944   0.289   2.234 -0.3458 -0.3224  0.2429
   55MOL0     O 7163   1.811   0.267   2.256  0.0992  0.2709  0.2271
   55MOL0     C 7164   1.720   0.372   2.235 -0.0354  0.2032 -0.7220
   55MOL0     C 7165   1.588   0.353   2.310  1.0366  0.1247 -0.0908
   55MOL0     C 7166   1.479   0.456   2.248  0.3870 -0.5339  0.5199
   55MOL0     C 7167   1.348   0.441   2.322 -0.2254 -0.1086 -0.3105
   55MOL0     C 7168   1.249   0.554   2.277  0.1805  0.6634  0.0978
   55MOL0     C 7169   1.121   0.535   2.368  0.7398  0.2959  0.7964
   55MOL0     C 7170   1.014   0.634   2.298  0.5567 -0.1397  1.3843
   55MOL0     C 7171   0.873   0.619   2.346  0.1713  0.8016 -0.5654
   55MOL0    Cl 7172   0.864   0.642   2.515 -0.1293 -0.4586  0.4592
   55MOL0     C 7173   2.029   0.201   2.301 -0.0369  0.0429 -0.4333
   55MOL0     C 7174   2.168   0.201   2.288  0.3926  1.0141  0.2749
   55MOL0     O 7175   2.358   0.144   2.040  0.0026 -0.1123 -0.8044
   55MOL0     C 7176   2.627   0.163   1.970 -1.1984 -0.5190  0.1994
   55MOL0     C 7177   2.767   0.186   1.945 -0.3065 -0.0039 -0.2745
   55MOL0     N 7178   2.933   0.724   1.994  0.4934  0.2620 -0.1828
   55MOL0     N 7179   2.945   0.850   2.003 -0.3891  0.8201 -0.5084
   55MOL0     C 7180   1.801   1.195   2.047  0.7198  0.2572  0.9096
   55MOL0     C 7181   1.667   1.214   2.014 -0.3504  0.2428 -0.1274
   55MOL0     C 7182   1.269   1.415   1.926  0.2058 -0.0048  1.5964
   55MOL0     C 7183   1.199   1.534   1.911  0.0963  0.5187  0.6899
   55MOL0     C 7184   1.057   1.529   1.923 -0.6958 -0.2299  0.1563
   55MOL0     C 7185   0.994   1.411   1.947  0.1324  1.1968  0.0108
   55MOL0     O 7186   0.855   1.394   1.947 -0.1608  0.2289 -0.0927
   55MOL0     C 7187   0.767   1.504   1.977  0.5616 -0.3085 -0.6262
   55MOL0     C 7188   0.674   1.523   1.858 -0.0260  0.1300 -0.4025
   55MOL0     C 7189   0.564   1.417   1.834  0.1105  0.3188 -0.7135
   55MOL0     C 7190   0.455   1.461   1.738  0.1590 -0.0690 -0.0853
   55MOL0     C 7191   0.352   1.353   1.725 -0.5501 -1.1624 -0.1789
   55MOL0     C 7192   0.287   1.252   1.712 -0.0402  0.4148 -0.5611
   55MOL0     C 7193   1.068   1.291   1.969  0.0957  0.0794 -0.1712
   55MOL0     C 7194   1.207   1.297   1.966  0.3526  0.2497 -0.0340
   55MOL0     H 7195   1.680   1.485   1.814 -1.6820  0.1518  2.1567
   55MOL0     H 7196   1.920   1.477   1.890 -0.2003  1.0197 -0.1538
   55MOL0     H 7197   2.097   1.299   1.837  1.5805  1.2883  1.4240
   55MOL0     H 7198   2.056   1.131   1.881  1.4714 -1.8608  2.2108
   55MOL0     H 7199   2.243   1.095   2.019 -1.5492  0.6262  1.6924
   55MOL0     H 7200   2.293   1.264   2.028  1.6918  1.9603 -3.0883
   55MOL0     H 7201   2.342   1.271   1.788  0.2342  0.5036  1.1167
   55MOL0     H 7202   2.335   1.089   1.788  2.2661  0.2765  0.1336
   55MOL0     H 7203   2.512   1.234   1.986  0.2208  2.5653 -2.0079
   55MOL0     H 7204   2.472   1.060   1.952 -0.8401 -0.4079 -1.5995
   55MOL0     H 7205   2.588   1.271   1.763 -4.3054 -0.7089 -0.9681
   55MOL0     H 7206   2.560   1.104   1.715 -0.6215 -1.9708  1.6649
   55MOL0     H 7207   2.714   1.045   1.930 -2.3356 -0.2436 -2.1317
   55MOL0     H 7208   2.774   1.213   1.918  0.3907  0.3816 -0.9611
   55MOL0     H 7209   2.776   1.008   1.716 -4.2984 -0.0795  3.9440
   55MOL0     H 7210   2.853   1.172   1.702 -1.3964 -0.6511 -0.3411
   55MOL0     H 7211   2.995   1.108   1.914  0.8411  0.2286 -0.2995
   55MOL0     H 7212   3.052   1.036   1.770  1.1098  0.3819  0.7262
   55MOL0     H 7213   2.902   0.817   1.681  1.6699  1.3540 -0.5207
   55MOL0     H 7214   2.853   0.557   1.710 -2.0558 -1.6375  1.3082
   55MOL0     H 7215   2.857   0.489   1.876 -0.4036 -0.2783 -0.4869
   55MOL0     H 7216   3.110   0.537   1.700  0.9812 -1.7086  0.3363
   55MOL0     H 7217   3.017   0.397   1.725 -2.9911  0.8319  0.1172
   55MOL0     H 7218   3.212   0.395   1.869  0.9151  1.0467  0.5042
   55MOL0     H 7219   3.166   0.561   1.943 -0.3261 -0.8732  5.0050
   55MOL0     H 7220   2.989   0.471   2.054 -2.0485 -1.2784 -1.9641
   55MOL0     H 7221   3.139   0.371   2.092 -0.6886  0.8724  0.8210
   55MOL0     H 7222   2.836   0.386   2.214  0.0600 -1.2577  1.1286
   55MOL0     H 7223   2.618   0.372   2.251  0.4637  0.7874 -0.5169
   55MOL0     H 7224   2.209   0.494   2.119  0.0670  0.7623  1.5277
   55MOL0     H 7225   1.938   0.468   2.124  0.8683 -0.2832 -1.8514
   55MOL0     H 7226   1.694   0.392   2.131 -0.3649 -0.1688 -0.7131
   55MOL0     H 7227   1.765   0.462   2.280 -1.4776 -1.1622  4.0098
   55MOL0     H 7228   1.614   0.379   2.413 -1.1518  1.2408  0.2379
   55MOL0     H 7229   1.546   0.253   2.299 -2.7442  1.5497  0.0340
   55MOL0     H 7230   1.472   0.429   2.142 -2.2589  1.5590  0.0708
   55MOL0     H 7231   1.513   0.559   2.263  1.8036 -0.0995 -4.0746
   55MOL0     H 7232   1.306   0.343   2.295 -0.1558 -0.4723  0.8535
   55MOL0     H 7233   1.357   0.449   2.430  0.5046  1.2556 -0.4505
   55MOL0     H 7234   1.231   0.549   2.170  1.4587 -1.1339 -0.0850
   55MOL0     H 7235   1.297   0.649   2.304  1.5009  1.1665 -3.5033
   55MOL0     H 7236   1.144   0.563   2.471  2.1061 -1.9164  1.1693
   55MOL0     H 7237   1.087   0.431   2.367  2.0357 -0.1545  0.4415
   55MOL0     H 7238   1.038   0.737   2.327 -0.8877  0.9288 -0.9598
   55MOL0     H 7239   1.024   0.644   2.190  0.7952 -1.2652  1.2966
   55MOL0     H 7240   0.833   0.519   2.327  0.4104  0.2716  1.4990
   55MOL0     H 7241   0.802   0.690   2.304  0.4215  2.1930  1.2281
   55MOL0     H 7242   1.983   0.112   2.342  0.1696 -0.7024 -1.7470
   55MOL0     H 7243   2.223   0.119   2.333 -0.1792  0.8582  0.6972
   55MOL0     H 7244   2.555   0.113   1.907 -0.6683  0.2415 -1.0426
   55MOL0     H 7245   2.819   0.138   1.863  3.0985  0.3778  1.5030
   55MOL0     H 7246   1.833   1.111   2.106  0.9414 -1.1988 -1.1705
   55MOL0     H 7247   1.580   1.155   2.040 -1.8581  0.8240 -3.3676
   55MOL0     H 7248   1.242   1.632   1.893  0.6276  1.4548  5.7713
   55MOL0     H 7249   1.008   1.623   1.897  1.8950  0.8317 -1.3043
   55MOL0     H 7250   0.813   1.603   1.990  0.3818 -0.3287  0.2021
   55MOL0     H 7251   0.708   1.478   2.065  1.3954 -0.1357 -0.0042
   55MOL0     H 7252   0.626   1.615   1.895  1.0403  1.0484 -1.2333
   55MOL0     H 7253   0.727   1.554   1.768  1.3702 -2.0677 -0.4149
   55MOL0     H 7254   0.532   1.409   1.938  1.4188 -0.2401 -0.3315
   55MOL0     H 7255   0.614   1.321   1.817 -2.0898 -1.9723  3.9130
   55MOL0     H 7256   0.392   1.539   1.781 -1.5829 -1.8378  0.7123
   55MOL0     H 7257   0.499   1.495   1.644 -2.3531  1.0209 -0.9317
   55MOL0     H 7258   0.220   1.169   1.703 -1.3829  1.2061  1.4406
   55MOL0     H 7259   1.011   1.200   1.983 -1.6036  1.0908 -0.2503
   55MOL0     H 7260   1.270   1.211   1.988 -0.6374 -0.3091  0.7074
   56MOL0     O 7261   6.818   7.955   8.158  0.1056 -0.3828 -0.1720
   56MOL0     C 7262   6.826   7.983   8.039 -0.8200  0.9033  0.5450
   56MOL0     O 7263   6.713   8.015   7.961  0.1167 -0.0795  0.4600
   56MOL0     C 7264   6.587   7.987   8.001  0.1953  0.4824  0.3194
   56MOL0     C 7265   6.550   7.879   8.079 -0.5300 -0.0347  1.1227
   56MOL0     C 7266   6.420   7.868   8.136  0.9564  0.6707  0.1907
   56MOL0     C 7267   6.324   7.951   8.085  0.4807  0.0352 -0.0426
   56MOL0     O 7268   6.193   7.923   8.129 -0.9601 -0.2955  0.7782
   56MOL0     C 7269   6.081   7.994   8.070 -0.2376 -0.1475 -0.4871
   56MOL0     C 7270   5.955   7.964   8.151  0.0203  0.7937  0.3006
   56MOL0     C 7271   5.872   7.844   8.096 -0.6367  0.7575 -0.6959
   56MOL0     C 7272   5.760   7.803   8.190  0.4264  0.1446  0.7475
   56MOL0     C 7273   5.646   7.907   8.179  0.3738 -0.3038  0.7066
   56MOL0     C 7274   5.572   7.875   8.045  0.8242  1.2330  0.5074
   56MOL0     C 7275   5.437   7.954   8.047 -0.4400  0.1211 -0.6186
   56MOL0     C 7276   5.354   7.942   7.919  0.1725  0.4626  0.6573
   56MOL0     N 7277   5.334   7.792   7.876 -0.0029 -0.6518 -0.7972
   56MOL0     C 7278   5.254   7.709   7.954 -0.7131  0.1581 -0.2981
   56MOL0     C 7279   5.245   7.590   7.888  0.5541  0.0982 -0.1305
   56MOL0     C 7280   5.185   7.462   7.926 -0.0402 -0.4670 -0.5465
   56MOL0     C 7281   5.036   7.456   7.937 -0.7668  0.4079 -0.2516
   56MOL0     C 7282   4.960   7.426   7.797 -0.1499 -0.6852 -0.9937
   56MOL0     C 7283   4.815   7.429   7.808  0.3041 -0.9101  0.0434
   56MOL0     O 7284   4.770   7.323   7.891 -0.2096  0.0674 -0.3609
   56MOL0     C 7285   4.637   7.317   7.910  0.6570 -0.2266  0.5685
   56MOL0     C 7286   4.566   7.203   7.867 -0.0415 -0.1007  0.3166
   56MOL0     C 7287   4.426   7.203   7.869  0.1436 -0.5875 -0.0442
   56MOL0     C 7288   4.351   7.307   7.929 -0.1101  0.6161 -0.5690
   56MOL0     C 7289   4.207   7.293   7.945  0.2115 -1.0291 -0.0891
   56MOL0     O 7290   4.135   7.222   7.850  0.3214  0.4090  0.6371
   56MOL0     C 7291   4.002   7.212   7.869 -0.6187 -0.3030 -0.7988
   56MOL0     C 7292   3.953   7.124   7.970  0.0281  0.1247 -0.4128
   56MOL0     C 7293   3.815   7.111   8.007  0.2099 -0.7309  0.4568
   56MOL0     C 7294   3.728   7.180   7.921 -0.9720  0.7831  0.7206
   56MOL0     O 7295   3.598   7.148   7.943  0.2705  0.1299 -0.4651
   56MOL0     C 7296   3.509   7.244   7.883 -0.3024 -0.0737 -0.5197
   56MOL0     C 7297   3.376   7.229   7.947  0.1152  0.0838  0.2485
   56MOL0     C 7298   3.283   7.130   7.878  1.3272  0.4829 -0.6011
   56MOL0     C 7299   3.140   7.133   7.934  0.2519  0.8390 -0.6191
   56MOL0     C 7300   3.037   7.030   7.880  0.0908  1.1185  0.7853
   56MOL0     C 7301   2.911   7.045   7.952  0.2283 -0.4157 -0.5534
   56MOL0     C 7302   2.786   6.978   7.885 -0.4211  0.4654  0.6667
   56MOL0     C 7303   2.815   6.848   7.827  1.0453  0.2123 -0.5966
   56MOL0    Cl 7304   2.654   6.792   7.769 -0.3265 -0.2166  0.1073
   56MOL0     C 7305   3.779   7.259   7.806  0.2284  0.6985 -0.9974
   56MOL0     C 7306   3.912   7.274   7.785 -0.4264  0.4321 -0.2709
   56MOL0     O 7307   4.157   7.352   8.043 -0.0618 -0.6702 -0.2186
   56MOL0     C 7308   4.427   7.419   7.979 -0.2318  0.7240  0.5332
   56MOL0     C 7309   4.563   7.421   7.968 -1.1183  0.4580  0.4499
   56MOL0     N 7310   5.317   7.603   7.773  0.0994  1.1424  0.0609
   56MOL0     N 7311   5.353   7.725   7.757  0.1320  0.2519 -0.6397
   56MOL0     C 7312   6.352   8.039   7.979  0.0315  0.1662 -0.3760
   56MOL0     C 7313   6.484   8.072   7.955 -0.5672 -0.3543  0.4105
   56MOL0     C 7314   6.965   7.991   7.996  0.2526  0.3757  0.8030
   56MOL0     C 7315   6.992   8.018   7.865 -0.6913  0.2721  0.5165
   56MOL0     C 7316   7.121   8.049   7.819  0.4789  0.3655 -0.2295
   56MOL0     C 7317   7.227   8.034   7.907 -0.3755 -0.0245  0.3088
   56MOL0     O 7318   7.357   8.056   7.863  0.5627  0.1516 -0.0185
   56MOL0     C 7319   7.378   8.029   7.717 -0.2742  0.4977 -0.2915
   56MOL0     C 7320   7.531   8.013   7.691  0.1474 -0.4189 -0.0796
   56MOL0     C 7321   7.611   8.142   7.729  0.4503  0.0788 -0.4395
   56MOL0     C 7322   7.769   8.119   7.691  0.5579 -0.7429  1.2392
   56MOL0     C 7323   7.847   8.105   7.804  0.2611  0.0496  0.3156
   56MOL0     C 7324   7.917   8.112   7.893 -0.0980  0.2190 -0.0600
   56MOL0     C 7325   7.199   8.005   8.038 -0.8287  0.8101 -0.8278
   56MOL0     C 7326   7.070   7.983   8.083 -0.2890 -0.7088  0.7194
   56MOL0     H 7327   6.627   7.807   8.107  1.3767  0.7352 -1.6740
   56MOL0     H 7328   6.393   7.793   8.210  1.7109 -0.9155 -1.0739
   56MOL0     H 7329   6.067   7.981   7.962  2.4373  1.1760 -1.0864
   56MOL0     H 7330   6.108   8.099   8.087 -0.0650 -0.2153 -0.3386
   56MOL0     H 7331   5.892   8.049   8.124 -0.0754  1.1193  1.5375
   56MOL0     H 7332   5.983   7.949   8.255  0.1967  3.6565  0.7399
   56MOL0     H 7333   5.936   7.756   8.086  1.9887  2.5960 -1.2143
   56MOL0     H 7334   5.834   7.880   8.001 -1.4140  0.4442 -0.5125
   56MOL0     H 7335   5.721   7.702   8.173  0.0627  0.4001  0.0319
   56MOL0     H 7336   5.791   7.802   8.295 -0.2276  0.3134  0.9474
   56MOL0     H 7337   5.685   8.009   8.178 -0.1444 -0.0857  1.6411
   56MOL0     H 7338   5.579   7.892   8.265  0.1836  1.9761  1.0069
   56MOL0     H 7339   5.546   7.770   8.035 -0.2915  1.1724  3.1597
   56MOL0     H 7340   5.628   7.904   7.955 -1.5508 -0.0885 -1.5368
   56MOL0     H 7341   5.379   7.908   8.127  1.3879 -1.5563 -0.1883
   56MOL0     H 7342   5.447   8.058   8.078 -1.0489 -0.4305  1.5563
   56MOL0     H 7343   5.403   7.988   7.833 -1.3229 -2.8608 -2.2072
   56MOL0     H 7344   5.253   7.983   7.925 -0.9135 -1.7067 -1.1477
   56MOL0     H 7345   5.206   7.731   8.048 -0.4412  1.1617 -0.3860
   56MOL0     H 7346   5.226   7.443   8.025 -0.8026  0.3455 -0.0552
   56MOL0     H 7347   5.220   7.388   7.854 -0.3032  0.9691 -2.2277
   56MOL0     H 7348   5.001   7.552   7.977 -0.8421  0.0891  0.4526
   56MOL0     H 7349   5.031   7.368   8.001 -1.4007  1.3838  1.1022
   56MOL0     H 7350   4.996   7.503   7.729 -3.1285  1.1680 -0.6154
   56MOL0     H 7351   4.982   7.329   7.751 -3.1515 -1.3170 -1.2666
   56MOL0     H 7352   4.782   7.407   7.706  3.8479  2.2947 -2.0578
   56MOL0     H 7353   4.779   7.531   7.825  2.1733 -0.3505  0.8687
   56MOL0     H 7354   4.620   7.117   7.827  3.4928  1.5975  1.0409
   56MOL0     H 7355   4.368   7.114   7.845 -0.8214 -0.3873  1.4526
   56MOL0     H 7356   4.034   7.070   8.017 -2.0079 -0.6737  2.4104
   56MOL0     H 7357   3.773   7.049   8.086 -1.8730 -2.8703 -2.1230
   56MOL0     H 7358   3.497   7.242   7.774  0.5790 -0.4396 -0.6227
   56MOL0     H 7359   3.539   7.345   7.910  1.9860 -0.7805 -0.1620
   56MOL0     H 7360   3.327   7.326   7.949 -0.3010 -0.1293  1.2757
   56MOL0     H 7361   3.398   7.193   8.049 -0.3019 -1.9576 -0.3233
   56MOL0     H 7362   3.320   7.027   7.889  1.8287  0.5085 -1.8139
   56MOL0     H 7363   3.283   7.160   7.773 -2.7567 -0.0108 -0.8761
   56MOL0     H 7364   3.144   7.131   8.044 -3.5853 -0.2971 -0.3535
   56MOL0     H 7365   3.104   7.230   7.899  0.4975  0.1350 -2.9682
   56MOL0     H 7366   3.066   6.925   7.879 -0.8979  0.8347 -0.4052
   56MOL0     H 7367   3.008   7.044   7.775 -1.0852 -1.0245  0.7802
   56MOL0     H 7368   2.898   7.153   7.961  0.9990 -0.3402 -0.3271
   56MOL0     H 7369   2.915   6.997   8.050  1.0493  0.5998 -0.0735
   56MOL0     H 7370   2.712   6.960   7.964 -0.1355  1.1474  1.0978
   56MOL0     H 7371   2.750   7.052   7.813  1.6416  1.5748  0.6996
   56MOL0     H 7372   2.865   6.788   7.902  0.5874  0.4091 -0.1202
   56MOL0     H 7373   2.879   6.850   7.739 -0.8461 -1.7390 -2.1409
   56MOL0     H 7374   3.714   7.314   7.738  1.6613  2.0271 -1.3555
   56MOL0     H 7375   3.938   7.330   7.695  2.3402 -0.7099 -0.2783
   56MOL0     H 7376   4.374   7.499   8.028  0.9011  1.2865  0.8804
   56MOL0     H 7377   4.601   7.514   8.008 -2.2346  2.2918 -2.4420
   56MOL0     H 7378   6.275   8.096   7.928  1.3109  1.2367 -1.1789
   56MOL0     H 7379   6.495   8.160   7.892 -3.3076 -1.1463 -1.3528
   56MOL0     H 7380   6.903   8.029   7.804  0.1997 -0.8663 -1.0532
   56MOL0     H 7381   7.131   8.082   7.716  2.3243 -0.5047 -0.3797
   56MOL0     H 7382   7.346   8.121   7.668 -4.0717 -1.3742 -1.7078
   56MOL0     H 7383   7.323   7.942   7.682  1.9608 -0.7730 -0.8058
   56MOL0     H 7384   7.573   7.930   7.748  1.2734  0.1216 -0.0892
   56MOL0     H 7385   7.549   7.994   7.585 -1.1248 -0.7223 -0.2537
   56MOL0     H 7386   7.588   8.167   7.833  2.3078  1.7991 -0.3772
   56MOL0     H 7387   7.577   8.234   7.680  2.6717  1.8437  1.1564
   56MOL0     H 7388   7.782   8.035   7.622  0.0022 -0.2898  0.5660
   56MOL0     H 7389   7.800   8.210   7.638  0.1316 -0.0341  2.1803
   56MOL0     H 7390   7.993   8.121   7.969 -2.2412 -0.3884  2.2887
   56MOL0     H 7391   7.277   7.997   8.113  0.3395 -0.8810 -2.1636
   56MOL0     H 7392   7.047   7.980   8.189  0.7132  2.3627  1.1222
   57MOL0     O 7393   1.019   8.440   9.493 -0.6992  0.2017  0.7148
   57MOL0     C 7394   1.076   8.445   9.388 -0.2529  0.0070  0.8399
   57MOL0     O 7395   1.021   8.416   9.264 -0.5271  0.2653 -0.2299
   57MOL0     C 7396   0.886   8.399   9.248 -0.8330  0.3398  0.2634
   57MOL0     C 7397   0.826   8.280   9.203  0.4837 -0.5180 -0.1359
   57MOL0     C 7398   0.689   8.256   9.209 -0.2136 -0.5642 -0.1024
   57MOL0     C 7399   0.608   8.364   9.253  0.6939 -0.0571  1.1379
   57MOL0     O 7400   0.472   8.360   9.245 -0.2500 -0.1829 -0.6368
   57MOL0     C 7401   0.409   8.235   9.261  0.4949 -0.2391  0.1630
   57MOL0     C 7402   0.260   8.255   9.294  0.1868  0.6965  0.4673
   57MOL0     C 7403   0.242   8.326   9.424 -0.1948 -0.3742  0.3386
   57MOL0     C 7404   0.104   8.284   9.482 -0.9597 -1.1607  0.1815
   57MOL0     C 7405   0.111   8.319   9.624  0.2479  0.4720 -0.5752
   57MOL0     C 7406  -0.015   8.266   9.694  0.1944  0.6397  0.7176
   57MOL0     C 7407  -0.139   8.352   9.650 -0.0735 -0.2499  0.1384
   57MOL0     C 7408  -0.252   8.360   9.754 -0.2285 -0.3572  0.1665
   57MOL0     N 7409  -0.371   8.424   9.704  0.3298  0.5003 -0.2491
   57MOL0     C 7410  -0.442   8.518   9.774  0.0316 -1.0681 -0.4883
   57MOL0     C 7411  -0.545   8.546   9.694  0.4756  0.4402  0.5346
   57MOL0     C 7412  -0.647   8.663   9.716 -0.7353  0.1682  0.0464
   57MOL0     C 7413  -0.788   8.610   9.739 -0.7613  0.3517  0.0719
   57MOL0     C 7414  -0.784   8.512   9.859  0.1869 -0.1799  0.2899
   57MOL0     C 7415  -0.930   8.498   9.907 -0.4669 -0.1154 -0.7217
   57MOL0     O 7416  -1.014   8.434   9.810 -0.3939  0.3215 -0.2859
   57MOL0     C 7417  -1.148   8.455   9.825  1.3733 -0.3406  0.2425
   57MOL0     C 7418  -1.213   8.547   9.916 -0.1760 -0.3089 -0.4117
   57MOL0     C 7419  -1.349   8.557   9.925  0.8243 -0.3166  0.0521
   57MOL0     C 7420  -1.434   8.455   9.860 -0.2307 -0.1791 -0.9575
   57MOL0     C 7421  -1.580   8.469   9.868 -0.2684 -0.3538 -0.0941
   57MOL0     O 7422  -1.635   8.587   9.901  0.1264 -0.1822 -0.3789
   57MOL0     C 7423  -1.769   8.602   9.935 -0.2192 -0.9512  0.7763
   57MOL0     C 7424  -1.810   8.733   9.958  0.4843  0.1416  0.1118
   57MOL0     C 7425  -1.944   8.769   9.990 -0.9207  1.1164  0.6355
   57MOL0     C 7426  -2.036   8.659  10.004  0.0075 -1.0683  0.3039
   57MOL0     O 7427  -2.165   8.683  10.033 -0.4224 -0.6993 -0.6910
   57MOL0     C 7428  -2.254   8.663   9.922  0.5311 -0.5390 -0.7950
   57MOL0     C 7429  -2.397   8.729   9.941 -0.0920 -0.0419  0.2265
   57MOL0     C 7430  -2.459   8.677  10.067  0.2890 -0.1759  0.2156
   57MOL0     C 7431  -2.607   8.732  10.088  0.9163  0.4230 -0.2004
   57MOL0     C 7432  -2.694   8.662  10.197  0.0684  0.4666  0.5041
   57MOL0     C 7433  -2.636   8.704  10.336  0.0448  0.0498 -0.2008
   57MOL0     C 7434  -2.725   8.690  10.452 -0.3070  0.3620 -0.8247
   57MOL0     C 7435  -2.801   8.816  10.488 -0.0729  1.0409  0.0205
   57MOL0    Cl 7436  -2.904   8.762  10.615  0.0269  0.1064  0.1026
   57MOL0     C 7437  -1.998   8.532   9.982 -0.7086 -0.4043 -0.3469
   57MOL0     C 7438  -1.870   8.504   9.937 -0.2052 -0.3127  0.3713
   57MOL0     O 7439  -1.630   8.357   9.865  0.2800  0.3917 -0.7951
   57MOL0     C 7440  -1.370   8.375   9.772 -0.2501  0.0203 -0.0864
   57MOL0     C 7441  -1.240   8.384   9.747 -1.6465 -0.0640 -0.7231
   57MOL0     N 7442  -0.536   8.463   9.582 -0.2830 -0.1695  0.1801
   57MOL0     N 7443  -0.428   8.390   9.585  0.5175 -0.5301 -0.7687
   57MOL0     C 7444   0.660   8.483   9.291 -0.1392  0.4413 -0.5326
   57MOL0     C 7445   0.799   8.498   9.285 -0.5992  0.4170  0.4822
   57MOL0     C 7446   1.228   8.444   9.382  0.3003 -0.7926 -0.6929
   57MOL0     C 7447   1.300   8.439   9.504  0.3174  0.4756 -0.9159
   57MOL0     C 7448   1.441   8.441   9.495 -0.0415 -0.1936  0.1688
   57MOL0     C 7449   1.509   8.439   9.372 -0.1463  0.2449  0.5993
   57MOL0     O 7450   1.650   8.430   9.364 -0.3963 -0.2969 -0.5481
   57MOL0     C 7451   1.719   8.508   9.257 -0.3219  1.0915 -0.5793
   57MOL0     C 7452   1.858   8.545   9.297 -1.2859  0.8298 -0.1390
   57MOL0     C 7453   1.962   8.428   9.301 -0.6550 -0.4008  0.3385
   57MOL0     C 7454   2.111   8.465   9.351 -0.1498  0.1230 -0.2035
   57MOL0     C 7455   2.171   8.537   9.235  0.0111  0.0910 -0.4251
   57MOL0     C 7456   2.207   8.598   9.136  0.4351  0.7171  0.5942
   57MOL0     C 7457   1.435   8.433   9.259  0.1234 -0.3632  0.3488
   57MOL0     C 7458   1.298   8.436   9.261  0.1628 -0.3794 -0.3085
   57MOL0     H 7459   0.896   8.202   9.174  1.5778  0.6920 -0.8906
   57MOL0     H 7460   0.650   8.159   9.180 -2.8900  0.1706  0.7626
   57MOL0     H 7461   0.447   8.166   9.337 -2.7011  0.3699  2.5352
   57MOL0     H 7462   0.411   8.192   9.161 -0.0933  0.5652 -0.2095
   57MOL0     H 7463   0.214   8.155   9.294  1.9630 -0.1996 -1.1579
   57MOL0     H 7464   0.204   8.310   9.218  2.2091  0.5018 -1.2638
   57MOL0     H 7465   0.257   8.434   9.433  2.0007 -0.4395 -1.7313
   57MOL0     H 7466   0.333   8.308   9.483  0.7839  1.2717 -0.5945
   57MOL0     H 7467   0.025   8.342   9.434  0.3756  1.8082  1.3272
   57MOL0     H 7468   0.087   8.176   9.474  0.2674 -1.5180  1.8525
   57MOL0     H 7469   0.112   8.428   9.623 -0.8329  0.5767  2.1095
   57MOL0     H 7470   0.206   8.279   9.662 -0.0328  2.0431  2.0021
   57MOL0     H 7471  -0.010   8.255   9.803  1.6377 -0.0136  0.6121
   57MOL0     H 7472  -0.027   8.170   9.642 -2.5228  2.0090 -1.4165
   57MOL0     H 7473  -0.114   8.456   9.628  1.0827 -0.4566  0.4252
   57MOL0     H 7474  -0.187   8.304   9.564 -0.9811 -0.6325  0.8367
   57MOL0     H 7475  -0.222   8.418   9.842 -3.0706  0.5883  0.6136
   57MOL0     H 7476  -0.272   8.261   9.795  0.8918 -0.9371 -0.6407
   57MOL0     H 7477  -0.419   8.560   9.871  0.3058 -0.5310 -0.7820
   57MOL0     H 7478  -0.658   8.711   9.618 -3.6245 -0.8917 -0.2329
   57MOL0     H 7479  -0.606   8.740   9.782  0.8703 -1.2502  0.7883
   57MOL0     H 7480  -0.820   8.550   9.654  3.9496 -0.3074 -1.5045
   57MOL0     H 7481  -0.844   8.703   9.754  0.6182  0.9381  1.9183
   57MOL0     H 7482  -0.742   8.416   9.829 -2.0560 -1.0221 -0.2836
   57MOL0     H 7483  -0.720   8.566   9.929  0.1690 -0.0162  0.1826
   57MOL0     H 7484  -0.964   8.599   9.934  2.3189  0.8628 -0.4393
   57MOL0     H 7485  -0.933   8.438   9.998 -1.4415  0.3228 -0.4566
   57MOL0     H 7486  -1.152   8.605   9.984 -1.4568 -1.2578  1.6197
   57MOL0     H 7487  -1.403   8.625   9.990 -0.4989  0.0232 -1.3485
   57MOL0     H 7488  -1.728   8.803   9.949  0.9218 -0.5677 -2.0962
   57MOL0     H 7489  -1.981   8.871   9.991 -2.6347  0.5933 -1.6719
   57MOL0     H 7490  -2.268   8.555   9.910 -2.4046 -0.5184  1.2805
   57MOL0     H 7491  -2.221   8.705   9.826 -3.3801  0.3404 -1.9461
   57MOL0     H 7492  -2.467   8.717   9.858 -1.2750  0.7807  1.0833
   57MOL0     H 7493  -2.387   8.837   9.948 -1.9701  0.2254 -0.6645
   57MOL0     H 7494  -2.407   8.709  10.157  0.8693 -0.1921 -0.1043
   57MOL0     H 7495  -2.479   8.570  10.055 -0.9187  0.1511 -0.9230
   57MOL0     H 7496  -2.598   8.838  10.112  0.1268  0.1890  1.2164
   57MOL0     H 7497  -2.660   8.725   9.992  0.8270 -0.3332 -0.1024
   57MOL0     H 7498  -2.692   8.554  10.183 -3.1315  0.5077 -1.3689
   57MOL0     H 7499  -2.800   8.684  10.181  0.2046  0.8338  0.0667
   57MOL0     H 7500  -2.598   8.806  10.328  0.6854 -0.1432  0.3328
   57MOL0     H 7501  -2.544   8.648  10.349  1.1721  1.5283 -1.4586
   57MOL0     H 7502  -2.791   8.605  10.435 -0.5860 -0.6157  3.9826
   57MOL0     H 7503  -2.662   8.674  10.539 -0.2263 -1.7530 -1.2311
   57MOL0     H 7504  -2.865   8.855  10.408 -1.4437 -1.1585 -0.0135
   57MOL0     H 7505  -2.726   8.890  10.517  0.7072  0.8357 -1.3715
   57MOL0     H 7506  -2.075   8.455   9.977 -0.5576 -0.5317 -0.7460
   57MOL0     H 7507  -1.849   8.399   9.920  0.1882 -0.1965  0.1358
   57MOL0     H 7508  -1.419   8.302   9.708 -1.0883 -1.0768  1.7538
   57MOL0     H 7509  -1.197   8.323   9.668  2.0755  1.8286 -0.3722
   57MOL0     H 7510   0.607   8.570   9.329  0.9224 -0.1034  2.5042
   57MOL0     H 7511   0.834   8.595   9.321  2.3633 -0.4780  0.2699
   57MOL0     H 7512   1.260   8.446   9.605  1.0093 -0.0649 -0.5998
   57MOL0     H 7513   1.502   8.461   9.583  1.3450 -1.9716 -0.3185
   57MOL0     H 7514   1.668   8.603   9.240 -1.6033  0.7583  1.1245
   57MOL0     H 7515   1.728   8.439   9.172 -3.8325 -0.3334  0.0275
   57MOL0     H 7516   1.897   8.602   9.213  4.0150 -1.4795  0.3833
   57MOL0     H 7517   1.854   8.605   9.389 -0.8530 -0.2725  0.6209
   57MOL0     H 7518   1.970   8.383   9.201  2.1896  1.1074 -0.2136
   57MOL0     H 7519   1.925   8.360   9.377 -0.0029  1.8733  2.8545
   57MOL0     H 7520   2.105   8.528   9.440 -1.5396  0.1909 -0.3262
   57MOL0     H 7521   2.170   8.377   9.378  0.3893  0.3809 -0.5209
   57MOL0     H 7522   2.236   8.663   9.056 -0.7150 -0.7276 -1.0738
   57MOL0     H 7523   1.482   8.428   9.162 -1.5181 -0.0979 -0.4983
   57MOL0     H 7524   1.253   8.432   9.162  3.8683 -1.7955 -2.1035
   58MOL0     O 7525   8.056   3.221   7.903 -0.5599 -0.0296 -0.4980
   58MOL0     C 7526   8.125   3.204   8.002 -0.3059  0.5068  0.5034
   58MOL0     O 7527   8.079   3.169   8.131 -0.3837  1.0537  0.5322
   58MOL0     C 7528   7.941   3.152   8.150 -0.2701 -0.1231 -0.5603
   58MOL0     C 7529   7.882   3.033   8.108 -0.3751 -0.5023 -0.4715
   58MOL0     C 7530   7.753   2.999   8.132  0.1759  0.4277  0.4510
   58MOL0     C 7531   7.658   3.086   8.191 -0.5473  0.1344 -0.3788
   58MOL0     O 7532   7.526   3.056   8.200 -0.0038  0.1105 -0.0764
   58MOL0     C 7533   7.490   2.935   8.264  0.0690 -0.9126 -0.5568
   58MOL0     C 7534   7.449   2.965   8.410  0.3867 -0.3333 -0.9432
   58MOL0     C 7535   7.305   2.920   8.446 -0.5298  0.1645  0.4220
   58MOL0     C 7536   7.213   3.029   8.384  0.0922 -0.4741 -0.1200
   58MOL0     C 7537   7.063   3.007   8.398  0.1284  0.3417  0.4188
   58MOL0     C 7538   7.018   3.007   8.547  0.4647 -0.7147 -0.1831
   58MOL0     C 7539   6.873   2.976   8.551 -0.0141  0.0109  0.0685
   58MOL0     C 7540   6.815   2.993   8.696  1.0595 -0.2406  0.0512
   58MOL0     N 7541   6.685   2.917   8.710 -0.3846  0.5573 -0.4646
   58MOL0     C 7542   6.554   2.957   8.697  0.2635 -0.0788 -0.1171
   58MOL0     C 7543   6.479   2.842   8.684  1.1352 -0.4361 -0.5973
   58MOL0     C 7544   6.335   2.840   8.658  0.3144 -0.3656  0.3739
   58MOL0     C 7545   6.252   2.827   8.784 -0.2024 -0.0653  0.3019
   58MOL0     C 7546   6.208   2.968   8.846 -0.1473  0.0969 -0.6161
   58MOL0     C 7547   6.075   3.021   8.805  0.8106  1.1020  0.0650
   58MOL0     O 7548   5.972   2.928   8.853  0.5934 -0.5720  0.5502
   58MOL0     C 7549   5.843   2.955   8.869 -0.2094 -0.0044  0.8509
   58MOL0     C 7550   5.777   3.080   8.850 -0.0562  0.3471 -0.6437
   58MOL0     C 7551   5.638   3.102   8.853  0.4914  0.7441  0.2725
   58MOL0     C 7552   5.560   2.984   8.859 -0.4316  0.3823  0.4426
   58MOL0     C 7553   5.417   2.988   8.872  0.2943 -0.4723  0.7121
   58MOL0     O 7554   5.365   3.108   8.920 -0.0820 -0.2834 -0.1603
   58MOL0     C 7555   5.227   3.140   8.922 -0.4909 -0.2141 -0.5681
   58MOL0     C 7556   5.208   3.264   8.986 -0.0616  0.5093  0.3814
   58MOL0     C 7557   5.079   3.316   9.003  0.3978 -0.1892  0.3964
   58MOL0     C 7558   4.967   3.248   8.960 -0.7815 -0.1202  0.3576
   58MOL0     O 7559   4.844   3.291   8.952 -0.4360 -0.0193 -0.2253
   58MOL0     C 7560   4.796   3.397   9.040 -0.1235 -0.2462 -0.1383
   58MOL0     C 7561   4.640   3.398   9.015  0.5797  0.6819  0.5395
   58MOL0     C 7562   4.566   3.477   9.131  0.3121 -0.3374 -0.0460
   58MOL0     C 7563   4.626   3.623   9.153  0.3786 -0.5154 -0.5343
   58MOL0     C 7564   4.556   3.678   9.273 -0.4833  0.8012 -0.1705
   58MOL0     C 7565   4.595   3.824   9.306  0.4466  0.4196  0.3668
   58MOL0     C 7566   4.747   3.844   9.321 -0.2694  1.7085 -0.2421
   58MOL0     C 7567   4.781   3.966   9.410  0.1646 -0.9952 -0.6960
   58MOL0    Cl 7568   4.946   4.003   9.406  0.4865  0.7546 -0.3333
   58MOL0     C 7569   4.989   3.122   8.898 -0.1625  0.4215  0.5546
   58MOL0     C 7570   5.116   3.070   8.871 -0.1018  0.1108 -0.1476
   58MOL0     O 7571   5.355   2.890   8.839  0.1167  0.1759 -0.5079
   58MOL0     C 7572   5.622   2.863   8.870 -0.0324 -0.0824 -0.4730
   58MOL0     C 7573   5.758   2.844   8.875 -0.1051 -0.4754  0.2988
   58MOL0     N 7574   6.567   2.739   8.687 -0.1472  0.1136  0.5716
   58MOL0     N 7575   6.689   2.776   8.710 -0.2830 -0.5136 -0.6679
   58MOL0     C 7576   7.713   3.210   8.218 -0.3487  0.4993 -0.2666
   58MOL0     C 7577   7.850   3.242   8.212  0.7269  0.7639  0.2526
   58MOL0     C 7578   8.272   3.204   7.988 -0.4196 -0.2833  0.2840
   58MOL0     C 7579   8.348   3.255   8.092  0.0510  0.1782 -0.5385
   58MOL0     C 7580   8.479   3.251   8.094 -0.5144 -0.7859  0.7451
   58MOL0     C 7581   8.546   3.216   7.978  0.0048 -0.1197 -1.1667
   58MOL0     O 7582   8.685   3.222   7.959 -0.4082 -0.7619 -0.2996
   58MOL0     C 7583   8.770   3.233   8.078  0.2243  0.2205  1.5118
   58MOL0     C 7584   8.791   3.380   8.123  0.4109 -0.4012 -0.2936
   58MOL0     C 7585   8.876   3.476   8.032  0.6747 -0.4405 -0.0147
   58MOL0     C 7586   9.015   3.416   8.000  0.3764 -0.2091 -0.6290
   58MOL0     C 7587   9.091   3.369   8.123 -0.1013  0.0770 -0.2184
   58MOL0     C 7588   9.154   3.329   8.222 -0.2060  0.1769  0.0218
   58MOL0     C 7589   8.471   3.171   7.869  0.1835  0.2110 -0.1798
   58MOL0     C 7590   8.337   3.155   7.876  0.4643  0.5788  0.0269
   58MOL0     H 7591   7.948   2.967   8.053 -1.0115 -2.4989  1.0437
   58MOL0     H 7592   7.708   2.911   8.086  0.7722  1.1963 -1.7460
   58MOL0     H 7593   7.571   2.862   8.259  0.2910 -0.6919 -0.2286
   58MOL0     H 7594   7.406   2.889   8.211 -1.7781  1.7859 -0.1847
   58MOL0     H 7595   7.447   3.072   8.434  0.1867 -0.8153  1.3982
   58MOL0     H 7596   7.511   2.917   8.487 -1.1601  1.3424  1.5148
   58MOL0     H 7597   7.279   2.919   8.552 -1.0533  3.0767  0.4014
   58MOL0     H 7598   7.287   2.821   8.403  1.0337  0.2146 -0.4178
   58MOL0     H 7599   7.226   3.124   8.436 -1.1122 -0.0337 -0.5913
   58MOL0     H 7600   7.233   3.057   8.280 -3.0425  1.6940 -0.2611
   58MOL0     H 7601   7.053   2.905   8.359 -1.8424  0.5752  0.1866
   58MOL0     H 7602   7.013   3.087   8.342 -1.4559  1.6517  3.4964
   58MOL0     H 7603   7.042   3.103   8.593  1.5631 -0.4385 -1.2459
   58MOL0     H 7604   7.064   2.933   8.612  0.3878 -0.6795 -0.0888
   58MOL0     H 7605   6.828   3.043   8.477  4.1517  0.6425 -2.1935
   58MOL0     H 7606   6.869   2.870   8.523  4.8989 -0.1035 -1.1651
   58MOL0     H 7607   6.796   3.098   8.720 -0.5696 -0.8848  1.9437
   58MOL0     H 7608   6.888   2.952   8.766  1.2194 -2.5044 -1.3352
   58MOL0     H 7609   6.528   3.063   8.692 -0.6715 -0.2544  0.6474
   58MOL0     H 7610   6.316   2.750   8.599 -2.5204  0.1555  0.3129
   58MOL0     H 7611   6.306   2.927   8.598  1.3764  0.6634  1.3171
   58MOL0     H 7612   6.310   2.768   8.855  1.7681  0.1164 -1.0794
   58MOL0     H 7613   6.162   2.771   8.756 -2.3243  3.3890 -0.3237
   58MOL0     H 7614   6.196   2.960   8.954  2.3675  2.9544  0.0057
   58MOL0     H 7615   6.285   3.045   8.833  0.8948 -1.0549 -1.5967
   58MOL0     H 7616   6.064   3.021   8.696  1.9286 -1.4010 -0.1227
   58MOL0     H 7617   6.052   3.120   8.844 -0.4520  0.7259  0.3262
   58MOL0     H 7618   5.830   3.171   8.823  0.3547 -0.2399 -1.9004
   58MOL0     H 7619   5.583   3.194   8.841 -0.5007  0.2341  0.7547
   58MOL0     H 7620   5.302   3.307   9.021 -0.4597  1.4423  0.3160
   58MOL0     H 7621   5.062   3.418   9.038 -1.8374  0.1713 -1.4440
   58MOL0     H 7622   4.840   3.492   9.009  3.2435 -1.5481  0.1750
   58MOL0     H 7623   4.834   3.386   9.142 -0.9372  3.3292  0.6929
   58MOL0     H 7624   4.603   3.295   9.021  1.0669  0.5748  2.3733
   58MOL0     H 7625   4.606   3.442   8.921 -1.5041  1.0788  1.4238
   58MOL0     H 7626   4.560   3.424   9.227  3.3986 -2.5936 -0.9579
   58MOL0     H 7627   4.461   3.489   9.102  0.2169 -1.7959 -0.3863
   58MOL0     H 7628   4.735   3.615   9.164  0.2802 -2.0671 -0.4428
   58MOL0     H 7629   4.601   3.686   9.068 -2.6428 -0.7211  0.0955
   58MOL0     H 7630   4.591   3.614   9.355 -0.1550  2.4156  1.0115
   58MOL0     H 7631   4.449   3.665   9.252 -0.2308  0.2230 -1.1311
   58MOL0     H 7632   4.537   3.862   9.391 -1.5556 -0.6965 -0.4258
   58MOL0     H 7633   4.561   3.878   9.217  2.9410 -3.4921 -3.3800
   58MOL0     H 7634   4.786   3.753   9.365 -1.3059 -0.3269 -3.2096
   58MOL0     H 7635   4.800   3.852   9.226  0.0729 -3.5817 -0.7887
   58MOL0     H 7636   4.753   3.955   9.515 -0.0068  1.7434 -0.3795
   58MOL0     H 7637   4.727   4.051   9.367 -4.8174 -2.5253  1.8513
   58MOL0     H 7638   4.904   3.062   8.866  1.5271 -2.0563  0.3756
   58MOL0     H 7639   5.119   2.976   8.818 -0.4401  1.1404 -2.0669
   58MOL0     H 7640   5.560   2.774   8.875  0.5456 -0.4435  0.6280
   58MOL0     H 7641   5.787   2.740   8.883 -2.6101 -1.3932 -1.4672
   58MOL0     H 7642   7.648   3.292   8.246 -0.7966  0.7431 -1.9470
   58MOL0     H 7643   7.888   3.336   8.252 -1.8236  0.4719  3.8074
   58MOL0     H 7644   8.295   3.268   8.186  1.4794  0.8354  0.2012
   58MOL0     H 7645   8.531   3.275   8.186 -0.1482  0.7765  0.1509
   58MOL0     H 7646   8.857   3.178   8.044 -1.3257 -3.1591  2.6112
   58MOL0     H 7647   8.728   3.177   8.162 -1.6160  1.0524  1.2102
   58MOL0     H 7648   8.695   3.429   8.143  2.1484  3.2457  0.1101
   58MOL0     H 7649   8.829   3.365   8.225 -0.1803  1.5274  0.2540
   58MOL0     H 7650   8.890   3.573   8.080  2.5858 -1.4836  1.6601
   58MOL0     H 7651   8.825   3.498   7.937 -2.9963 -0.3160  1.8107
   58MOL0     H 7652   9.004   3.334   7.928  0.1418 -1.7624  1.0862
   58MOL0     H 7653   9.078   3.497   7.963  1.3970 -0.2726  0.8777
   58MOL0     H 7654   9.211   3.311   8.311  1.0999  1.3573 -0.5356
   58MOL0     H 7655   8.529   3.165   7.778 -0.1268 -0.0700 -0.3619
   58MOL0     H 7656   8.280   3.110   7.795 -1.5253  0.8426  1.2307
   59MOL0     O 7657   3.043   1.702   0.068 -0.4455 -0.2565  0.2387
   59MOL0     C 7658   2.994   1.593   0.095  0.3567  0.7704 -0.0474
   59MOL0     O 7659   2.867   1.551   0.060  0.3867 -0.8993 -0.4359
   59MOL0     C 7660   2.768   1.648   0.026 -0.0541  0.1783  0.1212
   59MOL0     C 7661   2.640   1.585  -0.005 -0.3912 -0.1162  0.2195
   59MOL0     C 7662   2.535   1.664  -0.054 -0.3566  0.7958  0.0290
   59MOL0     C 7663   2.537   1.808  -0.062 -0.8312  0.1101  0.0269
   59MOL0     O 7664   2.433   1.883  -0.101  1.0357  0.4397 -0.4177
   59MOL0     C 7665   2.313   1.827  -0.143 -0.3510  0.4297 -0.0347
   59MOL0     C 7666   2.219   1.789  -0.035 -1.1012 -0.1373  0.6634
   59MOL0     C 7667   2.083   1.735  -0.088  0.5155  0.8772  0.9874
   59MOL0     C 7668   2.015   1.849  -0.157  0.3616  0.2989  0.1501
   59MOL0     C 7669   1.874   1.810  -0.211 -0.1459 -0.1381  0.3343
   59MOL0     C 7670   1.806   1.925  -0.293  0.4925  0.3165 -0.9175
   59MOL0     C 7671   1.704   1.877  -0.389  0.4815  0.3600  0.2625
   59MOL0     C 7672   1.603   1.780  -0.317  0.1383 -0.1625  0.1325
   59MOL0     N 7673   1.471   1.784  -0.381 -0.3738 -0.0249  1.1211
   59MOL0     C 7674   1.435   1.848  -0.504 -0.0851  0.0243 -0.0501
   59MOL0     C 7675   1.300   1.855  -0.511  0.1252 -0.7759 -0.1905
   59MOL0     C 7676   1.224   1.900  -0.630  0.1228  0.2535  0.5729
   59MOL0     C 7677   1.174   2.041  -0.601 -0.5639 -0.5237  0.2670
   59MOL0     C 7678   1.107   2.104  -0.723  0.4091 -0.5895  0.2422
   59MOL0     C 7679   1.141   2.257  -0.724 -0.6172  0.5107  0.0997
   59MOL0     O 7680   1.084   2.320  -0.844 -0.0474 -0.1315  0.3162
   59MOL0     C 7681   0.951   2.371  -0.836  0.3457 -0.3142  0.7573
   59MOL0     C 7682   0.848   2.368  -0.739 -0.0985 -0.0632 -0.0247
   59MOL0     C 7683   0.722   2.424  -0.758 -0.6374 -0.2837  0.1344
   59MOL0     C 7684   0.707   2.500  -0.871 -0.3085  1.2967 -0.1289
   59MOL0     C 7685   0.577   2.545  -0.900 -0.0094 -0.5360 -0.0355
   59MOL0     O 7686   0.480   2.516  -0.802  0.6724 -0.2959 -0.2894
   59MOL0     C 7687   0.352   2.554  -0.812  0.1506  0.3563 -0.0365
   59MOL0     C 7688   0.268   2.530  -0.921 -0.6832 -0.8061 -0.5574
   59MOL0     C 7689   0.123   2.577  -0.912  0.2030 -0.5702  0.5106
   59MOL0     C 7690   0.067   2.645  -0.807  0.2536  0.7648  0.2822
   59MOL0     O 7691  -0.061   2.702  -0.795 -0.2848 -0.1713  0.1471
   59MOL0     C 7692  -0.166   2.642  -0.865  0.1729 -0.2792 -0.3044
   59MOL0     C 7693  -0.294   2.669  -0.781  0.5995  0.2332 -0.7400
   59MOL0     C 7694  -0.411   2.627  -0.867  0.0450 -1.2368  0.6196
   59MOL0     C 7695  -0.553   2.670  -0.826 -0.6477 -0.5997 -0.2220
   59MOL0     C 7696  -0.660   2.630  -0.925 -0.4075 -0.0010  0.0505
   59MOL0     C 7697  -0.798   2.589  -0.872  0.5423  0.9657  0.1328
   59MOL0     C 7698  -0.863   2.688  -0.774  0.4513  0.3896  0.0376
   59MOL0     C 7699  -1.005   2.650  -0.724 -0.1737 -0.2020 -0.6209
   59MOL0    Cl 7700  -1.067   2.787  -0.625  0.0327 -0.1765 -0.0290
   59MOL0     C 7701   0.163   2.673  -0.710  0.1655  0.6226  0.5918
   59MOL0     C 7702   0.294   2.627  -0.707 -0.5206  0.2153 -1.0364
   59MOL0     O 7703   0.554   2.617  -0.996 -0.6683 -0.2318 -0.5944
   59MOL0     C 7704   0.809   2.509  -0.966  0.4639  0.4998  0.2475
   59MOL0     C 7705   0.932   2.446  -0.950 -0.2284 -0.6378 -0.1908
   59MOL0     N 7706   1.251   1.805  -0.389 -0.3831  0.6824 -0.2758
   59MOL0     N 7707   1.353   1.764  -0.315 -0.1183  0.6509  0.1610
   59MOL0     C 7708   2.660   1.861  -0.016  0.2372  0.4176 -0.0095
   59MOL0     C 7709   2.775   1.784   0.028  0.5296 -0.4250  0.1539
   59MOL0     C 7710   3.076   1.478   0.138  0.2928  0.0861  0.5200
   59MOL0     C 7711   3.188   1.509   0.217 -0.9524  0.0491  0.1043
   59MOL0     C 7712   3.270   1.401   0.264 -0.2732  0.2806  0.0937
   59MOL0     C 7713   3.244   1.273   0.231 -0.0585 -0.0897  0.2775
   59MOL0     O 7714   3.315   1.166   0.277  0.7957  0.4208 -0.0802
   59MOL0     C 7715   3.391   1.183   0.395 -0.2540 -0.7715  0.3500
   59MOL0     C 7716   3.434   1.048   0.457 -0.7007 -0.5433  1.1736
   59MOL0     C 7717   3.320   0.946   0.475  0.2536  0.4218  0.4533
   59MOL0     C 7718   3.379   0.816   0.432 -0.4629 -0.4965 -0.1680
   59MOL0     C 7719   3.277   0.716   0.453  0.4124  0.2955 -0.3623
   59MOL0     C 7720   3.187   0.635   0.472  0.0296  0.0355  0.8139
   59MOL0     C 7721   3.151   1.247   0.140  0.2723  0.1093 -0.3091
   59MOL0     C 7722   3.055   1.346   0.094 -0.2754 -0.2859 -0.1153
   59MOL0     H 7723   2.622   1.478  -0.005  2.3120 -0.6464 -0.5384
   59MOL0     H 7724   2.447   1.607  -0.081  0.6724 -0.6454 -0.4530
   59MOL0     H 7725   2.343   1.745  -0.208 -0.2905 -1.4131  2.2146
   59MOL0     H 7726   2.270   1.907  -0.203  0.1394 -1.1875 -2.6855
   59MOL0     H 7727   2.206   1.872   0.035 -0.6913  0.0408  0.5278
   59MOL0     H 7728   2.260   1.706   0.023  1.6628  0.3972 -0.3852
   59MOL0     H 7729   2.022   1.678  -0.017 -1.5022  0.3219 -1.0759
   59MOL0     H 7730   2.104   1.662  -0.167  2.1378  1.4522  0.8482
   59MOL0     H 7731   2.008   1.925  -0.078 -1.8484 -2.5391  2.9767
   59MOL0     H 7732   2.059   1.892  -0.247 -0.8283  3.2794  0.9053
   59MOL0     H 7733   1.809   1.779  -0.128 -1.4355  2.7944  0.5764
   59MOL0     H 7734   1.882   1.728  -0.282  0.3325  1.9107 -2.1435
   59MOL0     H 7735   1.882   1.983  -0.348  1.2901 -1.8879 -2.2593
   59MOL0     H 7736   1.761   1.993  -0.220  0.7179  0.4067 -0.8619
   59MOL0     H 7737   1.661   1.971  -0.424  2.8851  2.3558  2.2476
   59MOL0     H 7738   1.745   1.827  -0.477  0.1932 -2.6938  1.7212
   59MOL0     H 7739   1.585   1.802  -0.211  0.3264 -1.2992  0.4145
   59MOL0     H 7740   1.649   1.681  -0.322  0.7540  0.1318 -0.1383
   59MOL0     H 7741   1.511   1.881  -0.574  1.5148 -3.1756 -0.0121
   59MOL0     H 7742   1.136   1.839  -0.655 -0.5111  1.1755  0.5013
   59MOL0     H 7743   1.294   1.912  -0.714 -2.4508  1.6723 -1.5265
   59MOL0     H 7744   1.257   2.102  -0.566 -0.8957  0.2517 -0.2569
   59MOL0     H 7745   1.093   2.035  -0.528 -0.4897  2.9736  0.7953
   59MOL0     H 7746   1.147   2.050  -0.809  1.1254  0.4770 -0.1153
   59MOL0     H 7747   1.001   2.085  -0.706 -0.5687  2.9612 -1.0986
   59MOL0     H 7748   1.249   2.260  -0.742  0.4758 -5.1959  3.5096
   59MOL0     H 7749   1.114   2.320  -0.639 -0.1111  3.2220 -1.5967
   59MOL0     H 7750   0.861   2.301  -0.655  1.8926 -1.1144 -1.0873
   59MOL0     H 7751   0.645   2.404  -0.685 -2.2081  1.8564 -0.8320
   59MOL0     H 7752   0.320   2.488  -1.006  0.5484  2.7596 -1.7152
   59MOL0     H 7753   0.052   2.548  -0.988 -1.7377  1.6693  1.3429
   59MOL0     H 7754  -0.143   2.536  -0.876 -0.6409 -0.4725 -0.1488
   59MOL0     H 7755  -0.162   2.693  -0.962 -2.3028 -0.1441 -0.3892
   59MOL0     H 7756  -0.302   2.776  -0.762  0.8267  0.3393 -1.2125
   59MOL0     H 7757  -0.287   2.608  -0.690  1.9807  1.2789 -0.1043
   59MOL0     H 7758  -0.427   2.519  -0.868 -1.4383 -1.0393  0.6494
   59MOL0     H 7759  -0.391   2.664  -0.968 -3.0088  0.8141  0.6369
   59MOL0     H 7760  -0.577   2.617  -0.733  1.1903  0.7259  1.0894
   59MOL0     H 7761  -0.566   2.778  -0.815 -1.3505 -0.6477 -0.5207
   59MOL0     H 7762  -0.612   2.549  -0.982 -1.0152 -0.7077  0.5159
   59MOL0     H 7763  -0.674   2.715  -0.992 -1.2823 -0.9479 -1.0203
   59MOL0     H 7764  -0.808   2.494  -0.819 -3.3218 -0.7451 -3.1200
   59MOL0     H 7765  -0.864   2.591  -0.959  1.2420  3.0780 -0.4046
   59MOL0     H 7766  -0.789   2.692  -0.693  1.2490  0.3792 -0.6811
   59MOL0     H 7767  -0.865   2.786  -0.823  3.9024  1.4697  1.7093
   59MOL0     H 7768  -1.002   2.558  -0.664  1.8929 -0.0122 -0.3555
   59MOL0     H 7769  -1.070   2.647  -0.811 -1.9917  0.3343  0.6685
   59MOL0     H 7770   0.122   2.714  -0.618 -0.1444  1.8405 -0.0621
   59MOL0     H 7771   0.348   2.656  -0.617 -3.3654  1.3690  0.4535
   59MOL0     H 7772   0.810   2.585  -1.044  0.5457  0.9287  0.6565
   59MOL0     H 7773   1.010   2.456  -1.024 -0.4747  1.1441 -0.2540
   59MOL0     H 7774   2.665   1.969  -0.026 -3.1660  0.5828 -1.3354
   59MOL0     H 7775   2.866   1.835   0.060 -0.2422  1.2040 -0.1411
   59MOL0     H 7776   3.207   1.614   0.235  0.0994  0.0880 -1.1199
   59MOL0     H 7777   3.349   1.425   0.335 -0.2761  1.1725 -0.1885
   59MOL0     H 7778   3.325   1.237   0.463  0.2987  1.9584 -1.1406
   59MOL0     H 7779   3.478   1.243   0.367 -1.3784  1.2605  1.0169
   59MOL0     H 7780   3.504   1.017   0.379  0.7371  2.9740  0.8674
   59MOL0     H 7781   3.494   1.054   0.548 -2.4019 -3.7172  2.6865
   59MOL0     H 7782   3.240   0.960   0.401  1.3257 -3.3088 -1.7229
   59MOL0     H 7783   3.282   0.928   0.575  2.5109 -1.2517  1.0973
   59MOL0     H 7784   3.405   0.818   0.325  1.2536 -0.3037  0.2239
   59MOL0     H 7785   3.472   0.793   0.486  0.6489  0.3870 -1.6193
   59MOL0     H 7786   3.104   0.569   0.492 -0.4525 -0.0033 -1.0900
   59MOL0     H 7787   3.122   1.146   0.114 -1.0618 -0.2359  2.1564
   59MOL0     H 7788   2.981   1.309   0.024  0.0732  2.6401 -2.2226
   60MOL0     O 7789   2.223   9.993   6.932  0.0683  0.2068  1.3471
   60MOL0     C 7790   2.313   9.959   7.001 -0.5013 -0.5522  0.0308
   60MOL0     O 7791   2.334   9.833   7.054  0.0838 -0.2677  0.2905
   60MOL0     C 7792   2.270   9.726   6.994 -0.5879  0.4840  0.1482
   60MOL0     C 7793   2.328   9.640   6.899 -0.4065 -0.0580 -0.4141
   60MOL0     C 7794   2.250   9.542   6.830  0.6789  0.0450  0.0594
   60MOL0     C 7795   2.110   9.541   6.848 -1.0836  0.1332  0.5084
   60MOL0     O 7796   2.031   9.458   6.771  0.1257 -0.8420 -1.2283
   60MOL0     C 7797   2.081   9.364   6.674 -0.2907 -0.8828 -0.1309
   60MOL0     C 7798   2.093   9.438   6.540 -0.4600 -0.3967  0.4277
   60MOL0     C 7799   1.964   9.474   6.459  0.3844 -1.1091  0.2012
   60MOL0     C 7800   1.886   9.351   6.423 -0.5366 -1.0653 -0.1213
   60MOL0     C 7801   1.746   9.382   6.367 -0.2355  0.6834 -0.2888
   60MOL0     C 7802   1.740   9.495   6.262 -0.5764  0.4599 -0.0919
   60MOL0     C 7803   1.604   9.541   6.213  0.8490  0.3804  0.3037
   60MOL0     C 7804   1.523   9.621   6.316 -0.7258  0.5181  1.1296
   60MOL0     N 7805   1.405   9.685   6.254 -0.2433  0.7899  0.1194
   60MOL0     C 7806   1.270   9.654   6.273  0.1009 -0.4079 -0.0197
   60MOL0     C 7807   1.205   9.723   6.172  0.9100  0.4886 -0.3745
   60MOL0     C 7808   1.061   9.746   6.147 -0.0343  1.1445 -0.5262
   60MOL0     C 7809   1.011   9.632   6.064 -0.0814  0.0799  0.1138
   60MOL0     C 7810   0.858   9.631   6.057  0.8341  0.6266 -0.2245
   60MOL0     C 7811   0.800   9.506   5.983  0.0151  0.7261 -0.4060
   60MOL0     O 7812   0.663   9.490   6.005  0.4333  0.2223 -0.3997
   60MOL0     C 7813   0.566   9.551   5.928 -0.4561 -0.5475  0.3922
   60MOL0     C 7814   0.595   9.658   5.841  0.4528 -0.8119  0.1806
   60MOL0     C 7815   0.503   9.722   5.755 -0.1677 -0.2251  0.1261
   60MOL0     C 7816   0.367   9.668   5.755 -0.4646 -0.4673  0.4640
   60MOL0     C 7817   0.267   9.721   5.657 -1.0102  0.0161  0.9933
   60MOL0     O 7818   0.142   9.666   5.653  0.8171 -0.0768 -0.1319
   60MOL0     C 7819   0.033   9.720   5.600  0.1859 -1.0726 -0.0471
   60MOL0     C 7820  -0.086   9.733   5.669 -0.1883 -0.1817 -0.4784
   60MOL0     C 7821  -0.200   9.795   5.613 -0.4555  0.1886  0.4062
   60MOL0     C 7822  -0.204   9.844   5.475 -0.0267 -0.9311 -0.7795
   60MOL0     O 7823  -0.315   9.890   5.415  0.1610  0.2460 -0.1824
   60MOL0     C 7824  -0.310   9.994   5.321  0.4877  0.2514  0.4017
   60MOL0     C 7825  -0.455  10.047   5.295  0.1879  0.2110 -0.2223
   60MOL0     C 7826  -0.556   9.942   5.274  0.5901 -0.5594 -0.0519
   60MOL0     C 7827  -0.619   9.883   5.400  0.4066  0.1460  0.7651
   60MOL0     C 7828  -0.738   9.794   5.365  0.0202  0.3164  0.7582
   60MOL0     C 7829  -0.780   9.703   5.481  0.9794 -0.3697  0.2676
   60MOL0     C 7830  -0.914   9.625   5.467 -0.0197  0.3042 -0.2082
   60MOL0     C 7831  -0.906   9.491   5.545  0.2377 -0.5246 -0.7195
   60MOL0    Cl 7832  -1.078   9.427   5.564  0.6689 -0.0390  0.2630
   60MOL0     C 7833  -0.082   9.832   5.410 -0.3530  0.3519  0.3783
   60MOL0     C 7834   0.040   9.783   5.471  0.0416 -0.1663  0.5987
   60MOL0     O 7835   0.303   9.827   5.594  0.6719  0.0447 -0.1605
   60MOL0     C 7836   0.337   9.573   5.855 -0.5737 -0.2876  0.1171
   60MOL0     C 7837   0.437   9.509   5.936  0.4360  0.0974  0.2624
   60MOL0     N 7838   1.295   9.799   6.103 -0.3635 -0.3808 -0.0402
   60MOL0     N 7839   1.413   9.774   6.152 -0.2216 -0.4251  0.2547
   60MOL0     C 7840   2.057   9.625   6.940  0.2879  0.0226  0.2221
   60MOL0     C 7841   2.136   9.713   7.019 -0.4542  0.6377  0.0866
   60MOL0     C 7842   2.411  10.058   7.049 -0.2726 -0.2171 -0.9399
   60MOL0     C 7843   2.399  10.192   7.022  0.3443 -0.2251 -0.5579
   60MOL0     C 7844   2.488  10.291   7.062 -0.2792 -0.0297  0.3813
   60MOL0     C 7845   2.613  10.249   7.123 -0.6524  0.3474  0.2214
   60MOL0     O 7846   2.710  10.345   7.151 -0.1944  0.2689  0.7471
   60MOL0     C 7847   2.831  10.325   7.226  0.6547  0.2038  0.9105
   60MOL0     C 7848   2.943  10.282   7.133  1.1207 -0.5733  0.6727
   60MOL0     C 7849   3.081  10.271   7.197  0.2070  0.1973  0.1605
   60MOL0     C 7850   3.163  10.400   7.219  0.0154 -0.4934 -0.8863
   60MOL0     C 7851   3.307  10.387   7.231  0.0179 -0.1308 -0.7921
   60MOL0     C 7852   3.426  10.384   7.225  0.1988  0.7996  0.5342
   60MOL0     C 7853   2.634  10.110   7.143  0.6125 -0.4184 -0.0531
   60MOL0     C 7854   2.538  10.021   7.110 -0.2206 -0.2577 -0.2689
   60MOL0     H 7855   2.433   9.643   6.869  0.1046  0.0547  1.2547
   60MOL0     H 7856   2.294   9.489   6.746 -0.6413 -1.1519  0.0821
   60MOL0     H 7857   2.007   9.283   6.665 -0.2290 -0.7302 -2.4913
   60MOL0     H 7858   2.170   9.320   6.720  1.2824  1.3810 -0.8961
   60MOL0     H 7859   2.168   9.392   6.475  3.5162  4.7226  0.7607
   60MOL0     H 7860   2.138   9.535   6.564 -0.0628 -0.4601 -0.0449
   60MOL0     H 7861   1.993   9.521   6.365  0.3737 -3.7528 -1.1858
   60MOL0     H 7862   1.904   9.534   6.528 -2.7449 -3.4258 -0.3309
   60MOL0     H 7863   1.949   9.285   6.363 -1.8469 -1.4139 -1.1692
   60MOL0     H 7864   1.860   9.293   6.512  2.9438 -0.1655  1.6699
   60MOL0     H 7865   1.675   9.400   6.448  0.3273 -2.0415  0.9194
   60MOL0     H 7866   1.705   9.294   6.318 -2.2543  1.0703  0.6188
   60MOL0     H 7867   1.792   9.463   6.171 -0.3408  1.3467 -0.2775
   60MOL0     H 7868   1.780   9.591   6.296 -1.1535  2.0312 -3.4546
   60MOL0     H 7869   1.625   9.597   6.121  1.0935 -1.3359 -0.7304
   60MOL0     H 7870   1.547   9.458   6.171 -0.7416  1.4172  0.3441
   60MOL0     H 7871   1.575   9.709   6.355 -1.6360  3.1332 -2.9327
   60MOL0     H 7872   1.496   9.560   6.403 -1.9858  2.0383  1.8435
   60MOL0     H 7873   1.223   9.584   6.342 -1.5718  0.2106 -0.4854
   60MOL0     H 7874   1.034   9.844   6.107  2.6459  1.8182 -0.8470
   60MOL0     H 7875   1.007   9.746   6.242  1.4124  0.9231  0.3224
   60MOL0     H 7876   1.054   9.536   6.095  2.7018  0.9869 -0.6189
   60MOL0     H 7877   1.056   9.651   5.966  0.0669 -0.8148 -0.0026
   60MOL0     H 7878   0.826   9.622   6.162  2.6967 -1.8189  0.2243
   60MOL0     H 7879   0.812   9.723   6.018 -0.7371 -0.0818 -0.1047
   60MOL0     H 7880   0.854   9.423   6.031  1.1971  2.3708  1.2870
   60MOL0     H 7881   0.818   9.508   5.875  0.4323 -0.4264 -0.3759
   60MOL0     H 7882   0.697   9.697   5.847  0.3810 -0.7196  0.9350
   60MOL0     H 7883   0.533   9.795   5.681  0.9758  0.0632  0.8562
   60MOL0     H 7884  -0.080   9.701   5.772  0.7593  1.8520  0.1532
   60MOL0     H 7885  -0.293   9.801   5.670 -1.1358 -0.7684 -0.5728
   60MOL0     H 7886  -0.275   9.962   5.222  0.3791  3.1707 -0.6841
   60MOL0     H 7887  -0.247  10.077   5.355  2.3596 -0.7879 -0.4170
   60MOL0     H 7888  -0.442  10.108   5.205  0.9594  2.4790  1.3287
   60MOL0     H 7889  -0.495  10.117   5.368  0.5370 -1.0984  1.2698
   60MOL0     H 7890  -0.505   9.859   5.224  0.8113  0.3971 -1.4738
   60MOL0     H 7891  -0.641   9.972   5.213 -0.0838 -2.0640  0.1013
   60MOL0     H 7892  -0.539   9.821   5.441 -1.4752 -2.9081  0.1138
   60MOL0     H 7893  -0.643   9.966   5.468  2.4921  2.1047 -0.7342
   60MOL0     H 7894  -0.723   9.732   5.276  0.3491  1.9281 -0.3415
   60MOL0     H 7895  -0.822   9.856   5.333  0.2997 -0.9994 -3.0893
   60MOL0     H 7896  -0.758   9.740   5.581  3.4157  2.0627 -1.0460
   60MOL0     H 7897  -0.715   9.616   5.470  1.7495  0.0299  1.5384
   60MOL0     H 7898  -0.997   9.684   5.506  1.4728  2.6843 -0.4428
   60MOL0     H 7899  -0.933   9.593   5.364  0.9281  3.2797 -1.4038
   60MOL0     H 7900  -0.851   9.495   5.640 -1.6332  4.2644  0.4370
   60MOL0     H 7901  -0.853   9.418   5.482 -0.1438  0.7101 -2.5503
   60MOL0     H 7902  -0.070   9.874   5.311  1.6456 -0.1579  0.3576
   60MOL0     H 7903   0.128   9.778   5.408 -1.0859 -0.2370 -1.0554
   60MOL0     H 7904   0.238   9.529   5.867  0.3113 -1.8546  2.2389
   60MOL0     H 7905   0.402   9.428   5.999  2.4423 -0.1459  1.1497
   60MOL0     H 7906   1.951   9.628   6.962  0.3802 -1.2162  0.9082
   60MOL0     H 7907   2.088   9.771   7.096 -1.3270 -2.3169  1.9287
   60MOL0     H 7908   2.302  10.214   6.979  0.0230  2.3739  1.2597
   60MOL0     H 7909   2.486  10.398   7.045  0.0331  0.1249  1.2698
   60MOL0     H 7910   2.817  10.255   7.309 -0.2797  0.0646  0.6412
   60MOL0     H 7911   2.858  10.424   7.265 -1.1363  2.0194 -2.0388
   60MOL0     H 7912   2.912  10.187   7.088  0.2078  0.1213 -0.2038
   60MOL0     H 7913   2.953  10.352   7.049  0.3646 -1.5681 -0.2730
   60MOL0     H 7914   3.135  10.193   7.143 -4.2072 -2.6170 -0.5919
   60MOL0     H 7915   3.063  10.245   7.302 -2.2666  3.1046  0.5982
   60MOL0     H 7916   3.149  10.467   7.134 -2.4423 -0.0655 -0.2313
   60MOL0     H 7917   3.137  10.464   7.304  3.1557  0.8756 -0.7869
   60MOL0     H 7918   3.533  10.377   7.220  0.2309  0.9163  1.0223
   60MOL0     H 7919   2.728  10.074   7.182  1.6167  3.4699  1.5828
   60MOL0     H 7920   2.555   9.919   7.141 -0.5730 -0.4361 -0.6443
   61MOL0     O 7921   4.598   6.916   6.356  0.6502  0.3923 -0.2714
   61MOL0     C 7922   4.606   7.046   6.363  0.0843 -0.3190 -0.3417
   61MOL0     O 7923   4.508   7.140   6.418 -0.4693 -0.0708  0.4664
   61MOL0     C 7924   4.395   7.104   6.491  0.1818  0.3692 -0.4509
   61MOL0     C 7925   4.298   7.195   6.511 -0.1198 -0.3880  0.6026
   61MOL0     C 7926   4.178   7.168   6.566  0.0047 -0.0815  0.0772
   61MOL0     C 7927   4.152   7.047   6.633 -0.6607 -0.9457 -0.0630
   61MOL0     O 7928   4.035   7.029   6.708 -0.4880 -0.1568  0.5565
   61MOL0     C 7929   4.032   7.079   6.831 -0.4455  0.0249  0.4263
   61MOL0     C 7930   3.908   7.035   6.898 -0.5723  0.4659  0.2352
   61MOL0     C 7931   3.786   7.123   6.858 -0.0866  0.2124  0.5739
   61MOL0     C 7932   3.668   7.081   6.936 -0.0425 -1.0188  1.0446
   61MOL0     C 7933   3.534   7.157   6.898  0.5804 -0.4534  0.1168
   61MOL0     C 7934   3.410   7.108   6.975  0.5861  0.1312 -0.7951
   61MOL0     C 7935   3.431   7.150   7.120 -0.5256 -0.0116 -0.9870
   61MOL0     C 7936   3.309   7.128   7.209 -0.4215  0.3029 -0.7212
   61MOL0     N 7937   3.323   7.197   7.342  0.5591  0.5045  0.4134
   61MOL0     C 7938   3.300   7.334   7.350  0.0918  0.3402 -0.7462
   61MOL0     C 7939   3.339   7.371   7.478 -1.1515  0.2025  0.0821
   61MOL0     C 7940   3.350   7.512   7.518 -0.3273  0.0557 -0.4375
   61MOL0     C 7941   3.211   7.564   7.560  0.8597  0.1796  0.0736
   61MOL0     C 7942   3.143   7.489   7.680  0.5424  0.2948  0.1525
   61MOL0     C 7943   2.990   7.481   7.670  0.4460 -0.5613 -0.3727
   61MOL0     O 7944   2.951   7.409   7.555  0.6395  0.6854 -0.0962
   61MOL0     C 7945   2.821   7.345   7.570  0.2686 -0.3372 -0.1159
   61MOL0     C 7946   2.799   7.216   7.519 -0.1435 -0.0729 -1.2248
   61MOL0     C 7947   2.686   7.148   7.529  0.0576  0.2007 -0.1678
   61MOL0     C 7948   2.580   7.205   7.603  0.2464  1.1794  0.5283
   61MOL0     C 7949   2.449   7.136   7.585 -0.2155 -0.5084  0.7729
   61MOL0     O 7950   2.451   7.009   7.542 -0.1388  0.1931  0.5570
   61MOL0     C 7951   2.336   6.962   7.495  0.0783  0.0295 -0.7800
   61MOL0     C 7952   2.303   6.835   7.547  0.4657  0.0806 -0.1438
   61MOL0     C 7953   2.201   6.771   7.489 -0.0138  0.3091  0.5802
   61MOL0     C 7954   2.118   6.827   7.389 -0.6685 -0.3586  0.2407
   61MOL0     O 7955   2.015   6.748   7.348  0.2829  0.5425  0.0326
   61MOL0     C 7956   1.996   6.733   7.208 -0.1797  0.5607 -0.3439
   61MOL0     C 7957   1.858   6.790   7.155  0.6903 -0.4898 -0.3186
   61MOL0     C 7958   1.820   6.938   7.195  0.5343  0.4058 -0.3468
   61MOL0     C 7959   1.688   6.981   7.129  0.6658 -0.1644 -1.0244
   61MOL0     C 7960   1.627   7.113   7.180 -0.7439  0.0621 -0.9475
   61MOL0     C 7961   1.482   7.139   7.137 -0.6569 -0.1968 -0.8869
   61MOL0     C 7962   1.427   7.264   7.200 -0.4907  1.1222 -0.3256
   61MOL0     C 7963   1.447   7.382   7.109  0.8686  0.0683 -0.3605
   61MOL0    Cl 7964   1.392   7.518   7.209 -0.2447 -0.0706 -0.1791
   61MOL0     C 7965   2.157   6.953   7.340  0.3223 -0.6701  0.2213
   61MOL0     C 7966   2.262   7.026   7.395  0.0892 -0.7141 -0.0278
   61MOL0     O 7967   2.343   7.195   7.617  0.4919 -0.4989 -0.5927
   61MOL0     C 7968   2.594   7.331   7.660  0.1527 -0.5373 -0.1000
   61MOL0     C 7969   2.715   7.398   7.644  0.0077 -0.2920 -0.9936
   61MOL0     N 7970   3.374   7.248   7.542 -0.3750 -0.7108  0.4843
   61MOL0     N 7971   3.384   7.154   7.460  0.3574 -0.5323 -0.3444
   61MOL0     C 7972   4.252   6.954   6.629 -0.4988 -0.7844  1.0506
   61MOL0     C 7973   4.379   6.975   6.555  0.3963 -0.0637  0.9631
   61MOL0     C 7974   4.731   7.111   6.332 -0.1380 -0.0494 -0.0096
   61MOL0     C 7975   4.814   7.054   6.236 -1.1335 -0.4298  0.3589
   61MOL0     C 7976   4.932   7.113   6.192  0.1370  0.0580 -0.6674
   61MOL0     C 7977   4.969   7.232   6.254 -0.6561  0.9419  0.0456
   61MOL0     O 7978   5.084   7.293   6.214  0.1150  0.3158  0.6015
   61MOL0     C 7979   5.175   7.222   6.124  0.2881  0.0977 -0.4985
   61MOL0     C 7980   5.307   7.298   6.131  0.7090  0.4207 -0.0869
   61MOL0     C 7981   5.429   7.236   6.065 -0.2528  0.1690 -0.7245
   61MOL0     C 7982   5.545   7.337   6.044 -0.0524 -0.0992  0.5315
   61MOL0     C 7983   5.593   7.396   6.172 -0.2299  0.4139 -0.0641
   61MOL0     C 7984   5.614   7.432   6.286  0.5355  0.4020  1.0428
   61MOL0     C 7985   4.897   7.282   6.355 -0.1821  0.1586  0.6138
   61MOL0     C 7986   4.784   7.223   6.396  0.7061 -0.8279  0.3023
   61MOL0     H 7987   4.314   7.298   6.482  0.2828 -0.5598  0.1968
   61MOL0     H 7988   4.090   7.232   6.575 -0.1978 -0.4484  0.8100
   61MOL0     H 7989   4.030   7.188   6.821 -1.7405  0.0923  1.1223
   61MOL0     H 7990   4.118   7.045   6.890  0.1028  1.9230  0.8120
   61MOL0     H 7991   3.926   7.051   7.005  0.7682 -1.4719  0.3541
   61MOL0     H 7992   3.892   6.929   6.877 -0.1084  0.5297 -0.4760
   61MOL0     H 7993   3.761   7.136   6.752  0.1421 -0.2706  0.4579
   61MOL0     H 7994   3.822   7.219   6.894 -1.1014  0.2346  1.6136
   61MOL0     H 7995   3.639   6.975   6.928  0.8409 -1.1815 -0.1580
   61MOL0     H 7996   3.689   7.103   7.041 -2.0466 -0.6529  1.4068
   61MOL0     H 7997   3.512   7.139   6.792  3.2921  0.3733 -0.6693
   61MOL0     H 7998   3.558   7.262   6.919  0.9466 -1.0622  3.1331
   61MOL0     H 7999   3.383   7.002   6.969  1.3653 -0.2934  1.7897
   61MOL0     H 8000   3.323   7.166   6.942  1.1442  0.5249 -1.6015
   61MOL0     H 8001   3.517   7.095   7.159 -1.5576 -1.9446 -1.3214
   61MOL0     H 8002   3.450   7.258   7.129  1.2351 -0.3791  0.3417
   61MOL0     H 8003   3.306   7.020   7.228  0.3099  0.1664 -1.3168
   61MOL0     H 8004   3.216   7.157   7.158  1.2239  2.0825 -2.9218
   61MOL0     H 8005   3.271   7.404   7.272 -1.9251 -1.7394 -1.9906
   61MOL0     H 8006   3.369   7.559   7.421 -4.5769 -1.7684 -2.3761
   61MOL0     H 8007   3.434   7.508   7.588 -0.0753 -0.5707 -0.7638
   61MOL0     H 8008   3.146   7.551   7.473  0.7002 -1.1859  0.3698
   61MOL0     H 8009   3.206   7.671   7.581 -2.1285 -0.4039  3.1921
   61MOL0     H 8010   3.181   7.387   7.671 -2.3014 -0.7202 -2.0980
   61MOL0     H 8011   3.176   7.531   7.775  0.2898 -1.0626  0.8586
   61MOL0     H 8012   2.945   7.580   7.670 -3.8717 -2.2683 -0.9509
   61MOL0     H 8013   2.952   7.428   7.758  0.3144 -1.0188 -0.6992
   61MOL0     H 8014   2.875   7.159   7.466 -0.4708 -1.2796 -0.4287
   61MOL0     H 8015   2.671   7.054   7.478 -0.6650 -0.9333  2.0157
   61MOL0     H 8016   2.356   6.776   7.622  0.6904 -1.5350 -1.5062
   61MOL0     H 8017   2.176   6.670   7.518  2.3946 -0.5998 -0.2489
   61MOL0     H 8018   2.003   6.626   7.186 -1.8120 -0.2247  2.4202
   61MOL0     H 8019   2.082   6.782   7.160  1.5710  0.4648  2.4387
   61MOL0     H 8020   1.778   6.723   7.189 -0.2921  0.0904 -1.4069
   61MOL0     H 8021   1.851   6.777   7.046 -0.0628 -1.1013 -0.2042
   61MOL0     H 8022   1.901   7.003   7.160  0.4393  0.3580 -0.6634
   61MOL0     H 8023   1.806   6.951   7.303 -1.6438 -1.0740 -0.3832
   61MOL0     H 8024   1.707   7.002   7.024 -1.4846  1.1566 -1.2211
   61MOL0     H 8025   1.611   6.903   7.138  1.2312 -0.9016 -2.3172
   61MOL0     H 8026   1.688   7.195   7.141  1.1524 -0.9991 -0.3555
   61MOL0     H 8027   1.645   7.109   7.287  1.3950 -2.6376 -1.3086
   61MOL0     H 8028   1.413   7.059   7.169 -1.9349 -0.0143 -3.0254
   61MOL0     H 8029   1.475   7.136   7.028 -1.6838 -4.3524 -0.8889
   61MOL0     H 8030   1.321   7.255   7.222 -1.2774 -0.3316 -3.9704
   61MOL0     H 8031   1.484   7.287   7.291 -1.2599  3.1040 -0.2953
   61MOL0     H 8032   1.372   7.377   7.030 -2.4982  2.6742  2.3310
   61MOL0     H 8033   1.549   7.393   7.072  0.3318 -0.2415 -1.9973
   61MOL0     H 8034   2.094   6.995   7.262  2.0273  0.8162 -0.4134
   61MOL0     H 8035   2.280   7.126   7.357 -2.5299 -1.4772 -3.8135
   61MOL0     H 8036   2.508   7.376   7.708 -1.1782  0.2956 -3.0170
   61MOL0     H 8037   2.730   7.488   7.703 -2.3625 -0.0944 -0.6137
   61MOL0     H 8038   4.237   6.862   6.685 -0.6296 -1.0429  0.5981
   61MOL0     H 8039   4.444   6.889   6.546  1.9607  1.0453  1.2887
   61MOL0     H 8040   4.795   6.954   6.198  1.9984 -0.3133 -1.9693
   61MOL0     H 8041   4.983   7.070   6.107  0.4137  2.8599 -2.0565
   61MOL0     H 8042   5.132   7.218   6.024  1.2706 -3.3317 -0.9085
   61MOL0     H 8043   5.195   7.126   6.173  0.1800  1.1663  1.7727
   61MOL0     H 8044   5.282   7.395   6.086 -0.5163  0.0584 -0.2239
   61MOL0     H 8045   5.329   7.314   6.237  1.9646  2.9712 -0.6495
   61MOL0     H 8046   5.399   7.184   5.974 -2.3325 -1.4165  0.7553
   61MOL0     H 8047   5.466   7.161   6.136 -1.7890  0.7022  0.7237
   61MOL0     H 8048   5.623   7.283   5.990 -0.4757  1.2789 -1.5681
   61MOL0     H 8049   5.508   7.413   5.975  2.7144 -1.4135 -2.6965
   61MOL0     H 8050   5.613   7.476   6.384 -0.2479  1.1258  0.7284
   61MOL0     H 8051   4.925   7.373   6.407  0.4545 -0.4541  1.3591
   61MOL0     H 8052   4.718   7.267   6.470 -0.3050  3.2806 -2.6592
   62MOL0     O 8053   3.025   4.698   2.561 -0.8330  0.2707  0.2355
   62MOL0     C 8054   3.085   4.713   2.665 -0.3344 -0.0924 -0.2013
   62MOL0     O 8055   3.063   4.645   2.787  0.1858  0.8231  0.0482
   62MOL0     C 8056   2.962   4.552   2.800  0.0537  0.1323  0.3192
   62MOL0     C 8057   2.834   4.600   2.834 -0.7833  0.1612 -0.6431
   62MOL0     C 8058   2.729   4.513   2.844  0.3409  0.0247 -0.0703
   62MOL0     C 8059   2.752   4.379   2.816  0.2105 -0.1319  0.4921
   62MOL0     O 8060   2.645   4.294   2.818  0.5389 -0.5098  0.2541
   62MOL0     C 8061   2.668   4.164   2.876 -0.6294 -0.0287 -0.7934
   62MOL0     C 8062   2.539   4.123   2.947 -0.6631  0.4112 -0.7841
   62MOL0     C 8063   2.428   4.085   2.847  0.2794 -0.3983 -0.0060
   62MOL0     C 8064   2.307   4.023   2.920 -1.1359  0.1025  0.6497
   62MOL0     C 8065   2.219   3.978   2.803  0.5107  0.3678  0.4491
   62MOL0     C 8066   2.080   3.932   2.864  1.1622 -0.2165  0.7047
   62MOL0     C 8067   1.973   3.900   2.753 -1.7849  0.5323 -0.0058
   62MOL0     C 8068   1.908   4.027   2.706  0.3620 -0.3981 -0.4801
   62MOL0     N 8069   1.768   4.045   2.765 -0.5259 -0.4134 -0.1786
   62MOL0     C 8070   1.646   4.034   2.703 -0.4020  0.6270 -0.1307
   62MOL0     C 8071   1.554   4.063   2.797 -0.5401 -0.3271  0.4079
   62MOL0     C 8072   1.408   4.067   2.761 -0.3679 -0.0293  0.4536
   62MOL0     C 8073   1.342   3.937   2.812  0.4819  0.1756 -1.0084
   62MOL0     C 8074   1.198   3.945   2.762  0.2342  0.1531 -0.6022
   62MOL0     C 8075   1.143   3.805   2.782 -0.8718  0.1708 -0.3776
   62MOL0     O 8076   1.015   3.806   2.721 -0.6352  0.3199 -0.6372
   62MOL0     C 8077   0.905   3.797   2.793 -0.0938 -0.1716  0.4237
   62MOL0     C 8078   0.785   3.808   2.726  0.8428  1.0957  0.3996
   62MOL0     C 8079   0.659   3.804   2.788  0.2966 -0.0162  0.0714
   62MOL0     C 8080   0.654   3.785   2.932  0.8118  0.4007  0.2661
   62MOL0     C 8081   0.527   3.775   3.007 -0.0646 -1.0414  0.3149
   62MOL0     O 8082   0.532   3.777   3.142 -0.0248 -0.1548 -0.2455
   62MOL0     C 8083   0.418   3.759   3.220 -0.3740 -0.5289  0.6338
   62MOL0     C 8084   0.396   3.856   3.317 -0.0630 -0.6410 -0.6197
   62MOL0     C 8085   0.279   3.860   3.397  0.0264  0.0803 -0.2280
   62MOL0     C 8086   0.187   3.756   3.386  0.3789 -0.9300  0.0308
   62MOL0     O 8087   0.071   3.742   3.463  0.1878  0.1354  0.0675
   62MOL0     C 8088  -0.019   3.848   3.436 -0.3463 -0.8755  0.1275
   62MOL0     C 8089  -0.157   3.824   3.507 -1.1413 -0.2092 -0.3158
   62MOL0     C 8090  -0.206   3.684   3.481  0.4600  0.6302  0.5977
   62MOL0     C 8091  -0.352   3.664   3.507  0.2437  0.9344 -0.0592
   62MOL0     C 8092  -0.407   3.571   3.410  0.5570  0.6060  0.4343
   62MOL0     C 8093  -0.552   3.532   3.443 -0.1060  0.0778  0.1009
   62MOL0     C 8094  -0.614   3.459   3.312 -0.1346 -0.3429 -0.1634
   62MOL0     C 8095  -0.726   3.360   3.340 -0.1560 -0.1158 -0.8228
   62MOL0    Cl 8096  -0.664   3.211   3.427 -0.2888  0.1568 -0.2109
   62MOL0     C 8097   0.215   3.652   3.299 -0.4854  0.2943  0.1259
   62MOL0     C 8098   0.324   3.661   3.204  0.8608 -0.4064 -0.4139
   62MOL0     O 8099   0.422   3.765   2.934  0.0287 -0.2198  0.2918
   62MOL0     C 8100   0.775   3.768   2.992  0.1734 -0.5212 -1.1074
   62MOL0     C 8101   0.891   3.772   2.930  0.4875  0.5636  0.0554
   62MOL0     N 8102   1.620   4.082   2.915 -0.0945  1.0762 -0.2199
   62MOL0     N 8103   1.749   4.067   2.897  0.2670  0.1981  0.4145
   62MOL0     C 8104   2.883   4.329   2.790  0.4783 -0.3626 -0.5929
   62MOL0     C 8105   2.989   4.417   2.769 -0.3073  0.2897  0.2554
   62MOL0     C 8106   3.210   4.800   2.665 -0.9311 -0.2910 -0.9657
   62MOL0     C 8107   3.323   4.762   2.733 -1.2021  0.2356  0.2235
   62MOL0     C 8108   3.444   4.828   2.722  1.0056 -0.5971 -0.0346
   62MOL0     C 8109   3.459   4.937   2.636 -0.0584 -0.1102  0.0573
   62MOL0     O 8110   3.582   4.992   2.647 -0.5011  0.1117  0.6512
   62MOL0     C 8111   3.599   5.105   2.567 -0.0956 -0.1828  0.4346
   62MOL0     C 8112   3.743   5.155   2.561  0.6582 -0.9297 -0.0949
   62MOL0     C 8113   3.783   5.217   2.697 -0.4679 -0.4544  0.3762
   62MOL0     C 8114   3.770   5.133   2.820 -0.1508 -0.2998  0.7468
   62MOL0     C 8115   3.826   5.189   2.937 -0.6706 -0.0090 -0.9616
   62MOL0     C 8116   3.869   5.255   3.026 -1.1323 -0.2962  1.0795
   62MOL0     C 8117   3.344   4.977   2.571  0.3813 -0.2682 -0.3922
   62MOL0     C 8118   3.213   4.908   2.584  0.3791  0.0992 -0.4598
   62MOL0     H 8119   2.820   4.704   2.859 -2.6348 -0.3224  0.4411
   62MOL0     H 8120   2.632   4.556   2.865 -0.0934 -0.8544 -0.2224
   62MOL0     H 8121   2.766   4.159   2.924 -1.1114 -0.9909  0.1516
   62MOL0     H 8122   2.693   4.105   2.787  0.5535  1.2702 -1.3512
   62MOL0     H 8123   2.511   4.213   3.003  0.3847  2.3556 -3.1644
   62MOL0     H 8124   2.560   4.052   3.028 -1.2846  0.9707 -0.1187
   62MOL0     H 8125   2.464   4.026   2.763 -0.8636 -1.2495  0.0900
   62MOL0     H 8126   2.385   4.175   2.803  0.5494 -0.7213 -0.9454
   62MOL0     H 8127   2.335   3.936   2.980 -0.4571 -0.6037 -0.6505
   62MOL0     H 8128   2.250   4.087   2.989 -2.1541  1.5161 -1.3785
   62MOL0     H 8129   2.268   3.895   2.752  0.4191  1.3949 -1.3938
   62MOL0     H 8130   2.211   4.056   2.727 -0.0289 -0.6285 -0.5474
   62MOL0     H 8131   2.035   4.011   2.924 -0.6388 -0.1853 -0.5981
   62MOL0     H 8132   2.096   3.847   2.931  1.5924 -0.2303  0.5865
   62MOL0     H 8133   2.022   3.855   2.666 -2.3658 -1.0569  0.4485
   62MOL0     H 8134   1.899   3.829   2.791 -1.7634  1.8992  2.7993
   62MOL0     H 8135   1.889   4.020   2.599  2.9103  0.0496 -1.0281
   62MOL0     H 8136   1.963   4.116   2.737 -1.3662 -0.0201  1.7705
   62MOL0     H 8137   1.632   4.005   2.600  2.8536  2.1813 -1.1455
   62MOL0     H 8138   1.411   4.062   2.652 -1.8916 -3.3568  0.4319
   62MOL0     H 8139   1.359   4.156   2.801 -1.1592 -0.9015  1.4685
   62MOL0     H 8140   1.340   3.934   2.922  0.8673 -0.3622 -1.0118
   62MOL0     H 8141   1.400   3.854   2.770  0.9969 -0.3150  0.5833
   62MOL0     H 8142   1.133   4.021   2.806  2.3372  2.5533 -1.4254
   62MOL0     H 8143   1.200   3.965   2.655  2.1965 -3.1129 -1.3276
   62MOL0     H 8144   1.141   3.790   2.891 -3.3707  0.3039 -0.3321
   62MOL0     H 8145   1.199   3.723   2.737 -1.8809  0.5314 -2.3926
   62MOL0     H 8146   0.779   3.839   2.622 -0.0825  3.5110  1.0943
   62MOL0     H 8147   0.570   3.826   2.729 -0.4430  1.5312  1.6807
   62MOL0     H 8148   0.477   3.928   3.311  0.8976 -1.8094 -2.3417
   62MOL0     H 8149   0.257   3.942   3.464 -2.3429 -0.1782 -0.6159
   62MOL0     H 8150  -0.031   3.849   3.327 -1.3812 -0.4111  0.2359
   62MOL0     H 8151   0.021   3.944   3.470  0.8887 -1.7955  1.3926
   62MOL0     H 8152  -0.229   3.904   3.488  2.6221  3.2357 -1.6091
   62MOL0     H 8153  -0.137   3.835   3.614  2.0286 -2.7666 -0.4858
   62MOL0     H 8154  -0.151   3.619   3.550 -1.0082 -0.5351  0.7036
   62MOL0     H 8155  -0.178   3.649   3.381 -1.5360  0.2274  0.1462
   62MOL0     H 8156  -0.365   3.628   3.610 -0.2086  2.5525  0.4771
   62MOL0     H 8157  -0.412   3.753   3.491  0.6438  1.0644 -0.8923
   62MOL0     H 8158  -0.343   3.482   3.399  2.0143  1.7550 -0.8755
   62MOL0     H 8159  -0.415   3.621   3.313 -0.8168 -0.0774  0.1667
   62MOL0     H 8160  -0.612   3.619   3.471  2.5280  1.4920  1.7071
   62MOL0     H 8161  -0.557   3.461   3.526 -0.3782  0.5140  0.4546
   62MOL0     H 8162  -0.657   3.539   3.252  2.1122  0.4703 -0.7973
   62MOL0     H 8163  -0.527   3.406   3.272 -0.3940 -3.4139  2.9126
   62MOL0     H 8164  -0.762   3.314   3.247 -1.1950  0.5403 -0.7561
   62MOL0     H 8165  -0.799   3.410   3.404  0.4978 -0.6748  0.3787
   62MOL0     H 8166   0.155   3.564   3.279  0.4300 -0.4598  0.6192
   62MOL0     H 8167   0.345   3.588   3.127  0.0067 -1.7303  0.5737
   62MOL0     H 8168   0.794   3.756   3.098  0.3784  1.0875 -0.9425
   62MOL0     H 8169   0.977   3.769   2.995  0.7868 -4.5912 -0.2324
   62MOL0     H 8170   2.904   4.223   2.777  0.7331 -0.6387  1.5698
   62MOL0     H 8171   3.087   4.384   2.736 -0.1236  1.9233 -0.9678
   62MOL0     H 8172   3.337   4.673   2.794  1.3341  0.2851 -0.1633
   62MOL0     H 8173   3.525   4.783   2.778  2.0499 -0.3408 -1.3064
   62MOL0     H 8174   3.531   5.181   2.604  1.7092  0.8053  1.8978
   62MOL0     H 8175   3.574   5.096   2.461  1.9185 -0.3674 -0.0753
   62MOL0     H 8176   3.806   5.068   2.544  1.5354 -0.4063  0.3852
   62MOL0     H 8177   3.764   5.238   2.493 -1.1771  4.1182  4.7375
   62MOL0     H 8178   3.730   5.312   2.706  0.7886  0.7267 -3.1375
   62MOL0     H 8179   3.889   5.243   2.689 -0.1486 -1.6580  0.4807
   62MOL0     H 8180   3.663   5.121   2.837 -0.6482  1.9559 -0.4193
   62MOL0     H 8181   3.811   5.032   2.809 -1.3250 -0.8180  0.9662
   62MOL0     H 8182   3.907   5.326   3.097 -0.8614 -0.7850  1.4264
   62MOL0     H 8183   3.346   5.063   2.506  1.1767  0.3163  0.3759
   62MOL0     H 8184   3.121   4.937   2.536 -2.5683 -2.3459  3.1619
   63MOL0     O 8185   7.373   1.139   7.284  0.0080 -0.0713  0.0080
   63MOL0     C 8186   7.344   1.259   7.307  0.1226 -0.1800  0.6084
   63MOL0     O 8187   7.242   1.304   7.391 -0.3269  0.4657  0.5666
   63MOL0     C 8188   7.170   1.227   7.467  0.1086 -0.3149 -0.3742
   63MOL0     C 8189   7.117   1.096   7.433 -0.5349  0.5668 -0.0734
   63MOL0     C 8190   7.036   1.021   7.523  0.0227 -0.3043 -0.7981
   63MOL0     C 8191   6.991   1.084   7.644 -0.0500  0.0013 -0.1907
   63MOL0     O 8192   6.916   1.014   7.738  0.1358  0.3036 -0.2240
   63MOL0     C 8193   6.773   1.029   7.725  0.1835 -0.9244 -0.5231
   63MOL0     C 8194   6.706   0.902   7.767 -0.2794  0.4740 -0.4402
   63MOL0     C 8195   6.552   0.917   7.750  0.3480  0.4914 -0.1844
   63MOL0     C 8196   6.507   0.917   7.612  0.3701  0.3165  0.4337
   63MOL0     C 8197   6.373   0.845   7.591 -0.5131  0.0020 -0.1313
   63MOL0     C 8198   6.256   0.925   7.652 -0.2055 -0.3197 -0.6029
   63MOL0     C 8199   6.121   0.859   7.603 -0.6693  0.1538  0.0717
   63MOL0     C 8200   6.016   0.956   7.637 -0.4605  0.0024  0.9988
   63MOL0     N 8201   5.887   0.883   7.629 -1.1129 -0.3468 -0.4470
   63MOL0     C 8202   5.803   0.870   7.516  0.3336 -0.2805  0.1824
   63MOL0     C 8203   5.696   0.805   7.571 -0.4240 -1.0329 -0.0884
   63MOL0     C 8204   5.564   0.796   7.511  0.0770  0.8329  0.2093
   63MOL0     C 8205   5.450   0.885   7.577 -0.1975  0.4766 -0.4967
   63MOL0     C 8206   5.311   0.871   7.513  0.3841  0.7624 -0.4048
   63MOL0     C 8207   5.245   0.752   7.585 -0.1858 -0.1225 -0.5456
   63MOL0     O 8208   5.104   0.764   7.555  0.2457 -0.0278  0.1085
   63MOL0     C 8209   5.024   0.663   7.567 -0.4687  1.1591  0.6403
   63MOL0     C 8210   4.991   0.571   7.458 -0.5514 -0.0860  0.2274
   63MOL0     C 8211   4.905   0.458   7.478 -0.3748 -0.2174 -0.9034
   63MOL0     C 8212   4.848   0.449   7.607  0.3854  0.2567 -0.0126
   63MOL0     C 8213   4.746   0.349   7.630 -0.2758 -0.2354  0.5535
   63MOL0     O 8214   4.677   0.349   7.749 -0.5682 -0.1904  0.3239
   63MOL0     C 8215   4.603   0.244   7.793  0.2763  0.3057  0.3757
   63MOL0     C 8216   4.585   0.242   7.928 -0.0517  0.0104  0.2729
   63MOL0     C 8217   4.541   0.126   7.998 -0.6279  0.0873  0.1930
   63MOL0     C 8218   4.500   0.015   7.922  0.9831  0.5378 -0.0390
   63MOL0     O 8219   4.458  -0.101   7.986 -0.1595  0.4024  0.7735
   63MOL0     C 8220   4.518  -0.135   8.108  0.3203  0.0178  0.2752
   63MOL0     C 8221   4.664  -0.165   8.063  0.0181  0.1265 -0.1917
   63MOL0     C 8222   4.737  -0.250   8.158  0.5455  0.5393 -0.4681
   63MOL0     C 8223   4.868  -0.310   8.110  0.2204 -0.0980  0.6012
   63MOL0     C 8224   4.969  -0.349   8.217 -1.2990 -0.6217 -0.4024
   63MOL0     C 8225   5.038  -0.237   8.294  0.2264  0.5380  0.0831
   63MOL0     C 8226   5.167  -0.277   8.371 -0.1874  0.6234 -0.6998
   63MOL0     C 8227   5.245  -0.172   8.449 -0.2944  0.1029 -0.0376
   63MOL0    Cl 8228   5.300  -0.045   8.343 -0.1442  0.0391 -0.3544
   63MOL0     C 8229   4.502   0.022   7.788  0.2095  0.2463 -0.2672
   63MOL0     C 8230   4.558   0.131   7.725 -0.2868  0.3498  0.8768
   63MOL0     O 8231   4.732   0.260   7.542  0.3295  0.1050 -0.5329
   63MOL0     C 8232   4.889   0.535   7.712 -0.9230 -0.1025 -0.1132
   63MOL0     C 8233   4.972   0.645   7.688 -0.1739  1.1653  0.3658
   63MOL0     N 8234   5.717   0.784   7.706 -0.0670  0.6668  0.0515
   63MOL0     N 8235   5.832   0.831   7.741  0.2478  0.0916  0.0781
   63MOL0     C 8236   7.061   1.202   7.682  0.7739 -0.5065  0.7831
   63MOL0     C 8237   7.148   1.262   7.603 -0.6519 -0.7305 -0.4708
   63MOL0     C 8238   7.416   1.359   7.211  0.1410  0.2593 -0.0348
   63MOL0     C 8239   7.517   1.333   7.121 -0.4894  0.1469  0.2283
   63MOL0     C 8240   7.579   1.433   7.041  0.3708  0.2752 -0.4996
   63MOL0     C 8241   7.532   1.564   7.049 -0.3991 -0.0753 -0.3947
   63MOL0     O 8242   7.599   1.651   6.972  0.5889  0.1692 -1.6905
   63MOL0     C 8243   7.569   1.789   6.994  0.6770 -0.7478  0.1650
   63MOL0     C 8244   7.644   1.868   6.878  0.6974  0.0741  0.1028
   63MOL0     C 8245   7.802   1.868   6.879  0.5892  0.5850 -0.5046
   63MOL0     C 8246   7.862   1.731   6.832  0.6545  0.2753  0.2566
   63MOL0     C 8247   8.002   1.729   6.804  0.1374  0.8876  0.5135
   63MOL0     C 8248   8.123   1.715   6.783  0.8978  0.4452 -0.1734
   63MOL0     C 8249   7.419   1.584   7.135  0.1272 -0.1013  0.1931
   63MOL0     C 8250   7.369   1.487   7.210 -0.3610 -0.1031 -0.4378
   63MOL0     H 8251   7.141   1.058   7.334 -0.0420 -2.2046  1.0366
   63MOL0     H 8252   7.001   0.925   7.487  1.3705 -1.6878  1.3837
   63MOL0     H 8253   6.744   1.058   7.624 -1.1927 -0.6847 -0.0828
   63MOL0     H 8254   6.738   1.103   7.798 -0.3367 -0.4533 -1.2446
   63MOL0     H 8255   6.721   0.876   7.872 -0.5753  0.5011 -0.3882
   63MOL0     H 8256   6.746   0.825   7.701 -1.0033  0.8319 -1.3173
   63MOL0     H 8257   6.518   1.010   7.797 -0.8643  0.1500 -0.3351
   63MOL0     H 8258   6.507   0.836   7.809  1.4125 -0.7403 -0.9992
   63MOL0     H 8259   6.489   1.022   7.585  2.0211  0.9085  1.4793
   63MOL0     H 8260   6.591   0.877   7.556  1.9882  0.7253  2.4671
   63MOL0     H 8261   6.370   0.746   7.638 -0.5987  0.7080  1.3809
   63MOL0     H 8262   6.358   0.828   7.484  0.1842  0.7654 -0.3642
   63MOL0     H 8263   6.253   1.028   7.614  0.4273  1.4822  3.6193
   63MOL0     H 8264   6.266   0.929   7.761  2.0729 -3.0090 -0.5895
   63MOL0     H 8265   6.122   0.834   7.497 -1.1117 -0.2241  0.1510
   63MOL0     H 8266   6.103   0.764   7.654 -1.3245 -0.3076 -0.9765
   63MOL0     H 8267   6.014   1.045   7.572 -3.5937 -0.9453 -0.4162
   63MOL0     H 8268   6.025   1.002   7.736  0.3142  0.2372  0.8276
   63MOL0     H 8269   5.812   0.908   7.415 -4.3153 -0.6168 -0.5780
   63MOL0     H 8270   5.535   0.690   7.510  0.6431  0.6153  2.0693
   63MOL0     H 8271   5.574   0.831   7.408  3.5682 -1.3829 -0.3614
   63MOL0     H 8272   5.478   0.990   7.583 -0.4797  0.4764  2.5115
   63MOL0     H 8273   5.452   0.850   7.681  0.9178  2.8957  0.3805
   63MOL0     H 8274   5.242   0.955   7.526  1.3711  1.5142  0.0677
   63MOL0     H 8275   5.318   0.856   7.405  0.5271 -0.0997 -0.2818
   63MOL0     H 8276   5.265   0.762   7.692  0.3731 -4.0854 -0.1496
   63MOL0     H 8277   5.286   0.655   7.557 -2.0669 -2.6771  4.3028
   63MOL0     H 8278   5.036   0.579   7.360 -1.2225 -0.4186 -0.1120
   63MOL0     H 8279   4.893   0.388   7.397  4.8013 -4.6774  1.5430
   63MOL0     H 8280   4.625   0.328   7.982 -0.2184  0.0215  0.3819
   63MOL0     H 8281   4.543   0.127   8.107 -2.4650 -1.7738  0.3010
   63MOL0     H 8282   4.456  -0.218   8.142  1.7011 -0.8115  0.8188
   63MOL0     H 8283   4.505  -0.069   8.194 -2.5912 -2.4399  1.9448
   63MOL0     H 8284   4.712  -0.068   8.049 -1.0251  0.2379 -4.4016
   63MOL0     H 8285   4.653  -0.207   7.962  0.9708 -2.4568  0.6853
   63MOL0     H 8286   4.672  -0.337   8.172  1.6335 -0.5224 -1.7266
   63MOL0     H 8287   4.757  -0.205   8.255  3.8139  0.0459 -0.8047
   63MOL0     H 8288   4.852  -0.391   8.038 -0.7143  0.5513  0.0633
   63MOL0     H 8289   4.917  -0.233   8.049 -1.8711 -1.7238 -3.5373
   63MOL0     H 8290   5.053  -0.394   8.162 -0.6956  1.9114 -1.7262
   63MOL0     H 8291   4.920  -0.417   8.287 -1.6826  0.4329  0.3773
   63MOL0     H 8292   4.956  -0.189   8.350 -2.3596 -2.3107 -0.9783
   63MOL0     H 8293   5.069  -0.158   8.225 -0.2202 -0.5196 -1.3541
   63MOL0     H 8294   5.144  -0.359   8.439 -1.0213  1.4510  0.0465
   63MOL0     H 8295   5.237  -0.318   8.298  0.7300  1.4981 -0.3265
   63MOL0     H 8296   5.337  -0.211   8.493 -0.2446 -2.5698 -2.2622
   63MOL0     H 8297   5.185  -0.130   8.531 -0.1379 -1.5877  0.9826
   63MOL0     H 8298   4.466  -0.062   7.730 -0.7644  0.9946 -0.7747
   63MOL0     H 8299   4.546   0.144   7.618  2.5170  1.4828  0.6315
   63MOL0     H 8300   4.842   0.534   7.809  0.0197 -0.2878  0.3564
   63MOL0     H 8301   5.000   0.717   7.765  1.5093 -0.3557  1.2638
   63MOL0     H 8302   7.031   1.237   7.781 -0.4419 -1.2493  0.7072
   63MOL0     H 8303   7.209   1.344   7.640 -2.2479  0.1506  0.3505
   63MOL0     H 8304   7.556   1.232   7.110  1.5099  1.0305 -1.3543
   63MOL0     H 8305   7.661   1.405   6.976 -2.1801  0.0419 -3.9181
   63MOL0     H 8306   7.592   1.820   7.097  0.9446 -1.9864  0.4985
   63MOL0     H 8307   7.463   1.813   6.981  0.6989 -1.2698 -1.1130
   63MOL0     H 8308   7.607   1.820   6.786  1.4775 -1.7822  0.7047
   63MOL0     H 8309   7.628   1.975   6.890  2.3912  0.2263  1.3900
   63MOL0     H 8310   7.838   1.887   6.981  2.3686 -2.5204 -0.4132
   63MOL0     H 8311   7.855   1.946   6.823  4.1684 -0.5134  1.0480
   63MOL0     H 8312   7.846   1.653   6.908 -2.8111 -1.3351 -1.8651
   63MOL0     H 8313   7.809   1.705   6.740  3.4479 -0.2629 -1.3446
   63MOL0     H 8314   8.229   1.708   6.768  0.9427 -1.5235  0.7481
   63MOL0     H 8315   7.366   1.679   7.133 -0.6707 -0.5307 -2.0325
   63MOL0     H 8316   7.292   1.510   7.283  1.1004 -0.9790  1.4592
   64MOL0     O 8317   6.110   4.262   7.748 -0.3388 -0.3502 -0.2744
   64MOL0     C 8318   6.165   4.233   7.645 -0.1203 -1.3455 -0.1794
   64MOL0     O 8319   6.118   4.145   7.554  0.2932 -0.5381  0.3374
   64MOL0     C 8320   5.994   4.087   7.570 -0.8468  0.6944  0.1581
   64MOL0     C 8321   5.992   3.950   7.577  0.3916  0.0093  0.2397
   64MOL0     C 8322   5.876   3.871   7.601 -0.3760 -0.4070 -0.0435
   64MOL0     C 8323   5.756   3.936   7.599  0.1593  0.3696 -0.2180
   64MOL0     O 8324   5.647   3.861   7.612 -0.8286  0.6038 -0.4237
   64MOL0     C 8325   5.529   3.905   7.546 -0.7987 -0.3704 -0.4888
   64MOL0     C 8326   5.436   3.779   7.522 -0.5508  0.3413 -0.1706
   64MOL0     C 8327   5.317   3.800   7.437 -0.2479  0.3157  0.2121
   64MOL0     C 8328   5.215   3.687   7.432  0.2442 -0.8335 -0.6517
   64MOL0     C 8329   5.102   3.726   7.337  0.0473  0.3748 -0.0523
   64MOL0     C 8330   4.991   3.630   7.359  0.2312 -0.0126  0.7890
   64MOL0     C 8331   4.876   3.672   7.273  1.3534 -0.1173 -0.2129
   64MOL0     C 8332   4.765   3.565   7.290  0.3330 -0.0694  0.7340
   64MOL0     N 8333   4.643   3.611   7.233  0.9377  0.3377  0.2641
   64MOL0     C 8334   4.622   3.689   7.129  0.3500  0.4916 -0.5623
   64MOL0     C 8335   4.489   3.712   7.120 -0.1950  0.8709  0.3583
   64MOL0     C 8336   4.439   3.823   7.039 -0.1109 -0.0042  0.2932
   64MOL0     C 8337   4.285   3.818   7.033  0.1323 -0.0316 -0.9062
   64MOL0     C 8338   4.236   3.936   6.943 -0.0536  0.9172 -0.3231
   64MOL0     C 8339   4.086   3.975   6.955 -0.6358  0.8435  0.1561
   64MOL0     O 8340   4.041   4.039   6.836  0.3168 -0.1009 -0.1023
   64MOL0     C 8341   3.932   3.976   6.778 -0.1661 -0.2438  0.5702
   64MOL0     C 8342   3.832   3.902   6.840  0.1673  0.2246 -0.7640
   64MOL0     C 8343   3.726   3.857   6.772 -0.1792  0.1871  0.1790
   64MOL0     C 8344   3.707   3.868   6.634 -0.6924  0.4048 -0.4168
   64MOL0     C 8345   3.575   3.836   6.583  0.6162 -0.0235 -0.7682
   64MOL0     O 8346   3.467   3.802   6.668 -0.1446 -0.1829 -0.0606
   64MOL0     C 8347   3.354   3.780   6.592 -0.4002 -0.0281 -0.0519
   64MOL0     C 8348   3.287   3.883   6.541  0.5520 -0.1645 -0.5861
   64MOL0     C 8349   3.168   3.884   6.469  0.6810  0.5313 -0.2039
   64MOL0     C 8350   3.128   3.762   6.425  0.6154  0.3892  0.0551
   64MOL0     O 8351   3.015   3.749   6.347 -0.7957 -0.0650  0.2097
   64MOL0     C 8352   2.905   3.801   6.426  0.2055 -0.0031 -0.2925
   64MOL0     C 8353   2.778   3.749   6.352 -0.3626 -0.6217  0.4768
   64MOL0     C 8354   2.643   3.806   6.414  0.1762  0.6141 -1.4891
   64MOL0     C 8355   2.630   3.768   6.567 -0.4101 -0.2427  1.1845
   64MOL0     C 8356   2.525   3.866   6.608  0.5259 -0.5428  0.5275
   64MOL0     C 8357   2.376   3.828   6.576 -0.1564 -0.3758 -0.0404
   64MOL0     C 8358   2.333   3.693   6.622 -0.0187 -0.0866 -0.5028
   64MOL0     C 8359   2.179   3.680   6.598  1.2113  0.0341 -0.8801
   64MOL0    Cl 8360   2.094   3.767   6.733  0.1420  0.5090 -0.0281
   64MOL0     C 8361   3.194   3.643   6.474  0.0315 -0.0363  0.9627
   64MOL0     C 8362   3.302   3.655   6.563 -0.4372 -0.4503  0.7152
   64MOL0     O 8363   3.570   3.837   6.457 -0.0317 -0.2991 -0.0845
   64MOL0     C 8364   3.812   3.922   6.561 -0.4675  0.6280  0.2255
   64MOL0     C 8365   3.927   3.976   6.629  0.3334 -0.2827  0.1695
   64MOL0     N 8366   4.432   3.633   7.216  0.7080  0.2491 -0.4047
   64MOL0     N 8367   4.521   3.565   7.277  0.0684 -0.3593  1.1149
   64MOL0     C 8368   5.754   4.077   7.584 -0.6899 -0.3238 -0.5158
   64MOL0     C 8369   5.871   4.156   7.574 -0.5904  0.0991  0.3730
   64MOL0     C 8370   6.296   4.292   7.617 -0.6651  0.0387  0.1837
   64MOL0     C 8371   6.348   4.400   7.679 -0.0943 -0.2557 -0.1702
   64MOL0     C 8372   6.474   4.447   7.648 -0.1726  0.5421 -0.6361
   64MOL0     C 8373   6.545   4.398   7.541 -0.1291 -0.4994  0.4316
   64MOL0     O 8374   6.668   4.454   7.511 -0.7019 -0.7667  0.6968
   64MOL0     C 8375   6.765   4.373   7.442  0.3645 -0.0576  0.2395
   64MOL0     C 8376   6.900   4.421   7.487  0.5016  0.4228 -1.1036
   64MOL0     C 8377   6.944   4.539   7.402  0.6576  0.2513  0.4534
   64MOL0     C 8378   7.076   4.596   7.447 -1.1948 -0.8103  0.3108
   64MOL0     C 8379   7.189   4.508   7.410 -0.0996  0.0706 -0.2736
   64MOL0     C 8380   7.281   4.431   7.383 -0.4589 -0.2038 -0.2082
   64MOL0     C 8381   6.497   4.294   7.470 -0.2923 -0.4517 -0.0114
   64MOL0     C 8382   6.372   4.241   7.506  0.0359  0.2631  0.5873
   64MOL0     H 8383   6.087   3.898   7.580 -0.8104 -2.2941  0.6166
   64MOL0     H 8384   5.886   3.763   7.598  3.4257 -0.1949 -0.6766
   64MOL0     H 8385   5.554   3.938   7.444 -3.1087 -1.8460 -1.6313
   64MOL0     H 8386   5.478   3.979   7.608 -1.2312 -0.9472 -0.1466
   64MOL0     H 8387   5.419   3.738   7.622 -1.0201 -0.6435 -0.6430
   64MOL0     H 8388   5.494   3.700   7.473 -0.8706 -2.3210  3.3311
   64MOL0     H 8389   5.351   3.807   7.333  1.7934  0.0003  0.8038
   64MOL0     H 8390   5.277   3.893   7.477 -0.9023  0.0422  0.2139
   64MOL0     H 8391   5.259   3.593   7.398  0.4962 -1.0740  0.2941
   64MOL0     H 8392   5.171   3.655   7.528 -0.1733 -0.1544 -0.6081
   64MOL0     H 8393   5.137   3.720   7.234 -1.2833  1.5567 -0.6182
   64MOL0     H 8394   5.065   3.828   7.357 -0.7765  0.2286 -0.7622
   64MOL0     H 8395   4.950   3.626   7.461 -2.3581 -0.6697 -0.1971
   64MOL0     H 8396   5.026   3.529   7.340 -0.0097 -0.0695  0.6396
   64MOL0     H 8397   4.823   3.764   7.298  0.0092 -1.2997  1.4710
   64MOL0     H 8398   4.904   3.699   7.171 -0.7926 -0.1283 -0.8474
   64MOL0     H 8399   4.748   3.562   7.398  0.5213  3.4523  0.9578
   64MOL0     H 8400   4.790   3.463   7.258  1.8476  0.3621  0.4703
   64MOL0     H 8401   4.693   3.735   7.062  2.5207  1.8026  2.4162
   64MOL0     H 8402   4.485   3.816   6.941  0.2318  1.1713  0.3478
   64MOL0     H 8403   4.476   3.920   7.075  4.3102  0.7365 -4.9836
   64MOL0     H 8404   4.240   3.824   7.133  0.8544  1.2505 -0.6393
   64MOL0     H 8405   4.261   3.717   6.998 -0.2243 -1.6123  3.3062
   64MOL0     H 8406   4.298   4.019   6.978  3.2081 -1.3527 -0.2763
   64MOL0     H 8407   4.258   3.911   6.839 -2.4119 -2.1531 -0.2380
   64MOL0     H 8408   4.062   4.035   7.043  1.7687 -0.0033  1.4744
   64MOL0     H 8409   4.044   3.876   6.976 -1.0417  0.6740 -1.3078
   64MOL0     H 8410   3.826   3.905   6.949  1.3985  0.2260 -0.6904
   64MOL0     H 8411   3.643   3.817   6.829  1.8697 -0.8068  2.6367
   64MOL0     H 8412   3.327   3.978   6.575 -1.6435  0.2367  1.1203
   64MOL0     H 8413   3.106   3.972   6.454 -1.0405 -0.8090 -1.2127
   64MOL0     H 8414   2.913   3.910   6.432  1.0507 -0.1002  0.7223
   64MOL0     H 8415   2.911   3.755   6.525 -0.6782 -0.8808 -0.6333
   64MOL0     H 8416   2.784   3.640   6.362 -0.5493 -0.6323  0.4726
   64MOL0     H 8417   2.776   3.761   6.244 -0.6551 -2.6951  0.2056
   64MOL0     H 8418   2.555   3.768   6.360  1.3441 -2.3052 -1.5375
   64MOL0     H 8419   2.637   3.915   6.403 -0.7726  1.0797  2.1599
   64MOL0     H 8420   2.598   3.663   6.568  1.0466 -0.7259  0.7989
   64MOL0     H 8421   2.723   3.771   6.626  1.6180 -1.5307 -1.6714
   64MOL0     H 8422   2.553   3.964   6.569 -2.2210 -0.0848 -0.5198
   64MOL0     H 8423   2.513   3.880   6.716 -0.9061 -1.6253  0.5433
   64MOL0     H 8424   2.352   3.837   6.470 -0.3456 -1.6075 -0.1173
   64MOL0     H 8425   2.317   3.901   6.632  3.5048  0.7621  2.6920
   64MOL0     H 8426   2.387   3.617   6.566  0.2357  0.6337 -1.2621
   64MOL0     H 8427   2.345   3.672   6.729  1.1408 -1.0011 -0.7985
   64MOL0     H 8428   2.167   3.571   6.609  1.4414 -0.0129 -1.0811
   64MOL0     H 8429   2.147   3.711   6.498  1.9063 -1.5177 -1.6219
   64MOL0     H 8430   3.160   3.543   6.449 -1.5283  0.8441 -0.6627
   64MOL0     H 8431   3.353   3.569   6.603  1.8007  0.6722  0.4254
   64MOL0     H 8432   3.812   3.929   6.453  0.0699  0.1217  0.1885
   64MOL0     H 8433   3.999   4.025   6.565 -1.0980  0.9464 -0.5771
   64MOL0     H 8434   5.659   4.130   7.581 -0.3844  0.2849  0.1590
   64MOL0     H 8435   5.853   4.262   7.561 -1.4911  0.1120  1.6060
   64MOL0     H 8436   6.306   4.447   7.767  1.3543  0.7700  0.0146
   64MOL0     H 8437   6.521   4.527   7.704  0.6252 -0.2624 -0.1287
   64MOL0     H 8438   6.748   4.383   7.335 -3.6407  0.5719  0.7902
   64MOL0     H 8439   6.755   4.267   7.468 -0.2731 -0.4924 -1.6677
   64MOL0     H 8440   6.903   4.431   7.596 -0.3963  3.5829 -1.2676
   64MOL0     H 8441   6.962   4.337   7.454  0.7501  0.5325 -0.9194
   64MOL0     H 8442   6.866   4.614   7.419 -0.3655 -1.2681  3.0081
   64MOL0     H 8443   6.943   4.500   7.300 -1.7037 -2.3041  1.3138
   64MOL0     H 8444   7.088   4.691   7.394  2.8180 -1.3418 -0.0514
   64MOL0     H 8445   7.088   4.620   7.553  2.9395 -0.5704 -0.0534
   64MOL0     H 8446   7.366   4.369   7.361 -1.0332 -0.4081 -2.0662
   64MOL0     H 8447   6.539   4.246   7.382 -0.5817  0.5734 -0.7382
   64MOL0     H 8448   6.340   4.154   7.450 -0.3759  1.5626 -1.3087
   65MOL0     O 8449   8.772   2.969   5.400  0.2856 -0.3115 -0.1779
   65MOL0     C 8450   8.753   2.927   5.282 -0.5725 -0.2533  0.4115
   65MOL0     O 8451   8.638   2.947   5.205  0.8893  0.6650 -0.4251
   65MOL0     C 8452   8.511   2.954   5.267  0.6291 -0.5396  0.1268
   65MOL0     C 8453   8.492   2.933   5.404 -0.0170 -0.0958  0.3933
   65MOL0     C 8454   8.371   2.973   5.461  0.9049 -0.9070  0.5979
   65MOL0     C 8455   8.276   3.044   5.386 -0.1964  0.0880 -0.1053
   65MOL0     O 8456   8.164   3.083   5.454 -0.0325 -0.3007  0.3138
   65MOL0     C 8457   8.056   3.141   5.389  0.1040  0.5170  0.4883
   65MOL0     C 8458   7.965   3.199   5.495 -0.0498 -0.0497  0.2443
   65MOL0     C 8459   7.826   3.232   5.433  0.2341  0.3327  0.7829
   65MOL0     C 8460   7.741   3.324   5.525 -0.0741 -0.4760 -0.7787
   65MOL0     C 8461   7.593   3.296   5.518  0.7076  0.2269  0.4622
   65MOL0     C 8462   7.523   3.379   5.622  0.6852  0.8476  0.1892
   65MOL0     C 8463   7.368   3.373   5.623 -0.5870  0.4094  0.7028
   65MOL0     C 8464   7.318   3.460   5.515 -0.1425 -0.0309 -0.3585
   65MOL0     N 8465   7.174   3.457   5.516 -0.1260 -0.4092 -0.1203
   65MOL0     C 8466   7.091   3.567   5.507 -0.7773 -1.1979  0.2075
   65MOL0     C 8467   6.967   3.516   5.509 -0.1662  0.4453  0.2689
   65MOL0     C 8468   6.833   3.595   5.504  0.6261 -0.9715 -0.1079
   65MOL0     C 8469   6.715   3.525   5.438 -0.1708 -0.4442 -0.1774
   65MOL0     C 8470   6.642   3.610   5.341 -0.4639  0.7757  0.1285
   65MOL0     C 8471   6.518   3.532   5.279 -0.2779 -0.0208 -0.1827
   65MOL0     O 8472   6.459   3.600   5.177  0.2280 -0.1473 -0.3877
   65MOL0     C 8473   6.354   3.551   5.117  0.4898  0.1121  0.2595
   65MOL0     C 8474   6.276   3.651   5.054 -0.7271  0.2548  0.0055
   65MOL0     C 8475   6.155   3.621   4.999 -0.6346 -0.1331 -0.2044
   65MOL0     C 8476   6.102   3.486   4.996 -0.2581 -0.7452 -0.1492
   65MOL0     C 8477   5.965   3.464   4.946 -0.8914  0.7132 -0.1284
   65MOL0     O 8478   5.939   3.339   4.893 -0.1027  0.2444 -0.6309
   65MOL0     C 8479   5.822   3.293   4.845  0.2959  0.0386 -0.4766
   65MOL0     C 8480   5.775   3.333   4.721  0.0889 -0.4940 -0.1229
   65MOL0     C 8481   5.655   3.292   4.676  0.5370 -0.2632  0.1363
   65MOL0     C 8482   5.563   3.237   4.770 -0.3700  0.9772 -0.0626
   65MOL0     O 8483   5.435   3.220   4.722 -0.1188 -0.4846 -0.2797
   65MOL0     C 8484   5.341   3.123   4.769 -0.4654  0.7331 -0.3531
   65MOL0     C 8485   5.196   3.147   4.711  0.3084 -0.0084  0.0812
   65MOL0     C 8486   5.082   3.079   4.794  1.1355 -0.5931 -0.3966
   65MOL0     C 8487   4.947   3.080   4.716  0.1852  0.0227  0.7281
   65MOL0     C 8488   4.846   2.989   4.783  0.6637  0.3197 -0.7363
   65MOL0     C 8489   4.706   3.007   4.720 -0.4347 -0.8795  0.0928
   65MOL0     C 8490   4.712   3.018   4.559  0.0876  0.3613  0.4424
   65MOL0     C 8491   4.574   3.040   4.491 -0.6005 -0.2369 -0.4027
   65MOL0    Cl 8492   4.468   2.896   4.525  0.1612 -0.0500 -0.1999
   65MOL0     C 8493   5.604   3.207   4.904  0.3338  0.5836 -1.2191
   65MOL0     C 8494   5.732   3.238   4.945  0.2930  0.5357  0.1504
   65MOL0     O 8495   5.886   3.558   4.930 -0.0409  1.1030 -0.7863
   65MOL0     C 8496   6.177   3.395   5.065  0.0667  0.2481  0.0411
   65MOL0     C 8497   6.305   3.419   5.117  0.0299 -0.3865  0.4681
   65MOL0     N 8498   6.972   3.382   5.519  0.4653  0.1655  0.2141
   65MOL0     N 8499   7.095   3.342   5.522 -0.2359  0.3079  0.7368
   65MOL0     C 8500   8.291   3.059   5.254 -0.1047  0.6453  0.4863
   65MOL0     C 8501   8.404   3.012   5.191 -0.3194 -0.6218 -0.5419
   65MOL0     C 8502   8.876   2.874   5.209 -0.3990 -0.2122 -0.4934
   65MOL0     C 8503   8.869   2.866   5.069 -0.0518  0.0562  0.3419
   65MOL0     C 8504   8.979   2.830   4.993 -0.1095  0.7399  0.7226
   65MOL0     C 8505   9.101   2.817   5.055  1.0852  0.3709  0.4042
   65MOL0     O 8506   9.207   2.767   4.985 -0.0206  0.0332  0.3136
   65MOL0     C 8507   9.200   2.720   4.841 -0.9232 -0.5047 -0.0671
   65MOL0     C 8508   9.343   2.653   4.828  0.6838 -0.2391  0.2297
   65MOL0     C 8509   9.360   2.610   4.684  0.3625 -0.5393 -0.6805
   65MOL0     C 8510   9.493   2.539   4.654  0.6559 -0.1358 -0.2545
   65MOL0     C 8511   9.494   2.413   4.733 -0.3801  0.0274 -0.3647
   65MOL0     C 8512   9.512   2.309   4.794 -0.5486  0.0541  0.9724
   65MOL0     C 8513   9.111   2.827   5.196  0.6836 -0.2724 -0.6362
   65MOL0     C 8514   8.996   2.841   5.276  0.3648  0.5996 -0.5197
   65MOL0     H 8515   8.563   2.874   5.462 -0.5395  2.1529  3.5781
   65MOL0     H 8516   8.360   2.946   5.566  1.6419  1.4074  1.3366
   65MOL0     H 8517   8.009   3.069   5.322  1.5025 -0.3811  0.4380
   65MOL0     H 8518   8.092   3.221   5.323 -0.3637  0.1367 -0.2494
   65MOL0     H 8519   8.007   3.285   5.546 -0.4059  0.1493  0.2065
   65MOL0     H 8520   7.949   3.116   5.564 -0.3244 -0.5211 -0.3637
   65MOL0     H 8521   7.769   3.140   5.417 -1.1992  1.0258  1.6989
   65MOL0     H 8522   7.841   3.279   5.335  1.6445 -0.0833  0.7849
   65MOL0     H 8523   7.763   3.295   5.629 -0.2216  0.9107 -0.3361
   65MOL0     H 8524   7.761   3.431   5.513 -2.8659  0.1630 -0.4107
   65MOL0     H 8525   7.568   3.189   5.511  1.7712  0.0556 -2.4499
   65MOL0     H 8526   7.565   3.330   5.417  1.0919  1.6616  0.8231
   65MOL0     H 8527   7.562   3.481   5.625  1.5611  0.5606 -0.9013
   65MOL0     H 8528   7.548   3.331   5.717  0.6451 -1.0317 -0.7075
   65MOL0     H 8529   7.334   3.270   5.619 -0.2836  0.2201  2.3184
   65MOL0     H 8530   7.332   3.414   5.718  1.2051 -0.5516  1.8635
   65MOL0     H 8531   7.358   3.423   5.420  2.6778  0.7207  0.4301
   65MOL0     H 8532   7.354   3.563   5.521  1.0389 -0.4875  1.6501
   65MOL0     H 8533   7.117   3.672   5.515  0.4910 -1.6157  5.0645
   65MOL0     H 8534   6.858   3.690   5.455 -1.0613 -0.8184 -0.7401
   65MOL0     H 8535   6.792   3.628   5.600  0.8896  1.1114 -0.6686
   65MOL0     H 8536   6.654   3.491   5.522  2.6001 -2.2822  1.2511
   65MOL0     H 8537   6.757   3.433   5.396 -0.0976 -0.9284  0.9198
   65MOL0     H 8538   6.588   3.689   5.395  0.3277  1.6965 -0.3950
   65MOL0     H 8539   6.713   3.654   5.271  0.6684 -0.6460  0.3321
   65MOL0     H 8540   6.447   3.523   5.362 -0.3523  1.3399 -0.0818
   65MOL0     H 8541   6.552   3.430   5.257 -1.3276 -0.5983  0.7522
   65MOL0     H 8542   6.305   3.755   5.048  0.3015 -0.0970 -1.9500
   65MOL0     H 8543   6.108   3.703   4.946 -0.0958  0.4566  0.2143
   65MOL0     H 8544   5.838   3.387   4.650  0.4316 -1.7497 -0.8033
   65MOL0     H 8545   5.614   3.313   4.578 -1.4329  2.6415  1.4556
   65MOL0     H 8546   5.333   3.128   4.877  0.0789 -0.9403 -0.2000
   65MOL0     H 8547   5.372   3.026   4.729 -1.7526  1.1545 -2.5318
   65MOL0     H 8548   5.200   3.121   4.605  4.1844 -0.0469  0.0886
   65MOL0     H 8549   5.186   3.254   4.731  0.9354 -0.4588  3.3057
   65MOL0     H 8550   5.070   3.123   4.894  1.0167 -1.0000 -0.2301
   65MOL0     H 8551   5.106   2.973   4.809 -1.1114 -1.2212 -0.8217
   65MOL0     H 8552   4.912   3.183   4.706 -2.0767 -0.8220 -0.8957
   65MOL0     H 8553   4.959   3.050   4.611  0.9998 -1.0971  1.1077
   65MOL0     H 8554   4.839   3.019   4.888 -0.3174 -1.5641 -0.2181
   65MOL0     H 8555   4.867   2.882   4.780 -0.5382  0.0592 -0.5640
   65MOL0     H 8556   4.654   3.096   4.757  1.7609  0.7764 -0.5866
   65MOL0     H 8557   4.643   2.922   4.749 -1.7480  0.2249  0.6201
   65MOL0     H 8558   4.768   3.107   4.529 -0.6452  0.2991 -1.2461
   65MOL0     H 8559   4.764   2.930   4.519  1.5452  1.2522  0.3121
   65MOL0     H 8560   4.584   3.048   4.383 -0.6015  1.5098 -0.3048
   65MOL0     H 8561   4.527   3.128   4.537  3.4976  0.2303  3.7040
   65MOL0     H 8562   5.540   3.174   4.986  0.9064  1.0097 -0.5833
   65MOL0     H 8563   5.764   3.210   5.045 -2.0120  0.5482  0.9656
   65MOL0     H 8564   6.146   3.292   5.082  0.6795 -0.3998 -2.2774
   65MOL0     H 8565   6.358   3.336   5.161  1.2179  1.1286  2.0601
   65MOL0     H 8566   8.228   3.128   5.200 -1.2920  2.0543  3.4580
   65MOL0     H 8567   8.422   3.024   5.084 -1.4100 -1.4237 -0.8330
   65MOL0     H 8568   8.776   2.883   5.015  0.7577 -1.6999 -1.7295
   65MOL0     H 8569   8.967   2.806   4.888 -0.2590  1.7143  0.5074
   65MOL0     H 8570   9.177   2.794   4.764  0.9673  2.8357  2.3345
   65MOL0     H 8571   9.122   2.645   4.827 -0.8586 -0.7664  0.9024
   65MOL0     H 8572   9.421   2.729   4.837 -0.3998  1.2094 -1.8553
   65MOL0     H 8573   9.357   2.576   4.904 -1.2125  0.6068  1.5000
   65MOL0     H 8574   9.344   2.696   4.619  0.7685  0.2382  0.2329
   65MOL0     H 8575   9.285   2.536   4.654 -0.8364  1.0519 -1.7661
   65MOL0     H 8576   9.512   2.521   4.548  0.9878  2.8389 -0.8084
   65MOL0     H 8577   9.575   2.601   4.691  0.5822  1.4179 -2.4763
   65MOL0     H 8578   9.505   2.218   4.850 -0.3660 -0.7057 -0.2066
   65MOL0     H 8579   9.200   2.789   5.244  0.3465  2.5392  2.5441
   65MOL0     H 8580   8.997   2.826   5.383  1.6802  0.0134 -0.6029
   66MOL0     O 8581   1.435   0.043   0.452  0.6514  0.4592 -1.5933
   66MOL0     C 8582   1.480   0.089   0.348  0.2117 -0.4511  0.1959
   66MOL0     O 8583   1.408   0.132   0.248  0.1252 -0.1948  0.4521
   66MOL0     C 8584   1.267   0.133   0.239 -0.5521  0.1632  0.0189
   66MOL0     C 8585   1.210   0.248   0.182  0.5010  0.1815  0.3793
   66MOL0     C 8586   1.066   0.237   0.166 -0.1612 -0.3281 -0.2389
   66MOL0     C 8587   0.987   0.131   0.213 -0.0811  0.4021 -0.4919
   66MOL0     O 8588   0.849   0.149   0.229 -0.0849 -0.1798  0.5088
   66MOL0     C 8589   0.777   0.025   0.242 -0.6287  0.5024 -0.1136
   66MOL0     C 8590   0.635   0.054   0.192  0.6909 -0.2509 -0.4801
   66MOL0     C 8591   0.562   0.145   0.289 -0.3302  0.1296 -0.2234
   66MOL0     C 8592   0.416   0.159   0.247 -0.1137 -0.0680 -0.7623
   66MOL0     C 8593   0.329   0.242   0.355 -0.6611  0.0673  0.7193
   66MOL0     C 8594   0.287   0.169   0.480 -0.0570  0.4430  0.7254
   66MOL0     C 8595   0.174   0.074   0.458  0.0843 -0.7042 -0.4911
   66MOL0     C 8596   0.176  -0.047   0.555  0.6198 -0.4845 -0.1985
   66MOL0     N 8597   0.305  -0.114   0.565 -0.7825  0.0993 -0.5740
   66MOL0     C 8598   0.378  -0.127   0.681 -0.4081  0.0926  0.1368
   66MOL0     C 8599   0.459  -0.235   0.663  0.5728  0.5007  0.5994
   66MOL0     C 8600   0.562  -0.300   0.759  0.0607 -0.2277  0.2620
   66MOL0     C 8601   0.685  -0.210   0.769 -0.4301 -0.8521 -0.5969
   66MOL0     C 8602   0.758  -0.213   0.639 -0.3137 -0.0390  0.3248
   66MOL0     C 8603   0.858  -0.093   0.632  0.4340 -0.4816  0.1145
   66MOL0     O 8604   0.961  -0.086   0.531  0.4233 -0.3122  0.3902
   66MOL0     C 8605   1.066  -0.169   0.539  0.2826 -0.4183 -0.0146
   66MOL0     C 8606   1.061  -0.308   0.531 -0.2340 -0.6887  0.7690
   66MOL0     C 8607   1.173  -0.390   0.567 -0.7078 -0.3356 -0.0484
   66MOL0     C 8608   1.299  -0.331   0.601 -0.2753 -1.0328 -0.9565
   66MOL0     C 8609   1.418  -0.411   0.629  0.4291  0.5782  0.8413
   66MOL0     O 8610   1.530  -0.345   0.676  0.1864  0.3532 -0.0257
   66MOL0     C 8611   1.652  -0.404   0.692 -0.3516  0.8308 -0.3167
   66MOL0     C 8612   1.750  -0.313   0.667  0.5302 -0.3531 -0.1205
   66MOL0     C 8613   1.886  -0.341   0.704  0.3578 -0.2072 -0.1029
   66MOL0     C 8614   1.915  -0.457   0.758 -0.1031 -1.5493  0.5478
   66MOL0     O 8615   2.053  -0.482   0.782 -0.3647  0.3319  0.3604
   66MOL0     C 8616   2.092  -0.572   0.891 -0.6016 -0.3651  0.1772
   66MOL0     C 8617   2.234  -0.549   0.937  0.1337  0.3452  0.6365
   66MOL0     C 8618   2.272  -0.394   0.951  0.6978  0.0590 -0.9153
   66MOL0     C 8619   2.389  -0.380   1.056 -0.0205  1.0827 -0.3856
   66MOL0     C 8620   2.407  -0.236   1.093 -0.8677 -0.5651  0.7914
   66MOL0     C 8621   2.444  -0.147   0.974 -0.3198  0.1649 -0.2794
   66MOL0     C 8622   2.580  -0.160   0.897  0.7931  0.7591  0.3257
   66MOL0     C 8623   2.704  -0.128   0.978  0.3940 -0.5698 -0.4000
   66MOL0    Cl 8624   2.766  -0.254   1.078  0.5427  0.2871 -0.0747
   66MOL0     C 8625   1.821  -0.563   0.760 -0.8135 -0.3162 -0.1944
   66MOL0     C 8626   1.685  -0.534   0.731 -0.1624 -0.1875 -0.8340
   66MOL0     O 8627   1.404  -0.534   0.605 -0.3448 -0.7036  0.3276
   66MOL0     C 8628   1.309  -0.194   0.597 -0.7436  0.1125 -0.6226
   66MOL0     C 8629   1.188  -0.120   0.571 -0.6860 -0.3638 -0.2771
   66MOL0     N 8630   0.441  -0.282   0.540  0.0387  1.0400  0.3057
   66MOL0     N 8631   0.346  -0.219   0.488  0.0747 -0.5058 -0.0160
   66MOL0     C 8632   1.062   0.021   0.257 -0.4768  0.4644 -0.0568
   66MOL0     C 8633   1.199   0.018   0.275  0.4256 -0.4542  0.4196
   66MOL0     C 8634   1.626   0.076   0.329  0.4105 -0.3734  0.8294
   66MOL0     C 8635   1.686   0.137   0.216 -0.1697  0.8747 -0.1451
   66MOL0     C 8636   1.828   0.128   0.206 -0.0651  0.1297 -1.0212
   66MOL0     C 8637   1.907   0.057   0.301 -0.5684 -0.6971  0.8674
   66MOL0     O 8638   2.044   0.054   0.283 -0.0926 -0.3090  0.0202
   66MOL0     C 8639   2.120   0.083   0.396 -0.0770 -0.6220  1.1518
   66MOL0     C 8640   2.175  -0.046   0.457 -1.1315  0.0514  0.4115
   66MOL0     C 8641   2.300  -0.018   0.562 -0.6391  1.0727 -0.1758
   66MOL0     C 8642   2.263   0.084   0.668  0.3058  0.9139 -0.0918
   66MOL0     C 8643   2.168   0.021   0.766  0.3943 -0.7427 -0.3553
   66MOL0     C 8644   2.102  -0.033   0.857  1.0538 -0.4819  1.1284
   66MOL0     C 8645   1.840  -0.001   0.410 -0.4346  0.8409  0.0093
   66MOL0     C 8646   1.705   0.011   0.422 -0.2524  0.4374 -0.0368
   66MOL0     H 8647   1.263   0.339   0.156  0.1502  0.1842 -0.3542
   66MOL0     H 8648   1.008   0.322   0.129 -1.1504 -0.2864  1.2966
   66MOL0     H 8649   0.778  -0.019   0.342  0.3962 -0.6061 -0.5951
   66MOL0     H 8650   0.817  -0.051   0.174 -2.1262 -0.2861 -0.1560
   66MOL0     H 8651   0.571  -0.034   0.182  1.4595 -0.8710 -0.0573
   66MOL0     H 8652   0.628   0.107   0.096 -2.2551 -0.2447 -0.3537
   66MOL0     H 8653   0.617   0.239   0.292 -1.7217  0.9661 -0.1760
   66MOL0     H 8654   0.570   0.102   0.389 -2.5160  0.0273 -0.0444
   66MOL0     H 8655   0.411   0.211   0.151 -0.5410  4.6046  1.5300
   66MOL0     H 8656   0.365   0.064   0.230 -1.9297  0.3880  1.5854
   66MOL0     H 8657   0.245   0.285   0.300  0.5352  0.4029 -0.9479
   66MOL0     H 8658   0.397   0.321   0.387 -0.7605 -0.1883  1.5741
   66MOL0     H 8659   0.259   0.246   0.552  0.5203  0.2439  1.1767
   66MOL0     H 8660   0.370   0.111   0.521  0.0953 -2.0695 -2.6334
   66MOL0     H 8661   0.075   0.118   0.472  0.6470 -0.2117  2.4048
   66MOL0     H 8662   0.185   0.031   0.357  1.6934 -1.0394 -0.1991
   66MOL0     H 8663   0.109  -0.121   0.512 -0.2217  0.0955  0.0806
   66MOL0     H 8664   0.141  -0.009   0.652 -4.1351 -0.2518 -1.7787
   66MOL0     H 8665   0.384  -0.059   0.765 -1.1452  0.1648  0.1384
   66MOL0     H 8666   0.589  -0.404   0.739 -1.1903 -0.2264 -1.6291
   66MOL0     H 8667   0.515  -0.294   0.858  0.9937 -0.4706  0.7313
   66MOL0     H 8668   0.752  -0.245   0.848 -0.9552 -2.1816 -0.7019
   66MOL0     H 8669   0.653  -0.107   0.785  0.4926 -0.5326 -0.7414
   66MOL0     H 8670   0.805  -0.311   0.626  1.4431  0.5535  1.7705
   66MOL0     H 8671   0.686  -0.208   0.556 -1.4324  0.6091  1.3024
   66MOL0     H 8672   0.904  -0.093   0.732  0.6563  2.7758  0.1200
   66MOL0     H 8673   0.797  -0.004   0.614 -1.4180 -1.6870  0.2830
   66MOL0     H 8674   0.963  -0.340   0.497  0.9408 -0.2750 -3.4934
   66MOL0     H 8675   1.158  -0.498   0.563  3.1096 -0.9701 -1.4316
   66MOL0     H 8676   1.714  -0.223   0.620  1.1173 -0.4467 -0.7608
   66MOL0     H 8677   1.954  -0.257   0.712 -1.0946  1.1069 -0.8874
   66MOL0     H 8678   2.107  -0.674   0.855 -2.2191 -0.1402 -1.2770
   66MOL0     H 8679   2.019  -0.559   0.972 -0.1836  0.7024  0.4005
   66MOL0     H 8680   2.312  -0.601   0.881 -1.5756 -4.2628  2.0613
   66MOL0     H 8681   2.237  -0.595   1.036  2.8840 -0.6867  0.1838
   66MOL0     H 8682   2.184  -0.342   0.989 -1.1803 -3.4485 -0.0484
   66MOL0     H 8683   2.296  -0.355   0.852  0.0853 -2.6565 -2.2176
   66MOL0     H 8684   2.360  -0.431   1.148 -2.2701  2.2889 -0.3412
   66MOL0     H 8685   2.482  -0.428   1.024 -1.4919 -0.7690 -2.1589
   66MOL0     H 8686   2.479  -0.219   1.174 -2.6887  2.8285  1.9188
   66MOL0     H 8687   2.313  -0.197   1.134 -1.0659  0.2799 -0.4332
   66MOL0     H 8688   2.442  -0.045   1.013  1.9743  0.2864 -0.3184
   66MOL0     H 8689   2.366  -0.132   0.899 -1.6200 -0.8546  0.8279
   66MOL0     H 8690   2.588  -0.264   0.862 -1.5301  0.9827 -1.1125
   66MOL0     H 8691   2.564  -0.088   0.817 -0.5278  0.9717  0.7499
   66MOL0     H 8692   2.682  -0.039   1.038  0.2582  0.3497 -1.7643
   66MOL0     H 8693   2.782  -0.101   0.906 -0.1278 -1.1192 -1.1771
   66MOL0     H 8694   1.856  -0.658   0.801  0.6394  0.8136  1.2934
   66MOL0     H 8695   1.610  -0.606   0.763  0.1793  0.1603  0.8742
   66MOL0     H 8696   1.397  -0.133   0.609  0.7557 -1.4947 -2.7533
   66MOL0     H 8697   1.194  -0.011   0.571 -1.0045 -0.3459 -0.3769
   66MOL0     H 8698   1.015  -0.074   0.277 -0.7066  0.5919  0.0113
   66MOL0     H 8699   1.257  -0.069   0.307  2.0194  1.4388  3.1176
   66MOL0     H 8700   1.622   0.188   0.145 -2.6025  0.7273  1.8064
   66MOL0     H 8701   1.884   0.170   0.123  2.2097 -1.7802 -0.5727
   66MOL0     H 8702   2.054   0.140   0.463  2.0419  0.6043  2.3110
   66MOL0     H 8703   2.200   0.151   0.368  0.3753 -0.9067  1.7154
   66MOL0     H 8704   2.093  -0.104   0.501 -2.9029  1.7233 -0.5429
   66MOL0     H 8705   2.222  -0.108   0.381 -1.1261 -0.7302  1.0378
   66MOL0     H 8706   2.388   0.017   0.507 -1.5165  1.5732 -1.2997
   66MOL0     H 8707   2.334  -0.114   0.600 -2.7072  0.6365  0.6943
   66MOL0     H 8708   2.354   0.122   0.715  0.8159  3.0989 -2.5941
   66MOL0     H 8709   2.216   0.168   0.617 -1.4691 -1.2320 -2.2648
   66MOL0     H 8710   2.055  -0.090   0.936 -0.2341 -0.2235  0.5820
   66MOL0     H 8711   1.890  -0.056   0.488 -2.2177  0.4596  0.9434
   66MOL0     H 8712   1.653  -0.033   0.506  1.1392  2.3318  1.9116
   67MOL0     O 8713   0.985   9.826   5.785 -0.2817 -0.2979 -0.2424
   67MOL0     C 8714   1.038   9.938   5.781  0.7551 -0.2368 -0.0950
   67MOL0     O 8715   0.974  10.052   5.801 -0.1313 -0.7212 -0.5490
   67MOL0     C 8716   0.858  10.036   5.873 -0.2590 -0.7351 -0.0945
   67MOL0     C 8717   0.861  10.027   6.008 -0.8211  0.2485  0.5309
   67MOL0     C 8718   0.741  10.013   6.081  0.6770  0.4836 -1.2283
   67MOL0     C 8719   0.616  10.001   6.018  0.1457 -0.1582  0.2778
   67MOL0     O 8720   0.504   9.987   6.095 -0.0453  0.0332 -0.0005
   67MOL0     C 8721   0.395   9.906   6.037 -0.3224 -0.8145 -0.0913
   67MOL0     C 8722   0.312   9.859   6.153 -0.6525 -0.2390  0.7333
   67MOL0     C 8723   0.375   9.754   6.246 -0.3351  0.6146 -0.1328
   67MOL0     C 8724   0.268   9.636   6.270 -0.0985 -0.7287  0.0687
   67MOL0     C 8725   0.297   9.539   6.379 -0.2885 -0.3492 -0.5173
   67MOL0     C 8726   0.410   9.441   6.331 -0.5926  0.2792 -0.4579
   67MOL0     C 8727   0.534   9.479   6.412  0.1171 -0.0543 -0.3306
   67MOL0     C 8728   0.662   9.454   6.323 -0.6872  1.0054 -0.0280
   67MOL0     N 8729   0.790   9.485   6.394  0.7488  0.1301  0.1716
   67MOL0     C 8730   0.808   9.586   6.484  1.5410  0.2033  0.0806
   67MOL0     C 8731   0.938   9.566   6.525  0.2753  0.9062  0.7484
   67MOL0     C 8732   1.001   9.664   6.624  0.3705  0.7405  1.3467
   67MOL0     C 8733   1.068   9.576   6.738 -0.8134  0.2533  0.5567
   67MOL0     C 8734   1.127   9.666   6.842  0.3597  0.1543 -0.1294
   67MOL0     C 8735   1.181   9.606   6.966 -0.1612 -0.3587  0.5815
   67MOL0     O 8736   1.181   9.715   7.060 -0.0944  0.2884  0.1749
   67MOL0     C 8737   1.295   9.728   7.127 -0.2948 -0.1000  0.9117
   67MOL0     C 8738   1.331   9.643   7.227  0.0519  0.2359  0.5879
   67MOL0     C 8739   1.460   9.644   7.288 -0.0235 -0.0551 -0.6243
   67MOL0     C 8740   1.546   9.753   7.267 -0.7594 -0.4264  0.5876
   67MOL0     C 8741   1.676   9.774   7.334 -0.3955 -0.0620 -0.5916
   67MOL0     O 8742   1.743   9.890   7.304  0.3635  0.7982 -0.0526
   67MOL0     C 8743   1.869   9.916   7.362  0.2767  0.0512  0.2300
   67MOL0     C 8744   1.917   9.888   7.491  0.7180  0.3426 -0.3320
   67MOL0     C 8745   2.046   9.931   7.532 -0.3768 -0.0796 -0.0621
   67MOL0     C 8746   2.124  10.010   7.448 -0.5902 -0.2816  0.4625
   67MOL0     O 8747   2.249  10.052   7.495 -0.2556 -0.0434 -0.0175
   67MOL0     C 8748   2.343  10.125   7.411 -0.2277 -1.1460 -0.6490
   67MOL0     C 8749   2.437  10.214   7.493  0.0438  0.0700  0.8469
   67MOL0     C 8750   2.376  10.286   7.608  0.4306 -0.5344 -0.2639
   67MOL0     C 8751   2.474  10.359   7.693 -0.3928  0.3273 -0.4295
   67MOL0     C 8752   2.404  10.475   7.769  0.0821 -0.2296 -0.1103
   67MOL0     C 8753   2.504  10.543   7.867  0.5657  0.5799  0.0604
   67MOL0     C 8754   2.438  10.633   7.977  0.2348 -0.1986 -0.3362
   67MOL0     C 8755   2.533  10.714   8.052 -0.2848 -0.8321  1.2347
   67MOL0    Cl 8756   2.587  10.855   7.954  0.1636  0.1936 -0.1038
   67MOL0     C 8757   2.079  10.032   7.317  0.0988 -0.2042 -0.0845
   67MOL0     C 8758   1.951   9.989   7.278 -0.3324 -0.0798 -0.2454
   67MOL0     O 8759   1.712   9.695   7.421  0.5856  0.4019  0.7558
   67MOL0     C 8760   1.497   9.842   7.166 -0.6112 -0.1191 -1.2578
   67MOL0     C 8761   1.380   9.822   7.089 -0.9856  0.9374  1.0954
   67MOL0     N 8762   1.000   9.468   6.441 -0.1164  0.2071 -1.7189
   67MOL0     N 8763   0.902   9.424   6.365 -1.4199  0.0722 -0.7869
   67MOL0     C 8764   0.617  10.023   5.883 -0.1583  0.9067 -0.8539
   67MOL0     C 8765   0.735  10.031   5.814  0.8176 -0.2361 -0.3785
   67MOL0     C 8766   1.168   9.943   5.715 -0.4071 -0.3259 -0.1929
   67MOL0     C 8767   1.239  10.065   5.718 -0.1220 -0.2977 -0.4313
   67MOL0     C 8768   1.368  10.077   5.664 -0.1859  0.7237 -0.2246
   67MOL0     C 8769   1.428   9.954   5.610  0.9898 -0.2483  0.5234
   67MOL0     O 8770   1.557   9.954   5.557 -0.2290  0.6476  0.3675
   67MOL0     C 8771   1.611  10.073   5.504 -0.4366  0.1871  0.6588
   67MOL0     C 8772   1.728  10.030   5.410 -1.2491  0.2611 -0.1665
   67MOL0     C 8773   1.690   9.920   5.304 -0.2688 -0.0070 -0.1526
   67MOL0     C 8774   1.804   9.891   5.207 -0.3432  0.2807  0.0105
   67MOL0     C 8775   1.928   9.842   5.270  0.4280 -0.7098 -0.2787
   67MOL0     C 8776   2.035   9.815   5.314 -0.7083  0.8032 -0.3020
   67MOL0     C 8777   1.364   9.839   5.606 -0.1284  0.0508  0.5950
   67MOL0     C 8778   1.235   9.832   5.653 -0.0411 -0.2388  0.8857
   67MOL0     H 8779   0.958  10.017   6.056 -0.3329 -1.4778 -0.7008
   67MOL0     H 8780   0.743  10.011   6.190 -2.2161 -3.6243 -1.0209
   67MOL0     H 8781   0.438   9.817   5.990 -1.6271 -1.3723 -0.2866
   67MOL0     H 8782   0.329   9.955   5.964  0.2784 -2.3091 -1.7182
   67MOL0     H 8783   0.227   9.805   6.109 -1.3509  1.9049 -0.7185
   67MOL0     H 8784   0.272   9.947   6.205 -0.6015  1.3723 -1.7419
   67MOL0     H 8785   0.384   9.797   6.346 -3.1990  1.1828 -0.0619
   67MOL0     H 8786   0.475   9.714   6.225  0.7825  3.1817 -0.1004
   67MOL0     H 8787   0.165   9.670   6.279  0.0444  0.0139 -0.9438
   67MOL0     H 8788   0.262   9.579   6.177  0.3014 -0.2080 -0.2831
   67MOL0     H 8789   0.209   9.474   6.390  0.1616 -1.2582 -2.0663
   67MOL0     H 8790   0.306   9.595   6.473 -1.1296 -0.2793 -0.4711
   67MOL0     H 8791   0.427   9.458   6.224  1.3615  0.1934 -0.1839
   67MOL0     H 8792   0.381   9.338   6.354 -2.6709  1.2964  1.9061
   67MOL0     H 8793   0.528   9.582   6.451  3.7522  0.3624 -0.5214
   67MOL0     H 8794   0.546   9.411   6.497  1.8209 -0.7038 -1.0425
   67MOL0     H 8795   0.655   9.522   6.238 -4.0425 -1.2007 -1.7352
   67MOL0     H 8796   0.662   9.350   6.288 -2.4306  0.7142  0.7392
   67MOL0     H 8797   0.735   9.657   6.521  0.2076 -0.1378 -1.7664
   67MOL0     H 8798   0.928   9.731   6.670 -1.0886  2.1376 -2.6147
   67MOL0     H 8799   1.069   9.733   6.573 -1.3764  0.3591 -1.7098
   67MOL0     H 8800   1.147   9.511   6.699 -0.5985 -0.9325  2.8297
   67MOL0     H 8801   0.997   9.513   6.792  1.7225 -0.6571  3.1091
   67MOL0     H 8802   1.205   9.732   6.802  0.6523  1.1266  1.9361
   67MOL0     H 8803   1.050   9.738   6.872  1.0572  0.6937  0.4056
   67MOL0     H 8804   1.280   9.566   6.944 -0.4914 -1.2494  0.6729
   67MOL0     H 8805   1.115   9.523   6.993 -0.6771 -0.7031 -1.5239
   67MOL0     H 8806   1.254   9.575   7.260  1.1402  0.0008  2.8773
   67MOL0     H 8807   1.480   9.567   7.361 -0.3894 -1.3204 -1.8171
   67MOL0     H 8808   1.858   9.829   7.560  1.4900  0.7024  0.6529
   67MOL0     H 8809   2.085   9.912   7.632 -2.8999 -0.1499  0.9667
   67MOL0     H 8810   2.284  10.199   7.356 -0.0642  2.5837  3.5901
   67MOL0     H 8811   2.407  10.056   7.356  4.4661  0.5901  2.0882
   67MOL0     H 8812   2.480  10.287   7.423  0.3666 -0.6169  0.3139
   67MOL0     H 8813   2.519  10.150   7.527  0.1251 -1.8090 -2.4181
   67MOL0     H 8814   2.323  10.210   7.666  0.5988 -0.3461  0.1342
   67MOL0     H 8815   2.305  10.363   7.577  0.2692 -0.9021 -0.8225
   67MOL0     H 8816   2.514  10.286   7.764  1.8762 -0.4332 -2.3552
   67MOL0     H 8817   2.558  10.398   7.635  0.3211 -1.2822 -0.5367
   67MOL0     H 8818   2.330  10.429   7.835  2.0048  1.3358  3.4591
   67MOL0     H 8819   2.363  10.554   7.705  0.5787  0.0856 -0.0542
   67MOL0     H 8820   2.565  10.612   7.808  0.6728  0.7898  0.4126
   67MOL0     H 8821   2.569  10.467   7.910 -1.4168 -0.8493  0.6736
   67MOL0     H 8822   2.362  10.702   7.940 -0.4251 -0.2955  0.7792
   67MOL0     H 8823   2.388  10.573   8.054 -0.1952  1.4906  0.7417
   67MOL0     H 8824   2.622  10.653   8.071  1.9207  1.9903  0.6284
   67MOL0     H 8825   2.500  10.753   8.149 -2.5378  0.4657  0.0357
   67MOL0     H 8826   2.135  10.094   7.249 -3.1181  1.5419 -1.3781
   67MOL0     H 8827   1.925  10.033   7.182 -1.3310 -0.8785 -0.3553
   67MOL0     H 8828   1.542   9.940   7.149 -1.2341 -0.3914 -5.7496
   67MOL0     H 8829   1.354   9.895   7.014  0.4253 -0.5941 -1.0059
   67MOL0     H 8830   0.525  10.052   5.833 -0.6096  2.7673  0.8744
   67MOL0     H 8831   0.728  10.036   5.705 -0.1035 -1.5445 -0.4075
   67MOL0     H 8832   1.195  10.155   5.759  0.3360 -0.2034 -0.1336
   67MOL0     H 8833   1.419  10.173   5.671 -0.3220  0.6733  3.8364
   67MOL0     H 8834   1.656  10.134   5.582 -0.4043  0.3745  0.4945
   67MOL0     H 8835   1.543  10.145   5.457  2.2358  1.2866 -1.8618
   67MOL0     H 8836   1.768  10.115   5.355 -2.1721 -0.5340 -2.1541
   67MOL0     H 8837   1.810   9.987   5.469 -1.6177 -0.8204 -0.4234
   67MOL0     H 8838   1.604   9.959   5.248  0.6992  1.9170 -0.3941
   67MOL0     H 8839   1.652   9.830   5.352 -0.1269  0.9112  1.7775
   67MOL0     H 8840   1.769   9.807   5.146  0.1845  0.6937 -0.8703
   67MOL0     H 8841   1.829   9.980   5.149 -0.7625 -0.1340 -0.8040
   67MOL0     H 8842   2.135   9.795   5.346 -0.0009  1.7764 -1.8085
   67MOL0     H 8843   1.405   9.748   5.562 -0.5339  0.7451 -1.3049
   67MOL0     H 8844   1.180   9.738   5.648 -0.2425 -0.0784 -0.3127
   68MOL0     O 8845   7.537   0.285   0.325 -0.5955  0.9638  0.4509
   68MOL0     C 8846   7.553   0.392   0.381 -0.6847  0.0678  0.0699
   68MOL0     O 8847   7.458   0.490   0.383 -1.3249 -0.0873  0.4589
   68MOL0     C 8848   7.326   0.466   0.374 -0.7141 -0.0573 -0.4244
   68MOL0     C 8849   7.258   0.342   0.402  0.0058  0.0783 -0.0104
   68MOL0     C 8850   7.119   0.331   0.396 -0.3862 -0.4038  0.6245
   68MOL0     C 8851   7.045   0.442   0.351 -1.0810  0.2028  0.3410
   68MOL0     O 8852   6.910   0.440   0.342 -0.3567 -0.1456  0.4586
   68MOL0     C 8853   6.869   0.332   0.263  0.6876  0.0159  0.8209
   68MOL0     C 8854   6.749   0.386   0.183 -0.9429 -0.5285 -0.1739
   68MOL0     C 8855   6.616   0.347   0.259  0.0601 -0.8820  0.2239
   68MOL0     C 8856   6.500   0.386   0.161 -0.8485 -0.0605 -0.2799
   68MOL0     C 8857   6.361   0.328   0.205 -1.0738 -0.2678  0.0269
   68MOL0     C 8858   6.306   0.397   0.327  1.3094 -0.3008 -0.6802
   68MOL0     C 8859   6.154   0.389   0.358  0.0522  0.2890  0.0437
   68MOL0     C 8860   6.094   0.257   0.312  0.7506 -0.0254  0.4019
   68MOL0     N 8861   5.951   0.276   0.313  1.1663 -0.0568 -0.3437
   68MOL0     C 8862   5.870   0.247   0.420 -0.4217 -0.2000 -0.5175
   68MOL0     C 8863   5.747   0.247   0.366  0.2609 -0.0552 -0.0106
   68MOL0     C 8864   5.614   0.234   0.430  0.4140  0.2766 -0.1158
   68MOL0     C 8865   5.593   0.345   0.532 -0.0611 -0.3144 -0.3898
   68MOL0     C 8866   5.485   0.302   0.628  0.4733 -0.4552  0.2353
   68MOL0     C 8867   5.424   0.425   0.701 -0.2993  0.7483 -0.2349
   68MOL0     O 8868   5.341   0.391   0.820 -0.6324  0.2211 -0.1815
   68MOL0     C 8869   5.204   0.370   0.810 -0.1051  0.1357 -0.2914
   68MOL0     C 8870   5.138   0.373   0.686 -0.2143 -0.9102  1.3098
   68MOL0     C 8871   5.002   0.353   0.679 -0.0616  0.2603  0.4291
   68MOL0     C 8872   4.929   0.325   0.794 -0.3511 -0.2346 -0.1882
   68MOL0     C 8873   4.790   0.259   0.783  0.6548 -1.5386 -0.1320
   68MOL0     O 8874   4.758   0.207   0.659  0.3816  0.1761 -0.1526
   68MOL0     C 8875   4.623   0.181   0.623 -0.5874 -0.2145  0.0341
   68MOL0     C 8876   4.515   0.260   0.672  0.0901  0.3361  0.5807
   68MOL0     C 8877   4.385   0.232   0.630  0.3466  0.4955  0.4358
   68MOL0     C 8878   4.355   0.124   0.543  0.4436  0.0216  0.1195
   68MOL0     O 8879   4.227   0.079   0.511  0.2826 -0.7355  0.4702
   68MOL0     C 8880   4.112   0.168   0.523  0.9336  0.2549  0.4852
   68MOL0     C 8881   3.999   0.074   0.489  0.2101 -0.4693 -0.2692
   68MOL0     C 8882   3.867   0.161   0.474  0.0874  1.1554  0.3137
   68MOL0     C 8883   3.814   0.253   0.585 -0.2209  0.6565 -0.3076
   68MOL0     C 8884   3.666   0.297   0.573 -0.6360 -0.1533  0.1499
   68MOL0     C 8885   3.631   0.364   0.705 -0.4638  0.3971  0.3533
   68MOL0     C 8886   3.482   0.387   0.723 -0.1792 -1.3998 -0.2549
   68MOL0     C 8887   3.438   0.368   0.871  0.4991  0.2657  0.9703
   68MOL0    Cl 8888   3.435   0.187   0.910  0.0398  0.0862  0.3986
   68MOL0     C 8889   4.465   0.063   0.476  0.4564  1.0963  0.0574
   68MOL0     C 8890   4.598   0.101   0.511 -0.3740 -0.3709 -0.3560
   68MOL0     O 8891   4.713   0.261   0.877  0.3388  1.3139 -0.3294
   68MOL0     C 8892   4.994   0.330   0.921 -0.4211  0.3156  0.5401
   68MOL0     C 8893   5.132   0.342   0.923  0.0357  0.1255  0.0071
   68MOL0     N 8894   5.758   0.279   0.230  0.7731  0.4379 -0.6591
   68MOL0     N 8895   5.878   0.286   0.199  0.3026  0.0426 -0.0392
   68MOL0     C 8896   7.112   0.560   0.318  0.1497 -0.4885  0.8157
   68MOL0     C 8897   7.252   0.572   0.325 -0.3775  0.4162  0.4961
   68MOL0     C 8898   7.690   0.433   0.416 -0.0966 -1.0352 -0.2777
   68MOL0     C 8899   7.794   0.345   0.431  0.6346 -0.1074 -0.0955
   68MOL0     C 8900   7.923   0.383   0.441  0.5992  0.6652  0.1624
   68MOL0     C 8901   7.960   0.522   0.435 -0.2904  0.4385  0.8047
   68MOL0     O 8902   8.105   0.528   0.441  0.2527 -0.5105 -0.4746
   68MOL0     C 8903   8.183   0.616   0.363 -0.1828  0.1657  0.3127
   68MOL0     C 8904   8.221   0.745   0.431  0.0023 -0.4371  0.0541
   68MOL0     C 8905   8.336   0.812   0.349 -0.2108 -0.5713  0.7783
   68MOL0     C 8906   8.368   0.937   0.422 -0.0526  0.3103 -0.6151
   68MOL0     C 8907   8.512   0.972   0.408  0.1792 -0.7554 -0.2106
   68MOL0     C 8908   8.634   1.012   0.394  0.5651  1.0716  0.0864
   68MOL0     C 8909   7.866   0.624   0.429  0.9387  0.3332 -0.3220
   68MOL0     C 8910   7.732   0.574   0.424  0.0797 -0.1897  1.1466
   68MOL0     H 8911   7.320   0.260   0.436  0.0075  1.4592  3.9018
   68MOL0     H 8912   7.067   0.241   0.425 -0.9537  0.1674  1.4204
   68MOL0     H 8913   6.837   0.245   0.322 -0.0845 -1.0174 -1.0395
   68MOL0     H 8914   6.943   0.301   0.188 -0.3404  1.0406 -0.6781
   68MOL0     H 8915   6.750   0.339   0.084 -1.3236 -1.1945  0.1335
   68MOL0     H 8916   6.755   0.492   0.155 -2.9144 -1.1638 -3.6125
   68MOL0     H 8917   6.604   0.398   0.355 -3.3746 -0.2101 -0.4306
   68MOL0     H 8918   6.597   0.240   0.276 -2.1070 -0.6007 -0.1104
   68MOL0     H 8919   6.493   0.495   0.154 -1.7389 -0.0183  0.9266
   68MOL0     H 8920   6.519   0.356   0.057  0.3358 -1.5557  0.3418
   68MOL0     H 8921   6.353   0.220   0.220 -1.9203 -0.0222  1.5856
   68MOL0     H 8922   6.288   0.354   0.128  0.5656  1.4227 -1.0620
   68MOL0     H 8923   6.338   0.501   0.327  1.4964 -0.0437  4.7700
   68MOL0     H 8924   6.347   0.371   0.425 -2.4672  3.1693  2.1746
   68MOL0     H 8925   6.133   0.412   0.463 -2.0432  3.5646 -0.9208
   68MOL0     H 8926   6.110   0.469   0.298 -1.0943 -0.6108 -0.3692
   68MOL0     H 8927   6.137   0.166   0.357  0.9661  0.3952  1.0617
   68MOL0     H 8928   6.114   0.246   0.205  0.8286 -0.7173  0.4790
   68MOL0     H 8929   5.907   0.229   0.521  1.8077 -0.9307 -1.4205
   68MOL0     H 8930   5.604   0.134   0.475  1.0344 -0.3085 -1.2363
   68MOL0     H 8931   5.545   0.230   0.346 -0.6433  0.3307  0.7322
   68MOL0     H 8932   5.577   0.435   0.472  4.2909  0.8461 -0.1314
   68MOL0     H 8933   5.684   0.366   0.589 -0.5852  0.3574  0.2385
   68MOL0     H 8934   5.410   0.250   0.567  1.5343  0.3165 -1.8281
   68MOL0     H 8935   5.531   0.234   0.700  0.2171  0.1295  0.9575
   68MOL0     H 8936   5.373   0.488   0.628 -2.1345  1.3362  1.4936
   68MOL0     H 8937   5.512   0.481   0.736  1.8636 -1.2059 -2.1255
   68MOL0     H 8938   5.195   0.383   0.595 -2.0212  2.2647  0.3626
   68MOL0     H 8939   4.948   0.349   0.585 -2.0567 -1.5656  1.5735
   68MOL0     H 8940   4.532   0.345   0.737 -1.4723 -0.3099  1.9308
   68MOL0     H 8941   4.309   0.302   0.664 -2.0354 -1.7199 -0.0111
   68MOL0     H 8942   4.120   0.256   0.460  1.7012 -2.4407 -3.5549
   68MOL0     H 8943   4.097   0.201   0.627 -2.1661 -1.2339  0.6115
   68MOL0     H 8944   3.982  -0.004   0.564 -2.9178 -2.7496 -3.0563
   68MOL0     H 8945   4.027   0.032   0.392  1.8213 -0.0015 -0.0398
   68MOL0     H 8946   3.786   0.088   0.465 -1.3767  2.3316  2.7804
   68MOL0     H 8947   3.882   0.223   0.386 -0.0567  1.5554  0.5695
   68MOL0     H 8948   3.823   0.187   0.671 -0.9848 -2.7464 -2.6552
   68MOL0     H 8949   3.883   0.337   0.595 -1.3444  1.5430  0.3273
   68MOL0     H 8950   3.618   0.204   0.541 -1.0777 -0.6611  2.1601
   68MOL0     H 8951   3.663   0.370   0.491  4.0521  0.4907  0.2824
   68MOL0     H 8952   3.676   0.463   0.718  1.0582  0.0381 -1.6173
   68MOL0     H 8953   3.649   0.292   0.785 -0.0206 -0.9276 -0.8923
   68MOL0     H 8954   3.442   0.486   0.699  2.7783 -0.7186 -2.9781
   68MOL0     H 8955   3.431   0.316   0.657  0.2758  1.1033 -3.4943
   68MOL0     H 8956   3.340   0.414   0.883  0.4999  1.3614 -2.3148
   68MOL0     H 8957   3.494   0.424   0.947 -0.9060 -0.2107  2.3992
   68MOL0     H 8958   4.440   0.005   0.387  2.3043 -1.1663  0.9109
   68MOL0     H 8959   4.684   0.053   0.465 -1.6240 -3.7950  0.5310
   68MOL0     H 8960   4.933   0.304   1.007 -0.5909  1.1915  0.6974
   68MOL0     H 8961   5.186   0.335   1.017 -1.0892 -0.5778  0.6129
   68MOL0     H 8962   7.059   0.643   0.271 -1.2414 -1.7530  0.0914
   68MOL0     H 8963   7.286   0.665   0.282 -2.8610  1.9108  1.5377
   68MOL0     H 8964   7.774   0.238   0.423  2.7389 -0.4016 -3.5091
   68MOL0     H 8965   8.004   0.312   0.450  0.0306 -0.0621 -0.3073
   68MOL0     H 8966   8.131   0.628   0.268 -0.0890 -1.1699  0.0813
   68MOL0     H 8967   8.269   0.556   0.333 -1.2036 -0.8759 -0.6098
   68MOL0     H 8968   8.134   0.812   0.430  0.6303  0.4950  1.9184
   68MOL0     H 8969   8.249   0.726   0.535 -1.2553 -1.8384  0.1660
   68MOL0     H 8970   8.296   0.827   0.248 -0.9787 -2.0723  0.8237
   68MOL0     H 8971   8.425   0.748   0.339  0.1122  0.0905 -1.0576
   68MOL0     H 8972   8.302   1.017   0.387  0.5091  1.6480  1.2862
   68MOL0     H 8973   8.347   0.935   0.529  0.2366  0.4181 -0.5554
   68MOL0     H 8974   8.739   1.033   0.395  0.9140 -0.5652  0.3176
   68MOL0     H 8975   7.883   0.731   0.424 -1.8342  1.0131  1.9450
   68MOL0     H 8976   7.648   0.643   0.410 -0.2593 -0.6327  0.9720
   69MOL0     O 8977   9.613   9.328   9.340  0.6019  0.4757 -0.3219
   69MOL0     C 8978   9.629   9.448   9.311  1.1524  0.5763 -0.0574
   69MOL0     O 8979   9.537   9.533   9.253  0.9079  0.6972 -0.5315
   69MOL0     C 8980   9.411   9.487   9.226  0.5692  0.3037 -0.6190
   69MOL0     C 8981   9.374   9.357   9.205  0.0889  0.8376 -0.4618
   69MOL0     C 8982   9.241   9.303   9.173 -0.2180 -0.8835  0.5759
   69MOL0     C 8983   9.134   9.394   9.150 -0.7317 -0.0033  0.0972
   69MOL0     O 8984   9.003   9.364   9.129 -0.3840 -0.0095 -0.7274
   69MOL0     C 8985   8.973   9.224   9.155  1.5913 -1.2645  0.5076
   69MOL0     C 8986   8.830   9.186   9.111 -0.2434  0.1402  0.4271
   69MOL0     C 8987   8.741   9.277   9.191  0.2391  0.2431 -0.2516
   69MOL0     C 8988   8.596   9.245   9.144 -0.4889  0.6595 -0.2619
   69MOL0     C 8989   8.503   9.356   9.178  0.4215  0.4640 -0.6224
   69MOL0     C 8990   8.458   9.344   9.328  0.2789  0.7379  0.3470
   69MOL0     C 8991   8.346   9.436   9.366  0.2793 -0.4806  0.1844
   69MOL0     C 8992   8.247   9.460   9.258  0.6419  0.2739  0.1184
   69MOL0     N 8993   8.116   9.511   9.306  0.0229  0.3834  0.2967
   69MOL0     C 8994   8.087   9.647   9.320 -0.2586  0.0690 -0.3458
   69MOL0     C 8995   7.963   9.643   9.384  0.4231 -0.2469 -0.4075
   69MOL0     C 8996   7.891   9.764   9.436  0.2232  0.1162 -0.6472
   69MOL0     C 8997   7.806   9.833   9.331  0.1302 -0.9603 -0.1442
   69MOL0     C 8998   7.763   9.971   9.365  0.2047  0.4069 -0.4772
   69MOL0     C 8999   7.629  10.004   9.297  0.0186  0.6048  0.0293
   69MOL0     O 9000   7.622  10.032   9.152 -0.4940  0.4630 -0.4078
   69MOL0     C 9001   7.506  10.000   9.087 -0.3847  0.3341 -0.1213
   69MOL0     C 9002   7.510   9.993   8.948 -0.5910 -0.4832  0.2331
   69MOL0     C 9003   7.407   9.956   8.863  0.7450  0.3600 -0.2992
   69MOL0     C 9004   7.281   9.925   8.926  0.5263 -0.0688  0.5891
   69MOL0     C 9005   7.170   9.865   8.849  0.2647 -1.1425 -0.0416
   69MOL0     O 9006   7.056   9.831   8.913  0.0619 -0.0973  0.0574
   69MOL0     C 9007   6.933   9.839   8.858  1.5974  0.5233 -0.6359
   69MOL0     C 9008   6.894   9.921   8.754  0.7261  0.7077 -0.5346
   69MOL0     C 9009   6.761   9.925   8.704  0.5559  0.1336  0.2727
   69MOL0     C 9010   6.663   9.850   8.776  0.6237  0.3273  0.0475
   69MOL0     O 9011   6.526   9.859   8.755 -0.4453  0.3601  0.4831
   69MOL0     C 9012   6.470   9.911   8.633 -0.2134  0.1034 -0.6014
   69MOL0     C 9013   6.340   9.834   8.582  0.5141 -0.2657 -0.9271
   69MOL0     C 9014   6.360   9.724   8.472  0.2816 -0.0348  0.9403
   69MOL0     C 9015   6.399   9.796   8.333  0.3818 -0.8896 -0.4745
   69MOL0     C 9016   6.362   9.700   8.214  0.6914 -1.4193 -0.1261
   69MOL0     C 9017   6.218   9.715   8.174 -0.5089  0.5424  0.1133
   69MOL0     C 9018   6.170   9.584   8.097  0.5456 -0.1629 -0.4662
   69MOL0     C 9019   6.154   9.459   8.184 -0.5685 -0.2248  0.0823
   69MOL0    Cl 9020   6.036   9.501   8.320 -0.1798 -0.3836  0.1331
   69MOL0     C 9021   6.700   9.773   8.883 -0.4928  0.3409 -0.8520
   69MOL0     C 9022   6.832   9.772   8.933 -0.1489  0.1163  0.6719
   69MOL0     O 9023   7.191   9.866   8.727 -0.7155 -0.1136 -0.3884
   69MOL0     C 9024   7.274   9.942   9.065 -0.5804 -0.1477 -0.4093
   69MOL0     C 9025   7.387   9.977   9.147  0.1420  0.5888  0.6926
   69MOL0     N 9026   7.931   9.514   9.414  0.0140  0.2254 -0.2000
   69MOL0     N 9027   8.025   9.433   9.367 -0.1867 -0.4240 -0.0100
   69MOL0     C 9028   9.173   9.535   9.173  0.0325  0.2812 -0.4834
   69MOL0     C 9029   9.301   9.577   9.207 -0.0705  0.3677 -0.6323
   69MOL0     C 9030   9.763   9.489   9.336  0.7998 -0.2237  0.0285
   69MOL0     C 9031   9.798   9.629   9.306  0.5109 -0.2741  0.4199
   69MOL0     C 9032   9.924   9.674   9.343 -0.3025 -0.1832  0.1279
   69MOL0     C 9033  10.014   9.587   9.415 -0.9961  0.2790  0.2769
   69MOL0     O 9034  10.135   9.616   9.478  0.2666  0.6482 -0.2041
   69MOL0     C 9035  10.162   9.753   9.509  0.2036 -0.3989 -0.7975
   69MOL0     C 9036  10.242   9.766   9.638 -0.3696  0.3945 -0.2648
   69MOL0     C 9037  10.380   9.715   9.635 -0.1409 -0.2469  0.2663
   69MOL0     C 9038  10.467   9.750   9.761  0.3488 -0.2268 -0.2781
   69MOL0     C 9039  10.596   9.696   9.749  0.0837 -0.1252 -0.4553
   69MOL0     C 9040  10.715   9.661   9.752  0.0132 -0.2253 -0.2711
   69MOL0     C 9041   9.979   9.456   9.424 -0.7922  1.0421  0.4180
   69MOL0     C 9042   9.858   9.399   9.392 -0.7769  0.3138 -0.0003
   69MOL0     H 9043   9.444   9.273   9.213 -1.9773 -0.8000  4.1133
   69MOL0     H 9044   9.222   9.196   9.170 -0.9030 -0.7639  0.4648
   69MOL0     H 9045   8.975   9.189   9.258 -1.2192 -1.8960  0.4320
   69MOL0     H 9046   9.037   9.158   9.095  0.7932  1.4190 -3.7903
   69MOL0     H 9047   8.807   9.087   9.150 -0.0469  0.0873  0.4037
   69MOL0     H 9048   8.813   9.197   9.003 -0.4900  2.9630  0.6529
   69MOL0     H 9049   8.769   9.380   9.171  1.2428  0.4787  2.0869
   69MOL0     H 9050   8.761   9.250   9.295  3.7136 -1.8815 -1.2896
   69MOL0     H 9051   8.600   9.236   9.035  2.9723  3.1730 -0.5066
   69MOL0     H 9052   8.564   9.149   9.187  0.2502  0.5031 -0.0481
   69MOL0     H 9053   8.428   9.346   9.100 -0.7420  2.1129  0.2307
   69MOL0     H 9054   8.550   9.455   9.170  0.0717  0.8150  1.1954
   69MOL0     H 9055   8.544   9.354   9.395  0.6527 -1.1135  0.1909
   69MOL0     H 9056   8.430   9.240   9.342  1.4501  0.6138  2.1581
   69MOL0     H 9057   8.305   9.387   9.455 -0.4579 -0.9123 -0.3757
   69MOL0     H 9058   8.399   9.526   9.396  0.8115 -1.5464  2.7684
   69MOL0     H 9059   8.235   9.361   9.214  1.9933  0.8568 -1.7358
   69MOL0     H 9060   8.285   9.527   9.180  0.2962  0.5781  0.2100
   69MOL0     H 9061   8.154   9.730   9.300  1.0192 -0.4960  1.4539
   69MOL0     H 9062   7.970   9.829   9.476  0.5777  0.0339 -1.2104
   69MOL0     H 9063   7.824   9.725   9.513  0.1159 -0.1763 -0.8863
   69MOL0     H 9064   7.719   9.768   9.314  0.4181 -1.9353  1.8047
   69MOL0     H 9065   7.846   9.831   9.229 -0.6496 -0.3785 -0.4706
   69MOL0     H 9066   7.749   9.976   9.473 -0.5103 -0.3860 -0.5236
   69MOL0     H 9067   7.834  10.051   9.341  2.3710 -1.6012 -1.1813
   69MOL0     H 9068   7.578  10.090   9.343 -1.4839  0.0989 -0.6339
   69MOL0     H 9069   7.566   9.918   9.320 -0.4457  0.5484 -1.3629
   69MOL0     H 9070   7.612  10.013   8.916 -0.9541  2.3827  0.6202
   69MOL0     H 9071   7.420   9.958   8.755  2.5616 -1.7718 -0.1921
   69MOL0     H 9072   6.977   9.982   8.719  2.6328 -0.6859  1.3269
   69MOL0     H 9073   6.733   9.989   8.621  0.3662 -1.0134 -0.5753
   69MOL0     H 9074   6.546   9.908   8.554  1.1891 -4.0169  0.6230
   69MOL0     H 9075   6.453  10.016   8.656  1.0861  0.1798  0.1413
   69MOL0     H 9076   6.254   9.900   8.569 -1.1325 -1.8888  0.9319
   69MOL0     H 9077   6.316   9.773   8.670  0.2855  1.2408  0.0871
   69MOL0     H 9078   6.263   9.676   8.453 -0.5938  2.3257 -1.2818
   69MOL0     H 9079   6.441   9.653   8.489 -2.4376 -4.2550 -1.6807
   69MOL0     H 9080   6.332   9.881   8.321  0.1723 -0.9899 -0.0597
   69MOL0     H 9081   6.499   9.839   8.339 -0.5328  1.3937 -0.5692
   69MOL0     H 9082   6.382   9.594   8.234  1.3318 -1.0766  1.1348
   69MOL0     H 9083   6.421   9.727   8.126  2.8414 -1.7071  1.1437
   69MOL0     H 9084   6.211   9.789   8.094 -1.6316 -1.4066 -1.7252
   69MOL0     H 9085   6.145   9.725   8.254  1.3426  4.1880  1.5628
   69MOL0     H 9086   6.075   9.608   8.048  0.8379  0.3353 -0.8000
   69MOL0     H 9087   6.242   9.561   8.019  2.2612  0.7178  0.7838
   69MOL0     H 9088   6.251   9.414   8.210 -0.2916  1.2938  1.8328
   69MOL0     H 9089   6.110   9.383   8.118 -3.0279  0.3896  0.9168
   69MOL0     H 9090   6.625   9.717   8.938 -0.6736 -1.2380 -2.6207
   69MOL0     H 9091   6.863   9.716   9.021  1.0462  0.6600  0.6176
   69MOL0     H 9092   7.180   9.923   9.115 -0.8616  2.7605  0.3543
   69MOL0     H 9093   7.372   9.981   9.254 -0.1891  1.6524  0.6163
   69MOL0     H 9094   9.088   9.602   9.158  0.7065  1.3108  0.1565
   69MOL0     H 9095   9.326   9.682   9.214 -0.9002  0.4664  1.3797
   69MOL0     H 9096   9.730   9.710   9.285  3.8868  2.7607  0.1636
   69MOL0     H 9097   9.957   9.775   9.320  0.2687 -0.8508 -2.2211
   69MOL0     H 9098  10.067   9.807   9.513 -2.0974 -3.7310 -4.2029
   69MOL0     H 9099  10.208   9.807   9.425 -0.3333  1.9585  0.3447
   69MOL0     H 9100  10.251   9.872   9.661  1.0610 -0.2222  2.5079
   69MOL0     H 9101  10.195   9.710   9.720 -1.7289  1.3591 -0.3507
   69MOL0     H 9102  10.433   9.757   9.549  1.7365  1.3891  2.1135
   69MOL0     H 9103  10.388   9.607   9.626  0.9065 -0.3010  1.5399
   69MOL0     H 9104  10.466   9.859   9.771  0.5182 -0.3606  1.5296
   69MOL0     H 9105  10.419   9.716   9.853  2.5466 -0.1170  0.9754
   69MOL0     H 9106  10.821   9.649   9.762  0.2881  2.7387  1.4390
   69MOL0     H 9107  10.043   9.388   9.479 -2.8620 -0.2117  1.3821
   69MOL0     H 9108   9.833   9.295   9.413 -1.2177  0.1131 -1.4480
   70MOL0     O 9109  11.196   8.069   1.602 -0.3624  1.0209 -0.2050
   70MOL0     C 9110  11.169   8.101   1.718  0.3202 -0.0840  0.1720
   70MOL0     O 9111  11.045   8.083   1.776 -0.0398  1.0013 -0.2867
   70MOL0     C 9112  10.933   8.028   1.710 -0.2488 -0.0116  0.5784
   70MOL0     C 9113  10.864   7.944   1.788 -0.7190  0.5299 -0.0037
   70MOL0     C 9114  10.740   7.893   1.741  0.3967  0.3574 -0.1696
   70MOL0     C 9115  10.687   7.940   1.617  0.7398  0.2418 -0.2295
   70MOL0     O 9116  10.569   7.892   1.567 -1.0671  0.7630  0.1772
   70MOL0     C 9117  10.487   7.973   1.475 -0.2664 -0.5612  0.0991
   70MOL0     C 9118  10.353   7.908   1.436 -0.4858  1.4624  0.7170
   70MOL0     C 9119  10.375   7.789   1.335  0.5771  1.1973  0.8993
   70MOL0     C 9120  10.244   7.730   1.296 -0.6054  0.1458 -0.5653
   70MOL0     C 9121  10.247   7.638   1.167 -0.6836  0.7304 -0.7665
   70MOL0     C 9122  10.332   7.505   1.183 -0.1438  0.6201  0.7665
   70MOL0     C 9123  10.310   7.427   1.310  0.4170 -0.6123  0.5150
   70MOL0     C 9124  10.162   7.391   1.322 -0.7217 -0.2555  0.7393
   70MOL0     N 9125  10.132   7.343   1.458 -0.8842 -0.0144 -0.4674
   70MOL0     C 9126  10.056   7.422   1.550 -0.7547 -0.0826  0.1380
   70MOL0     C 9127  10.076   7.358   1.673  0.5180  0.2183  0.1933
   70MOL0     C 9128  10.039   7.408   1.809 -0.0201 -0.6241  0.7008
   70MOL0     C 9129   9.901   7.361   1.853  1.0080 -0.2295 -0.3044
   70MOL0     C 9130   9.858   7.420   1.990 -0.7924  0.8973  0.2853
   70MOL0     C 9131   9.720   7.357   2.021  0.1086  0.5920  0.4372
   70MOL0     O 9132   9.654   7.415   2.135  0.0166 -0.8222  0.2934
   70MOL0     C 9133   9.517   7.386   2.152  0.0618 -0.3689  0.2894
   70MOL0     C 9134   9.468   7.436   2.273  0.5711  0.7812 -0.8038
   70MOL0     C 9135   9.340   7.387   2.318 -0.9137  0.1845  0.4413
   70MOL0     C 9136   9.260   7.303   2.234 -0.1460 -0.4178  0.0487
   70MOL0     C 9137   9.133   7.262   2.280 -0.5796 -0.2577 -0.6326
   70MOL0     O 9138   9.094   7.136   2.244 -0.9577 -0.0258 -0.0059
   70MOL0     C 9139   8.955   7.086   2.253 -0.5968  0.2259 -0.4483
   70MOL0     C 9140   8.953   6.949   2.269 -0.7657 -0.5822 -0.0115
   70MOL0     C 9141   8.824   6.886   2.281  0.0356 -0.6509  0.6561
   70MOL0     C 9142   8.708   6.960   2.311  0.7769  0.3277  0.1134
   70MOL0     O 9143   8.596   6.883   2.334  0.4357 -0.6456  0.5538
   70MOL0     C 9144   8.471   6.940   2.363  0.8627 -0.3158  0.5441
   70MOL0     C 9145   8.364   6.834   2.354  0.4162  0.4296  0.0937
   70MOL0     C 9146   8.233   6.873   2.302 -0.1515 -0.0998  0.5944
   70MOL0     C 9147   8.151   6.750   2.293  0.6201 -0.2156  0.5548
   70MOL0     C 9148   7.999   6.757   2.298 -0.4263  0.4575 -0.6618
   70MOL0     C 9149   7.939   6.851   2.198 -0.1859 -0.4640 -0.6386
   70MOL0     C 9150   7.802   6.809   2.141  0.4415  0.0707 -0.0636
   70MOL0     C 9151   7.680   6.818   2.247 -0.2732 -0.6746  0.5077
   70MOL0    Cl 9152   7.703   6.945   2.366  0.0979 -0.3190 -0.1159
   70MOL0     C 9153   8.718   7.104   2.304 -0.0070  0.3761  0.3111
   70MOL0     C 9154   8.843   7.167   2.266 -0.3433  0.7453  0.0574
   70MOL0     O 9155   9.059   7.346   2.332 -0.4671  0.3229 -0.0531
   70MOL0     C 9156   9.319   7.257   2.115 -0.2928 -0.5536  0.0785
   70MOL0     C 9157   9.444   7.294   2.079 -0.3720  0.1340  0.3464
   70MOL0     N 9158  10.154   7.242   1.655  0.1229  0.1024  0.8092
   70MOL0     N 9159  10.188   7.236   1.529 -0.0433  0.0016 -0.0604
   70MOL0     C 9160  10.765   8.028   1.539 -0.2540  0.4551 -0.2758
   70MOL0     C 9161  10.890   8.065   1.584  0.6363  0.2937 -0.6182
   70MOL0     C 9162  11.278   8.166   1.785  0.7014 -0.1932 -0.3981
   70MOL0     C 9163  11.415   8.135   1.765  0.5118  0.3971  0.2809
   70MOL0     C 9164  11.515   8.206   1.835 -0.0657  1.3079  0.1934
   70MOL0     C 9165  11.486   8.304   1.936  0.1126  0.1597  0.5957
   70MOL0     O 9166  11.569   8.384   2.011  1.5448  0.3737 -0.3181
   70MOL0     C 9167  11.711   8.371   2.021  0.2731  0.3919  0.8681
   70MOL0     C 9168  11.745   8.449   2.152  0.3225 -1.1129  0.3297
   70MOL0     C 9169  11.892   8.473   2.181  0.3595  0.0735  0.5688
   70MOL0     C 9170  11.921   8.515   2.327  1.3425 -0.8518  0.1827
   70MOL0     C 9171  12.065   8.490   2.354  0.3468 -0.2500  0.3675
   70MOL0     C 9172  12.181   8.465   2.378  0.1380  0.8728  0.2250
   70MOL0     C 9173  11.344   8.325   1.953 -1.1338  0.0589  0.1070
   70MOL0     C 9174  11.246   8.258   1.882  0.2625 -0.3243  0.5621
   70MOL0     H 9175  10.915   7.904   1.875 -1.2160 -1.9398 -0.7757
   70MOL0     H 9176  10.678   7.829   1.803  2.8057 -1.6197  0.3344
   70MOL0     H 9177  10.549   7.984   1.386  0.4145  1.8359  0.7994
   70MOL0     H 9178  10.474   8.074   1.515 -2.7745 -1.5903  2.1469
   70MOL0     H 9179  10.285   7.986   1.400  1.3578  4.2129  2.7562
   70MOL0     H 9180  10.307   7.856   1.520 -2.8587 -1.8906 -2.3619
   70MOL0     H 9181  10.429   7.707   1.382  0.0139  0.0670 -0.3621
   70MOL0     H 9182  10.436   7.819   1.249 -0.7707 -0.3471 -0.6926
   70MOL0     H 9183  10.211   7.672   1.383 -3.2377  1.8447 -0.3426
   70MOL0     H 9184  10.175   7.811   1.271 -1.2082 -0.4463 -0.8576
   70MOL0     H 9185  10.280   7.688   1.075 -3.5239  1.7320 -1.3317
   70MOL0     H 9186  10.142   7.620   1.143 -1.2793  3.4574 -0.4877
   70MOL0     H 9187  10.437   7.530   1.169 -0.2683  0.8519  0.2211
   70MOL0     H 9188  10.298   7.439   1.102  0.0371  1.4487  0.0025
   70MOL0     H 9189  10.380   7.344   1.300  2.5614  0.8742  2.1418
   70MOL0     H 9190  10.331   7.490   1.397  1.7301 -0.2995 -0.0034
   70MOL0     H 9191  10.142   7.311   1.250 -0.5957 -0.0373  0.4595
   70MOL0     H 9192  10.089   7.469   1.300 -0.6975  0.6756  3.4853
   70MOL0     H 9193   9.998   7.512   1.530  0.4232  0.7348  0.3108
   70MOL0     H 9194  10.041   7.518   1.805 -0.4875 -0.6229 -2.8455
   70MOL0     H 9195  10.120   7.382   1.877  1.0980  1.3847  0.2229
   70MOL0     H 9196   9.910   7.255   1.878  4.2345  0.4807  2.2846
   70MOL0     H 9197   9.829   7.380   1.773 -1.0062 -2.6329  0.7988
   70MOL0     H 9198   9.919   7.381   2.073 -2.0255 -2.0456 -0.0718
   70MOL0     H 9199   9.873   7.528   1.981 -1.3718  1.0145  0.6889
   70MOL0     H 9200   9.729   7.251   2.042  1.3680  1.1077  2.8266
   70MOL0     H 9201   9.655   7.378   1.936 -0.8396 -4.6265 -0.4418
   70MOL0     H 9202   9.526   7.509   2.329  1.9664 -1.2398  0.5230
   70MOL0     H 9203   9.308   7.428   2.414 -1.3091  3.4674 -0.9412
   70MOL0     H 9204   9.043   6.890   2.256  0.7013  1.0609  1.9289
   70MOL0     H 9205   8.819   6.778   2.287 -1.2707 -0.7796 -1.3978
   70MOL0     H 9206   8.455   7.021   2.291 -1.4948 -0.7473  0.4990
   70MOL0     H 9207   8.459   6.980   2.464 -0.9294 -2.3619  1.2093
   70MOL0     H 9208   8.361   6.787   2.453 -0.3673 -2.6382 -1.2531
   70MOL0     H 9209   8.406   6.752   2.294 -1.9542 -1.7652  1.2497
   70MOL0     H 9210   8.238   6.927   2.207 -0.4102  0.0848  0.6838
   70MOL0     H 9211   8.186   6.934   2.380  3.1002  1.9264  1.1329
   70MOL0     H 9212   8.176   6.706   2.196  1.9645  0.8398  0.3796
   70MOL0     H 9213   8.190   6.683   2.369 -0.5684  0.3462  1.6920
   70MOL0     H 9214   7.960   6.772   2.399 -3.2834 -0.2795 -1.5453
   70MOL0     H 9215   7.963   6.655   2.276 -0.9517 -0.2036  2.7067
   70MOL0     H 9216   8.011   6.855   2.116 -0.6329 -1.4761 -1.0970
   70MOL0     H 9217   7.933   6.950   2.245  0.5269  0.3146 -2.1075
   70MOL0     H 9218   7.775   6.877   2.060  0.7771 -0.0272 -0.2609
   70MOL0     H 9219   7.799   6.711   2.093 -5.7754 -1.2649  2.0945
   70MOL0     H 9220   7.678   6.722   2.300  0.5383 -1.4174 -0.7666
   70MOL0     H 9221   7.582   6.834   2.200 -0.8962  1.2301  2.3050
   70MOL0     H 9222   8.633   7.173   2.311  0.5281  1.3395 -1.7478
   70MOL0     H 9223   8.857   7.274   2.272  2.9724  0.4258 -0.2945
   70MOL0     H 9224   9.264   7.189   2.050 -0.2735 -0.0793 -0.4455
   70MOL0     H 9225   9.484   7.252   1.988  2.8905 -0.3517  1.8687
   70MOL0     H 9226  10.720   8.067   1.448 -0.9724  1.2391  0.3945
   70MOL0     H 9227  10.953   8.123   1.517  0.1029 -0.5441 -1.8757
   70MOL0     H 9228  11.453   8.060   1.697 -0.2704 -0.4508  0.7459
   70MOL0     H 9229  11.619   8.177   1.826 -0.3878  0.1402  0.0700
   70MOL0     H 9230  11.756   8.416   1.932  2.1723 -1.3091  0.9172
   70MOL0     H 9231  11.740   8.266   2.022 -2.8463 -0.8849 -4.0353
   70MOL0     H 9232  11.697   8.547   2.143 -2.1688 -1.7594  4.0556
   70MOL0     H 9233  11.692   8.392   2.229 -0.4041  0.8557  1.3756
   70MOL0     H 9234  11.923   8.551   2.111 -0.9001  0.4230  0.3756
   70MOL0     H 9235  11.943   8.377   2.166 -4.0017 -2.0380 -2.9020
   70MOL0     H 9236  11.894   8.619   2.346 -2.4886 -1.7569  0.5730
   70MOL0     H 9237  11.867   8.452   2.398  2.3551 -0.2084  1.5645
   70MOL0     H 9238  12.281   8.437   2.405 -0.6498 -0.7291  1.6595
   70MOL0     H 9239  11.321   8.399   2.028 -2.0480 -1.5083  1.4563
   70MOL0     H 9240  11.144   8.286   1.908  0.2693  0.0613  0.1696
   71MOL0     O 9241  10.424   6.207   6.148 -0.6881  0.0357  0.7932
   71MOL0     C 9242  10.486   6.315   6.133 -0.1362 -0.0115 -0.4429
   71MOL0     O 9243  10.442   6.442   6.108  0.7301 -0.6834  0.2786
   71MOL0     C 9244  10.322   6.492   6.166  0.8075 -0.1862  0.5732
   71MOL0     C 9245  10.264   6.602   6.106 -0.2272 -0.5074 -0.6045
   71MOL0     C 9246  10.138   6.655   6.151 -0.6308 -0.4072  0.3191
   71MOL0     C 9247  10.066   6.600   6.256  0.3584  0.6980  0.7151
   71MOL0     O 9248   9.961   6.665   6.305  0.0286  0.2185 -0.6371
   71MOL0     C 9249   9.887   6.602   6.408 -0.2228  0.7564 -1.5041
   71MOL0     C 9250   9.741   6.663   6.391 -0.2398 -0.8684 -0.1139
   71MOL0     C 9251   9.641   6.632   6.506  0.3589  0.0491  0.2504
   71MOL0     C 9252   9.695   6.680   6.641 -0.9830 -0.2867  0.1808
   71MOL0     C 9253   9.575   6.709   6.727  0.0518  0.3531 -0.1619
   71MOL0     C 9254   9.496   6.584   6.768 -0.0189 -1.0451  0.0762
   71MOL0     C 9255   9.369   6.628   6.853 -1.0027  0.1400 -0.3722
   71MOL0     C 9256   9.255   6.690   6.774 -0.3566 -0.4660 -0.1521
   71MOL0     N 9257   9.127   6.675   6.836 -0.2032 -0.6217  0.1402
   71MOL0     C 9258   9.068   6.766   6.924  0.6136 -0.1953  0.7004
   71MOL0     C 9259   8.977   6.702   6.996 -0.6044  0.1947  0.1915
   71MOL0     C 9260   8.907   6.749   7.122 -0.1015 -0.6407 -0.1851
   71MOL0     C 9261   8.760   6.791   7.119  0.3128  0.0841 -0.2266
   71MOL0     C 9262   8.746   6.901   7.005 -0.1258  0.4173  0.4947
   71MOL0     C 9263   8.590   6.939   6.991 -0.3936  0.0798 -0.6614
   71MOL0     O 9264   8.516   6.834   6.922  0.5115 -0.1500  0.1731
   71MOL0     C 9265   8.377   6.842   6.915  0.2177  0.6678 -0.7725
   71MOL0     C 9266   8.303   6.739   6.866  0.4604  0.3077 -0.1813
   71MOL0     C 9267   8.164   6.749   6.859  0.0792  0.6514 -0.2975
   71MOL0     C 9268   8.095   6.866   6.902  0.4231  0.3157 -0.2652
   71MOL0     C 9269   7.940   6.865   6.913 -0.7147  0.2378 -0.6340
   71MOL0     O 9270   7.874   6.964   6.985 -0.2301  0.4318 -0.1383
   71MOL0     C 9271   7.739   6.956   7.008  1.0056  0.5619  0.0762
   71MOL0     C 9272   7.641   6.950   6.905  0.7986 -0.0215 -0.3679
   71MOL0     C 9273   7.507   6.943   6.936 -0.3344  0.5184 -0.7665
   71MOL0     C 9274   7.467   6.938   7.075 -0.5776 -0.6367  0.0223
   71MOL0     O 9275   7.338   6.915   7.101  0.1562 -0.0542 -0.0195
   71MOL0     C 9276   7.308   6.871   7.237  0.2265  0.0558 -0.3212
   71MOL0     C 9277   7.160   6.830   7.245  0.0407 -0.3701 -0.1405
   71MOL0     C 9278   7.065   6.928   7.182  0.0756  0.2795  0.4382
   71MOL0     C 9279   6.921   6.891   7.185 -0.3010  0.9727 -0.2150
   71MOL0     C 9280   6.844   6.906   7.315  0.4096  0.1759 -0.0139
   71MOL0     C 9281   6.703   6.865   7.287  0.3408  0.6946 -0.4525
   71MOL0     C 9282   6.614   6.901   7.403 -0.3069 -0.3137 -0.3367
   71MOL0     C 9283   6.482   6.823   7.425 -0.1258  0.2858 -0.1193
   71MOL0    Cl 9284   6.430   6.761   7.264  0.1335 -0.3477 -0.2663
   71MOL0     C 9285   7.568   6.952   7.173  0.2876  0.6452  0.1848
   71MOL0     C 9286   7.698   6.960   7.136  0.4950  0.1530  0.2465
   71MOL0     O 9287   7.888   6.767   6.868  0.5514  0.0759 -0.1438
   71MOL0     C 9288   8.172   6.974   6.946  0.4740  0.6087  0.9162
   71MOL0     C 9289   8.311   6.960   6.950 -1.1863  0.1198  0.5727
   71MOL0     N 9290   8.966   6.575   6.950 -0.1500  0.1390 -0.4430
   71MOL0     N 9291   9.059   6.556   6.857  0.5517 -0.1308  0.3615
   71MOL0     C 9292  10.124   6.478   6.309  0.3112  0.1847 -0.6823
   71MOL0     C 9293  10.248   6.428   6.275  0.4593  0.5699  0.3355
   71MOL0     C 9294  10.635   6.310   6.125 -0.5641 -0.0729  0.8007
   71MOL0     C 9295  10.712   6.428   6.115  0.3945 -0.1499 -0.0244
   71MOL0     C 9296  10.843   6.420   6.110 -0.0309 -0.1402 -0.4848
   71MOL0     C 9297  10.914   6.300   6.101  0.1265  0.1083  0.0486
   71MOL0     O 9298  11.048   6.303   6.068  0.2290 -0.1327  0.9084
   71MOL0     C 9299  11.125   6.177   6.053  1.2005 -0.1203 -0.0603
   71MOL0     C 9300  11.268   6.223   6.011 -0.2561  0.6102  0.8306
   71MOL0     C 9301  11.345   6.302   6.109 -0.5134 -1.1300 -0.1224
   71MOL0     C 9302  11.500   6.320   6.066 -0.1927  0.1867 -0.2721
   71MOL0     C 9303  11.560   6.187   6.045 -0.3135 -0.2373 -0.7781
   71MOL0     C 9304  11.625   6.081   6.046  0.4566  0.3164  0.9927
   71MOL0     C 9305  10.840   6.183   6.109  0.2099 -0.3877  0.0859
   71MOL0     C 9306  10.707   6.187   6.134  0.4887 -0.5630 -0.2168
   71MOL0     H 9307  10.320   6.664   6.037 -0.8578 -0.6267 -1.2328
   71MOL0     H 9308  10.091   6.739   6.100 -0.9134 -2.0685 -2.3194
   71MOL0     H 9309   9.919   6.636   6.507 -2.5843 -2.2953  0.5048
   71MOL0     H 9310   9.872   6.494   6.409 -1.0851  0.6173  4.0876
   71MOL0     H 9311   9.703   6.632   6.293 -0.5329  0.1956 -0.3541
   71MOL0     H 9312   9.737   6.772   6.380  0.7459 -1.0369 -2.9932
   71MOL0     H 9313   9.621   6.525   6.504  1.5607 -0.1903  0.2775
   71MOL0     H 9314   9.544   6.678   6.484  0.5792  1.2254  1.5697
   71MOL0     H 9315   9.757   6.616   6.704 -1.0126 -1.4599 -0.9549
   71MOL0     H 9316   9.746   6.775   6.621  1.4325 -1.2651  1.2056
   71MOL0     H 9317   9.509   6.770   6.663 -1.1827 -2.6773 -1.9714
   71MOL0     H 9318   9.602   6.774   6.811 -0.3324  0.2972  0.0103
   71MOL0     H 9319   9.561   6.525   6.833  1.0700 -1.9530 -1.7413
   71MOL0     H 9320   9.453   6.530   6.684  0.0113 -0.1600 -0.5240
   71MOL0     H 9321   9.322   6.536   6.888 -0.3515 -1.1417 -2.6803
   71MOL0     H 9322   9.397   6.688   6.941  1.0027  0.2647 -1.0541
   71MOL0     H 9323   9.248   6.662   6.668  2.4546  0.5314 -0.6891
   71MOL0     H 9324   9.277   6.797   6.764  1.6780 -0.8327 -0.0217
   71MOL0     H 9325   9.091   6.871   6.942  1.2847 -0.2281  0.0841
   71MOL0     H 9326   8.964   6.838   7.150 -0.2621 -0.0328 -1.6930
   71MOL0     H 9327   8.916   6.675   7.203  0.7970 -0.7697 -0.3939
   71MOL0     H 9328   8.713   6.832   7.208 -0.5900  0.4256 -0.8461
   71MOL0     H 9329   8.700   6.703   7.094  0.6023 -1.0111  2.6532
   71MOL0     H 9330   8.799   6.995   7.025 -1.2151  0.8622  1.4198
   71MOL0     H 9331   8.777   6.854   6.912 -0.8538 -0.4373  0.6703
   71MOL0     H 9332   8.592   7.036   6.940  0.4671  0.6818  0.4446
   71MOL0     H 9333   8.551   6.945   7.093  1.9686 -0.2622  0.3338
   71MOL0     H 9334   8.351   6.646   6.840  2.0469  1.2839 -0.9084
   71MOL0     H 9335   8.093   6.669   6.840  0.0843  0.6394 -0.2662
   71MOL0     H 9336   7.667   6.944   6.800 -1.6001  1.3846 -1.1156
   71MOL0     H 9337   7.436   6.949   6.854  1.5786 -1.9076 -2.7359
   71MOL0     H 9338   7.336   6.941   7.317  0.9001 -0.9565  0.3480
   71MOL0     H 9339   7.372   6.785   7.259  2.5652  1.6096 -0.6722
   71MOL0     H 9340   7.136   6.830   7.352  2.6145  1.1139  0.5428
   71MOL0     H 9341   7.149   6.732   7.198 -1.2171 -0.0073 -0.6391
   71MOL0     H 9342   7.093   6.929   7.076 -0.5020 -1.7327  0.2276
   71MOL0     H 9343   7.091   7.024   7.228  1.7785  0.1079 -0.0693
   71MOL0     H 9344   6.877   6.948   7.103 -1.9739 -3.6542 -2.9150
   71MOL0     H 9345   6.912   6.787   7.150 -0.3375  0.0479  2.3093
   71MOL0     H 9346   6.855   7.002   7.366  1.4390  0.3534 -0.5444
   71MOL0     H 9347   6.879   6.834   7.389  1.4471  2.4510  1.8395
   71MOL0     H 9348   6.701   6.756   7.275  4.7175  0.6534 -2.7632
   71MOL0     H 9349   6.679   6.924   7.198  1.3165  1.6887 -0.0796
   71MOL0     H 9350   6.669   6.903   7.498 -2.9083 -2.4870  1.3934
   71MOL0     H 9351   6.593   7.008   7.399 -1.4228 -0.5519 -1.4287
   71MOL0     H 9352   6.404   6.886   7.467 -3.3449 -2.7277 -1.0624
   71MOL0     H 9353   6.506   6.751   7.503  1.4276  1.6679  0.7381
   71MOL0     H 9354   7.549   6.961   7.279  1.3679  1.2675  0.3369
   71MOL0     H 9355   7.777   6.965   7.210  1.6486 -1.1473 -0.8401
   71MOL0     H 9356   8.120   7.063   6.979 -0.2256  0.5241  0.0847
   71MOL0     H 9357   8.370   7.049   6.970 -1.2820 -0.3956  3.7038
   71MOL0     H 9358  10.076   6.447   6.401 -1.1267  4.0780  0.0987
   71MOL0     H 9359  10.285   6.340   6.328 -3.8634 -1.1187  0.9714
   71MOL0     H 9360  10.668   6.526   6.128  1.6627  0.5559 -0.7967
   71MOL0     H 9361  10.893   6.516   6.100  2.9108 -1.5965 -1.0164
   71MOL0     H 9362  11.093   6.108   5.974  1.3259 -2.5406  1.8902
   71MOL0     H 9363  11.111   6.117   6.143 -0.1865  0.2708 -0.0065
   71MOL0     H 9364  11.310   6.125   5.988 -1.1343 -0.1060  2.1598
   71MOL0     H 9365  11.267   6.280   5.918 -0.2539 -1.5507 -0.5512
   71MOL0     H 9366  11.346   6.253   6.206  0.7275  1.4193  1.2559
   71MOL0     H 9367  11.299   6.400   6.123  1.1641 -0.2443 -0.5866
   71MOL0     H 9368  11.519   6.372   5.971  1.9163 -0.2310 -0.1230
   71MOL0     H 9369  11.562   6.369   6.141  2.6003 -4.4296  0.8436
   71MOL0     H 9370  11.676   5.987   6.048 -0.6745 -0.3717 -0.3415
   71MOL0     H 9371  10.902   6.094   6.104  0.2772 -0.3948  0.9345
   71MOL0     H 9372  10.652   6.094   6.146 -0.2196 -0.1240  0.0145
   72MOL0     O 9373   2.384  10.873   9.543  0.0238 -0.1295  0.4074
   72MOL0     C 9374   2.432  10.781   9.469 -0.0069  1.2857 -0.3456
   72MOL0     O 9375   2.365  10.701   9.384  0.4033 -0.8112 -0.3354
   72MOL0     C 9376   2.229  10.696   9.390  0.4525 -0.6251 -0.1397
   72MOL0     C 9377   2.169  10.656   9.272  0.1048  1.1547 -0.0892
   72MOL0     C 9378   2.030  10.639   9.262  0.4222 -0.2555 -0.3354
   72MOL0     C 9379   1.940  10.653   9.374 -0.0437  0.6353  0.4953
   72MOL0     O 9380   1.810  10.625   9.351  0.1672  0.6403  0.4313
   72MOL0     C 9381   1.742  10.527   9.433  0.0884 -0.0410  0.3655
   72MOL0     C 9382   1.706  10.578   9.578 -1.0308  0.4402  0.6689
   72MOL0     C 9383   1.587  10.493   9.636  0.6841  0.3449  0.2016
   72MOL0     C 9384   1.568  10.520   9.787 -0.0084 -0.2637 -1.4123
   72MOL0     C 9385   1.460  10.427   9.851  0.1273  0.3741  0.3700
   72MOL0     C 9386   1.476  10.441  10.000 -0.2073 -0.6592  0.1720
   72MOL0     C 9387   1.378  10.354  10.084  0.2301  0.9384  0.3070
   72MOL0     C 9388   1.379  10.355  10.234  0.8672  0.1933 -0.6147
   72MOL0     N 9389   1.481  10.267  10.287  1.3045 -0.4260 -0.3274
   72MOL0     C 9390   1.605  10.310  10.332  0.1760  0.0044  0.7755
   72MOL0     C 9391   1.655  10.197  10.388 -0.2692  0.4152 -0.1906
   72MOL0     C 9392   1.785  10.184  10.466 -0.3245 -0.4754  0.0792
   72MOL0     C 9393   1.914  10.180  10.384  0.1023 -0.2208  0.2400
   72MOL0     C 9394   2.039  10.182  10.460 -0.6685  0.3784  0.5953
   72MOL0     C 9395   2.149  10.141  10.360 -0.3533  0.2673 -0.1673
   72MOL0     O 9396   2.264  10.082  10.422 -0.3433  0.6424 -0.1936
   72MOL0     C 9397   2.352  10.007  10.346  0.4634 -0.2813 -0.6253
   72MOL0     C 9398   2.351  10.000  10.206  0.0036 -1.4255 -0.1995
   72MOL0     C 9399   2.437   9.914  10.138  0.5220  0.1248  0.6662
   72MOL0     C 9400   2.542   9.839  10.203 -0.0907  0.2677  0.5702
   72MOL0     C 9401   2.626   9.744  10.123 -0.4129  0.3268  0.2057
   72MOL0     O 9402   2.731   9.692  10.194  0.0218  0.9796 -0.4380
   72MOL0     C 9403   2.812   9.598  10.134 -0.3593 -0.7794 -0.1524
   72MOL0     C 9404   2.949   9.623  10.152 -0.0875  0.2343  0.3616
   72MOL0     C 9405   3.035   9.535  10.095  0.4089 -0.1751  0.4943
   72MOL0     C 9406   2.994   9.428  10.014 -1.4433  0.3552  0.3786
   72MOL0     O 9407   3.092   9.346   9.950 -0.4051  0.0168  0.5651
   72MOL0     C 9408   3.059   9.249   9.854 -0.8163  0.4170  0.9500
   72MOL0     C 9409   3.193   9.187   9.798 -1.1258  1.0995 -0.6803
   72MOL0     C 9410   3.272   9.117   9.912 -0.0637 -0.5434  0.1357
   72MOL0     C 9411   3.400   9.049   9.861 -0.0624  0.6866  0.2858
   72MOL0     C 9412   3.486   8.998   9.978 -0.5939  0.1935  0.1922
   72MOL0     C 9413   3.536   9.110  10.081 -0.3963  0.4781  0.2569
   72MOL0     C 9414   3.635   9.037  10.172 -0.7570 -0.2557 -1.0632
   72MOL0     C 9415   3.653   9.112  10.300  0.7426 -0.4000 -0.0420
   72MOL0    Cl 9416   3.517   9.089  10.407  0.1455 -0.4103  0.3736
   72MOL0     C 9417   2.858   9.407   9.998  0.0744 -0.1026 -0.0938
   72MOL0     C 9418   2.765   9.496  10.057 -0.1644  0.4445 -0.3545
   72MOL0     O 9419   2.610   9.737  10.003  0.1399 -0.1836  0.5989
   72MOL0     C 9420   2.546   9.857  10.339 -0.7629 -0.4713 -0.1097
   72MOL0     C 9421   2.458   9.940  10.413 -0.2051  1.2072 -0.2002
   72MOL0     N 9422   1.565  10.095  10.378  0.9857 -0.2964 -0.5599
   72MOL0     N 9423   1.461  10.140  10.321  0.1098  0.0086 -0.1269
   72MOL0     C 9424   1.996  10.696   9.491 -0.2948  0.0683  0.2939
   72MOL0     C 9425   2.139  10.720   9.499  0.1109  1.0318 -0.3461
   72MOL0     C 9426   2.572  10.759   9.468 -0.2089 -0.9379  0.4193
   72MOL0     C 9427   2.632  10.689   9.361  0.4342 -0.7411 -0.4230
   72MOL0     C 9428   2.766  10.665   9.364 -0.3413 -0.4760  0.5238
   72MOL0     C 9429   2.848  10.705   9.471 -0.9796 -0.2472 -0.6600
   72MOL0     O 9430   2.981  10.692   9.484 -0.6020 -0.1773  0.8857
   72MOL0     C 9431   3.044  10.604   9.385 -0.7461 -0.2345 -0.5792
   72MOL0     C 9432   3.192  10.584   9.415 -0.2680 -0.3419  0.4803
   72MOL0     C 9433   3.244  10.534   9.275  0.1641 -0.0862 -0.0578
   72MOL0     C 9434   3.391  10.486   9.271 -0.7624 -0.0699 -0.4418
   72MOL0     C 9435   3.494  10.571   9.329  0.6637  0.2571 -0.3355
   72MOL0     C 9436   3.575  10.607   9.413  0.3853 -0.0809  0.0151
   72MOL0     C 9437   2.787  10.774   9.575 -0.0204 -0.2551  0.2474
   72MOL0     C 9438   2.651  10.804   9.570 -1.4799 -0.2605  0.2312
   72MOL0     H 9439   2.227  10.641   9.182  1.7501 -2.0939  1.3658
   72MOL0     H 9440   1.983  10.601   9.172 -0.4050 -0.3350  0.1213
   72MOL0     H 9441   1.795  10.431   9.435 -1.9062 -1.3695 -2.4356
   72MOL0     H 9442   1.647  10.513   9.381  1.3601  3.3149 -3.4679
   72MOL0     H 9443   1.675  10.683   9.566  0.1182  0.5352 -2.2192
   72MOL0     H 9444   1.799  10.571   9.634  0.6981 -3.9039 -2.2233
   72MOL0     H 9445   1.614  10.390   9.610  1.6811  1.2127 -2.5558
   72MOL0     H 9446   1.495  10.511   9.580  1.4664 -0.3093 -1.3682
   72MOL0     H 9447   1.666  10.508   9.833 -1.4992  0.1968  2.2160
   72MOL0     H 9448   1.534  10.623   9.802 -0.8440 -0.6709 -0.3984
   72MOL0     H 9449   1.482  10.323   9.826 -0.5257  0.6482 -1.5101
   72MOL0     H 9450   1.354  10.447   9.830  0.4904  3.2348  0.8743
   72MOL0     H 9451   1.485  10.547  10.029 -0.6180 -0.8243  0.9321
   72MOL0     H 9452   1.570  10.392  10.029  2.1140  0.6497 -4.2398
   72MOL0     H 9453   1.279  10.389  10.051  0.3950  0.6475 -0.5380
   72MOL0     H 9454   1.381  10.252  10.043  1.0539  0.8283  0.6246
   72MOL0     H 9455   1.282  10.326  10.273  1.7542 -1.3061  0.5947
   72MOL0     H 9456   1.406  10.456  10.265 -1.0550 -0.0531  2.2066
   72MOL0     H 9457   1.651  10.408  10.325 -1.3178  0.6252 -1.1452
   72MOL0     H 9458   1.781  10.092  10.526 -0.9621 -1.3978 -1.3240
   72MOL0     H 9459   1.790  10.272  10.531 -1.4614  0.5089 -1.1056
   72MOL0     H 9460   1.915  10.264  10.314 -1.7852 -0.1409  0.2454
   72MOL0     H 9461   1.909  10.084  10.333 -5.1663 -0.6927  1.0392
   72MOL0     H 9462   2.057  10.288  10.483  0.0045  0.3238  0.3563
   72MOL0     H 9463   2.047  10.120  10.550  0.0939 -1.7444 -0.8708
   72MOL0     H 9464   2.183  10.230  10.307  1.3792 -1.0367 -1.3878
   72MOL0     H 9465   2.095  10.072  10.295 -2.0816 -0.6910  2.1179
   72MOL0     H 9466   2.286  10.065  10.149  2.4619 -0.6116 -2.3075
   72MOL0     H 9467   2.424   9.910  10.030  2.2116  2.1933  0.3084
   72MOL0     H 9468   2.989   9.702  10.214 -0.0341 -0.3520  1.0875
   72MOL0     H 9469   3.141   9.554  10.104  0.3502  0.3558  0.0739
   72MOL0     H 9470   3.018   9.300   9.766  1.5970  2.1727  0.7374
   72MOL0     H 9471   2.992   9.171   9.892  1.9744 -1.1948  2.9085
   72MOL0     H 9472   3.245   9.271   9.753  0.1710 -0.2153 -1.7302
   72MOL0     H 9473   3.168   9.114   9.720  0.2665 -0.8745  0.6331
   72MOL0     H 9474   3.216   9.044   9.970  2.2771 -2.0711  0.6359
   72MOL0     H 9475   3.306   9.200   9.976 -1.5791  1.5941 -1.6787
   72MOL0     H 9476   3.363   8.970   9.794 -0.3485  0.3552  0.8300
   72MOL0     H 9477   3.461   9.112   9.795 -2.7925  0.9762 -2.2047
   72MOL0     H 9478   3.574   8.949   9.936  0.2312 -1.8222  3.8750
   72MOL0     H 9479   3.421   8.926  10.030 -1.2768  1.9369  1.8555
   72MOL0     H 9480   3.452   9.151  10.137  0.3872  0.0110  1.8174
   72MOL0     H 9481   3.593   9.183  10.022  0.7941  0.2050  1.0430
   72MOL0     H 9482   3.607   8.932  10.180 -0.4879 -0.3590 -1.5005
   72MOL0     H 9483   3.728   9.034  10.116 -1.3893 -1.3538 -2.0960
   72MOL0     H 9484   3.659   9.218  10.276  0.2997 -0.2928  0.3156
   72MOL0     H 9485   3.752   9.091  10.342  0.7205 -1.3545 -0.4313
   72MOL0     H 9486   2.830   9.322   9.938 -1.9196 -0.2291  0.9469
   72MOL0     H 9487   2.659   9.480  10.041 -0.3168 -2.0840  2.2450
   72MOL0     H 9488   2.619   9.801  10.396  0.4016  1.0656 -0.0354
   72MOL0     H 9489   2.475   9.937  10.520  3.6094  0.8561 -0.6757
   72MOL0     H 9490   1.932  10.718   9.576 -0.2653 -2.4882  1.0370
   72MOL0     H 9491   2.165  10.735   9.603  0.1243 -1.8949  0.1710
   72MOL0     H 9492   2.577  10.660   9.272 -1.5212  1.1186  0.0881
   72MOL0     H 9493   2.810  10.619   9.275 -1.3272 -0.5064  0.0378
   72MOL0     H 9494   3.036  10.646   9.285  2.4030  0.7052 -0.5273
   72MOL0     H 9495   2.993  10.509   9.404 -2.6332  0.6539 -0.9062
   72MOL0     H 9496   3.239  10.678   9.444 -2.4836  0.5354  1.5077
   72MOL0     H 9497   3.215  10.517   9.498 -0.0116  2.0977  2.4926
   72MOL0     H 9498   3.232  10.612   9.199  0.1119 -0.3368 -0.3086
   72MOL0     H 9499   3.174  10.458   9.239 -3.4663  2.8165  0.1683
   72MOL0     H 9500   3.384  10.394   9.331 -2.0686  0.3130  0.0195
   72MOL0     H 9501   3.422  10.467   9.167  3.2096  2.9230 -0.0463
   72MOL0     H 9502   3.651  10.645   9.477  2.5606  1.9232 -3.4099
   72MOL0     H 9503   2.846  10.823   9.651  2.4071 -0.8774 -1.1189
   72MOL0     H 9504   2.614  10.845   9.664  1.0610 -1.8281  2.0743
   73MOL0     O 9505   7.459   8.853   4.348 -0.2318  0.0600 -0.1194
   73MOL0     C 9506   7.544   8.943   4.343 -0.9773  0.6268  0.1185
   73MOL0     O 9507   7.515   9.078   4.357 -0.6544  0.6077 -0.1248
   73MOL0     C 9508   7.390   9.128   4.381 -0.6332 -0.5209 -0.3330
   73MOL0     C 9509   7.277   9.073   4.324 -0.1454 -0.4554  0.3131
   73MOL0     C 9510   7.149   9.111   4.355  0.4266 -0.0550 -0.3262
   73MOL0     C 9511   7.134   9.221   4.447  0.6797  0.8131 -0.5401
   73MOL0     O 9512   7.003   9.251   4.472 -0.4751  0.3680 -0.4837
   73MOL0     C 9513   6.956   9.260   4.606 -0.3826  0.7921 -0.1925
   73MOL0     C 9514   6.812   9.263   4.634  0.6352  0.5313  0.0164
   73MOL0     C 9515   6.741   9.381   4.557  0.5916  0.3060  0.2176
   73MOL0     C 9516   6.603   9.402   4.616 -0.3352 -0.6441 -0.4956
   73MOL0     C 9517   6.493   9.296   4.589  0.3179 -0.0004 -1.1234
   73MOL0     C 9518   6.365   9.366   4.636  0.0935  0.2626  0.4513
   73MOL0     C 9519   6.243   9.287   4.572  0.2179  0.5930 -0.3746
   73MOL0     C 9520   6.121   9.295   4.669  0.7207 -0.0128 -0.4611
   73MOL0     N 9521   6.000   9.318   4.605  0.4017 -0.0027 -0.3672
   73MOL0     C 9522   5.920   9.419   4.626 -0.4336  0.2092  1.1338
   73MOL0     C 9523   5.822   9.407   4.536  0.6725  0.2881 -0.2695
   73MOL0     C 9524   5.699   9.489   4.518  0.2797 -1.1389  0.6286
   73MOL0     C 9525   5.585   9.404   4.474 -0.6485  0.2319  1.0135
   73MOL0     C 9526   5.454   9.485   4.482 -0.0248 -0.4243  0.1162
   73MOL0     C 9527   5.315   9.407   4.503 -0.1823  0.1230 -0.0741
   73MOL0     O 9528   5.206   9.494   4.500  0.3548  0.0686 -0.2895
   73MOL0     C 9529   5.080   9.449   4.465 -1.0108 -0.7749  0.5734
   73MOL0     C 9530   5.037   9.313   4.469 -0.6479  0.3075  0.0430
   73MOL0     C 9531   4.904   9.281   4.429  0.8755 -0.0587 -0.6698
   73MOL0     C 9532   4.805   9.379   4.397  0.4524 -0.8941  0.1217
   73MOL0     C 9533   4.667   9.340   4.361 -0.3989 -0.4476 -0.2067
   73MOL0     O 9534   4.596   9.442   4.323 -0.3848  0.2544  0.4174
   73MOL0     C 9535   4.454   9.451   4.322  0.5535  0.1577  0.3503
   73MOL0     C 9536   4.398   9.567   4.255  1.0654  0.7278 -0.9909
   73MOL0     C 9537   4.261   9.587   4.250 -0.1297  0.5272 -0.5556
   73MOL0     C 9538   4.174   9.496   4.312 -0.4222  0.7434  1.0084
   73MOL0     O 9539   4.033   9.510   4.306  0.3104 -0.0755 -0.4361
   73MOL0     C 9540   3.954   9.411   4.239  0.0691 -1.0836  0.0035
   73MOL0     C 9541   3.819   9.390   4.308  0.1122  0.7270  0.0404
   73MOL0     C 9542   3.734   9.282   4.234  0.8814  0.1396  0.2370
   73MOL0     C 9543   3.607   9.254   4.313  0.3181 -0.4740 -0.1630
   73MOL0     C 9544   3.527   9.149   4.236  0.2201  0.2560  0.0259
   73MOL0     C 9545   3.406   9.127   4.324  0.0382  0.1869 -0.1824
   73MOL0     C 9546   3.317   9.036   4.254 -1.1775  0.3488 -0.4197
   73MOL0     C 9547   3.199   8.989   4.345 -0.2328  0.1574  0.0717
   73MOL0    Cl 9548   3.110   9.115   4.431 -0.1938 -0.0085 -0.3293
   73MOL0     C 9549   4.233   9.380   4.364 -0.0175  0.0361 -0.0865
   73MOL0     C 9550   4.372   9.354   4.371  0.8465  0.4453  0.0894
   73MOL0     O 9551   4.629   9.228   4.372 -0.1695  0.4062 -0.2647
   73MOL0     C 9552   4.849   9.518   4.395  0.3989  0.4214 -0.8686
   73MOL0     C 9553   4.983   9.540   4.432 -0.1204 -0.0469  0.4574
   73MOL0     N 9554   5.844   9.292   4.462 -1.1481  0.8736 -0.3320
   73MOL0     N 9555   5.950   9.238   4.512  0.0989  0.0325  0.3867
   73MOL0     C 9556   7.247   9.270   4.507  0.2787  0.6964  0.2589
   73MOL0     C 9557   7.375   9.233   4.474  0.3150 -0.0392  0.5682
   73MOL0     C 9558   7.699   8.916   4.335  0.4059 -0.1877 -0.5215
   73MOL0     C 9559   7.801   9.015   4.309  0.0552 -0.5722 -0.6431
   73MOL0     C 9560   7.938   8.974   4.311 -0.0964 -1.0746  0.1880
   73MOL0     C 9561   7.981   8.845   4.338  0.5305  0.9558  0.0871
   73MOL0     O 9562   8.112   8.826   4.308  0.0840 -0.5243 -1.1686
   73MOL0     C 9563   8.167   8.691   4.331  0.6342 -0.0796  0.3014
   73MOL0     C 9564   8.322   8.685   4.361  0.2150  0.1095  0.0583
   73MOL0     C 9565   8.366   8.796   4.458 -0.7650  0.5742  0.0720
   73MOL0     C 9566   8.526   8.799   4.466  0.1329 -0.0681 -0.8735
   73MOL0     C 9567   8.560   8.935   4.510  0.5099 -0.8397 -0.1597
   73MOL0     C 9568   8.576   9.043   4.562 -0.0390 -0.0725  0.2875
   73MOL0     C 9569   7.874   8.747   4.370  1.1415  0.1833 -0.0954
   73MOL0     C 9570   7.743   8.784   4.357 -0.3845  0.0678  0.5822
   73MOL0     H 9571   7.294   8.989   4.258 -2.0029 -2.0447  1.7096
   73MOL0     H 9572   7.064   9.065   4.306  1.7226 -0.4879 -2.2922
   73MOL0     H 9573   7.006   9.339   4.662 -1.4154  0.7683  0.8069
   73MOL0     H 9574   6.987   9.164   4.649 -1.8982  0.0333 -0.6970
   73MOL0     H 9575   6.799   9.277   4.742 -0.4982 -1.4009  0.1718
   73MOL0     H 9576   6.773   9.164   4.608 -1.7265  1.0505  1.2452
   73MOL0     H 9577   6.726   9.351   4.453 -0.3329 -2.0304  0.9554
   73MOL0     H 9578   6.813   9.463   4.569  0.5574  0.5776 -1.2375
   73MOL0     H 9579   6.616   9.407   4.724  0.5573  0.7544 -0.6368
   73MOL0     H 9580   6.568   9.496   4.571  5.1566  1.7386 -0.6507
   73MOL0     H 9581   6.506   9.208   4.654  0.8147  1.3351  0.6442
   73MOL0     H 9582   6.494   9.265   4.484  0.1327  3.9775 -2.4589
   73MOL0     H 9583   6.358   9.465   4.589  0.9761  0.3198  0.4382
   73MOL0     H 9584   6.366   9.374   4.745  0.2312 -3.2621  0.8358
   73MOL0     H 9585   6.212   9.305   4.468 -0.3343 -1.8346 -0.7178
   73MOL0     H 9586   6.276   9.183   4.562 -0.5953  0.1114  1.4868
   73MOL0     H 9587   6.132   9.371   4.747 -0.1743  1.0570 -1.3331
   73MOL0     H 9588   6.118   9.206   4.732  0.2057  1.3931  1.6082
   73MOL0     H 9589   5.920   9.491   4.707 -0.6460  1.4108  0.0959
   73MOL0     H 9590   5.720   9.579   4.459  1.1860  0.2708  2.9322
   73MOL0     H 9591   5.677   9.531   4.617 -0.4512 -0.2168  0.0872
   73MOL0     H 9592   5.576   9.321   4.544 -1.9884 -0.0914  0.4846
   73MOL0     H 9593   5.602   9.377   4.369  2.6499  0.8701  1.2654
   73MOL0     H 9594   5.460   9.552   4.568  0.2998 -3.1426  2.3543
   73MOL0     H 9595   5.447   9.544   4.390 -1.9010  0.0385  0.5171
   73MOL0     H 9596   5.305   9.343   4.591  2.4189  2.3408  2.0159
   73MOL0     H 9597   5.298   9.341   4.418 -1.7384 -1.3643  1.2995
   73MOL0     H 9598   5.101   9.231   4.501 -1.7704 -0.8718 -0.6580
   73MOL0     H 9599   4.864   9.182   4.451 -3.5357  1.5548 -0.3571
   73MOL0     H 9600   4.465   9.640   4.211  1.6931 -2.1917 -5.5013
   73MOL0     H 9601   4.227   9.670   4.189  0.9230 -0.2344 -2.2658
   73MOL0     H 9602   4.001   9.312   4.245  0.0572 -1.0068  2.0047
   73MOL0     H 9603   3.926   9.447   4.140  1.7184 -2.5067 -1.0437
   73MOL0     H 9604   3.765   9.485   4.311 -0.5699  0.4510 -1.8585
   73MOL0     H 9605   3.843   9.358   4.409  1.0093 -0.3114 -0.4871
   73MOL0     H 9606   3.789   9.188   4.220 -0.2493 -0.5842  0.5038
   73MOL0     H 9607   3.709   9.318   4.133  3.4986  2.8625  0.4176
   73MOL0     H 9608   3.628   9.223   4.416  0.2928  1.7210  0.5587
   73MOL0     H 9609   3.555   9.351   4.323  0.2761 -0.5546  0.4775
   73MOL0     H 9610   3.588   9.060   4.222 -0.5625 -0.3724  0.5348
   73MOL0     H 9611   3.488   9.193   4.143 -0.7665 -0.8642 -0.1145
   73MOL0     H 9612   3.354   9.222   4.337 -0.9641 -0.4299  0.5036
   73MOL0     H 9613   3.430   9.087   4.423 -0.8942  1.3909  0.5663
   73MOL0     H 9614   3.285   9.082   4.160  0.3587  0.6429 -0.8298
   73MOL0     H 9615   3.361   8.943   4.218 -1.3565 -0.6072  1.7026
   73MOL0     H 9616   3.238   8.928   4.427  0.1191  0.2547 -0.0187
   73MOL0     H 9617   3.131   8.931   4.282 -1.9051  0.0848  1.8807
   73MOL0     H 9618   4.163   9.305   4.399 -0.6098  0.4983 -0.2553
   73MOL0     H 9619   4.406   9.271   4.432  0.9065  0.1105 -0.3894
   73MOL0     H 9620   4.769   9.588   4.373  0.0453  0.4222  0.3545
   73MOL0     H 9621   5.009   9.645   4.426 -4.3492  1.1740 -0.4515
   73MOL0     H 9622   7.207   9.347   4.573 -2.3471 -0.3048 -0.0645
   73MOL0     H 9623   7.457   9.291   4.516  0.1314  1.7872 -1.4305
   73MOL0     H 9624   7.759   9.113   4.285 -1.5673 -1.5021 -1.7389
   73MOL0     H 9625   8.014   9.047   4.287 -2.8339  1.3050 -2.0784
   73MOL0     H 9626   8.145   8.634   4.240 -3.8390  1.1057  0.3814
   73MOL0     H 9627   8.111   8.633   4.405  1.4099 -2.2953 -0.7550
   73MOL0     H 9628   8.351   8.586   4.398 -0.7868 -1.3829 -2.8001
   73MOL0     H 9629   8.373   8.693   4.265  0.4346 -2.3295 -0.0966
   73MOL0     H 9630   8.322   8.776   4.556  0.3057  3.5043  1.2761
   73MOL0     H 9631   8.331   8.891   4.418  2.8837  2.8058  1.7020
   73MOL0     H 9632   8.557   8.725   4.541  0.4724  0.5584 -0.3906
   73MOL0     H 9633   8.575   8.763   4.375 -1.2573  1.3249 -2.2463
   73MOL0     H 9634   8.603   9.143   4.589  1.6692 -0.6529  0.8586
   73MOL0     H 9635   7.898   8.642   4.381  0.4310  0.0655  0.4182
   73MOL0     H 9636   7.666   8.707   4.353 -0.6992  0.4152 -1.5066
   74MOL0     O 9637   7.713   6.620   2.543 -0.1032  0.0949  0.1390
   74MOL0     C 9638   7.688   6.501   2.579 -1.4105 -0.6345 -0.0669
   74MOL0     O 9639   7.561   6.446   2.582  0.1188  0.0282  0.3533
   74MOL0     C 9640   7.453   6.515   2.524 -1.0362  0.4389 -0.3709
   74MOL0     C 9641   7.378   6.463   2.415  0.3524  0.6233  0.6875
   74MOL0     C 9642   7.266   6.534   2.358 -0.5168  0.7844  0.0581
   74MOL0     C 9643   7.225   6.657   2.413  0.9519 -0.3580  0.3664
   74MOL0     O 9644   7.118   6.738   2.371  0.3015 -0.5460  0.3460
   74MOL0     C 9645   7.117   6.759   2.229  0.4482  0.6983  0.0890
   74MOL0     C 9646   7.232   6.845   2.162  0.9661 -0.8115 -0.7010
   74MOL0     C 9647   7.289   6.967   2.243 -0.1442 -0.7452 -0.5852
   74MOL0     C 9648   7.172   7.068   2.269  0.3142 -0.8920  0.2614
   74MOL0     C 9649   7.220   7.203   2.325 -0.3377 -0.9552  0.3092
   74MOL0     C 9650   7.147   7.323   2.271  0.1496 -1.0831  0.7913
   74MOL0     C 9651   7.004   7.342   2.335 -0.0535  0.0457  0.0009
   74MOL0     C 9652   6.919   7.455   2.281 -0.1624 -0.2622  0.3288
   74MOL0     N 9653   6.782   7.449   2.337  0.0243  0.1395  0.0213
   74MOL0     C 9654   6.662   7.493   2.277 -0.8894  0.0135  0.5854
   74MOL0     C 9655   6.569   7.476   2.375  0.2824 -0.8206 -0.4549
   74MOL0     C 9656   6.417   7.486   2.349 -0.1809  0.5624  0.2130
   74MOL0     C 9657   6.340   7.438   2.463  0.4389 -0.4251 -1.0211
   74MOL0     C 9658   6.194   7.453   2.431 -0.0308  0.4104 -0.4259
   74MOL0     C 9659   6.110   7.386   2.547  0.3812 -0.3577 -0.1726
   74MOL0     O 9660   5.970   7.421   2.524 -1.4525  0.0044  0.7123
   74MOL0     C 9661   5.872   7.391   2.600  0.1117 -1.0808  0.7034
   74MOL0     C 9662   5.878   7.320   2.717 -0.7697  0.0731  0.3987
   74MOL0     C 9663   5.763   7.304   2.791  0.3988 -0.0183 -0.3914
   74MOL0     C 9664   5.639   7.354   2.750 -0.5209  0.1017  0.1420
   74MOL0     C 9665   5.518   7.327   2.833  0.1014  0.1760 -1.0901
   74MOL0     O 9666   5.527   7.218   2.919  0.6240 -0.1177  0.4081
   74MOL0     C 9667   5.436   7.221   3.022 -0.6612  0.6600 -0.1423
   74MOL0     C 9668   5.485   7.214   3.158  0.8909  0.0544 -0.3657
   74MOL0     C 9669   5.393   7.208   3.267 -0.2245  0.9219  0.9115
   74MOL0     C 9670   5.254   7.207   3.241 -0.1109  0.6254  0.2623
   74MOL0     O 9671   5.158   7.192   3.338 -0.6005  0.1504  0.2702
   74MOL0     C 9672   5.186   7.159   3.477 -0.1393 -0.4318  0.0899
   74MOL0     C 9673   5.044   7.154   3.551 -0.0971 -0.2265 -0.1883
   74MOL0     C 9674   4.984   7.018   3.520  0.4225  0.4603  0.2336
   74MOL0     C 9675   4.848   7.004   3.584  1.3203  0.1847  0.2402
   74MOL0     C 9676   4.782   6.875   3.551 -0.5043  0.3510 -0.1771
   74MOL0     C 9677   4.635   6.894   3.584 -0.4217 -0.0286  0.3285
   74MOL0     C 9678   4.553   6.779   3.533  0.1412  0.2500 -0.1152
   74MOL0     C 9679   4.544   6.764   3.375 -0.3497 -0.8911  0.3139
   74MOL0    Cl 9680   4.376   6.708   3.323  0.4122  0.3329  0.3876
   74MOL0     C 9681   5.206   7.219   3.111  0.5592  0.2813  0.6090
   74MOL0     C 9682   5.301   7.219   3.000  0.5231 -0.5649 -0.0123
   74MOL0     O 9683   5.420   7.402   2.821  0.0151  0.0629 -0.4884
   74MOL0     C 9684   5.632   7.419   2.628  0.2845 -1.2531 -0.7732
   74MOL0     C 9685   5.746   7.440   2.559 -0.0617 -0.4251 -0.0715
   74MOL0     N 9686   6.632   7.436   2.489  0.3594 -0.1449 -0.2270
   74MOL0     N 9687   6.752   7.415   2.461  0.1523  0.4628 -0.2218
   74MOL0     C 9688   7.300   6.710   2.511 -0.0900 -0.5295 -0.6053
   74MOL0     C 9689   7.419   6.647   2.559  0.3312  0.3524 -0.3610
   74MOL0     C 9690   7.811   6.423   2.596 -0.0462 -0.2250  0.0656
   74MOL0     C 9691   7.810   6.287   2.563  0.3824  0.2321  0.7335
   74MOL0     C 9692   7.928   6.213   2.564  0.6946 -0.7841 -0.3144
   74MOL0     C 9693   8.045   6.272   2.609  0.3234  0.2172  0.0846
   74MOL0     O 9694   8.155   6.197   2.603  0.2285  0.4421 -0.6284
   74MOL0     C 9695   8.250   6.181   2.717  1.1494 -0.2113 -0.1874
   74MOL0     C 9696   8.349   6.072   2.686  0.4939 -0.4651 -0.1869
   74MOL0     C 9697   8.441   6.101   2.564 -0.1351  0.4818 -0.3436
   74MOL0     C 9698   8.573   6.170   2.592  0.5175  0.2424  0.0565
   74MOL0     C 9699   8.656   6.111   2.697  0.4217 -0.0124 -0.3183
   74MOL0     C 9700   8.728   6.043   2.763 -1.1098 -0.5992  0.0780
   74MOL0     C 9701   8.050   6.406   2.633 -0.1306  0.3840  0.8008
   74MOL0     C 9702   7.936   6.481   2.632  0.2216  0.0356 -0.0351
   74MOL0     H 9703   7.414   6.371   2.370  2.2423  1.4768  0.3691
   74MOL0     H 9704   7.221   6.484   2.272  3.4811 -1.8574 -0.8135
   74MOL0     H 9705   7.025   6.817   2.217  0.0554  0.2819  0.9937
   74MOL0     H 9706   7.108   6.663   2.177 -1.6565 -0.2930  2.1179
   74MOL0     H 9707   7.209   6.884   2.063  4.3634  1.8466 -0.6438
   74MOL0     H 9708   7.313   6.774   2.138 -1.5459 -3.8125 -0.9392
   74MOL0     H 9709   7.373   7.012   2.190  0.0358  0.7311  0.8556
   74MOL0     H 9710   7.335   6.937   2.338  0.3162  1.4129 -0.0595
   74MOL0     H 9711   7.128   7.082   2.170  3.8199  0.9998 -1.2130
   74MOL0     H 9712   7.098   7.031   2.340 -0.1832  0.3503  0.4235
   74MOL0     H 9713   7.316   7.222   2.277 -1.3835 -1.4666 -2.1218
   74MOL0     H 9714   7.226   7.186   2.433  0.2052 -4.8338 -0.1823
   74MOL0     H 9715   7.136   7.317   2.162 -0.1379 -3.0519  0.8891
   74MOL0     H 9716   7.204   7.416   2.283  2.6701 -2.0560 -2.3529
   74MOL0     H 9717   6.954   7.246   2.318  0.3603 -0.6525  2.3294
   74MOL0     H 9718   7.028   7.352   2.442  1.5096  0.9366 -0.3974
   74MOL0     H 9719   6.911   7.456   2.172  2.3858 -2.1781  0.0474
   74MOL0     H 9720   6.965   7.552   2.303  0.9125 -1.3615  3.5195
   74MOL0     H 9721   6.643   7.529   2.177 -3.4611  0.8369  1.2935
   74MOL0     H 9722   6.390   7.413   2.273  0.1400 -1.5622  2.0444
   74MOL0     H 9723   6.388   7.587   2.318  1.4850  0.9187 -0.2982
   74MOL0     H 9724   6.352   7.492   2.557 -0.4533 -1.0606 -0.5355
   74MOL0     H 9725   6.365   7.333   2.482 -1.6415 -0.5637  1.3647
   74MOL0     H 9726   6.176   7.561   2.428 -1.7729  0.2634  1.9483
   74MOL0     H 9727   6.167   7.419   2.330  1.5376  5.0761 -2.6732
   74MOL0     H 9728   6.147   7.411   2.647  1.1068  2.1759 -1.0072
   74MOL0     H 9729   6.130   7.279   2.536  1.2120  0.0091 -2.7843
   74MOL0     H 9730   5.975   7.280   2.746 -0.0059  3.2060  2.6478
   74MOL0     H 9731   5.774   7.262   2.891 -0.1889  1.1841  0.1972
   74MOL0     H 9732   5.590   7.213   3.188  0.9101  0.2135 -0.4297
   74MOL0     H 9733   5.413   7.193   3.373 -1.1690 -2.6408  0.7162
   74MOL0     H 9734   5.248   7.238   3.520 -0.5473  0.4982 -0.9722
   74MOL0     H 9735   5.243   7.067   3.497  1.8640  0.6908 -0.1796
   74MOL0     H 9736   4.980   7.229   3.504  1.0841 -0.6554 -2.6212
   74MOL0     H 9737   5.043   7.166   3.660  3.2455 -3.8553  0.4369
   74MOL0     H 9738   5.045   6.935   3.555 -0.3525  0.4714  1.6736
   74MOL0     H 9739   4.984   7.008   3.411  2.1145  0.0991  0.2358
   74MOL0     H 9740   4.855   7.009   3.693 -2.0397  1.4334  0.5161
   74MOL0     H 9741   4.787   7.091   3.559 -0.4176 -1.1647 -0.4546
   74MOL0     H 9742   4.828   6.792   3.605  3.9068  1.5637 -1.7065
   74MOL0     H 9743   4.790   6.854   3.444  0.7930 -0.8676  0.1396
   74MOL0     H 9744   4.591   6.985   3.541  0.9359 -0.3436 -1.9537
   74MOL0     H 9745   4.616   6.908   3.691 -2.8756  1.0749 -0.1819
   74MOL0     H 9746   4.587   6.687   3.580  1.0201  0.8898  0.5119
   74MOL0     H 9747   4.457   6.801   3.580 -0.4756 -0.2699 -1.0797
   74MOL0     H 9748   4.619   6.698   3.329  1.3949  0.2164  1.4394
   74MOL0     H 9749   4.569   6.862   3.335  1.3189 -0.3983  2.3637
   74MOL0     H 9750   5.099   7.212   3.095  0.8565 -1.6512 -0.9373
   74MOL0     H 9751   5.265   7.221   2.898 -1.0559  2.4395  0.4989
   74MOL0     H 9752   5.539   7.448   2.581 -0.1501 -4.2082 -1.9419
   74MOL0     H 9753   5.738   7.495   2.466  1.4329 -2.1419 -1.2964
   74MOL0     H 9754   7.277   6.807   2.554 -1.8035 -0.7398 -0.9432
   74MOL0     H 9755   7.481   6.699   2.632 -0.9245  0.2003  0.8501
   74MOL0     H 9756   7.716   6.235   2.547 -1.0243  2.5027  1.1738
   74MOL0     H 9757   7.930   6.110   2.532  1.3412 -0.4090 -1.5449
   74MOL0     H 9758   8.196   6.161   2.810  2.1289 -0.5063  0.3248
   74MOL0     H 9759   8.303   6.276   2.724 -1.6646  1.3289  2.8429
   74MOL0     H 9760   8.405   6.071   2.780  0.7307  3.5194 -0.1257
   74MOL0     H 9761   8.301   5.974   2.674  0.6014 -1.0195  3.0473
   74MOL0     H 9762   8.390   6.159   2.486  2.0478  1.0731 -1.4090
   74MOL0     H 9763   8.468   6.002   2.526 -2.8218 -0.9450  1.1548
   74MOL0     H 9764   8.640   6.164   2.506 -1.9132 -1.7317 -1.8954
   74MOL0     H 9765   8.554   6.276   2.608  1.9919  0.2665  2.0379
   74MOL0     H 9766   8.794   5.995   2.833 -0.3409 -1.7832 -1.3993
   74MOL0     H 9767   8.147   6.447   2.658  0.0581  1.7470 -1.7955
   74MOL0     H 9768   7.936   6.583   2.668 -3.6108  0.0560  0.3247
   75MOL0     O 9769   9.145   7.223   5.784 -0.0616 -0.3699  0.7109
   75MOL0     C 9770   9.242   7.202   5.700  0.4416  0.6237 -0.3409
   75MOL0     O 9771   9.225   7.108   5.607  0.8178  0.1372  0.2616
   75MOL0     C 9772   9.106   7.035   5.611 -0.0947  0.4102  1.0931
   75MOL0     C 9773   9.009   7.060   5.520 -0.7892 -0.5631  0.5345
   75MOL0     C 9774   8.901   6.979   5.516  0.4408  0.0994 -0.0672
   75MOL0     C 9775   8.888   6.874   5.604 -0.8480  0.9765 -0.3080
   75MOL0     O 9776   8.766   6.807   5.597  0.9185  0.9392 -0.6746
   75MOL0     C 9777   8.758   6.685   5.516  0.3675  0.3849 -0.3965
   75MOL0     C 9778   8.628   6.618   5.551 -0.2828 -0.2942  0.2825
   75MOL0     C 9779   8.623   6.473   5.500  0.4154  0.6089  0.1332
   75MOL0     C 9780   8.501   6.402   5.558  0.2993  0.1383  0.9355
   75MOL0     C 9781   8.490   6.262   5.506  0.2648 -0.0336 -0.0659
   75MOL0     C 9782   8.352   6.193   5.528  0.8587 -0.6059 -0.9215
   75MOL0     C 9783   8.343   6.046   5.501  0.9574 -0.3313  0.1954
   75MOL0     C 9784   8.349   6.010   5.348  0.6247 -0.4648 -0.7892
   75MOL0     N 9785   8.404   5.870   5.341 -0.3075  0.0603  0.3260
   75MOL0     C 9786   8.537   5.838   5.331  0.8984 -0.4085  0.2504
   75MOL0     C 9787   8.547   5.712   5.320  0.2957 -0.6617 -0.1461
   75MOL0     C 9788   8.668   5.640   5.308  0.0281  0.2176  0.8340
   75MOL0     C 9789   8.752   5.662   5.185  0.4067 -0.2304  1.3125
   75MOL0     C 9790   8.695   5.601   5.050  0.2132  1.0842  0.1213
   75MOL0     C 9791   8.691   5.450   5.065  0.2553 -0.1452  0.1844
   75MOL0     O 9792   8.622   5.381   4.953 -0.5688 -0.6567 -0.6120
   75MOL0     C 9793   8.491   5.347   4.961  0.0881  0.3321 -0.0941
   75MOL0     C 9794   8.436   5.268   4.866 -0.5568 -0.9415 -0.1236
   75MOL0     C 9795   8.299   5.230   4.872 -0.6575  0.1372 -0.7799
   75MOL0     C 9796   8.217   5.268   4.969  0.1269  0.4889 -0.2139
   75MOL0     C 9797   8.073   5.233   4.978  0.3075  0.0338  0.0873
   75MOL0     O 9798   7.985   5.303   5.050 -0.0331  0.5303 -0.1220
   75MOL0     C 9799   7.852   5.283   5.027  1.0169  0.3984  0.5675
   75MOL0     C 9800   7.769   5.239   5.129  0.2464 -0.6919 -0.4259
   75MOL0     C 9801   7.626   5.237   5.119  0.4363 -0.5699  0.1221
   75MOL0     C 9802   7.563   5.275   5.000 -0.6207 -1.1432 -0.5338
   75MOL0     O 9803   7.431   5.236   4.988  0.0208  0.3923  0.3297
   75MOL0     C 9804   7.343   5.343   4.944  0.4466 -0.3260  0.1272
   75MOL0     C 9805   7.237   5.377   5.047 -0.5809  0.6595 -0.2689
   75MOL0     C 9806   7.133   5.481   4.997  0.3308 -0.1844  0.2214
   75MOL0     C 9807   7.053   5.527   5.120 -0.3762 -0.4138  0.8755
   75MOL0     C 9808   6.943   5.635   5.091 -0.1793  0.2585 -0.0957
   75MOL0     C 9809   6.849   5.664   5.210 -0.6884  0.9768  0.2509
   75MOL0     C 9810   6.749   5.766   5.162  1.1065 -0.4357  0.5250
   75MOL0     C 9811   6.674   5.835   5.274  0.0554 -0.7191  0.5122
   75MOL0    Cl 9812   6.558   5.711   5.351 -0.3998  0.0987 -0.1989
   75MOL0     C 9813   7.648   5.319   4.897  0.3901 -0.5823  0.0552
   75MOL0     C 9814   7.791   5.324   4.912  0.6830 -0.4286  0.0598
   75MOL0     O 9815   8.040   5.142   4.902  0.1223 -0.2248  0.0701
   75MOL0     C 9816   8.275   5.343   5.074  0.0151 -0.2609 -0.0959
   75MOL0     C 9817   8.409   5.391   5.071  0.2236  0.6090 -0.4681
   75MOL0     N 9818   8.419   5.664   5.330 -0.3000  0.7577 -0.1901
   75MOL0     N 9819   8.333   5.759   5.337 -0.3756 -1.2629 -0.6081
   75MOL0     C 9820   8.996   6.841   5.687 -0.9618  0.8422  0.6317
   75MOL0     C 9821   9.105   6.923   5.695  0.1574 -1.1630  1.4730
   75MOL0     C 9822   9.377   7.262   5.703 -0.1829 -0.7241  0.6695
   75MOL0     C 9823   9.474   7.220   5.617 -0.2291  0.7896 -0.3474
   75MOL0     C 9824   9.596   7.291   5.598 -0.6831  0.3317  0.0210
   75MOL0     C 9825   9.619   7.398   5.677 -0.8360 -0.7523  0.2400
   75MOL0     O 9826   9.726   7.479   5.656  0.5625  0.4569 -0.0991
   75MOL0     C 9827   9.845   7.433   5.728 -0.2261 -0.5414  0.2783
   75MOL0     C 9828   9.944   7.373   5.642 -0.3810  0.3811  0.1525
   75MOL0     C 9829  10.003   7.473   5.541 -0.0086  0.0912  0.0718
   75MOL0     C 9830  10.022   7.404   5.405  0.3831 -0.0480  0.3726
   75MOL0     C 9831  10.138   7.305   5.400  1.2641  0.4848  1.0474
   75MOL0     C 9832  10.241   7.235   5.397 -0.5494 -0.1727  0.7936
   75MOL0     C 9833   9.523   7.440   5.767  0.3475  0.2532 -0.8976
   75MOL0     C 9834   9.404   7.370   5.779 -0.0930 -0.1110  0.2017
   75MOL0     H 9835   9.009   7.138   5.444 -1.7999 -1.8482 -0.8491
   75MOL0     H 9836   8.815   7.006   5.455  1.7929  1.0660 -1.6380
   75MOL0     H 9837   8.839   6.617   5.547 -0.1527 -1.1105 -2.1692
   75MOL0     H 9838   8.774   6.691   5.408  3.0650 -4.8307 -0.6297
   75MOL0     H 9839   8.541   6.665   5.503  0.5826  0.0292 -1.0168
   75MOL0     H 9840   8.611   6.620   5.659  2.7658 -3.7866  1.0223
   75MOL0     H 9841   8.716   6.419   5.522  0.1818  0.5605  1.0479
   75MOL0     H 9842   8.607   6.482   5.393  1.2060 -0.3404 -0.0798
   75MOL0     H 9843   8.510   6.397   5.667  0.9504 -1.8392  0.8301
   75MOL0     H 9844   8.408   6.449   5.527 -0.0744 -1.0982  0.1018
   75MOL0     H 9845   8.566   6.200   5.554  0.9648  1.3469  0.6933
   75MOL0     H 9846   8.517   6.262   5.401 -1.0908  0.3078 -0.4400
   75MOL0     H 9847   8.272   6.257   5.490 -2.2824 -2.9607  1.2235
   75MOL0     H 9848   8.343   6.189   5.637  2.2306  0.0752 -0.7656
   75MOL0     H 9849   8.424   5.992   5.550 -1.2155 -1.9532  2.2083
   75MOL0     H 9850   8.251   6.010   5.548 -0.0236 -0.9846 -2.0965
   75MOL0     H 9851   8.406   6.088   5.298 -0.4473  0.9415  0.1006
   75MOL0     H 9852   8.254   6.022   5.295  0.4820  2.7897  0.0019
   75MOL0     H 9853   8.617   5.911   5.329  0.2676  0.3924  2.0788
   75MOL0     H 9854   8.637   5.536   5.322  0.2665  0.1719  1.0231
   75MOL0     H 9855   8.732   5.666   5.393 -1.4475  3.3103  1.1482
   75MOL0     H 9856   8.856   5.633   5.196  0.7717  0.8858  0.9473
   75MOL0     H 9857   8.743   5.771   5.173 -4.9683 -0.5264  0.1158
   75MOL0     H 9858   8.594   5.634   5.024  0.0843 -1.4323 -3.1462
   75MOL0     H 9859   8.760   5.606   4.962  0.0467 -1.5895 -0.2087
   75MOL0     H 9860   8.645   5.428   5.162  0.6626  2.0405  0.9352
   75MOL0     H 9861   8.794   5.412   5.075 -0.1824 -1.4087  0.1337
   75MOL0     H 9862   8.497   5.239   4.781 -1.1789 -0.7399 -0.6529
   75MOL0     H 9863   8.264   5.164   4.793 -1.0602  1.4577 -1.7260
   75MOL0     H 9864   7.819   5.215   5.222  3.4377  1.8014 -1.3149
   75MOL0     H 9865   7.562   5.211   5.203  2.0782  0.9237  1.9123
   75MOL0     H 9866   7.302   5.314   4.846  3.2427 -0.6646 -1.0396
   75MOL0     H 9867   7.399   5.435   4.925  2.4868 -1.5879 -0.2927
   75MOL0     H 9868   7.293   5.424   5.129  0.0972  0.7194 -0.7604
   75MOL0     H 9869   7.187   5.289   5.089 -0.1663  0.3303 -0.4600
   75MOL0     H 9870   7.061   5.427   4.936 -2.3475 -0.3643  3.2784
   75MOL0     H 9871   7.182   5.565   4.946  2.3253 -1.5945 -0.3355
   75MOL0     H 9872   7.010   5.435   5.159 -0.8785 -0.1385  0.9733
   75MOL0     H 9873   7.128   5.563   5.192  1.3613  1.5739 -1.7501
   75MOL0     H 9874   6.875   5.609   5.009 -1.3685  1.9578  0.3087
   75MOL0     H 9875   7.004   5.719   5.057 -0.3036  0.5284  0.3500
   75MOL0     H 9876   6.910   5.695   5.296  3.8823 -2.8134 -1.1713
   75MOL0     H 9877   6.801   5.572   5.244 -3.5538  3.6544  4.3558
   75MOL0     H 9878   6.785   5.837   5.087 -0.0301 -0.0859  0.2949
   75MOL0     H 9879   6.679   5.708   5.103  2.9569 -0.8423 -1.3827
   75MOL0     H 9880   6.608   5.909   5.227  1.7866 -1.3684 -3.2804
   75MOL0     H 9881   6.745   5.882   5.343 -0.0570 -0.0271  0.1652
   75MOL0     H 9882   7.603   5.340   4.801  1.6345 -0.5383 -0.5490
   75MOL0     H 9883   7.855   5.375   4.840  1.4648  0.2393  1.1967
   75MOL0     H 9884   8.222   5.379   5.162  0.9814 -1.9586  1.2426
   75MOL0     H 9885   8.441   5.474   5.132  0.0439  0.3207  0.0212
   75MOL0     H 9886   8.985   6.755   5.752  1.2434 -0.4331 -0.5597
   75MOL0     H 9887   9.199   6.921   5.749  1.7023  3.4220 -0.5896
   75MOL0     H 9888   9.468   7.128   5.560  0.1712 -0.2462  1.2235
   75MOL0     H 9889   9.664   7.269   5.516  1.8901  0.9038  1.8736
   75MOL0     H 9890   9.817   7.368   5.811 -2.4328 -0.5028 -0.3749
   75MOL0     H 9891   9.886   7.522   5.777 -2.2775  0.2382  0.6778
   75MOL0     H 9892  10.017   7.323   5.706  0.0366 -0.1987 -0.7551
   75MOL0     H 9893   9.896   7.296   5.581 -3.9343  3.4340 -1.3123
   75MOL0     H 9894  10.095   7.497   5.596  0.6020 -0.4742 -0.6915
   75MOL0     H 9895   9.946   7.567   5.536  1.0388  0.7050 -0.6616
   75MOL0     H 9896   9.927   7.367   5.367 -0.2705  3.2374 -1.5824
   75MOL0     H 9897  10.040   7.482   5.330 -4.5470 -0.4134 -1.5600
   75MOL0     H 9898  10.310   7.153   5.406 -1.6272 -0.9998  1.9815
   75MOL0     H 9899   9.528   7.534   5.822  0.5907 -1.2640  1.8934
   75MOL0     H 9900   9.318   7.406   5.835 -1.9144  0.4388 -2.7068
   76MOL0     O 9901   8.113   8.635   5.049  0.8087  0.7592 -0.3876
   76MOL0     C 9902   8.188   8.578   4.969  0.8668  0.2560  0.3177
   76MOL0     O 9903   8.152   8.496   4.862  0.3953 -0.6732 -0.6501
   76MOL0     C 9904   8.017   8.482   4.831  0.8180  0.0007 -0.4791
   76MOL0     C 9905   7.957   8.534   4.711 -0.2571  0.8169  0.6473
   76MOL0     C 9906   7.819   8.524   4.687  0.3849  0.5281  0.0378
   76MOL0     C 9907   7.739   8.471   4.780  0.0986  0.3576  1.0846
   76MOL0     O 9908   7.602   8.472   4.772  0.4890 -0.5189 -0.0974
   76MOL0     C 9909   7.538   8.571   4.693 -0.7232 -1.1900 -0.2042
   76MOL0     C 9910   7.396   8.587   4.726  0.4241 -0.4591 -0.0211
   76MOL0     C 9911   7.311   8.665   4.631  0.1312  0.3858  0.9800
   76MOL0     C 9912   7.176   8.704   4.677  0.8824 -0.6789  0.3754
   76MOL0     C 9913   7.099   8.791   4.569  0.7612  0.0875 -0.0957
   76MOL0     C 9914   6.983   8.868   4.642 -0.2114 -0.5980 -0.2898
   76MOL0     C 9915   6.848   8.794   4.639  0.1163  0.1050 -0.0549
   76MOL0     C 9916   6.727   8.880   4.670  0.5266  0.4042  1.1423
   76MOL0     N 9917   6.654   8.924   4.551  0.5265  0.0447 -0.6932
   76MOL0     C 9918   6.708   8.960   4.436  0.5497  0.1163  0.0254
   76MOL0     C 9919   6.607   8.993   4.346 -0.1472 -0.5582 -1.0100
   76MOL0     C 9920   6.637   9.067   4.214 -0.2332  0.0135  0.1046
   76MOL0     C 9921   6.776   9.038   4.150  0.0589  0.5848 -0.3899
   76MOL0     C 9922   6.777   9.100   4.006  0.4125 -0.8980 -0.9398
   76MOL0     C 9923   6.927   9.099   3.957 -0.9226 -0.0379 -0.5898
   76MOL0     O 9924   6.988   8.967   3.968  0.0701 -0.3624  0.6505
   76MOL0     C 9925   7.121   8.966   3.962 -0.3991  0.6351  0.9998
   76MOL0     C 9926   7.223   9.072   3.977  0.0460  0.1663  0.0836
   76MOL0     C 9927   7.359   9.043   3.968  0.3603  0.6864 -0.4497
   76MOL0     C 9928   7.412   8.915   3.956 -0.4039 -1.3759 -0.3974
   76MOL0     C 9929   7.554   8.886   3.928  0.4981  0.8758  0.6769
   76MOL0     O 9930   7.582   8.757   3.873 -0.3227 -0.0643  0.1221
   76MOL0     C 9931   7.718   8.730   3.865  0.1505 -0.4529 -0.4020
   76MOL0     C 9932   7.801   8.734   3.979  0.3306  1.0827 -0.4942
   76MOL0     C 9933   7.936   8.707   3.973  0.5259  0.0778  0.1004
   76MOL0     C 9934   7.999   8.662   3.855 -0.6647 -0.5478 -0.6618
   76MOL0     O 9935   8.131   8.607   3.860 -0.0106 -0.1865  1.3651
   76MOL0     C 9936   8.187   8.548   3.732  0.1546  0.0411 -0.5320
   76MOL0     C 9937   8.253   8.651   3.635 -0.4111  0.4477 -0.9677
   76MOL0     C 9938   8.345   8.577   3.537 -0.4568 -0.1095 -0.3499
   76MOL0     C 9939   8.427   8.664   3.435  0.2667  0.2168  0.2040
   76MOL0     C 9940   8.507   8.782   3.484  0.2424 -0.4725 -0.1538
   76MOL0     C 9941   8.613   8.756   3.588 -0.5057  0.7053  0.1181
   76MOL0     C 9942   8.730   8.667   3.559  0.1480  0.2487  0.0313
   76MOL0     C 9943   8.807   8.702   3.427  0.1441  0.2145 -0.3167
   76MOL0    Cl 9944   8.900   8.850   3.449  0.0086 -0.2754 -0.1580
   76MOL0     C 9945   7.922   8.677   3.736  0.0026 -0.6469  0.3329
   76MOL0     C 9946   7.777   8.702   3.746 -0.5294 -0.0364  0.3357
   76MOL0     O 9947   7.636   8.973   3.948 -0.6826 -0.1072  0.8327
   76MOL0     C 9948   7.317   8.807   3.949 -0.2524  0.3540 -0.2624
   76MOL0     C 9949   7.176   8.838   3.953 -0.2235  0.4931 -0.6443
   76MOL0     N 9950   6.489   8.985   4.420 -0.2491  0.3312  0.4125
   76MOL0     N 9951   6.523   8.944   4.539  0.3230 -0.0678 -0.1051
   76MOL0     C 9952   7.796   8.413   4.891  0.3625  0.5497 -0.4385
   76MOL0     C 9953   7.931   8.426   4.923  0.4316  0.5388  0.3529
   76MOL0     C 9954   8.331   8.618   4.964 -0.2286 -0.8113 -0.7007
   76MOL0     C 9955   8.397   8.686   5.071 -0.5550  0.0135 -0.2593
   76MOL0     C 9956   8.538   8.707   5.074  0.5903  0.2535 -0.2095
   76MOL0     C 9957   8.616   8.667   4.969  0.3908 -0.6832 -0.5238
   76MOL0     O 9958   8.754   8.686   4.986  0.3005 -0.5423 -0.4019
   76MOL0     C 9959   8.846   8.612   4.906  0.6579  0.0196 -0.1796
   76MOL0     C 9960   8.996   8.616   4.953 -1.0709 -0.3112 -0.1113
   76MOL0     C 9961   9.056   8.757   4.936 -0.3355 -0.0544 -1.0563
   76MOL0     C 9962   9.190   8.768   4.987 -1.1157 -0.5850  0.2364
   76MOL0     C 9963   9.281   8.742   4.880 -0.5112  0.6113 -0.1733
   76MOL0     C 9964   9.345   8.740   4.780 -0.2467 -0.2095  0.3073
   76MOL0     C 9965   8.557   8.611   4.855 -0.0513 -0.0280  0.4694
   76MOL0     C 9966   8.416   8.577   4.857 -0.3130  0.3063  0.4701
   76MOL0     H 9967   8.024   8.576   4.637 -1.5718  3.2440  0.7003
   76MOL0     H 9968   7.782   8.574   4.599  1.2888  2.1503  0.5422
   76MOL0     H 9969   7.544   8.547   4.586  1.0017  0.1182 -0.4398
   76MOL0     H 9970   7.593   8.665   4.699  0.0353 -1.7128  1.7876
   76MOL0     H 9971   7.398   8.631   4.827  1.5130  0.0763 -0.2604
   76MOL0     H 9972   7.355   8.485   4.734 -0.5581 -0.2578 -1.9831
   76MOL0     H 9973   7.319   8.612   4.535  2.3632  0.4453  1.0839
   76MOL0     H 9974   7.373   8.753   4.614  0.9155 -0.6176 -2.2915
   76MOL0     H 9975   7.118   8.620   4.717 -0.0491 -0.3045 -0.1496
   76MOL0     H 9976   7.201   8.762   4.766  0.0079  1.0002 -0.4311
   76MOL0     H 9977   7.065   8.726   4.487 -2.6930  0.4437  0.8657
   76MOL0     H 9978   7.159   8.870   4.524 -0.8862  2.4755  1.6510
   76MOL0     H 9979   6.962   8.960   4.587  0.1191 -0.9575 -1.0319
   76MOL0     H 9980   7.012   8.877   4.747 -2.1007 -2.8466  0.4985
   76MOL0     H 9981   6.837   8.740   4.545  3.7231 -0.6118 -0.2223
   76MOL0     H 9982   6.865   8.723   4.721  1.3165  0.6522  0.2048
   76MOL0     H 9983   6.741   8.958   4.745 -3.1009  3.4204 -0.9490
   76MOL0     H 9984   6.664   8.799   4.708  1.7975 -2.5325 -2.4429
   76MOL0     H 9985   6.810   8.981   4.405 -0.2043  3.2939 -0.6613
   76MOL0     H 9986   6.630   9.174   4.236 -0.9211  0.2160 -1.0411
   76MOL0     H 9987   6.557   9.036   4.147  0.6260 -0.2069 -0.8375
   76MOL0     H 9988   6.802   8.931   4.153 -1.1688  0.2964  1.0030
   76MOL0     H 9989   6.846   9.093   4.212 -1.5786  1.0981  1.0613
   76MOL0     H 9990   6.724   9.042   3.929 -0.7093 -1.9407  0.5626
   76MOL0     H 9991   6.730   9.199   4.005  0.3801 -0.8110  2.0541
   76MOL0     H 9992   6.977   9.172   4.021 -1.5512 -0.7790  0.7866
   76MOL0     H 9993   6.948   9.129   3.854  1.1746 -2.7708 -1.0654
   76MOL0     H 9994   7.191   9.176   3.973 -0.5535 -0.0199 -0.2448
   76MOL0     H 9995   7.431   9.123   3.969 -2.8209  3.8475  1.7072
   76MOL0     H 9996   7.753   8.768   4.071 -2.6920 -0.2634 -1.4515
   76MOL0     H 9997   7.995   8.714   4.064 -0.5693 -0.2745  0.8598
   76MOL0     H 9998   8.115   8.505   3.662 -2.0565  1.4231  0.7992
   76MOL0     H 9999   8.256   8.468   3.759 -1.4467 -1.5890 -1.0673
   76MOL0     H10000   8.317   8.706   3.705 -3.5210 -0.2660  2.7862
   76MOL0     H10001   8.185   8.723   3.587 -2.6761 -0.6151  0.4976
   76MOL0     H10002   8.277   8.507   3.487  1.3130 -1.8803 -0.4038
   76MOL0     H10003   8.413   8.515   3.597 -2.5280 -0.4488  1.7836
   76MOL0     H10004   8.493   8.589   3.391 -0.7997  0.9044 -2.8004
   76MOL0     H10005   8.348   8.698   3.367  0.0171  0.3734  0.5636
   76MOL0     H10006   8.441   8.850   3.538  0.2992  1.7277 -2.6470
   76MOL0     H10007   8.558   8.844   3.409 -0.7089 -0.8642 -1.1601
   76MOL0     H10008   8.562   8.727   3.680 -2.0861  2.0058 -0.2907
   76MOL0     H10009   8.662   8.851   3.609  0.4560  1.2019 -3.5493
   76MOL0     H10010   8.806   8.677   3.638  1.4592  0.9936 -1.2744
   76MOL0     H10011   8.702   8.561   3.556  1.0931  0.0170 -1.5075
   76MOL0     H10012   8.727   8.716   3.354 -0.9720 -0.5913  0.7054
   76MOL0     H10013   8.872   8.624   3.387  0.0286 -0.6095  1.0515
   76MOL0     H10014   7.970   8.656   3.642 -0.0320 -1.9759  0.5910
   76MOL0     H10015   7.717   8.709   3.656 -1.7357  3.0230  1.2525
   76MOL0     H10016   7.355   8.708   3.926  1.7123  1.5894 -2.8278
   76MOL0     H10017   7.101   8.762   3.936 -0.6825  1.3069 -2.4640
   76MOL0     H10018   7.736   8.365   4.968  3.2469 -3.4720 -0.3838
   76MOL0     H10019   7.971   8.388   5.016 -1.9382 -3.2605  0.0108
   76MOL0     H10020   8.330   8.728   5.145 -0.4779  1.6649 -1.0747
   76MOL0     H10021   8.581   8.759   5.159  1.6823 -0.3243 -0.3849
   76MOL0     H10022   8.844   8.673   4.815  0.4148  2.8643  1.5867
   76MOL0     H10023   8.815   8.509   4.888 -1.3079  0.7544 -1.3991
   76MOL0     H10024   8.993   8.587   5.058 -1.3633 -1.5993 -0.4559
   76MOL0     H10025   9.061   8.546   4.899 -0.6452 -0.8726  1.0870
   76MOL0     H10026   8.985   8.823   4.987 -1.4413  0.7207 -3.4865
   76MOL0     H10027   9.050   8.783   4.830 -0.9687  1.8609 -0.5931
   76MOL0     H10028   9.214   8.860   5.041  1.9227 -0.6025 -0.8531
   76MOL0     H10029   9.212   8.695   5.065  1.7669 -0.3152 -0.1954
   76MOL0     H10030   9.405   8.736   4.691 -2.4325  0.3374 -1.2676
   76MOL0     H10031   8.624   8.579   4.775  1.9529  0.4184  1.8931
   76MOL0     H10032   8.376   8.503   4.789  0.9471  1.0485 -1.1620
   77MOL0     O10033   8.654   3.474   7.513  0.1528  0.4529 -0.9535
   77MOL0     C10034   8.756   3.422   7.473  0.4617 -0.2255  0.2545
   77MOL0     O10035   8.765   3.292   7.448  0.5143 -0.3713  0.3629
   77MOL0     C10036   8.653   3.214   7.455 -0.1794  0.1054 -0.0740
   77MOL0     C10037   8.528   3.236   7.389 -0.0221 -0.4685  0.1855
   77MOL0     C10038   8.422   3.140   7.388 -0.7981  0.3612  0.4387
   77MOL0     C10039   8.441   3.025   7.456  0.1921  0.9154 -0.1693
   77MOL0     O10040   8.350   2.922   7.434 -0.4765  0.0512 -0.5170
   77MOL0     C10041   8.393   2.794   7.469 -0.4966  1.3110  1.0044
   77MOL0     C10042   8.311   2.686   7.407 -0.3394 -0.0130  0.0199
   77MOL0     C10043   8.188   2.655   7.497 -0.0218 -0.0377  0.9516
   77MOL0     C10044   8.079   2.613   7.402  0.5128  0.3542 -0.8494
   77MOL0     C10045   7.960   2.541   7.473 -0.0823 -0.0953 -0.7362
   77MOL0     C10046   7.834   2.515   7.372 -0.4680  0.9405  0.6289
   77MOL0     C10047   7.723   2.442   7.448  0.3707 -0.5345 -0.0581
   77MOL0     C10048   7.598   2.412   7.357  0.7089  0.1661 -0.2902
   77MOL0     N10049   7.489   2.499   7.389 -0.6477 -0.1300  1.0191
   77MOL0     C10050   7.370   2.457   7.442  0.2505 -0.1840  0.6395
   77MOL0     C10051   7.289   2.558   7.413  0.5022 -0.6714  0.5148
   77MOL0     C10052   7.144   2.570   7.429  0.5179 -0.0849 -0.3194
   77MOL0     C10053   7.064   2.458   7.366  0.0893  1.0486  0.1561
   77MOL0     C10054   7.073   2.423   7.218 -0.4614 -0.9002  0.4976
   77MOL0     C10055   6.987   2.301   7.182 -0.0651  0.0985 -0.1570
   77MOL0     O10056   6.946   2.305   7.043  0.0750  0.5736 -0.1613
   77MOL0     C10057   6.860   2.219   6.981  0.2926  0.3656  0.1209
   77MOL0     C10058   6.833   2.085   7.031 -0.1491 -0.6500 -0.0390
   77MOL0     C10059   6.748   1.997   6.964  0.5414  0.3909 -0.2637
   77MOL0     C10060   6.679   2.029   6.854 -0.7502 -0.5769  0.7273
   77MOL0     C10061   6.582   1.939   6.775  0.0397 -0.5809 -0.1205
   77MOL0     O10062   6.501   2.002   6.679 -0.4906 -0.7298 -0.6714
   77MOL0     C10063   6.402   1.924   6.622  0.3208 -0.1154  0.0820
   77MOL0     C10064   6.421   1.822   6.531 -0.5092  0.9504  0.1060
   77MOL0     C10065   6.313   1.745   6.488  0.5150  0.0135 -0.7068
   77MOL0     C10066   6.185   1.779   6.530 -0.4041  0.4046  0.2513
   77MOL0     O10067   6.077   1.710   6.477 -0.4023 -0.7804  0.1133
   77MOL0     C10068   5.968   1.690   6.562 -0.6021  0.2584  0.2729
   77MOL0     C10069   5.881   1.567   6.514 -0.6093 -0.5194  0.4551
   77MOL0     C10070   5.824   1.582   6.374 -0.7005  1.0844  0.1251
   77MOL0     C10071   5.731   1.464   6.332  0.5787 -0.1385  0.2420
   77MOL0     C10072   5.647   1.513   6.210  0.4089  0.2036  0.5076
   77MOL0     C10073   5.528   1.605   6.249 -0.6393  0.2229 -0.0367
   77MOL0     C10074   5.440   1.655   6.129 -0.1689 -0.4612  0.2751
   77MOL0     C10075   5.356   1.547   6.054 -0.1565 -0.2605 -0.3690
   77MOL0    Cl10076   5.453   1.462   5.932  0.2406 -0.2886  0.1603
   77MOL0     C10077   6.166   1.881   6.624 -0.5831  0.2319 -0.0839
   77MOL0     C10078   6.275   1.957   6.674 -0.5608  0.1908  1.2866
   77MOL0     O10079   6.583   1.827   6.804  0.0371  0.5704  0.0096
   77MOL0     C10080   6.704   2.157   6.803  0.0522  0.5146 -0.0601
   77MOL0     C10081   6.801   2.242   6.856  0.1046 -0.3499 -0.0738
   77MOL0     N10082   7.351   2.647   7.329 -0.0895  1.1317 -0.1599
   77MOL0     N10083   7.475   2.617   7.313  0.5158 -0.0206  0.1476
   77MOL0     C10084   8.552   3.011   7.538 -0.3567  0.4669  0.2698
   77MOL0     C10085   8.659   3.097   7.527 -0.3937 -0.6583 -0.4048
   77MOL0     C10086   8.866   3.508   7.436  0.5079  0.2887  0.9558
   77MOL0     C10087   8.853   3.646   7.444 -1.4027 -0.5898 -0.1714
   77MOL0     C10088   8.959   3.730   7.396 -0.1236 -0.6318 -0.3960
   77MOL0     C10089   9.063   3.677   7.322 -0.8030  0.7879  0.3729
   77MOL0     O10090   9.136   3.768   7.249 -0.5228 -0.3658 -0.1476
   77MOL0     C10091   9.265   3.738   7.189  0.0559  0.2719 -0.4136
   77MOL0     C10092   9.320   3.835   7.080 -0.0086 -0.0888  0.4042
   77MOL0     C10093   9.448   3.913   7.133 -0.1532 -0.4335 -0.2254
   77MOL0     C10094   9.572   3.828   7.158  0.0209 -0.1617  0.1130
   77MOL0     C10095   9.674   3.848   7.057  0.7892  0.3398 -0.6992
   77MOL0     C10096   9.760   3.856   6.982 -0.3768  0.5716  0.3362
   77MOL0     C10097   9.084   3.538   7.318 -0.4075 -0.3266 -0.5240
   77MOL0     C10098   8.983   3.457   7.375 -0.2092 -0.8146 -0.4456
   77MOL0     H10099   8.523   3.327   7.329  2.7481 -1.1426 -1.2359
   77MOL0     H10100   8.337   3.153   7.323 -0.6272 -0.2934  0.0839
   77MOL0     H10101   8.406   2.767   7.574  0.5252 -2.7061  0.0058
   77MOL0     H10102   8.489   2.780   7.419 -0.7648 -0.7319  0.9514
   77MOL0     H10103   8.376   2.599   7.393 -0.0564  0.4828 -1.9840
   77MOL0     H10104   8.272   2.721   7.311 -2.3838  0.2321  0.8959
   77MOL0     H10105   8.151   2.746   7.545  1.0004  1.0055 -0.1346
   77MOL0     H10106   8.207   2.582   7.576  0.7493  1.2034  1.9503
   77MOL0     H10107   8.052   2.698   7.338  0.5396  2.1222  1.3524
   77MOL0     H10108   8.127   2.545   7.332  0.2388 -1.6923  0.8560
   77MOL0     H10109   7.917   2.597   7.556  0.7778 -2.1651  1.2046
   77MOL0     H10110   7.991   2.441   7.506 -2.0640 -0.6402 -0.3968
   77MOL0     H10111   7.865   2.460   7.283 -0.3565  2.0950 -0.0722
   77MOL0     H10112   7.792   2.609   7.334 -0.7984 -0.1572 -1.8912
   77MOL0     H10113   7.773   2.355   7.490 -0.5454  0.3618  3.1567
   77MOL0     H10114   7.695   2.499   7.537 -4.0746 -2.4552 -0.0140
   77MOL0     H10115   7.570   2.315   7.400 -0.0791  1.2758  1.8567
   77MOL0     H10116   7.620   2.421   7.251  2.4937  0.2894  0.0640
   77MOL0     H10117   7.353   2.360   7.488 -1.2288  0.0972  0.7221
   77MOL0     H10118   7.116   2.658   7.371  0.8850 -1.1875 -2.2393
   77MOL0     H10119   7.119   2.573   7.536  1.6401  1.7660 -0.0675
   77MOL0     H10120   6.959   2.467   7.395  0.4066  0.4823  1.5540
   77MOL0     H10121   7.099   2.370   7.421 -0.5627  0.3727 -0.4925
   77MOL0     H10122   7.045   2.511   7.160  1.0301  0.8330  2.2942
   77MOL0     H10123   7.179   2.403   7.197 -0.0991  2.1151 -1.0603
   77MOL0     H10124   6.900   2.296   7.247 -0.7397  0.8877 -0.9590
   77MOL0     H10125   7.042   2.208   7.194  0.8717  0.4829 -1.2690
   77MOL0     H10126   6.881   2.043   7.119  0.0603 -2.5673 -1.0262
   77MOL0     H10127   6.720   1.906   7.015  0.1948 -0.7947 -2.4586
   77MOL0     H10128   6.524   1.802   6.501 -0.5987  2.7968 -1.6062
   77MOL0     H10129   6.320   1.664   6.416  0.3749 -1.3286  0.7471
   77MOL0     H10130   5.919   1.788   6.551  0.1427  0.4452 -1.7389
   77MOL0     H10131   5.993   1.679   6.668  0.7826  2.4523  0.2426
   77MOL0     H10132   5.799   1.556   6.586  1.6112 -0.3102  3.1917
   77MOL0     H10133   5.951   1.486   6.533  0.0807 -0.0337  0.0422
   77MOL0     H10134   5.915   1.592   6.315  0.2844  1.2824  1.6105
   77MOL0     H10135   5.769   1.676   6.362  1.0479  2.1129 -0.1809
   77MOL0     H10136   5.795   1.380   6.302 -0.8935 -1.2762  0.1967
   77MOL0     H10137   5.664   1.422   6.408 -1.2765  2.1678 -0.0290
   77MOL0     H10138   5.598   1.424   6.169  0.2909  1.0623 -1.3197
   77MOL0     H10139   5.715   1.568   6.144  1.0454 -1.0363  0.0990
   77MOL0     H10140   5.571   1.688   6.306 -0.2308  0.9269 -1.3125
   77MOL0     H10141   5.458   1.548   6.309 -2.7371  2.5094 -0.1488
   77MOL0     H10142   5.370   1.734   6.159  1.4851  0.8836  0.7816
   77MOL0     H10143   5.510   1.704   6.062 -0.7480  1.3769  0.9453
   77MOL0     H10144   5.275   1.599   6.002 -0.9987 -1.4617 -0.2940
   77MOL0     H10145   5.318   1.469   6.121  1.7272 -0.3475  0.6732
   77MOL0     H10146   6.064   1.910   6.647 -1.2535  0.2672 -2.8329
   77MOL0     H10147   6.251   2.031   6.749 -2.8813 -2.0756  2.9564
   77MOL0     H10148   6.641   2.195   6.723 -0.0719  2.1809  0.7808
   77MOL0     H10149   6.828   2.337   6.811 -0.7673 -0.4729 -0.8794
   77MOL0     H10150   8.544   2.926   7.606 -2.0779 -1.3165 -2.0145
   77MOL0     H10151   8.749   3.070   7.581  0.1202  0.5113 -0.6489
   77MOL0     H10152   8.779   3.704   7.499  0.6186  0.4054  1.6461
   77MOL0     H10153   8.955   3.837   7.409  0.6242 -0.1939 -3.1963
   77MOL0     H10154   9.262   3.637   7.149 -1.9490 -1.1801  2.9657
   77MOL0     H10155   9.337   3.739   7.271  0.3204  2.4776 -0.6097
   77MOL0     H10156   9.343   3.777   6.991 -0.2612 -2.2120  1.6722
   77MOL0     H10157   9.247   3.915   7.064  0.6319  0.7612  1.5347
   77MOL0     H10158   9.428   3.958   7.230  3.6547 -1.7336  1.3565
   77MOL0     H10159   9.477   3.992   7.063  0.4722 -2.5117 -2.4556
   77MOL0     H10160   9.600   3.849   7.262 -1.1506 -1.2262  0.6635
   77MOL0     H10161   9.546   3.722   7.150  1.7957 -0.5917 -0.6106
   77MOL0     H10162   9.848   3.873   6.923 -0.8586 -0.0253 -0.5818
   77MOL0     H10163   9.168   3.490   7.267  0.3478  0.7383 -0.3230
   77MOL0     H10164   8.995   3.349   7.366  2.3336 -0.5287 -1.3232
   78MOL0     O10165   4.695   5.714   6.216  0.2662 -0.6869  0.0055
   78MOL0     C10166   4.746   5.651   6.127  0.3264  0.8172 -0.9463
   78MOL0     O10167   4.715   5.527   6.089 -0.1585 -0.1946 -0.4267
   78MOL0     C10168   4.586   5.490   6.108 -0.0221  1.0875  0.6077
   78MOL0     C10169   4.494   5.469   6.008  0.7174 -0.5691  0.1751
   78MOL0     C10170   4.363   5.431   6.041  0.9404 -0.0720  0.2072
   78MOL0     C10171   4.320   5.417   6.172  1.2959 -0.0518  0.4103
   78MOL0     O10172   4.190   5.376   6.194  0.0944  0.3154  0.2963
   78MOL0     C10173   4.136   5.433   6.308  0.3170 -1.1954 -0.6660
   78MOL0     C10174   3.996   5.381   6.337  0.0528 -0.5560  0.0169
   78MOL0     C10175   3.948   5.392   6.481  0.0411 -0.0626  1.0597
   78MOL0     C10176   3.826   5.306   6.503  0.6913 -0.1185 -0.8626
   78MOL0     C10177   3.791   5.306   6.659  0.0115 -0.8867  0.9408
   78MOL0     C10178   3.889   5.228   6.764 -0.2737 -0.6055  0.7433
   78MOL0     C10179   3.816   5.206   6.902 -0.0635 -0.6594  0.6562
   78MOL0     C10180   3.699   5.107   6.888 -0.0458 -0.3774  0.1703
   78MOL0     N10181   3.643   5.096   7.025  0.1044  0.3047  0.3380
   78MOL0     C10182   3.536   5.161   7.071  0.6858  0.0490 -0.1790
   78MOL0     C10183   3.508   5.110   7.199 -0.0242 -0.2213  0.3163
   78MOL0     C10184   3.412   5.159   7.305  0.3594 -0.0018  0.0796
   78MOL0     C10185   3.277   5.076   7.301 -0.0604  0.0764 -0.2860
   78MOL0     C10186   3.184   5.102   7.418  0.2265 -0.2486 -0.0817
   78MOL0     C10187   3.036   5.058   7.420  0.5291  0.8339 -0.3034
   78MOL0     O10188   3.040   4.921   7.382  0.5596 -0.1230 -0.5263
   78MOL0     C10189   2.939   4.869   7.300  0.5535 -0.5208  0.0663
   78MOL0     C10190   2.830   4.942   7.244 -0.2060 -0.3306 -0.6060
   78MOL0     C10191   2.724   4.879   7.176 -0.0611 -0.6195 -0.6884
   78MOL0     C10192   2.722   4.742   7.160 -0.2880  0.8365  0.2474
   78MOL0     C10193   2.608   4.683   7.078 -0.6373 -0.2819 -0.4862
   78MOL0     O10194   2.501   4.759   7.044 -0.5578 -0.5572 -0.1267
   78MOL0     C10195   2.382   4.722   6.991  1.1375  0.0098  0.7907
   78MOL0     C10196   2.268   4.798   7.023 -0.3988  0.4755  0.1752
   78MOL0     C10197   2.147   4.758   6.984 -0.0514  0.0969  0.1516
   78MOL0     C10198   2.126   4.655   6.895  0.0539 -0.2953  1.3672
   78MOL0     O10199   1.998   4.633   6.845 -0.7384  1.0088 -0.6344
   78MOL0     C10200   1.958   4.498   6.811  0.3647 -0.8099  0.1145
   78MOL0     C10201   1.814   4.487   6.759  0.1645  0.4122  0.8876
   78MOL0     C10202   1.783   4.326   6.744 -0.5342  0.2144  1.0291
   78MOL0     C10203   1.628   4.334   6.708 -0.0775  0.7810  0.2775
   78MOL0     C10204   1.599   4.302   6.558 -0.0790 -0.0536  0.1026
   78MOL0     C10205   1.447   4.312   6.532 -0.0050  0.0967 -0.5107
   78MOL0     C10206   1.425   4.252   6.382  0.3968 -0.2430 -0.0352
   78MOL0     C10207   1.279   4.227   6.343 -0.0453 -0.7609  0.0632
   78MOL0    Cl10208   1.213   4.085   6.433 -0.2048 -0.1972 -0.3011
   78MOL0     C10209   2.243   4.583   6.858 -0.3215  0.0323 -0.1196
   78MOL0     C10210   2.371   4.615   6.902 -0.4438  0.2425  0.8650
   78MOL0     O10211   2.614   4.559   7.064  0.1484  0.0423 -0.5177
   78MOL0     C10212   2.834   4.667   7.204 -0.4719 -0.4279 -0.5111
   78MOL0     C10213   2.942   4.731   7.283  0.5557  0.0317 -0.5677
   78MOL0     N10214   3.615   5.030   7.234 -0.4731 -0.1018 -0.1276
   78MOL0     N10215   3.683   5.016   7.131 -1.0693  0.3888  0.3568
   78MOL0     C10216   4.415   5.430   6.275  0.7168 -0.4584  0.6979
   78MOL0     C10217   4.544   5.461   6.241  0.1566  0.8627  0.6747
   78MOL0     C10218   4.860   5.709   6.057 -0.0625 -0.3402 -0.3599
   78MOL0     C10219   4.896   5.843   6.075  0.1556  0.2905  0.4478
   78MOL0     C10220   5.005   5.898   6.003 -0.0571 -0.0206  0.0056
   78MOL0     C10221   5.087   5.821   5.924 -0.3957 -1.0066 -0.2774
   78MOL0     O10222   5.194   5.859   5.847 -0.0692 -0.7995 -0.1858
   78MOL0     C10223   5.233   5.993   5.858 -0.0695 -0.6468 -0.0148
   78MOL0     C10224   5.367   6.008   5.788 -0.4108  0.3891  0.0790
   78MOL0     C10225   5.475   5.972   5.889  0.2634 -0.6011  1.0811
   78MOL0     C10226   5.605   6.015   5.848 -1.2075 -0.0638  0.6013
   78MOL0     C10227   5.694   5.916   5.909  0.1860 -0.7714  0.7719
   78MOL0     C10228   5.756   5.827   5.959  0.1730  0.5778  0.5356
   78MOL0     C10229   5.055   5.691   5.910 -0.0087 -0.1501 -0.1591
   78MOL0     C10230   4.939   5.636   5.966 -0.0490  0.0555  0.3492
   78MOL0     H10231   4.532   5.495   5.910  0.2235 -1.2262 -0.1935
   78MOL0     H10232   4.291   5.399   5.966  0.2042 -2.0144  1.6316
   78MOL0     H10233   4.143   5.542   6.298  1.0060 -1.4225 -3.3144
   78MOL0     H10234   4.182   5.404   6.403 -0.1648  0.6651  0.1944
   78MOL0     H10235   3.996   5.274   6.313  3.9796 -1.5418  3.4150
   78MOL0     H10236   3.933   5.442   6.271  1.6485  0.5736 -0.5206
   78MOL0     H10237   3.919   5.497   6.493 -1.7023 -0.1120 -1.6521
   78MOL0     H10238   4.029   5.367   6.550  0.4793  2.2637  1.4888
   78MOL0     H10239   3.743   5.343   6.443 -1.4023 -2.4411  0.3824
   78MOL0     H10240   3.845   5.204   6.469  0.5539 -0.7171  0.7462
   78MOL0     H10241   3.698   5.250   6.658 -0.6295  0.1498 -0.0879
   78MOL0     H10242   3.785   5.410   6.691  1.8634 -0.4926  0.1182
   78MOL0     H10243   3.986   5.277   6.773 -0.1373 -0.8867  0.8219
   78MOL0     H10244   3.903   5.130   6.717 -3.1240 -1.4276  1.3725
   78MOL0     H10245   3.893   5.164   6.968  2.8040 -0.1746 -2.1013
   78MOL0     H10246   3.781   5.304   6.932  1.1172  0.3397 -1.0301
   78MOL0     H10247   3.731   5.010   6.850 -5.0287 -1.3146 -2.4158
   78MOL0     H10248   3.618   5.138   6.822  0.5836 -0.3199 -0.5927
   78MOL0     H10249   3.472   5.218   7.004 -0.9691 -0.8654  0.5654
   78MOL0     H10250   3.399   5.264   7.279  0.8516  0.1852  0.5559
   78MOL0     H10251   3.454   5.144   7.405  1.7042  1.5342 -0.2109
   78MOL0     H10252   3.307   4.972   7.287  4.5188  1.1248  0.0747
   78MOL0     H10253   3.222   5.107   7.211 -1.0900 -0.3617  0.1802
   78MOL0     H10254   3.239   5.057   7.501  0.0332 -0.9032 -0.3049
   78MOL0     H10255   3.179   5.209   7.439  0.3904 -0.6161  2.0830
   78MOL0     H10256   2.984   5.124   7.349  0.8192  2.6666  1.1051
   78MOL0     H10257   2.996   5.078   7.521 -1.5835  2.6238 -1.3925
   78MOL0     H10258   2.823   5.049   7.262 -1.3827 -0.7501  1.8638
   78MOL0     H10259   2.651   4.946   7.131  0.7053  0.3906 -0.4524
   78MOL0     H10260   2.284   4.881   7.091 -0.8867  0.0045  0.8800
   78MOL0     H10261   2.060   4.816   7.015  0.7809  2.8333 -2.1480
   78MOL0     H10262   1.952   4.436   6.901  0.1272  2.2104  2.3362
   78MOL0     H10263   2.022   4.460   6.731 -1.1447  0.3515 -1.7245
   78MOL0     H10264   1.802   4.538   6.663  1.9316 -0.0592  0.3759
   78MOL0     H10265   1.744   4.538   6.825 -1.1657 -0.8810  0.5318
   78MOL0     H10266   1.790   4.270   6.838  1.4950  0.5154  1.0966
   78MOL0     H10267   1.849   4.269   6.679 -1.0157 -1.1685  1.7162
   78MOL0     H10268   1.577   4.264   6.775 -0.3978  1.1475  0.4212
   78MOL0     H10269   1.591   4.436   6.724  0.4267  0.8365  1.1893
   78MOL0     H10270   1.638   4.202   6.540 -2.4878 -0.8661 -1.0379
   78MOL0     H10271   1.643   4.383   6.499 -1.0925  0.3453 -0.1331
   78MOL0     H10272   1.412   4.414   6.548 -1.8671 -0.6301  0.2254
   78MOL0     H10273   1.383   4.251   6.595  0.7143  0.4444  0.5887
   78MOL0     H10274   1.466   4.316   6.304  0.9841 -1.1599 -0.4919
   78MOL0     H10275   1.494   4.170   6.362  2.3134  1.3457 -0.2471
   78MOL0     H10276   1.281   4.208   6.235  3.5994  0.7874 -0.2914
   78MOL0     H10277   1.234   4.321   6.375  1.4796 -0.0055  0.0540
   78MOL0     H10278   2.231   4.497   6.793 -2.6042  1.7909 -2.2422
   78MOL0     H10279   2.456   4.563   6.860 -0.4598 -1.8159  3.1559
   78MOL0     H10280   2.833   4.559   7.198  0.7548 -0.5253  0.6438
   78MOL0     H10281   3.021   4.673   7.331  0.3499  1.5671  1.8064
   78MOL0     H10282   4.391   5.434   6.381 -0.1323 -1.8082  0.5837
   78MOL0     H10283   4.620   5.467   6.318  1.0958  0.6281 -0.1958
   78MOL0     H10284   4.846   5.909   6.146  0.4829 -0.0797  1.0316
   78MOL0     H10285   5.013   6.004   6.022 -2.4302  0.1831  0.1380
   78MOL0     H10286   5.242   6.031   5.961  2.1003 -3.4848  0.9613
   78MOL0     H10287   5.168   6.059   5.799 -0.4413 -1.5272 -0.5953
   78MOL0     H10288   5.371   5.949   5.696  2.5888  2.6600 -1.4437
   78MOL0     H10289   5.380   6.114   5.761 -0.0982  0.2415 -0.3664
   78MOL0     H10290   5.473   5.863   5.884  1.4008 -0.6190 -3.8329
   78MOL0     H10291   5.446   6.006   5.988 -0.3125  0.9240  0.4131
   78MOL0     H10292   5.599   5.992   5.741  0.1497 -1.5401  0.8175
   78MOL0     H10293   5.621   6.122   5.866 -2.2904 -0.3251  3.5933
   78MOL0     H10294   5.814   5.744   5.995  0.2604  0.8319  0.9854
   78MOL0     H10295   5.120   5.635   5.845 -1.4501  0.5288 -2.3156
   78MOL0     H10296   4.923   5.531   5.943  1.6418 -0.4978  1.4850
   79MOL0     O10297   8.672   8.646   5.602 -0.0743  0.0920 -0.4295
   79MOL0     C10298   8.693   8.715   5.503  0.6365  0.3768  0.4902
   79MOL0     O10299   8.606   8.795   5.430  0.1176  0.5034  0.2507
   79MOL0     C10300   8.466   8.795   5.442  0.4588 -0.5291 -0.4348
   79MOL0     C10301   8.386   8.684   5.452  0.1253  0.4320  0.5560
   79MOL0     C10302   8.251   8.697   5.463  0.2123  0.5184 -0.4889
   79MOL0     C10303   8.195   8.829   5.450 -0.5187 -1.1386  0.2987
   79MOL0     O10304   8.053   8.826   5.428 -0.7372 -0.2529 -0.5641
   79MOL0     C10305   8.007   8.917   5.329  0.0936 -0.8727 -0.6247
   79MOL0     C10306   7.892   9.003   5.390 -0.4552  0.3377  1.4994
   79MOL0     C10307   7.889   9.144   5.332  0.2649  0.3614  0.3765
   79MOL0     C10308   7.827   9.129   5.188 -0.7863 -0.2087  0.5001
   79MOL0     C10309   7.834   9.259   5.107 -0.5567  0.3099  0.3355
   79MOL0     C10310   7.731   9.360   5.164  1.1635  0.4634 -0.1247
   79MOL0     C10311   7.736   9.494   5.091  0.8542 -0.1167  1.1595
   79MOL0     C10312   7.671   9.609   5.168  0.5103 -0.3330 -0.1479
   79MOL0     N10313   7.525   9.605   5.199  0.2291  1.0538  1.0007
   79MOL0     C10314   7.471   9.702   5.274 -0.0774  0.1963 -0.1447
   79MOL0     C10315   7.347   9.715   5.214  0.4083  0.2562  0.3167
   79MOL0     C10316   7.238   9.811   5.260  0.9987 -0.1509 -0.1144
   79MOL0     C10317   7.218   9.809   5.416 -0.2188 -0.1595 -0.6248
   79MOL0     C10318   7.093   9.732   5.470  0.2724  0.1923 -0.4148
   79MOL0     C10319   6.956   9.794   5.445 -0.2148 -0.0468 -0.1158
   79MOL0     O10320   6.865   9.688   5.420 -0.2051 -0.5938  0.1057
   79MOL0     C10321   6.739   9.726   5.414 -0.1534  0.3046 -0.1698
   79MOL0     C10322   6.650   9.676   5.503  0.1702 -0.3487 -0.3968
   79MOL0     C10323   6.512   9.715   5.492 -0.7576 -0.4019 -0.0906
   79MOL0     C10324   6.465   9.787   5.381  0.2600 -0.7712 -0.4830
   79MOL0     C10325   6.314   9.808   5.380 -0.3223  0.4486  0.3184
   79MOL0     O10326   6.236   9.727   5.454 -0.0871 -0.8952 -0.2111
   79MOL0     C10327   6.100   9.744   5.443 -0.5270 -0.3501  0.4814
   79MOL0     C10328   6.026   9.762   5.563 -0.2966  0.0673  0.2642
   79MOL0     C10329   5.883   9.761   5.553  0.1032 -0.1615 -0.2209
   79MOL0     C10330   5.819   9.730   5.430  0.6847 -1.0870  0.7246
   79MOL0     O10331   5.684   9.702   5.428 -0.0164 -0.0135  0.6707
   79MOL0     C10332   5.622   9.668   5.303 -0.2221  0.1497  0.7289
   79MOL0     C10333   5.469   9.627   5.324 -0.4001  0.5593 -0.0159
   79MOL0     C10334   5.395   9.718   5.425 -0.0355  0.6465 -0.1912
   79MOL0     C10335   5.251   9.679   5.449 -0.3954 -0.4452 -0.3699
   79MOL0     C10336   5.156   9.731   5.343 -0.4125  0.0498 -0.7378
   79MOL0     C10337   5.008   9.682   5.340  0.1922  0.4561  0.3393
   79MOL0     C10338   5.005   9.556   5.247 -0.2515 -0.6449 -0.0246
   79MOL0     C10339   4.869   9.478   5.250  0.7414 -0.1525 -0.0971
   79MOL0    Cl10340   4.753   9.583   5.149 -0.0299 -0.4333 -0.5298
   79MOL0     C10341   5.896   9.707   5.315  0.4757 -0.1248 -0.6740
   79MOL0     C10342   6.035   9.719   5.325 -0.3531 -0.4697 -1.0122
   79MOL0     O10343   6.269   9.904   5.318  0.2687  0.3916  0.1656
   79MOL0     C10344   6.561   9.836   5.286 -0.2823 -0.2969 -0.4745
   79MOL0     C10345   6.693   9.800   5.305 -0.1973 -0.6511  0.4990
   79MOL0     N10346   7.326   9.624   5.113 -0.3607  0.0631  0.3462
   79MOL0     N10347   7.435   9.548   5.111  0.0907 -0.1949 -0.2697
   79MOL0     C10348   8.273   8.949   5.447 -0.1795 -0.2083  0.2565
   79MOL0     C10349   8.408   8.923   5.444 -0.7051 -0.0869  0.0980
   79MOL0     C10350   8.840   8.710   5.459  0.0587  0.0588  0.9660
   79MOL0     C10351   8.926   8.615   5.511  0.5206  0.4598 -1.1639
   79MOL0     C10352   9.061   8.620   5.492  0.2228 -0.0007 -0.0559
   79MOL0     C10353   9.119   8.713   5.403 -0.2328  0.1890 -0.8108
   79MOL0     O10354   9.251   8.702   5.357 -0.7415  0.1562 -0.8790
   79MOL0     C10355   9.348   8.630   5.445  0.2840  0.4375 -0.0653
   79MOL0     C10356   9.483   8.610   5.376 -0.3301 -0.4558  0.4313
   79MOL0     C10357   9.552   8.753   5.361 -0.0563 -0.3093 -0.1439
   79MOL0     C10358   9.669   8.754   5.274 -0.3750  0.1567  0.7104
   79MOL0     C10359   9.646   8.726   5.128 -0.0385  0.4456  0.0661
   79MOL0     C10360   9.653   8.705   5.003 -0.6669 -0.2617 -0.0571
   79MOL0     C10361   9.039   8.800   5.331  0.3282  0.0850  0.0806
   79MOL0     C10362   8.896   8.805   5.364 -0.2505  0.8220 -0.4830
   79MOL0     H10363   8.432   8.586   5.462  0.9003  0.6714 -0.4284
   79MOL0     H10364   8.181   8.618   5.490  0.9385  0.7312  2.2816
   79MOL0     H10365   7.988   8.866   5.235 -0.0386 -2.9790  0.4923
   79MOL0     H10366   8.081   8.991   5.297  1.5296 -2.3892 -0.9509
   79MOL0     H10367   7.923   9.017   5.494  1.3963 -0.1488  1.0606
   79MOL0     H10368   7.792   8.959   5.380  0.0621 -0.9521  1.7310
   79MOL0     H10369   7.983   9.200   5.337  1.3024 -1.4157  2.7587
   79MOL0     H10370   7.813   9.195   5.393 -1.3485 -3.3900  1.7899
   79MOL0     H10371   7.885   9.048   5.142  1.6163 -0.7422  4.0134
   79MOL0     H10372   7.732   9.077   5.200 -1.0487 -1.0634 -3.7736
   79MOL0     H10373   7.830   9.241   4.999 -0.2847  1.8726  0.0387
   79MOL0     H10374   7.932   9.302   5.128 -0.0583 -1.3195  1.4982
   79MOL0     H10375   7.754   9.376   5.270  0.7269 -0.1845  0.0757
   79MOL0     H10376   7.633   9.314   5.146  0.5280  2.2538 -1.5390
   79MOL0     H10377   7.839   9.513   5.060  0.0432  1.1597 -0.9240
   79MOL0     H10378   7.673   9.489   5.002 -0.3548  2.3328  1.7932
   79MOL0     H10379   7.692   9.707   5.124 -0.1745  0.3826  1.0510
   79MOL0     H10380   7.720   9.625   5.265 -1.1415  2.1074  0.4024
   79MOL0     H10381   7.520   9.763   5.350 -1.1806 -1.3090  1.8741
   79MOL0     H10382   7.139   9.796   5.217  1.0683  0.6105 -0.5630
   79MOL0     H10383   7.274   9.909   5.226  0.0287  0.1248 -0.3561
   79MOL0     H10384   7.205   9.907   5.464  0.7508 -1.1006  1.7204
   79MOL0     H10385   7.314   9.776   5.457 -0.4873  0.3449  0.4647
   79MOL0     H10386   7.094   9.630   5.431  3.1909 -1.0482  2.4217
   79MOL0     H10387   7.099   9.708   5.577 -0.6546 -1.2581 -0.6696
   79MOL0     H10388   6.950   9.868   5.365 -1.3397  0.5690  0.4995
   79MOL0     H10389   6.925   9.847   5.536 -3.6998  0.5930 -1.4969
   79MOL0     H10390   6.689   9.618   5.586  2.8765  0.4343 -1.0109
   79MOL0     H10391   6.438   9.672   5.559 -1.9650  1.6947  0.0010
   79MOL0     H10392   6.069   9.757   5.662 -2.7640 -0.0276  1.4192
   79MOL0     H10393   5.817   9.769   5.639 -3.3962 -0.4197 -2.6806
   79MOL0     H10394   5.684   9.592   5.254  2.2038  2.9111 -0.8321
   79MOL0     H10395   5.613   9.759   5.242 -0.8393 -1.8064 -2.3082
   79MOL0     H10396   5.454   9.526   5.363 -2.4427  0.2427 -1.4624
   79MOL0     H10397   5.428   9.631   5.223 -1.3734 -1.2364  0.2760
   79MOL0     H10398   5.397   9.825   5.400 -1.8023  0.8027  0.1799
   79MOL0     H10399   5.450   9.709   5.519  0.2937  0.5311 -0.3949
   79MOL0     H10400   5.237   9.570   5.453  0.0315 -0.4802  0.3464
   79MOL0     H10401   5.219   9.708   5.549 -2.6984 -1.1967 -0.8097
   79MOL0     H10402   5.206   9.710   5.248  2.4536 -0.5553  0.7947
   79MOL0     H10403   5.161   9.839   5.360  1.9413 -0.4888  3.1482
   79MOL0     H10404   4.948   9.762   5.296 -0.9423  0.7674  2.3497
   79MOL0     H10405   4.972   9.646   5.436 -0.1463 -1.8808 -0.5905
   79MOL0     H10406   5.031   9.589   5.145 -2.5320  1.0602 -0.1283
   79MOL0     H10407   5.078   9.484   5.285  0.1069 -0.0623  0.4055
   79MOL0     H10408   4.835   9.479   5.354  0.6791 -4.1330  0.0437
   79MOL0     H10409   4.871   9.376   5.212 -0.8161 -0.6844  1.1596
   79MOL0     H10410   5.853   9.679   5.220 -1.3095 -0.7886  0.2852
   79MOL0     H10411   6.089   9.704   5.232  1.6993  2.0355 -0.3519
   79MOL0     H10412   6.529   9.906   5.210 -0.1271  0.3851  0.0778
   79MOL0     H10413   6.750   9.828   5.217  1.6924 -0.4736  1.7294
   79MOL0     H10414   8.233   9.050   5.452 -0.3701 -0.3343  2.4101
   79MOL0     H10415   8.474   9.009   5.441 -0.2975 -0.3904 -2.7481
   79MOL0     H10416   8.883   8.536   5.572  1.4773  0.3752 -0.5756
   79MOL0     H10417   9.130   8.546   5.532  0.5624 -0.7759 -1.9728
   79MOL0     H10418   9.306   8.531   5.466 -2.6911  1.5860 -0.0403
   79MOL0     H10419   9.369   8.685   5.537  2.0533  0.0832 -0.2323
   79MOL0     H10420   9.543   8.535   5.430 -2.3755 -1.1838  1.7970
   79MOL0     H10421   9.463   8.571   5.275 -1.1286 -2.2926  1.2539
   79MOL0     H10422   9.590   8.785   5.459 -0.7412 -2.3472  0.8384
   79MOL0     H10423   9.476   8.824   5.325 -1.2617 -0.7054  1.4665
   79MOL0     H10424   9.724   8.848   5.280  2.5067 -1.0753 -2.5600
   79MOL0     H10425   9.732   8.676   5.318  1.1315  0.2334 -1.1384
   79MOL0     H10426   9.660   8.684   4.899 -0.0583  1.1787 -0.3346
   79MOL0     H10427   9.094   8.866   5.265 -0.9572  0.0928 -1.0255
   79MOL0     H10428   8.838   8.894   5.339  1.2744  1.7340 -0.8755
   80MOL0     O10429   7.410   1.254   1.091  0.1815  0.1241  0.4829
   80MOL0     C10430   7.489   1.256   1.182 -1.3324 -0.3910 -0.2972
   80MOL0     O10431   7.457   1.267   1.317  0.0770  0.8483  0.4614
   80MOL0     C10432   7.329   1.284   1.360 -0.2201  0.1524 -0.1887
   80MOL0     C10433   7.300   1.366   1.468 -0.4567 -0.3181 -0.1032
   80MOL0     C10434   7.170   1.381   1.515  0.3424  0.5812 -0.0907
   80MOL0     C10435   7.067   1.326   1.440  0.3044 -0.2989 -0.6778
   80MOL0     O10436   6.939   1.364   1.475  0.2622  0.3452  0.0342
   80MOL0     C10437   6.848   1.381   1.368 -0.0101  0.5396  0.1427
   80MOL0     C10438   6.764   1.509   1.394 -0.3710 -0.1573  0.4868
   80MOL0     C10439   6.664   1.557   1.286  0.5843  0.7666  0.0916
   80MOL0     C10440   6.554   1.453   1.261  1.2015  0.1726 -0.5298
   80MOL0     C10441   6.437   1.513   1.181  0.3024  0.4111 -0.2056
   80MOL0     C10442   6.339   1.402   1.148 -0.3809 -0.3617 -0.4000
   80MOL0     C10443   6.209   1.463   1.085  0.1474 -0.3533 -0.4741
   80MOL0     C10444   6.122   1.341   1.055 -0.4803 -0.1081  0.6475
   80MOL0     N10445   5.986   1.367   1.016 -1.0361 -0.5041 -0.2206
   80MOL0     C10446   5.889   1.267   1.020  0.3689 -0.8506 -0.6162
   80MOL0     C10447   5.780   1.324   0.961 -0.0006  0.5288  0.0863
   80MOL0     C10448   5.652   1.260   0.906 -0.0126 -0.2893  0.0362
   80MOL0     C10449   5.590   1.146   0.982 -0.5578  0.5094 -0.2059
   80MOL0     C10450   5.445   1.132   0.947  0.7703 -0.2382  0.1854
   80MOL0     C10451   5.369   1.026   1.031 -0.1811 -0.5647 -0.0559
   80MOL0     O10452   5.400   0.893   1.006  0.1407 -0.1107  0.6360
   80MOL0     C10453   5.343   0.790   1.074  0.7553  0.5210  0.6943
   80MOL0     C10454   5.217   0.791   1.139  0.4988 -0.8343  0.9893
   80MOL0     C10455   5.158   0.677   1.190 -0.1664  0.2588  0.1739
   80MOL0     C10456   5.230   0.555   1.189 -0.0864 -1.0841 -0.5961
   80MOL0     C10457   5.169   0.432   1.251  0.1066  0.0134 -0.5041
   80MOL0     O10458   5.032   0.445   1.259  0.4287 -0.3526 -0.1201
   80MOL0     C10459   4.970   0.358   1.341  0.2859 -0.3350  0.0206
   80MOL0     C10460   4.951   0.218   1.310  0.2099  0.7134 -0.9661
   80MOL0     C10461   4.874   0.146   1.402 -0.0878  0.1449  0.4734
   80MOL0     C10462   4.827   0.196   1.525 -0.3947  0.4683  0.1683
   80MOL0     O10463   4.734   0.116   1.589 -0.1500  0.2075 -0.1373
   80MOL0     C10464   4.710   0.126   1.729 -0.4899 -0.1062  0.1372
   80MOL0     C10465   4.595   0.035   1.782  0.4755 -0.3205  0.3660
   80MOL0     C10466   4.605  -0.106   1.727 -0.2213 -0.1679  0.1523
   80MOL0     C10467   4.500  -0.189   1.794 -0.5469 -0.3178  0.7784
   80MOL0     C10468   4.511  -0.341   1.772  0.6473 -0.1260  0.7389
   80MOL0     C10469   4.405  -0.432   1.832 -1.1891  0.2642 -0.6355
   80MOL0     C10470   4.417  -0.427   1.993  0.9982 -0.6429  0.4106
   80MOL0     C10471   4.299  -0.511   2.056 -0.0616 -0.3447 -0.3348
   80MOL0    Cl10472   4.138  -0.438   2.021  0.0901 -0.4452  0.4287
   80MOL0     C10473   4.860   0.335   1.549  1.6035  0.1608 -0.7038
   80MOL0     C10474   4.933   0.413   1.460 -0.3400  0.1273 -0.4505
   80MOL0     O10475   5.238   0.340   1.297  0.0548 -0.6261  0.1233
   80MOL0     C10476   5.358   0.561   1.144 -0.2591 -0.7582 -0.4178
   80MOL0     C10477   5.416   0.677   1.079 -0.1150  0.9525 -0.8786
   80MOL0     N10478   5.811   1.460   0.942 -0.5188 -0.3936  0.8199
   80MOL0     N10479   5.933   1.479   0.961  0.3362 -0.7477  0.4250
   80MOL0     C10480   7.088   1.235   1.341 -0.8997  0.1787 -0.1171
   80MOL0     C10481   7.226   1.216   1.304  0.1096  0.1680  0.2068
   80MOL0     C10482   7.632   1.248   1.139 -0.0552  0.3862 -0.0659
   80MOL0     C10483   7.734   1.270   1.235 -0.1498 -0.2221 -0.2016
   80MOL0     C10484   7.875   1.263   1.199  0.2129 -0.1375 -0.7179
   80MOL0     C10485   7.909   1.218   1.069  0.3631 -0.1639 -0.0472
   80MOL0     O10486   8.034   1.188   1.015 -0.2478  0.3989  0.1852
   80MOL0     C10487   8.122   1.102   1.092 -0.0567 -1.0694 -0.2141
   80MOL0     C10488   8.178   1.000   0.999 -0.1446  0.1237  0.7828
   80MOL0     C10489   8.065   0.905   0.939 -0.1453  0.8383  0.2048
   80MOL0     C10490   8.115   0.817   0.823 -0.8518 -0.0444  0.5105
   80MOL0     C10491   8.015   0.724   0.774  0.5258  0.4102  0.7629
   80MOL0     C10492   7.931   0.640   0.744  0.2912 -0.8558 -0.5846
   80MOL0     C10493   7.809   1.187   0.980  1.0778  0.2561 -0.4348
   80MOL0     C10494   7.669   1.207   1.008  1.0018  0.1849 -0.8797
   80MOL0     H10495   7.381   1.412   1.524 -1.1776 -0.1936  0.8721
   80MOL0     H10496   7.151   1.445   1.601  1.4037  1.5735 -0.5719
   80MOL0     H10497   6.789   1.289   1.364  0.8994 -0.0398 -2.7546
   80MOL0     H10498   6.902   1.394   1.273 -1.3415 -1.5606 -1.0007
   80MOL0     H10499   6.834   1.592   1.412  2.6571 -1.1579 -4.6811
   80MOL0     H10500   6.716   1.485   1.489  2.7376  0.8157  2.4907
   80MOL0     H10501   6.707   1.571   1.187 -1.6095 -1.8792 -1.3872
   80MOL0     H10502   6.635   1.652   1.331  1.8970 -0.9913  5.5074
   80MOL0     H10503   6.590   1.369   1.201  0.1204  0.0120 -0.9804
   80MOL0     H10504   6.521   1.408   1.355 -1.5492  0.3395 -1.3154
   80MOL0     H10505   6.467   1.560   1.087  1.4994 -4.4485 -2.5262
   80MOL0     H10506   6.397   1.592   1.246  1.4183  2.5141 -1.9196
   80MOL0     H10507   6.313   1.343   1.236 -1.6715  0.9953  0.1879
   80MOL0     H10508   6.388   1.336   1.076 -0.9781 -2.1442  0.7622
   80MOL0     H10509   6.156   1.530   1.154  1.7861 -0.0188  0.5188
   80MOL0     H10510   6.235   1.521   0.996 -1.2164 -2.5929 -2.4166
   80MOL0     H10511   6.120   1.264   1.133  0.3354 -2.0811 -1.1735
   80MOL0     H10512   6.169   1.293   0.968  0.4818 -0.5107  1.3675
   80MOL0     H10513   5.896   1.164   1.054 -1.2289 -0.8128 -0.0991
   80MOL0     H10514   5.677   1.211   0.811  2.7170 -1.4028  1.2021
   80MOL0     H10515   5.579   1.341   0.897 -0.0153 -0.2023  0.8134
   80MOL0     H10516   5.594   1.144   1.092 -0.4104  0.5966 -0.2090
   80MOL0     H10517   5.639   1.051   0.960  1.4783  1.3121  0.5888
   80MOL0     H10518   5.399   1.229   0.966 -0.5124 -1.0833  1.7163
   80MOL0     H10519   5.436   1.107   0.841  1.4391 -2.0728  0.5075
   80MOL0     H10520   5.262   1.046   1.021  0.3780  1.5236 -3.3515
   80MOL0     H10521   5.397   1.045   1.135  0.7270  1.4596 -0.6234
   80MOL0     H10522   5.153   0.877   1.155  0.0120 -1.4583  2.7351
   80MOL0     H10523   5.067   0.672   1.249  1.4400  0.8253  2.8925
   80MOL0     H10524   4.994   0.170   1.223 -2.1880 -0.7471 -1.4620
   80MOL0     H10525   4.872   0.042   1.373 -0.6340  0.5039 -0.8815
   80MOL0     H10526   4.684   0.230   1.750  1.0830  0.9607 -2.7257
   80MOL0     H10527   4.807   0.108   1.775  1.1902  1.1191 -2.6725
   80MOL0     H10528   4.497   0.079   1.763  0.4310 -1.1403 -1.5526
   80MOL0     H10529   4.605   0.036   1.891  1.0005 -0.3858  0.3192
   80MOL0     H10530   4.710  -0.127   1.751  0.7446  4.3040  0.7356
   80MOL0     H10531   4.598  -0.109   1.618  0.2019 -0.0685  0.1200
   80MOL0     H10532   4.513  -0.168   1.900  1.1180  2.4963  0.1212
   80MOL0     H10533   4.403  -0.150   1.761  0.1935 -0.0786 -1.2740
   80MOL0     H10534   4.607  -0.374   1.812  0.8091  0.8540  1.1780
   80MOL0     H10535   4.522  -0.356   1.664 -0.6563  0.3978  0.5128
   80MOL0     H10536   4.426  -0.533   1.797  4.0950  1.1686 -1.0366
   80MOL0     H10537   4.308  -0.403   1.791 -0.6293  1.3109 -1.2742
   80MOL0     H10538   4.508  -0.482   2.018  0.0674 -2.0037  0.9130
   80MOL0     H10539   4.408  -0.325   2.030  1.5493 -0.7607  0.8768
   80MOL0     H10540   4.317  -0.502   2.163 -1.7575  2.3372 -0.1658
   80MOL0     H10541   4.301  -0.619   2.037 -0.0318 -0.2065 -1.1500
   80MOL0     H10542   4.839   0.378   1.646  0.3571  0.6380 -1.1695
   80MOL0     H10543   4.954   0.517   1.486 -0.2253 -0.7084  3.4058
   80MOL0     H10544   5.400   0.460   1.141  0.8620 -0.4545  2.2555
   80MOL0     H10545   5.510   0.667   1.026 -1.2043  0.9959 -2.9006
   80MOL0     H10546   7.009   1.188   1.283 -0.8788 -1.0273  0.7865
   80MOL0     H10547   7.235   1.139   1.228 -0.1143 -1.4002  1.6791
   80MOL0     H10548   7.707   1.306   1.333 -2.3152 -0.4311 -0.6656
   80MOL0     H10549   7.959   1.279   1.265  0.1768 -1.2833 -0.3818
   80MOL0     H10550   8.065   1.066   1.177 -2.2769  2.3041 -0.0756
   80MOL0     H10551   8.204   1.159   1.138 -0.1759 -2.0405  1.2528
   80MOL0     H10552   8.231   1.044   0.914 -1.4895  0.1669 -0.0504
   80MOL0     H10553   8.254   0.946   1.057  3.0965  3.1177 -0.2999
   80MOL0     H10554   7.978   0.964   0.908 -0.9465  0.2332  1.2503
   80MOL0     H10555   8.020   0.846   1.019 -2.6259 -1.6043 -2.6757
   80MOL0     H10556   8.140   0.884   0.741 -2.4822 -0.2742 -0.2044
   80MOL0     H10557   8.200   0.759   0.860 -1.7075 -0.1624  2.4505
   80MOL0     H10558   7.866   0.556   0.730 -1.5252  0.4956 -0.7052
   80MOL0     H10559   7.844   1.170   0.879  1.3178 -0.0970 -0.2907
   80MOL0     H10560   7.578   1.194   0.950 -0.1944  2.1346  0.4506
   81MOL0     O10561   7.737   4.567   2.360  0.8431  0.2267 -0.4527
   81MOL0     C10562   7.846   4.504   2.353  0.4391  0.8476  0.8701
   81MOL0     O10563   7.857   4.389   2.276 -0.5908 -0.3361  0.1208
   81MOL0     C10564   7.747   4.365   2.200 -0.4151  0.6892 -0.2317
   81MOL0     C10565   7.660   4.262   2.238  0.1602  0.6576 -0.0491
   81MOL0     C10566   7.554   4.214   2.155 -0.4123 -0.0576  0.5943
   81MOL0     C10567   7.546   4.265   2.025  0.3263  0.3187 -0.0093
   81MOL0     O10568   7.455   4.232   1.929  0.1712  0.0373 -0.5328
   81MOL0     C10569   7.334   4.174   1.969  0.0325  0.3150  0.1836
   81MOL0     C10570   7.249   4.245   2.080  0.6130  0.5967 -0.1954
   81MOL0     C10571   7.106   4.197   2.098  0.8398  0.0033  0.2783
   81MOL0     C10572   7.045   4.313   2.183  1.4233 -0.1480 -1.0921
   81MOL0     C10573   6.902   4.284   2.238  0.5081 -0.7101 -0.2632
   81MOL0     C10574   6.805   4.270   2.120  0.3019 -0.3797  0.4912
   81MOL0     C10575   6.651   4.284   2.147 -0.0606  0.9046 -0.8638
   81MOL0     C10576   6.613   4.430   2.183 -0.2573 -0.1616 -0.0120
   81MOL0     N10577   6.462   4.454   2.176  0.3602  0.4837 -0.9782
   81MOL0     C10578   6.387   4.473   2.284  1.0458  1.0211 -0.0554
   81MOL0     C10579   6.267   4.501   2.229  0.1804 -0.3783 -0.2728
   81MOL0     C10580   6.135   4.537   2.300 -0.1009  0.9405 -0.0373
   81MOL0     C10581   6.147   4.662   2.388  0.3846 -0.1924 -1.0255
   81MOL0     C10582   6.186   4.788   2.325  0.0076  0.1180 -0.1862
   81MOL0     C10583   6.064   4.854   2.245  0.2288  0.2713  0.5251
   81MOL0     O10584   5.948   4.855   2.333 -0.4397 -0.4122 -0.2620
   81MOL0     C10585   5.833   4.901   2.269  0.0406 -0.5573  0.8763
   81MOL0     C10586   5.718   4.825   2.298  0.5975 -0.1174  0.4780
   81MOL0     C10587   5.598   4.852   2.237 -0.1940  0.4743  0.2278
   81MOL0     C10588   5.591   4.959   2.150  0.7743  0.5125 -0.3771
   81MOL0     C10589   5.457   4.979   2.083  0.0764  1.0119  0.1047
   81MOL0     O10590   5.346   4.904   2.119 -0.1971  0.0881  0.3418
   81MOL0     C10591   5.211   4.936   2.083 -0.1360  0.3305 -0.6907
   81MOL0     C10592   5.112   4.845   2.112  0.7435  0.3659  0.3754
   81MOL0     C10593   4.976   4.870   2.074 -0.1317 -0.4436 -0.2671
   81MOL0     C10594   4.935   5.005   2.046 -0.7389  0.7952 -0.1173
   81MOL0     O10595   4.809   5.054   2.029  0.1337 -0.3956  0.2952
   81MOL0     C10596   4.708   4.957   2.023  0.1986 -0.1565  0.2856
   81MOL0     C10597   4.588   5.046   2.027  0.2521 -0.5021  0.2626
   81MOL0     C10598   4.463   4.951   2.014 -0.2086  0.3531 -0.6280
   81MOL0     C10599   4.335   5.020   2.067  0.3935 -0.5310 -0.2115
   81MOL0     C10600   4.209   4.924   2.070  0.1411  0.0900  0.0530
   81MOL0     C10601   4.183   4.854   1.942 -0.2132  0.4105 -0.1748
   81MOL0     C10602   4.148   4.945   1.827  0.2438  0.6227  0.3556
   81MOL0     C10603   4.073   4.865   1.717 -0.3325  0.2091  0.6641
   81MOL0    Cl10604   3.915   4.786   1.776  0.0211 -0.0391 -0.0534
   81MOL0     C10605   5.044   5.098   2.039 -0.1157 -0.1118  0.1028
   81MOL0     C10606   5.180   5.067   2.053  0.2952 -0.3918 -0.5560
   81MOL0     O10607   5.461   5.071   2.006  0.5258  0.5082 -0.0044
   81MOL0     C10608   5.706   5.035   2.113  0.7291  0.3988  0.9401
   81MOL0     C10609   5.825   5.006   2.178 -0.9300 -1.2114 -0.1220
   81MOL0     N10610   6.273   4.492   2.088 -0.5844 -0.0040 -0.3048
   81MOL0     N10611   6.396   4.473   2.058  0.1789 -0.1498  0.2685
   81MOL0     C10612   7.640   4.363   1.977  0.6206  0.1516  0.2806
   81MOL0     C10613   7.733   4.413   2.073 -0.5122  0.5528  0.4415
   81MOL0     C10614   7.966   4.547   2.431 -0.5842  0.7541 -0.6817
   81MOL0     C10615   8.091   4.499   2.405  0.5391 -0.1016 -0.3987
   81MOL0     C10616   8.203   4.541   2.476  0.3346 -0.0890  0.8990
   81MOL0     C10617   8.190   4.642   2.581 -0.7181 -0.3718  0.1296
   81MOL0     O10618   8.297   4.686   2.659  0.3021 -0.0771  0.0140
   81MOL0     C10619   8.390   4.578   2.700 -0.3967 -1.1574  0.3066
   81MOL0     C10620   8.495   4.641   2.798  0.0014  0.2324  0.1943
   81MOL0     C10621   8.589   4.741   2.726 -0.0978  0.6585 -0.5700
   81MOL0     C10622   8.674   4.818   2.828 -0.7749  0.4815  0.0188
   81MOL0     C10623   8.777   4.735   2.894  0.6728  0.2544 -0.2614
   81MOL0     C10624   8.879   4.684   2.914 -0.1826  0.4745  0.1678
   81MOL0     C10625   8.068   4.701   2.602  0.5526 -1.3204  0.0745
   81MOL0     C10626   7.960   4.655   2.522  0.2958 -0.3101 -0.9473
   81MOL0     H10627   7.668   4.213   2.335 -0.1985 -0.7282 -0.6917
   81MOL0     H10628   7.493   4.140   2.206  0.9698  0.5007  3.2808
   81MOL0     H10629   7.359   4.074   2.006  0.3850 -0.2582 -1.5281
   81MOL0     H10630   7.271   4.169   1.880  0.0862 -0.8857  0.1955
   81MOL0     H10631   7.246   4.346   2.038 -0.7799 -0.0830 -1.8457
   81MOL0     H10632   7.298   4.246   2.178  1.5160  3.1256 -0.6044
   81MOL0     H10633   7.090   4.106   2.156 -0.6016  0.2300  0.2822
   81MOL0     H10634   7.064   4.190   1.998 -1.5997  1.6116  1.1018
   81MOL0     H10635   7.104   4.338   2.272 -1.0457 -0.2756  0.7008
   81MOL0     H10636   7.043   4.404   2.123 -1.4265  1.2815  0.8924
   81MOL0     H10637   6.890   4.373   2.300  2.2584  1.0562 -2.2681
   81MOL0     H10638   6.891   4.195   2.300 -2.3518  0.4785  1.1486
   81MOL0     H10639   6.830   4.176   2.070  0.2982  0.0238 -0.2996
   81MOL0     H10640   6.843   4.331   2.037  3.5056 -0.8539  1.4832
   81MOL0     H10641   6.606   4.250   2.054 -1.7810 -1.1875  0.6467
   81MOL0     H10642   6.622   4.216   2.227 -1.4028  1.1056 -1.1598
   81MOL0     H10643   6.661   4.494   2.108  1.5936  0.2556  1.4390
   81MOL0     H10644   6.653   4.456   2.282 -1.4608 -0.3495  0.5482
   81MOL0     H10645   6.418   4.476   2.388  1.5692  1.5542 -0.2180
   81MOL0     H10646   6.100   4.452   2.359 -1.6465  0.3431 -1.7389
   81MOL0     H10647   6.057   4.552   2.225  0.5061 -2.1680 -1.4145
   81MOL0     H10648   6.221   4.649   2.467 -0.0590  0.1978 -0.5332
   81MOL0     H10649   6.059   4.676   2.451  1.4611 -1.8480  0.9427
   81MOL0     H10650   6.219   4.860   2.400 -0.0033 -0.8391  0.7595
   81MOL0     H10651   6.258   4.788   2.242  2.8085  1.7989  2.0548
   81MOL0     H10652   6.040   4.810   2.147  0.8944 -2.2055  1.3956
   81MOL0     H10653   6.086   4.960   2.236 -2.6801  1.1863  2.6529
   81MOL0     H10654   5.734   4.733   2.355  3.3501 -0.3634 -0.5613
   81MOL0     H10655   5.512   4.789   2.256  0.5422 -0.7789 -0.4626
   81MOL0     H10656   5.135   4.748   2.156 -1.8709  0.4361  2.1643
   81MOL0     H10657   4.904   4.789   2.072 -0.4646 -0.1836 -2.6874
   81MOL0     H10658   4.717   4.888   2.107  1.8816  0.1423  0.3930
   81MOL0     H10659   4.708   4.905   1.927 -2.0081 -1.8562  1.1103
   81MOL0     H10660   4.590   5.125   1.952  0.4152 -2.4385 -1.8909
   81MOL0     H10661   4.584   5.088   2.128 -0.4101 -1.0507  0.4755
   81MOL0     H10662   4.483   4.858   2.067  0.0399  1.5334  1.4675
   81MOL0     H10663   4.453   4.926   1.908  3.7435  0.8295 -1.2548
   81MOL0     H10664   4.362   5.058   2.166 -1.1740  0.6559 -0.1944
   81MOL0     H10665   4.325   5.106   2.001  3.2504 -0.0935 -0.1889
   81MOL0     H10666   4.125   4.988   2.096  3.2263  4.2940  0.6526
   81MOL0     H10667   4.210   4.859   2.158 -0.1979  1.2469  0.9388
   81MOL0     H10668   4.104   4.784   1.970 -0.3556  1.3335  1.9038
   81MOL0     H10669   4.269   4.793   1.914 -2.3809 -2.5513 -0.8950
   81MOL0     H10670   4.084   5.030   1.853  2.3272  2.3935  0.0269
   81MOL0     H10671   4.240   4.991   1.788 -0.6145  1.2720 -0.9998
   81MOL0     H10672   4.133   4.787   1.670 -0.2099  1.0006 -0.5565
   81MOL0     H10673   4.064   4.936   1.634  1.2588  0.8729  1.0169
   81MOL0     H10674   5.022   5.202   2.017  1.1662  0.0521 -0.5145
   81MOL0     H10675   5.247   5.153   2.055  1.3799 -1.2210 -0.7305
   81MOL0     H10676   5.693   5.107   2.032  2.5071 -0.3713 -0.1013
   81MOL0     H10677   5.916   5.060   2.155  0.0355 -2.0388  1.5227
   81MOL0     H10678   7.623   4.396   1.875  0.8335 -2.8827 -0.8284
   81MOL0     H10679   7.793   4.494   2.034 -1.5943  2.3372  2.2719
   81MOL0     H10680   8.099   4.422   2.329 -3.5372 -1.4141  0.2012
   81MOL0     H10681   8.306   4.514   2.455  0.4697  0.2704  1.1069
   81MOL0     H10682   8.442   4.527   2.619  0.0088  2.3068 -1.8063
   81MOL0     H10683   8.331   4.503   2.755  1.8034 -2.8773  0.4711
   81MOL0     H10684   8.439   4.689   2.879 -0.5203  0.3685 -0.2422
   81MOL0     H10685   8.547   4.553   2.837 -0.8916 -1.5449 -2.2794
   81MOL0     H10686   8.531   4.819   2.674  1.3442  1.1053 -1.5579
   81MOL0     H10687   8.661   4.681   2.671  1.0424  0.3189  1.2078
   81MOL0     H10688   8.728   4.897   2.774  1.7475 -1.5307 -0.6483
   81MOL0     H10689   8.618   4.871   2.905 -1.2603  2.0584 -1.3550
   81MOL0     H10690   8.961   4.632   2.959 -1.6908 -0.8706  1.4643
   81MOL0     H10691   8.060   4.783   2.672 -0.0191 -1.7489  0.5251
   81MOL0     H10692   7.864   4.695   2.552  0.2168 -1.0365 -0.1940
   82MOL0     O10693   5.559   5.811   8.888 -0.6719  0.2213 -1.7563
   82MOL0     C10694   5.504   5.910   8.849  0.7969  1.3812  0.0130
   82MOL0     O10695   5.368   5.936   8.856 -0.3068  0.5298  0.1643
   82MOL0     C10696   5.276   5.846   8.899  0.3477  0.1194 -0.2152
   82MOL0     C10697   5.293   5.716   8.947  0.1819  0.2635 -0.0669
   82MOL0     C10698   5.175   5.639   8.973 -0.9345  0.1826  0.2522
   82MOL0     C10699   5.045   5.680   8.966 -0.1479 -1.0133 -0.6420
   82MOL0     O10700   4.943   5.593   8.994 -0.6303 -0.3453  0.0122
   82MOL0     C10701   4.908   5.513   8.886 -0.7449  0.2349  0.4364
   82MOL0     C10702   4.767   5.526   8.827 -0.5313 -0.3813  0.1688
   82MOL0     C10703   4.739   5.659   8.751 -0.6367  0.1391  0.3085
   82MOL0     C10704   4.598   5.680   8.711  0.9175 -0.2716  0.2089
   82MOL0     C10705   4.488   5.665   8.816  0.7724  0.7472  0.4788
   82MOL0     C10706   4.343   5.682   8.761 -0.3334 -0.8665  0.2362
   82MOL0     C10707   4.244   5.616   8.857 -0.5872  0.5638 -0.1751
   82MOL0     C10708   4.106   5.586   8.782 -1.0154 -0.0558 -0.1010
   82MOL0     N10709   4.012   5.697   8.784 -0.1804 -0.5667 -0.3112
   82MOL0     C10710   3.990   5.807   8.700 -0.5897  0.4953  0.1200
   82MOL0     C10711   3.892   5.875   8.759  0.1912 -1.0907  0.0678
   82MOL0     C10712   3.828   6.000   8.704  0.1377  0.0145 -0.7219
   82MOL0     C10713   3.930   6.118   8.738  0.1048  0.2825 -0.0541
   82MOL0     C10714   3.884   6.239   8.669  0.3247 -0.5230 -0.1564
   82MOL0     C10715   3.930   6.250   8.522  0.1811  0.0418  0.4614
   82MOL0     O10716   3.869   6.369   8.464  0.7493 -0.0664 -0.2241
   82MOL0     C10717   3.744   6.370   8.410 -0.6507  0.1942  0.5963
   82MOL0     C10718   3.653   6.256   8.399  0.8346 -0.2724 -1.0536
   82MOL0     C10719   3.531   6.284   8.348  0.1809 -0.5311  0.4504
   82MOL0     C10720   3.495   6.409   8.300  0.6705  0.0177 -0.3202
   82MOL0     C10721   3.360   6.430   8.249  0.7092  0.0308 -0.5579
   82MOL0     O10722   3.292   6.329   8.201  0.5034  0.2244  0.1424
   82MOL0     C10723   3.168   6.342   8.151 -0.1472  0.3110 -0.0534
   82MOL0     C10724   3.131   6.443   8.058  0.4097  0.4653 -0.0932
   82MOL0     C10725   3.005   6.439   8.000  0.4451  0.5097  0.2111
   82MOL0     C10726   2.911   6.336   8.036 -1.0640  0.0244 -0.3459
   82MOL0     O10727   2.778   6.325   7.990  0.3379  0.1335 -0.0495
   82MOL0     C10728   2.735   6.409   7.878 -0.2489  0.4874 -0.2974
   82MOL0     C10729   2.806   6.354   7.748  0.2254 -0.0892 -0.3829
   82MOL0     C10730   2.701   6.340   7.633  0.2047  1.2303  0.0489
   82MOL0     C10731   2.655   6.488   7.589 -0.1087  0.8468  0.2599
   82MOL0     C10732   2.538   6.476   7.491 -1.2070 -0.2506  0.5433
   82MOL0     C10733   2.565   6.402   7.352 -0.1728 -0.0841  0.5906
   82MOL0     C10734   2.448   6.394   7.262  0.5233  0.1215  0.0018
   82MOL0     C10735   2.379   6.532   7.229 -0.6216  0.1027 -0.0280
   82MOL0    Cl10736   2.250   6.500   7.117  0.5721  0.4738  0.0526
   82MOL0     C10737   2.960   6.236   8.123  0.6902  0.3006  0.2056
   82MOL0     C10738   3.085   6.235   8.173  0.1798 -0.4527  0.2004
   82MOL0     O10739   3.323   6.548   8.263 -0.3660  0.7276  0.3303
   82MOL0     C10740   3.586   6.519   8.308  0.5621 -0.2057  1.4876
   82MOL0     C10741   3.708   6.497   8.357 -0.7615 -0.2839 -0.6969
   82MOL0     N10742   3.847   5.805   8.866 -0.6791 -0.1257  0.4287
   82MOL0     N10743   3.926   5.707   8.888 -0.7222  0.6093  0.4344
   82MOL0     C10744   5.030   5.811   8.929 -0.2862  0.4405 -0.6401
   82MOL0     C10745   5.141   5.888   8.890 -0.0943  0.6232  0.5583
   82MOL0     C10746   5.601   5.999   8.790 -0.0089  0.2671  0.3588
   82MOL0     C10747   5.726   5.950   8.749 -0.1098 -0.8730 -0.0005
   82MOL0     C10748   5.817   6.036   8.684 -0.1520  0.3451  0.4323
   82MOL0     C10749   5.787   6.173   8.666  0.2977  0.7266  0.6395
   82MOL0     O10750   5.887   6.254   8.626  0.5367  0.7268  0.5349
   82MOL0     C10751   5.849   6.346   8.529  0.1722 -1.2702 -0.0178
   82MOL0     C10752   5.830   6.487   8.594  0.3750 -0.7169  0.9058
   82MOL0     C10753   5.961   6.559   8.638 -0.9495  0.2986  0.4459
   82MOL0     C10754   6.052   6.483   8.739  0.7569  0.2254  0.1481
   82MOL0     C10755   6.181   6.538   8.740 -0.6735 -0.7633  0.2301
   82MOL0     C10756   6.294   6.588   8.725  0.2553  1.0868  0.1960
   82MOL0     C10757   5.654   6.221   8.696 -0.0081  0.2900 -0.6290
   82MOL0     C10758   5.568   6.132   8.756  0.4481  0.0909 -0.8403
   82MOL0     H10759   5.387   5.665   8.966  0.0880  0.3393  0.6569
   82MOL0     H10760   5.191   5.538   9.009  0.2603 -0.0864 -0.9600
   82MOL0     H10761   4.925   5.414   8.930  1.1468  1.0748  1.7047
   82MOL0     H10762   4.979   5.522   8.803  1.3961 -2.8463  1.7444
   82MOL0     H10763   4.704   5.505   8.914  1.0834 -0.5415  1.3524
   82MOL0     H10764   4.743   5.449   8.754 -1.2140  2.0235 -2.3163
   82MOL0     H10765   4.797   5.670   8.659  2.5852 -2.3609  1.8486
   82MOL0     H10766   4.758   5.749   8.811 -2.4302  1.5339 -1.0737
   82MOL0     H10767   4.599   5.777   8.660 -0.9369 -1.2573 -1.8740
   82MOL0     H10768   4.574   5.597   8.644 -1.8271 -1.1132  2.0625
   82MOL0     H10769   4.509   5.741   8.892 -0.9334 -0.0068  1.7706
   82MOL0     H10770   4.492   5.566   8.864 -0.2330  0.7866  0.6595
   82MOL0     H10771   4.339   5.629   8.665  1.4686  1.2666 -1.1309
   82MOL0     H10772   4.306   5.783   8.739  0.2399 -0.8497 -0.7274
   82MOL0     H10773   4.288   5.521   8.889  0.8672  1.7619  1.5947
   82MOL0     H10774   4.227   5.676   8.947  1.4804 -0.6151  1.0905
   82MOL0     H10775   4.058   5.506   8.839  2.7567 -2.9866 -0.6631
   82MOL0     H10776   4.115   5.546   8.681 -0.4297  2.2591 -1.0245
   82MOL0     H10777   4.052   5.838   8.617 -0.5721  0.7784  0.2392
   82MOL0     H10778   3.732   6.018   8.753  1.1751  0.9361  1.1001
   82MOL0     H10779   3.808   5.999   8.596  1.2542 -1.5620 -0.9363
   82MOL0     H10780   4.032   6.089   8.712 -0.8789 -1.0088 -2.9229
   82MOL0     H10781   3.921   6.130   8.846 -1.6130 -0.7424 -0.0380
   82MOL0     H10782   3.776   6.253   8.668  0.6871  3.8094  1.8242
   82MOL0     H10783   3.923   6.321   8.728  0.1565 -0.6294  0.1040
   82MOL0     H10784   3.903   6.162   8.463 -1.8833  2.2062 -2.0455
   82MOL0     H10785   4.039   6.251   8.526  0.1952 -0.6311  0.4671
   82MOL0     H10786   3.656   6.160   8.450 -2.3201  0.8539  1.6669
   82MOL0     H10787   3.449   6.213   8.360 -0.1885 -0.2658 -0.4122
   82MOL0     H10788   3.201   6.522   8.034 -0.4792  1.4497  0.4966
   82MOL0     H10789   2.980   6.519   7.931  1.6747  0.9697  0.2685
   82MOL0     H10790   2.774   6.509   7.898  0.0112  0.1753  0.8452
   82MOL0     H10791   2.626   6.421   7.869 -0.7140 -1.4972  1.6630
   82MOL0     H10792   2.854   6.257   7.764  2.0055  0.9080  0.8183
   82MOL0     H10793   2.884   6.425   7.719  1.2036 -0.5298  1.0378
   82MOL0     H10794   2.615   6.288   7.676  2.3231 -2.5615  0.0958
   82MOL0     H10795   2.737   6.266   7.561 -4.4241 -0.7052 -0.6291
   82MOL0     H10796   2.629   6.544   7.679 -0.1264 -0.9166  1.3993
   82MOL0     H10797   2.735   6.542   7.538  1.3034 -0.0936  1.4205
   82MOL0     H10798   2.514   6.578   7.459 -0.0054 -0.4385 -1.0774
   82MOL0     H10799   2.441   6.450   7.536 -2.7753 -0.8787 -2.8388
   82MOL0     H10800   2.608   6.305   7.378  0.1368  0.4779  2.3497
   82MOL0     H10801   2.638   6.452   7.289 -0.9023 -0.2996 -0.4572
   82MOL0     H10802   2.469   6.336   7.171 -1.7360  0.6475 -0.9178
   82MOL0     H10803   2.370   6.337   7.314  0.6735 -0.1887 -0.1052
   82MOL0     H10804   2.444   6.602   7.175 -0.1277 -1.9154 -2.2466
   82MOL0     H10805   2.341   6.581   7.319  0.9696  0.7259  0.3384
   82MOL0     H10806   2.890   6.157   8.150 -2.9959  2.0373 -3.2359
   82MOL0     H10807   3.121   6.150   8.231  2.6725 -0.8947 -1.7879
   82MOL0     H10808   3.550   6.613   8.268 -2.1368 -1.1489  1.4978
   82MOL0     H10809   3.767   6.589   8.360  0.2801 -0.9545  0.7370
   82MOL0     H10810   4.932   5.858   8.924 -0.3915  0.2064 -0.7711
   82MOL0     H10811   5.118   5.993   8.871 -0.9677  0.8281  2.5392
   82MOL0     H10812   5.758   5.849   8.775  2.6083  0.3746  1.9097
   82MOL0     H10813   5.920   6.007   8.665  0.9534  2.1735  3.0773
   82MOL0     H10814   5.761   6.318   8.470  0.1505 -2.3947  0.5185
   82MOL0     H10815   5.934   6.367   8.463  0.3572 -1.4401  0.1658
   82MOL0     H10816   5.777   6.545   8.517  0.7549  0.1986  1.3264
   82MOL0     H10817   5.774   6.486   8.688  2.1843  0.5556  2.0793
   82MOL0     H10818   5.931   6.656   8.679  2.1979  1.4406  0.2917
   82MOL0     H10819   6.017   6.592   8.550 -2.8722 -1.8764 -1.7515
   82MOL0     H10820   5.997   6.480   8.833 -2.6361 -1.8662 -1.6815
   82MOL0     H10821   6.063   6.380   8.703 -0.2137  0.3580 -0.5610
   82MOL0     H10822   6.391   6.626   8.700  1.9179 -2.1409  1.1779
   82MOL0     H10823   5.623   6.324   8.689 -0.3073  0.1413 -1.6063
   82MOL0     H10824   5.471   6.175   8.778  1.7359  2.1251  1.3041
   83MOL0     O10825   9.727  11.232   4.850 -0.8801 -0.0978  0.3355
   83MOL0     C10826   9.675  11.304   4.935 -0.7688  0.3306 -0.4478
   83MOL0     O10827   9.545  11.329   4.947 -0.1746 -0.5116  0.3276
   83MOL0     C10828   9.450  11.249   4.884 -0.6698 -0.2097  0.4418
   83MOL0     C10829   9.332  11.308   4.834  0.1525  0.7092 -0.4580
   83MOL0     C10830   9.239  11.227   4.763 -0.1464 -0.2395 -0.4848
   83MOL0     C10831   9.263  11.089   4.735  0.0218  0.3202  0.0246
   83MOL0     O10832   9.169  11.022   4.665  0.5465  0.2778 -0.5647
   83MOL0     C10833   9.154  10.880   4.671 -0.2908 -1.2722  1.2401
   83MOL0     C10834   9.044  10.840   4.565  0.0307  0.4131  0.5185
   83MOL0     C10835   8.905  10.836   4.618 -0.7791  0.7960 -0.8597
   83MOL0     C10836   8.799  10.794   4.514 -0.1623 -0.0998 -0.2244
   83MOL0     C10837   8.658  10.812   4.557 -0.6921 -0.0122  0.5911
   83MOL0     C10838   8.562  10.766   4.438 -0.8072 -0.3420 -0.5642
   83MOL0     C10839   8.411  10.781   4.472 -0.7174 -0.0244  0.2877
   83MOL0     C10840   8.321  10.713   4.365  0.7005  0.4509 -1.2715
   83MOL0     N10841   8.181  10.740   4.384  0.0601 -0.1004 -0.0885
   83MOL0     C10842   8.110  10.738   4.503 -0.4692  0.2977 -0.5499
   83MOL0     C10843   7.988  10.787   4.481 -0.2589 -0.3817  1.2133
   83MOL0     C10844   7.887  10.781   4.587 -0.0390 -0.3093 -0.5036
   83MOL0     C10845   7.746  10.765   4.526  0.2159  0.3860 -0.4628
   83MOL0     C10846   7.639  10.745   4.633 -1.1095  0.1756  0.2165
   83MOL0     C10847   7.507  10.725   4.568 -1.0160 -0.1798  0.7980
   83MOL0     O10848   7.406  10.716   4.667 -0.2494  0.1782 -0.6268
   83MOL0     C10849   7.278  10.699   4.614 -0.0370  0.5475 -0.9597
   83MOL0     C10850   7.244  10.635   4.491 -0.5470 -0.2913 -0.6522
   83MOL0     C10851   7.114  10.612   4.442 -0.5882  0.7517 -1.0607
   83MOL0     C10852   7.007  10.657   4.524  0.0332 -0.0576 -0.3014
   83MOL0     C10853   6.864  10.637   4.486  0.1240 -0.3066 -0.9174
   83MOL0     O10854   6.773  10.644   4.585  0.2652 -0.4447 -0.6002
   83MOL0     C10855   6.645  10.604   4.584  0.9209 -0.1814  0.2234
   83MOL0     C10856   6.571  10.685   4.676 -0.2808  0.8392  0.6614
   83MOL0     C10857   6.435  10.656   4.685  1.1312 -0.4409  0.2536
   83MOL0     C10858   6.375  10.551   4.611 -0.1695 -0.3065 -0.2274
   83MOL0     O10859   6.245  10.510   4.628 -0.7296 -0.7107  0.3272
   83MOL0     C10860   6.171  10.569   4.738  0.4751  0.2383 -1.0513
   83MOL0     C10861   6.047  10.478   4.769  0.4391 -0.0532  0.1394
   83MOL0     C10862   5.966  10.438   4.654 -0.0211  0.3871 -0.8111
   83MOL0     C10863   5.842  10.354   4.688  0.0736  0.1845  0.0493
   83MOL0     C10864   5.771  10.323   4.554 -0.7303  0.0527  0.4769
   83MOL0     C10865   5.673  10.201   4.563 -0.4383  0.4537 -0.3349
   83MOL0     C10866   5.556  10.217   4.658 -0.2003 -0.0672 -0.0736
   83MOL0     C10867   5.421  10.271   4.600 -0.2025  0.2428 -0.4008
   83MOL0    Cl10868   5.329  10.135   4.538 -0.2402  0.0281 -0.0756
   83MOL0     C10869   6.457  10.472   4.531 -0.3699 -0.1441  0.2698
   83MOL0     C10870   6.592  10.508   4.503 -0.3114  0.2068 -0.3817
   83MOL0     O10871   6.832  10.601   4.379 -0.6577 -0.2912 -0.5321
   83MOL0     C10872   7.036  10.728   4.647 -0.4251 -0.8501  0.3558
   83MOL0     C10873   7.167  10.753   4.693 -0.0266 -0.1619 -0.3357
   83MOL0     N10874   7.978  10.839   4.354 -0.0334  0.3130  0.3426
   83MOL0     N10875   8.093  10.802   4.297 -0.1915  0.6188 -0.0859
   83MOL0     C10876   9.380  11.037   4.793 -0.0426  0.5389  0.2502
   83MOL0     C10877   9.473  11.114   4.858 -0.7933  0.0621 -0.4022
   83MOL0     C10878   9.754  11.367   5.040 -0.3649  1.2904  0.2420
   83MOL0     C10879   9.885  11.313   5.067 -0.4269  0.6436  0.0756
   83MOL0     C10880   9.975  11.368   5.163 -0.5816  0.5629 -0.1029
   83MOL0     C10881   9.922  11.465   5.248 -0.0352 -0.2536 -0.4000
   83MOL0     O10882   9.994  11.511   5.356  0.3398 -0.5998 -0.5143
   83MOL0     C10883  10.125  11.464   5.376 -0.2204  0.4399 -0.0955
   83MOL0     C10884  10.170  11.545   5.499  0.0521  0.4150  0.0099
   83MOL0     C10885  10.309  11.510   5.557  0.9690  0.4713 -0.6829
   83MOL0     C10886  10.346  11.367   5.539  0.3047  0.7630 -0.0889
   83MOL0     C10887  10.480  11.335   5.582 -0.2382 -0.5773 -0.7528
   83MOL0     C10888  10.589  11.313   5.630 -0.2839 -0.4341 -0.8284
   83MOL0     C10889   9.786  11.521   5.226 -0.1373 -0.1321 -0.0179
   83MOL0     C10890   9.708  11.477   5.116  1.2310  0.2445 -0.4477
   83MOL0     H10891   9.329  11.416   4.837 -2.2354  0.7053 -0.4198
   83MOL0     H10892   9.149  11.259   4.711 -0.3431 -0.4117 -0.2570
   83MOL0     H10893   9.123  10.856   4.773 -2.1634  2.3353  1.6639
   83MOL0     H10894   9.255  10.841   4.652 -0.0573  0.6301 -2.2502
   83MOL0     H10895   9.069  10.740   4.527  1.8959 -0.0175  2.6089
   83MOL0     H10896   9.042  10.912   4.483  0.8882  0.3762  0.4565
   83MOL0     H10897   8.876  10.935   4.656  2.7828  1.8816 -0.6139
   83MOL0     H10898   8.901  10.766   4.701 -1.1236  1.0274 -0.6784
   83MOL0     H10899   8.818  10.865   4.432 -0.1351 -1.0371 -1.0427
   83MOL0     H10900   8.815  10.695   4.472 -1.0940 -0.4485  0.2266
   83MOL0     H10901   8.637  10.912   4.596  1.8615  1.1206 -0.6712
   83MOL0     H10902   8.636  10.733   4.630  2.5159 -1.4582  0.1918
   83MOL0     H10903   8.586  10.663   4.408 -2.2864 -0.6594 -0.7489
   83MOL0     H10904   8.579  10.828   4.350  0.4145  0.7057  0.3694
   83MOL0     H10905   8.389  10.726   4.564  4.6703 -2.6111  0.4233
   83MOL0     H10906   8.385  10.886   4.488  0.6489  0.4478 -0.3926
   83MOL0     H10907   8.331  10.606   4.384  0.6177  0.5238 -0.8013
   83MOL0     H10908   8.348  10.731   4.261 -2.7699  2.1320 -2.0532
   83MOL0     H10909   8.157  10.683   4.584 -0.6601 -1.8359 -1.7991
   83MOL0     H10910   7.888  10.873   4.647 -0.0034 -0.6079 -0.0345
   83MOL0     H10911   7.899  10.697   4.656 -3.3930  1.2637  2.3119
   83MOL0     H10912   7.764  10.671   4.472  3.2984  0.0650  0.9376
   83MOL0     H10913   7.712  10.841   4.456  0.7612  2.5074  1.4698
   83MOL0     H10914   7.663  10.653   4.686 -1.6456  0.5451  1.1266
   83MOL0     H10915   7.640  10.826   4.706 -1.9037  1.4256 -1.0816
   83MOL0     H10916   7.523  10.635   4.509  0.2067 -0.7372  1.9150
   83MOL0     H10917   7.483  10.804   4.497  1.2133 -1.8132 -1.9773
   83MOL0     H10918   7.314  10.582   4.427 -2.1992 -2.7419 -0.5905
   83MOL0     H10919   7.091  10.567   4.346 -1.8685  0.5382 -0.6772
   83MOL0     H10920   6.607  10.778   4.719  0.3712  0.7970  0.2090
   83MOL0     H10921   6.375  10.723   4.746 -0.1847 -2.7650  1.6789
   83MOL0     H10922   6.140  10.670   4.710 -0.1735 -0.3149 -2.4303
   83MOL0     H10923   6.237  10.561   4.825 -2.0389 -4.3491  0.7777
   83MOL0     H10924   5.991  10.512   4.857 -0.9474 -2.0767  0.1120
   83MOL0     H10925   6.099  10.385   4.795 -0.5746 -0.5447  0.4843
   83MOL0     H10926   6.029  10.396   4.575 -2.6190 -0.8000 -2.3931
   83MOL0     H10927   5.923  10.529   4.611 -2.1574  0.2468  0.8457
   83MOL0     H10928   5.859  10.260   4.740  0.1834 -0.2506 -0.7587
   83MOL0     H10929   5.777  10.423   4.743 -0.0498  2.2215 -2.4381
   83MOL0     H10930   5.856  10.302   4.488  0.7288  1.7935  1.6971
   83MOL0     H10931   5.719  10.408   4.508  1.9158  1.3543 -0.3013
   83MOL0     H10932   5.737  10.121   4.601 -2.0930 -0.8364 -0.1398
   83MOL0     H10933   5.655  10.162   4.462  0.2223 -3.3855  0.8634
   83MOL0     H10934   5.532  10.118   4.700  3.1585 -1.2666 -0.6977
   83MOL0     H10935   5.579  10.290   4.736 -0.5989  0.0429 -0.0539
   83MOL0     H10936   5.453  10.333   4.515 -2.1882 -1.8805 -2.8572
   83MOL0     H10937   5.364  10.328   4.674 -2.3877 -2.3502  0.0456
   83MOL0     H10938   6.423  10.388   4.472 -1.1332  0.7050 -0.5323
   83MOL0     H10939   6.651  10.451   4.432 -0.1308  0.8426 -0.7503
   83MOL0     H10940   6.948  10.764   4.700 -0.2137 -0.3296  0.3667
   83MOL0     H10941   7.182  10.804   4.788 -2.1632  0.9357 -0.5436
   83MOL0     H10942   9.408  10.933   4.776 -2.2047  0.1884 -1.6138
   83MOL0     H10943   9.567  11.067   4.887  0.2970  1.4992 -1.3974
   83MOL0     H10944   9.919  11.237   4.998  0.7813  0.8286  0.4466
   83MOL0     H10945  10.073  11.321   5.161 -0.5745  0.5475 -2.0511
   83MOL0     H10946  10.196  11.482   5.295  2.2221  4.7120  2.6175
   83MOL0     H10947  10.113  11.360   5.408 -0.0450 -0.1500 -1.8784
   83MOL0     H10948  10.166  11.652   5.477 -2.9066  0.1023 -1.4986
   83MOL0     H10949  10.095  11.529   5.577 -2.0262  0.8345 -1.8229
   83MOL0     H10950  10.298  11.536   5.663 -0.1088  0.9450 -0.9004
   83MOL0     H10951  10.383  11.575   5.510  1.7615  0.6767  0.8067
   83MOL0     H10952  10.271  11.302   5.586 -0.8357  0.9206 -1.5958
   83MOL0     H10953  10.347  11.337   5.434 -1.2271  0.2704  0.0123
   83MOL0     H10954  10.681  11.297   5.683  0.0407  0.1281 -1.2109
   83MOL0     H10955   9.751  11.602   5.288  0.0092 -0.8110  0.9744
   83MOL0     H10956   9.613  11.526   5.096  1.1382  0.2952  0.1187
   84MOL0     O10957  10.944   1.142   3.250 -0.5703 -0.2877  0.6089
   84MOL0     C10958  10.971   1.259   3.247 -0.2916  0.8178  0.4238
   84MOL0     O10959  10.874   1.357   3.259 -0.3271  0.2393 -0.0024
   84MOL0     C10960  10.743   1.314   3.264 -0.1956 -0.1571  0.1436
   84MOL0     C10961  10.701   1.238   3.371  0.5291  0.0698  0.2890
   84MOL0     C10962  10.563   1.202   3.389  0.6735  0.0233 -0.4678
   84MOL0     C10963  10.464   1.249   3.311  0.1116  0.4037 -0.0264
   84MOL0     O10964  10.342   1.199   3.331 -0.2849  0.4686 -0.0179
   84MOL0     C10965  10.231   1.256   3.268  0.4329 -0.0159  0.0412
   84MOL0     C10966  10.117   1.187   3.327  0.1602  0.3065  0.1685
   84MOL0     C10967   9.978   1.237   3.287  0.8836 -0.6185 -0.0869
   84MOL0     C10968   9.868   1.194   3.391  0.2988  0.4356 -0.3034
   84MOL0     C10969   9.734   1.231   3.329  0.3336 -0.3674  0.2252
   84MOL0     C10970   9.612   1.194   3.418 -0.1539  0.0480 -0.2487
   84MOL0     C10971   9.489   1.233   3.341 -0.8774 -1.0693 -0.5901
   84MOL0     C10972   9.359   1.177   3.401  0.0151 -0.6434  0.0478
   84MOL0     N10973   9.328   1.221   3.541  0.6830 -0.2097 -0.9638
   84MOL0     C10974   9.275   1.346   3.564 -0.2387 -0.5214  0.0933
   84MOL0     C10975   9.230   1.339   3.691 -0.2431 -0.0186  0.0924
   84MOL0     C10976   9.146   1.440   3.759 -0.0119  0.3176 -0.5397
   84MOL0     C10977   9.017   1.390   3.818 -1.3070  0.1507 -0.5298
   84MOL0     C10978   8.913   1.330   3.711 -0.2994 -0.6074 -0.1878
   84MOL0     C10979   8.822   1.422   3.638  0.3041  0.2048  0.5857
   84MOL0     O10980   8.748   1.517   3.720  0.0807 -0.2382 -0.6451
   84MOL0     C10981   8.649   1.583   3.658  0.0290 -0.6581 -0.0953
   84MOL0     C10982   8.560   1.655   3.743  0.3469 -1.1243  0.3626
   84MOL0     C10983   8.461   1.741   3.684  0.0746 -0.6801  0.4660
   84MOL0     C10984   8.444   1.745   3.545  0.1954  0.8374  0.2088
   84MOL0     C10985   8.342   1.838   3.488 -0.4859  0.5527  0.3071
   84MOL0     O10986   8.270   1.905   3.588 -0.1656 -0.2195 -0.4086
   84MOL0     C10987   8.160   1.972   3.550 -0.4195 -0.1904 -0.3467
   84MOL0     C10988   8.133   2.108   3.590 -0.2127 -0.1259 -0.1653
   84MOL0     C10989   8.026   2.185   3.537  0.1760  0.6473  0.4794
   84MOL0     C10990   7.936   2.122   3.458  0.1179  0.7202  0.2455
   84MOL0     O10991   7.834   2.203   3.410 -0.1407 -0.4189 -0.5057
   84MOL0     C10992   7.698   2.155   3.439  0.1203  0.3055 -0.2932
   84MOL0     C10993   7.622   2.111   3.312 -0.5935  0.6039  0.5389
   84MOL0     C10994   7.496   2.034   3.349  0.1970 -0.3036  0.3036
   84MOL0     C10995   7.516   1.887   3.373  1.0082 -0.5575  0.5711
   84MOL0     C10996   7.377   1.830   3.427 -0.0218  0.3828 -0.4496
   84MOL0     C10997   7.404   1.693   3.487 -0.1808 -0.0213  0.3647
   84MOL0     C10998   7.275   1.617   3.529 -0.1345 -0.4782  0.1992
   84MOL0     C10999   7.307   1.492   3.611 -0.1318 -0.4537 -0.1292
   84MOL0    Cl11000   7.354   1.527   3.784  0.2020  0.3681  0.6244
   84MOL0     C11001   7.945   1.985   3.427  0.4918  0.6431 -0.0114
   84MOL0     C11002   8.064   1.912   3.468  0.1426  0.0522  0.1449
   84MOL0     O11003   8.333   1.865   3.365 -0.6698  0.2095 -0.8251
   84MOL0     C11004   8.524   1.660   3.465 -0.6868  0.8338 -0.1159
   84MOL0     C11005   8.627   1.583   3.516  0.5601 -1.2763  0.0096
   84MOL0     N11006   9.276   1.224   3.754 -0.3404 -0.1464  0.4564
   84MOL0     N11007   9.332   1.152   3.660  0.1371  0.0077  0.0035
   84MOL0     C11008  10.506   1.338   3.199  0.7212 -0.6919 -0.0846
   84MOL0     C11009  10.637   1.368   3.177 -0.9006  0.3619 -0.1245
   84MOL0     C11010  11.111   1.298   3.233  0.4782 -0.0927 -0.8108
   84MOL0     C11011  11.151   1.422   3.269 -0.3663 -0.4794 -0.4465
   84MOL0     C11012  11.281   1.460   3.257 -0.6160  0.1025 -0.4138
   84MOL0     C11013  11.374   1.376   3.192  0.1290  0.2955 -0.3039
   84MOL0     O11014  11.497   1.427   3.191  0.8198 -0.0446 -0.0668
   84MOL0     C11015  11.595   1.356   3.125  1.0699  0.5765  0.5573
   84MOL0     C11016  11.581   1.372   2.976  0.2291 -0.5000 -0.0767
   84MOL0     C11017  11.628   1.515   2.925 -0.9094 -0.3752 -0.2639
   84MOL0     C11018  11.623   1.519   2.772 -0.2894  0.9915  0.5912
   84MOL0     C11019  11.726   1.436   2.704  0.2085 -0.3827 -0.1031
   84MOL0     C11020  11.802   1.352   2.653 -0.5544  0.7141  0.2476
   84MOL0     C11021  11.328   1.249   3.150 -0.3378  0.1294  0.5981
   84MOL0     C11022  11.198   1.210   3.169 -0.0638 -0.7412  0.0768
   84MOL0     H11023  10.770   1.195   3.444 -1.8763 -2.9758  1.0072
   84MOL0     H11024  10.544   1.139   3.476  3.2250  0.7217  0.6981
   84MOL0     H11025  10.239   1.249   3.159  3.6937 -2.7825  0.2882
   84MOL0     H11026  10.228   1.364   3.289  0.1135 -0.0355  0.0934
   84MOL0     H11027  10.128   1.189   3.435 -0.0483 -0.1816  0.2011
   84MOL0     H11028  10.115   1.081   3.302 -0.7485  0.6049 -1.1740
   84MOL0     H11029   9.957   1.201   3.186 -3.4669  1.7662 -0.2443
   84MOL0     H11030   9.979   1.346   3.277  0.4746 -0.8226 -4.6270
   84MOL0     H11031   9.881   1.087   3.405 -0.3781  0.3644 -0.1936
   84MOL0     H11032   9.877   1.244   3.488 -0.5191 -0.0123  0.0135
   84MOL0     H11033   9.723   1.182   3.231 -0.6804  4.5544 -2.4749
   84MOL0     H11034   9.744   1.340   3.322  0.2926 -0.1699  2.5127
   84MOL0     H11035   9.602   1.238   3.517 -0.8541  1.0762 -0.7607
   84MOL0     H11036   9.621   1.086   3.434 -2.9967 -0.2463 -0.0094
   84MOL0     H11037   9.489   1.342   3.335 -1.6441 -1.0810 -0.9269
   84MOL0     H11038   9.502   1.197   3.238  0.5726 -0.8936 -0.4820
   84MOL0     H11039   9.384   1.070   3.410 -0.0641 -0.7711 -1.1385
   84MOL0     H11040   9.268   1.202   3.346  0.4873 -2.2471 -1.5659
   84MOL0     H11041   9.249   1.420   3.489  2.0652  1.2225  0.9165
   84MOL0     H11042   9.109   1.512   3.685  0.0999 -0.2172 -1.1185
   84MOL0     H11043   9.212   1.492   3.829 -0.4477 -1.8107  1.6117
   84MOL0     H11044   8.987   1.470   3.886  2.3847 -0.5325  2.2640
   84MOL0     H11045   9.052   1.309   3.883  1.9932  0.5180 -1.6194
   84MOL0     H11046   8.966   1.276   3.632  2.8046  1.5180  0.2144
   84MOL0     H11047   8.849   1.259   3.762 -1.2546 -0.2829 -0.9066
   84MOL0     H11048   8.757   1.354   3.582  1.7358 -0.8982  0.1815
   84MOL0     H11049   8.882   1.471   3.560 -1.8022 -0.3025 -1.4751
   84MOL0     H11050   8.567   1.659   3.851 -0.1440  0.8510  0.3579
   84MOL0     H11051   8.406   1.807   3.749  2.4110  1.6996  0.2265
   84MOL0     H11052   8.221   2.147   3.641 -0.6037  1.2745 -0.5253
   84MOL0     H11053   8.003   2.291   3.539 -0.8906  0.4762 -1.0348
   84MOL0     H11054   7.643   2.242   3.475  2.8076  2.3048 -0.6376
   84MOL0     H11055   7.696   2.081   3.520  0.3278  1.3310  0.6657
   84MOL0     H11056   7.681   2.044   3.250 -2.4919  0.6290 -1.3878
   84MOL0     H11057   7.603   2.206   3.261  3.2515  1.8552  1.0841
   84MOL0     H11058   7.421   2.047   3.271 -0.5792  0.8289  1.1982
   84MOL0     H11059   7.446   2.068   3.440 -0.2813 -3.5060  1.3641
   84MOL0     H11060   7.533   1.839   3.277  0.6621  1.7235 -0.6992
   84MOL0     H11061   7.605   1.853   3.427  1.1820 -1.8014 -0.4753
   84MOL0     H11062   7.302   1.824   3.348  1.1304 -1.4574 -1.4647
   84MOL0     H11063   7.337   1.896   3.504  0.3586  0.3226 -0.1972
   84MOL0     H11064   7.460   1.711   3.579 -3.2304  1.2919  2.1267
   84MOL0     H11065   7.459   1.638   3.410 -0.2899  1.4199 -0.7858
   84MOL0     H11066   7.205   1.676   3.589 -2.0353 -1.1436 -1.2514
   84MOL0     H11067   7.223   1.596   3.435  2.6937  1.1758 -1.8839
   84MOL0     H11068   7.382   1.427   3.566 -0.0657 -0.9134  0.6303
   84MOL0     H11069   7.214   1.434   3.610 -0.4950  0.0993  0.2264
   84MOL0     H11070   7.880   1.921   3.368  3.2191 -2.0161 -0.3858
   84MOL0     H11071   8.084   1.808   3.445  1.3252  0.1573  0.6325
   84MOL0     H11072   8.518   1.683   3.359  1.7864 -1.0777 -0.7669
   84MOL0     H11073   8.694   1.538   3.443 -0.2153  0.5379 -1.9415
   84MOL0     H11074  10.427   1.378   3.136  2.7917  3.1475 -0.6025
   84MOL0     H11075  10.649   1.434   3.092 -3.9442  1.0122 -0.1502
   84MOL0     H11076  11.084   1.504   3.291  0.4736  0.4550 -1.2388
   84MOL0     H11077  11.308   1.561   3.284 -0.1333 -0.3601  0.9054
   84MOL0     H11078  11.581   1.251   3.152 -1.4621  1.0507  1.3952
   84MOL0     H11079  11.694   1.388   3.157  2.7105 -1.8878 -1.7266
   84MOL0     H11080  11.647   1.295   2.935 -2.4666 -2.4158 -1.0847
   84MOL0     H11081  11.476   1.359   2.948 -0.1299  2.4464 -0.4633
   84MOL0     H11082  11.730   1.533   2.960  0.4756 -2.8355 -2.6615
   84MOL0     H11083  11.574   1.604   2.960 -0.3754 -0.3544  0.5444
   84MOL0     H11084  11.521   1.492   2.746 -0.1480  0.8551  0.1672
   84MOL0     H11085  11.642   1.622   2.741  1.5899  0.4967 -0.0350
   84MOL0     H11086  11.852   1.267   2.611 -3.4196 -2.2946  2.3471
   84MOL0     H11087  11.389   1.175   3.099  1.4409  1.5112  0.6471
   84MOL0     H11088  11.171   1.113   3.130 -1.6601 -0.4816  0.4737
   85MOL0     O11089   9.479   8.102   4.832 -0.1466 -0.8680  0.0212
   85MOL0     C11090   9.474   8.216   4.785  0.5676  0.3146  0.1139
   85MOL0     O11091   9.409   8.313   4.842  0.0444 -0.3916 -0.0536
   85MOL0     C11092   9.329   8.300   4.951  0.3875  0.3156 -0.6522
   85MOL0     C11093   9.237   8.195   4.962 -0.6908 -0.3317  0.2262
   85MOL0     C11094   9.138   8.190   5.065 -1.0194 -0.1211  0.0845
   85MOL0     C11095   9.129   8.304   5.146  0.0424 -0.7169 -0.0231
   85MOL0     O11096   9.032   8.313   5.249  0.1572  0.4700  0.0008
   85MOL0     C11097   8.900   8.261   5.199 -0.5570 -0.3341  0.2170
   85MOL0     C11098   8.794   8.309   5.291 -0.4103  0.3914 -0.0827
   85MOL0     C11099   8.652   8.342   5.238 -0.2607  0.3014 -0.0522
   85MOL0     C11100   8.534   8.295   5.327  0.1456 -0.7748 -0.5703
   85MOL0     C11101   8.407   8.362   5.270  0.1245 -0.5240 -0.5729
   85MOL0     C11102   8.288   8.339   5.366 -0.8510  0.1341  0.1528
   85MOL0     C11103   8.166   8.393   5.303  0.1169 -0.4876 -0.8074
   85MOL0     C11104   8.050   8.358   5.393 -0.1721  0.1309  0.1160
   85MOL0     N11105   7.923   8.413   5.344  0.9250  0.3475 -0.8294
   85MOL0     C11106   7.887   8.540   5.325  0.3647  0.9830  0.2399
   85MOL0     C11107   7.773   8.541   5.250 -0.4355  0.3730 -0.5638
   85MOL0     C11108   7.692   8.662   5.212  0.5897  0.1410  0.7309
   85MOL0     C11109   7.608   8.721   5.333 -0.4707  0.8062  0.4498
   85MOL0     C11110   7.469   8.667   5.362 -0.1037  0.0993  0.9849
   85MOL0     C11111   7.356   8.709   5.262 -0.5088 -0.4765  0.3201
   85MOL0     O11112   7.304   8.831   5.315  0.4311  0.4388 -0.0072
   85MOL0     C11113   7.169   8.845   5.300  0.4261  0.4640  0.9447
   85MOL0     C11114   7.091   8.791   5.190 -0.6287 -0.4591  0.1427
   85MOL0     C11115   6.953   8.832   5.184 -0.4538 -0.1614  0.4939
   85MOL0     C11116   6.892   8.908   5.284  0.5226  0.4591  0.5852
   85MOL0     C11117   6.747   8.962   5.270 -0.6606  0.4164  0.7270
   85MOL0     O11118   6.697   8.967   5.145  0.0553  0.4154  0.4203
   85MOL0     C11119   6.560   8.981   5.134 -0.6510  0.5811  0.2437
   85MOL0     C11120   6.468   8.901   5.195  0.3744 -0.5629  0.0382
   85MOL0     C11121   6.330   8.913   5.174  0.1944  0.8062  0.6277
   85MOL0     C11122   6.285   8.997   5.065 -0.6565  0.4802 -0.3706
   85MOL0     O11123   6.148   9.021   5.041 -0.4426 -0.3742 -0.6358
   85MOL0     C11124   6.053   9.007   5.147 -0.3386  0.1224 -0.1143
   85MOL0     C11125   5.929   8.945   5.077  0.1465  0.0147 -0.4546
   85MOL0     C11126   5.821   8.913   5.187 -0.2286  0.7064 -0.4066
   85MOL0     C11127   5.700   8.830   5.131 -0.3643 -0.2408 -0.0046
   85MOL0     C11128   5.597   8.918   5.046 -1.1352 -0.4794 -0.4769
   85MOL0     C11129   5.493   8.836   4.984 -0.2048  0.3023  0.0623
   85MOL0     C11130   5.386   8.908   4.905  0.0347  0.2018 -0.2125
   85MOL0     C11131   5.311   8.811   4.802 -0.8845  0.2501  0.3805
   85MOL0    Cl11132   5.180   8.721   4.896 -0.7098  0.1844 -0.0917
   85MOL0     C11133   6.381   9.082   4.999  0.6968 -0.0556 -0.4399
   85MOL0     C11134   6.516   9.072   5.037  0.6669 -0.1142  0.1077
   85MOL0     O11135   6.685   8.995   5.374  0.0243  0.3056  0.1946
   85MOL0     C11136   6.968   8.940   5.391  0.3492 -0.8300  0.3892
   85MOL0     C11137   7.102   8.915   5.398  0.6231 -0.1665 -0.6082
   85MOL0     N11138   7.739   8.411   5.228 -0.0882  0.4268 -0.1450
   85MOL0     N11139   7.831   8.338   5.273 -0.5628  0.0271 -0.4346
   85MOL0     C11140   9.213   8.414   5.129 -0.3847 -1.2602 -0.5267
   85MOL0     C11141   9.319   8.411   5.037 -0.6646 -0.3796 -0.2035
   85MOL0     C11142   9.529   8.242   4.652  0.1759  0.9479  0.2272
   85MOL0     C11143   9.546   8.141   4.551 -1.2932  0.7886 -0.5583
   85MOL0     C11144   9.592   8.161   4.425 -0.3949 -0.2064  0.4374
   85MOL0     C11145   9.632   8.288   4.389  0.6217 -0.3225 -0.1568
   85MOL0     O11146   9.692   8.331   4.274  0.0232  0.1241  0.0184
   85MOL0     C11147   9.608   8.267   4.170  0.5563  0.3915 -1.5617
   85MOL0     C11148   9.623   8.352   4.041 -0.3107  0.0989 -0.0911
   85MOL0     C11149   9.565   8.289   3.918  0.7602 -0.6362  0.4072
   85MOL0     C11150   9.644   8.181   3.845  0.5334  0.2487 -0.3100
   85MOL0     C11151   9.556   8.117   3.747  1.0839 -0.3369  0.2754
   85MOL0     C11152   9.490   8.052   3.669  0.6350 -0.1325  0.2540
   85MOL0     C11153   9.624   8.395   4.481  1.1511  1.0829 -0.4179
   85MOL0     C11154   9.578   8.373   4.616  0.3936 -0.7807  0.3248
   85MOL0     H11155   9.250   8.108   4.898  3.2365 -0.4662  0.9401
   85MOL0     H11156   9.079   8.100   5.082 -1.1391 -0.1789 -0.5886
   85MOL0     H11157   8.891   8.152   5.195 -0.0116 -0.3622 -0.8735
   85MOL0     H11158   8.877   8.305   5.101  2.9417  0.2806 -0.4592
   85MOL0     H11159   8.835   8.401   5.333 -1.7747  0.7730  0.4595
   85MOL0     H11160   8.784   8.235   5.371  0.2031  1.5109  1.0615
   85MOL0     H11161   8.638   8.315   5.133 -0.3329 -1.0617  0.2831
   85MOL0     H11162   8.649   8.451   5.240  1.3666  0.3684  0.6306
   85MOL0     H11163   8.517   8.189   5.305 -3.4705 -0.3822 -0.2056
   85MOL0     H11164   8.560   8.308   5.433  3.8660  0.8842 -1.5154
   85MOL0     H11165   8.383   8.315   5.175 -0.0988 -2.1974  0.2709
   85MOL0     H11166   8.428   8.468   5.257  1.9395 -0.5211  1.7245
   85MOL0     H11167   8.317   8.388   5.459 -0.0819  1.2162 -0.6183
   85MOL0     H11168   8.271   8.232   5.378 -0.3202 -0.0946 -0.9219
   85MOL0     H11169   8.148   8.501   5.296  0.7256 -0.3008  0.3102
   85MOL0     H11170   8.152   8.343   5.207  0.4698 -1.2884 -0.4472
   85MOL0     H11171   8.071   8.414   5.485 -0.3341  1.8740 -0.8702
   85MOL0     H11172   8.037   8.251   5.413 -3.1758  0.7863  2.4719
   85MOL0     H11173   7.945   8.628   5.354  2.0360 -0.2982  0.9605
   85MOL0     H11174   7.625   8.643   5.128  2.5712 -1.5049 -0.5965
   85MOL0     H11175   7.756   8.746   5.184 -3.3047  2.1758 -3.2139
   85MOL0     H11176   7.585   8.828   5.321 -0.5627  0.6342 -1.2039
   85MOL0     H11177   7.670   8.718   5.422 -1.8853  1.4884  1.5055
   85MOL0     H11178   7.472   8.557   5.363  0.1254  0.0264 -1.3812
   85MOL0     H11179   7.434   8.705   5.458  2.1415 -0.9154  2.2870
   85MOL0     H11180   7.288   8.624   5.260  1.0790 -1.8650  1.8995
   85MOL0     H11181   7.384   8.729   5.158  0.3775  1.2543  0.8540
   85MOL0     H11182   7.142   8.735   5.112 -0.8366 -1.0003  0.3941
   85MOL0     H11183   6.889   8.802   5.102 -2.8088 -1.1792  2.5850
   85MOL0     H11184   6.498   8.830   5.271  2.8748  0.8833  0.5120
   85MOL0     H11185   6.262   8.847   5.227 -1.3268  1.4780 -0.4222
   85MOL0     H11186   6.020   9.105   5.183 -1.3054  0.6195 -2.1860
   85MOL0     H11187   6.093   8.944   5.227 -0.3936  0.1823 -0.0401
   85MOL0     H11188   5.948   8.850   5.027  2.2913 -0.3328  0.9048
   85MOL0     H11189   5.884   9.016   5.007  2.6912  1.2243 -1.0038
   85MOL0     H11190   5.791   9.013   5.221 -2.4748  0.3712 -1.2350
   85MOL0     H11191   5.865   8.856   5.270  0.8891  0.8710 -0.8658
   85MOL0     H11192   5.729   8.741   5.073 -0.3212 -1.0972  1.2791
   85MOL0     H11193   5.649   8.780   5.214  0.2846 -3.2541 -1.2592
   85MOL0     H11194   5.647   8.969   4.963  0.3478 -0.5860  0.3157
   85MOL0     H11195   5.553   8.991   5.115 -0.2352 -0.0713 -0.3141
   85MOL0     H11196   5.432   8.779   5.055  0.5785  0.7721  1.1371
   85MOL0     H11197   5.541   8.765   4.916  1.9527 -0.1364  1.9036
   85MOL0     H11198   5.326   8.961   4.979 -0.7133 -0.3558 -0.4067
   85MOL0     H11199   5.430   8.993   4.852  0.9118 -0.4033 -0.4820
   85MOL0     H11200   5.377   8.738   4.754  0.1476  1.2199  0.2972
   85MOL0     H11201   5.265   8.876   4.727 -0.3263  1.3392  0.9481
   85MOL0     H11202   6.358   9.154   4.921  0.8708 -1.7399 -2.0948
   85MOL0     H11203   6.584   9.137   4.983  0.8231 -0.3473  0.0189
   85MOL0     H11204   6.931   9.000   5.474 -0.4338  0.9896 -1.2086
   85MOL0     H11205   7.156   8.942   5.488 -0.9697  4.0078 -0.6607
   85MOL0     H11206   9.197   8.495   5.199 -1.8373  1.0818 -3.3139
   85MOL0     H11207   9.383   8.497   5.019  0.9837 -1.2334  1.3739
   85MOL0     H11208   9.521   8.037   4.571 -0.3893  0.2730 -2.0240
   85MOL0     H11209   9.604   8.080   4.354  0.2416  2.0259 -2.1969
   85MOL0     H11210   9.500   8.278   4.187  0.8966 -0.3660  1.9003
   85MOL0     H11211   9.626   8.160   4.155  2.8649  0.4675  0.1620
   85MOL0     H11212   9.580   8.452   4.055  3.1008  1.6494  0.3752
   85MOL0     H11213   9.728   8.376   4.025 -0.8418  1.4471 -2.0067
   85MOL0     H11214   9.545   8.358   3.836  0.6340  1.0369  1.7871
   85MOL0     H11215   9.467   8.249   3.946  0.0762  0.2484 -0.6369
   85MOL0     H11216   9.728   8.228   3.794  0.3432  0.8231 -0.0990
   85MOL0     H11217   9.690   8.102   3.906  0.2031 -0.6377 -1.1766
   85MOL0     H11218   9.423   8.004   3.600 -1.5354  3.8553 -0.7917
   85MOL0     H11219   9.662   8.490   4.446  3.2057 -0.1631 -1.7580
   85MOL0     H11220   9.585   8.449   4.693  0.9764  1.8770 -2.1604
   86MOL0     O11221   6.385   0.298   7.994  0.4574  0.4270  0.0326
   86MOL0     C11222   6.386   0.269   8.115  0.5644  0.2406  0.1324
   86MOL0     O11223   6.285   0.215   8.186 -0.2840  0.3819 -0.3843
   86MOL0     C11224   6.164   0.190   8.127 -0.1642  0.0005 -0.1889
   86MOL0     C11225   6.065   0.146   8.221  0.1353  0.7300  0.3852
   86MOL0     C11226   5.929   0.133   8.195 -0.3834 -0.0749  0.2637
   86MOL0     C11227   5.882   0.145   8.069  0.5808  0.0848 -0.6419
   86MOL0     O11228   5.751   0.133   8.032  0.8565  0.6636  0.8960
   86MOL0     C11229   5.658   0.050   8.104 -0.2598 -0.1204 -0.5426
   86MOL0     C11230   5.696  -0.101   8.106 -0.2480  0.0210  0.1939
   86MOL0     C11231   5.637  -0.166   7.981 -0.3902 -0.3678 -0.1465
   86MOL0     C11232   5.495  -0.209   8.008  0.1128 -0.5246 -0.6746
   86MOL0     C11233   5.456  -0.307   7.895  0.2412  0.3221 -0.6849
   86MOL0     C11234   5.345  -0.399   7.948  0.3810 -0.6119 -0.2051
   86MOL0     C11235   5.267  -0.490   7.849 -0.3026 -0.5561 -0.0965
   86MOL0     C11236   5.127  -0.554   7.896 -0.8364  0.3421  0.0777
   86MOL0     N11237   5.050  -0.622   7.791 -0.2311 -1.9583  0.2370
   86MOL0     C11238   4.938  -0.569   7.736 -0.0256  0.3549 -0.9833
   86MOL0     C11239   4.920  -0.632   7.617  0.2791 -0.8038  0.5505
   86MOL0     C11240   4.807  -0.593   7.523 -0.0261 -0.7013  0.1050
   86MOL0     C11241   4.752  -0.714   7.444 -0.5060 -0.2211  0.0372
   86MOL0     C11242   4.674  -0.688   7.320 -0.9898 -0.6356 -0.1834
   86MOL0     C11243   4.542  -0.621   7.353  0.3420  0.4267 -0.3994
   86MOL0     O11244   4.460  -0.706   7.433  1.1298 -0.3436  0.3311
   86MOL0     C11245   4.317  -0.690   7.437  0.4488 -0.7064  0.4908
   86MOL0     C11246   4.255  -0.574   7.393 -0.9130 -0.4850 -0.6101
   86MOL0     C11247   4.118  -0.547   7.418 -0.4672 -1.0134 -0.2019
   86MOL0     C11248   4.042  -0.644   7.490  0.7187  0.1529 -0.0749
   86MOL0     C11249   3.891  -0.637   7.511  0.4120  0.3588 -0.4732
   86MOL0     O11250   3.826  -0.748   7.567 -0.0440 -0.1928  0.8440
   86MOL0     C11251   3.695  -0.752   7.592  0.1613  0.7935 -0.4995
   86MOL0     C11252   3.667  -0.825   7.712  0.9654  0.0227  0.2213
   86MOL0     C11253   3.530  -0.860   7.744 -0.0755  0.6235 -0.2591
   86MOL0     C11254   3.427  -0.809   7.659 -0.7309  0.3800 -0.5502
   86MOL0     O11255   3.299  -0.827   7.686  0.2563  0.0337  0.1217
   86MOL0     C11256   3.263  -0.962   7.714  0.2230  0.0677 -0.4722
   86MOL0     C11257   3.112  -0.973   7.724 -0.2025 -1.2468  0.3510
   86MOL0     C11258   3.052  -1.111   7.718 -0.5104 -0.4354  0.3474
   86MOL0     C11259   2.897  -1.110   7.720  0.6497  0.0287 -0.1193
   86MOL0     C11260   2.847  -1.248   7.746  0.5715 -0.0918 -0.5099
   86MOL0     C11261   2.692  -1.245   7.762 -0.0149 -0.3211 -0.0503
   86MOL0     C11262   2.650  -1.377   7.826  0.5476 -0.3661  0.2896
   86MOL0     C11263   2.502  -1.401   7.826  0.2082 -0.5334 -0.8417
   86MOL0    Cl11264   2.413  -1.256   7.882 -0.2364 -0.2566  0.3207
   86MOL0     C11265   3.458  -0.735   7.551 -0.0379 -0.2045  0.0857
   86MOL0     C11266   3.589  -0.708   7.517  0.6751  0.2017 -0.0126
   86MOL0     O11267   3.835  -0.528   7.485 -0.2314 -0.0372  0.3007
   86MOL0     C11268   4.107  -0.762   7.529 -0.3988 -0.0053  0.1052
   86MOL0     C11269   4.248  -0.777   7.508  0.4839  0.3777 -0.6410
   86MOL0     N11270   5.019  -0.741   7.613 -0.6155 -0.8224  0.0260
   86MOL0     N11271   5.093  -0.724   7.715  0.3229 -0.4241 -1.1044
   86MOL0     C11272   5.978   0.160   7.966  0.7525  0.5904 -0.2330
   86MOL0     C11273   6.114   0.190   7.995 -0.6471  0.2130  0.0894
   86MOL0     C11274   6.515   0.284   8.181  0.8508  0.0683 -0.1216
   86MOL0     C11275   6.633   0.308   8.119  0.6054 -0.0275  0.4687
   86MOL0     C11276   6.740   0.345   8.190 -0.3599  0.8505  0.4223
   86MOL0     C11277   6.742   0.345   8.331 -0.0803 -0.7672  0.3164
   86MOL0     O11278   6.827   0.411   8.411 -0.1888 -0.8160 -0.2812
   86MOL0     C11279   6.964   0.430   8.370  0.2500 -0.2577  0.2586
   86MOL0     C11280   7.057   0.314   8.398 -0.1654  0.9955  0.0492
   86MOL0     C11281   7.156   0.347   8.516  0.5090 -1.1919  0.2107
   86MOL0     C11282   7.072   0.379   8.647  0.8556  0.2690  0.7835
   86MOL0     C11283   7.161   0.375   8.769  0.3679  0.0748  0.1933
   86MOL0     C11284   7.231   0.386   8.868 -0.3151  0.1170 -0.0615
   86MOL0     C11285   6.619   0.317   8.393  0.0306 -0.1914  0.5373
   86MOL0     C11286   6.504   0.284   8.319 -0.5669  0.1789 -0.4515
   86MOL0     H11287   6.094   0.132   8.324  0.3857 -1.9132  0.0390
   86MOL0     H11288   5.863   0.110   8.278  0.0991 -0.1828  0.6211
   86MOL0     H11289   5.557   0.046   8.061 -1.3487  2.4614  1.5530
   86MOL0     H11290   5.649   0.087   8.206 -2.0818 -0.4995 -0.5353
   86MOL0     H11291   5.666  -0.147   8.200 -0.4859  3.1727  1.8090
   86MOL0     H11292   5.806  -0.102   8.106 -0.2309  0.7961 -0.1519
   86MOL0     H11293   5.707  -0.245   7.954  0.3299  1.1952 -3.2188
   86MOL0     H11294   5.632  -0.098   7.895  0.3665 -0.8236 -0.5544
   86MOL0     H11295   5.500  -0.258   8.106  2.0401 -1.5159 -1.2052
   86MOL0     H11296   5.428  -0.124   8.000  1.2529  0.5815  0.8086
   86MOL0     H11297   5.539  -0.373   7.869 -1.4591 -1.9724 -0.6273
   86MOL0     H11298   5.435  -0.247   7.806  1.3707  0.8079 -0.6346
   86MOL0     H11299   5.271  -0.337   8.001  0.8531 -1.0530  1.0132
   86MOL0     H11300   5.388  -0.455   8.032 -2.7069 -0.3065  1.7784
   86MOL0     H11301   5.253  -0.424   7.763  0.4206  0.1836  0.3305
   86MOL0     H11302   5.336  -0.572   7.831 -0.2759 -0.4323 -0.5797
   86MOL0     H11303   5.062  -0.475   7.934 -1.6487 -1.3321  2.4558
   86MOL0     H11304   5.132  -0.628   7.977 -4.0982 -1.4952 -1.2452
   86MOL0     H11305   4.873  -0.491   7.774  0.9885  1.3277 -1.2225
   86MOL0     H11306   4.845  -0.521   7.449 -1.0956  0.9638  1.1275
   86MOL0     H11307   4.733  -0.530   7.572  1.9954  1.2720  0.8036
   86MOL0     H11308   4.706  -0.783   7.515 -1.0883 -2.4917 -2.4035
   86MOL0     H11309   4.837  -0.770   7.402  1.3680  2.2108  0.3176
   86MOL0     H11310   4.728  -0.633   7.242 -1.6088  1.3323  0.7176
   86MOL0     H11311   4.667  -0.783   7.267 -0.4118  0.8206 -3.0836
   86MOL0     H11312   4.497  -0.605   7.255  3.6012  0.5859 -2.0122
   86MOL0     H11313   4.555  -0.517   7.385 -1.3128  0.9696 -1.3965
   86MOL0     H11314   4.303  -0.489   7.346 -0.8861  0.0858  0.4231
   86MOL0     H11315   4.063  -0.463   7.378  0.3134  0.8848  2.4401
   86MOL0     H11316   3.747  -0.857   7.778  0.1793 -0.4190  0.9934
   86MOL0     H11317   3.502  -0.905   7.839 -0.9712 -0.4742 -1.0145
   86MOL0     H11318   3.308  -0.993   7.808  0.3404  1.9803  0.1454
   86MOL0     H11319   3.290  -1.024   7.627 -2.5919 -0.2548 -1.2014
   86MOL0     H11320   3.071  -0.913   7.642  0.5074  1.1392  1.6467
   86MOL0     H11321   3.080  -0.917   7.813  1.9974 -0.5390  0.7498
   86MOL0     H11322   3.090  -1.167   7.804 -0.8747 -1.6352 -0.2498
   86MOL0     H11323   3.097  -1.157   7.630  1.3523  3.0490 -0.6943
   86MOL0     H11324   2.866  -1.043   7.801 -1.9585 -3.3477  1.9646
   86MOL0     H11325   2.852  -1.084   7.624  0.9981  0.4532 -0.1713
   86MOL0     H11326   2.888  -1.289   7.838 -1.4157  0.3487  0.6247
   86MOL0     H11327   2.869  -1.312   7.660 -0.1069  0.3232 -1.0037
   86MOL0     H11328   2.634  -1.238   7.669  1.5257  1.2271 -0.9516
   86MOL0     H11329   2.663  -1.163   7.828  1.3381  0.6693 -0.6273
   86MOL0     H11330   2.704  -1.467   7.794 -1.0742 -1.7930  1.3426
   86MOL0     H11331   2.682  -1.370   7.931 -0.0220 -1.6928  0.5750
   86MOL0     H11332   2.475  -1.493   7.878  1.1910 -1.0657 -1.2450
   86MOL0     H11333   2.478  -1.404   7.720 -0.5952  2.2132 -0.8158
   86MOL0     H11334   3.385  -0.690   7.484 -0.6412  1.9794  2.0912
   86MOL0     H11335   3.604  -0.646   7.429  0.4237  1.5299  0.8590
   86MOL0     H11336   4.059  -0.829   7.599  0.9516  0.8262  1.9072
   86MOL0     H11337   4.294  -0.863   7.556 -2.9468  0.7971  4.0745
   86MOL0     H11338   5.930   0.153   7.869 -1.4169  0.6108  0.7875
   86MOL0     H11339   6.182   0.203   7.911 -1.3876  0.3451 -0.4984
   86MOL0     H11340   6.638   0.324   8.011  1.5920  3.3057  0.9072
   86MOL0     H11341   6.828   0.376   8.134 -1.5614  2.1371 -0.8506
   86MOL0     H11342   7.012   0.519   8.409 -0.4839  1.6630 -2.8490
   86MOL0     H11343   6.969   0.456   8.264  1.2248 -2.0134 -0.1727
   86MOL0     H11344   6.996   0.226   8.417  0.2304  0.8396  0.6104
   86MOL0     H11345   7.120   0.288   8.312  0.7950 -2.9318  1.7391
   86MOL0     H11346   7.222   0.430   8.490 -0.0790 -0.2146  1.7216
   86MOL0     H11347   7.227   0.268   8.542  1.1650 -0.0725  1.9496
   86MOL0     H11348   7.023   0.475   8.632 -1.7017 -1.2460 -1.4417
   86MOL0     H11349   6.983   0.315   8.651 -0.3592  1.7081 -1.2436
   86MOL0     H11350   7.286   0.402   8.959  1.5625 -0.9251 -0.9516
   86MOL0     H11351   6.604   0.332   8.500 -1.1193  0.6494  0.2858
   86MOL0     H11352   6.414   0.263   8.376 -0.5981 -0.9310 -0.8720
   87MOL0     O11353   4.632   6.663   1.331 -0.2196  0.5342 -0.3046
   87MOL0     C11354   4.706   6.762   1.328  0.1326  0.0327  0.0358
   87MOL0     O11355   4.667   6.892   1.343 -0.1562  0.0168  0.5394
   87MOL0     C11356   4.527   6.917   1.327  0.8899 -0.4186 -0.6225
   87MOL0     C11357   4.464   6.901   1.207  0.5052  0.3582  0.6489
   87MOL0     C11358   4.324   6.923   1.189  0.3091  0.4545 -0.1908
   87MOL0     C11359   4.244   6.975   1.295 -0.3599 -0.4622  0.4720
   87MOL0     O11360   4.109   6.998   1.275  0.9944  0.8336  0.3158
   87MOL0     C11361   4.021   6.962   1.391 -1.3191 -0.1558  0.2157
   87MOL0     C11362   3.976   7.097   1.453  0.5296  0.7320 -0.4334
   87MOL0     C11363   3.870   7.159   1.364 -1.1721  0.1179  0.1506
   87MOL0     C11364   3.838   7.288   1.451  0.2220 -0.6346 -0.1087
   87MOL0     C11365   3.748   7.382   1.370  0.3226 -0.1786 -0.6985
   87MOL0     C11366   3.599   7.324   1.367 -0.8536  0.1396 -0.1158
   87MOL0     C11367   3.509   7.391   1.261  0.2848 -0.3071 -0.9894
   87MOL0     C11368   3.409   7.307   1.168 -0.1481 -0.5601  0.5189
   87MOL0     N11369   3.293   7.239   1.237 -0.1174 -0.3574  0.0158
   87MOL0     C11370   3.215   7.297   1.329  0.0812 -0.2214 -0.9503
   87MOL0     C11371   3.141   7.193   1.379 -0.5307  1.4891 -0.4787
   87MOL0     C11372   3.032   7.219   1.471  1.0871  0.3172  0.6552
   87MOL0     C11373   3.048   7.143   1.595 -0.3827  0.4908 -0.0264
   87MOL0     C11374   3.009   7.224   1.716  0.0119 -0.0213 -0.3706
   87MOL0     C11375   3.034   7.149   1.851 -0.2286 -0.4507  0.4896
   87MOL0     O11376   2.936   7.051   1.882 -0.5019  0.3330 -0.3532
   87MOL0     C11377   2.809   7.083   1.904  0.3287 -0.1481 -0.0609
   87MOL0     C11378   2.729   6.972   1.876  0.0431 -0.2175 -0.5413
   87MOL0     C11379   2.597   6.980   1.920  0.7779 -0.4964 -0.1844
   87MOL0     C11380   2.541   7.092   1.987  0.0218  0.6573 -0.2052
   87MOL0     C11381   2.408   7.073   2.049  0.0373  0.8836  0.8648
   87MOL0     O11382   2.355   7.179   2.117  0.7349 -0.2176  0.1763
   87MOL0     C11383   2.229   7.163   2.173  1.3595  0.1694 -0.3121
   87MOL0     C11384   2.210   7.201   2.303 -1.1205 -0.0168 -0.1731
   87MOL0     C11385   2.081   7.204   2.354  0.4793  1.0714  0.3688
   87MOL0     C11386   1.965   7.167   2.276  0.2209  0.4015 -0.4336
   87MOL0     O11387   1.849   7.185   2.345 -0.4575  0.0285 -0.1073
   87MOL0     C11388   1.733   7.208   2.268  0.4515  1.3382 -0.6710
   87MOL0     C11389   1.599   7.197   2.352  0.2878 -0.9329 -0.4091
   87MOL0     C11390   1.594   7.333   2.440 -0.3331 -0.5977  0.2902
   87MOL0     C11391   1.450   7.386   2.458 -0.3442  0.2205  0.1084
   87MOL0     C11392   1.431   7.529   2.516 -0.3683  0.3620 -0.1469
   87MOL0     C11393   1.463   7.644   2.420 -0.3177  0.2333 -0.7459
   87MOL0     C11394   1.455   7.775   2.497  0.2279  0.1489 -0.7611
   87MOL0     C11395   1.320   7.796   2.565 -0.5382 -1.1315  0.4763
   87MOL0    Cl11396   1.312   7.743   2.738 -0.1884  0.2856 -0.2283
   87MOL0     C11397   1.986   7.135   2.141  0.3429 -0.2251 -0.8615
   87MOL0     C11398   2.120   7.124   2.091 -0.5034  0.2734 -0.4872
   87MOL0     O11399   2.354   6.959   2.036 -0.4078  0.1323  0.1452
   87MOL0     C11400   2.627   7.208   2.008  0.4950 -0.0540  0.3706
   87MOL0     C11401   2.761   7.207   1.958  0.0277  0.1295 -0.2037
   87MOL0     N11402   3.172   7.072   1.313 -0.6659  0.1929 -0.8145
   87MOL0     N11403   3.271   7.102   1.236 -0.3488  0.0378 -0.2878
   87MOL0     C11404   4.319   7.025   1.407 -0.3061  0.1288 -0.2073
   87MOL0     C11405   4.456   6.990   1.427 -0.2046 -0.1093 -1.1057
   87MOL0     C11406   4.852   6.729   1.318  0.3560 -0.9460  0.5457
   87MOL0     C11407   4.904   6.601   1.283 -0.3004 -0.5562 -0.7714
   87MOL0     C11408   5.031   6.566   1.308 -0.3651  0.2437  0.1579
   87MOL0     C11409   5.120   6.655   1.367  0.0842  0.4742  0.4078
   87MOL0     O11410   5.241   6.609   1.385  0.2394 -0.2786  0.2682
   87MOL0     C11411   5.339   6.675   1.311  0.1672 -0.3560  0.0769
   87MOL0     C11412   5.465   6.601   1.333  0.0069 -0.2396 -0.7549
   87MOL0     C11413   5.526   6.633   1.475  0.0103  0.6719  0.4810
   87MOL0     C11414   5.628   6.752   1.462 -1.4113 -0.1175 -0.8664
   87MOL0     C11415   5.576   6.877   1.422  0.3485 -0.4424  0.4643
   87MOL0     C11416   5.541   6.993   1.391 -0.4692  1.2508 -0.5178
   87MOL0     C11417   5.079   6.788   1.393 -0.1783  0.4776  0.4244
   87MOL0     C11418   4.945   6.822   1.364  0.0817 -0.4690 -0.1765
   87MOL0     H11419   4.534   6.868   1.131  1.7645  0.0766  1.8962
   87MOL0     H11420   4.271   6.897   1.098 -2.2546 -0.8017  1.5264
   87MOL0     H11421   4.071   6.900   1.466  0.7980 -0.4601 -1.3722
   87MOL0     H11422   3.938   6.897   1.362 -1.6269 -1.3295  3.3559
   87MOL0     H11423   4.057   7.166   1.476 -0.0522  1.3391 -0.1939
   87MOL0     H11424   3.927   7.068   1.547  2.6799 -2.7907 -0.2064
   87MOL0     H11425   3.782   7.094   1.354  1.0231 -3.5011  2.1149
   87MOL0     H11426   3.902   7.188   1.264 -2.1130 -0.0813 -0.2156
   87MOL0     H11427   3.783   7.267   1.543 -3.3396  1.1752 -1.6280
   87MOL0     H11428   3.920   7.350   1.488 -1.3853  0.0716  2.5654
   87MOL0     H11429   3.790   7.401   1.271  1.7680 -0.1659 -0.1172
   87MOL0     H11430   3.742   7.479   1.419  1.8457  0.6362 -2.0311
   87MOL0     H11431   3.547   7.318   1.463 -3.1236 -1.4184 -1.3531
   87MOL0     H11432   3.601   7.219   1.334  1.8045  0.1015 -0.0641
   87MOL0     H11433   3.452   7.458   1.326  0.0066 -0.0246 -1.5151
   87MOL0     H11434   3.573   7.441   1.187 -0.2008  1.3169 -0.3674
   87MOL0     H11435   3.473   7.228   1.126 -0.9595 -2.0749  1.9903
   87MOL0     H11436   3.381   7.372   1.085  1.9252 -1.7564 -1.2313
   87MOL0     H11437   3.215   7.402   1.356 -0.0861 -0.0510 -1.5884
   87MOL0     H11438   2.932   7.209   1.428  1.3646 -1.1570  0.3237
   87MOL0     H11439   3.038   7.325   1.499 -3.1860  0.7299  0.7298
   87MOL0     H11440   3.152   7.118   1.616 -0.7876 -2.5346 -1.0601
   87MOL0     H11441   2.999   7.045   1.588 -0.5043  0.3599  2.0035
   87MOL0     H11442   3.057   7.322   1.728  1.5434 -0.9399  1.7846
   87MOL0     H11443   2.904   7.251   1.708 -0.0690 -0.2535 -0.1035
   87MOL0     H11444   3.041   7.218   1.936  0.6324  0.1323 -0.0313
   87MOL0     H11445   3.135   7.107   1.857 -0.1498 -0.6365 -1.4696
   87MOL0     H11446   2.764   6.883   1.824 -1.8065 -1.3936  0.1265
   87MOL0     H11447   2.522   6.906   1.893 -1.9174  1.2847  1.8424
   87MOL0     H11448   2.296   7.224   2.365 -1.3369  0.0866  0.0880
   87MOL0     H11449   2.066   7.222   2.460  1.7352 -0.5507  0.8505
   87MOL0     H11450   1.726   7.125   2.197  0.3587  1.2454 -0.5527
   87MOL0     H11451   1.733   7.300   2.209 -0.7062  1.1368 -1.0207
   87MOL0     H11452   1.592   7.105   2.411 -1.0585 -0.0893  0.8095
   87MOL0     H11453   1.513   7.202   2.286 -1.3913 -4.0719  1.2879
   87MOL0     H11454   1.649   7.409   2.385  0.1865 -0.3060  1.1968
   87MOL0     H11455   1.643   7.315   2.536  3.2255  2.2692 -0.7718
   87MOL0     H11456   1.403   7.372   2.360 -2.5446 -1.3437  1.2905
   87MOL0     H11457   1.385   7.323   2.520 -1.4911  1.5266  0.2789
   87MOL0     H11458   1.483   7.539   2.612 -1.0802  0.3488  0.2533
   87MOL0     H11459   1.326   7.538   2.548 -0.0944 -2.3582  1.9518
   87MOL0     H11460   1.380   7.638   2.350 -1.1084 -4.1464  0.2790
   87MOL0     H11461   1.550   7.626   2.356 -1.1175  1.3172 -2.1848
   87MOL0     H11462   1.528   7.781   2.578  0.2419  1.6966 -0.8626
   87MOL0     H11463   1.474   7.854   2.425 -0.9569  1.2347  0.0696
   87MOL0     H11464   1.243   7.744   2.507  0.8288 -4.3969  1.4090
   87MOL0     H11465   1.302   7.904   2.562 -0.5232 -1.1314  0.3463
   87MOL0     H11466   1.898   7.114   2.081  0.1665 -1.7676 -0.1004
   87MOL0     H11467   2.140   7.094   1.989  1.7689 -0.4938  0.1215
   87MOL0     H11468   2.605   7.296   2.069 -1.1886  0.1594 -0.4712
   87MOL0     H11469   2.819   7.298   1.971 -0.9194  0.6438  0.5817
   87MOL0     H11470   4.270   7.070   1.493  1.0982 -0.8696  1.1667
   87MOL0     H11471   4.501   7.011   1.524 -1.7667 -2.2632  0.1847
   87MOL0     H11472   4.841   6.526   1.235 -1.0365 -0.6145  0.2496
   87MOL0     H11473   5.064   6.471   1.267 -2.8144 -1.1992  1.2757
   87MOL0     H11474   5.348   6.780   1.342  1.7460  0.1179 -1.7482
   87MOL0     H11475   5.325   6.682   1.202  1.6816  1.2982 -0.0748
   87MOL0     H11476   5.438   6.495   1.336 -2.9115  0.4335  1.4600
   87MOL0     H11477   5.535   6.627   1.253 -0.4243 -0.0073 -1.0571
   87MOL0     H11478   5.588   6.547   1.502 -1.5333 -1.2159 -1.5690
   87MOL0     H11479   5.448   6.637   1.552  0.3163 -0.8958  0.9217
   87MOL0     H11480   5.672   6.768   1.561 -4.1098  2.2474  0.0889
   87MOL0     H11481   5.714   6.722   1.402  1.3810  2.0195  1.7584
   87MOL0     H11482   5.513   7.094   1.369  1.2882  1.2741 -3.0211
   87MOL0     H11483   5.160   6.851   1.428  0.7244  0.2212 -1.1193
   87MOL0     H11484   4.916   6.926   1.370 -1.9619 -1.0485  0.8617
   88MOL0     O11485   0.813  11.057   9.016  0.3639 -0.2650 -0.0835
   88MOL0     C11486   0.774  11.147   8.938 -1.1163  1.1181  0.6263
   88MOL0     O11487   0.648  11.186   8.919 -0.0896 -0.7237 -0.6281
   88MOL0     C11488   0.550  11.123   8.985  1.1158 -0.7991 -0.4526
   88MOL0     C11489   0.458  11.210   9.048 -0.2547  0.6572 -1.0412
   88MOL0     C11490   0.349  11.162   9.125 -0.0384  0.6967 -0.2719
   88MOL0     C11491   0.332  11.022   9.140  0.8217 -0.0321  0.5462
   88MOL0     O11492   0.219  10.968   9.197  0.8789 -0.5618 -0.5138
   88MOL0     C11493   0.222  10.973   9.339 -0.2622  0.1067 -0.1619
   88MOL0     C11494   0.097  10.917   9.405  0.0644  0.6841 -0.1320
   88MOL0     C11495  -0.025  11.010   9.406  0.0265 -0.3660  0.4518
   88MOL0     C11496  -0.133  10.926   9.477  0.3900  0.4622 -0.5048
   88MOL0     C11497  -0.265  11.003   9.501 -0.2450 -0.3920 -0.0583
   88MOL0     C11498  -0.247  11.104   9.622 -0.8606 -0.0980  0.5686
   88MOL0     C11499  -0.374  11.193   9.637  0.2735 -0.2626  0.7831
   88MOL0     C11500  -0.487  11.099   9.705 -1.0101 -0.2929 -0.8145
   88MOL0     N11501  -0.602  11.181   9.742  0.1427 -0.5949 -0.4745
   88MOL0     C11502  -0.698  11.239   9.660  0.2179  0.3185  0.2440
   88MOL0     C11503  -0.762  11.328   9.733  0.2743 -0.3839 -0.5321
   88MOL0     C11504  -0.878  11.418   9.696  0.1326  0.3416 -0.8661
   88MOL0     C11505  -1.015  11.341   9.690 -1.0019  0.0332 -0.2981
   88MOL0     C11506  -1.130  11.439   9.641  0.2820 -0.8462  0.3120
   88MOL0     C11507  -1.265  11.376   9.632 -0.3760 -0.1696 -0.1471
   88MOL0     O11508  -1.351  11.449   9.545  0.6065  0.0704 -0.3494
   88MOL0     C11509  -1.487  11.420   9.546  0.8704 -0.0603 -0.1074
   88MOL0     C11510  -1.578  11.505   9.478 -0.8175  0.5399  0.4269
   88MOL0     C11511  -1.712  11.466   9.462 -0.0992  0.6714  0.4203
   88MOL0     C11512  -1.767  11.350   9.525  0.8936 -0.4193  0.4219
   88MOL0     C11513  -1.909  11.309   9.504 -1.0871 -0.2321  1.1936
   88MOL0     O11514  -1.961  11.360   9.391  0.2654  0.0859 -0.6939
   88MOL0     C11515  -2.100  11.353   9.389 -0.5605  0.2987 -1.1344
   88MOL0     C11516  -2.158  11.236   9.346  0.3608  0.1022 -1.2025
   88MOL0     C11517  -2.298  11.224   9.330 -0.1850 -0.4826  0.4389
   88MOL0     C11518  -2.383  11.339   9.341  0.2365 -0.1367  0.3787
   88MOL0     O11519  -2.518  11.339   9.305  0.2945  0.5963  0.5617
   88MOL0     C11520  -2.574  11.218   9.257 -0.1614  0.4147  0.4124
   88MOL0     C11521  -2.726  11.224   9.211  0.0613 -0.3178  0.1047
   88MOL0     C11522  -2.778  11.090   9.154  0.0250  0.7015  0.0287
   88MOL0     C11523  -2.693  11.052   9.030 -0.5829  0.3593 -1.2045
   88MOL0     C11524  -2.777  10.977   8.925 -0.8090  0.3141  0.1163
   88MOL0     C11525  -2.804  10.833   8.965 -0.7940 -0.2172  0.0912
   88MOL0     C11526  -2.922  10.778   8.879  0.3779  0.3412  0.0275
   88MOL0     C11527  -2.955  10.638   8.922 -0.5022 -0.0527  0.2282
   88MOL0    Cl11528  -2.991  10.635   9.099  0.0580  0.0560 -0.2637
   88MOL0     C11529  -2.325  11.449   9.405  0.0504  0.6108  0.3112
   88MOL0     C11530  -2.186  11.461   9.423  0.5096  0.4722  0.9250
   88MOL0     O11531  -1.964  11.239   9.581 -0.3030 -0.3142 -0.4200
   88MOL0     C11532  -1.678  11.274   9.604  0.5713  0.8836  0.3500
   88MOL0     C11533  -1.538  11.306   9.607 -0.7002 -0.2415 -0.4882
   88MOL0     N11534  -0.713  11.321   9.861 -0.0299  0.5203  0.5024
   88MOL0     N11535  -0.621  11.230   9.866  0.7567  0.2028 -0.3003
   88MOL0     C11536   0.412  10.938   9.058 -0.4075 -0.6622 -0.3762
   88MOL0     C11537   0.522  10.989   8.971 -0.0650  0.4493 -0.0747
   88MOL0     C11538   0.880  11.231   8.870  0.2321 -0.8302 -0.7274
   88MOL0     C11539   0.840  11.319   8.765 -0.3720  0.5671  0.5364
   88MOL0     C11540   0.933  11.392   8.694  0.5593  0.3163  0.0447
   88MOL0     C11541   1.068  11.380   8.722 -0.3816  0.0653 -0.5952
   88MOL0     O11542   1.153  11.458   8.648 -0.6013 -0.1148 -0.9595
   88MOL0     C11543   1.194  11.577   8.728 -0.0483  0.4514  0.2133
   88MOL0     C11544   1.323  11.550   8.796  0.1296 -0.2612 -0.6778
   88MOL0     C11545   1.403  11.679   8.814 -0.0059  0.1436 -0.6158
   88MOL0     C11546   1.539  11.652   8.878 -0.2092  0.3738 -0.5526
   88MOL0     C11547   1.628  11.766   8.853  0.9823  0.4690  1.0055
   88MOL0     C11548   1.695  11.855   8.819 -0.2583 -0.3036 -0.5639
   88MOL0     C11549   1.111  11.299   8.827 -0.4848 -0.7564 -0.4385
   88MOL0     C11550   1.016  11.224   8.898 -0.0618 -0.3385 -0.2721
   88MOL0     H11551   0.471  11.317   9.038  1.7383  0.4755 -0.7649
   88MOL0     H11552   0.284  11.226   9.183  1.6945  1.2929  1.0911
   88MOL0     H11553   0.244  11.077   9.365 -0.1658 -0.2375  1.1709
   88MOL0     H11554   0.307  10.916   9.378 -1.9591 -1.6513  1.1534
   88MOL0     H11555   0.119  10.894   9.509  0.2960  1.8259  0.0860
   88MOL0     H11556   0.074  10.819   9.363  0.4690 -0.4978  2.2730
   88MOL0     H11557  -0.045  11.034   9.301 -0.9965 -4.0765 -0.3347
   88MOL0     H11558  -0.011  11.104   9.461 -0.9718  1.6184 -2.4514
   88MOL0     H11559  -0.156  10.835   9.422 -0.7161 -0.4898  1.4408
   88MOL0     H11560  -0.089  10.904   9.575 -0.9698  3.3189  0.8678
   88MOL0     H11561  -0.340  10.937   9.545  1.5917  0.0461  4.1524
   88MOL0     H11562  -0.295  11.052   9.408 -0.5709  0.2146  0.3598
   88MOL0     H11563  -0.158  11.166   9.607 -0.4265 -0.8355  0.0552
   88MOL0     H11564  -0.228  11.049   9.714  1.3977  0.0056  0.2137
   88MOL0     H11565  -0.345  11.269   9.711 -1.0003 -1.0641  2.1400
   88MOL0     H11566  -0.399  11.228   9.536  3.5020 -2.7553 -1.1087
   88MOL0     H11567  -0.451  11.054   9.798 -3.3057 -0.2332  0.1690
   88MOL0     H11568  -0.522  11.016   9.643 -0.6444  0.3913 -1.9472
   88MOL0     H11569  -0.717  11.209   9.558  2.6268  1.6083 -0.6572
   88MOL0     H11570  -0.860  11.467   9.599 -0.6663  0.1021 -1.1368
   88MOL0     H11571  -0.893  11.499   9.768 -0.0313 -1.0082  0.6669
   88MOL0     H11572  -1.043  11.315   9.793  1.8944  0.4965  0.6992
   88MOL0     H11573  -1.012  11.249   9.631  0.1680 -0.5293  0.6026
   88MOL0     H11574  -1.134  11.529   9.703  0.5858 -0.3529 -0.3741
   88MOL0     H11575  -1.105  11.471   9.539  1.0262 -0.1917  0.6879
   88MOL0     H11576  -1.302  11.383   9.735 -2.9643 -0.8913 -0.9461
   88MOL0     H11577  -1.246  11.274   9.598  1.2729  0.6836 -1.9804
   88MOL0     H11578  -1.535  11.585   9.419 -2.5293  1.0350 -0.2157
   88MOL0     H11579  -1.766  11.523   9.386  0.9424  0.9270 -0.1559
   88MOL0     H11580  -2.101  11.148   9.319  1.1500  0.7279 -1.6171
   88MOL0     H11581  -2.339  11.132   9.290 -0.8158 -1.3340  2.8626
   88MOL0     H11582  -2.562  11.141   9.334 -0.4356  1.4006  1.4652
   88MOL0     H11583  -2.517  11.181   9.171  1.4512 -0.0903  1.6472
   88MOL0     H11584  -2.743  11.299   9.133 -0.7452 -0.5714  0.0341
   88MOL0     H11585  -2.794  11.250   9.292 -0.4964  1.9000 -0.9794
   88MOL0     H11586  -2.884  11.087   9.125  0.1651  1.8542 -0.6603
   88MOL0     H11587  -2.781  11.009   9.227 -0.7107 -0.6078 -1.3803
   88MOL0     H11588  -2.649  11.137   8.978  1.6322 -0.8729 -1.4803
   88MOL0     H11589  -2.602  10.996   9.053 -2.0174 -1.0650  1.4941
   88MOL0     H11590  -2.716  10.973   8.834  2.4365  2.3748  1.9793
   88MOL0     H11591  -2.869  11.030   8.898  0.2618  1.7795 -0.8416
   88MOL0     H11592  -2.817  10.821   9.073 -3.2735 -0.1397 -0.1370
   88MOL0     H11593  -2.716  10.771   8.944  0.6620  1.8277 -0.1707
   88MOL0     H11594  -3.016  10.833   8.889 -0.9198 -1.6292 -0.9066
   88MOL0     H11595  -2.891  10.769   8.775  1.5701 -0.1481  0.4019
   88MOL0     H11596  -2.871  10.574   8.891  0.1748  0.5440  0.7912
   88MOL0     H11597  -3.048  10.611   8.871  0.8312 -2.4246 -1.1454
   88MOL0     H11598  -2.385  11.537   9.422  0.6874  1.2165 -0.4754
   88MOL0     H11599  -2.147  11.550   9.472  3.0396 -0.8230  1.4418
   88MOL0     H11600  -1.707  11.179   9.648 -0.0123  0.6817 -0.4356
   88MOL0     H11601  -1.472  11.248   9.670 -2.0475 -0.1925  1.0469
   88MOL0     H11602   0.395  10.832   9.040 -3.0871 -0.0898 -1.7186
   88MOL0     H11603   0.582  10.933   8.900 -0.0575 -0.7678  0.8671
   88MOL0     H11604   0.736  11.333   8.739 -0.2129  3.4016  1.1493
   88MOL0     H11605   0.901  11.451   8.609 -1.8042 -2.1017 -0.8760
   88MOL0     H11606   1.125  11.606   8.807 -0.4955  0.2179 -0.0888
   88MOL0     H11607   1.198  11.659   8.656 -0.1691 -0.8729 -1.3473
   88MOL0     H11608   1.302  11.495   8.888  0.1263 -0.9272 -1.0720
   88MOL0     H11609   1.388  11.493   8.729 -0.2738  1.4862 -2.6543
   88MOL0     H11610   1.340  11.755   8.859 -2.6995 -0.2296 -3.4161
   88MOL0     H11611   1.425  11.716   8.713  1.6727  0.5228 -0.1398
   88MOL0     H11612   1.527  11.642   8.986  3.0516  0.8388 -0.0211
   88MOL0     H11613   1.575  11.552   8.851  0.4609 -1.0108  4.4130
   88MOL0     H11614   1.761  11.936   8.796  2.7538 -2.4281 -0.0324
   88MOL0     H11615   1.215  11.288   8.854 -0.7183  0.7906  1.2774
   88MOL0     H11616   1.056  11.151   8.968  0.4217 -1.9000 -2.0884
   89MOL0     O11617   9.688   3.252   2.707  0.2550  0.4062  0.1847
   89MOL0     C11618   9.663   3.260   2.825  0.2824  0.7029 -0.2602
   89MOL0     O11619   9.578   3.174   2.899 -0.2050  0.5719 -0.4501
   89MOL0     C11620   9.500   3.078   2.834 -0.1446 -0.0155 -0.8860
   89MOL0     C11621   9.479   2.960   2.906 -0.3662 -0.1513 -0.1515
   89MOL0     C11622   9.395   2.867   2.849 -0.0966  0.8927  0.2511
   89MOL0     C11623   9.343   2.874   2.720  0.0213  0.2595 -0.1428
   89MOL0     O11624   9.277   2.760   2.676 -0.5429 -0.1596  0.7147
   89MOL0     C11625   9.220   2.772   2.542  0.2772  0.4096  0.0458
   89MOL0     C11626   9.151   2.650   2.503 -0.5299  0.3829 -0.0017
   89MOL0     C11627   9.092   2.670   2.367  1.2961 -0.5508  0.1598
   89MOL0     C11628   8.950   2.729   2.382  0.1971  0.2499 -0.3905
   89MOL0     C11629   8.896   2.754   2.243  0.4071  1.1004 -1.6362
   89MOL0     C11630   8.761   2.830   2.253  0.2783 -0.2629 -0.7312
   89MOL0     C11631   8.711   2.843   2.108  0.2541 -0.1684  0.1458
   89MOL0     C11632   8.572   2.905   2.108 -0.3545 -0.2385  0.2563
   89MOL0     N11633   8.472   2.829   2.185  0.1567 -0.8931  0.2946
   89MOL0     C11634   8.409   2.888   2.296  0.7342  0.2976 -0.3095
   89MOL0     C11635   8.310   2.797   2.311  0.6568 -0.3694 -0.4487
   89MOL0     C11636   8.205   2.806   2.418 -0.6005  0.3843 -0.2047
   89MOL0     C11637   8.062   2.850   2.368 -0.5476 -0.3327 -0.4195
   89MOL0     C11638   7.971   2.877   2.486 -0.7929  0.0472 -0.5213
   89MOL0     C11639   7.832   2.875   2.440  0.4188 -0.5923  0.6632
   89MOL0     O11640   7.745   2.877   2.555 -0.4234  0.4778 -0.0779
   89MOL0     C11641   7.607   2.874   2.525 -0.6737  0.3344 -0.3794
   89MOL0     C11642   7.524   2.915   2.634  0.3562 -1.1719 -0.9448
   89MOL0     C11643   7.388   2.931   2.608 -0.2932  0.6877  1.0951
   89MOL0     C11644   7.332   2.896   2.483 -0.4560  0.1993  0.7065
   89MOL0     C11645   7.186   2.924   2.454 -0.0081 -0.4375  0.1306
   89MOL0     O11646   7.099   2.962   2.553 -0.8326 -0.5459 -0.3371
   89MOL0     C11647   6.967   2.971   2.526  0.4551 -0.1961 -0.2424
   89MOL0     C11648   6.926   3.102   2.491  0.9216  0.1837  0.9539
   89MOL0     C11649   6.798   3.125   2.463  0.2541 -0.0140 -0.5231
   89MOL0     C11650   6.700   3.032   2.490 -0.3647 -0.2145 -0.0341
   89MOL0     O11651   6.576   3.074   2.465 -0.1675 -0.2480  0.4327
   89MOL0     C11652   6.494   3.013   2.358 -0.6186  0.5621 -0.0602
   89MOL0     C11653   6.356   3.017   2.401  0.1379 -0.3874 -0.2533
   89MOL0     C11654   6.252   2.942   2.312 -0.6546  0.2653 -0.5875
   89MOL0     C11655   6.111   2.969   2.352 -0.3456 -0.4744 -0.6421
   89MOL0     C11656   5.995   2.916   2.270  1.5762  0.1596  0.6883
   89MOL0     C11657   5.855   2.955   2.316 -0.0725  0.0152  0.1746
   89MOL0     C11658   5.764   2.880   2.220  0.6838  0.2905  0.0613
   89MOL0     C11659   5.620   2.918   2.244 -0.2765  0.7034  0.2863
   89MOL0    Cl11660   5.499   2.804   2.179 -0.0377 -0.4978 -0.4588
   89MOL0     C11661   6.743   2.907   2.519  0.6288 -0.0941 -0.2951
   89MOL0     C11662   6.880   2.868   2.542  0.6698  0.4390 -0.1270
   89MOL0     O11663   7.157   2.942   2.332 -0.1712  0.5072  0.3206
   89MOL0     C11664   7.418   2.845   2.380  0.8988 -0.1949 -0.6650
   89MOL0     C11665   7.554   2.833   2.404  0.7623 -0.4077 -0.0668
   89MOL0     N11666   8.312   2.707   2.209 -0.2937  0.0836  0.2464
   89MOL0     N11667   8.420   2.713   2.144 -0.2940 -0.0164  0.3006
   89MOL0     C11668   9.369   2.992   2.647 -0.5911 -0.1079 -0.4408
   89MOL0     C11669   9.442   3.093   2.713  0.0575 -0.2806  0.1641
   89MOL0     C11670   9.707   3.384   2.899 -0.2337 -0.2148 -0.0768
   89MOL0     C11671   9.701   3.387   3.037  0.3218  0.2316 -0.5946
   89MOL0     C11672   9.745   3.503   3.110 -0.0023  0.9457  0.0952
   89MOL0     C11673   9.809   3.606   3.041  1.1478 -0.2043  1.0305
   89MOL0     O11674   9.869   3.716   3.095 -0.3931  0.4626  0.3722
   89MOL0     C11675   9.847   3.730   3.234  0.0558 -0.1097 -0.1383
   89MOL0     C11676   9.940   3.840   3.285 -0.2532 -0.6368  0.2377
   89MOL0     C11677   9.899   3.893   3.427 -0.8962 -0.0311  0.6609
   89MOL0     C11678   9.998   4.000   3.473  0.9657 -0.9660 -0.4986
   89MOL0     C11679   9.960   4.135   3.417 -0.3599  0.4973  0.5209
   89MOL0     C11680   9.920   4.240   3.380 -0.6416  0.0591 -0.8503
   89MOL0     C11681   9.801   3.604   2.906 -0.2256 -0.1978  0.6318
   89MOL0     C11682   9.749   3.497   2.827  0.0955  0.2417  0.1192
   89MOL0     H11683   9.518   2.942   3.006 -0.8777  2.4604  0.6116
   89MOL0     H11684   9.373   2.776   2.904 -1.6870  0.1947 -1.4499
   89MOL0     H11685   9.306   2.795   2.477  0.5725 -1.0450 -0.1322
   89MOL0     H11686   9.149   2.854   2.536  0.6473  0.6336 -2.3139
   89MOL0     H11687   9.071   2.616   2.568 -1.4618  4.7224  1.4412
   89MOL0     H11688   9.232   2.576   2.498 -1.4770 -0.6043 -1.8250
   89MOL0     H11689   9.080   2.574   2.316 -2.0645 -0.8948  1.3521
   89MOL0     H11690   9.153   2.733   2.302  0.0788 -2.3457 -2.9637
   89MOL0     H11691   8.877   2.655   2.417 -1.4753  0.5659 -2.9046
   89MOL0     H11692   8.951   2.819   2.444  0.3678  0.1851 -0.3002
   89MOL0     H11693   8.879   2.659   2.192 -2.8332  0.7186 -0.0643
   89MOL0     H11694   8.963   2.821   2.188  1.2792  0.9214 -0.8170
   89MOL0     H11695   8.778   2.927   2.301  1.4805 -1.3353  1.1569
   89MOL0     H11696   8.694   2.780   2.323 -0.2790  2.0050  0.4405
   89MOL0     H11697   8.769   2.901   2.035  2.4683 -0.1502  1.8381
   89MOL0     H11698   8.714   2.744   2.062 -1.2148  0.1592 -0.7414
   89MOL0     H11699   8.544   2.910   2.003  0.4678  0.5885  0.0656
   89MOL0     H11700   8.579   3.008   2.146  1.1276  0.4510 -1.7575
   89MOL0     H11701   8.431   2.976   2.356  0.0460  0.9433 -0.9792
   89MOL0     H11702   8.246   2.873   2.495  0.1305 -1.8720  1.5000
   89MOL0     H11703   8.194   2.707   2.464  1.5012 -0.1241 -0.6637
   89MOL0     H11704   8.014   2.779   2.300 -1.8790 -0.4849  0.6332
   89MOL0     H11705   8.074   2.944   2.313 -1.0448  0.0101  0.0472
   89MOL0     H11706   7.995   2.803   2.562  0.2640  0.4355 -0.4643
   89MOL0     H11707   7.982   2.973   2.537  0.9286 -0.6832  0.5677
   89MOL0     H11708   7.811   2.781   2.388 -2.5402  1.1116 -1.5227
   89MOL0     H11709   7.810   2.952   2.366  1.2482 -3.1106 -2.4247
   89MOL0     H11710   7.558   2.950   2.730 -0.8540 -1.7745 -0.2666
   89MOL0     H11711   7.320   2.975   2.681 -2.3774  2.1051 -1.5342
   89MOL0     H11712   7.001   3.179   2.477  0.4830  0.2891 -1.1332
   89MOL0     H11713   6.762   3.218   2.421 -0.3665 -0.2233 -0.4539
   89MOL0     H11714   6.514   2.907   2.343  0.7664  0.7477  0.3360
   89MOL0     H11715   6.507   3.068   2.263  0.0098  0.6238  0.0549
   89MOL0     H11716   6.325   3.122   2.409  0.0734 -0.5307  2.6128
   89MOL0     H11717   6.356   2.971   2.500  1.1464  2.5872  1.2703
   89MOL0     H11718   6.261   2.833   2.310 -1.2931  0.1320 -5.1339
   89MOL0     H11719   6.255   2.978   2.209  1.1963  3.1794  0.3679
   89MOL0     H11720   6.093   2.935   2.454 -0.2035  1.8427  0.2268
   89MOL0     H11721   6.110   3.079   2.352  2.5606 -0.3363 -2.5604
   89MOL0     H11722   6.016   2.809   2.275 -2.4289 -0.7228  1.7063
   89MOL0     H11723   6.003   2.947   2.165  3.2780 -0.3441  0.6330
   89MOL0     H11724   5.839   3.063   2.306 -2.4541 -0.3860 -1.1482
   89MOL0     H11725   5.827   2.928   2.418  0.4183  2.4132  1.0001
   89MOL0     H11726   5.799   2.876   2.117  1.6404  0.9479  0.3494
   89MOL0     H11727   5.770   2.776   2.253 -1.3812 -0.4579 -1.6634
   89MOL0     H11728   5.599   3.018   2.203  2.2687  2.1669  2.1852
   89MOL0     H11729   5.619   2.932   2.352  0.3036  3.5836  0.0058
   89MOL0     H11730   6.665   2.834   2.541 -0.7679  1.5737  0.5410
   89MOL0     H11731   6.918   2.767   2.556  1.2953  0.7607  0.5345
   89MOL0     H11732   7.376   2.828   2.281 -0.3347  0.7680 -0.3342
   89MOL0     H11733   7.616   2.796   2.323  1.9727 -0.2524  0.7666
   89MOL0     H11734   9.348   3.013   2.542 -0.3326  1.1259 -0.2523
   89MOL0     H11735   9.469   3.185   2.662  1.2282 -2.1315 -2.8085
   89MOL0     H11736   9.649   3.305   3.086 -1.3086  1.8197  0.4670
   89MOL0     H11737   9.737   3.509   3.218  0.0920  1.2612  0.0864
   89MOL0     H11738   9.868   3.637   3.288 -0.3744  0.7972  1.6810
   89MOL0     H11739   9.743   3.758   3.254 -0.4619 -0.5766 -1.9689
   89MOL0     H11740  10.039   3.793   3.285 -1.0806 -2.5237 -1.0972
   89MOL0     H11741   9.946   3.926   3.218 -0.1262 -1.8826 -1.3931
   89MOL0     H11742   9.906   3.803   3.488 -0.7520 -1.2032 -1.0115
   89MOL0     H11743   9.798   3.934   3.439 -0.7318  0.4749  0.3828
   89MOL0     H11744  10.011   3.991   3.581 -0.8694 -0.1900 -0.1750
   89MOL0     H11745  10.097   3.983   3.430  1.8951  1.0580  0.7076
   89MOL0     H11746   9.889   4.342   3.378  0.6675  0.4631 -2.0687
   89MOL0     H11747   9.825   3.701   2.862 -3.7859  1.8555  2.7870
   89MOL0     H11748   9.760   3.500   2.719  3.3557  0.6083  0.3697
   90MOL0     O11749   7.153   9.139   9.642 -0.2129 -0.3058 -0.3172
   90MOL0     C11750   7.188   9.201   9.541 -0.5656 -0.2564  0.1172
   90MOL0     O11751   7.112   9.294   9.483 -0.2874  1.2827  0.3344
   90MOL0     C11752   6.987   9.321   9.530 -0.6790  0.1643 -0.4900
   90MOL0     C11753   6.948   9.366   9.662 -0.2692  1.4142 -0.4183
   90MOL0     C11754   6.815   9.389   9.690  0.8485 -1.3898 -0.1858
   90MOL0     C11755   6.712   9.378   9.595 -0.6324  0.8594 -0.9667
   90MOL0     O11756   6.579   9.414   9.630  0.3980 -0.0487  0.2503
   90MOL0     C11757   6.473   9.384   9.545  1.0237 -0.9951  0.4213
   90MOL0     C11758   6.348   9.455   9.599 -0.8993  0.3878 -0.3000
   90MOL0     C11759   6.255   9.362   9.667  0.4789 -0.8719 -0.1978
   90MOL0     C11760   6.148   9.441   9.724 -1.3347  0.6053  0.0323
   90MOL0     C11761   6.026   9.361   9.765  0.2602  0.4753 -0.1543
   90MOL0     C11762   5.948   9.444   9.864  0.1540 -0.9602  0.5984
   90MOL0     C11763   5.809   9.382   9.889  0.0346 -0.3191  1.2028
   90MOL0     C11764   5.824   9.276   9.983  0.0485  0.1887 -0.3822
   90MOL0     N11765   5.825   9.326  10.120 -0.0224 -0.4061 -0.5990
   90MOL0     C11766   5.727   9.334  10.215 -0.1087  0.9000  0.1263
   90MOL0     C11767   5.776   9.367  10.335 -0.0980 -0.7596  1.3600
   90MOL0     C11768   5.712   9.377  10.472 -0.4955  0.9386 -0.0602
   90MOL0     C11769   5.597   9.471  10.445  0.0168 -0.8708 -0.7633
   90MOL0     C11770   5.535   9.497  10.578 -0.1835  0.5615  0.1589
   90MOL0     C11771   5.395   9.568  10.570 -0.2529  1.0007  0.2663
   90MOL0     O11772   5.294   9.498  10.489  0.1756 -0.4829 -0.1230
   90MOL0     C11773   5.165   9.546  10.475 -0.7643 -0.3029 -0.5963
   90MOL0     C11774   5.112   9.663  10.540 -0.0117 -0.2031 -0.1874
   90MOL0     C11775   4.979   9.701  10.517  0.8056  0.1461  0.1436
   90MOL0     C11776   4.890   9.614  10.441 -0.6221 -0.1818 -0.1823
   90MOL0     C11777   4.746   9.639  10.421  0.4024  0.3404  0.2339
   90MOL0     O11778   4.672   9.561  10.338  0.1426  0.3518  0.3093
   90MOL0     C11779   4.559   9.611  10.271 -0.1694  0.7404 -0.5513
   90MOL0     C11780   4.470   9.511  10.213 -0.7238 -0.5939 -0.3395
   90MOL0     C11781   4.359   9.544  10.143 -0.1415 -0.4004 -0.6111
   90MOL0     C11782   4.325   9.687  10.130  0.0499 -0.7426  0.1009
   90MOL0     O11783   4.205   9.706  10.062  0.4393  0.7854 -0.4936
   90MOL0     C11784   4.153   9.838  10.062  0.0568 -0.5558 -0.0542
   90MOL0     C11785   4.010   9.848  10.009  0.7987 -0.2973 -0.9995
   90MOL0     C11786   3.910   9.786  10.106  0.1642  0.1005  0.6199
   90MOL0     C11787   3.856   9.881  10.216  0.3977  0.4854  0.0206
   90MOL0     C11788   3.747   9.805  10.287 -0.0264 -0.1889 -0.6792
   90MOL0     C11789   3.679   9.897  10.395  0.1331 -0.4139 -0.1934
   90MOL0     C11790   3.588  10.012  10.342  0.0607 -0.2003 -0.5697
   90MOL0     C11791   3.537  10.095  10.456  0.2294 -0.5375  0.3826
   90MOL0    Cl11792   3.409   9.996  10.543 -0.2279 -0.2271  0.0859
   90MOL0     C11793   4.412   9.781  10.186  0.2798 -0.1269  0.9117
   90MOL0     C11794   4.526   9.746  10.245  0.0503  0.2546  0.2890
   90MOL0     O11795   4.696   9.723  10.500 -0.3769  0.4311 -0.1177
   90MOL0     C11796   4.948   9.494  10.392  0.2673 -0.1732 -0.0892
   90MOL0     C11797   5.075   9.469  10.407 -0.2629 -0.2732 -0.1019
   90MOL0     N11798   5.914   9.382  10.321  0.5986 -0.7733  0.0349
   90MOL0     N11799   5.940   9.361  10.192 -0.6821 -0.0092 -0.0601
   90MOL0     C11800   6.750   9.332   9.470 -0.0852  0.7009  0.3300
   90MOL0     C11801   6.883   9.309   9.436  0.1882 -0.8329  0.1555
   90MOL0     C11802   7.325   9.190   9.486 -0.2892  1.0785 -0.7005
   90MOL0     C11803   7.352   9.226   9.354  0.2309  0.1297  0.5676
   90MOL0     C11804   7.475   9.181   9.292  0.0557 -0.3729 -1.0024
   90MOL0     C11805   7.576   9.126   9.382 -0.0951 -0.4014  1.1709
   90MOL0     O11806   7.682   9.084   9.316 -0.7472  0.9665 -0.2896
   90MOL0     C11807   7.807   9.076   9.386 -0.1858  0.0824  0.5906
   90MOL0     C11808   7.851   8.934   9.416 -0.4695 -0.7246  0.1830
   90MOL0     C11809   7.744   8.848   9.495 -0.3742 -1.2885 -0.5074
   90MOL0     C11810   7.802   8.706   9.511  0.1040 -0.0017  0.5131
   90MOL0     C11811   7.904   8.686   9.613 -0.8642 -0.2207 -1.0300
   90MOL0     C11812   7.993   8.661   9.688 -0.6145 -0.0787 -0.3474
   90MOL0     C11813   7.548   9.107   9.520 -0.3854  0.2922  0.0119
   90MOL0     C11814   7.419   9.127   9.570 -0.4147 -0.5218 -0.0007
   90MOL0     H11815   7.023   9.398   9.734 -2.7233  1.0194  2.5240
   90MOL0     H11816   6.790   9.424   9.790  0.2061 -0.5786 -0.6253
   90MOL0     H11817   6.460   9.276   9.536  1.9679 -1.0348 -0.7864
   90MOL0     H11818   6.493   9.424   9.445  2.0296 -2.3714  0.0338
   90MOL0     H11819   6.295   9.524   9.532  0.4898  2.4925  0.6265
   90MOL0     H11820   6.380   9.522   9.680  0.7840  0.2995 -0.8545
   90MOL0     H11821   6.316   9.322   9.749 -1.7803 -0.0950  1.9587
   90MOL0     H11822   6.234   9.279   9.598  0.1596  1.2051 -2.7385
   90MOL0     H11823   6.189   9.478   9.818 -0.6145 -3.1859  1.4113
   90MOL0     H11824   6.104   9.512   9.653 -0.9410 -1.8745 -2.9291
   90MOL0     H11825   6.047   9.263   9.810 -4.3773 -1.5788 -1.8524
   90MOL0     H11826   5.962   9.354   9.677  0.1286  2.9961 -0.3149
   90MOL0     H11827   5.944   9.550   9.835  3.8347 -1.2091 -1.4377
   90MOL0     H11828   6.007   9.442   9.955 -0.3940 -0.4675  0.9739
   90MOL0     H11829   5.736   9.455   9.923 -0.9635 -0.8145  0.2011
   90MOL0     H11830   5.766   9.342   9.796 -1.6623  1.8525  0.9887
   90MOL0     H11831   5.910   9.211   9.965  0.6559  0.4984  1.2383
   90MOL0     H11832   5.733   9.216   9.979 -0.0332 -0.0320  2.7852
   90MOL0     H11833   5.627   9.300  10.190  0.8865 -1.4551 -1.0345
   90MOL0     H11834   5.780   9.410  10.551 -1.5144  1.4179  0.6304
   90MOL0     H11835   5.670   9.279  10.497 -1.3883  1.2618 -0.2592
   90MOL0     H11836   5.525   9.414  10.385  0.0866  0.7246 -2.4476
   90MOL0     H11837   5.624   9.566  10.398  2.0721 -2.0470 -2.0941
   90MOL0     H11838   5.519   9.403  10.632  2.2101 -0.4882 -0.8700
   90MOL0     H11839   5.591   9.568  10.639  1.8899 -1.4204  0.7022
   90MOL0     H11840   5.416   9.667  10.529  2.4984  0.6722  0.7124
   90MOL0     H11841   5.365   9.583  10.675  3.2538  2.7928  1.1672
   90MOL0     H11842   5.179   9.719  10.604 -1.1658 -0.2207  1.0944
   90MOL0     H11843   4.949   9.796  10.559  1.8662  1.1224 -1.2377
   90MOL0     H11844   4.492   9.406  10.224 -2.3151 -0.8534  0.6708
   90MOL0     H11845   4.291   9.473  10.096  0.6526 -0.8980 -1.0222
   90MOL0     H11846   4.218   9.907  10.007 -0.4810  1.0342  1.2056
   90MOL0     H11847   4.150   9.877  10.164  1.8559  0.9865 -0.5227
   90MOL0     H11848   3.995   9.797   9.913 -0.4063 -0.2254 -0.8650
   90MOL0     H11849   3.974   9.950  10.000  2.2348  0.4116  0.6637
   90MOL0     H11850   3.946   9.692  10.149 -1.9872 -0.9403  0.2408
   90MOL0     H11851   3.825   9.756  10.045 -1.4228  1.4090  2.0621
   90MOL0     H11852   3.930   9.900  10.294 -0.3267 -0.2411  0.9144
   90MOL0     H11853   3.820   9.970  10.162  2.4027 -0.0789 -2.4011
   90MOL0     H11854   3.802   9.728  10.343  4.0987  0.1698 -3.7284
   90MOL0     H11855   3.685   9.763  10.207  0.3445  0.6952 -1.4450
   90MOL0     H11856   3.753   9.948  10.457  0.0354 -0.7739  0.2253
   90MOL0     H11857   3.615   9.841  10.463 -1.2472  2.1460  0.7609
   90MOL0     H11858   3.651  10.060  10.267  2.7801 -0.1905  1.5341
   90MOL0     H11859   3.506   9.968  10.285  1.5901 -4.6011  0.1918
   90MOL0     H11860   3.492  10.191  10.430 -1.1837 -0.1635  3.7147
   90MOL0     H11861   3.619  10.123  10.523 -0.9391 -1.6608  2.3853
   90MOL0     H11862   4.394   9.887  10.176  0.0364  0.0796  3.0609
   90MOL0     H11863   4.592   9.827  10.275 -0.1085  0.5053 -0.0331
   90MOL0     H11864   4.896   9.416  10.337  3.4935 -2.2880 -0.3656
   90MOL0     H11865   5.120   9.379  10.366 -0.1835  0.1619 -0.9831
   90MOL0     H11866   6.674   9.325   9.392  0.7521  2.3359 -0.6651
   90MOL0     H11867   6.910   9.289   9.332 -1.0530 -1.2283 -0.1086
   90MOL0     H11868   7.278   9.266   9.286 -0.3686  0.5366  1.4311
   90MOL0     H11869   7.500   9.204   9.189 -3.6776  4.3248 -1.2058
   90MOL0     H11870   7.816   9.137   9.476  0.5841 -0.0212  0.5913
   90MOL0     H11871   7.880   9.110   9.312 -0.0845 -4.4996 -1.8146
   90MOL0     H11872   7.878   8.884   9.323 -0.8578 -1.2693  0.3603
   90MOL0     H11873   7.948   8.945   9.464  1.5716 -5.2911 -2.2698
   90MOL0     H11874   7.649   8.843   9.442  0.4330 -1.7014 -1.9791
   90MOL0     H11875   7.717   8.885   9.594  2.7647  1.8962 -0.6541
   90MOL0     H11876   7.715   8.642   9.527 -0.7033  1.1258  0.7764
   90MOL0     H11877   7.838   8.672   9.414  2.0726  0.6368  0.9672
   90MOL0     H11878   8.072   8.643   9.759 -0.2585  1.2751 -0.3801
   90MOL0     H11879   7.622   9.065   9.588  0.4260  2.6903  0.7133
   90MOL0     H11880   7.413   9.092   9.672 -0.4375 -3.0181 -0.8004
   91MOL0     O11881   7.642   6.835   4.024  0.1834  0.4441 -0.5969
   91MOL0     C11882   7.675   6.880   4.134  0.6541 -0.3386  0.7186
   91MOL0     O11883   7.591   6.916   4.235 -0.6217 -0.1642 -0.2262
   91MOL0     C11884   7.464   6.948   4.209 -0.6211 -0.6126 -0.4498
   91MOL0     C11885   7.428   7.046   4.120 -0.3586 -0.5652  0.9030
   91MOL0     C11886   7.295   7.085   4.111  0.5555 -0.6112  0.2871
   91MOL0     C11887   7.202   7.028   4.205  0.2926  0.0807  0.7107
   91MOL0     O11888   7.062   7.046   4.201 -0.6944 -0.5323 -0.1543
   91MOL0     C11889   7.015   7.176   4.240 -1.0971  0.1980  0.7847
   91MOL0     C11890   6.866   7.155   4.277 -0.0699 -0.1112 -1.0033
   91MOL0     C11891   6.784   7.142   4.150  0.2204  0.2511  0.9180
   91MOL0     C11892   6.652   7.080   4.182 -0.1306 -0.4685 -2.1026
   91MOL0     C11893   6.549   7.058   4.069 -0.5154  0.4721 -0.3058
   91MOL0     C11894   6.484   7.188   4.011  0.2472  0.3323 -0.6118
   91MOL0     C11895   6.358   7.152   3.927  0.6693 -0.2154 -0.8360
   91MOL0     C11896   6.298   7.282   3.857  0.4910 -0.2111 -0.5922
   91MOL0     N11897   6.169   7.259   3.795 -0.6131 -0.3677  0.6190
   91MOL0     C11898   6.083   7.160   3.854 -0.6510  0.0116 -0.2143
   91MOL0     C11899   5.969   7.191   3.797  1.3666  0.0151  0.7336
   91MOL0     C11900   5.839   7.123   3.836 -0.1317 -0.3041 -0.0743
   91MOL0     C11901   5.804   7.146   3.984 -0.6705 -0.7687  0.0704
   91MOL0     C11902   5.651   7.107   4.003  0.3577  0.3559  1.1709
   91MOL0     C11903   5.603   7.143   4.144  0.6556  0.5625 -0.7164
   91MOL0     O11904   5.584   7.283   4.146  0.9158 -0.2971 -0.2686
   91MOL0     C11905   5.513   7.332   4.258  0.6737 -0.8193  1.6093
   91MOL0     C11906   5.517   7.295   4.387 -0.1720 -0.2708 -0.2486
   91MOL0     C11907   5.428   7.334   4.487 -0.2512  0.3655  0.3735
   91MOL0     C11908   5.326   7.427   4.456  0.5222 -0.6952 -0.6474
   91MOL0     C11909   5.235   7.474   4.568 -0.2838  0.5086 -0.2066
   91MOL0     O11910   5.122   7.540   4.521 -0.6922 -0.4917  0.3984
   91MOL0     C11911   5.017   7.573   4.609 -0.1651  0.0771  0.5992
   91MOL0     C11912   4.918   7.664   4.579  0.3115 -0.4156  0.4840
   91MOL0     C11913   4.796   7.685   4.648 -0.5421  1.0759  0.4634
   91MOL0     C11914   4.780   7.609   4.763  0.9666 -0.1546  0.2498
   91MOL0     O11915   4.656   7.636   4.827  0.4224  0.0524  0.0304
   91MOL0     C11916   4.633   7.574   4.959  0.9168  0.3824 -0.4880
   91MOL0     C11917   4.496   7.609   5.001 -0.7566 -0.6155  0.1746
   91MOL0     C11918   4.389   7.560   4.898  0.6000  0.7065 -0.6467
   91MOL0     C11919   4.250   7.557   4.955 -1.1657 -0.5581 -0.3552
   91MOL0     C11920   4.145   7.479   4.880 -0.0286 -0.1170  0.1854
   91MOL0     C11921   4.006   7.462   4.952  0.1106 -0.7009 -0.3753
   91MOL0     C11922   3.931   7.347   4.889  0.1329  0.1856 -0.5202
   91MOL0     C11923   3.788   7.345   4.938  0.6112 -0.0569 -0.0156
   91MOL0    Cl11924   3.702   7.197   4.882  0.2158 -0.0793  0.0963
   91MOL0     C11925   4.876   7.516   4.803  0.2697  0.4620 -0.2609
   91MOL0     C11926   4.987   7.500   4.726 -0.2266  0.0490  0.4827
   91MOL0     O11927   5.276   7.472   4.684 -0.1351  0.7702 -0.5629
   91MOL0     C11928   5.328   7.486   4.329 -0.5403 -0.1521  0.9961
   91MOL0     C11929   5.421   7.435   4.230  0.2935  0.5693 -0.2432
   91MOL0     N11930   5.991   7.283   3.696 -0.0921 -0.5728  0.3391
   91MOL0     N11931   6.110   7.328   3.694 -0.2499  0.2299  0.6892
   91MOL0     C11932   7.239   6.925   4.291  0.2207  0.3856 -0.4915
   91MOL0     C11933   7.371   6.899   4.304 -0.8438  0.7961  0.8767
   91MOL0     C11934   7.822   6.873   4.158 -1.0342 -0.4492 -0.5603
   91MOL0     C11935   7.867   6.853   4.292  0.6066  0.0889 -0.2744
   91MOL0     C11936   7.999   6.851   4.328 -0.0631  0.0640 -0.0520
   91MOL0     C11937   8.093   6.856   4.220  0.0394 -0.8361  0.3508
   91MOL0     O11938   8.236   6.867   4.234  0.0500 -0.0443 -0.5218
   91MOL0     C11939   8.296   6.838   4.362  0.2267 -0.4624  0.5360
   91MOL0     C11940   8.440   6.886   4.365  0.3122  0.0744  0.1011
   91MOL0     C11941   8.521   6.808   4.260  0.3373 -0.7022 -0.6599
   91MOL0     C11942   8.668   6.770   4.301  0.6137  0.4011 -0.5489
   91MOL0     C11943   8.734   6.873   4.387  0.6668  0.4784  1.2319
   91MOL0     C11944   8.785   6.949   4.465 -0.5354 -0.4143 -0.1460
   91MOL0     C11945   8.052   6.885   4.096 -1.6036  0.2857 -0.0528
   91MOL0     C11946   7.922   6.891   4.066  0.3704 -0.0497  0.4768
   91MOL0     H11947   7.512   7.092   4.069  0.7422 -4.3930 -1.0990
   91MOL0     H11948   7.253   7.157   4.042 -1.5760 -2.9017 -0.9834
   91MOL0     H11949   7.025   7.255   4.166  1.0267  0.7393  1.5901
   91MOL0     H11950   7.072   7.217   4.324  0.2786 -0.6888  0.3160
   91MOL0     H11951   6.827   7.240   4.334 -0.1561 -0.9677  0.2700
   91MOL0     H11952   6.866   7.060   4.331  2.4081 -0.3734 -1.3420
   91MOL0     H11953   6.827   7.076   4.075 -1.1672 -2.0949  2.0728
   91MOL0     H11954   6.769   7.237   4.098  5.4255  0.0126 -1.6162
   91MOL0     H11955   6.665   6.979   4.223 -2.1214  0.6777  1.8645
   91MOL0     H11956   6.600   7.133   4.263  2.0696 -1.3898  0.0384
   91MOL0     H11957   6.469   6.990   4.098  0.1257 -0.5623 -0.9175
   91MOL0     H11958   6.596   7.000   3.989 -2.4163 -0.6445 -0.6832
   91MOL0     H11959   6.556   7.233   3.941  0.8496 -3.5314 -2.7407
   91MOL0     H11960   6.459   7.253   4.096 -0.7124 -0.4565 -0.2778
   91MOL0     H11961   6.387   7.080   3.850 -1.2240  2.2435 -4.0837
   91MOL0     H11962   6.288   7.102   3.995 -0.5497 -0.9817 -2.5851
   91MOL0     H11963   6.372   7.318   3.786  0.5155 -0.8285 -0.8862
   91MOL0     H11964   6.284   7.363   3.930 -3.1633  0.2748 -1.6654
   91MOL0     H11965   6.108   7.090   3.933 -2.2088  1.3381  1.5689
   91MOL0     H11966   5.843   7.014   3.830 -2.6220 -0.4001 -0.9852
   91MOL0     H11967   5.759   7.168   3.776  1.3595  1.5452 -0.8019
   91MOL0     H11968   5.801   7.255   3.999 -0.6512 -1.0264  2.2293
   91MOL0     H11969   5.866   7.095   4.058 -0.3587 -0.0247  0.3373
   91MOL0     H11970   5.595   7.163   3.928  0.7035  0.5695  1.0698
   91MOL0     H11971   5.651   6.999   3.984  2.2991  0.4528  0.3038
   91MOL0     H11972   5.683   7.127   4.217 -0.5629 -1.6018  0.2394
   91MOL0     H11973   5.516   7.088   4.183  0.9562  1.5054  1.4842
   91MOL0     H11974   5.599   7.229   4.414 -1.6289 -2.1683 -0.3217
   91MOL0     H11975   5.430   7.294   4.588 -2.2538 -3.5048 -0.8945
   91MOL0     H11976   4.934   7.728   4.493  0.3286 -0.0803  0.7352
   91MOL0     H11977   4.718   7.754   4.619  1.1156  3.1617  0.7212
   91MOL0     H11978   4.700   7.608   5.038  1.3646  2.0438 -1.5351
   91MOL0     H11979   4.640   7.465   4.948  0.9245  0.5429 -2.5203
   91MOL0     H11980   4.491   7.718   4.995  0.4671 -0.5230  0.5386
   91MOL0     H11981   4.475   7.584   5.105 -0.2852  0.6158  0.5903
   91MOL0     H11982   4.406   7.455   4.872  1.0419  0.8653 -1.0186
   91MOL0     H11983   4.398   7.622   4.808  0.7493  2.5406  0.5943
   91MOL0     H11984   4.256   7.518   5.057  1.9782  2.4283  0.8233
   91MOL0     H11985   4.220   7.662   4.967  0.6662  0.0788 -1.0681
   91MOL0     H11986   4.189   7.382   4.855  1.0053  0.6157 -1.0129
   91MOL0     H11987   4.129   7.522   4.780 -0.0244  1.0015  0.6570
   91MOL0     H11988   3.944   7.552   4.942  1.8968  0.5081 -1.0611
   91MOL0     H11989   4.018   7.440   5.058  0.6764  0.1902 -0.2493
   91MOL0     H11990   3.937   7.354   4.780  1.1281  0.1752 -0.4778
   91MOL0     H11991   3.987   7.259   4.923  0.8054  0.1301 -1.7320
   91MOL0     H11992   3.742   7.435   4.895 -1.4939 -1.7109 -1.4002
   91MOL0     H11993   3.785   7.359   5.047 -0.2182 -0.3696  0.0064
   91MOL0     H11994   4.852   7.448   4.883  3.0998 -0.9001 -0.4600
   91MOL0     H11995   5.056   7.425   4.763  0.6793 -1.3447 -3.4994
   91MOL0     H11996   5.255   7.562   4.305 -0.0401 -0.2656 -1.1289
   91MOL0     H11997   5.408   7.482   4.133 -0.6104 -0.9049 -0.8651
   91MOL0     H11998   7.174   6.869   4.358 -0.9268  0.2327 -1.6883
   91MOL0     H11999   7.405   6.829   4.380  0.7679  3.1805  2.5082
   91MOL0     H12000   7.795   6.842   4.372  1.5347 -0.3426  0.5250
   91MOL0     H12001   8.037   6.849   4.429  1.0887 -0.4409 -0.4780
   91MOL0     H12002   8.287   6.733   4.391  0.5893 -1.4333 -2.5615
   91MOL0     H12003   8.248   6.896   4.441 -0.7440 -1.3405  0.6152
   91MOL0     H12004   8.446   6.992   4.337 -2.2855  0.0466 -0.7556
   91MOL0     H12005   8.488   6.872   4.463  1.1305 -1.8376 -0.5270
   91MOL0     H12006   8.510   6.867   4.169 -3.1425  2.1398  1.3185
   91MOL0     H12007   8.466   6.715   4.241 -3.6988  1.0258  1.3378
   91MOL0     H12008   8.674   6.673   4.349 -2.4908  0.7348  0.7172
   91MOL0     H12009   8.714   6.752   4.203 -5.3874 -4.5899 -3.1288
   91MOL0     H12010   8.819   7.018   4.539 -1.1604 -1.0057  0.7068
   91MOL0     H12011   8.130   6.889   4.021 -0.6492  0.0437  0.8954
   91MOL0     H12012   7.890   6.908   3.964 -1.7348 -1.9395  0.7320
   92MOL0     O12013  11.114   7.184   5.620  0.6657  0.0195  0.0018
   92MOL0     C12014  11.226   7.136   5.611 -0.1617 -0.2744  0.7454
   92MOL0     O12015  11.254   7.015   5.550  0.5185 -0.0213  0.4716
   92MOL0     C12016  11.159   6.933   5.496 -0.4281  0.8526  0.0826
   92MOL0     C12017  11.138   6.814   5.573  0.7117 -0.1228 -0.7975
   92MOL0     C12018  11.038   6.719   5.527 -0.4815  0.0194 -0.7541
   92MOL0     C12019  10.974   6.747   5.406 -0.8627 -0.6097 -0.2247
   92MOL0     O12020  10.889   6.654   5.347 -1.1224 -0.8128 -0.1648
   92MOL0     C12021  10.759   6.661   5.402 -0.1741  0.0325 -0.4873
   92MOL0     C12022  10.668   6.569   5.324  0.4132 -1.0638 -0.1328
   92MOL0     C12023  10.538   6.643   5.296  0.6787  0.4388  0.2291
   92MOL0     C12024  10.440   6.546   5.231 -0.4958  0.7445  0.4346
   92MOL0     C12025  10.294   6.593   5.234 -0.5413 -0.5858  0.4892
   92MOL0     C12026  10.195   6.519   5.139 -0.5435 -0.0184 -1.1424
   92MOL0     C12027  10.056   6.566   5.170 -0.3811 -0.2843  0.3645
   92MOL0     C12028   9.957   6.497   5.066  0.5268 -0.8148 -0.8880
   92MOL0     N12029   9.814   6.546   5.094 -0.2065  0.1565  0.7246
   92MOL0     C12030   9.770   6.674   5.110 -0.4745  0.8705  0.1017
   92MOL0     C12031   9.633   6.660   5.089 -0.7400 -0.0781  0.2221
   92MOL0     C12032   9.542   6.782   5.089 -0.1232 -0.6204  0.4527
   92MOL0     C12033   9.395   6.732   5.053 -0.2042 -0.0085 -0.9656
   92MOL0     C12034   9.306   6.858   5.020  0.3366  0.5969  0.0314
   92MOL0     C12035   9.271   6.921   5.150 -0.6055 -0.3333 -1.2832
   92MOL0     O12036   9.147   6.999   5.156  0.0443  0.5513  0.4066
   92MOL0     C12037   9.016   6.947   5.148  0.1279  0.2854 -0.0908
   92MOL0     C12038   8.909   7.040   5.159  0.6944  0.0684  0.5714
   92MOL0     C12039   8.777   7.002   5.157  0.4931 -0.7221 -0.2848
   92MOL0     C12040   8.747   6.863   5.160 -0.3514 -0.2586 -0.5580
   92MOL0     C12041   8.612   6.818   5.168  0.4619  0.5226  0.0174
   92MOL0     O12042   8.515   6.901   5.128 -0.5848  0.2640  0.3216
   92MOL0     C12043   8.387   6.851   5.105  0.2212 -0.8127  1.2069
   92MOL0     C12044   8.323   6.905   4.992  0.4647 -0.3824  0.4544
   92MOL0     C12045   8.187   6.876   4.969 -0.3519  0.3309  0.4474
   92MOL0     C12046   8.117   6.785   5.056 -0.6189 -1.6772  0.4485
   92MOL0     O12047   7.982   6.759   5.041  0.0747 -0.5140 -0.0037
   92MOL0     C12048   7.921   6.742   4.907 -0.6029 -0.1325 -0.1502
   92MOL0     C12049   7.781   6.698   4.935  0.2974 -0.2143  0.6044
   92MOL0     C12050   7.797   6.561   5.006 -0.6674  1.0082  0.3951
   92MOL0     C12051   7.665   6.479   4.996 -1.1775 -0.2263 -0.7138
   92MOL0     C12052   7.663   6.383   4.877 -0.5457  0.3263  0.2652
   92MOL0     C12053   7.543   6.293   4.872  0.0836 -0.4152  1.0424
   92MOL0     C12054   7.514   6.241   4.725  0.8793  0.2360  0.1205
   92MOL0     C12055   7.387   6.157   4.731 -0.7838 -0.4646  0.0871
   92MOL0    Cl12056   7.449   5.986   4.774  0.4730  0.0093 -0.5793
   92MOL0     C12057   8.178   6.733   5.167  0.1691  0.3180  0.6478
   92MOL0     C12058   8.309   6.762   5.186  1.3163  0.2553 -0.3628
   92MOL0     O12059   8.593   6.705   5.207 -0.3262 -0.0103  0.3961
   92MOL0     C12060   8.851   6.777   5.164  0.7184 -0.7427 -0.3500
   92MOL0     C12061   8.989   6.816   5.138  0.6421 -0.4109 -0.6801
   92MOL0     N12062   9.604   6.530   5.043  0.5132 -0.0540 -0.1126
   92MOL0     N12063   9.711   6.470   5.033  0.0526  0.8352 -0.3375
   92MOL0     C12064  11.006   6.858   5.324 -0.0890 -0.4855 -0.4801
   92MOL0     C12065  11.103   6.953   5.370 -0.8081  0.8103  0.6368
   92MOL0     C12066  11.337   7.209   5.668  0.9694  0.0394  0.0816
   92MOL0     C12067  11.331   7.350   5.699  0.3528 -0.5215 -0.0176
   92MOL0     C12068  11.440   7.415   5.753 -0.1125  0.1783 -0.0987
   92MOL0     C12069  11.559   7.341   5.781  0.1170 -0.0465 -0.1602
   92MOL0     O12070  11.678   7.397   5.833  0.0139 -0.2318 -1.1052
   92MOL0     C12071  11.677   7.531   5.876  0.5616  0.3628 -0.4454
   92MOL0     C12072  11.695   7.639   5.763 -0.9367 -0.1812  0.2151
   92MOL0     C12073  11.839   7.664   5.700  0.5012 -0.5213 -0.2238
   92MOL0     C12074  11.840   7.751   5.580 -0.0171 -0.0802  0.2011
   92MOL0     C12075  11.974   7.739   5.513 -0.4482 -0.0344  0.0750
   92MOL0     C12076  12.086   7.725   5.468  0.0830  0.0311 -0.4723
   92MOL0     C12077  11.565   7.206   5.753 -0.5160 -0.5372 -0.6143
   92MOL0     C12078  11.453   7.140   5.697 -0.5136 -0.5546  0.9318
   92MOL0     H12079  11.209   6.786   5.650  0.1491 -2.4938 -1.0706
   92MOL0     H12080  11.021   6.625   5.578 -1.0677 -0.3037 -1.5307
   92MOL0     H12081  10.726   6.764   5.418 -0.8048 -0.5233  2.3830
   92MOL0     H12082  10.766   6.630   5.507  1.1646  0.1668 -0.5150
   92MOL0     H12083  10.649   6.474   5.374 -0.3627 -1.3675 -0.9597
   92MOL0     H12084  10.718   6.541   5.230  1.1531 -1.0353  0.2474
   92MOL0     H12085  10.545   6.740   5.246  0.1162  0.0089 -0.7165
   92MOL0     H12086  10.500   6.664   5.396  0.7548  0.7005  0.2045
   92MOL0     H12087  10.469   6.519   5.129  0.3532 -1.0458  1.1047
   92MOL0     H12088  10.448   6.446   5.276 -0.0351  0.3885 -0.4307
   92MOL0     H12089  10.287   6.701   5.216  0.2433 -0.3711  1.3977
   92MOL0     H12090  10.254   6.586   5.336 -1.0373  1.0641  0.4408
   92MOL0     H12091  10.210   6.413   5.162  0.9384  0.3678 -0.1712
   92MOL0     H12092  10.230   6.539   5.038  3.1394 -0.6650 -0.1466
   92MOL0     H12093  10.017   6.537   5.268 -3.2138 -2.7081 -1.2910
   92MOL0     H12094  10.052   6.675   5.165 -1.5457 -0.2853  1.0103
   92MOL0     H12095   9.972   6.389   5.064 -0.9497 -1.0532 -3.3903
   92MOL0     H12096   9.973   6.529   4.963 -1.7380  0.9367 -0.7789
   92MOL0     H12097   9.824   6.765   5.135 -0.7300  1.7619 -2.3374
   92MOL0     H12098   9.575   6.836   5.000  0.5801 -2.1897 -0.2910
   92MOL0     H12099   9.560   6.849   5.174  0.6278  3.6512 -2.7612
   92MOL0     H12100   9.339   6.673   5.126 -1.6295  1.1426 -1.0591
   92MOL0     H12101   9.406   6.668   4.965  4.0955 -0.6645 -0.1678
   92MOL0     H12102   9.365   6.916   4.949  1.0319 -1.7580 -1.4545
   92MOL0     H12103   9.215   6.828   4.968  1.9671 -1.6309 -1.7509
   92MOL0     H12104   9.353   6.972   5.202 -0.2387 -1.3452 -0.8546
   92MOL0     H12105   9.249   6.833   5.212  0.0701 -0.3840 -1.1057
   92MOL0     H12106   8.945   7.141   5.173 -0.9722  0.6774  0.6995
   92MOL0     H12107   8.694   7.071   5.159  2.4960  1.8875 -1.0328
   92MOL0     H12108   8.368   6.983   4.932  1.5128 -0.2436  1.3961
   92MOL0     H12109   8.138   6.913   4.879 -1.9559 -2.8055 -0.1139
   92MOL0     H12110   7.971   6.668   4.844  1.9943  2.2334 -1.0352
   92MOL0     H12111   7.905   6.839   4.859 -2.2746  0.2905  1.1380
   92MOL0     H12112   7.729   6.690   4.839  1.3481  2.3456 -0.2645
   92MOL0     H12113   7.721   6.772   4.990  1.1366  1.0521 -0.1367
   92MOL0     H12114   7.824   6.568   5.112 -1.2466  0.8374  0.5567
   92MOL0     H12115   7.873   6.503   4.953 -0.7391  2.3476 -1.2476
   92MOL0     H12116   7.651   6.427   5.091  3.4849 -1.6359 -0.5900
   92MOL0     H12117   7.575   6.540   4.984 -1.2414 -0.4009 -1.1385
   92MOL0     H12118   7.752   6.321   4.886 -0.0710  0.7670 -1.1369
   92MOL0     H12119   7.669   6.441   4.785  0.8050  1.2349  0.8925
   92MOL0     H12120   7.452   6.346   4.900  0.8734  0.8589  1.2708
   92MOL0     H12121   7.558   6.212   4.944  2.2676 -2.3179 -1.3500
   92MOL0     H12122   7.494   6.320   4.652  0.6348  0.9519  0.9514
   92MOL0     H12123   7.600   6.191   4.679  1.1539 -2.2167  3.0298
   92MOL0     H12124   7.346   6.148   4.630 -0.2041 -1.2628 -0.0924
   92MOL0     H12125   7.311   6.200   4.796  0.0053 -0.4897  1.0642
   92MOL0     H12126   8.141   6.659   5.237  1.0965  0.5072  1.3681
   92MOL0     H12127   8.357   6.710   5.268 -0.8203 -2.9254 -0.9208
   92MOL0     H12128   8.828   6.672   5.182 -0.8649  0.0782  3.3611
   92MOL0     H12129   9.076   6.752   5.129 -0.0402 -1.2752 -1.3375
   92MOL0     H12130  10.974   6.873   5.221  0.5561  1.8478 -0.3947
   92MOL0     H12131  11.127   7.031   5.299 -0.5705  1.1414  1.0783
   92MOL0     H12132  11.248   7.409   5.662 -1.8991 -1.1131  3.6331
   92MOL0     H12133  11.436   7.523   5.756  0.6836  0.1895  1.3226
   92MOL0     H12134  11.753   7.545   5.953 -2.6827  1.4598  2.8420
   92MOL0     H12135  11.585   7.560   5.928  0.6417 -1.1789  0.6298
   92MOL0     H12136  11.631   7.621   5.676 -1.1361  0.9871  0.1049
   92MOL0     H12137  11.661   7.736   5.800  0.0317  0.9278 -1.6483
   92MOL0     H12138  11.881   7.567   5.670 -0.2001 -0.8675 -0.0966
   92MOL0     H12139  11.909   7.697   5.777  0.1454 -0.3304  0.0168
   92MOL0     H12140  11.773   7.712   5.503  2.4451 -3.0824 -0.5741
   92MOL0     H12141  11.820   7.855   5.610  2.6875  0.6476 -0.2340
   92MOL0     H12142  12.181   7.718   5.417  1.5216  1.5770  1.7920
   92MOL0     H12143  11.654   7.149   5.776 -0.6684 -1.5926 -2.4544
   92MOL0     H12144  11.450   7.033   5.680 -1.7584 -0.2622 -1.0050
   93MOL0     O12145   9.817   5.527  10.261  0.2797  0.4745  0.5140
   93MOL0     C12146   9.838   5.592  10.361 -0.4528 -0.1713  0.6248
   93MOL0     O12147   9.760   5.679  10.434 -0.0004 -0.1712  0.4512
   93MOL0     C12148   9.627   5.682  10.404  0.0115 -0.2473 -0.0462
   93MOL0     C12149   9.555   5.693  10.521  0.1513  0.5919  0.2964
   93MOL0     C12150   9.415   5.683  10.522 -0.3035  0.5527 -1.2272
   93MOL0     C12151   9.352   5.672  10.395  0.2229 -0.1900 -0.1011
   93MOL0     O12152   9.219   5.645  10.376 -0.1934 -0.3121 -0.3532
   93MOL0     C12153   9.125   5.719  10.454  0.7847  0.0045 -0.6496
   93MOL0     C12154   8.972   5.698  10.395  0.3666  0.3414 -0.6530
   93MOL0     C12155   8.866   5.781  10.462  0.6043 -0.3607 -1.0580
   93MOL0     C12156   8.875   5.770  10.617 -0.3981 -0.9198 -0.3056
   93MOL0     C12157   8.742   5.803  10.695 -0.5302 -0.2788  0.4984
   93MOL0     C12158   8.723   5.944  10.713  0.2612 -0.5451 -0.2295
   93MOL0     C12159   8.584   5.969  10.783  0.2280 -0.0979  0.3428
   93MOL0     C12160   8.550   6.113  10.774  0.2035  0.5228 -1.1676
   93MOL0     N12161   8.625   6.184  10.885 -0.2272  0.3010 -0.1151
   93MOL0     C12162   8.750   6.239  10.872  0.5200  0.1553 -0.1416
   93MOL0     C12163   8.772   6.319  10.980  0.4756 -0.5681 -0.5657
   93MOL0     C12164   8.898   6.408  11.002  0.3805 -0.5263  0.0303
   93MOL0     C12165   9.000   6.331  11.088  0.3706 -0.4507  0.4159
   93MOL0     C12166   9.031   6.185  11.034 -0.1960 -0.1192  0.0792
   93MOL0     C12167   9.180   6.142  11.076  1.6299  0.3961 -0.2050
   93MOL0     O12168   9.254   6.211  10.982  0.0186 -0.2929 -0.2650
   93MOL0     C12169   9.392   6.213  10.998 -0.8818 -0.6450 -0.1639
   93MOL0     C12170   9.457   6.336  10.985 -0.3027 -0.5655 -0.4422
   93MOL0     C12171   9.596   6.350  10.998  0.7651 -0.5161  0.3604
   93MOL0     C12172   9.665   6.236  11.035 -0.9595 -0.2412  0.0370
   93MOL0     C12173   9.814   6.245  11.055  0.1055  0.7973 -0.5466
   93MOL0     O12174   9.873   6.370  11.031  0.3220  0.3495  0.3151
   93MOL0     C12175   9.998   6.379  11.089 -0.4695 -0.4853 -0.8300
   93MOL0     C12176  10.105   6.341  11.004  0.4275  0.4822  0.1443
   93MOL0     C12177  10.230   6.342  11.058  0.5402 -0.1335 -0.2674
   93MOL0     C12178  10.256   6.398  11.185  0.6206 -0.6733 -0.0751
   93MOL0     O12179  10.380   6.412  11.241  0.4090  0.1741 -0.1399
   93MOL0     C12180  10.494   6.369  11.162 -0.2089  1.4028 -0.0488
   93MOL0     C12181  10.608   6.371  11.249 -0.0334  0.0590 -0.3148
   93MOL0     C12182  10.732   6.319  11.176  0.6545 -0.1505  0.1716
   93MOL0     C12183  10.838   6.281  11.279  0.4475  0.0131  0.0036
   93MOL0     C12184  10.943   6.205  11.203 -0.0352 -0.6780  0.4541
   93MOL0     C12185  11.047   6.290  11.129 -0.2126  0.4339  0.1672
   93MOL0     C12186  11.174   6.216  11.144  0.1204  0.1957 -1.3745
   93MOL0     C12187  11.282   6.291  11.060 -0.3023  0.7039  0.4864
   93MOL0    Cl12188  11.444   6.210  11.064  0.0735 -0.2362 -0.0815
   93MOL0     C12189  10.157   6.456  11.257 -0.5823  0.0617  0.0234
   93MOL0     C12190  10.028   6.448  11.209  0.6013 -0.9265  0.3791
   93MOL0     O12191   9.866   6.154  11.114  0.0171  0.5066 -0.1675
   93MOL0     C12192   9.605   6.110  11.055 -0.6251  0.1169 -0.8257
   93MOL0     C12193   9.465   6.103  11.034 -0.9418 -0.1656  0.0869
   93MOL0     N12194   8.662   6.305  11.061  0.0556 -0.7739 -0.1990
   93MOL0     N12195   8.576   6.225  11.006  0.2441 -0.0165  0.2958
   93MOL0     C12196   9.421   5.675  10.278 -0.0954  0.4447 -0.2715
   93MOL0     C12197   9.560   5.679  10.281  0.6097  0.2867 -0.0582
   93MOL0     C12198   9.985   5.613  10.387  0.3598  0.5246 -0.3369
   93MOL0     C12199  10.041   5.722  10.450  0.6185 -0.8631 -0.9022
   93MOL0     C12200  10.182   5.735  10.456  0.2107 -1.3355 -0.1525
   93MOL0     C12201  10.271   5.637  10.397  0.0147  0.3855  0.1021
   93MOL0     O12202  10.409   5.638  10.390 -0.0531  0.6887 -0.2484
   93MOL0     C12203  10.473   5.746  10.457 -0.1370  0.0204 -0.1154
   93MOL0     C12204  10.606   5.754  10.393 -0.2009  0.3591 -0.3383
   93MOL0     C12205  10.681   5.871  10.446  0.1580 -0.0704  0.1519
   93MOL0     C12206  10.792   5.907  10.350 -0.3611  0.3123  0.4934
   93MOL0     C12207  10.875   6.025  10.390 -0.2500  0.8724 -0.1742
   93MOL0     C12208  10.923   6.136  10.418 -0.1326  0.8910 -0.4619
   93MOL0     C12209  10.214   5.527  10.341  0.1796 -0.3833 -0.4174
   93MOL0     C12210  10.071   5.513  10.337  0.1520 -0.4082  0.2238
   93MOL0     H12211   9.607   5.693  10.616  0.7397 -2.0108  0.0648
   93MOL0     H12212   9.358   5.679  10.614 -0.2252 -4.3072 -1.0908
   93MOL0     H12213   9.141   5.827  10.449  2.1074 -0.1053  0.6727
   93MOL0     H12214   9.123   5.676  10.555  1.6467 -2.1253 -1.4726
   93MOL0     H12215   8.960   5.590  10.409 -0.3875  0.5675  0.5910
   93MOL0     H12216   8.959   5.719  10.288  1.6259  2.4518 -0.4316
   93MOL0     H12217   8.774   5.732  10.428  1.3516 -1.4040 -1.6402
   93MOL0     H12218   8.865   5.884  10.425 -1.5691  0.5000  1.1905
   93MOL0     H12219   8.900   5.670  10.651 -1.9902 -1.3951 -0.4483
   93MOL0     H12220   8.952   5.840  10.649  0.8900 -1.4456 -2.0818
   93MOL0     H12221   8.750   5.759  10.794  2.8716 -1.7531 -0.2904
   93MOL0     H12222   8.662   5.748  10.644  1.6132 -2.9776 -0.2192
   93MOL0     H12223   8.720   5.988  10.613 -2.4585 -0.8776 -0.3810
   93MOL0     H12224   8.805   5.993  10.766 -1.6363  1.8299  0.6843
   93MOL0     H12225   8.517   5.915  10.715  0.4937 -0.7632  0.5939
   93MOL0     H12226   8.569   5.935  10.886 -2.2277 -2.8733 -0.7976
   93MOL0     H12227   8.445   6.138  10.789  0.6755  1.7798  0.2133
   93MOL0     H12228   8.570   6.160  10.677 -2.6463  3.0309 -0.6711
   93MOL0     H12229   8.816   6.231  10.787 -0.1617 -1.1388 -0.5661
   93MOL0     H12230   8.886   6.506  11.050  2.9050  1.4592 -2.9314
   93MOL0     H12231   8.942   6.433  10.905 -0.9743 -1.0818 -0.7578
   93MOL0     H12232   8.965   6.324  11.191  1.8036 -2.3419  0.8334
   93MOL0     H12233   9.093   6.386  11.107  0.0169 -0.3285  1.9051
   93MOL0     H12234   8.964   6.117  11.087  0.9674 -1.0668  0.3833
   93MOL0     H12235   9.026   6.184  10.925 -0.9988  0.1821  0.1074
   93MOL0     H12236   9.205   6.036  11.063  0.6857  0.3195 -1.6410
   93MOL0     H12237   9.212   6.169  11.177 -1.3495  0.9710  0.6899
   93MOL0     H12238   9.403   6.429  10.966 -1.2298  0.2528  4.8319
   93MOL0     H12239   9.654   6.440  10.981 -2.4469  1.5258 -0.6435
   93MOL0     H12240  10.082   6.314  10.902 -1.4247 -0.2812  0.7354
   93MOL0     H12241  10.310   6.305  10.996 -2.1245 -3.3275 -2.1509
   93MOL0     H12242  10.505   6.434  11.075 -0.0784  0.9613 -0.3633
   93MOL0     H12243  10.470   6.267  11.130 -2.5944  1.4086  1.4254
   93MOL0     H12244  10.577   6.309  11.334  2.8585  1.9026  2.3424
   93MOL0     H12245  10.621   6.474  11.284 -0.7879  0.6415 -1.6894
   93MOL0     H12246  10.765   6.404  11.115 -2.7038 -0.3451 -2.2373
   93MOL0     H12247  10.710   6.228  11.119 -0.2561 -1.0281  1.8416
   93MOL0     H12248  10.881   6.369  11.328  0.1943  0.5277 -0.6773
   93MOL0     H12249  10.795   6.219  11.358  1.2473 -0.6009 -0.0334
   93MOL0     H12250  10.899   6.128  11.140 -2.2557 -1.0000  2.2579
   93MOL0     H12251  11.004   6.143  11.269  1.7003 -0.1327 -0.5694
   93MOL0     H12252  11.055   6.384  11.183  1.6267  0.9366 -0.8867
   93MOL0     H12253  11.016   6.306  11.025  1.7938 -1.2157 -0.7686
   93MOL0     H12254  11.208   6.202  11.247  0.0420  0.2213 -1.3445
   93MOL0     H12255  11.161   6.113  11.110 -0.6548  0.3559 -1.5749
   93MOL0     H12256  11.286   6.386  11.113 -0.2838  1.8955 -1.5514
   93MOL0     H12257  11.244   6.316  10.961 -1.5422 -1.3346  0.3971
   93MOL0     H12258  10.187   6.520  11.340  1.1418 -0.4126 -0.1832
   93MOL0     H12259   9.941   6.488  11.260  1.5994  3.4705 -0.8833
   93MOL0     H12260   9.660   6.019  11.075  0.8758  1.1277 -0.1563
   93MOL0     H12261   9.424   6.003  11.038  2.4343 -1.6871  0.2715
   93MOL0     H12262   9.373   5.663  10.181 -0.6449  0.5536 -0.0171
   93MOL0     H12263   9.612   5.658  10.188 -0.1827 -1.6200 -0.1060
   93MOL0     H12264   9.977   5.792  10.502  1.4146 -0.8872  0.1479
   93MOL0     H12265  10.215   5.831  10.494  1.6436 -1.3697 -1.2198
   93MOL0     H12266  10.488   5.730  10.564 -2.4100 -0.2560  0.2033
   93MOL0     H12267  10.413   5.836  10.439  2.5666  2.1465  0.7691
   93MOL0     H12268  10.663   5.664  10.415 -0.8096  0.4133  1.6590
   93MOL0     H12269  10.588   5.764  10.285  0.5402 -2.4360 -0.7934
   93MOL0     H12270  10.726   5.857  10.544  2.3450  0.0561 -0.7664
   93MOL0     H12271  10.607   5.951  10.458 -1.0974 -1.1751  0.0027
   93MOL0     H12272  10.861   5.824  10.337  0.2625  0.9343 -0.3296
   93MOL0     H12273  10.745   5.922  10.252  0.7434  0.1745 -0.0640
   93MOL0     H12274  10.977   6.226  10.443 -1.4071  1.5749 -0.0681
   93MOL0     H12275  10.275   5.452  10.293  0.8498 -0.5578  0.6751
   93MOL0     H12276  10.037   5.421  10.290  2.3270  0.1130 -2.6899
   94MOL0     O12277   9.572   4.217   5.022 -0.0992 -0.1649  0.3936
   94MOL0     C12278   9.614   4.275   4.922  0.5157  0.7150  0.3420
   94MOL0     O12279   9.541   4.342   4.825  0.4414  0.7571 -0.7538
   94MOL0     C12280   9.408   4.369   4.853  0.1821  0.5304 -0.9253
   94MOL0     C12281   9.311   4.288   4.915 -0.1434  1.0586 -0.8355
   94MOL0     C12282   9.176   4.325   4.941 -0.3378 -0.3369  0.0511
   94MOL0     C12283   9.142   4.453   4.893  1.4404 -0.8903  0.3458
   94MOL0     O12284   9.028   4.511   4.919  0.5552 -0.0737  0.4843
   94MOL0     C12285   8.937   4.456   5.015  0.4593 -0.7265 -0.2862
   94MOL0     C12286   8.807   4.536   5.041 -0.1646 -1.1352  0.0028
   94MOL0     C12287   8.702   4.461   5.129 -1.0484 -0.1147 -0.3207
   94MOL0     C12288   8.581   4.535   5.150  0.2511 -0.4863  0.0209
   94MOL0     C12289   8.501   4.447   5.250 -0.3199 -0.0507 -0.5425
   94MOL0     C12290   8.352   4.500   5.273  0.1510  0.1366 -0.3233
   94MOL0     C12291   8.268   4.408   5.348  0.4269 -0.0454 -0.3218
   94MOL0     C12292   8.137   4.474   5.387 -0.5439  0.8931  0.1407
   94MOL0     N12293   8.043   4.526   5.280  0.4983 -0.0290  0.4633
   94MOL0     C12294   8.046   4.652   5.236  0.3833 -0.3211 -0.2484
   94MOL0     C12295   7.922   4.673   5.167 -1.0093 -0.8704 -0.1337
   94MOL0     C12296   7.897   4.793   5.076 -0.2429  0.3617 -0.5523
   94MOL0     C12297   7.759   4.859   5.083  0.4126  0.8468 -0.1063
   94MOL0     C12298   7.637   4.763   5.047  0.3065 -0.4989  0.1513
   94MOL0     C12299   7.505   4.823   5.049  0.0928 -0.5006  0.3963
   94MOL0     O12300   7.446   4.786   5.178 -0.3644 -0.3364  0.1114
   94MOL0     C12301   7.317   4.825   5.219 -0.3298 -0.6907 -0.1411
   94MOL0     C12302   7.261   4.751   5.324  0.2459  0.1813 -0.4456
   94MOL0     C12303   7.138   4.784   5.377 -0.3293  0.1071 -0.3801
   94MOL0     C12304   7.059   4.890   5.323  0.4839 -0.3350 -0.5287
   94MOL0     C12305   6.925   4.915   5.383  0.5282  0.2907  0.6630
   94MOL0     O12306   6.888   4.811   5.469 -0.5078  1.0406 -0.5996
   94MOL0     C12307   6.780   4.839   5.554 -0.6497  0.5948  1.0479
   94MOL0     C12308   6.655   4.772   5.540  0.0208 -0.9742  0.6351
   94MOL0     C12309   6.560   4.795   5.643  0.0842  0.4670  0.2536
   94MOL0     C12310   6.579   4.890   5.751  0.3910  0.6901 -0.0944
   94MOL0     O12311   6.492   4.919   5.850  0.5383 -0.3213  0.6771
   94MOL0     C12312   6.352   4.879   5.824  0.1036  0.2066 -0.4828
   94MOL0     C12313   6.287   4.921   5.955  0.1852  0.3522  0.2232
   94MOL0     C12314   6.142   4.872   5.948  0.5985 -0.4795 -0.2157
   94MOL0     C12315   6.053   4.903   6.068 -0.6305 -0.0415 -0.4979
   94MOL0     C12316   5.902   4.910   6.026 -0.5699 -0.5409 -0.1648
   94MOL0     C12317   5.849   4.781   5.968  0.0467  0.2243 -0.5468
   94MOL0     C12318   5.711   4.786   5.894  0.0543 -0.0285  0.4859
   94MOL0     C12319   5.587   4.802   5.972  0.4064  1.5324  0.9439
   94MOL0    Cl12320   5.564   4.977   6.014  0.3514  0.1702 -0.0147
   94MOL0     C12321   6.711   4.941   5.766  0.3195 -0.0820 -0.3584
   94MOL0     C12322   6.804   4.912   5.675  0.6029  0.3259  0.1912
   94MOL0     O12323   6.865   5.017   5.353  0.9184 -0.5390 -0.0249
   94MOL0     C12324   7.113   4.963   5.220 -0.3507 -0.4075 -0.5577
   94MOL0     C12325   7.240   4.935   5.170  0.6719  0.8303 -0.1601
   94MOL0     N12326   7.854   4.555   5.180  0.5946 -0.0596 -0.2234
   94MOL0     N12327   7.927   4.473   5.244  0.7691 -0.2519  0.6526
   94MOL0     C12328   9.230   4.528   4.814  0.2081 -0.1865 -0.8990
   94MOL0     C12329   9.357   4.485   4.794 -0.9642 -1.1527 -0.3813
   94MOL0     C12330   9.766   4.262   4.903  0.0574 -0.5897 -0.9533
   94MOL0     C12331   9.827   4.302   4.781  0.7522  0.9802 -0.0322
   94MOL0     C12332   9.967   4.296   4.768  0.1905  1.0405 -0.5724
   94MOL0     C12333  10.045   4.240   4.866  0.3617  0.2934 -0.5185
   94MOL0     O12334  10.173   4.219   4.831  0.9823 -0.3752  0.2450
   94MOL0     C12335  10.256   4.148   4.922 -0.3157  0.0889  0.1998
   94MOL0     C12336  10.399   4.145   4.872  0.4615 -0.1105 -0.0952
   94MOL0     C12337  10.481   4.063   4.972 -0.0600 -0.3161  0.6840
   94MOL0     C12338  10.626   4.100   4.984  0.4957  0.4196  0.3058
   94MOL0     C12339  10.683   4.136   4.859 -0.0293 -0.3009 -0.2116
   94MOL0     C12340  10.739   4.145   4.752 -0.5593 -0.4733 -1.0216
   94MOL0     C12341   9.991   4.206   4.992  0.1884 -0.1821  0.1592
   94MOL0     C12342   9.851   4.214   5.007  0.0148 -0.1597  0.3486
   94MOL0     H12343   9.332   4.185   4.943 -0.8417  0.7829 -1.3118
   94MOL0     H12344   9.108   4.252   4.983  0.7090 -1.0540  0.5474
   94MOL0     H12345   8.992   4.452   5.110 -2.3510  0.0407  1.4766
   94MOL0     H12346   8.903   4.355   4.991 -1.2900 -0.7037  1.8089
   94MOL0     H12347   8.765   4.556   4.942 -1.5090  1.1142  0.9310
   94MOL0     H12348   8.822   4.636   5.083 -3.6451 -0.7242  0.6154
   94MOL0     H12349   8.746   4.428   5.223 -1.2824  0.1853 -0.1081
   94MOL0     H12350   8.679   4.367   5.078 -0.5212 -1.8456  2.4221
   94MOL0     H12351   8.605   4.626   5.206  2.4340 -1.8924  1.5333
   94MOL0     H12352   8.539   4.547   5.050  0.8271  0.8942 -0.0827
   94MOL0     H12353   8.553   4.428   5.344 -0.5941  1.6800 -0.0061
   94MOL0     H12354   8.489   4.352   5.196  1.5306  0.7489 -2.5163
   94MOL0     H12355   8.314   4.519   5.173 -3.0097 -2.6150  0.1819
   94MOL0     H12356   8.366   4.589   5.335  0.4395  1.3087 -2.0058
   94MOL0     H12357   8.249   4.319   5.288 -1.2102 -1.1437  1.6852
   94MOL0     H12358   8.327   4.392   5.438  1.0621  0.9224 -0.5476
   94MOL0     H12359   8.157   4.549   5.464 -3.7014  0.6144  1.4108
   94MOL0     H12360   8.075   4.408   5.449  0.4830  1.4067  1.7652
   94MOL0     H12361   8.128   4.723   5.243  0.2575 -0.1503 -0.4840
   94MOL0     H12362   7.927   4.771   4.974 -2.4439 -1.3409 -0.8975
   94MOL0     H12363   7.972   4.863   5.114 -0.1424 -0.4476  0.8452
   94MOL0     H12364   7.754   4.943   5.014  1.4926  0.4734 -0.6722
   94MOL0     H12365   7.745   4.898   5.184 -2.7403 -1.7131  0.6094
   94MOL0     H12366   7.651   4.721   4.947  0.2761  0.7103 -0.3732
   94MOL0     H12367   7.644   4.685   5.124  3.1026 -0.8867 -0.3858
   94MOL0     H12368   7.440   4.782   4.970  1.0784 -2.7956  0.6930
   94MOL0     H12369   7.517   4.929   5.024 -0.7512 -0.1683  1.3383
   94MOL0     H12370   7.325   4.674   5.365 -2.7952 -2.3732 -0.1101
   94MOL0     H12371   7.103   4.726   5.462 -0.2867  1.6410  0.7140
   94MOL0     H12372   6.638   4.697   5.463 -1.8772  0.7590 -0.7615
   94MOL0     H12373   6.468   4.739   5.628 -0.1976  0.8861  0.4310
   94MOL0     H12374   6.349   4.772   5.798  1.7829  0.4779 -1.9818
   94MOL0     H12375   6.310   4.934   5.740 -0.3655 -0.4762 -0.7068
   94MOL0     H12376   6.279   5.030   5.958 -1.4969  0.3956 -2.3667
   94MOL0     H12377   6.338   4.886   6.045  2.4560  0.5223 -0.9432
   94MOL0     H12378   6.139   4.765   5.925  2.7386 -0.2336 -2.0295
   94MOL0     H12379   6.098   4.916   5.858  0.6391 -0.5780 -0.2846
   94MOL0     H12380   6.065   4.841   6.157 -1.8437 -2.5154 -1.9343
   94MOL0     H12381   6.078   5.007   6.088  1.8664 -0.4494 -1.1012
   94MOL0     H12382   5.900   4.987   5.950 -3.9075 -0.4986 -0.1556
   94MOL0     H12383   5.840   4.950   6.106  0.4079 -0.4578  0.5838
   94MOL0     H12384   5.838   4.703   6.044 -0.2916 -1.5679 -2.3476
   94MOL0     H12385   5.922   4.749   5.893  2.0653 -1.5052  1.9599
   94MOL0     H12386   5.720   4.869   5.823  2.2238 -1.4424 -1.0470
   94MOL0     H12387   5.706   4.692   5.838  1.0723  0.7980 -1.0632
   94MOL0     H12388   5.585   4.734   6.058 -0.8026 -2.8191 -2.1535
   94MOL0     H12389   5.504   4.767   5.910  1.0765 -1.0234  1.3849
   94MOL0     H12390   6.718   5.011   5.849  0.4640 -1.6786  1.0281
   94MOL0     H12391   6.903   4.953   5.694  0.6347  0.6004 -0.5152
   94MOL0     H12392   7.057   5.048   5.182 -2.2794 -1.8616 -1.1150
   94MOL0     H12393   7.278   5.006   5.097 -0.9744  1.0877 -0.8230
   94MOL0     H12394   9.198   4.622   4.770 -0.2679  0.2063  0.2512
   94MOL0     H12395   9.432   4.542   4.741 -0.1321 -0.9674  0.9477
   94MOL0     H12396   9.753   4.328   4.706 -0.4210  0.3854  0.8884
   94MOL0     H12397  10.008   4.315   4.669  0.2444 -0.7192 -0.9179
   94MOL0     H12398  10.212   4.048   4.914 -1.2139  0.4162  0.8406
   94MOL0     H12399  10.249   4.187   5.024  2.0846 -2.1317  1.3166
   94MOL0     H12400  10.399   4.102   4.771  1.4240  2.6331 -1.3839
   94MOL0     H12401  10.445   4.243   4.852 -0.8599  0.7958  1.0678
   94MOL0     H12402  10.467   3.956   4.955 -1.2255  0.1115 -1.4170
   94MOL0     H12403  10.437   4.079   5.072 -0.2185 -1.0313  0.7316
   94MOL0     H12404  10.638   4.178   5.059  0.2187  2.6418 -1.8495
   94MOL0     H12405  10.676   4.007   5.014 -0.7610 -0.3130  0.2042
   94MOL0     H12406  10.785   4.160   4.656 -1.2730 -0.2377 -1.3281
   94MOL0     H12407  10.046   4.158   5.072  1.3947  0.8113 -0.0539
   94MOL0     H12408   9.803   4.174   5.095  1.5204  1.9282  2.2580
   95MOL0     O12409  10.177   1.388   2.359  0.3491  0.1350  0.3015
   95MOL0     C12410  10.167   1.270   2.400  0.2590  0.1818  0.3536
   95MOL0     O12411  10.272   1.188   2.443  0.6860  0.4211 -0.4063
   95MOL0     C12412  10.404   1.210   2.434 -0.5657 -0.6857  0.1896
   95MOL0     C12413  10.487   1.112   2.482 -0.4727  0.3103  0.3811
   95MOL0     C12414  10.621   1.118   2.465  0.0552 -0.3163 -0.0000
   95MOL0     C12415  10.680   1.221   2.398  0.0552 -0.2008  1.8157
   95MOL0     O12416  10.817   1.216   2.382 -0.0873 -0.2095 -0.1269
   95MOL0     C12417  10.888   1.318   2.292 -0.0624 -0.8115  0.1035
   95MOL0     C12418  11.033   1.287   2.267 -0.5938 -0.0250  0.9721
   95MOL0     C12419  11.123   1.295   2.390  0.3952 -0.2844  0.3987
   95MOL0     C12420  11.269   1.304   2.349  0.1392 -0.1228  0.3134
   95MOL0     C12421  11.368   1.304   2.473 -0.1348  0.0812  1.0004
   95MOL0     C12422  11.393   1.158   2.516  0.7001 -0.2510 -0.2488
   95MOL0     C12423  11.471   1.148   2.650 -0.1976  0.2108  0.0331
   95MOL0     C12424  11.442   1.001   2.704 -0.1528 -0.0339 -0.6370
   95MOL0     N12425  11.314   0.951   2.759 -0.2771  0.4725 -0.1296
   95MOL0     C12426  11.230   0.877   2.681 -0.1795  0.9228 -0.0605
   95MOL0     C12427  11.112   0.862   2.743  0.1747 -0.0196 -0.2217
   95MOL0     C12428  10.983   0.822   2.683  1.0160 -0.2621 -0.1359
   95MOL0     C12429  10.983   0.672   2.665  0.4069  0.2440 -0.2933
   95MOL0     C12430  10.957   0.614   2.805  1.3723 -0.8216  0.6714
   95MOL0     C12431  10.803   0.615   2.846 -0.3416  0.0887  0.0357
   95MOL0     O12432  10.728   0.504   2.790 -0.2132 -0.1429 -0.0898
   95MOL0     C12433  10.597   0.482   2.826 -0.4420 -0.0891  0.2725
   95MOL0     C12434  10.554   0.347   2.807 -0.3995  0.4775 -0.2456
   95MOL0     C12435  10.431   0.316   2.865 -0.7656  0.3023  0.5276
   95MOL0     C12436  10.347   0.411   2.928  0.8955  0.7434 -0.5153
   95MOL0     C12437  10.220   0.366   2.992 -0.5281 -0.5485  0.1951
   95MOL0     O12438  10.158   0.268   2.921 -0.9536  0.2054  0.3758
   95MOL0     C12439  10.028   0.253   2.952 -0.9931  0.6883  0.4897
   95MOL0     C12440   9.988   0.173   3.058 -0.0685  0.0574 -0.3192
   95MOL0     C12441   9.856   0.172   3.093  0.0093  0.5190  0.1045
   95MOL0     C12442   9.764   0.242   3.010  0.1606 -0.1060  0.8024
   95MOL0     O12443   9.624   0.238   3.025 -0.0003  0.2173  0.0517
   95MOL0     C12444   9.558   0.207   3.146 -0.2292  0.7036 -0.7317
   95MOL0     C12445   9.425   0.139   3.117  1.1914  0.0628 -0.4152
   95MOL0     C12446   9.335   0.234   3.045 -0.1997 -0.7336  1.1841
   95MOL0     C12447   9.188   0.189   3.060  0.1297  0.5546  0.0977
   95MOL0     C12448   9.088   0.275   2.979  0.7043  1.0249 -0.3722
   95MOL0     C12449   8.946   0.220   3.008  0.3448 -0.3012 -0.2667
   95MOL0     C12450   8.852   0.313   2.930 -0.2387  0.4388 -0.0108
   95MOL0     C12451   8.805   0.440   3.012 -0.3155 -0.4797  0.0975
   95MOL0    Cl12452   8.726   0.383   3.162  0.2321 -0.2694  0.0139
   95MOL0     C12453   9.808   0.323   2.905 -0.6585  0.1163  0.1077
   95MOL0     C12454   9.941   0.331   2.877  0.2229  0.4581  0.7425
   95MOL0     O12455  10.179   0.436   3.083  0.1544  0.1908 -0.6596
   95MOL0     C12456  10.397   0.545   2.949  0.0079  0.3066  0.5486
   95MOL0     C12457  10.518   0.574   2.890 -0.1770  0.1314  0.0039
   95MOL0     N12458  11.134   0.925   2.872 -0.0364  0.0364  0.3405
   95MOL0     N12459  11.254   0.971   2.880 -0.9195 -0.5237 -0.4421
   95MOL0     C12460  10.603   1.333   2.356  0.5692 -0.1571 -0.4486
   95MOL0     C12461  10.463   1.330   2.386 -0.0325 -0.5783  0.1635
   95MOL0     C12462  10.027   1.216   2.414 -0.1631  1.0556  0.2175
   95MOL0     C12463   9.923   1.273   2.345  0.4241  0.3441  0.0445
   95MOL0     C12464   9.795   1.226   2.356 -0.3141 -0.5293  0.3003
   95MOL0     C12465   9.761   1.126   2.448  0.4548  0.5000  0.1685
   95MOL0     O12466   9.631   1.089   2.471  0.1726  0.6567 -0.2935
   95MOL0     C12467   9.629   0.946   2.486  0.7840 -0.4769 -0.5896
   95MOL0     C12468   9.481   0.909   2.472  0.4772 -0.1684  0.2369
   95MOL0     C12469   9.424   0.908   2.324  0.4834 -0.3549  1.0959
   95MOL0     C12470   9.287   0.848   2.295  0.5129 -0.7923 -0.7636
   95MOL0     C12471   9.186   0.890   2.392  0.3106 -0.6281  0.0143
   95MOL0     C12472   9.101   0.935   2.466 -0.3538 -0.3499  0.1288
   95MOL0     C12473   9.871   1.063   2.521 -0.3310 -0.2480  0.3274
   95MOL0     C12474   9.999   1.112   2.499  0.2787  0.3349  0.3904
   95MOL0     H12475  10.440   1.021   2.517  2.8521 -1.8761 -0.3960
   95MOL0     H12476  10.676   1.036   2.510 -1.6932 -1.7232 -0.3001
   95MOL0     H12477  10.891   1.418   2.335  0.0774 -0.8980  0.2986
   95MOL0     H12478  10.834   1.320   2.197  0.6901 -1.8248 -0.3714
   95MOL0     H12479  11.070   1.358   2.192  0.3102  0.3537  1.7481
   95MOL0     H12480  11.041   1.192   2.213  4.9445  0.4541  0.3520
   95MOL0     H12481  11.106   1.214   2.461 -2.3988  0.7629  1.0640
   95MOL0     H12482  11.104   1.388   2.445  0.5894  0.4669 -0.7761
   95MOL0     H12483  11.301   1.221   2.286 -0.5361 -1.1497  1.2864
   95MOL0     H12484  11.283   1.400   2.299 -1.0670  0.0662  0.3150
   95MOL0     H12485  11.325   1.362   2.555  0.2907  0.5460  0.9002
   95MOL0     H12486  11.460   1.354   2.442 -1.5852  2.4033  0.2175
   95MOL0     H12487  11.443   1.112   2.430  1.1065  0.5528 -0.4497
   95MOL0     H12488  11.296   1.111   2.532 -0.7580  2.2658 -1.1681
   95MOL0     H12489  11.580   1.152   2.642  0.4210 -3.9456  3.1853
   95MOL0     H12490  11.437   1.221   2.724 -0.5903 -1.7916  1.9095
   95MOL0     H12491  11.514   0.998   2.787 -0.7477 -0.2018 -0.1224
   95MOL0     H12492  11.493   0.941   2.629  3.4950 -0.3669  1.8109
   95MOL0     H12493  11.259   0.856   2.579  0.0588 -2.5564  0.6024
   95MOL0     H12494  10.964   0.872   2.587  0.6740  1.4429  0.7796
   95MOL0     H12495  10.907   0.860   2.751  1.1872  0.8855 -0.5570
   95MOL0     H12496  11.075   0.636   2.620 -0.7451 -4.2347  0.4853
   95MOL0     H12497  10.894   0.640   2.610 -0.6988  3.0274 -0.3281
   95MOL0     H12498  10.989   0.510   2.802  0.1680 -1.1878 -0.4582
   95MOL0     H12499  11.018   0.664   2.880  1.3892  0.1845  0.0090
   95MOL0     H12500  10.748   0.705   2.816  0.2782 -0.5340 -3.4361
   95MOL0     H12501  10.812   0.601   2.954 -1.4021  0.5643  0.2001
   95MOL0     H12502  10.622   0.274   2.767  0.4577 -2.3436  5.2988
   95MOL0     H12503  10.413   0.211   2.843  0.7198  0.4997 -2.1064
   95MOL0     H12504  10.064   0.126   3.119 -1.0889 -1.0821  0.1007
   95MOL0     H12505   9.817   0.108   3.171 -0.0918 -0.4980 -0.7573
   95MOL0     H12506   9.537   0.303   3.195  0.6134 -0.0725  1.2873
   95MOL0     H12507   9.626   0.141   3.201 -1.1256 -1.2679 -1.8887
   95MOL0     H12508   9.377   0.115   3.212  1.9954 -2.3248 -0.5334
   95MOL0     H12509   9.436   0.040   3.072  0.7907 -2.7825  5.0368
   95MOL0     H12510   9.365   0.245   2.940  1.9283  1.1777  1.9104
   95MOL0     H12511   9.351   0.335   3.084  1.3801 -0.0857 -0.9596
   95MOL0     H12512   9.181   0.083   3.036 -0.4312  0.1927  1.7048
   95MOL0     H12513   9.156   0.194   3.164 -2.3340 -1.1111 -0.4945
   95MOL0     H12514   9.111   0.271   2.872  0.6421 -2.3506 -0.3521
   95MOL0     H12515   9.096   0.380   3.011  0.9106  0.5901  1.0737
   95MOL0     H12516   8.919   0.227   3.114  0.6653  0.0215 -0.2022
   95MOL0     H12517   8.931   0.117   2.976 -0.8499  0.3768 -2.0743
   95MOL0     H12518   8.907   0.338   2.839  0.7624 -1.7966 -0.0811
   95MOL0     H12519   8.761   0.264   2.893 -0.4718  1.6106 -1.0464
   95MOL0     H12520   8.726   0.491   2.956 -2.7088 -1.1108  2.7064
   95MOL0     H12521   8.890   0.505   3.037 -0.2647 -1.1065  1.6266
   95MOL0     H12522   9.728   0.379   2.858 -1.4233 -0.1246  1.0951
   95MOL0     H12523   9.976   0.408   2.808 -3.2569  0.9503 -0.6757
   95MOL0     H12524  10.342   0.620   3.004 -0.4689  1.4615 -1.3849
   95MOL0     H12525  10.553   0.677   2.899 -0.6921  0.3549 -0.4403
   95MOL0     H12526  10.652   1.418   2.310  0.9197 -1.2420 -2.2112
   95MOL0     H12527  10.396   1.405   2.347  0.3718 -1.0208 -1.4728
   95MOL0     H12528   9.945   1.357   2.279 -0.2324  0.0817 -0.5197
   95MOL0     H12529   9.708   1.272   2.312 -1.4805 -1.6893  1.3015
   95MOL0     H12530   9.655   0.913   2.587 -0.6592  0.8608  0.2632
   95MOL0     H12531   9.700   0.893   2.421  2.3899  3.5683 -2.4956
   95MOL0     H12532   9.455   0.810   2.510 -3.5382  0.8687  0.6160
   95MOL0     H12533   9.428   0.977   2.538  2.6549  2.0713 -0.1666
   95MOL0     H12534   9.491   0.857   2.254  1.4856 -0.6821  2.2616
   95MOL0     H12535   9.424   1.010   2.284 -2.4450 -1.6241 -2.7536
   95MOL0     H12536   9.248   0.875   2.197 -2.2647  0.7069  0.6338
   95MOL0     H12537   9.293   0.739   2.303  1.4052 -0.6732  0.6007
   95MOL0     H12538   9.033   0.987   2.531  1.0733  1.0796  0.5514
   95MOL0     H12539   9.854   0.991   2.601 -4.3714 -2.7267 -2.3884
   95MOL0     H12540  10.081   1.067   2.554  1.5252 -1.4482 -2.6685
   96MOL0     O12541   1.787   2.264  10.049 -0.5176  0.3966 -0.0072
   96MOL0     C12542   1.792   2.318  10.159 -0.4541  0.3245  0.0309
   96MOL0     O12543   1.686   2.331  10.246 -0.0365 -0.0281  0.2331
   96MOL0     C12544   1.566   2.278  10.203 -0.7340  0.5026 -0.1838
   96MOL0     C12545   1.457   2.347  10.248  0.0192  0.0443 -0.5695
   96MOL0     C12546   1.325   2.306  10.225  0.5732  0.0321  0.2566
   96MOL0     C12547   1.308   2.201  10.134  0.3396  0.6048 -0.5164
   96MOL0     O12548   1.176   2.169  10.107  0.6629 -0.5855  0.0711
   96MOL0     C12549   1.129   2.035  10.125  0.9140  0.0543 -0.5545
   96MOL0     C12550   0.979   2.010  10.097  0.0835  0.0319  0.5275
   96MOL0     C12551   0.895   2.053  10.213  0.1407 -0.4382  0.0768
   96MOL0     C12552   0.743   2.037  10.194  0.2779 -0.0009 -0.3372
   96MOL0     C12553   0.665   2.053  10.329  0.0651  0.4592  0.3900
   96MOL0     C12554   0.523   2.072  10.295 -0.0362  0.1351 -0.6783
   96MOL0     C12555   0.446   2.121  10.413 -0.5609  0.3552 -0.0806
   96MOL0     C12556   0.308   2.171  10.380 -0.7248  0.3294  0.4765
   96MOL0     N12557   0.211   2.078  10.319 -0.6581 -0.5685  0.9361
   96MOL0     C12558   0.174   2.068  10.184 -0.7825 -0.3136 -0.5834
   96MOL0     C12559   0.087   1.962  10.180 -0.2120 -1.0752 -0.2558
   96MOL0     C12560   0.038   1.915  10.051  0.1531 -0.0943  0.4259
   96MOL0     C12561  -0.115   1.935  10.029 -0.6000 -0.0453 -0.5810
   96MOL0     C12562  -0.136   1.958   9.891 -0.7691  0.5119  0.0512
   96MOL0     C12563  -0.273   2.016   9.862  0.9081 -0.3315 -0.0757
   96MOL0     O12564  -0.362   1.912   9.818 -0.1768  0.5665  0.0807
   96MOL0     C12565  -0.498   1.933   9.781  0.4436 -0.5515  0.0726
   96MOL0     C12566  -0.561   2.045   9.825 -0.9448 -1.1398 -0.3648
   96MOL0     C12567  -0.695   2.069   9.801 -0.2418 -0.3169  0.2255
   96MOL0     C12568  -0.772   1.976   9.721  0.2885 -0.5227 -0.2335
   96MOL0     C12569  -0.913   1.991   9.708 -0.0404  0.2298 -0.9147
   96MOL0     O12570  -0.974   2.115   9.730 -0.5391  0.5046 -0.1575
   96MOL0     C12571  -1.111   2.112   9.736  0.3493 -0.6304  0.1133
   96MOL0     C12572  -1.191   2.044   9.829  0.3668  0.3123  0.9400
   96MOL0     C12573  -1.329   2.061   9.844  0.7216 -1.0312  0.0229
   96MOL0     C12574  -1.394   2.136   9.745  0.4092  0.0665  0.3972
   96MOL0     O12575  -1.525   2.179   9.749  0.9904 -0.3529  0.3382
   96MOL0     C12576  -1.616   2.098   9.813 -0.1553 -0.3735  0.1691
   96MOL0     C12577  -1.757   2.137   9.762  0.5993  0.1516  0.6813
   96MOL0     C12578  -1.792   2.052   9.637  0.0745 -0.0238 -0.6430
   96MOL0     C12579  -1.934   2.094   9.586 -0.5083  0.3617 -1.2042
   96MOL0     C12580  -2.045   2.063   9.686  0.1467  0.2736 -0.3147
   96MOL0     C12581  -2.182   2.050   9.627  0.5458 -0.1633 -0.6705
   96MOL0     C12582  -2.293   2.040   9.735 -0.0182  0.3942 -0.6430
   96MOL0     C12583  -2.336   1.896   9.755 -0.3300  0.2882 -0.0366
   96MOL0    Cl12584  -2.387   1.813   9.601 -0.6017 -0.1196  0.0708
   96MOL0     C12585  -1.321   2.192   9.645 -0.3943 -0.2442 -0.1472
   96MOL0     C12586  -1.177   2.182   9.637  0.0102 -0.1678 -0.2185
   96MOL0     O12587  -0.978   1.888   9.674 -0.0961  0.0364  0.3895
   96MOL0     C12588  -0.707   1.863   9.670  0.6119 -0.2936  0.4404
   96MOL0     C12589  -0.564   1.844   9.701  0.6437  0.0805 -0.3936
   96MOL0     N12590   0.069   1.917  10.303 -0.5141  0.3946  0.6404
   96MOL0     N12591   0.139   1.989  10.385 -0.1308  0.3978 -1.1325
   96MOL0     C12592   1.408   2.116  10.101  0.1020 -0.0911 -0.7061
   96MOL0     C12593   1.540   2.162  10.128 -0.5047  0.2919  0.3018
   96MOL0     C12594   1.928   2.369  10.194  0.0960  0.2836 -0.5944
   96MOL0     C12595   1.966   2.372  10.327 -0.4400  0.2729 -0.0842
   96MOL0     C12596   2.091   2.421  10.355 -0.2114 -0.3835 -0.3386
   96MOL0     C12597   2.181   2.472  10.266  1.0108  0.0994  0.0089
   96MOL0     O12598   2.298   2.518  10.309  0.1429 -0.2111  0.1840
   96MOL0     C12599   2.394   2.596  10.227  0.6525 -0.6579 -0.0272
   96MOL0     C12600   2.529   2.516  10.225  1.0629 -0.6457 -0.4624
   96MOL0     C12601   2.632   2.597  10.156 -0.0190 -1.0251 -0.6761
   96MOL0     C12602   2.720   2.700  10.238  1.5717 -0.4857 -1.3489
   96MOL0     C12603   2.829   2.758  10.165 -0.1551  0.0097  0.4126
   96MOL0     C12604   2.911   2.792  10.086 -0.0820  0.4544 -0.4690
   96MOL0     C12605   2.147   2.461  10.126 -0.5832  0.2371 -0.1526
   96MOL0     C12606   2.017   2.406  10.095 -0.2202 -0.7604  0.0615
   96MOL0     H12607   1.477   2.425  10.321  0.4505 -0.7297  0.1651
   96MOL0     H12608   1.246   2.373  10.258  3.0928  3.5121 -0.1978
   96MOL0     H12609   1.145   2.008  10.229 -0.8948 -1.0192 -0.5082
   96MOL0     H12610   1.177   1.959  10.064 -1.3920 -0.8772 -1.3196
   96MOL0     H12611   0.981   1.902  10.081 -0.9849  0.0487  0.1640
   96MOL0     H12612   0.944   2.041   9.998 -0.1198 -4.7008 -1.1024
   96MOL0     H12613   0.906   2.161  10.227 -2.0965 -0.4809  3.0169
   96MOL0     H12614   0.919   2.005  10.308 -0.4866  0.3535  0.6473
   96MOL0     H12615   0.710   2.114  10.124 -1.4432  0.1090  0.5513
   96MOL0     H12616   0.714   1.939  10.153  1.4707 -0.5657  0.1149
   96MOL0     H12617   0.703   2.149  10.367  1.9487  0.7457 -1.9445
   96MOL0     H12618   0.685   1.968  10.395 -1.0873  0.8903  1.3186
   96MOL0     H12619   0.471   1.979  10.268 -0.1062  0.1881 -0.7256
   96MOL0     H12620   0.511   2.150  10.219 -0.1609  1.0764  0.2903
   96MOL0     H12621   0.436   2.034  10.479  1.8472 -0.1377 -0.2810
   96MOL0     H12622   0.501   2.200  10.464 -0.5795  0.1986  0.1850
   96MOL0     H12623   0.316   2.260  10.316 -0.9111 -1.0277 -1.5503
   96MOL0     H12624   0.278   2.199  10.481  1.9779 -0.3642  1.5422
   96MOL0     H12625   0.218   2.116  10.098 -0.2592 -0.6216 -0.4907
   96MOL0     H12626   0.058   1.809  10.031 -2.3711 -1.0146  2.2390
   96MOL0     H12627   0.105   1.971   9.985 -1.6724 -0.6842 -2.0787
   96MOL0     H12628  -0.139   2.025  10.086 -0.4316 -1.0934  1.2007
   96MOL0     H12629  -0.165   1.845  10.066  1.7856 -1.4034 -0.4377
   96MOL0     H12630  -0.063   2.025   9.845  0.2830 -3.1119 -4.2429
   96MOL0     H12631  -0.117   1.866   9.835 -0.0057  0.1332  0.8941
   96MOL0     H12632  -0.270   2.105   9.798 -0.4126  0.9685  1.5600
   96MOL0     H12633  -0.336   2.055   9.943 -0.9035 -0.7439 -1.2143
   96MOL0     H12634  -0.516   2.113   9.896 -1.4233  0.2271 -1.3482
   96MOL0     H12635  -0.748   2.152   9.845  1.2317  0.8567 -0.1354
   96MOL0     H12636  -1.149   1.989   9.912 -2.7465  0.5148  2.7949
   96MOL0     H12637  -1.400   2.030   9.920 -1.7757  0.0139 -1.7256
   96MOL0     H12638  -1.609   2.112   9.921  1.6334  0.9816 -0.0724
   96MOL0     H12639  -1.606   1.991   9.794  1.2688 -0.0932 -0.7987
   96MOL0     H12640  -1.754   2.243   9.736 -1.1172  0.1009  0.1790
   96MOL0     H12641  -1.841   2.126   9.831 -0.0331  0.7336  0.0130
   96MOL0     H12642  -1.778   1.943   9.642  1.7615  0.1267 -1.3436
   96MOL0     H12643  -1.723   2.088   9.560 -0.3061  2.7217  0.1889
   96MOL0     H12644  -1.944   2.197   9.551  0.1678  0.6081 -0.6905
   96MOL0     H12645  -1.950   2.022   9.506  2.3905 -2.8348  0.7743
   96MOL0     H12646  -2.055   2.139   9.764 -1.7715 -0.6127  0.3679
   96MOL0     H12647  -2.028   1.970   9.742 -1.6283  0.0048 -0.1699
   96MOL0     H12648  -2.183   1.969   9.553 -2.5470  0.7088 -1.7239
   96MOL0     H12649  -2.218   2.138   9.574 -0.7381 -1.1818 -1.5646
   96MOL0     H12650  -2.255   2.072   9.833  1.1873  1.2622 -1.3710
   96MOL0     H12651  -2.378   2.100   9.702  0.3195  0.8783 -0.6417
   96MOL0     H12652  -2.420   1.888   9.825  0.5305  3.9376  1.6497
   96MOL0     H12653  -2.248   1.845   9.793 -0.1885 -0.4993 -1.3643
   96MOL0     H12654  -1.363   2.260   9.572  2.2076  2.0820  0.3469
   96MOL0     H12655  -1.121   2.216   9.551 -0.9225  0.3807 -0.6165
   96MOL0     H12656  -0.760   1.789   9.610  0.3549 -0.2893  0.6644
   96MOL0     H12657  -0.512   1.763   9.650 -1.7168 -2.2157  0.6056
   96MOL0     H12658   1.390   2.018  10.059 -0.5102 -0.7277  0.9622
   96MOL0     H12659   1.617   2.093  10.095 -0.5902  0.8826 -1.1807
   96MOL0     H12660   1.889   2.349  10.400 -1.0705  2.2555 -0.0460
   96MOL0     H12661   2.125   2.419  10.458  2.4105  0.3065 -1.1031
   96MOL0     H12662   2.401   2.693  10.277 -0.2384 -0.0837 -0.9805
   96MOL0     H12663   2.366   2.628  10.126  0.4956  1.2116  0.5686
   96MOL0     H12664   2.559   2.481  10.324  1.6166 -0.4126 -0.5439
   96MOL0     H12665   2.492   2.438  10.157 -0.4499  1.3674 -2.0841
   96MOL0     H12666   2.587   2.658  10.077  0.0150  1.1778  0.9156
   96MOL0     H12667   2.694   2.528  10.099 -1.5917 -1.7794 -1.5347
   96MOL0     H12668   2.653   2.780  10.271 -2.1269 -2.7795 -2.6415
   96MOL0     H12669   2.775   2.660  10.324 -0.2314  1.2569  0.7395
   96MOL0     H12670   2.982   2.823  10.011  4.5608 -3.6617  1.6633
   96MOL0     H12671   2.218   2.494  10.051  1.1837  1.8330  2.0868
   96MOL0     H12672   1.984   2.412   9.992 -0.3860  1.1763  0.1905
   97MOL0     O12673  11.020   6.712   5.924 -0.2722  0.3029  0.9628
   97MOL0     C12674  11.041   6.838   5.920  0.2909 -0.1121 -1.1288
   97MOL0     O12675  10.950   6.935   5.883 -0.0458 -0.2577  0.8838
   97MOL0     C12676  10.835   6.901   5.817 -0.1819  0.6909  0.8504
   97MOL0     C12677  10.824   6.952   5.689 -0.2640  0.3359  0.0962
   97MOL0     C12678  10.702   6.920   5.627  0.1357 -0.3988 -0.3885
   97MOL0     C12679  10.596   6.839   5.690 -0.0274 -0.1864  0.2471
   97MOL0     O12680  10.487   6.809   5.620 -0.0698  0.2343  0.3550
   97MOL0     C12681  10.423   6.920   5.558 -0.3581 -0.9427  0.1327
   97MOL0     C12682  10.271   6.896   5.570  0.9763  0.2645 -0.7437
   97MOL0     C12683  10.217   6.970   5.696  0.2576  0.9762  0.7231
   97MOL0     C12684  10.061   6.947   5.723 -0.1760  1.2993  1.0347
   97MOL0     C12685  10.004   7.055   5.816  0.1382  0.7201  0.8007
   97MOL0     C12686   9.932   7.007   5.945 -0.2381 -0.4020  0.0111
   97MOL0     C12687   9.887   7.130   6.028  0.2940 -0.3876 -0.3396
   97MOL0     C12688   9.832   7.090   6.164 -0.6261 -0.0316  0.4504
   97MOL0     N12689   9.778   7.206   6.242 -0.0274 -0.6297  0.3113
   97MOL0     C12690   9.855   7.318   6.271 -0.0678 -0.5793  0.1352
   97MOL0     C12691   9.761   7.410   6.313  0.8983 -0.7767  0.4167
   97MOL0     C12692   9.802   7.547   6.357  0.5406 -0.6833 -0.7875
   97MOL0     C12693   9.754   7.578   6.499  0.0661  0.2810  0.3805
   97MOL0     C12694   9.800   7.714   6.534 -0.3531 -0.4627  0.0354
   97MOL0     C12695   9.751   7.763   6.664  0.0982 -1.0067  0.1763
   97MOL0     O12696   9.791   7.667   6.766 -0.2648 -0.7216 -0.0914
   97MOL0     C12697   9.785   7.716   6.899  0.2096  0.0816  0.1791
   97MOL0     C12698   9.709   7.823   6.951 -0.0504  0.4859 -0.2577
   97MOL0     C12699   9.714   7.848   7.087  0.1767 -0.5970 -1.1146
   97MOL0     C12700   9.781   7.764   7.178 -0.0004  0.4488  0.2801
   97MOL0     C12701   9.779   7.780   7.323 -0.1508 -0.0949 -0.5802
   97MOL0     O12702   9.688   7.871   7.381 -0.3921  0.6499 -0.0353
   97MOL0     C12703   9.692   7.874   7.518 -0.5161 -1.0887 -0.2462
   97MOL0     C12704   9.613   7.787   7.589  0.6109 -0.2791 -0.2783
   97MOL0     C12705   9.592   7.804   7.732  0.8169 -0.7512 -0.3586
   97MOL0     C12706   9.645   7.909   7.807  0.3337 -0.2167  0.2814
   97MOL0     O12707   9.628   7.921   7.944  0.2556  0.3388  0.6678
   97MOL0     C12708   9.531   7.835   8.008  0.2997 -0.1150  0.4518
   97MOL0     C12709   9.551   7.832   8.156  0.2037  0.5939  0.5767
   97MOL0     C12710   9.459   7.715   8.211  0.4446  0.4319 -0.6047
   97MOL0     C12711   9.465   7.718   8.363  0.3450  0.1582  0.2307
   97MOL0     C12712   9.433   7.576   8.404  0.0187  0.2590 -0.3931
   97MOL0     C12713   9.405   7.570   8.561 -0.0224  0.5491  0.3907
   97MOL0     C12714   9.381   7.431   8.608 -0.0725  0.5072  0.3292
   97MOL0     C12715   9.349   7.417   8.756 -0.7659  0.1380  1.0315
   97MOL0    Cl12716   9.505   7.475   8.843  0.1471 -0.1947 -0.4081
   97MOL0     C12717   9.727   7.994   7.732 -0.5805  1.0556  0.2110
   97MOL0     C12718   9.749   7.981   7.590 -0.8289  1.0213 -0.4414
   97MOL0     O12719   9.872   7.718   7.386  0.6624  0.2215  0.8328
   97MOL0     C12720   9.864   7.662   7.121 -0.0263 -0.3484  0.7849
   97MOL0     C12721   9.862   7.644   6.986 -0.3156 -1.1287  0.5096
   97MOL0     N12722   9.633   7.357   6.290  0.3314  0.4560  0.0696
   97MOL0     N12723   9.649   7.228   6.258  0.9069 -0.4588 -0.5462
   97MOL0     C12724  10.608   6.795   5.818  0.8318 -0.1179 -0.1730
   97MOL0     C12725  10.733   6.826   5.881  0.8757  0.2444  0.3905
   97MOL0     C12726  11.174   6.903   5.975  0.1882 -0.4057  0.1762
   97MOL0     C12727  11.211   7.030   5.945 -0.3499  0.0103  0.9407
   97MOL0     C12728  11.323   7.091   6.012 -0.2594  0.7545  0.4740
   97MOL0     C12729  11.410   7.011   6.097  0.7747  0.3112  1.0166
   97MOL0     O12730  11.525   7.053   6.157  0.3242 -0.1726  0.1971
   97MOL0     C12731  11.604   7.167   6.113  0.7387  0.1972  0.2089
   97MOL0     C12732  11.723   7.199   6.196  0.5345 -0.2548 -0.0846
   97MOL0     C12733  11.789   7.326   6.151 -0.2180 -0.0701 -1.2624
   97MOL0     C12734  11.886   7.386   6.260  0.1978 -0.2536  0.7961
   97MOL0     C12735  12.016   7.306   6.260  0.5577 -0.1729 -0.9737
   97MOL0     C12736  12.122   7.241   6.259 -0.6166 -0.2902 -0.2820
   97MOL0     C12737  11.375   6.876   6.115 -0.3556  0.9670  0.4973
   97MOL0     C12738  11.256   6.827   6.059 -0.9964  0.5814 -0.1671
   97MOL0     H12739  10.913   7.008   5.663  0.8769 -1.9736 -1.3431
   97MOL0     H12740  10.676   6.966   5.532 -0.0834 -0.2909 -0.2762
   97MOL0     H12741  10.436   6.928   5.450 -2.6812 -1.3625 -0.2184
   97MOL0     H12742  10.453   7.015   5.604 -2.0966 -0.9588  1.3837
   97MOL0     H12743  10.254   6.788   5.581  1.8651  0.1862  0.0193
   97MOL0     H12744  10.221   6.938   5.483 -0.4056  1.4329  0.5691
   97MOL0     H12745  10.239   7.076   5.679  1.8207  0.5327 -0.3039
   97MOL0     H12746  10.268   6.940   5.788 -1.2469 -0.9962  0.9757
   97MOL0     H12747  10.007   6.950   5.629 -0.7409  0.7777  1.3348
   97MOL0     H12748  10.042   6.847   5.764  2.4742  0.2293 -0.0832
   97MOL0     H12749   9.925   7.108   5.761 -0.3959 -0.1244  0.7302
   97MOL0     H12750  10.082   7.128   5.840  0.3082  0.2072  1.8587
   97MOL0     H12751   9.999   6.953   6.013 -0.9904  1.6300  2.5241
   97MOL0     H12752   9.844   6.953   5.911 -1.3062  1.4181 -0.2322
   97MOL0     H12753   9.977   7.191   6.037  0.3427 -0.5636  0.4124
   97MOL0     H12754   9.818   7.196   5.974  2.0253  0.8909 -1.0630
   97MOL0     H12755   9.918   7.052   6.220  1.3956  3.2860 -0.0832
   97MOL0     H12756   9.758   7.013   6.144 -3.0739  2.0568  0.9584
   97MOL0     H12757   9.958   7.338   6.243  0.0269  1.0235  1.4880
   97MOL0     H12758   9.750   7.627   6.302  0.9762  1.1853  1.3505
   97MOL0     H12759   9.909   7.556   6.337  0.7351  0.0057  0.4937
   97MOL0     H12760   9.797   7.499   6.562 -2.8361 -2.1999 -0.5402
   97MOL0     H12761   9.646   7.564   6.507 -0.5647  2.0982 -2.9800
   97MOL0     H12762   9.907   7.729   6.524 -0.6770  0.7348 -2.3125
   97MOL0     H12763   9.768   7.794   6.466 -1.2133  1.3804  2.4920
   97MOL0     H12764   9.642   7.758   6.657  0.1304 -1.1865 -0.2489
   97MOL0     H12765   9.782   7.867   6.674  0.4562 -1.2517  1.8441
   97MOL0     H12766   9.650   7.890   6.889 -0.5744 -0.1632 -0.4634
   97MOL0     H12767   9.656   7.933   7.120 -2.1069 -1.7067 -2.0756
   97MOL0     H12768   9.567   7.708   7.530  0.5160 -1.1364  0.9129
   97MOL0     H12769   9.530   7.723   7.769  1.9171 -1.5988 -0.3507
   97MOL0     H12770   9.536   7.733   7.970 -1.6294  1.0008 -3.2972
   97MOL0     H12771   9.427   7.864   7.989  0.4677 -0.9373 -2.2216
   97MOL0     H12772   9.521   7.930   8.194  1.5885  1.8425 -1.3268
   97MOL0     H12773   9.658   7.822   8.177  0.3024  0.2911 -0.0341
   97MOL0     H12774   9.506   7.622   8.175  0.8028  0.1603  0.5336
   97MOL0     H12775   9.352   7.715   8.191  0.0944 -0.7903  1.0712
   97MOL0     H12776   9.559   7.742   8.413 -0.0490 -1.3377  1.7507
   97MOL0     H12777   9.381   7.780   8.395  0.4473 -0.3810  1.5842
   97MOL0     H12778   9.517   7.513   8.372  0.7876  0.1599  1.6627
   97MOL0     H12779   9.346   7.528   8.358  0.3042 -2.1811  1.4389
   97MOL0     H12780   9.322   7.637   8.583 -0.2192  0.0507  1.2182
   97MOL0     H12781   9.495   7.599   8.615 -1.3248 -0.9009  3.6060
   97MOL0     H12782   9.299   7.396   8.545 -1.6760  1.3755  1.8285
   97MOL0     H12783   9.464   7.364   8.587  1.2981  2.1156  0.4309
   97MOL0     H12784   9.341   7.311   8.784  1.7906 -0.9537 -1.8284
   97MOL0     H12785   9.257   7.473   8.775 -0.5995 -0.1125  2.6931
   97MOL0     H12786   9.780   8.076   7.779  3.8820 -1.3408 -0.0971
   97MOL0     H12787   9.806   8.062   7.546  0.8493 -0.0615 -0.3669
   97MOL0     H12788   9.932   7.604   7.183 -0.4415 -0.4086  1.1918
   97MOL0     H12789   9.930   7.579   6.933 -0.6398  0.4968 -2.0705
   97MOL0     H12790  10.531   6.737   5.867 -0.5205 -0.3674 -2.4441
   97MOL0     H12791  10.744   6.802   5.986  1.2394  1.5664  0.6796
   97MOL0     H12792  11.157   7.089   5.871 -0.9849 -0.7995  0.7433
   97MOL0     H12793  11.351   7.194   5.993 -1.4460  1.4222  2.0800
   97MOL0     H12794  11.541   7.256   6.123  0.6140  0.0174  1.1271
   97MOL0     H12795  11.640   7.160   6.010 -1.3564 -0.0567 -0.5587
   97MOL0     H12796  11.696   7.202   6.302 -2.0138 -2.3728 -0.5654
   97MOL0     H12797  11.798   7.122   6.175  0.6295 -0.4831  1.0444
   97MOL0     H12798  11.720   7.404   6.119  1.1167  1.5505 -0.3248
   97MOL0     H12799  11.846   7.305   6.060  2.8771  3.1922 -0.2643
   97MOL0     H12800  11.907   7.490   6.234 -2.1257  0.2382  0.7161
   97MOL0     H12801  11.849   7.373   6.362 -0.2678 -0.0272  0.6579
   97MOL0     H12802  12.211   7.184   6.241  0.1134  1.3625 -2.3395
   97MOL0     H12803  11.441   6.811   6.170 -1.2365 -1.0062 -0.6803
   97MOL0     H12804  11.240   6.720   6.055  1.3767  0.2141 -1.9582
   98MOL0     O12805   0.335   0.774   6.066 -0.7240 -0.0985 -0.2005
   98MOL0     C12806   0.366   0.823   6.178 -0.4153  0.0923  0.5218
   98MOL0     O12807   0.273   0.873   6.268 -0.4594 -0.6590 -0.3774
   98MOL0     C12808   0.134   0.868   6.242 -0.8039  0.6932  0.4716
   98MOL0     C12809   0.063   0.755   6.275  0.2864 -0.0023 -0.3117
   98MOL0     C12810  -0.073   0.748   6.251  1.7909 -0.7908 -0.1317
   98MOL0     C12811  -0.148   0.859   6.209 -0.2016 -0.5090  0.1333
   98MOL0     O12812  -0.280   0.826   6.184  0.2363  0.5063 -0.0489
   98MOL0     C12813  -0.357   0.865   6.295 -0.7834  0.3960  1.1465
   98MOL0     C12814  -0.511   0.859   6.270 -0.3294  0.6345  0.3268
   98MOL0     C12815  -0.555   0.710   6.244 -0.3566 -1.2014 -0.7901
   98MOL0     C12816  -0.707   0.706   6.237  0.4666 -0.0888 -0.1553
   98MOL0     C12817  -0.760   0.686   6.382  0.1174  0.8539 -0.2660
   98MOL0     C12818  -0.911   0.737   6.386 -0.8752 -0.2475  0.5570
   98MOL0     C12819  -0.966   0.694   6.519 -0.4284 -0.0746  0.1446
   98MOL0     C12820  -1.001   0.542   6.517  0.2768  0.8915  0.3302
   98MOL0     N12821  -1.144   0.525   6.494 -0.2812 -0.7143 -0.0720
   98MOL0     C12822  -1.212   0.545   6.374  1.3171  0.5069  0.6388
   98MOL0     C12823  -1.346   0.529   6.412 -0.3344  0.4201 -0.2755
   98MOL0     C12824  -1.477   0.526   6.320 -0.0663  0.3775 -0.1516
   98MOL0     C12825  -1.464   0.417   6.214  0.9606 -0.4478 -0.6547
   98MOL0     C12826  -1.477   0.272   6.273  0.5011  0.5156 -0.7533
   98MOL0     C12827  -1.592   0.195   6.204 -0.0054  0.0770  0.7170
   98MOL0     O12828  -1.717   0.261   6.232 -0.4804  0.7249  0.5011
   98MOL0     C12829  -1.820   0.212   6.165  0.2037  0.3427 -0.8414
   98MOL0     C12830  -1.939   0.287   6.198 -0.8696  0.0333 -0.2652
   98MOL0     C12831  -2.066   0.260   6.144  0.7731 -0.2181 -0.0657
   98MOL0     C12832  -2.076   0.149   6.057 -0.0445 -0.1992 -0.2083
   98MOL0     C12833  -2.213   0.119   5.996 -0.2061  0.3196  0.1814
   98MOL0     O12834  -2.324   0.173   6.050 -0.4689  0.4516  0.0990
   98MOL0     C12835  -2.443   0.189   5.980  0.4363 -0.5178  0.8706
   98MOL0     C12836  -2.547   0.238   6.057 -0.1472 -0.5171  0.0373
   98MOL0     C12837  -2.682   0.239   6.007  0.0840  0.7284  0.6431
   98MOL0     C12838  -2.707   0.219   5.870 -0.4646 -0.3495 -0.0533
   98MOL0     O12839  -2.846   0.221   5.833  0.1057  0.4080 -0.0314
   98MOL0     C12840  -2.877   0.170   5.705 -0.4416  0.0456 -0.0173
   98MOL0     C12841  -3.026   0.189   5.678  0.4418 -0.3377 -0.2487
   98MOL0     C12842  -3.072   0.156   5.528 -0.2610 -0.1667 -0.3557
   98MOL0     C12843  -3.221   0.168   5.523  0.0355  0.5038  0.1035
   98MOL0     C12844  -3.280   0.087   5.405  0.3405  0.2495 -0.2641
   98MOL0     C12845  -3.432   0.106   5.384  0.0002  1.0865 -0.3249
   98MOL0     C12846  -3.503   0.001   5.475 -0.2503 -1.0173  0.1622
   98MOL0     C12847  -3.656   0.004   5.470 -0.1029  0.2708  1.0441
   98MOL0    Cl12848  -3.719  -0.123   5.351  0.0731  0.0441 -0.2766
   98MOL0     C12849  -2.595   0.195   5.791 -0.3780  0.1013 -0.9500
   98MOL0     C12850  -2.471   0.158   5.848  0.3339 -0.3176  0.7027
   98MOL0     O12851  -2.206   0.043   5.904  0.0287  0.0401  0.2667
   98MOL0     C12852  -1.962   0.080   6.018  0.7192  0.6093 -0.1274
   98MOL0     C12853  -1.832   0.104   6.076 -0.6341  0.0243  0.6300
   98MOL0     N12854  -1.352   0.490   6.545 -0.1419  0.0385 -0.2457
   98MOL0     N12855  -1.235   0.499   6.592  0.8524 -0.2450  0.4173
   98MOL0     C12856  -0.076   0.972   6.163 -1.0620 -0.9071 -0.1539
   98MOL0     C12857   0.065   0.980   6.181  0.0769  0.2465 -0.1232
   98MOL0     C12858   0.512   0.821   6.209  0.4044  0.3737 -0.1450
   98MOL0     C12859   0.567   0.842   6.332 -0.0797 -0.0198  0.0272
   98MOL0     C12860   0.704   0.831   6.341 -1.0995  0.3965 -0.0356
   98MOL0     C12861   0.787   0.806   6.231 -0.1038 -0.2584 -0.4114
   98MOL0     O12862   0.922   0.792   6.239 -0.5826 -0.5259  0.1028
   98MOL0     C12863   0.987   0.775   6.365 -0.3351  0.1629 -0.1683
   98MOL0     C12864   1.131   0.744   6.323 -0.2421 -0.2833  0.8903
   98MOL0     C12865   1.229   0.744   6.443  0.6675  0.1581 -0.1466
   98MOL0     C12866   1.366   0.726   6.392 -0.6990  0.1476 -0.4112
   98MOL0     C12867   1.418   0.854   6.332 -0.3169  0.7046 -0.0719
   98MOL0     C12868   1.462   0.960   6.293 -0.0874 -0.3396 -0.5693
   98MOL0     C12869   0.726   0.794   6.115  0.1836  0.7508 -0.4522
   98MOL0     C12870   0.595   0.790   6.105  0.6423  0.4365  0.0369
   98MOL0     H12871   0.124   0.675   6.315  0.7006  1.4390  2.1592
   98MOL0     H12872  -0.122   0.652   6.265 -1.3773  0.5473 -1.0822
   98MOL0     H12873  -0.329   0.968   6.319 -0.9850  1.1956 -1.6508
   98MOL0     H12874  -0.329   0.796   6.375  1.3609  1.9145  1.8026
   98MOL0     H12875  -0.531   0.918   6.180  0.5185 -0.3455 -0.5370
   98MOL0     H12876  -0.571   0.908   6.347 -0.8471 -0.2363  0.4890
   98MOL0     H12877  -0.521   0.656   6.333  0.7015  0.7059  0.0247
   98MOL0     H12878  -0.515   0.671   6.151 -0.3234 -0.2360 -1.1971
   98MOL0     H12879  -0.746   0.799   6.194  0.3511  2.0446  4.0552
   98MOL0     H12880  -0.747   0.621   6.180  0.1681  0.3337 -0.5775
   98MOL0     H12881  -0.701   0.735   6.459 -0.7438 -0.3411  1.2146
   98MOL0     H12882  -0.755   0.581   6.411 -2.4428  1.0340  1.1060
   98MOL0     H12883  -0.973   0.700   6.304 -2.3350  2.6094  0.2348
   98MOL0     H12884  -0.914   0.846   6.385  1.6622 -0.1042  1.0779
   98MOL0     H12885  -0.887   0.722   6.590  0.2216  0.9481 -0.9278
   98MOL0     H12886  -1.055   0.749   6.550 -0.2059  0.7569 -0.6283
   98MOL0     H12887  -0.980   0.489   6.611 -1.8023 -1.0454 -0.2053
   98MOL0     H12888  -0.955   0.495   6.429 -1.7285  1.0131 -0.8371
   98MOL0     H12889  -1.177   0.567   6.273 -0.1251  1.3207  0.2801
   98MOL0     H12890  -1.467   0.622   6.269 -0.5646  1.3091  1.4494
   98MOL0     H12891  -1.569   0.506   6.375 -0.0883 -0.0160 -0.3272
   98MOL0     H12892  -1.371   0.442   6.162  0.6043  4.4624  0.5379
   98MOL0     H12893  -1.545   0.440   6.143  0.5483 -2.8995 -1.0830
   98MOL0     H12894  -1.379   0.223   6.273  0.0704 -0.4209  0.6084
   98MOL0     H12895  -1.517   0.271   6.375 -0.0937  0.6131 -0.9848
   98MOL0     H12896  -1.586   0.087   6.220  1.2820  0.1822  1.0364
   98MOL0     H12897  -1.574   0.214   6.098  1.3232  0.4053  0.9931
   98MOL0     H12898  -1.917   0.377   6.253 -0.2675  0.5224 -1.2812
   98MOL0     H12899  -2.150   0.325   6.168  0.6740  0.1176 -1.2493
   98MOL0     H12900  -2.526   0.277   6.156  0.9596  1.3230 -0.8648
   98MOL0     H12901  -2.772   0.270   6.057 -0.9905  3.2757 -2.5461
   98MOL0     H12902  -2.860   0.062   5.702  0.2549  0.1280  0.6176
   98MOL0     H12903  -2.817   0.216   5.626 -1.3482 -1.3617 -1.5887
   98MOL0     H12904  -3.050   0.294   5.699  1.8178 -0.1566  0.5569
   98MOL0     H12905  -3.092   0.139   5.749  0.9354 -0.0266  0.4366
   98MOL0     H12906  -3.044   0.052   5.511  3.3154  0.7369 -0.7945
   98MOL0     H12907  -3.012   0.223   5.466  1.3734  0.0003  1.3247
   98MOL0     H12908  -3.252   0.124   5.618 -1.5421  1.8158  0.2270
   98MOL0     H12909  -3.253   0.271   5.509  4.4884  2.2914  1.2837
   98MOL0     H12910  -3.268  -0.017   5.437 -1.8464  0.5568  1.8677
   98MOL0     H12911  -3.233   0.115   5.311 -0.3271 -1.5731 -1.1899
   98MOL0     H12912  -3.459   0.082   5.281  1.5652 -3.5276  0.0824
   98MOL0     H12913  -3.460   0.208   5.412  1.4648  0.3508  5.0080
   98MOL0     H12914  -3.478  -0.106   5.473 -2.0510 -1.5403  2.3509
   98MOL0     H12915  -3.473   0.043   5.571  0.3959  4.9719 -2.2359
   98MOL0     H12916  -3.696   0.104   5.452 -1.6088 -0.5545 -0.6345
   98MOL0     H12917  -3.698  -0.024   5.567 -0.6562  0.0641  0.7488
   98MOL0     H12918  -2.601   0.190   5.683  3.8329  1.0816 -1.4032
   98MOL0     H12919  -2.394   0.128   5.777  1.4517  0.9499  1.3098
   98MOL0     H12920  -1.980   0.006   5.941  0.1810  2.5911 -2.0138
   98MOL0     H12921  -1.756   0.034   6.044  1.2350  2.3880 -0.4222
   98MOL0     H12922  -0.124   1.052   6.107  1.6251 -0.2675 -1.7157
   98MOL0     H12923   0.115   1.068   6.141 -0.2673 -0.0464 -1.2190
   98MOL0     H12924   0.508   0.867   6.420  3.1633  0.4351  2.2907
   98MOL0     H12925   0.752   0.853   6.436  1.6077  2.0023 -1.6501
   98MOL0     H12926   0.935   0.702   6.428 -0.4085 -1.5207 -2.0763
   98MOL0     H12927   0.992   0.872   6.414 -0.1582 -0.3677  0.8915
   98MOL0     H12928   1.142   0.647   6.272  5.0123  1.0451 -1.1233
   98MOL0     H12929   1.157   0.818   6.247  0.7670 -1.9101 -0.4359
   98MOL0     H12930   1.200   0.657   6.502 -1.8687  1.0016 -0.0222
   98MOL0     H12931   1.219   0.832   6.508  2.9209 -0.5016  1.1941
   98MOL0     H12932   1.419   0.691   6.481  1.4850  2.0180 -0.8808
   98MOL0     H12933   1.372   0.659   6.305 -0.5404  0.3085 -0.5239
   98MOL0     H12934   1.505   1.050   6.254 -1.7425  0.5505 -0.4381
   98MOL0     H12935   0.782   0.773   6.025 -0.8757 -2.0277 -0.5762
   98MOL0     H12936   0.559   0.766   6.006 -2.1768  0.5216  0.9675
   99MOL0     O12937   8.109   6.857   1.188 -0.1806 -0.3709 -0.0413
   99MOL0     C12938   8.173   6.831   1.292 -0.9433  0.3124  0.6404
   99MOL0     O12939   8.127   6.750   1.400 -0.1303 -0.6137  0.4240
   99MOL0     C12940   8.004   6.697   1.377  0.3588 -0.2503 -0.0863
   99MOL0     C12941   7.999   6.565   1.334  0.9728  0.0641  0.1994
   99MOL0     C12942   7.875   6.504   1.307 -1.0124 -0.2474 -0.3967
   99MOL0     C12943   7.752   6.573   1.333 -0.7547 -0.7493  0.0373
   99MOL0     O12944   7.634   6.524   1.312  0.4033  1.2690  0.6054
   99MOL0     C12945   7.622   6.384   1.339  0.0090 -0.0109  0.2827
   99MOL0     C12946   7.475   6.363   1.389  0.0343  0.8865  0.4085
   99MOL0     C12947   7.357   6.426   1.305  0.1808 -0.5282 -0.6144
   99MOL0     C12948   7.228   6.411   1.386  0.1590 -0.1202 -0.0139
   99MOL0     C12949   7.116   6.499   1.318 -0.2235  0.0550 -0.2643
   99MOL0     C12950   6.976   6.448   1.365  0.7886  0.4368  0.1380
   99MOL0     C12951   6.866   6.513   1.281  0.1999  1.4495  0.2855
   99MOL0     C12952   6.731   6.435   1.282  1.5081  0.3310  0.8772
   99MOL0     N12953   6.619   6.528   1.242 -0.6081 -0.5949 -0.0368
   99MOL0     C12954   6.565   6.527   1.120  0.3587  0.4624  0.4039
   99MOL0     C12955   6.488   6.641   1.130 -0.6126 -0.1813 -0.0177
   99MOL0     C12956   6.423   6.703   1.014  0.7075  0.2380 -0.1227
   99MOL0     C12957   6.272   6.656   0.990  0.4538 -0.0149  0.4695
   99MOL0     C12958   6.220   6.718   0.861 -0.2053  0.2441 -0.8044
   99MOL0     C12959   6.072   6.712   0.851 -0.2778 -0.2769 -0.4094
   99MOL0     O12960   6.014   6.822   0.932  0.4607  0.4520 -0.3424
   99MOL0     C12961   5.880   6.835   0.930  0.3028  0.0615 -0.1489
   99MOL0     C12962   5.787   6.791   0.834  0.0502 -0.7703  0.3477
   99MOL0     C12963   5.649   6.807   0.851 -0.2372 -0.2732 -0.1522
   99MOL0     C12964   5.599   6.862   0.975 -0.2851  0.2967 -0.2879
   99MOL0     C12965   5.454   6.876   1.002 -0.1504  0.2363 -0.5599
   99MOL0     O12966   5.408   6.985   1.072  0.1858 -0.4429 -0.0267
   99MOL0     C12967   5.277   7.027   1.051 -0.6139 -0.7032 -0.3692
   99MOL0     C12968   5.208   7.030   0.923 -0.7810 -0.5783  0.2145
   99MOL0     C12969   5.077   7.075   0.911  0.2872  1.0368  0.6838
   99MOL0     C12970   5.007   7.126   1.017 -0.3658  0.0425 -0.0623
   99MOL0     O12971   4.879   7.173   0.998 -0.6002  0.2837  0.1476
   99MOL0     C12972   4.807   7.209   1.122  0.2016  0.4130  0.9432
   99MOL0     C12973   4.656   7.229   1.074 -0.3838 -0.5816 -0.3003
   99MOL0     C12974   4.574   7.284   1.196  0.7826  0.5327 -0.1004
   99MOL0     C12975   4.431   7.300   1.142  0.6351 -0.8552  0.5674
   99MOL0     C12976   4.324   7.330   1.251 -0.0009 -0.0886  0.6102
   99MOL0     C12977   4.305   7.469   1.288  0.2896  0.3606 -0.3440
   99MOL0     C12978   4.176   7.473   1.379  0.8956  0.1827  0.6165
   99MOL0     C12979   4.148   7.615   1.432  0.3845  0.6739  0.3698
   99MOL0    Cl12980   4.294   7.703   1.498 -0.1928 -0.1629  0.4283
   99MOL0     C12981   5.077   7.142   1.137 -0.4081 -0.4380 -1.0030
   99MOL0     C12982   5.203   7.088   1.156  0.2361  0.1161 -0.2057
   99MOL0     O12983   5.385   6.790   0.950  0.0638  0.0133  0.1107
   99MOL0     C12984   5.694   6.924   1.059 -0.4482  0.7587 -1.0765
   99MOL0     C12985   5.828   6.906   1.039  0.0708  0.5745  0.3072
   99MOL0     N12986   6.479   6.682   1.258  0.3871  0.5537  1.0735
   99MOL0     N12987   6.557   6.614   1.329 -0.7515  0.9679  1.0699
   99MOL0     C12988   7.767   6.711   1.360  0.2740 -0.0349 -0.5442
   99MOL0     C12989   7.890   6.776   1.392  1.2126 -0.4058 -0.1266
   99MOL0     C12990   8.288   6.908   1.327  0.4859  0.4266 -0.3233
   99MOL0     C12991   8.382   6.844   1.408 -0.2196 -0.0872  0.6631
   99MOL0     C12992   8.492   6.914   1.468  0.5412 -0.0588  0.1178
   99MOL0     C12993   8.507   7.054   1.435 -0.1536 -0.0792 -0.7696
   99MOL0     O12994   8.599   7.136   1.503 -0.1307 -0.0832 -0.0892
   99MOL0     C12995   8.731   7.148   1.436  0.1340  0.7371 -1.3036
   99MOL0     C12996   8.846   7.077   1.518 -0.3191  0.1489  0.4759
   99MOL0     C12997   8.980   7.076   1.433 -0.7212 -0.2958  0.6123
   99MOL0     C12998   9.034   7.222   1.403  0.0708 -0.2839  0.2247
   99MOL0     C12999   9.150   7.212   1.303  0.2319  0.1335  0.6186
   99MOL0     C13000   9.252   7.203   1.232 -0.4458  0.1580 -0.6822
   99MOL0     C13001   8.409   7.117   1.354 -0.1981 -0.0626 -0.1982
   99MOL0     C13002   8.304   7.045   1.300 -0.4490  0.0303 -0.2567
   99MOL0     H13003   8.094   6.519   1.311 -0.3351 -2.8865  0.2067
   99MOL0     H13004   7.867   6.406   1.261 -1.5750  0.5386 -2.0546
   99MOL0     H13005   7.696   6.355   1.414 -0.6362  1.0771  1.3789
   99MOL0     H13006   7.638   6.330   1.245  1.1932  1.2104 -0.2501
   99MOL0     H13007   7.481   6.402   1.491  2.2393 -0.2566  0.7750
   99MOL0     H13008   7.458   6.255   1.387  0.5446  0.8103 -0.5859
   99MOL0     H13009   7.353   6.372   1.210  2.9707 -3.8685  0.9627
   99MOL0     H13010   7.379   6.530   1.276 -0.2423 -0.8752 -2.2833
   99MOL0     H13011   7.203   6.304   1.394  0.8865 -0.2090  1.2206
   99MOL0     H13012   7.251   6.454   1.484  1.3290  1.5697 -0.9750
   99MOL0     H13013   7.132   6.482   1.211  0.0142  0.7978 -0.3559
   99MOL0     H13014   7.129   6.606   1.335 -1.4964 -0.2037  2.9810
   99MOL0     H13015   6.953   6.460   1.471 -0.8221 -1.2893  0.0450
   99MOL0     H13016   6.976   6.339   1.351 -3.6097  0.3787 -0.8683
   99MOL0     H13017   6.843   6.614   1.315  3.6201  2.2227  0.6546
   99MOL0     H13018   6.900   6.512   1.177  4.0594 -2.4519  1.2743
   99MOL0     H13019   6.713   6.401   1.384  0.5789  1.7468  1.2197
   99MOL0     H13020   6.734   6.349   1.214 -0.9326 -0.0590  1.1343
   99MOL0     H13021   6.585   6.477   1.026  0.6101  0.5837  0.3927
   99MOL0     H13022   6.481   6.676   0.925 -0.2338  1.7256 -1.2497
   99MOL0     H13023   6.432   6.811   1.032  3.7203 -0.2842  2.2625
   99MOL0     H13024   6.196   6.679   1.065 -2.6644 -1.0146 -2.1604
   99MOL0     H13025   6.267   6.547   0.981 -0.2516  0.0222  0.4067
   99MOL0     H13026   6.248   6.822   0.879  1.3439 -0.6412  2.5855
   99MOL0     H13027   6.256   6.665   0.773 -0.3925 -1.3024  0.0108
   99MOL0     H13028   6.024   6.616   0.868 -0.9462  0.0269 -0.5431
   99MOL0     H13029   6.044   6.734   0.748 -0.3388 -3.1913 -1.0843
   99MOL0     H13030   5.811   6.731   0.748  0.0600 -0.8572  0.4106
   99MOL0     H13031   5.584   6.776   0.769  1.2878  0.3981 -1.6865
   99MOL0     H13032   5.265   6.998   0.836 -3.0022 -0.1024 -1.5167
   99MOL0     H13033   5.026   7.066   0.816 -0.9317  2.3172  1.1853
   99MOL0     H13034   4.841   7.301   1.168 -0.6916  0.0737  2.3320
   99MOL0     H13035   4.811   7.125   1.193  0.3930 -0.3316  0.0783
   99MOL0     H13036   4.615   7.140   1.025  0.3763 -0.2236 -1.6231
   99MOL0     H13037   4.642   7.305   0.997 -2.2088 -1.8519 -1.3349
   99MOL0     H13038   4.606   7.383   1.229  0.4383  0.3842  0.7089
   99MOL0     H13039   4.570   7.209   1.276  0.9490 -0.5027 -1.0385
   99MOL0     H13040   4.436   7.373   1.062  2.4747 -2.3366 -0.7419
   99MOL0     H13041   4.402   7.204   1.097  2.9482 -0.7055 -1.3851
   99MOL0     H13042   4.354   7.272   1.339 -0.6884 -1.6690 -0.1712
   99MOL0     H13043   4.232   7.285   1.214  1.2087 -1.4344 -0.9226
   99MOL0     H13044   4.298   7.531   1.198 -2.1764  0.8363  0.0973
   99MOL0     H13045   4.398   7.493   1.340 -0.5797  2.3845  0.4135
   99MOL0     H13046   4.092   7.432   1.321 -0.4147  1.0133  1.8640
   99MOL0     H13047   4.193   7.412   1.468  0.6208  0.6904  1.0243
   99MOL0     H13048   4.072   7.621   1.511  0.6478 -0.1599  0.6900
   99MOL0     H13049   4.105   7.674   1.350  1.6450  2.7870  1.1514
   99MOL0     H13050   5.042   7.187   1.230 -0.0621 -0.8851 -0.6528
   99MOL0     H13051   5.256   7.091   1.251  0.0919 -1.0865 -0.0701
   99MOL0     H13052   5.666   6.973   1.152  0.0187 -2.7935  1.1694
   99MOL0     H13053   5.893   6.958   1.108  0.9952 -1.7143  1.2437
   99MOL0     H13054   7.675   6.768   1.368 -0.7556 -1.4326 -1.9899
   99MOL0     H13055   7.886   6.880   1.422 -1.4565 -0.4793  0.0189
   99MOL0     H13056   8.356   6.742   1.433 -1.4346  0.2342  0.7989
   99MOL0     H13057   8.561   6.861   1.533  1.3098 -0.4441 -0.9895
   99MOL0     H13058   8.747   7.256   1.427  1.3346  1.0547  2.5247
   99MOL0     H13059   8.726   7.101   1.338 -0.8377 -2.1641  0.0106
   99MOL0     H13060   8.856   7.122   1.617 -2.8598  0.9535  0.4419
   99MOL0     H13061   8.819   6.971   1.524 -2.3103  0.5759 -0.3178
   99MOL0     H13062   8.970   7.019   1.340  2.5605 -2.6800  1.5404
   99MOL0     H13063   9.059   7.024   1.488  1.1096  0.6216 -1.0303
   99MOL0     H13064   8.960   7.284   1.353 -0.1360  0.6208  1.5927
   99MOL0     H13065   9.079   7.279   1.485 -1.3228 -1.9817  2.2672
   99MOL0     H13066   9.339   7.186   1.172  1.1491  1.9958  0.9560
   99MOL0     H13067   8.426   7.217   1.315 -0.1130 -0.4747 -1.2440
   99MOL0     H13068   8.239   7.098   1.231 -0.8079 -0.4296 -0.2748
  100MOL0     O13069   4.393   1.527   7.019  0.4517  0.7041 -0.1142
  100MOL0     C13070   4.318   1.534   6.921  0.0761 -0.1926  0.4008
  100MOL0     O13071   4.357   1.551   6.789 -0.2265 -0.2102  0.0934
  100MOL0     C13072   4.484   1.592   6.750 -0.0602 -1.0548  0.1405
  100MOL0     C13073   4.490   1.685   6.640  0.2184 -0.4233  0.5112
  100MOL0     C13074   4.614   1.727   6.590  1.0211 -0.4609  0.3268
  100MOL0     C13075   4.735   1.678   6.639 -1.1825 -0.2543 -0.0444
  100MOL0     O13076   4.866   1.710   6.601 -0.1204  0.8586  0.0221
  100MOL0     C13077   4.897   1.845   6.554  0.2170  0.6438  0.0117
  100MOL0     C13078   4.892   1.951   6.665  0.3586  1.2285 -0.3361
  100MOL0     C13079   4.996   2.061   6.648 -0.7793  0.3279  0.2898
  100MOL0     C13080   5.022   2.130   6.788  0.1919  0.5251 -0.2342
  100MOL0     C13081   5.135   2.244   6.796  0.3693  0.1223 -0.2611
  100MOL0     C13082   5.268   2.218   6.718  0.2243  0.5703  0.6574
  100MOL0     C13083   5.369   2.332   6.750  0.3667 -0.1945  0.7740
  100MOL0     C13084   5.447   2.307   6.879 -0.1682  0.0054  0.3310
  100MOL0     N13085   5.542   2.411   6.925  1.1340 -0.0835  0.4552
  100MOL0     C13086   5.657   2.462   6.867 -0.1376  0.0991 -0.5558
  100MOL0     C13087   5.710   2.543   6.963 -0.0625 -0.5395 -0.3528
  100MOL0     C13088   5.846   2.605   6.969  0.7125 -0.2375  0.4225
  100MOL0     C13089   5.889   2.683   6.842  0.4371 -0.0499 -0.5417
  100MOL0     C13090   5.784   2.770   6.777  0.2885 -0.6068  0.2989
  100MOL0     C13091   5.741   2.888   6.867 -0.0979 -0.1145  0.3170
  100MOL0     O13092   5.657   2.978   6.797  0.3432 -0.6613  0.1557
  100MOL0     C13093   5.524   2.950   6.787 -0.7917  0.2677 -0.2457
  100MOL0     C13094   5.454   2.855   6.863 -0.2710 -0.2522  0.1974
  100MOL0     C13095   5.319   2.833   6.838 -0.1713 -0.0370  0.7313
  100MOL0     C13096   5.247   2.903   6.740  0.9046 -0.2912  0.1231
  100MOL0     C13097   5.106   2.874   6.727 -0.9608 -0.6775 -0.5393
  100MOL0     O13098   5.030   2.976   6.683 -1.0600  0.1099 -0.9785
  100MOL0     C13099   4.903   2.968   6.648  0.8677  0.4184 -0.6064
  100MOL0     C13100   4.829   2.845   6.601  0.1567 -0.9590  0.4746
  100MOL0     C13101   4.697   2.861   6.560  0.1379  0.4545 -0.2459
  100MOL0     C13102   4.631   2.978   6.565  0.1953 -1.0951  0.6016
  100MOL0     O13103   4.503   2.981   6.520 -0.1241  0.6990  0.5038
  100MOL0     C13104   4.437   3.110   6.490  0.3634  0.1318  0.7186
  100MOL0     C13105   4.309   3.090   6.407  0.0724  0.2887 -0.5822
  100MOL0     C13106   4.229   3.214   6.387 -0.1268 -0.2884 -0.6559
  100MOL0     C13107   4.113   3.208   6.289  0.3335  0.9908  0.3629
  100MOL0     C13108   4.001   3.115   6.344 -0.0821 -0.7539 -0.4656
  100MOL0     C13109   3.866   3.148   6.292  0.8724  0.1174  0.0164
  100MOL0     C13110   3.736   3.066   6.346 -0.1908  0.8194  1.1228
  100MOL0     C13111   3.705   3.113   6.488 -1.0050 -0.3150  0.2211
  100MOL0    Cl13112   3.570   3.029   6.551  0.2829  0.0282 -0.1550
  100MOL0     C13113   4.694   3.088   6.616  0.0418 -1.0024  0.5841
  100MOL0     C13114   4.834   3.082   6.656  0.6301  0.3353 -0.2069
  100MOL0     O13115   5.071   2.760   6.741 -0.2213  0.8757  0.7583
  100MOL0     C13116   5.314   3.007   6.666  0.4275 -0.1982  0.1738
  100MOL0     C13117   5.450   3.025   6.696  0.5518 -0.0044  0.2962
  100MOL0     N13118   5.620   2.561   7.066 -0.2176 -0.2308  0.4807
  100MOL0     N13119   5.517   2.486   7.037 -0.3891  0.9689 -0.2330
  100MOL0     C13120   4.728   1.581   6.738  0.2803 -0.0096 -0.8371
  100MOL0     C13121   4.605   1.550   6.795  0.0728  0.7340 -0.1794
  100MOL0     C13122   4.171   1.518   6.940 -0.3671  0.0182 -0.0153
  100MOL0     C13123   4.117   1.469   7.063  0.4007 -0.9613  0.4434
  100MOL0     C13124   3.985   1.433   7.076 -0.3197 -0.2088 -0.3076
  100MOL0     C13125   3.904   1.476   6.975  0.6076  0.0314 -0.4607
  100MOL0     O13126   3.771   1.450   7.006 -0.2391  0.9309 -0.4191
  100MOL0     C13127   3.678   1.484   6.900 -0.3214  0.2943 -0.0012
  100MOL0     C13128   3.542   1.430   6.941 -0.2316 -0.6992 -0.0321
  100MOL0     C13129   3.500   1.521   7.059 -0.0585 -0.0097 -0.4256
  100MOL0     C13130   3.356   1.493   7.104  0.2194 -1.0021  0.0817
  100MOL0     C13131   3.340   1.523   7.240 -0.6484 -0.2046  0.4614
  100MOL0     C13132   3.328   1.569   7.354  0.9543 -0.2513  0.2627
  100MOL0     C13133   3.951   1.544   6.859  0.6676  0.2016  0.2912
  100MOL0     C13134   4.084   1.548   6.837 -0.1457  0.0713  0.5637
  100MOL0     H13135   4.404   1.723   6.586  0.6849 -0.9677 -0.6593
  100MOL0     H13136   4.612   1.815   6.526 -0.1003  0.1392  1.1340
  100MOL0     H13137   4.838   1.872   6.466  0.8067  1.2270 -0.2181
  100MOL0     H13138   4.996   1.844   6.507 -1.1125  0.3234 -3.0122
  100MOL0     H13139   4.889   1.906   6.764  1.8374 -0.5066 -1.0363
  100MOL0     H13140   4.790   1.993   6.668 -1.2014 -2.2754  1.9883
  100MOL0     H13141   4.967   2.136   6.574  0.4021 -1.1649 -1.7783
  100MOL0     H13142   5.088   2.022   6.604 -2.0042  0.8375 -3.0252
  100MOL0     H13143   4.928   2.178   6.816  0.5955  0.1851  1.8760
  100MOL0     H13144   5.037   2.058   6.868  1.0824 -0.2131 -1.0501
  100MOL0     H13145   5.159   2.258   6.902 -0.4668  0.3604 -0.1034
  100MOL0     H13146   5.090   2.338   6.765 -0.9389  0.6227  2.7941
  100MOL0     H13147   5.257   2.213   6.610  3.9799  1.2024  0.1136
  100MOL0     H13148   5.310   2.121   6.746 -1.9205 -0.4409  0.6008
  100MOL0     H13149   5.439   2.337   6.666 -1.6021 -1.9188 -1.0969
  100MOL0     H13150   5.323   2.431   6.741 -1.5025 -1.1938 -1.9318
  100MOL0     H13151   5.502   2.213   6.869 -0.3334 -0.3089  2.1227
  100MOL0     H13152   5.372   2.282   6.954 -0.7448 -0.3882 -0.3573
  100MOL0     H13153   5.707   2.432   6.776  0.9539 -0.1396  0.1013
  100MOL0     H13154   5.913   2.519   6.978  1.2534  0.2283  0.9159
  100MOL0     H13155   5.858   2.654   7.066 -2.0762 -0.4575  0.9730
  100MOL0     H13156   5.925   2.611   6.768  1.0298  1.2231 -1.5344
  100MOL0     H13157   5.972   2.748   6.871  0.3324 -0.4296  0.6448
  100MOL0     H13158   5.825   2.810   6.683  1.9951 -1.5916  0.5789
  100MOL0     H13159   5.689   2.718   6.760 -1.5687  1.4503  3.4458
  100MOL0     H13160   5.827   2.943   6.907  2.5776 -1.9428 -2.4756
  100MOL0     H13161   5.681   2.865   6.955 -2.8012  3.6422 -0.3107
  100MOL0     H13162   5.502   2.801   6.943  3.2832  1.8628 -0.2739
  100MOL0     H13163   5.265   2.759   6.897 -0.9435 -1.4466 -1.6050
  100MOL0     H13164   4.872   2.746   6.591 -1.5474 -1.5236 -2.3151
  100MOL0     H13165   4.642   2.778   6.518  1.1014  0.8944 -2.5070
  100MOL0     H13166   4.504   3.172   6.429  1.0722 -0.8700  0.4684
  100MOL0     H13167   4.397   3.156   6.581 -1.5058  2.0643 -0.9399
  100MOL0     H13168   4.241   3.026   6.464  0.2210 -0.0503 -0.7829
  100MOL0     H13169   4.331   3.055   6.306 -0.4483  0.4108 -0.7423
  100MOL0     H13170   4.295   3.290   6.345 -1.7900  1.9419  0.5157
  100MOL0     H13171   4.206   3.239   6.491  0.2651 -0.5952 -0.4894
  100MOL0     H13172   4.060   3.304   6.282 -0.8503  0.3828  0.7578
  100MOL0     H13173   4.153   3.178   6.192 -1.1637 -2.7552  0.7469
  100MOL0     H13174   4.001   3.137   6.451  0.2095  0.1457 -0.6498
  100MOL0     H13175   4.016   3.007   6.330 -0.2414 -0.6740 -1.3061
  100MOL0     H13176   3.874   3.126   6.185 -0.1390 -1.4286  0.2206
  100MOL0     H13177   3.835   3.252   6.302  0.4019 -0.0507  0.3058
  100MOL0     H13178   3.646   3.090   6.288  0.3522  1.0404  0.3537
  100MOL0     H13179   3.741   2.956   6.341 -4.7729  0.4305 -0.8293
  100MOL0     H13180   3.690   3.221   6.481 -0.7946 -0.3347 -0.6690
  100MOL0     H13181   3.797   3.092   6.544  0.6602  2.5510 -1.1523
  100MOL0     H13182   4.647   3.184   6.636  3.7716  0.9944  0.6734
  100MOL0     H13183   4.884   3.166   6.702  1.9269 -1.2432  1.3985
  100MOL0     H13184   5.268   3.067   6.589  1.5563  1.8907  1.0422
  100MOL0     H13185   5.517   3.084   6.635  0.2607  1.1722  1.0803
  100MOL0     H13186   4.821   1.546   6.782  1.7503  0.7082 -3.1594
  100MOL0     H13187   4.585   1.475   6.872 -0.6180  2.3314  1.2571
  100MOL0     H13188   4.177   1.431   7.146 -1.1057 -2.6514  0.8235
  100MOL0     H13189   3.955   1.385   7.169 -0.5606  0.0380 -0.2582
  100MOL0     H13190   3.714   1.430   6.811 -1.2436 -0.5137  0.0927
  100MOL0     H13191   3.676   1.590   6.876  1.9023  0.1242 -1.2077
  100MOL0     H13192   3.464   1.433   6.865 -0.0595 -1.8846 -0.2769
  100MOL0     H13193   3.551   1.324   6.965 -0.9649 -0.5871  0.7809
  100MOL0     H13194   3.494   1.628   7.037 -1.9588 -0.5118 -2.7586
  100MOL0     H13195   3.571   1.495   7.138 -1.1795 -3.7382 -0.4266
  100MOL0     H13196   3.282   1.548   7.044  1.1820  1.2442  0.8883
  100MOL0     H13197   3.325   1.388   7.101 -1.0636 -0.7736  2.8127
  100MOL0     H13198   3.325   1.597   7.457 -2.0100 -1.9319  0.7426
  100MOL0     H13199   3.882   1.572   6.780 -0.8510 -0.7596  1.2271
  100MOL0     H13200   4.120   1.593   6.745 -2.0168 -0.6712 -0.5818
  101MOL0     O13201   3.546   8.578   9.367 -0.5381  0.1345 -0.1916
  101MOL0     C13202   3.599   8.660   9.286  0.4390  1.2181 -0.0037
  101MOL0     O13203   3.693   8.629   9.199  0.3272 -0.1572  0.2125
  101MOL0     C13204   3.679   8.507   9.123 -0.7462 -0.5466 -0.0373
  101MOL0     C13205   3.802   8.450   9.091 -0.0753 -0.6924  1.2148
  101MOL0     C13206   3.807   8.337   9.009  0.1984  0.0109  0.1319
  101MOL0     C13207   3.687   8.273   8.981 -1.2649  0.8571  0.4779
  101MOL0     O13208   3.680   8.158   8.902 -0.6328 -0.0672  0.3788
  101MOL0     C13209   3.766   8.053   8.940 -0.4967 -0.7157 -0.2500
  101MOL0     C13210   3.757   7.958   8.825  0.5332 -1.0383 -0.5646
  101MOL0     C13211   3.619   7.900   8.789  0.1499 -0.7529  0.3984
  101MOL0     C13212   3.520   7.866   8.906 -0.5989  0.4903 -0.2702
  101MOL0     C13213   3.554   7.727   8.966 -0.2659 -0.6939  0.1033
  101MOL0     C13214   3.455   7.685   9.065  0.9797 -0.2621  0.5891
  101MOL0     C13215   3.487   7.535   9.107 -0.5446  0.0357 -0.0517
  101MOL0     C13216   3.401   7.492   9.228  0.6132 -0.5383  0.8998
  101MOL0     N13217   3.254   7.527   9.206 -0.2207  0.3208 -0.4200
  101MOL0     C13218   3.180   7.448   9.127 -0.4593 -0.0126 -0.2312
  101MOL0     C13219   3.052   7.489   9.157 -0.2629 -0.0281  0.8359
  101MOL0     C13220   2.929   7.412   9.123  0.4157  0.0642  0.7662
  101MOL0     C13221   2.915   7.290   9.216  0.0421  0.6903  0.0671
  101MOL0     C13222   2.838   7.174   9.137  0.4868 -0.3553  0.0384
  101MOL0     C13223   2.705   7.148   9.207 -0.6948 -0.0691  0.0088
  101MOL0     O13224   2.652   7.057   9.115 -0.0251  0.3341  0.3247
  101MOL0     C13225   2.518   7.031   9.123 -0.2245  0.3128 -0.4948
  101MOL0     C13226   2.470   6.944   9.025  0.2435 -0.5045  0.5264
  101MOL0     C13227   2.340   6.906   9.016 -0.3434 -0.3182 -0.2646
  101MOL0     C13228   2.247   6.951   9.114  0.1137 -0.8230  1.3686
  101MOL0     C13229   2.109   6.898   9.113  0.8293  0.3644  0.7957
  101MOL0     O13230   2.065   6.817   9.007  0.0206  0.0042  0.1946
  101MOL0     C13231   1.925   6.799   9.006 -0.1611 -0.1853 -0.6017
  101MOL0     C13232   1.829   6.903   8.992  0.1382  0.7235  0.2934
  101MOL0     C13233   1.693   6.873   8.981 -1.0603 -0.0059 -0.0428
  101MOL0     C13234   1.650   6.741   8.998  0.3791 -0.2646  0.1412
  101MOL0     O13235   1.518   6.695   8.999 -0.6204 -0.0544 -0.1057
  101MOL0     C13236   1.412   6.777   8.940 -0.3268 -1.6682 -0.5369
  101MOL0     C13237   1.278   6.701   8.934  0.1965  0.1936  0.5126
  101MOL0     C13238   1.154   6.783   8.886 -0.2132 -0.4222  0.6545
  101MOL0     C13239   1.021   6.705   8.882  0.2827  0.2231  0.5807
  101MOL0     C13240   0.900   6.794   8.882  0.8453  0.3622 -0.0933
  101MOL0     C13241   0.883   6.886   8.761 -0.4190 -0.0143  0.4916
  101MOL0     C13242   0.751   6.961   8.771  0.7855 -0.7595  0.2719
  101MOL0     C13243   0.782   7.106   8.800 -0.4727 -0.3801  0.0024
  101MOL0    Cl13244   0.623   7.192   8.800  0.0054 -0.1185  0.5750
  101MOL0     C13245   1.745   6.639   9.032  0.9505 -0.3197 -0.1917
  101MOL0     C13246   1.880   6.668   9.021  0.6286 -0.2110  0.6849
  101MOL0     O13247   2.031   6.929   9.209 -0.8573  0.3547  0.1913
  101MOL0     C13248   2.287   7.051   9.206  0.3920  0.1660 -0.2420
  101MOL0     C13249   2.420   7.093   9.210  0.0102  0.3072 -0.1977
  101MOL0     N13250   3.058   7.596   9.244  0.1181  1.0304 -1.0419
  101MOL0     N13251   3.185   7.615   9.279  0.4533 -0.1783  0.5167
  101MOL0     C13252   3.567   8.326   9.016 -0.3183  0.2754 -0.3903
  101MOL0     C13253   3.556   8.449   9.082  0.6206  0.3785 -0.3038
  101MOL0     C13254   3.563   8.801   9.304  0.6757 -0.0800  0.5356
  101MOL0     C13255   3.535   8.871   9.423 -0.8259 -0.6489 -0.4922
  101MOL0     C13256   3.490   8.994   9.422  0.9950  0.2166  0.3305
  101MOL0     C13257   3.461   9.056   9.300  0.8283  0.8902 -0.2772
  101MOL0     O13258   3.415   9.178   9.324 -0.4756  0.2742  0.3343
  101MOL0     C13259   3.304   9.235   9.250  0.7239  0.7272  0.0708
  101MOL0     C13260   3.279   9.375   9.298  0.1640  0.1420 -0.6481
  101MOL0     C13261   3.263   9.394   9.445 -0.2612 -0.5388 -0.2456
  101MOL0     C13262   3.243   9.541   9.476  0.4275 -0.4243 -0.1369
  101MOL0     C13263   3.227   9.558   9.627 -0.1062 -0.5472  0.3074
  101MOL0     C13264   3.215   9.583   9.744 -0.9438  0.1832 -0.1440
  101MOL0     C13265   3.484   8.992   9.177  0.2079  0.0844  0.3429
  101MOL0     C13266   3.535   8.867   9.180  0.2495 -0.7027 -0.0253
  101MOL0     H13267   3.893   8.496   9.127  0.5062 -1.4594  0.7854
  101MOL0     H13268   3.892   8.277   8.980 -0.8433 -0.1199 -3.0247
  101MOL0     H13269   3.742   7.995   9.030  0.8745  0.0857  0.6683
  101MOL0     H13270   3.869   8.090   8.941 -0.6607 -0.2560  0.8179
  101MOL0     H13271   3.826   7.876   8.848  0.9168 -1.2430 -2.3106
  101MOL0     H13272   3.813   7.998   8.740  0.3721 -0.6501 -0.4899
  101MOL0     H13273   3.642   7.810   8.732  2.9049 -0.9768  1.7218
  101MOL0     H13274   3.573   7.973   8.721  0.4343 -0.7455  0.2171
  101MOL0     H13275   3.527   7.939   8.987  0.1857 -0.7003  0.7751
  101MOL0     H13276   3.420   7.860   8.862  0.1356 -0.2060 -1.9378
  101MOL0     H13277   3.654   7.732   9.009 -0.5114 -1.5679  0.7886
  101MOL0     H13278   3.551   7.658   8.882 -1.4238 -1.4647  0.7607
  101MOL0     H13279   3.352   7.695   9.030  0.5859  0.5401  1.8998
  101MOL0     H13280   3.476   7.746   9.153  1.9405 -2.9231  2.3092
  101MOL0     H13281   3.471   7.462   9.026 -1.9029  2.0258 -1.7077
  101MOL0     H13282   3.587   7.524   9.148 -1.1709 -2.1019  1.0474
  101MOL0     H13283   3.432   7.556   9.311 -1.0086 -0.1408  1.2446
  101MOL0     H13284   3.423   7.388   9.252  2.0982 -0.6686 -0.8519
  101MOL0     H13285   3.195   7.361   9.063  0.1406  1.7313 -2.5857
  101MOL0     H13286   2.942   7.368   9.024  0.9798 -2.9287  2.0635
  101MOL0     H13287   2.841   7.476   9.134  0.6033  0.3841  0.4402
  101MOL0     H13288   2.869   7.312   9.313 -3.4206  1.1423 -1.5019
  101MOL0     H13289   3.018   7.255   9.225  0.3022  1.1866 -0.9413
  101MOL0     H13290   2.838   7.190   9.028  3.8642 -1.9692 -0.3165
  101MOL0     H13291   2.886   7.076   9.145  3.0940  0.6851 -1.5340
  101MOL0     H13292   2.645   7.240   9.211  0.5411  0.7029  2.9995
  101MOL0     H13293   2.711   7.104   9.307 -1.3263 -0.2956 -0.0450
  101MOL0     H13294   2.540   6.903   8.952  1.5595  0.4950  1.1898
  101MOL0     H13295   2.301   6.851   8.931 -3.5751  1.3835 -0.0437
  101MOL0     H13296   1.864   7.005   8.991 -0.1969  0.8592  1.1279
  101MOL0     H13297   1.616   6.948   8.969 -0.9199  0.0708 -0.4686
  101MOL0     H13298   1.435   6.802   8.836  0.3355 -0.4296 -0.1085
  101MOL0     H13299   1.410   6.869   8.998  0.7838 -2.3028  0.5651
  101MOL0     H13300   1.245   6.664   9.032  1.6441  1.6379  1.5910
  101MOL0     H13301   1.299   6.614   8.872 -1.7175 -0.5951  0.8652
  101MOL0     H13302   1.180   6.814   8.785  0.4972 -2.8545  0.0259
  101MOL0     H13303   1.143   6.861   8.962 -0.0495  0.8314 -0.5890
  101MOL0     H13304   1.021   6.635   8.798  2.1268  0.6392  0.1774
  101MOL0     H13305   0.999   6.647   8.972 -0.6396  0.5694  0.5800
  101MOL0     H13306   0.905   6.868   8.962 -0.2306 -1.3272  1.6224
  101MOL0     H13307   0.813   6.729   8.891 -0.3974  2.0908  1.0252
  101MOL0     H13308   0.869   6.825   8.671  1.0309 -2.8162  2.0257
  101MOL0     H13309   0.975   6.946   8.755  0.3832 -1.0835  1.5126
  101MOL0     H13310   0.690   6.953   8.681 -2.0594 -1.1200  2.1041
  101MOL0     H13311   0.696   6.915   8.853  1.8150  0.3519  1.6363
  101MOL0     H13312   0.849   7.151   8.726  2.9370 -1.6418  2.1092
  101MOL0     H13313   0.824   7.123   8.899  5.6115  1.5783 -2.4461
  101MOL0     H13314   1.701   6.543   9.057  0.0092  0.3700  0.8998
  101MOL0     H13315   1.962   6.599   9.036  0.7609  0.3190  2.7510
  101MOL0     H13316   2.220   7.084   9.285  0.1021 -1.4860  0.2558
  101MOL0     H13317   2.432   7.175   9.280 -2.1154  0.1059  0.4913
  101MOL0     H13318   3.480   8.268   8.987 -0.9171  0.2021  1.4019
  101MOL0     H13319   3.465   8.501   9.108  2.0141  2.1441  1.3681
  101MOL0     H13320   3.559   8.812   9.511 -0.9331 -1.8394 -1.2314
  101MOL0     H13321   3.477   9.041   9.519  2.1801  0.6161  0.3160
  101MOL0     H13322   3.223   9.168   9.278  0.3867  0.7391 -0.8429
  101MOL0     H13323   3.316   9.223   9.142  0.2458  1.4554 -0.0746
  101MOL0     H13324   3.373   9.422   9.268  0.7545 -1.5303 -1.5515
  101MOL0     H13325   3.193   9.417   9.245  0.8116 -0.0577 -1.8838
  101MOL0     H13326   3.356   9.368   9.497  0.3580  1.2956 -0.3867
  101MOL0     H13327   3.173   9.349   9.487 -1.1847 -0.5893 -2.1910
  101MOL0     H13328   3.333   9.601   9.458  0.4785  0.6371  3.0076
  101MOL0     H13329   3.154   9.584   9.429 -0.6721  0.3587  2.4814
  101MOL0     H13330   3.223   9.610   9.847 -2.2876  0.7312 -0.1640
  101MOL0     H13331   3.461   9.041   9.083 -4.8702 -1.2352  0.5796
  101MOL0     H13332   3.540   8.810   9.087 -0.9749 -0.1051 -0.4801
  102MOL0     O13333   7.622   5.149   4.032  0.0573 -0.5560  0.0367
  102MOL0     C13334   7.689   5.079   4.105  0.0239 -0.7876 -0.4018
  102MOL0     O13335   7.640   4.976   4.186  0.5204  0.0342 -0.7777
  102MOL0     C13336   7.501   4.970   4.193  0.3274  0.8654 -0.2470
  102MOL0     C13337   7.421   5.015   4.303 -1.2472  0.3740 -0.2806
  102MOL0     C13338   7.285   4.987   4.322  0.3376  0.0092 -0.2506
  102MOL0     C13339   7.221   4.918   4.220 -0.5654 -0.4422  0.2451
  102MOL0     O13340   7.089   4.900   4.246 -0.6536 -0.4987  0.8368
  102MOL0     C13341   7.002   4.912   4.134 -0.3918 -0.1744 -0.0434
  102MOL0     C13342   6.904   5.018   4.180 -0.8617 -0.2871 -0.1280
  102MOL0     C13343   6.817   4.972   4.304  0.0702  0.6489 -0.0376
  102MOL0     C13344   6.714   5.088   4.321 -0.1384 -0.0716 -0.4983
  102MOL0     C13345   6.636   5.078   4.459  0.1145  0.5959  0.4273
  102MOL0     C13346   6.543   5.194   4.488  0.1934 -0.6497  0.2492
  102MOL0     C13347   6.412   5.159   4.566 -0.1664  0.1679 -0.5822
  102MOL0     C13348   6.448   5.102   4.702  0.5317 -0.0316 -0.0028
  102MOL0     N13349   6.324   5.092   4.782  0.0592 -0.0276 -0.2082
  102MOL0     C13350   6.259   4.970   4.798  0.0079  0.0563 -0.8614
  102MOL0     C13351   6.179   4.995   4.904 -0.6511 -0.0959 -0.4101
  102MOL0     C13352   6.075   4.900   4.952 -0.6213  0.0596 -0.6397
  102MOL0     C13353   5.955   4.915   4.872  0.5320 -0.2050 -0.1147
  102MOL0     C13354   5.829   4.873   4.960  0.3977 -0.4972 -0.4286
  102MOL0     C13355   5.695   4.944   4.923  0.7933  0.0664  0.3974
  102MOL0     O13356   5.715   5.081   4.936 -0.0341  0.5563  0.0238
  102MOL0     C13357   5.605   5.152   4.897  0.0726 -0.3126 -0.2135
  102MOL0     C13358   5.470   5.105   4.883  1.1396 -0.4106  1.2092
  102MOL0     C13359   5.371   5.191   4.842 -0.3628 -0.2298  0.3618
  102MOL0     C13360   5.393   5.328   4.815 -0.5263 -0.4660 -0.3627
  102MOL0     C13361   5.283   5.408   4.766  0.8902 -0.8785  0.5568
  102MOL0     O13362   5.159   5.348   4.740  0.2855  0.4821 -0.0607
  102MOL0     C13363   5.044   5.426   4.730  0.0661  0.2609  0.2598
  102MOL0     C13364   5.024   5.558   4.780 -0.3859  0.0680 -0.9474
  102MOL0     C13365   4.892   5.609   4.780 -0.1621 -0.9718 -0.3944
  102MOL0     C13366   4.785   5.540   4.722  0.1697  0.6503 -0.7037
  102MOL0     O13367   4.676   5.615   4.721  0.2397 -0.0645 -0.1237
  102MOL0     C13368   4.548   5.551   4.736  0.0659  0.2641  0.1720
  102MOL0     C13369   4.457   5.616   4.842  0.1895 -0.3189  0.2012
  102MOL0     C13370   4.326   5.528   4.843 -0.5005 -0.1154 -0.5513
  102MOL0     C13371   4.216   5.634   4.879 -0.5646  0.5999  0.4529
  102MOL0     C13372   4.087   5.571   4.901  0.6776 -0.1504 -0.0453
  102MOL0     C13373   4.031   5.503   4.781  0.3314  0.4452  0.4161
  102MOL0     C13374   3.886   5.533   4.756  0.8746  0.3512 -0.0806
  102MOL0     C13375   3.825   5.435   4.656 -0.2647  0.0514 -0.3354
  102MOL0    Cl13376   3.650   5.437   4.686  0.2220  0.4201  0.2506
  102MOL0     C13377   4.805   5.408   4.671  0.2525 -0.3080  0.5423
  102MOL0     C13378   4.940   5.362   4.669  1.0511  0.2679 -0.7992
  102MOL0     O13379   5.307   5.532   4.754 -1.0748  0.0587 -0.3630
  102MOL0     C13380   5.525   5.373   4.826 -0.1181  0.0565  0.4917
  102MOL0     C13381   5.627   5.286   4.874 -0.0032  0.4030 -0.4353
  102MOL0     N13382   6.196   5.120   4.962  0.8946 -0.0171 -0.2268
  102MOL0     N13383   6.283   5.180   4.889 -0.3128  0.9174 -0.1475
  102MOL0     C13384   7.290   4.876   4.103  0.1858 -0.4047 -0.1921
  102MOL0     C13385   7.427   4.899   4.094  0.1521 -0.2775 -0.5122
  102MOL0     C13386   7.832   5.094   4.095  0.0146 -0.3641  0.7902
  102MOL0     C13387   7.888   5.168   3.984 -0.2813 -0.8080 -0.3212
  102MOL0     C13388   8.023   5.158   3.947  0.4235 -0.6274 -0.0656
  102MOL0     C13389   8.107   5.070   4.025 -0.0402  0.1309  0.5274
  102MOL0     O13390   8.249   5.063   4.011  0.5732 -0.4474 -0.5934
  102MOL0     C13391   8.313   5.177   3.953  0.0312  0.3402  0.5649
  102MOL0     C13392   8.329   5.286   4.062  0.0746  0.7049  1.0941
  102MOL0     C13393   8.381   5.423   4.013 -0.5618  0.1842 -0.1426
  102MOL0     C13394   8.276   5.486   3.906  0.0947 -0.0565  0.8794
  102MOL0     C13395   8.137   5.509   3.957 -0.8556 -0.6045  0.3020
  102MOL0     C13396   8.030   5.529   4.004  0.6479 -0.2921  0.6508
  102MOL0     C13397   8.053   4.997   4.140  0.2536 -0.5963 -0.7151
  102MOL0     C13398   7.913   5.018   4.178 -0.4666 -1.0089  0.5105
  102MOL0     H13399   7.463   5.083   4.376 -3.0473  0.6898  0.4944
  102MOL0     H13400   7.242   5.020   4.416  0.3355  1.0714 -0.6015
  102MOL0     H13401   6.950   4.819   4.110 -1.3006  0.2621  0.2110
  102MOL0     H13402   7.058   4.944   4.045  1.4471 -1.5713  0.5411
  102MOL0     H13403   6.848   5.051   4.092  0.9350  2.6605 -0.2869
  102MOL0     H13404   6.965   5.103   4.212 -2.4062  0.3733  1.2682
  102MOL0     H13405   6.873   4.967   4.399  0.0874 -2.2536 -0.1226
  102MOL0     H13406   6.767   4.876   4.291 -0.7708  0.8404  1.5012
  102MOL0     H13407   6.766   5.184   4.324 -1.6259  0.7266  0.9052
  102MOL0     H13408   6.641   5.081   4.240 -0.8583  1.9184 -0.0964
  102MOL0     H13409   6.703   5.072   4.545 -0.9283  1.9162  1.3886
  102MOL0     H13410   6.584   4.983   4.449  0.8176  0.2467  0.0455
  102MOL0     H13411   6.518   5.239   4.391 -2.0479  0.8504  1.4272
  102MOL0     H13412   6.606   5.271   4.533 -0.6015  0.5091 -0.5628
  102MOL0     H13413   6.347   5.245   4.587 -1.2674 -0.6169 -0.6891
  102MOL0     H13414   6.342   5.096   4.511  0.9077 -0.7102 -0.9794
  102MOL0     H13415   6.517   5.177   4.740  0.1481  1.6039 -2.3369
  102MOL0     H13416   6.494   5.004   4.691  1.8970  0.6727 -0.8039
  102MOL0     H13417   6.278   4.878   4.743  3.1673  0.0227  0.0893
  102MOL0     H13418   6.065   4.927   5.058 -0.0614  0.7093 -0.7494
  102MOL0     H13419   6.118   4.800   4.942 -2.7021 -0.8499 -0.9801
  102MOL0     H13420   5.969   4.841   4.792  0.2371 -1.1422  0.6788
  102MOL0     H13421   5.945   5.019   4.839  1.1105  0.3551  1.3644
  102MOL0     H13422   5.818   4.765   4.953 -2.2094 -0.3949  0.8274
  102MOL0     H13423   5.849   4.910   5.061  1.6449 -0.9405 -0.4956
  102MOL0     H13424   5.608   4.906   4.979 -2.1707  1.6134 -2.7949
  102MOL0     H13425   5.676   4.915   4.819 -5.2569 -0.1349  1.2048
  102MOL0     H13426   5.446   5.003   4.911  0.6589 -0.9981 -1.0696
  102MOL0     H13427   5.266   5.163   4.831 -0.4964 -0.3933  1.9002
  102MOL0     H13428   5.096   5.623   4.830  1.0944 -0.8300 -1.8189
  102MOL0     H13429   4.879   5.713   4.807  2.1667 -1.3814  2.8856
  102MOL0     H13430   4.554   5.442   4.744 -4.5715 -0.4411 -2.7156
  102MOL0     H13431   4.497   5.559   4.640 -0.9352 -2.0281  0.4543
  102MOL0     H13432   4.440   5.720   4.814 -1.0921 -0.2637  1.1047
  102MOL0     H13433   4.505   5.624   4.940  0.9825 -1.3948 -0.0849
  102MOL0     H13434   4.323   5.447   4.916  0.0994 -1.1262 -1.6006
  102MOL0     H13435   4.307   5.482   4.745 -1.2709  0.5100 -0.7026
  102MOL0     H13436   4.240   5.682   4.975 -1.4979  2.2205 -0.0812
  102MOL0     H13437   4.199   5.720   4.813  1.6438  0.9744  0.2768
  102MOL0     H13438   4.014   5.644   4.938 -0.7091 -0.7791 -1.4529
  102MOL0     H13439   4.090   5.494   4.979 -1.5476 -0.4503 -0.1820
  102MOL0     H13440   4.048   5.395   4.783  0.5532  0.4561 -0.5470
  102MOL0     H13441   4.087   5.536   4.693 -0.4509  3.2662  0.8757
  102MOL0     H13442   3.834   5.508   4.849 -0.2698 -5.5120 -1.9225
  102MOL0     H13443   3.872   5.634   4.717  1.3516 -0.0940 -1.4688
  102MOL0     H13444   3.862   5.332   4.663 -2.4952 -0.8917 -1.3382
  102MOL0     H13445   3.851   5.458   4.553  2.5608 -2.1766 -0.2459
  102MOL0     H13446   4.731   5.353   4.612  1.2741  1.1316 -2.2616
  102MOL0     H13447   4.970   5.271   4.619 -1.8406  0.2001 -2.6441
  102MOL0     H13448   5.553   5.475   4.803 -1.9278  0.8259  1.5289
  102MOL0     H13449   5.723   5.332   4.891  0.7838 -0.5847 -1.9021
  102MOL0     H13450   7.234   4.831   4.022  1.5287 -0.6265 -1.0204
  102MOL0     H13451   7.487   4.865   4.010  2.2856  0.9754  0.4241
  102MOL0     H13452   7.824   5.227   3.920 -0.0403  2.2389  2.0199
  102MOL0     H13453   8.059   5.213   3.860  0.7389  1.8145  1.5044
  102MOL0     H13454   8.257   5.211   3.866 -0.3549 -0.4626  0.4925
  102MOL0     H13455   8.410   5.146   3.913 -0.2646 -0.4122  0.4116
  102MOL0     H13456   8.237   5.304   4.118 -1.2476  2.0705 -1.3581
  102MOL0     H13457   8.399   5.239   4.132  1.8331  0.5181 -0.6925
  102MOL0     H13458   8.485   5.410   3.981 -0.7608  0.2259 -0.8137
  102MOL0     H13459   8.380   5.502   4.090  0.9454 -0.3542  0.4767
  102MOL0     H13460   8.315   5.584   3.877  2.1577 -0.8703  0.6838
  102MOL0     H13461   8.269   5.421   3.819  0.3474  3.3194 -1.8770
  102MOL0     H13462   7.937   5.545   4.055  2.2270  3.2789  2.7916
  102MOL0     H13463   8.111   4.928   4.201  1.8448  1.1144 -0.2160
  102MOL0     H13464   7.866   4.961   4.257 -1.7672 -1.1133 -0.3046
  103MOL0     O13465  10.996   8.338  11.033 -0.4405  0.0845  0.2664
  103MOL0     C13466  11.088   8.282  10.978 -1.0767 -0.0030  0.4958
  103MOL0     O13467  11.070   8.190  10.876 -0.6180  0.8568  0.4669
  103MOL0     C13468  10.942   8.172  10.821  0.1184 -0.0907 -0.4449
  103MOL0     C13469  10.936   8.187  10.685  1.1062 -0.1966  0.8751
  103MOL0     C13470  10.808   8.166  10.623  0.6871  0.8543  0.0391
  103MOL0     C13471  10.697   8.117  10.700  0.1881 -0.5717  0.0722
  103MOL0     O13472  10.575   8.106  10.632 -0.1465  0.3180 -0.5216
  103MOL0     C13473  10.456   8.125  10.718  0.2191  0.7773  0.9778
  103MOL0     C13474  10.332   8.157  10.639 -0.2742 -0.8082 -0.0283
  103MOL0     C13475  10.194   8.138  10.721  0.1734 -0.9697  0.3579
  103MOL0     C13476  10.082   8.111  10.624 -1.0047  1.1034 -0.4030
  103MOL0     C13477   9.941   8.107  10.682  0.4694  0.0420  0.3619
  103MOL0     C13478   9.838   8.134  10.573  0.3596  0.3190  0.2799
  103MOL0     C13479   9.698   8.091  10.612 -0.0050 -0.3746 -0.5002
  103MOL0     C13480   9.600   8.136  10.506  0.5224 -0.4273  0.7253
  103MOL0     N13481   9.467   8.081  10.527  0.5632  0.0883  0.1431
  103MOL0     C13482   9.364   8.132  10.605  0.3874  0.1812  0.3580
  103MOL0     C13483   9.274   8.033  10.617 -0.8550  0.4645 -0.4451
  103MOL0     C13484   9.157   8.056  10.694  0.1357 -0.1279 -0.5467
  103MOL0     C13485   9.041   8.129  10.627  0.1459 -0.2977  0.1542
  103MOL0     C13486   8.970   8.022  10.528  0.2933 -0.6459 -0.5642
  103MOL0     C13487   8.831   8.076  10.472 -0.4831 -0.0010 -1.2971
  103MOL0     O13488   8.741   8.124  10.570  0.7580 -0.2512 -0.6085
  103MOL0     C13489   8.627   8.185  10.529  0.3097  0.5443  0.1728
  103MOL0     C13490   8.608   8.239  10.400  1.1853 -0.4498  1.0505
  103MOL0     C13491   8.483   8.297  10.362  0.5626  0.0562 -0.1602
  103MOL0     C13492   8.385   8.309  10.464  0.3867 -0.0074 -0.1922
  103MOL0     C13493   8.256   8.374  10.433 -0.1422  0.3132  0.2823
  103MOL0     O13494   8.160   8.382  10.531  0.0410 -0.3149  0.6280
  103MOL0     C13495   8.028   8.390  10.490 -0.6341  1.2989  0.1573
  103MOL0     C13496   7.959   8.318  10.388  0.3424  0.5111  0.0433
  103MOL0     C13497   7.824   8.339  10.365  0.7512  0.8434  0.3296
  103MOL0     C13498   7.744   8.428  10.441  0.0419 -0.2904  0.1913
  103MOL0     O13499   7.616   8.474  10.410 -0.1794  0.5778  0.6183
  103MOL0     C13500   7.547   8.377  10.335 -0.0812 -0.4704  0.0253
  103MOL0     C13501   7.397   8.399  10.349  0.0062  0.1850 -0.6249
  103MOL0     C13502   7.327   8.523  10.298 -0.2760 -0.4496 -0.3448
  103MOL0     C13503   7.199   8.560  10.382  0.2166 -0.3904 -0.5566
  103MOL0     C13504   7.143   8.689  10.333 -0.0165  0.2823 -0.4602
  103MOL0     C13505   7.044   8.690  10.223 -0.7420  0.3345  0.8274
  103MOL0     C13506   6.938   8.578  10.248  0.3341  0.0904  0.4677
  103MOL0     C13507   6.804   8.611  10.185  0.2797 -0.2573 -0.2772
  103MOL0    Cl13508   6.751   8.769  10.235 -0.0034  0.2673 -0.3108
  103MOL0     C13509   7.813   8.483  10.549 -0.2682  0.0371  0.4489
  103MOL0     C13510   7.945   8.466  10.578  1.0329  0.3108  0.7729
  103MOL0     O13511   8.245   8.412  10.318 -0.3707  0.4120 -0.3660
  103MOL0     C13512   8.410   8.253  10.585  0.2353 -0.0812 -0.8114
  103MOL0     C13513   8.528   8.200  10.624  0.0865  1.0380 -0.2758
  103MOL0     N13514   9.325   7.919  10.550  0.4037 -0.5097 -0.4616
  103MOL0     N13515   9.432   7.955  10.487  0.0345 -1.0652 -0.4138
  103MOL0     C13516  10.714   8.108  10.837 -0.5051 -0.5560 -0.6460
  103MOL0     C13517  10.839   8.135  10.901 -0.1121  0.5698  0.3434
  103MOL0     C13518  11.233   8.320  11.023  0.1279  0.2570  0.6059
  103MOL0     C13519  11.264   8.399  11.130 -0.0389  0.2428  0.5550
  103MOL0     C13520  11.393   8.440  11.162 -0.6633 -0.9264  0.7879
  103MOL0     C13521  11.498   8.407  11.076 -1.3719  0.6292  0.0550
  103MOL0     O13522  11.631   8.434  11.107  0.2578  0.4672  0.2875
  103MOL0     C13523  11.674   8.413  11.244 -0.2689 -0.5564  0.5559
  103MOL0     C13524  11.669   8.259  11.268  0.5840  0.5122 -0.3253
  103MOL0     C13525  11.766   8.220  11.381 -0.1302 -0.2708 -0.1977
  103MOL0     C13526  11.773   8.073  11.407 -0.1308  0.6920 -0.1879
  103MOL0     C13527  11.856   8.047  11.530  0.2598  0.0913 -1.0583
  103MOL0     C13528  11.937   8.048  11.624  0.6231  0.5400 -0.5172
  103MOL0     C13529  11.475   8.347  10.950  0.2120 -0.5873 -0.3746
  103MOL0     C13530  11.345   8.297  10.934  0.4203 -0.9964  0.7735
  103MOL0     H13531  11.019   8.205  10.618  0.3005 -2.9215 -1.0150
  103MOL0     H13532  10.799   8.182  10.516 -1.3404 -0.5961 -0.0558
  103MOL0     H13533  10.469   8.209  10.786 -1.1356  0.2533  1.9211
  103MOL0     H13534  10.431   8.032  10.770  0.8520 -0.0485 -0.1383
  103MOL0     H13535  10.324   8.092  10.552 -1.1756 -0.8930  0.1036
  103MOL0     H13536  10.328   8.262  10.606 -2.4188 -0.0187  2.3568
  103MOL0     H13537  10.192   8.235  10.772  1.9355 -0.8222  0.2073
  103MOL0     H13538  10.215   8.059  10.795  0.3453  1.0932  2.6393
  103MOL0     H13539  10.077   8.178  10.538 -1.2519 -1.2022 -2.2959
  103MOL0     H13540  10.107   8.015  10.578 -2.3125  1.4770 -1.9591
  103MOL0     H13541   9.935   8.183  10.761  1.3084  2.3617 -1.6600
  103MOL0     H13542   9.933   8.010  10.732  2.6252  0.0567  0.7982
  103MOL0     H13543   9.875   8.090  10.480  0.1803  1.8716 -0.5617
  103MOL0     H13544   9.830   8.238  10.541  3.4923 -0.2859 -3.1662
  103MOL0     H13545   9.696   7.983  10.631 -0.4926  0.0038  1.9110
  103MOL0     H13546   9.668   8.131  10.709 -0.1441  0.5965 -0.9351
  103MOL0     H13547   9.638   8.111  10.407 -2.5393 -1.3790 -0.3285
  103MOL0     H13548   9.591   8.244  10.494  1.0398 -0.4139  0.4062
  103MOL0     H13549   9.351   8.227  10.656 -0.8262  0.3080 -0.1383
  103MOL0     H13550   9.175   8.101  10.792  1.0026 -2.3466  0.3815
  103MOL0     H13551   9.108   7.963  10.723 -0.6260 -0.4063 -2.5418
  103MOL0     H13552   9.082   8.214  10.572 -2.2945  0.3802 -0.7395
  103MOL0     H13553   8.971   8.166  10.703  1.3491 -1.5185  1.9283
  103MOL0     H13554   9.038   8.009  10.443 -0.0844 -2.0066 -0.6820
  103MOL0     H13555   8.952   7.925  10.574  0.6689 -0.7006 -0.5244
  103MOL0     H13556   8.788   7.990  10.419  3.2760  0.0948 -5.0413
  103MOL0     H13557   8.858   8.146  10.392 -1.6117 -0.5197 -2.1489
  103MOL0     H13558   8.675   8.234  10.315 -0.8764 -0.9769 -0.6112
  103MOL0     H13559   8.469   8.351  10.269 -0.5741 -1.0040 -0.6362
  103MOL0     H13560   8.003   8.246  10.319  1.2538  1.2661 -0.1962
  103MOL0     H13561   7.782   8.286  10.280 -1.2479  3.5812 -0.5443
  103MOL0     H13562   7.561   8.275  10.371  1.5094 -0.7236 -1.1841
  103MOL0     H13563   7.577   8.389  10.230 -1.2096  2.0272 -0.0862
  103MOL0     H13564   7.386   8.380  10.456  2.8377 -3.0400 -0.7135
  103MOL0     H13565   7.343   8.324  10.291  0.4101  0.1345 -0.9404
  103MOL0     H13566   7.306   8.505  10.192  3.1938  0.9186 -1.3959
  103MOL0     H13567   7.398   8.606  10.305 -0.1751 -0.6724  1.6335
  103MOL0     H13568   7.132   8.474  10.391  0.7108 -0.5526  3.9645
  103MOL0     H13569   7.219   8.577  10.488  1.0570 -1.1649 -0.5793
  103MOL0     H13570   7.227   8.751  10.301 -0.0856  0.5151 -0.1980
  103MOL0     H13571   7.108   8.751  10.417  0.4505 -0.1727  0.0810
  103MOL0     H13572   7.097   8.660  10.133 -2.3390  1.5722 -0.6014
  103MOL0     H13573   7.005   8.792  10.214 -0.0399  0.7363  2.0252
  103MOL0     H13574   6.983   8.495  10.193  1.1723  1.4900 -1.0661
  103MOL0     H13575   6.920   8.563  10.355  0.0362 -1.6842  0.2034
  103MOL0     H13576   6.743   8.524  10.211  2.7827 -1.4185  2.3002
  103MOL0     H13577   6.804   8.618  10.075  1.4890  1.5252 -0.2047
  103MOL0     H13578   7.764   8.547  10.623  1.5626  2.6291 -0.4217
  103MOL0     H13579   8.000   8.508  10.662  2.2315  2.6931 -1.1076
  103MOL0     H13580   8.334   8.269  10.661 -0.9038  3.1895 -2.4211
  103MOL0     H13581   8.541   8.168  10.727  1.4141  0.0695 -0.7201
  103MOL0     H13582  10.623   8.096  10.894 -1.7708  1.6911 -2.0361
  103MOL0     H13583  10.838   8.134  11.010 -0.5464  2.9450  0.4179
  103MOL0     H13584  11.183   8.428  11.196 -0.8632  2.2314 -1.2330
  103MOL0     H13585  11.408   8.498  11.253  0.3999 -1.4445  0.9635
  103MOL0     H13586  11.605   8.466  11.311  1.6825 -0.9114  2.9845
  103MOL0     H13587  11.773   8.454  11.266 -0.0557  0.0537 -1.4101
  103MOL0     H13588  11.567   8.228  11.292  0.1803  1.8820 -0.1947
  103MOL0     H13589  11.698   8.201  11.179  0.6493 -0.3766  0.2655
  103MOL0     H13590  11.735   8.270  11.473  0.4476 -2.0274  1.0137
  103MOL0     H13591  11.867   8.254  11.352 -0.2135  0.3388  0.2009
  103MOL0     H13592  11.671   8.037  11.420 -0.5059  1.8224  0.1457
  103MOL0     H13593  11.815   8.026  11.317  0.1045  0.0936  0.2260
  103MOL0     H13594  11.992   8.016  11.710 -0.5809  1.2043  0.5349
  103MOL0     H13595  11.535   8.342  10.859 -1.1981  0.2577 -1.3862
  103MOL0     H13596  11.312   8.248  10.843  3.4074  2.2121 -2.3479
  104MOL0     O13597  10.581   3.899   3.106 -0.3366  0.1151  0.4922
  104MOL0     C13598  10.591   3.876   3.223  0.1159 -0.3258 -1.0341
  104MOL0     O13599  10.700   3.898   3.302  0.4513  0.0766  0.3746
  104MOL0     C13600  10.780   4.000   3.278 -0.6220 -0.8923 -0.6129
  104MOL0     C13601  10.875   3.991   3.169 -0.3332 -0.3045  0.2331
  104MOL0     C13602  10.976   4.100   3.149  0.6788 -0.6711 -0.1745
  104MOL0     C13603  10.980   4.212   3.238 -0.7188  0.0040  0.2814
  104MOL0     O13604  11.067   4.311   3.222  0.4805 -0.3491 -0.0849
  104MOL0     C13605  11.151   4.319   3.108  0.1439 -0.2407 -0.1356
  104MOL0     C13606  11.223   4.452   3.107  0.3948  0.2088  0.3579
  104MOL0     C13607  11.348   4.439   3.016 -0.0722  1.0054  0.4262
  104MOL0     C13608  11.415   4.579   2.994  0.1167  0.4191 -0.1656
  104MOL0     C13609  11.552   4.567   2.937 -0.2578 -0.4356  0.3866
  104MOL0     C13610  11.561   4.548   2.789 -0.9022  0.6710  0.5317
  104MOL0     C13611  11.709   4.539   2.738  0.3503  0.1410  0.6194
  104MOL0     C13612  11.776   4.669   2.714 -0.3956 -0.4005  0.7640
  104MOL0     N13613  11.924   4.662   2.701  0.3833 -0.3196  0.2555
  104MOL0     C13614  11.987   4.696   2.590 -1.1219  0.6574 -0.1445
  104MOL0     C13615  12.119   4.667   2.617 -0.3426  0.2006 -0.6102
  104MOL0     C13616  12.236   4.698   2.531  0.4745 -0.2166  0.5962
  104MOL0     C13617  12.191   4.691   2.381 -0.3061 -0.4490 -0.0746
  104MOL0     C13618  12.130   4.554   2.339  0.5484  0.7329  0.8410
  104MOL0     C13619  12.076   4.576   2.197 -0.4383  0.5878  0.6436
  104MOL0     O13620  11.967   4.673   2.208  0.1122 -0.1634 -0.3405
  104MOL0     C13621  11.839   4.641   2.255 -0.7940  0.2743  0.5944
  104MOL0     C13622  11.744   4.741   2.280  0.6712 -0.5409  0.5243
  104MOL0     C13623  11.631   4.706   2.353  0.1010  0.4288 -0.3829
  104MOL0     C13624  11.586   4.576   2.378 -0.6566 -0.6955  0.7058
  104MOL0     C13625  11.447   4.557   2.436  0.2861  0.8407 -0.1491
  104MOL0     O13626  11.397   4.426   2.437  0.4838  0.5800  1.0415
  104MOL0     C13627  11.272   4.401   2.497  0.0947 -1.2879  0.3201
  104MOL0     C13628  11.209   4.470   2.607 -0.4989 -0.9707  0.1798
  104MOL0     C13629  11.097   4.420   2.676 -0.7029 -0.4590  0.3154
  104MOL0     C13630  11.048   4.284   2.659  0.1795  0.1532  0.1374
  104MOL0     O13631  10.940   4.226   2.714  0.2904 -0.2382  0.0851
  104MOL0     C13632  10.849   4.313   2.798 -0.7480  0.2545 -0.2314
  104MOL0     C13633  10.725   4.226   2.813  0.0849 -0.7475 -0.0870
  104MOL0     C13634  10.637   4.275   2.927  0.9960 -0.0851 -0.5951
  104MOL0     C13635  10.499   4.203   2.930 -0.5698  0.0205 -0.3957
  104MOL0     C13636  10.438   4.267   3.050  0.7810  0.1741 -0.6952
  104MOL0     C13637  10.298   4.218   3.061  0.5514  0.0811 -0.0029
  104MOL0     C13638  10.198   4.289   3.149  0.0081 -0.6133  0.1168
  104MOL0     C13639  10.258   4.343   3.283  0.4527 -0.2780 -0.0392
  104MOL0    Cl13640  10.320   4.213   3.389 -0.1493  0.2644 -0.1579
  104MOL0     C13641  11.122   4.215   2.560  0.5324 -0.6116  0.0941
  104MOL0     C13642  11.219   4.275   2.473 -0.3681  0.0672 -0.2733
  104MOL0     O13643  11.384   4.652   2.474 -0.3183  0.7363  0.8333
  104MOL0     C13644  11.676   4.477   2.328  0.1166  0.5561  0.9392
  104MOL0     C13645  11.798   4.506   2.275  0.5027  1.0141 -0.2653
  104MOL0     N13646  12.129   4.607   2.742  0.1779 -0.0634 -0.0034
  104MOL0     N13647  12.011   4.617   2.797  0.3497  0.4859 -0.0331
  104MOL0     C13648  10.878   4.219   3.335  0.2564  0.3128 -0.1558
  104MOL0     C13649  10.781   4.117   3.358 -1.2920  0.3125  0.0875
  104MOL0     C13650  10.482   3.794   3.287  0.3201 -0.5454 -0.2053
  104MOL0     C13651  10.383   3.730   3.208  0.0283  0.0988 -1.0237
  104MOL0     C13652  10.285   3.649   3.266 -0.0704 -0.3318  1.2380
  104MOL0     C13653  10.288   3.610   3.401  0.3135  0.9543  0.1993
  104MOL0     O13654  10.197   3.517   3.447 -0.0279 -0.4509  0.4181
  104MOL0     C13655  10.210   3.465   3.580  0.1293  0.3669 -0.3543
  104MOL0     C13656  10.159   3.548   3.702 -0.3953 -0.6118  0.0274
  104MOL0     C13657  10.014   3.596   3.684 -0.2367  0.0125 -0.0638
  104MOL0     C13658   9.913   3.481   3.651 -0.5132 -0.0466  0.9682
  104MOL0     C13659   9.780   3.532   3.629 -0.6734  0.0622  0.1562
  104MOL0     C13660   9.664   3.570   3.621 -0.0346  0.1288  0.4291
  104MOL0     C13661  10.377   3.680   3.478  0.0524  0.2457 -0.0747
  104MOL0     C13662  10.467   3.776   3.422  0.1645 -0.1649 -0.3328
  104MOL0     H13663  10.891   3.902   3.110  0.8895 -0.6426  1.0295
  104MOL0     H13664  11.050   4.088   3.071  2.4625  1.1551  1.1106
  104MOL0     H13665  11.092   4.317   3.016  0.0286  2.8497 -0.2354
  104MOL0     H13666  11.216   4.231   3.113 -0.7372 -1.0727 -2.0951
  104MOL0     H13667  11.268   4.478   3.204 -0.3535 -0.1923  0.8183
  104MOL0     H13668  11.151   4.529   3.078  1.3932  0.2852 -2.1717
  104MOL0     H13669  11.319   4.387   2.925  0.1122  1.1831  0.2652
  104MOL0     H13670  11.428   4.372   3.050  0.5433  1.2368 -0.5513
  104MOL0     H13671  11.359   4.644   2.926  1.2740 -0.2405 -1.8007
  104MOL0     H13672  11.426   4.623   3.094  1.3988 -0.9688  0.3458
  104MOL0     H13673  11.612   4.482   2.971  1.4028  0.4065 -0.2963
  104MOL0     H13674  11.608   4.661   2.948 -0.3098 -0.2912 -0.4635
  104MOL0     H13675  11.512   4.631   2.737 -1.1582 -0.0322 -0.3783
  104MOL0     H13676  11.510   4.457   2.756  2.5792  0.1431 -4.5736
  104MOL0     H13677  11.778   4.472   2.791 -1.7905  0.2877  3.7900
  104MOL0     H13678  11.710   4.496   2.637 -0.7336 -0.0031  0.6632
  104MOL0     H13679  11.749   4.737   2.795 -2.8161  0.3879 -0.5753
  104MOL0     H13680  11.728   4.716   2.627 -2.2561 -2.4102  0.6033
  104MOL0     H13681  11.939   4.745   2.506  1.3307 -0.3135 -2.2244
  104MOL0     H13682  12.313   4.622   2.550  1.2779  0.0527 -1.3459
  104MOL0     H13683  12.283   4.796   2.546  4.8685 -1.8370 -0.8947
  104MOL0     H13684  12.272   4.720   2.313 -2.2051 -0.1969 -2.3720
  104MOL0     H13685  12.114   4.769   2.383  0.8075  0.6798 -0.4470
  104MOL0     H13686  12.203   4.473   2.332  0.3261  0.6651 -1.6435
  104MOL0     H13687  12.044   4.527   2.400  0.6340  0.6257  0.9153
  104MOL0     H13688  12.050   4.478   2.155  0.7339  0.1320  0.9459
  104MOL0     H13689  12.146   4.615   2.123 -0.2243 -0.6290  0.1894
  104MOL0     H13690  11.761   4.848   2.269 -1.8579  0.2942  3.3775
  104MOL0     H13691  11.565   4.789   2.378 -0.2565  0.0109  0.0919
  104MOL0     H13692  11.255   4.561   2.643 -2.8321  2.5455 -4.6124
  104MOL0     H13693  11.041   4.486   2.741 -0.1970 -3.2522  3.9146
  104MOL0     H13694  10.833   4.412   2.754 -0.6301  0.4303  0.1120
  104MOL0     H13695  10.902   4.334   2.891 -1.5760  2.0937 -0.1383
  104MOL0     H13696  10.760   4.122   2.818  3.0770 -0.0762 -3.3422
  104MOL0     H13697  10.667   4.233   2.720  0.5970  0.4764 -0.3342
  104MOL0     H13698  10.631   4.384   2.921 -2.1275  0.0577  2.1129
  104MOL0     H13699  10.690   4.253   3.020  0.1243 -0.0846 -0.0825
  104MOL0     H13700  10.449   4.234   2.838  0.2665  2.3817 -0.1153
  104MOL0     H13701  10.514   4.095   2.938  2.7205  0.4157  0.0500
  104MOL0     H13702  10.440   4.376   3.047  1.4904  0.2445  1.0203
  104MOL0     H13703  10.493   4.248   3.143 -0.3844 -2.4119 -0.4534
  104MOL0     H13704  10.299   4.112   3.087 -2.4744 -0.1443 -0.4000
  104MOL0     H13705  10.250   4.213   2.963  0.2232  2.2162  0.0023
  104MOL0     H13706  10.146   4.371   3.098 -2.5082 -1.9470  0.3813
  104MOL0     H13707  10.116   4.220   3.169 -1.0608  0.3304 -0.8488
  104MOL0     H13708  10.180   4.397   3.337  1.4588 -1.2190  2.5018
  104MOL0     H13709  10.340   4.414   3.266  0.6776 -0.0679  1.6862
  104MOL0     H13710  11.092   4.113   2.538  1.5302 -0.5552 -1.6897
  104MOL0     H13711  11.266   4.204   2.405  1.6577  1.1271 -0.0473
  104MOL0     H13712  11.662   4.370   2.339  3.1652 -0.2157 -1.4428
  104MOL0     H13713  11.863   4.419   2.264  0.4662  0.5718  2.3296
  104MOL0     H13714  10.880   4.291   3.416 -0.9494  0.5766 -0.3342
  104MOL0     H13715  10.711   4.126   3.440  0.9515  0.6576  2.0992
  104MOL0     H13716  10.385   3.749   3.102  0.2934 -0.1770 -1.0701
  104MOL0     H13717  10.209   3.605   3.202  1.8709  0.0967 -1.5165
  104MOL0     H13718  10.316   3.445   3.596  0.0979 -0.4133 -1.0436
  104MOL0     H13719  10.158   3.369   3.582  2.6962 -1.0969  0.4996
  104MOL0     H13720  10.168   3.485   3.791 -0.6720  2.0458  2.0602
  104MOL0     H13721  10.219   3.637   3.724  0.5780 -0.2810 -3.2884
  104MOL0     H13722   9.999   3.673   3.607 -2.1588  0.8260  1.0612
  104MOL0     H13723   9.969   3.646   3.770 -1.0910 -0.6023 -0.1338
  104MOL0     H13724   9.943   3.428   3.560  1.3482  2.2529  0.1402
  104MOL0     H13725   9.899   3.411   3.735 -0.5265 -1.8984 -0.5076
  104MOL0     H13726   9.566   3.614   3.625  0.5527  1.4753  0.5728
  104MOL0     H13727  10.392   3.653   3.582 -1.5814  0.3055  0.2030
  104MOL0     H13728  10.539   3.825   3.487  0.3008  0.5814 -1.0228
  105MOL0     O13729   3.857   3.845   4.493  0.4653 -0.0793 -0.2130
  105MOL0     C13730   3.915   3.848   4.602  0.4045 -0.4211 -0.0471
  105MOL0     O13731   3.862   3.806   4.722 -0.0897 -0.1550 -0.2247
  105MOL0     C13732   3.728   3.759   4.740  0.2868 -0.0686  0.1655
  105MOL0     C13733   3.646   3.712   4.635  0.0823 -0.2380 -0.1348
  105MOL0     C13734   3.518   3.675   4.659 -0.4487  0.6263  0.1069
  105MOL0     C13735   3.468   3.671   4.784  0.5290  0.0789  0.0831
  105MOL0     O13736   3.344   3.631   4.816 -0.1117  0.5493 -0.1813
  105MOL0     C13737   3.278   3.518   4.754  0.2231 -0.5669 -0.4817
  105MOL0     C13738   3.233   3.429   4.871  0.2397 -1.1440  0.2399
  105MOL0     C13739   3.131   3.328   4.834 -0.1560  0.4021  0.8506
  105MOL0     C13740   3.181   3.218   4.736  0.2669  0.4602 -0.4465
  105MOL0     C13741   3.075   3.105   4.707 -0.1834 -0.1677 -0.5165
  105MOL0     C13742   3.013   3.039   4.841  0.3819 -0.4043  0.1048
  105MOL0     C13743   2.922   2.916   4.806 -0.0851  0.5427  0.5234
  105MOL0     C13744   2.788   2.952   4.722 -0.5269  0.1137 -0.3739
  105MOL0     N13745   2.707   3.043   4.802 -0.2187 -0.0043  0.3682
  105MOL0     C13746   2.607   2.999   4.879  0.7825  0.2577  0.5063
  105MOL0     C13747   2.549   3.120   4.922 -0.5973  1.1881 -0.2677
  105MOL0     C13748   2.421   3.139   4.997 -0.0221 -0.9292 -1.1890
  105MOL0     C13749   2.326   3.023   4.987 -0.1376  0.0754  0.2165
  105MOL0     C13750   2.199   3.055   5.075 -0.6870  0.1489  0.1614
  105MOL0     C13751   2.093   2.957   5.061  0.1753 -0.0709 -0.0267
  105MOL0     O13752   1.989   2.982   5.155  0.4389 -0.6539 -0.0445
  105MOL0     C13753   1.901   2.883   5.195  1.7597 -0.2303  0.1380
  105MOL0     C13754   1.774   2.913   5.237 -0.2318 -0.1074  1.1624
  105MOL0     C13755   1.676   2.818   5.246  0.2840 -0.2986 -0.8048
  105MOL0     C13756   1.706   2.683   5.239 -0.4904 -0.1797  1.1755
  105MOL0     C13757   1.602   2.573   5.258  0.0630 -0.6705 -0.0937
  105MOL0     O13758   1.472   2.616   5.262  0.2571  0.0795 -0.0903
  105MOL0     C13759   1.372   2.535   5.306 -0.2976 -0.6438 -0.1796
  105MOL0     C13760   1.264   2.528   5.227  0.2984  0.1471 -0.0807
  105MOL0     C13761   1.161   2.442   5.273  0.2226  0.0442  0.0682
  105MOL0     C13762   1.164   2.380   5.401 -0.6777 -0.2351  0.2523
  105MOL0     O13763   1.058   2.298   5.451 -0.2384 -0.3869 -0.1244
  105MOL0     C13764   0.960   2.251   5.358  0.6077 -0.3474 -0.2974
  105MOL0     C13765   0.870   2.161   5.436  0.5243  0.3681 -0.3399
  105MOL0     C13766   0.766   2.105   5.343 -0.1382 -0.0593  0.5947
  105MOL0     C13767   0.649   2.034   5.419 -1.3167  0.2812  0.5526
  105MOL0     C13768   0.560   1.971   5.322 -0.1184  0.3922 -0.2314
  105MOL0     C13769   0.445   1.898   5.397  0.0856 -0.7280  0.5389
  105MOL0     C13770   0.317   1.967   5.343  0.0755  0.1702  0.1131
  105MOL0     C13771   0.191   1.918   5.407  0.1642 -0.0050 -0.1681
  105MOL0    Cl13772   0.188   1.934   5.580 -0.0749  0.1415  0.0661
  105MOL0     C13773   1.272   2.401   5.483  0.3934 -0.4845  0.1028
  105MOL0     C13774   1.375   2.482   5.438 -0.2960  0.3207  0.1343
  105MOL0     O13775   1.644   2.465   5.276  0.2404 -0.3850 -0.7356
  105MOL0     C13776   1.841   2.647   5.236 -0.7720  0.3668 -0.5354
  105MOL0     C13777   1.940   2.751   5.211 -0.1087  0.0409  0.5340
  105MOL0     N13778   2.622   3.224   4.872  0.0020  0.7028 -0.5108
  105MOL0     N13779   2.716   3.180   4.800  0.1118  0.3031 -0.6629
  105MOL0     C13780   3.549   3.724   4.893 -0.0293  0.7928 -0.1707
  105MOL0     C13781   3.682   3.760   4.869  0.7679  0.6577 -0.4501
  105MOL0     C13782   4.055   3.887   4.596  1.2680  0.3419  0.4619
  105MOL0     C13783   4.105   3.978   4.500 -0.2437 -0.6093  0.5648
  105MOL0     C13784   4.235   4.011   4.492  0.0051  0.5898 -0.0406
  105MOL0     C13785   4.327   3.945   4.573 -0.5798 -0.4075 -0.5193
  105MOL0     O13786   4.465   3.979   4.557  0.0693 -0.1323 -0.0422
  105MOL0     C13787   4.561   3.912   4.639 -0.1658 -0.6937 -0.1419
  105MOL0     C13788   4.697   3.971   4.626 -0.8315 -0.3109  0.4646
  105MOL0     C13789   4.725   4.118   4.678 -0.1820  0.1463 -0.5469
  105MOL0     C13790   4.870   4.141   4.691  0.1345  1.5749 -0.4291
  105MOL0     C13791   4.950   4.115   4.567 -0.0468  0.0158 -0.1550
  105MOL0     C13792   5.019   4.110   4.476  0.1289  0.0479 -0.8946
  105MOL0     C13793   4.278   3.856   4.667 -0.0945 -0.3595  0.3981
  105MOL0     C13794   4.140   3.822   4.677 -0.7489 -0.6621  0.0964
  105MOL0     H13795   3.669   3.719   4.529 -1.4310 -0.4131 -0.4979
  105MOL0     H13796   3.457   3.639   4.577 -0.7858 -0.3731  0.7850
  105MOL0     H13797   3.323   3.465   4.669 -0.4948 -2.2228  0.1339
  105MOL0     H13798   3.187   3.553   4.704  0.7035 -1.4337 -2.0477
  105MOL0     H13799   3.184   3.498   4.939  0.6834  1.2920 -1.7847
  105MOL0     H13800   3.313   3.385   4.931  0.2348 -0.1528  0.9827
  105MOL0     H13801   3.050   3.384   4.787 -2.6112 -3.2929  0.2492
  105MOL0     H13802   3.083   3.288   4.924 -1.2675  1.0472  0.5623
  105MOL0     H13803   3.207   3.259   4.638  2.1989 -1.3386 -0.7420
  105MOL0     H13804   3.270   3.173   4.781 -0.5120 -0.6326  0.0469
  105MOL0     H13805   3.120   3.028   4.643 -1.3886 -1.7442  0.4378
  105MOL0     H13806   2.992   3.139   4.645 -2.0282 -3.1173  0.1063
  105MOL0     H13807   2.957   3.113   4.898  3.6504  1.1305  1.5842
  105MOL0     H13808   3.094   3.012   4.909 -1.8011  0.6363  3.3515
  105MOL0     H13809   2.990   2.847   4.756 -0.7731 -0.8537  1.4619
  105MOL0     H13810   2.896   2.876   4.904  2.4354  0.6895  1.3065
  105MOL0     H13811   2.729   2.861   4.708 -2.1763  1.0504  0.2163
  105MOL0     H13812   2.821   3.003   4.630  2.0994  0.8507  0.8769
  105MOL0     H13813   2.577   2.898   4.904  1.1921  0.3441  1.3808
  105MOL0     H13814   2.374   3.227   4.955 -0.7890 -0.3784  0.7063
  105MOL0     H13815   2.442   3.162   5.102 -0.2714 -1.1714 -1.0845
  105MOL0     H13816   2.371   2.933   5.028  0.6691 -0.3530 -1.5249
  105MOL0     H13817   2.298   3.001   4.883  3.5298 -0.5569 -0.7769
  105MOL0     H13818   2.215   3.070   5.182 -0.3081 -0.4308  0.1867
  105MOL0     H13819   2.165   3.147   5.026  0.9838 -1.1141 -3.8299
  105MOL0     H13820   2.125   2.853   5.072  2.0222  0.1919 -2.1733
  105MOL0     H13821   2.052   2.980   4.962 -0.1231 -0.2593  0.0535
  105MOL0     H13822   1.751   3.019   5.247  1.3756  0.8430 -3.1848
  105MOL0     H13823   1.578   2.863   5.262  1.4660  3.4519 -2.8405
  105MOL0     H13824   1.275   2.574   5.130  2.0322 -1.8042 -0.8915
  105MOL0     H13825   1.084   2.428   5.198 -0.0464  1.4481  0.0543
  105MOL0     H13826   1.011   2.215   5.268  3.1831  2.7560 -0.2420
  105MOL0     H13827   0.896   2.332   5.322 -0.8261 -1.1926  0.2668
  105MOL0     H13828   0.813   2.225   5.504  1.4329 -1.2243  2.0889
  105MOL0     H13829   0.927   2.085   5.490 -0.3769 -1.5445 -1.9547
  105MOL0     H13830   0.825   2.041   5.275 -0.0075 -0.1894  0.8304
  105MOL0     H13831   0.728   2.183   5.276  0.4638 -2.0700 -2.3248
  105MOL0     H13832   0.696   1.962   5.487 -1.9793 -0.2655  0.4320
  105MOL0     H13833   0.596   2.105   5.483 -1.5820  1.8285 -1.2549
  105MOL0     H13834   0.621   1.905   5.260  0.0882  0.6823 -0.3390
  105MOL0     H13835   0.524   2.041   5.246 -3.7794 -1.7365 -0.7020
  105MOL0     H13836   0.449   1.915   5.505 -2.8980  0.5868  0.5571
  105MOL0     H13837   0.442   1.792   5.369  1.8456 -1.0292  1.3372
  105MOL0     H13838   0.329   2.075   5.357 -1.4134  0.6222 -1.7096
  105MOL0     H13839   0.309   1.959   5.235  0.5943  3.2238 -0.2274
  105MOL0     H13840   0.172   1.813   5.387 -1.9442  0.5771 -1.4799
  105MOL0     H13841   0.104   1.968   5.364 -0.1902 -1.3702 -1.1071
  105MOL0     H13842   1.272   2.355   5.581  1.3369 -1.0897 -0.1618
  105MOL0     H13843   1.456   2.504   5.506 -0.8219  0.1075  0.8375
  105MOL0     H13844   1.866   2.545   5.260 -2.2398  0.8845  4.3098
  105MOL0     H13845   2.046   2.730   5.209 -0.3608 -1.3883 -1.9236
  105MOL0     H13846   3.494   3.720   4.987 -2.4417 -1.4387 -1.5449
  105MOL0     H13847   3.750   3.795   4.947 -0.0755  1.0766  0.1130
  105MOL0     H13848   4.029   4.033   4.445 -1.0184 -1.3763  0.8373
  105MOL0     H13849   4.263   4.086   4.420 -0.8482  0.6993 -0.2723
  105MOL0     H13850   4.551   3.803   4.629 -1.2601 -0.7752  1.4227
  105MOL0     H13851   4.525   3.930   4.741 -1.9763 -0.3339 -0.8044
  105MOL0     H13852   4.767   3.904   4.677 -0.8964 -1.1725 -0.5332
  105MOL0     H13853   4.728   3.965   4.521 -1.7676 -1.8008  0.2480
  105MOL0     H13854   4.671   4.136   4.772 -3.6395 -3.0936 -1.6727
  105MOL0     H13855   4.684   4.181   4.599  0.5804  1.3133 -0.0392
  105MOL0     H13856   4.886   4.242   4.729  2.9895  0.6684  1.0386
  105MOL0     H13857   4.910   4.071   4.765 -1.0815 -1.7068 -2.6468
  105MOL0     H13858   5.083   4.116   4.390 -1.2685 -1.6308 -2.1287
  105MOL0     H13859   4.337   3.810   4.746 -0.6691 -0.2281  0.9106
  105MOL0     H13860   4.118   3.759   4.763  2.5030 -0.5751  1.1512
  106MOL0     O13861   1.044   0.132   9.762 -0.1641  0.5781  0.3765
  106MOL0     C13862   1.092   0.227   9.694 -0.6389 -0.0103  0.3943
  106MOL0     O13863   1.050   0.358   9.693 -0.1124  0.1153  0.1747
  106MOL0     C13864   0.933   0.402   9.748  0.3029 -0.1985  0.2582
  106MOL0     C13865   0.826   0.336   9.813  0.0318  0.4557  0.3995
  106MOL0     C13866   0.703   0.393   9.866 -1.0486  0.1181  0.7439
  106MOL0     C13867   0.696   0.535   9.847 -0.6485  0.9158  0.0177
  106MOL0     O13868   0.589   0.601   9.895  0.4936  0.1894  0.4584
  106MOL0     C13869   0.457   0.544   9.891 -0.5856 -0.8153  0.1127
  106MOL0     C13870   0.350   0.630   9.959  0.4767  0.1648  0.3407
  106MOL0     C13871   0.215   0.559   9.949  0.7388 -0.3432 -0.5225
  106MOL0     C13872   0.114   0.630  10.040 -0.1972 -0.2569 -0.2158
  106MOL0     C13873  -0.016   0.551  10.031  0.7012 -0.3457 -0.4414
  106MOL0     C13874  -0.107   0.576  10.158 -0.3436  0.1563 -0.2080
  106MOL0     C13875  -0.252   0.524  10.130  0.9857 -0.2212 -0.7486
  106MOL0     C13876  -0.336   0.513  10.257 -0.1875  0.3065  0.6253
  106MOL0     N13877  -0.469   0.475  10.220 -0.3128  0.1964 -0.5561
  106MOL0     C13878  -0.515   0.346  10.210 -0.0029 -0.5579 -0.4939
  106MOL0     C13879  -0.645   0.350  10.184 -0.5026  0.0338  0.3470
  106MOL0     C13880  -0.731   0.232  10.154 -0.3915  0.3958  0.4813
  106MOL0     C13881  -0.819   0.200  10.276 -0.0832  0.8222  0.4703
  106MOL0     C13882  -0.882   0.061  10.266 -0.2272 -0.4761 -0.5768
  106MOL0     C13883  -1.002   0.049  10.169  0.0813 -0.3122 -0.0912
  106MOL0     O13884  -1.075  -0.074  10.202  0.2511 -0.6494 -0.6150
  106MOL0     C13885  -1.203  -0.084  10.158  0.5613  0.0906 -0.1478
  106MOL0     C13886  -1.289  -0.176  10.214  0.3773  0.2664  0.2940
  106MOL0     C13887  -1.424  -0.193  10.169  0.6224  1.1842 -0.3286
  106MOL0     C13888  -1.471  -0.113  10.068 -0.9312  0.4626 -0.0757
  106MOL0     C13889  -1.600  -0.129  10.023  0.0913 -0.3694 -0.3259
  106MOL0     O13890  -1.672  -0.220  10.084  0.0911  0.2529  0.1037
  106MOL0     C13891  -1.806  -0.256  10.075 -0.5744 -0.2459  0.7331
  106MOL0     C13892  -1.853  -0.318  10.189 -0.3605 -0.2447 -0.0023
  106MOL0     C13893  -1.988  -0.361  10.194 -1.0812  0.1424 -1.2547
  106MOL0     C13894  -2.080  -0.342  10.088 -0.3150  0.0519 -0.0792
  106MOL0     O13895  -2.205  -0.394  10.102 -0.4251  0.0138  0.4532
  106MOL0     C13896  -2.283  -0.436   9.982 -0.9941  0.0412 -0.9000
  106MOL0     C13897  -2.414  -0.497  10.010  0.7141 -0.3532 -0.2028
  106MOL0     C13898  -2.492  -0.399  10.112  0.3916 -0.4772  0.4841
  106MOL0     C13899  -2.638  -0.455  10.134 -0.0502 -0.8213  0.6234
  106MOL0     C13900  -2.714  -0.433  10.008 -0.4436  0.4671 -0.2474
  106MOL0     C13901  -2.855  -0.490  10.012 -0.6164 -0.1875 -0.0896
  106MOL0     C13902  -2.938  -0.450   9.894 -0.5608  0.3069  0.7825
  106MOL0     C13903  -2.958  -0.298   9.882 -0.3847 -0.1061 -0.2815
  106MOL0    Cl13904  -2.979  -0.236  10.063 -0.3189  0.3121 -0.1494
  106MOL0     C13905  -2.025  -0.278   9.977  0.2109 -0.6694 -0.8920
  106MOL0     C13906  -1.896  -0.223   9.973 -0.3549  0.1360  0.3921
  106MOL0     O13907  -1.640  -0.049   9.934 -0.4326  1.1041 -0.3799
  106MOL0     C13908  -1.387  -0.018  10.015  0.6661  0.2854 -0.0439
  106MOL0     C13909  -1.256  -0.003  10.051 -0.4914  0.1330  1.0722
  106MOL0     N13910  -0.680   0.482  10.183  0.2507  0.4025 -0.0821
  106MOL0     N13911  -0.574   0.554  10.216  0.3046  0.1830 -0.0754
  106MOL0     C13912   0.798   0.601   9.786 -0.0895  0.5394  0.2175
  106MOL0     C13913   0.914   0.542   9.736  0.3729  0.1891  0.1624
  106MOL0     C13914   1.225   0.203   9.624  0.4925  0.0657 -0.2287
  106MOL0     C13915   1.289   0.073   9.611 -0.5249  0.1575  0.1847
  106MOL0     C13916   1.407   0.056   9.550 -0.1391  0.7520 -0.2341
  106MOL0     C13917   1.476   0.156   9.481  0.8509 -0.8353  0.5207
  106MOL0     O13918   1.594   0.112   9.409  0.0114 -0.1927 -0.0067
  106MOL0     C13919   1.669   0.225   9.358  0.2376 -0.5975  0.6462
  106MOL0     C13920   1.775   0.174   9.266 -0.6051  0.5254 -0.3062
  106MOL0     C13921   1.850   0.289   9.204  0.0675 -0.1716 -0.0433
  106MOL0     C13922   1.965   0.230   9.118  0.0477 -0.4750 -0.8535
  106MOL0     C13923   2.020   0.335   9.036 -0.4421 -0.4701 -1.9389
  106MOL0     C13924   2.077   0.418   8.966 -0.1254 -1.4426  0.5784
  106MOL0     C13925   1.415   0.282   9.484  0.3672  0.5604 -0.1227
  106MOL0     C13926   1.290   0.306   9.559 -0.8548  0.1589 -0.2671
  106MOL0     H13927   0.832   0.227   9.820 -0.2139  0.3595 -0.7715
  106MOL0     H13928   0.633   0.336   9.926 -0.4926  0.2698  1.5483
  106MOL0     H13929   0.453   0.442   9.931  2.0115 -1.9548 -2.2302
  106MOL0     H13930   0.434   0.533   9.784 -1.4674  0.1146  0.1891
  106MOL0     H13931   0.345   0.733   9.922  0.0776  0.5138  1.3438
  106MOL0     H13932   0.378   0.623  10.064  0.6228 -0.6867  0.2505
  106MOL0     H13933   0.225   0.454   9.979 -2.2588 -0.5144  0.1697
  106MOL0     H13934   0.182   0.566   9.845  0.2246 -0.2874 -0.3591
  106MOL0     H13935   0.152   0.630  10.142 -1.0818  1.7177  0.1508
  106MOL0     H13936   0.087   0.731  10.008  2.7116  0.7597  0.2544
  106MOL0     H13937   0.005   0.445  10.016 -1.9284 -0.5734 -3.3431
  106MOL0     H13938  -0.076   0.569   9.942 -2.2280  1.4542  1.7235
  106MOL0     H13939  -0.120   0.681  10.184  2.5803  0.8033 -1.0047
  106MOL0     H13940  -0.052   0.532  10.242 -0.4034 -1.0501 -0.7740
  106MOL0     H13941  -0.302   0.592  10.060 -0.9275 -1.6728 -0.8864
  106MOL0     H13942  -0.243   0.422  10.090  3.3890 -0.5845  0.5240
  106MOL0     H13943  -0.318   0.605  10.313  0.4947  0.8199 -0.3912
  106MOL0     H13944  -0.287   0.433  10.313  0.2008 -0.6080 -0.9548
  106MOL0     H13945  -0.458   0.256  10.232  2.6430  1.1975  0.2139
  106MOL0     H13946  -0.669   0.147  10.126  1.6973  2.8962 -3.3048
  106MOL0     H13947  -0.797   0.263  10.072 -0.4513 -3.3939 -1.0770
  106MOL0     H13948  -0.892   0.280  10.295 -0.3977  0.3818  1.1470
  106MOL0     H13949  -0.754   0.190  10.363 -0.0202 -2.2118  0.1535
  106MOL0     H13950  -0.797   0.000  10.235  3.0881  3.1568  0.5505
  106MOL0     H13951  -0.908   0.044  10.371 -0.0764 -1.7728 -0.7344
  106MOL0     H13952  -0.966   0.050  10.066 -0.1669 -0.7267 -0.1836
  106MOL0     H13953  -1.069   0.136  10.174  1.4611  0.8505 -0.9455
  106MOL0     H13954  -1.260  -0.252  10.286 -2.4998 -1.3899 -0.1168
  106MOL0     H13955  -1.485  -0.261  10.227  3.0534  0.2226  1.2599
  106MOL0     H13956  -1.777  -0.327  10.267 -0.6023  0.4774  0.3244
  106MOL0     H13957  -2.033  -0.408  10.281 -1.7593  3.2465  0.2170
  106MOL0     H13958  -2.220  -0.504   9.924 -0.5408 -1.0600  0.8147
  106MOL0     H13959  -2.299  -0.340   9.931  0.0019  0.3616 -0.6343
  106MOL0     H13960  -2.394  -0.596  10.052  0.3219  0.6763  2.6364
  106MOL0     H13961  -2.472  -0.511   9.919  0.0060 -0.2370  0.2229
  106MOL0     H13962  -2.497  -0.306  10.055  0.0049 -0.5182  0.4523
  106MOL0     H13963  -2.442  -0.377  10.208 -1.7699  2.1044  1.1071
  106MOL0     H13964  -2.637  -0.559  10.166  0.1382 -0.9099  0.3345
  106MOL0     H13965  -2.691  -0.406  10.216  2.3591  0.9517  1.2382
  106MOL0     H13966  -2.669  -0.475   9.917  0.0703  1.1988 -0.3372
  106MOL0     H13967  -2.729  -0.326   9.992 -0.2708  0.5977  0.4500
  106MOL0     H13968  -2.904  -0.476  10.108  1.9728  0.4305  1.2273
  106MOL0     H13969  -2.845  -0.598   9.993  0.7447 -0.0163 -0.4123
  106MOL0     H13970  -2.894  -0.491   9.802 -0.5810 -2.6024  1.9687
  106MOL0     H13971  -3.034  -0.502   9.890 -0.1317 -0.6527  2.4059
  106MOL0     H13972  -3.046  -0.276   9.821 -0.6921  0.6050  0.4001
  106MOL0     H13973  -2.874  -0.241   9.841  0.6899  2.1139  4.3131
  106MOL0     H13974  -2.087  -0.262   9.889 -2.0275  0.1386  0.7466
  106MOL0     H13975  -1.867  -0.167   9.885 -3.6879 -1.0265 -1.6552
  106MOL0     H13976  -1.431   0.034   9.931 -0.1760  1.9946  1.3908
  106MOL0     H13977  -1.201   0.081  10.011 -2.4316  1.2603  0.6485
  106MOL0     H13978   0.787   0.708   9.773  0.0816  0.7390  1.5272
  106MOL0     H13979   0.983   0.607   9.683 -2.9359  4.1255  0.1844
  106MOL0     H13980   1.225  -0.007   9.648 -0.2800 -1.1604 -2.0549
  106MOL0     H13981   1.457  -0.040   9.555  1.5754  1.4404 -2.3840
  106MOL0     H13982   1.705   0.286   9.441 -0.1935 -1.4871  1.5004
  106MOL0     H13983   1.611   0.288   9.290 -0.1081  0.4051  1.8373
  106MOL0     H13984   1.844   0.111   9.322 -0.6714 -0.2395 -1.0724
  106MOL0     H13985   1.730   0.105   9.195 -0.9691  0.0832  0.3430
  106MOL0     H13986   1.884   0.362   9.278  1.7945 -0.1148 -0.8495
  106MOL0     H13987   1.785   0.351   9.141 -0.2702 -1.8360 -1.4075
  106MOL0     H13988   2.036   0.192   9.191 -1.9390  1.6607  2.4558
  106MOL0     H13989   1.927   0.154   9.049  0.9244 -0.9170 -0.8586
  106MOL0     H13990   2.118   0.496   8.905 -0.5962 -2.6051 -1.3085
  106MOL0     H13991   1.448   0.372   9.434 -0.7638  0.5879 -0.8617
  106MOL0     H13992   1.251   0.407   9.553 -0.6550  0.1949 -1.1353
  107MOL0     O13993   7.378   5.106   4.595  0.2210 -0.1257 -0.8412
  107MOL0     C13994   7.339   5.023   4.682  0.3356 -0.2884  0.2478
  107MOL0     O13995   7.405   4.921   4.733 -0.7956  1.1664 -0.3757
  107MOL0     C13996   7.537   4.909   4.688  0.5887 -0.4024 -0.4820
  107MOL0     C13997   7.633   4.974   4.766  0.2238  0.1680 -0.2898
  107MOL0     C13998   7.762   4.966   4.717  0.9071 -0.4287 -0.3942
  107MOL0     C13999   7.793   4.890   4.600  0.0979  0.4232  0.0894
  107MOL0     O14000   7.930   4.880   4.573  1.2327 -0.5202 -0.3101
  107MOL0     C14001   7.975   4.739   4.550  0.1599 -1.3062  0.5629
  107MOL0     C14002   8.046   4.718   4.413  0.5520 -0.8727  0.5108
  107MOL0     C14003   8.185   4.783   4.422 -0.3462  0.5364  0.1068
  107MOL0     C14004   8.267   4.753   4.302  0.7305  1.2440  0.0727
  107MOL0     C14005   8.371   4.855   4.289 -1.4455 -0.2143 -0.8326
  107MOL0     C14006   8.478   4.810   4.181  0.4324 -0.1481 -0.1890
  107MOL0     C14007   8.603   4.892   4.185  0.4485  0.1572 -0.9143
  107MOL0     C14008   8.705   4.855   4.075 -0.2386  1.3357  0.6635
  107MOL0     N14009   8.664   4.861   3.938 -0.2509  0.1478  0.1165
  107MOL0     C14010   8.618   4.761   3.852  0.0816  0.4251 -0.3343
  107MOL0     C14011   8.549   4.830   3.758 -0.5720  0.5862  0.1954
  107MOL0     C14012   8.465   4.779   3.645  0.4288 -0.6052  0.4395
  107MOL0     C14013   8.311   4.802   3.668 -0.2526  0.6417 -0.1367
  107MOL0     C14014   8.264   4.929   3.606 -0.2128 -0.5706  0.3851
  107MOL0     C14015   8.118   4.941   3.636 -0.0013 -0.1261  0.7408
  107MOL0     O14016   8.064   5.060   3.574  0.4774  0.7421  0.3685
  107MOL0     C14017   7.933   5.088   3.613  0.3547 -0.1958 -0.6377
  107MOL0     C14018   7.838   4.991   3.661  0.4048 -0.2396  0.7812
  107MOL0     C14019   7.707   5.021   3.685 -0.7520 -0.3554  0.1791
  107MOL0     C14020   7.662   5.154   3.673  0.3185 -0.8320 -0.3502
  107MOL0     C14021   7.529   5.191   3.704  0.5204 -1.1500  0.3511
  107MOL0     O14022   7.450   5.098   3.749 -0.0215  0.8248 -0.0769
  107MOL0     C14023   7.317   5.118   3.788 -0.1359  0.2682  0.0107
  107MOL0     C14024   7.235   5.006   3.771 -0.5465  0.2181  0.2091
  107MOL0     C14025   7.093   5.007   3.779 -0.0727  1.0667 -0.2841
  107MOL0     C14026   7.036   5.120   3.825  0.5509  0.5736  1.4491
  107MOL0     O14027   6.896   5.112   3.824  0.1619  0.5765 -0.6935
  107MOL0     C14028   6.821   5.230   3.861  1.6029  0.9896 -0.2694
  107MOL0     C14029   6.667   5.199   3.862  0.0161 -0.1479  0.5335
  107MOL0     C14030   6.635   5.149   3.720  0.6812 -0.5529 -0.0877
  107MOL0     C14031   6.491   5.152   3.688 -0.0148  0.2144 -0.2768
  107MOL0     C14032   6.439   5.259   3.603 -0.3755 -1.0284  1.2638
  107MOL0     C14033   6.441   5.396   3.671  0.7689  0.2396 -0.5771
  107MOL0     C14034   6.365   5.508   3.596  0.2194 -0.0424  0.3878
  107MOL0     C14035   6.372   5.499   3.443 -0.7302  0.0532 -0.2815
  107MOL0    Cl14036   6.550   5.523   3.387  0.0171  0.0063  0.3042
  107MOL0     C14037   7.116   5.228   3.853 -0.1538 -0.0778  0.4372
  107MOL0     C14038   7.253   5.234   3.834 -0.2074  0.3045 -0.1610
  107MOL0     O14039   7.501   5.305   3.690 -0.4227  0.1252  0.6149
  107MOL0     C14040   7.761   5.251   3.638  0.8474  0.1451  0.9289
  107MOL0     C14041   7.898   5.220   3.603 -0.3860 -0.4369 -0.7953
  107MOL0     N14042   8.549   4.968   3.789  0.6609 -0.0090  0.1767
  107MOL0     N14043   8.615   4.981   3.899 -0.6067  0.5350  0.6325
  107MOL0     C14044   7.699   4.840   4.515 -0.0642 -0.3030 -0.3080
  107MOL0     C14045   7.563   4.846   4.563  0.5125 -0.6714 -0.3657
  107MOL0     C14046   7.203   5.044   4.730 -0.0291  1.5377 -0.2907
  107MOL0     C14047   7.119   5.148   4.682 -0.5992 -0.3752  0.0917
  107MOL0     C14048   7.000   5.184   4.748 -0.2921 -0.0707 -0.6757
  107MOL0     C14049   6.951   5.099   4.855  0.2125 -0.2860  0.3218
  107MOL0     O14050   6.822   5.109   4.906 -0.4378 -0.3924 -0.2927
  107MOL0     C14051   6.797   5.235   4.970  0.3160 -0.4314  0.9139
  107MOL0     C14052   6.714   5.211   5.095 -0.9733 -0.2258  0.2766
  107MOL0     C14053   6.621   5.330   5.114  0.3561  0.3280 -0.5678
  107MOL0     C14054   6.553   5.328   5.254  0.2301 -0.2071  0.3996
  107MOL0     C14055   6.426   5.246   5.251 -0.6714 -0.6092  0.1520
  107MOL0     C14056   6.336   5.163   5.266  0.0101 -0.1097  0.9338
  107MOL0     C14057   7.024   4.988   4.884 -0.1044 -0.2130  0.5133
  107MOL0     C14058   7.145   4.964   4.829  0.4164  0.2923  0.3457
  107MOL0     H14059   7.599   5.030   4.852 -1.0152  0.1837 -0.7682
  107MOL0     H14060   7.839   5.018   4.774 -1.6018  1.4043  1.5612
  107MOL0     H14061   7.891   4.670   4.559 -0.2999 -0.4238  4.5292
  107MOL0     H14062   8.046   4.712   4.628  2.2288 -1.3122 -1.2059
  107MOL0     H14063   7.983   4.771   4.342 -1.0450 -1.8800  1.1165
  107MOL0     H14064   8.053   4.609   4.403 -0.5864 -0.8714 -0.4770
  107MOL0     H14065   8.242   4.751   4.510  2.7926 -0.8646 -2.2466
  107MOL0     H14066   8.175   4.891   4.436  1.1603  0.5290  1.5556
  107MOL0     H14067   8.317   4.658   4.326 -0.8180  1.0554  2.9872
  107MOL0     H14068   8.215   4.733   4.208 -0.9222 -2.6466  1.5929
  107MOL0     H14069   8.423   4.861   4.385 -2.9386  0.4065 -0.0298
  107MOL0     H14070   8.337   4.957   4.267  1.5633  1.0021 -0.3548
  107MOL0     H14071   8.428   4.813   4.083 -2.2253 -0.8949  1.0603
  107MOL0     H14072   8.509   4.708   4.206 -2.4152 -0.8706  0.8217
  107MOL0     H14073   8.577   4.998   4.174 -0.5482 -0.0037 -0.3117
  107MOL0     H14074   8.644   4.883   4.287  0.5885  1.6333 -0.8255
  107MOL0     H14075   8.722   4.748   4.089  0.3683  1.0051 -2.0103
  107MOL0     H14076   8.804   4.900   4.089  0.5844  1.0611 -3.0758
  107MOL0     H14077   8.636   4.654   3.865  0.8377  0.6770  0.8920
  107MOL0     H14078   8.478   4.671   3.635 -0.0420 -0.6211  0.0066
  107MOL0     H14079   8.503   4.833   3.557 -0.6984 -0.6254 -0.0700
  107MOL0     H14080   8.285   4.798   3.774  0.2536 -1.7542 -0.0607
  107MOL0     H14081   8.259   4.721   3.617  2.5330  0.3826 -2.8962
  107MOL0     H14082   8.310   5.024   3.635  1.7788 -2.2286  3.1965
  107MOL0     H14083   8.281   4.919   3.498  5.5719  3.4616  0.4197
  107MOL0     H14084   8.107   4.957   3.743  2.9707  1.0017  0.9726
  107MOL0     H14085   8.056   4.862   3.591 -0.7738  1.5804 -1.3808
  107MOL0     H14086   7.874   4.889   3.661  0.1666 -0.3218  0.9313
  107MOL0     H14087   7.631   4.955   3.725 -1.3839  1.2451  1.7794
  107MOL0     H14088   7.289   4.917   3.742  0.3248  0.8084  0.0034
  107MOL0     H14089   7.032   4.918   3.768  2.2417 -0.6411 -0.1508
  107MOL0     H14090   6.835   5.309   3.787 -2.1274  1.4349 -0.6865
  107MOL0     H14091   6.849   5.262   3.961  2.3987 -0.3845 -0.0255
  107MOL0     H14092   6.621   5.297   3.875  3.1533  1.9955 -2.6311
  107MOL0     H14093   6.628   5.130   3.937  1.9601 -0.7387  1.0647
  107MOL0     H14094   6.676   5.049   3.700  0.0317 -0.9443  0.4796
  107MOL0     H14095   6.683   5.211   3.643 -2.1611 -2.1669 -3.4700
  107MOL0     H14096   6.477   5.062   3.627  1.8991 -2.6361  3.0589
  107MOL0     H14097   6.439   5.134   3.783  2.8511 -1.7808  1.0783
  107MOL0     H14098   6.337   5.238   3.570 -0.9984  1.6027  1.3130
  107MOL0     H14099   6.496   5.266   3.509 -0.2185  2.6324  1.4669
  107MOL0     H14100   6.544   5.433   3.672  0.4593  1.1394 -0.8510
  107MOL0     H14101   6.405   5.385   3.774 -3.5382 -4.1316 -2.1327
  107MOL0     H14102   6.259   5.503   3.621  0.3506  0.8576  1.1674
  107MOL0     H14103   6.402   5.604   3.633  2.7746 -1.5746  2.0984
  107MOL0     H14104   6.299   5.560   3.390  0.4677 -0.0389 -2.1441
  107MOL0     H14105   6.329   5.406   3.406  1.3491 -0.0905 -2.6561
  107MOL0     H14106   7.063   5.319   3.880  0.3262 -0.4952  3.0381
  107MOL0     H14107   7.306   5.326   3.856  1.4253 -0.7268  0.4180
  107MOL0     H14108   7.741   5.355   3.664  3.3310  1.0949 -0.6004
  107MOL0     H14109   7.979   5.285   3.572 -0.2518 -1.3255 -2.4168
  107MOL0     H14110   7.737   4.805   4.420  2.2887  2.6497 -0.5985
  107MOL0     H14111   7.474   4.813   4.511  1.0991 -0.2431 -1.6826
  107MOL0     H14112   7.157   5.201   4.595  0.4179  1.1117  1.3906
  107MOL0     H14113   6.938   5.267   4.716 -2.2459 -0.3085  2.1879
  107MOL0     H14114   6.752   5.297   4.892  0.6320  0.2880  1.2910
  107MOL0     H14115   6.892   5.285   4.995 -0.3259  0.6671  1.2235
  107MOL0     H14116   6.652   5.122   5.084 -0.5514 -0.2992 -2.0408
  107MOL0     H14117   6.779   5.205   5.182  1.2878  2.0389 -1.1237
  107MOL0     H14118   6.538   5.340   5.043 -0.9766  3.8448  1.2109
  107MOL0     H14119   6.688   5.416   5.111  0.6908  0.2653  2.2511
  107MOL0     H14120   6.620   5.284   5.328 -2.0329 -2.5839  1.2066
  107MOL0     H14121   6.530   5.432   5.280  0.0526  0.1997 -1.2682
  107MOL0     H14122   6.248   5.105   5.285  1.1175 -1.9982  0.5288
  107MOL0     H14123   7.002   4.935   4.976 -1.1532  0.9176  0.9419
  107MOL0     H14124   7.205   4.886   4.874 -2.3087 -2.8661 -1.0382
  108MOL0     O14125   8.963  10.895   5.427  0.2543 -0.2783  0.1653
  108MOL0     C14126   8.962  10.982   5.518 -0.4858 -0.0338 -0.0912
  108MOL0     O14127   8.856  11.063   5.545  0.0393  0.7483  0.3628
  108MOL0     C14128   8.740  11.035   5.481  0.4167  0.8363 -0.2185
  108MOL0     C14129   8.702  11.080   5.355 -0.3757 -0.0465  0.3841
  108MOL0     C14130   8.572  11.060   5.300  0.1915  0.4131 -0.4223
  108MOL0     C14131   8.482  10.983   5.368  0.6506  0.4354 -0.3457
  108MOL0     O14132   8.377  10.912   5.308  0.6369 -0.2058  0.2891
  108MOL0     C14133   8.258  10.989   5.283 -0.3462 -0.0340 -0.5450
  108MOL0     C14134   8.149  10.892   5.226  0.4170  0.1642 -0.0119
  108MOL0     C14135   8.017  10.969   5.195 -0.7868  1.0501 -0.0587
  108MOL0     C14136   7.894  10.877   5.164  0.5942  0.0928  0.5579
  108MOL0     C14137   7.779  10.949   5.101 -0.3344  0.1409  1.2008
  108MOL0     C14138   7.658  10.852   5.056  1.0485 -0.9172 -0.5176
  108MOL0     C14139   7.598  10.778   5.181  0.0638  0.4326  0.2008
  108MOL0     C14140   7.444  10.741   5.140  0.0260 -0.1279  0.2863
  108MOL0     N14141   7.367  10.853   5.101  0.7702 -0.3744  0.4074
  108MOL0     C14142   7.315  10.931   5.200 -0.1213  0.1912 -0.2909
  108MOL0     C14143   7.243  11.025   5.129  0.6547 -0.2179  0.4444
  108MOL0     C14144   7.156  11.142   5.177  0.5953  0.2267 -0.0259
  108MOL0     C14145   7.036  11.098   5.257  0.6505  0.2004  0.6171
  108MOL0     C14146   6.951  11.217   5.304  0.7691  0.4173 -0.0040
  108MOL0     C14147   6.844  11.180   5.400  0.5700 -0.2350  0.0835
  108MOL0     O14148   6.732  11.144   5.322 -0.2435 -0.0063  0.5120
  108MOL0     C14149   6.623  11.231   5.322 -0.7269 -1.1279 -0.3058
  108MOL0     C14150   6.634  11.376   5.303  0.6926 -0.5130 -0.6865
  108MOL0     C14151   6.512  11.460   5.283 -0.2762  0.6562 -0.2549
  108MOL0     C14152   6.390  11.393   5.285 -0.1902  0.9202 -0.0689
  108MOL0     C14153   6.272  11.482   5.275 -0.0841  0.8264 -0.3093
  108MOL0     O14154   6.174  11.444   5.364 -0.6508 -0.0733  0.3543
  108MOL0     C14155   6.066  11.525   5.371 -0.0905  0.1122  0.2716
  108MOL0     C14156   5.941  11.486   5.317  0.4025 -0.6225 -0.1454
  108MOL0     C14157   5.831  11.555   5.344  0.1299  0.1432 -0.2200
  108MOL0     C14158   5.826  11.674   5.411 -0.4682  0.2670 -0.7231
  108MOL0     O14159   5.702  11.741   5.406  0.3825  0.2229  0.9795
  108MOL0     C14160   5.685  11.853   5.497 -0.3100 -0.2613  0.6569
  108MOL0     C14161   5.535  11.890   5.489 -0.3174  0.2200 -0.0787
  108MOL0     C14162   5.477  11.900   5.343 -0.0232 -0.2381  0.8384
  108MOL0     C14163   5.328  11.878   5.339 -0.4617  0.8973  0.1215
  108MOL0     C14164   5.266  11.938   5.218 -0.3862 -1.0811 -0.1695
  108MOL0     C14165   5.116  11.967   5.243 -0.0673 -0.8978 -0.9784
  108MOL0     C14166   5.042  11.994   5.116  0.5441  0.7213  0.7457
  108MOL0     C14167   4.899  12.005   5.147  0.9376  0.9034 -0.6339
  108MOL0    Cl14168   4.801  12.029   4.999 -0.0101 -0.5906  0.3675
  108MOL0     C14169   5.946  11.719   5.472 -0.2682 -0.4427 -0.0731
  108MOL0     C14170   6.062  11.647   5.446 -0.2774  0.1565  0.2559
  108MOL0     O14171   6.271  11.585   5.214  0.4655  0.2821  0.4337
  108MOL0     C14172   6.379  11.255   5.296 -0.2829  0.2162  0.1770
  108MOL0     C14173   6.498  11.175   5.307  0.7354  0.0653  0.3456
  108MOL0     N14174   7.246  10.988   4.995  0.1434  0.2520 -0.3887
  108MOL0     N14175   7.320  10.892   4.977  0.2229  0.4719  0.0169
  108MOL0     C14176   8.517  10.936   5.495  0.1817 -0.5322  0.5498
  108MOL0     C14177   8.642  10.964   5.548 -0.8266 -0.6481 -0.0860
  108MOL0     C14178   9.095  11.011   5.596 -0.8792  0.6488  0.2288
  108MOL0     C14179   9.118  11.131   5.652 -0.1207 -0.3850 -0.3582
  108MOL0     C14180   9.250  11.178   5.689  1.0663  0.1559 -0.0237
  108MOL0     C14181   9.351  11.083   5.679  0.9465 -0.3755  0.0021
  108MOL0     O14182   9.466  11.109   5.743  0.2004 -0.6116 -0.8798
  108MOL0     C14183   9.582  11.034   5.718 -0.0772 -0.5639 -0.2148
  108MOL0     C14184   9.700  11.096   5.799  1.2600  0.2850 -0.0120
  108MOL0     C14185   9.714  11.036   5.937  0.4915  0.3245  0.6802
  108MOL0     C14186   9.825  11.100   6.014  0.9405  0.1326 -1.3162
  108MOL0     C14187   9.829  11.032   6.149 -0.0331 -0.3432  0.3439
  108MOL0     C14188   9.856  10.970   6.250  0.1472 -0.2627 -0.3700
  108MOL0     C14189   9.325  10.958   5.616  0.4752 -0.0498 -0.8609
  108MOL0     C14190   9.194  10.922   5.582 -0.4380  1.4012  0.4768
  108MOL0     H14191   8.782  11.126   5.298 -0.4901 -0.5607 -0.1942
  108MOL0     H14192   8.540  11.087   5.199  2.6905  0.0153 -1.4060
  108MOL0     H14193   8.270  11.062   5.203 -1.3233  0.0139 -0.6548
  108MOL0     H14194   8.231  11.036   5.378  0.2234  1.4015 -1.0739
  108MOL0     H14195   8.129  10.816   5.302 -0.1672  1.0078  0.7032
  108MOL0     H14196   8.200  10.844   5.143 -3.4576 -2.2537 -1.2576
  108MOL0     H14197   8.037  11.044   5.118  0.8486  1.5415  0.8133
  108MOL0     H14198   8.009  11.035   5.282  1.9916  1.8181 -0.3074
  108MOL0     H14199   7.928  10.799   5.095 -0.3286  1.5564 -1.6575
  108MOL0     H14200   7.861  10.820   5.252  1.8999 -0.0660  0.9746
  108MOL0     H14201   7.816  11.004   5.014 -0.2426 -1.3426  0.2686
  108MOL0     H14202   7.744  11.023   5.174  3.6442  0.9075  2.5611
  108MOL0     H14203   7.690  10.781   4.979  1.5878  0.9407 -2.0981
  108MOL0     H14204   7.584  10.918   5.010  0.8515 -0.0367  1.0193
  108MOL0     H14205   7.651  10.684   5.204  0.0055  0.2406 -0.4489
  108MOL0     H14206   7.601  10.846   5.266  3.4364  0.1389  0.4714
  108MOL0     H14207   7.390  10.685   5.217 -1.1132 -1.9486 -1.7035
  108MOL0     H14208   7.441  10.673   5.054 -2.9443 -1.9537  1.6629
  108MOL0     H14209   7.328  10.916   5.306 -0.2675 -1.7753 -0.5220
  108MOL0     H14210   7.117  11.191   5.087 -2.8003 -2.9767 -0.5702
  108MOL0     H14211   7.218  11.213   5.232 -2.3588  1.7267  1.6471
  108MOL0     H14212   7.058  11.031   5.341 -1.9609 -0.8979  0.5215
  108MOL0     H14213   6.970  11.041   5.191 -0.7740  1.8100  0.6104
  108MOL0     H14214   7.019  11.292   5.344 -0.2756  0.7629  1.1840
  108MOL0     H14215   6.903  11.259   5.215 -0.0649  3.7146  1.8351
  108MOL0     H14216   6.819  11.271   5.455  3.2247  2.5038 -2.8513
  108MOL0     H14217   6.869  11.097   5.467 -0.8559  0.9983  2.2812
  108MOL0     H14218   6.734  11.417   5.298  0.9195 -1.2135 -3.0125
  108MOL0     H14219   6.511  11.568   5.271 -0.3479  0.5898 -0.8992
  108MOL0     H14220   5.922  11.397   5.258 -0.1922  0.5164 -1.7304
  108MOL0     H14221   5.746  11.504   5.300 -0.6089 -0.5081  1.8305
  108MOL0     H14222   5.752  11.932   5.463 -1.2962 -0.1340 -1.1173
  108MOL0     H14223   5.705  11.818   5.598 -3.1122  1.6582  1.9992
  108MOL0     H14224   5.533  11.988   5.536  0.1079  0.3358 -0.2970
  108MOL0     H14225   5.471  11.833   5.557 -0.3901 -0.0878 -0.3994
  108MOL0     H14226   5.530  11.822   5.287  1.9644  1.0250  0.8501
  108MOL0     H14227   5.521  11.994   5.308 -1.5783  0.6359  1.1388
  108MOL0     H14228   5.317  11.770   5.346  1.1963  0.7802  2.4271
  108MOL0     H14229   5.283  11.925   5.427 -0.4537  1.7042 -0.2946
  108MOL0     H14230   5.276  11.886   5.122 -0.8931 -0.2238 -0.7074
  108MOL0     H14231   5.317  12.034   5.210  2.8133 -2.6053  0.5360
  108MOL0     H14232   5.102  12.038   5.324 -1.4795 -0.4306 -1.6001
  108MOL0     H14233   5.074  11.875   5.284 -2.7149  0.5176 -0.3222
  108MOL0     H14234   5.081  12.090   5.081 -3.3595  2.9114  1.8335
  108MOL0     H14235   5.065  11.926   5.033  0.5977  1.6949 -0.0554
  108MOL0     H14236   4.883  12.083   5.222  0.9019 -0.2683  0.6179
  108MOL0     H14237   4.865  11.912   5.193  1.0316  0.6876 -0.9926
  108MOL0     H14238   5.952  11.814   5.526 -0.2132 -0.3786 -0.1909
  108MOL0     H14239   6.154  11.680   5.493  0.8565  0.4095 -2.0097
  108MOL0     H14240   6.282  11.208   5.279  0.1748 -2.2864  3.5274
  108MOL0     H14241   6.481  11.069   5.292 -0.7419  0.5448 -1.8327
  108MOL0     H14242   8.442  10.887   5.557 -0.3684  2.4162  2.4097
  108MOL0     H14243   8.663  10.933   5.649  1.1990 -0.8675 -0.5323
  108MOL0     H14244   9.026  11.188   5.662 -1.8413 -2.7793 -1.4466
  108MOL0     H14245   9.281  11.280   5.709  0.5701  0.4433 -0.6971
  108MOL0     H14246   9.602  11.044   5.611 -0.3601  0.3342 -0.1854
  108MOL0     H14247   9.571  10.927   5.742  0.4519 -0.4958  0.3592
  108MOL0     H14248   9.792  11.100   5.741  1.0108  0.2041 -0.4187
  108MOL0     H14249   9.669  11.199   5.820 -3.0900 -0.6620 -0.7855
  108MOL0     H14250   9.720  10.927   5.936  0.0471  0.2962  0.8464
  108MOL0     H14251   9.619  11.061   5.986 -0.0175 -4.4478  2.6904
  108MOL0     H14252   9.919  11.090   5.960  2.2725  3.2574  0.1952
  108MOL0     H14253   9.808  11.208   6.024 -2.0148 -0.4392  1.5267
  108MOL0     H14254   9.893  10.922   6.338  0.0578  1.2677  0.5381
  108MOL0     H14255   9.393  10.874   5.619 -0.0596 -0.4772  0.5435
  108MOL0     H14256   9.179  10.824   5.537  0.4913  1.2769  0.4201
  109MOL0     O14257   4.773   6.919   7.480  0.4373 -0.1140 -0.0831
  109MOL0     C14258   4.772   6.908   7.356 -0.5609 -0.2707  1.1413
  109MOL0     O14259   4.664   6.888   7.277 -0.3539  0.0017  0.1003
  109MOL0     C14260   4.539   6.877   7.338 -0.1185  0.5296  0.8784
  109MOL0     C14261   4.480   6.977   7.408  0.2582 -0.7048 -0.1731
  109MOL0     C14262   4.366   6.961   7.478  0.0637  0.4491  0.4587
  109MOL0     C14263   4.283   6.854   7.446 -0.1344  0.1573 -0.2669
  109MOL0     O14264   4.152   6.835   7.493  0.5684  0.0822  0.6058
  109MOL0     C14265   4.106   6.934   7.587 -0.3969 -0.1002  1.0789
  109MOL0     C14266   3.953   6.923   7.619  0.5415 -0.3024  0.6237
  109MOL0     C14267   3.866   6.942   7.494 -0.0879  0.1543  0.7223
  109MOL0     C14268   3.727   6.882   7.500 -0.0293  0.0669  0.9009
  109MOL0     C14269   3.678   6.833   7.364  0.8671 -0.2251 -0.0705
  109MOL0     C14270   3.547   6.754   7.382  1.1136  0.1599  0.2597
  109MOL0     C14271   3.480   6.712   7.249 -0.4928 -0.6217  0.7074
  109MOL0     C14272   3.334   6.697   7.261 -0.0649 -0.3829 -0.5561
  109MOL0     N14273   3.281   6.680   7.126 -0.5306 -0.0573  0.5977
  109MOL0     C14274   3.301   6.565   7.051 -0.0025 -0.1529  0.0256
  109MOL0     C14275   3.217   6.581   6.939 -0.7009 -0.7307 -0.2866
  109MOL0     C14276   3.201   6.489   6.825 -0.8689  0.9612 -0.1683
  109MOL0     C14277   3.336   6.439   6.777 -0.3275 -0.4475 -0.3351
  109MOL0     C14278   3.339   6.365   6.641 -0.5487 -0.4676  0.3835
  109MOL0     C14279   3.214   6.318   6.563  0.2214  0.1130  0.2936
  109MOL0     O14280   3.137   6.254   6.659  0.0610  0.0151  0.3422
  109MOL0     C14281   3.004   6.235   6.642  0.2838 -0.1535  0.2758
  109MOL0     C14282   2.939   6.163   6.742  0.2830 -1.2143 -0.4919
  109MOL0     C14283   2.798   6.143   6.736  0.1472  1.5608 -0.0663
  109MOL0     C14284   2.725   6.192   6.626  0.5866  1.0991  0.0142
  109MOL0     C14285   2.576   6.178   6.622  0.1993  1.4869  0.0456
  109MOL0     O14286   2.521   6.113   6.735 -0.3339  0.3419 -0.1428
  109MOL0     C14287   2.389   6.127   6.771  0.4860  0.4214 -0.0261
  109MOL0     C14288   2.365   6.182   6.891  0.4248 -0.4647 -0.6418
  109MOL0     C14289   2.238   6.226   6.928 -0.2310  0.6128  1.0665
  109MOL0     C14290   2.133   6.222   6.835  0.4669  0.4838  0.1047
  109MOL0     O14291   2.004   6.248   6.883 -0.3108  0.2114 -0.0636
  109MOL0     C14292   1.903   6.194   6.815 -0.8804 -0.6002 -0.4117
  109MOL0     C14293   1.772   6.247   6.877  0.1080  1.1115  0.6054
  109MOL0     C14294   1.769   6.404   6.877 -0.2376  0.4654  0.2956
  109MOL0     C14295   1.622   6.450   6.874  0.5555 -0.8183  0.4881
  109MOL0     C14296   1.588   6.602   6.876  0.4847 -0.5100 -0.2173
  109MOL0     C14297   1.440   6.620   6.835  0.3768 -1.0512 -0.0494
  109MOL0     C14298   1.396   6.760   6.884  0.3270 -0.0126  0.0302
  109MOL0     C14299   1.242   6.786   6.872 -0.1090 -0.1059  0.1036
  109MOL0    Cl14300   1.165   6.686   6.991  0.2217 -0.4156  0.0947
  109MOL0     C14301   2.157   6.164   6.712 -1.0963  0.1629  0.4722
  109MOL0     C14302   2.293   6.122   6.677  0.4899 -0.1383 -0.1616
  109MOL0     O14303   2.517   6.212   6.521 -0.4928 -0.1002  0.4882
  109MOL0     C14304   2.797   6.249   6.517  0.4270  0.0787  0.0550
  109MOL0     C14305   2.934   6.262   6.533 -0.2245 -0.1926  0.9160
  109MOL0     N14306   3.145   6.700   6.957 -0.1065 -0.2550 -0.9739
  109MOL0     N14307   3.183   6.757   7.066 -0.7397  0.5051  0.6858
  109MOL0     C14308   4.338   6.755   7.365  0.0447  0.6503  0.1920
  109MOL0     C14309   4.458   6.767   7.308  0.0981 -0.1144  0.1657
  109MOL0     C14310   4.905   6.909   7.287  0.1585  0.4493  0.2718
  109MOL0     C14311   4.908   6.908   7.137 -0.4891  0.6935 -0.5898
  109MOL0     C14312   5.030   6.905   7.073 -0.6799  0.1935 -0.8340
  109MOL0     C14313   5.147   6.888   7.147  0.1887  0.0810 -0.6667
  109MOL0     O14314   5.265   6.882   7.081  0.6021 -0.1596 -0.0089
  109MOL0     C14315   5.392   6.876   7.147 -0.2579 -0.4608  0.0557
  109MOL0     C14316   5.491   6.874   7.035 -0.5146  0.3675  0.5131
  109MOL0     C14317   5.523   7.021   7.004 -0.7314  0.0331  0.2422
  109MOL0     C14318   5.599   7.042   6.875  0.6243 -0.0993 -0.1023
  109MOL0     C14319   5.736   6.992   6.883  0.2713 -0.2681 -0.1845
  109MOL0     C14320   5.839   6.928   6.891  0.1363 -0.4651 -1.0229
  109MOL0     C14321   5.144   6.904   7.293  0.0208  0.1732  0.7442
  109MOL0     C14322   5.027   6.910   7.362 -0.3693 -0.4229  0.1167
  109MOL0     H14323   4.535   7.070   7.418 -3.5896  1.7774  0.2043
  109MOL0     H14324   4.324   7.042   7.536 -4.1458 -1.7560  0.8715
  109MOL0     H14325   4.132   7.030   7.543 -0.8107 -0.8419 -0.9024
  109MOL0     H14326   4.169   6.931   7.676  2.2037 -1.8211 -0.6790
  109MOL0     H14327   3.915   7.000   7.687 -0.8370 -0.7585  0.4008
  109MOL0     H14328   3.928   6.825   7.661 -3.1921 -0.4164 -1.3617
  109MOL0     H14329   3.912   6.880   7.416 -1.9357 -3.9686  2.5890
  109MOL0     H14330   3.851   7.046   7.464 -1.6181  0.1982  1.5343
  109MOL0     H14331   3.737   6.797   7.568 -1.9753 -0.2535  0.8418
  109MOL0     H14332   3.665   6.962   7.542  0.9428  1.1591  0.3084
  109MOL0     H14333   3.755   6.769   7.320  2.4330  1.4059  0.2190
  109MOL0     H14334   3.658   6.915   7.295  3.8605  0.2831 -0.4450
  109MOL0     H14335   3.475   6.817   7.434 -2.0572 -1.7330 -1.5272
  109MOL0     H14336   3.560   6.673   7.455 -0.2398  1.0533  1.5607
  109MOL0     H14337   3.507   6.790   7.178  3.3279 -1.9210  0.5209
  109MOL0     H14338   3.523   6.615   7.223 -0.0350 -0.3277  0.3805
  109MOL0     H14339   3.288   6.787   7.304 -2.5653 -3.2616  3.4849
  109MOL0     H14340   3.314   6.613   7.327 -2.0850 -3.0333 -4.2055
  109MOL0     H14341   3.351   6.473   7.078  0.3259  0.2515  0.8510
  109MOL0     H14342   3.148   6.535   6.742 -1.2136 -0.1856 -0.6119
  109MOL0     H14343   3.148   6.407   6.874  1.7503 -0.5925  0.2403
  109MOL0     H14344   3.386   6.379   6.854  0.4496  1.4831  0.7463
  109MOL0     H14345   3.400   6.528   6.772 -1.1144  0.2536  1.3863
  109MOL0     H14346   3.395   6.428   6.571  0.3334 -2.0303 -0.3698
  109MOL0     H14347   3.390   6.268   6.639 -2.2064 -1.3683 -0.1181
  109MOL0     H14348   3.231   6.250   6.479 -4.0300 -1.5987  0.5439
  109MOL0     H14349   3.174   6.413   6.528  0.2398 -0.8307 -2.4986
  109MOL0     H14350   2.999   6.147   6.831  0.9165 -0.0189 -0.6816
  109MOL0     H14351   2.748   6.099   6.821  1.3820  0.6238  0.2059
  109MOL0     H14352   2.449   6.178   6.959  0.4912  0.4264 -0.6517
  109MOL0     H14353   2.217   6.261   7.029 -1.6680  0.1621  0.9444
  109MOL0     H14354   1.910   6.085   6.813  1.0547 -0.5163  0.0825
  109MOL0     H14355   1.902   6.236   6.714  1.5738 -2.1379 -1.1688
  109MOL0     H14356   1.769   6.215   6.982 -1.9948 -2.8837 -0.4899
  109MOL0     H14357   1.687   6.204   6.823  0.9391  2.2743 -1.7355
  109MOL0     H14358   1.808   6.434   6.780  1.1978  1.3568  1.1156
  109MOL0     H14359   1.828   6.454   6.954 -1.0829 -1.2015  2.1096
  109MOL0     H14360   1.587   6.399   6.783  2.7528  0.7118 -1.3348
  109MOL0     H14361   1.573   6.405   6.960  2.0410  0.3012  1.9913
  109MOL0     H14362   1.657   6.652   6.807  1.0634 -0.8338  0.1145
  109MOL0     H14363   1.605   6.651   6.972 -3.0644  0.2740  0.1390
  109MOL0     H14364   1.366   6.546   6.865 -1.8324  0.6154 -1.1576
  109MOL0     H14365   1.430   6.614   6.727 -0.8872 -0.6699  0.0360
  109MOL0     H14366   1.427   6.788   6.985  0.4471  0.9571 -0.2673
  109MOL0     H14367   1.440   6.823   6.807 -0.9931  1.2160  0.2420
  109MOL0     H14368   1.207   6.747   6.775 -1.1640  2.1156 -0.4882
  109MOL0     H14369   1.201   6.886   6.890 -0.9382 -0.0707 -1.6805
  109MOL0     H14370   2.085   6.144   6.634  2.2147 -3.3770 -2.1087
  109MOL0     H14371   2.324   6.086   6.579  0.4158  2.3792 -1.2017
  109MOL0     H14372   2.745   6.275   6.425 -4.1490 -1.1856  2.0014
  109MOL0     H14373   2.993   6.300   6.450 -0.7470 -2.4046 -0.5540
  109MOL0     H14374   4.281   6.669   7.330 -1.5382  1.1675  1.3637
  109MOL0     H14375   4.491   6.684   7.247  0.8529  0.0399  0.3549
  109MOL0     H14376   4.821   6.908   7.072  0.6260  2.8536 -2.1842
  109MOL0     H14377   5.032   6.897   6.965  1.4825  3.9784 -1.2522
  109MOL0     H14378   5.397   6.781   7.202  2.2596  1.5544  3.8362
  109MOL0     H14379   5.405   6.961   7.215 -1.8969  0.9759 -1.3584
  109MOL0     H14380   5.584   6.816   7.044  0.0779  1.2933  0.5444
  109MOL0     H14381   5.447   6.829   6.946 -0.2538 -0.4650  0.7916
  109MOL0     H14382   5.588   7.063   7.081  0.7192 -2.9069  0.7458
  109MOL0     H14383   5.432   7.081   6.991 -0.4206  0.4620  0.0159
  109MOL0     H14384   5.545   6.988   6.797  1.3293 -3.4341  1.5281
  109MOL0     H14385   5.593   7.149   6.853  1.1311  0.0459  0.4362
  109MOL0     H14386   5.923   6.861   6.885 -0.7254 -1.5113 -1.9192
  109MOL0     H14387   5.239   6.918   7.342 -0.3100  0.9432  1.1796
  109MOL0     H14388   5.024   6.905   7.470 -1.1450 -1.6863  0.0502
  110MOL0     O14389   5.083   4.983   4.898 -0.3351  0.1210  0.3267
  110MOL0     C14390   5.005   4.881   4.907 -0.5699 -0.7030 -0.1979
  110MOL0     O14391   5.038   4.769   4.976  0.5345  0.0584  0.0283
  110MOL0     C14392   5.145   4.756   5.059  0.1674 -0.0223 -0.4541
  110MOL0     C14393   5.245   4.667   5.028 -0.4284  0.7173  0.1481
  110MOL0     C14394   5.360   4.658   5.106 -0.1618 -0.6961  0.1015
  110MOL0     C14395   5.359   4.724   5.235 -1.0770 -1.5467 -0.9719
  110MOL0     O14396   5.470   4.709   5.317 -0.1036  0.3164 -0.4392
  110MOL0     C14397   5.595   4.664   5.263 -1.0831  0.4705  0.6551
  110MOL0     C14398   5.705   4.698   5.367  0.0520 -0.1064  0.3045
  110MOL0     C14399   5.721   4.851   5.378 -0.2402 -0.3711 -0.1333
  110MOL0     C14400   5.836   4.901   5.464 -0.6378 -1.0523 -0.0801
  110MOL0     C14401   5.871   5.044   5.455  0.2493 -0.4477 -0.6815
  110MOL0     C14402   5.865   5.085   5.309  0.0014  0.2052 -0.2968
  110MOL0     C14403   5.932   5.220   5.289  0.1287 -0.1414 -0.3505
  110MOL0     C14404   5.908   5.268   5.145  0.0527 -0.1773  0.2415
  110MOL0     N14405   5.997   5.385   5.134  1.1542  0.7061  0.1243
  110MOL0     C14406   6.128   5.396   5.112 -1.4687 -0.3046 -0.1355
  110MOL0     C14407   6.158   5.533   5.122  0.6599 -0.2163  0.4259
  110MOL0     C14408   6.300   5.578   5.123  0.3275  0.5070 -0.0336
  110MOL0     C14409   6.310   5.732   5.111 -0.4858  0.0508 -0.1507
  110MOL0     C14410   6.340   5.764   4.964 -0.6301  0.5917 -0.6214
  110MOL0     C14411   6.367   5.920   4.959  0.3557  0.0831 -0.3755
  110MOL0     O14412   6.476   5.937   4.876 -0.2513  0.0847  0.2182
  110MOL0     C14413   6.504   6.052   4.822  0.2144 -0.7470  0.2011
  110MOL0     C14414   6.459   6.175   4.867  0.1370 -0.0307 -0.3358
  110MOL0     C14415   6.514   6.294   4.819 -0.4118  0.8396  0.3944
  110MOL0     C14416   6.614   6.292   4.720 -0.0758  0.1238 -0.4626
  110MOL0     C14417   6.687   6.415   4.681 -0.3227 -0.3125  0.6451
  110MOL0     O14418   6.652   6.532   4.734 -0.4620 -0.4493 -0.2568
  110MOL0     C14419   6.719   6.647   4.706  0.0512 -0.7222  0.6563
  110MOL0     C14420   6.694   6.749   4.801 -0.3102 -0.3092 -0.0328
  110MOL0     C14421   6.736   6.878   4.783 -0.1265 -1.0461  0.1435
  110MOL0     C14422   6.811   6.909   4.669 -0.5539  0.2557 -0.0394
  110MOL0     O14423   6.867   7.038   4.663 -0.4274  0.9098 -0.6410
  110MOL0     C14424   7.013   7.042   4.658  0.5827 -0.2083 -0.0945
  110MOL0     C14425   7.066   7.182   4.650  0.2277  0.2162 -0.5720
  110MOL0     C14426   7.049   7.264   4.779  0.1343 -1.3407  0.4750
  110MOL0     C14427   7.120   7.199   4.894 -0.4222  0.2363 -0.5906
  110MOL0     C14428   7.134   7.294   5.011  0.8740  0.8687  0.2287
  110MOL0     C14429   7.192   7.218   5.135 -0.1985 -0.1442 -0.0107
  110MOL0     C14430   7.191   7.303   5.261 -0.8954  0.3942  0.4671
  110MOL0     C14431   7.192   7.215   5.384 -0.1002  0.1207  0.6197
  110MOL0    Cl14432   7.033   7.148   5.417 -0.1056  0.3984  0.0498
  110MOL0     C14433   6.834   6.810   4.569 -0.4904  1.0496  0.2588
  110MOL0     C14434   6.792   6.681   4.594 -0.0270 -0.1511 -0.0701
  110MOL0     O14435   6.786   6.393   4.614  0.2790  0.0396  0.5100
  110MOL0     C14436   6.656   6.165   4.665 -0.2216 -0.5106  0.1601
  110MOL0     C14437   6.590   6.052   4.717  0.2612 -0.0311  0.6298
  110MOL0     N14438   6.032   5.594   5.134 -0.3077 -0.5397 -0.2328
  110MOL0     N14439   5.939   5.507   5.139  0.0636 -0.5332 -0.3620
  110MOL0     C14440   5.260   4.812   5.267 -1.0030 -0.1956  1.0940
  110MOL0     C14441   5.157   4.827   5.178  0.4515 -0.3108 -0.3283
  110MOL0     C14442   4.869   4.895   4.842  0.3577 -0.0886 -0.1219
  110MOL0     C14443   4.764   4.802   4.872  0.1841 -0.6997  0.3651
  110MOL0     C14444   4.640   4.816   4.815 -0.0756  1.2807 -0.1454
  110MOL0     C14445   4.617   4.913   4.716  0.6013 -0.3752 -0.0932
  110MOL0     O14446   4.503   4.939   4.645 -0.3030  0.1409 -0.4257
  110MOL0     C14447   4.381   4.859   4.662  0.6380 -0.6927  0.3590
  110MOL0     C14448   4.278   4.871   4.549 -0.0354 -1.0167  0.0196
  110MOL0     C14449   4.157   4.796   4.582 -0.5281 -0.8148 -0.4087
  110MOL0     C14450   4.035   4.837   4.488  0.3871 -0.5147  0.0227
  110MOL0     C14451   3.911   4.759   4.521 -0.2680 -0.2909 -0.2284
  110MOL0     C14452   3.821   4.683   4.553  0.1067  0.3743  1.5873
  110MOL0     C14453   4.714   5.002   4.681  0.1511  0.3578 -0.1971
  110MOL0     C14454   4.837   4.993   4.750  0.8894 -0.3365  0.4119
  110MOL0     H14455   5.232   4.604   4.940 -1.6107 -0.3588  1.0438
  110MOL0     H14456   5.437   4.591   5.068 -0.9187 -1.0682 -0.8386
  110MOL0     H14457   5.618   4.727   5.177  0.7713 -0.7617  0.2040
  110MOL0     H14458   5.596   4.557   5.241 -0.8236  0.0193  2.6645
  110MOL0     H14459   5.795   4.653   5.325 -0.0236 -1.5777  1.6282
  110MOL0     H14460   5.685   4.645   5.461  0.6930  1.3768  1.3164
  110MOL0     H14461   5.627   4.886   5.420 -1.9847 -1.5603 -2.8071
  110MOL0     H14462   5.724   4.880   5.272 -3.3293 -2.7171 -1.0185
  110MOL0     H14463   5.813   4.881   5.569 -1.9373 -2.8329 -0.6466
  110MOL0     H14464   5.925   4.842   5.439  1.2132  1.2880  0.6262
  110MOL0     H14465   5.969   5.076   5.493 -0.6462  0.8494  0.6390
  110MOL0     H14466   5.799   5.100   5.515  0.8772 -1.1836  0.8098
  110MOL0     H14467   5.759   5.093   5.284 -0.4371  0.1494  1.4159
  110MOL0     H14468   5.926   5.012   5.256  1.2703  0.4863  0.7366
  110MOL0     H14469   5.885   5.282   5.365 -1.0249 -0.7565 -0.5499
  110MOL0     H14470   6.039   5.205   5.308  0.5681  2.1885 -0.7228
  110MOL0     H14471   5.803   5.296   5.132  0.3243  0.9501  0.3408
  110MOL0     H14472   5.926   5.196   5.065 -0.1085 -1.5497  1.3986
  110MOL0     H14473   6.205   5.321   5.094 -0.3818  1.0967 -1.5418
  110MOL0     H14474   6.356   5.526   5.045  0.9728 -2.8960  2.5143
  110MOL0     H14475   6.334   5.547   5.222 -1.5028 -1.2469  0.1089
  110MOL0     H14476   6.385   5.780   5.174 -1.4183  0.3346  0.7719
  110MOL0     H14477   6.217   5.778   5.147  1.6692  2.2349  3.1094
  110MOL0     H14478   6.430   5.710   4.932  0.4521 -0.0723  3.0601
  110MOL0     H14479   6.254   5.733   4.904 -2.6427 -2.0395  3.1895
  110MOL0     H14480   6.381   5.966   5.057 -2.3304  1.3998 -0.4929
  110MOL0     H14481   6.268   5.947   4.919 -0.7780 -3.6864 -0.5486
  110MOL0     H14482   6.386   6.179   4.947  0.8461  3.0988  0.2819
  110MOL0     H14483   6.487   6.392   4.857 -1.2877  0.0063  2.0136
  110MOL0     H14484   6.637   6.726   4.890 -0.3405 -3.2917 -0.7261
  110MOL0     H14485   6.714   6.952   4.858 -0.7082  0.1692 -1.1761
  110MOL0     H14486   7.047   6.992   4.567  1.8383  0.7925 -0.1960
  110MOL0     H14487   7.052   6.990   4.746  2.3779 -2.2186 -1.9735
  110MOL0     H14488   7.014   7.235   4.569 -0.6555 -1.9508 -1.5110
  110MOL0     H14489   7.171   7.162   4.628  0.5885  2.5298 -1.2297
  110MOL0     H14490   6.940   7.263   4.787  0.1062 -2.4058  0.0738
  110MOL0     H14491   7.093   7.362   4.758 -1.9114 -0.2596  1.0293
  110MOL0     H14492   7.063   7.116   4.935  0.5727  0.0837  0.5239
  110MOL0     H14493   7.217   7.158   4.862 -0.6172 -1.9747  1.4581
  110MOL0     H14494   7.032   7.321   5.037  0.3266 -2.0359  1.5533
  110MOL0     H14495   7.207   7.375   5.001  1.9979  0.0005  0.9855
  110MOL0     H14496   7.294   7.181   5.118  0.5508  1.5965  0.5085
  110MOL0     H14497   7.133   7.128   5.154  2.3172 -1.9579 -0.3082
  110MOL0     H14498   7.282   7.364   5.254 -0.0935 -0.4705  2.4849
  110MOL0     H14499   7.104   7.366   5.245 -0.4717  0.6066 -1.1728
  110MOL0     H14500   7.213   7.288   5.463  0.1929  2.5357 -1.5751
  110MOL0     H14501   7.264   7.133   5.374 -0.5238 -0.3487  1.3108
  110MOL0     H14502   6.899   6.827   4.483 -0.2725  1.6997  0.5428
  110MOL0     H14503   6.819   6.602   4.524  0.9385 -1.1279  1.3650
  110MOL0     H14504   6.720   6.171   4.577  0.5816 -0.0860  0.7594
  110MOL0     H14505   6.633   5.963   4.671  2.1507  1.2195 -0.1278
  110MOL0     H14506   5.268   4.874   5.355 -1.2166  0.5337  0.6083
  110MOL0     H14507   5.077   4.893   5.210  0.3806 -0.9362  0.8540
  110MOL0     H14508   4.778   4.732   4.954  1.2796 -0.8419  0.0846
  110MOL0     H14509   4.558   4.761   4.859 -0.4596  3.0857  1.5580
  110MOL0     H14510   4.332   4.870   4.759 -0.9529  1.2324 -0.5951
  110MOL0     H14511   4.409   4.753   4.669 -2.1517 -1.7132 -1.7503
  110MOL0     H14512   4.259   4.977   4.530  1.1283 -0.0612  3.5129
  110MOL0     H14513   4.319   4.827   4.458  0.9113  1.5711 -0.9089
  110MOL0     H14514   4.128   4.807   4.687  0.8605 -0.4430 -0.0539
  110MOL0     H14515   4.179   4.690   4.568  3.5786  0.0577 -1.7715
  110MOL0     H14516   4.011   4.942   4.503 -0.4813 -0.7451  0.3108
  110MOL0     H14517   4.049   4.820   4.381 -1.9348  2.9768 -0.9969
  110MOL0     H14518   3.735   4.620   4.563  0.3545 -0.8186 -2.1408
  110MOL0     H14519   4.693   5.088   4.618 -4.4859  0.4595  1.1228
  110MOL0     H14520   4.908   5.072   4.729 -0.8730  1.1766 -0.1672
  111MOL0     O14521   4.329   7.694   7.177  0.4418 -0.5590  0.0421
  111MOL0     C14522   4.418   7.781   7.169 -0.2494  0.0288  0.4199
  111MOL0     O14523   4.407   7.924   7.178  0.4572  0.1447  0.4350
  111MOL0     C14524   4.300   7.982   7.238  0.1569 -0.7298 -0.2408
  111MOL0     C14525   4.187   7.938   7.309  1.1590  0.9601  0.6016
  111MOL0     C14526   4.098   8.026   7.358  0.6447  0.1169  0.4225
  111MOL0     C14527   4.115   8.165   7.356  0.2733  0.3900  0.8373
  111MOL0     O14528   4.016   8.243   7.410  0.0954  0.0836  0.3084
  111MOL0     C14529   4.015   8.386   7.384 -0.0725  1.1114  0.5532
  111MOL0     C14530   3.893   8.460   7.442  0.8849 -0.6747  1.4743
  111MOL0     C14531   3.757   8.397   7.392 -0.3980 -0.1522 -0.6892
  111MOL0     C14532   3.641   8.490   7.441 -0.2477  0.3847 -0.2707
  111MOL0     C14533   3.524   8.482   7.336 -0.7330  0.2877 -0.1110
  111MOL0     C14534   3.385   8.490   7.395 -0.0404 -0.0564 -0.3874
  111MOL0     C14535   3.282   8.487   7.278 -0.1343 -0.6853 -0.2389
  111MOL0     C14536   3.154   8.419   7.308  0.4171 -0.5532 -0.2155
  111MOL0     N14537   3.047   8.431   7.216 -0.2170 -0.4948  1.0551
  111MOL0     C14538   3.044   8.410   7.074  0.3897  0.9094 -0.6356
  111MOL0     C14539   2.911   8.432   7.037 -1.0999 -0.2295  0.2106
  111MOL0     C14540   2.862   8.413   6.897  1.1289 -0.6828 -0.2766
  111MOL0     C14541   2.965   8.448   6.789 -0.2885 -0.4074 -0.2968
  111MOL0     C14542   2.910   8.443   6.649 -1.2149 -0.4554 -0.1724
  111MOL0     C14543   2.821   8.332   6.615  0.1211 -0.5674 -0.4183
  111MOL0     O14544   2.793   8.339   6.471  0.7003 -0.2730  0.9086
  111MOL0     C14545   2.684   8.273   6.418 -0.1147 -0.2725  0.8524
  111MOL0     C14546   2.674   8.303   6.276  0.5272 -0.0534 -0.4977
  111MOL0     C14547   2.572   8.266   6.199 -0.4611  0.1181 -0.2758
  111MOL0     C14548   2.474   8.185   6.258  0.2691 -0.1282  0.0710
  111MOL0     C14549   2.360   8.140   6.177 -0.9788 -1.2501 -0.7893
  111MOL0     O14550   2.248   8.113   6.237 -0.4075  0.2015  0.0611
  111MOL0     C14551   2.154   8.049   6.159 -0.0683  0.0485  0.1018
  111MOL0     C14552   2.165   7.914   6.126 -0.5272  0.1182 -0.6205
  111MOL0     C14553   2.064   7.865   6.048  0.4101  0.1793  0.0895
  111MOL0     C14554   1.956   7.944   6.004 -0.4947 -0.2601  0.7973
  111MOL0     O14555   1.864   7.895   5.911 -0.5195  0.2767  0.2674
  111MOL0     C14556   1.765   7.803   5.955  0.0423 -0.2512 -0.6962
  111MOL0     C14557   1.723   7.696   5.849 -0.1619 -0.4468 -0.0008
  111MOL0     C14558   1.632   7.591   5.906 -0.6085  0.1399  0.1466
  111MOL0     C14559   1.566   7.497   5.808  0.3822 -0.0452  0.1661
  111MOL0     C14560   1.465   7.569   5.719 -0.5328  0.1146 -0.4559
  111MOL0     C14561   1.393   7.471   5.620 -0.8167  0.6429  0.2944
  111MOL0     C14562   1.276   7.533   5.539  0.3633  0.0312  0.7017
  111MOL0     C14563   1.160   7.436   5.524 -0.0763 -0.2067 -0.7520
  111MOL0    Cl14564   1.045   7.509   5.416 -0.4641 -0.1494 -0.1387
  111MOL0     C14565   1.954   8.083   6.029 -0.4082 -0.2816 -0.1138
  111MOL0     C14566   2.055   8.128   6.114  1.1679 -0.3719  0.1719
  111MOL0     O14567   2.384   8.136   6.055  0.2834  0.0709  0.0660
  111MOL0     C14568   2.470   8.153   6.391  0.2492  0.7772 -0.6972
  111MOL0     C14569   2.578   8.196   6.472  0.9019  0.6149  0.1305
  111MOL0     N14570   2.848   8.448   7.155  0.0839  0.1490  0.3839
  111MOL0     N14571   2.925   8.462   7.248 -0.6220 -0.1599  0.1430
  111MOL0     C14572   4.238   8.211   7.301 -0.1390 -0.0802  0.7597
  111MOL0     C14573   4.329   8.116   7.247  1.4111 -0.7769 -0.5013
  111MOL0     C14574   4.559   7.734   7.144  0.3422 -0.0065 -0.1759
  111MOL0     C14575   4.668   7.820   7.176 -0.6640  1.0047  0.6854
  111MOL0     C14576   4.803   7.768   7.158 -0.8135  0.2667 -0.6738
  111MOL0     C14577   4.824   7.641   7.107 -0.1395  0.6742  0.1228
  111MOL0     O14578   4.943   7.583   7.063 -0.1802  0.1621  0.1972
  111MOL0     C14579   5.064   7.664   7.053  0.5398 -0.2396 -0.3527
  111MOL0     C14580   5.136   7.635   6.920 -0.7059  0.5213  0.5391
  111MOL0     C14581   5.277   7.690   6.895 -0.2478  0.3023 -0.4575
  111MOL0     C14582   5.314   7.691   6.754 -0.3819 -0.0886 -0.1180
  111MOL0     C14583   5.276   7.817   6.688  0.1518 -0.3302 -0.3213
  111MOL0     C14584   5.247   7.921   6.631  1.2229 -0.0768  0.0029
  111MOL0     C14585   4.717   7.561   7.081  0.6298 -0.4778 -0.4579
  111MOL0     C14586   4.591   7.602   7.107 -0.5320  0.1441  0.5685
  111MOL0     H14587   4.155   7.834   7.314 -1.0721  1.5184 -0.6902
  111MOL0     H14588   4.014   7.977   7.407  2.5107 -2.9476  0.8177
  111MOL0     H14589   4.018   8.392   7.275 -1.7659 -0.1625  0.3836
  111MOL0     H14590   4.108   8.414   7.433 -0.8609 -0.1537  2.9317
  111MOL0     H14591   3.892   8.567   7.423 -1.9145 -1.1160 -1.9223
  111MOL0     H14592   3.888   8.447   7.551  1.5545  1.1068  1.7493
  111MOL0     H14593   3.752   8.290   7.412  2.9498 -0.5533 -1.4133
  111MOL0     H14594   3.760   8.408   7.284 -1.3675 -0.0667 -0.7123
  111MOL0     H14595   3.608   8.461   7.541 -1.6825 -0.4531 -0.9445
  111MOL0     H14596   3.666   8.597   7.445  0.1240  0.4004  5.6394
  111MOL0     H14597   3.540   8.387   7.283 -1.0562 -0.5411  1.2312
  111MOL0     H14598   3.533   8.567   7.267 -1.1979 -0.3213 -0.9487
  111MOL0     H14599   3.373   8.581   7.454  0.8909  0.6905 -1.3102
  111MOL0     H14600   3.368   8.401   7.457  2.3507 -0.5595 -0.3562
  111MOL0     H14601   3.266   8.585   7.232  0.9809 -0.5894 -0.4499
  111MOL0     H14602   3.330   8.423   7.203  3.0024  0.3803  0.6912
  111MOL0     H14603   3.112   8.466   7.397 -2.1204  0.0808 -1.6484
  111MOL0     H14604   3.181   8.315   7.331  0.3311 -0.8044 -1.2122
  111MOL0     H14605   3.125   8.368   7.015  1.7770  0.4816  1.4959
  111MOL0     H14606   2.771   8.472   6.883  1.5585 -0.2177 -1.1608
  111MOL0     H14607   2.830   8.310   6.880  2.1492 -0.4824 -4.1729
  111MOL0     H14608   3.047   8.376   6.800  0.3693 -0.2960 -3.4885
  111MOL0     H14609   3.012   8.547   6.801  1.6906 -1.2150 -0.8588
  111MOL0     H14610   2.871   8.543   6.628 -0.0857  0.4968  1.9345
  111MOL0     H14611   2.997   8.433   6.583 -2.4503 -0.6885 -1.8203
  111MOL0     H14612   2.733   8.322   6.679  0.6550 -1.1935  0.2398
  111MOL0     H14613   2.878   8.239   6.617 -1.0525 -1.3051  0.0472
  111MOL0     H14614   2.756   8.366   6.244  1.7250 -1.0283  0.4864
  111MOL0     H14615   2.556   8.300   6.097 -0.6284 -1.7167 -0.9001
  111MOL0     H14616   2.255   7.858   6.152 -0.9217 -0.5186 -0.5884
  111MOL0     H14617   2.082   7.763   6.016  2.2984  0.6717 -0.6025
  111MOL0     H14618   1.675   7.860   5.980 -0.0458 -0.7570  0.1740
  111MOL0     H14619   1.806   7.758   6.045 -0.8545 -1.0883 -0.6807
  111MOL0     H14620   1.819   7.653   5.818 -0.1294  1.2340 -2.5091
  111MOL0     H14621   1.681   7.743   5.760  0.7012  0.0432 -0.1609
  111MOL0     H14622   1.549   7.642   5.956 -1.2287  0.8040 -1.5066
  111MOL0     H14623   1.683   7.526   5.978 -3.2312 -1.8249  0.3572
  111MOL0     H14624   1.646   7.451   5.748 -1.0328 -1.2190 -0.9134
  111MOL0     H14625   1.520   7.423   5.873  0.8184 -1.0945 -0.6761
  111MOL0     H14626   1.515   7.653   5.670  0.7260 -1.3726 -1.7990
  111MOL0     H14627   1.383   7.613   5.777  0.0832  1.5837 -0.6484
  111MOL0     H14628   1.350   7.385   5.673 -1.5566  0.6097 -0.3366
  111MOL0     H14629   1.477   7.434   5.561 -1.1172  1.8490 -0.9572
  111MOL0     H14630   1.244   7.625   5.589 -2.9309 -0.6649  0.1030
  111MOL0     H14631   1.313   7.571   5.444 -3.1426  2.2203  0.0213
  111MOL0     H14632   1.121   7.410   5.623 -0.0314 -2.6496 -1.2928
  111MOL0     H14633   1.205   7.345   5.483  0.4943 -1.0138  1.5157
  111MOL0     H14634   1.872   8.139   5.984 -0.0040  0.0312 -0.4722
  111MOL0     H14635   2.064   8.234   6.136  0.0910 -0.5997  1.8691
  111MOL0     H14636   2.400   8.078   6.425  1.9747  0.9088  3.8176
  111MOL0     H14637   2.582   8.168   6.577  2.2079  2.4388  0.6197
  111MOL0     H14638   4.262   8.315   7.285 -0.1909 -0.2697 -0.7218
  111MOL0     H14639   4.409   8.147   7.182  0.3166 -2.2319 -2.6716
  111MOL0     H14640   4.640   7.914   7.221 -5.3581  0.6417 -0.9494
  111MOL0     H14641   4.888   7.834   7.172 -0.9276  0.3541 -0.3858
  111MOL0     H14642   5.124   7.644   7.142  0.4699 -0.1123 -0.2772
  111MOL0     H14643   5.046   7.772   7.055  3.0470  0.2223  1.1337
  111MOL0     H14644   5.136   7.527   6.903 -0.8618  0.7210 -0.8584
  111MOL0     H14645   5.074   7.677   6.841 -0.3027 -0.5638 -0.3914
  111MOL0     H14646   5.347   7.636   6.960 -1.5246  0.2487  0.9374
  111MOL0     H14647   5.272   7.793   6.931  1.8501 -0.0963  1.2017
  111MOL0     H14648   5.417   7.665   6.727 -1.1152 -1.1656 -2.1301
  111MOL0     H14649   5.257   7.608   6.711 -2.0696  1.2494 -0.5471
  111MOL0     H14650   5.216   8.010   6.579  0.0058  0.6131  1.8161
  111MOL0     H14651   4.731   7.464   7.033  0.6555 -0.8501  0.2811
  111MOL0     H14652   4.515   7.526   7.094  1.7515 -2.5700  1.9682
  112MOL0     O14653  10.056   4.801   0.300  0.0249  0.4294  0.2608
  112MOL0     C14654  10.103   4.913   0.266 -0.2067 -0.0793  0.3586
  112MOL0     O14655  10.034   5.025   0.225 -0.3912 -0.0951 -0.2544
  112MOL0     C14656   9.898   5.019   0.210 -0.1640 -0.0974 -0.0416
  112MOL0     C14657   9.844   5.021   0.085 -0.0472  0.4082 -0.1611
  112MOL0     C14658   9.703   4.991   0.067  0.7711 -0.0251 -0.1696
  112MOL0     C14659   9.623   4.965   0.176  0.0783 -0.2535 -0.0715
  112MOL0     O14660   9.485   4.951   0.158 -0.4303  0.1758  0.0223
  112MOL0     C14661   9.392   4.943   0.267 -0.5649 -0.0140  0.1702
  112MOL0     C14662   9.249   4.930   0.213 -0.1721 -0.9065  0.2179
  112MOL0     C14663   9.226   4.819   0.111 -0.6141  0.8303 -0.6723
  112MOL0     C14664   9.076   4.781   0.086 -0.1028 -0.1385  0.0241
  112MOL0     C14665   9.005   4.758   0.218 -1.0035 -0.2081  0.0582
  112MOL0     C14666   8.867   4.712   0.211 -0.0187  0.0671  0.9140
  112MOL0     C14667   8.795   4.753   0.335  0.4122 -1.0310  0.2489
  112MOL0     C14668   8.648   4.740   0.298 -0.3508  0.5433  0.9544
  112MOL0     N14669   8.566   4.739   0.413  0.7307  0.0890 -0.1225
  112MOL0     C14670   8.521   4.849   0.467  0.1029  0.0664 -0.8047
  112MOL0     C14671   8.430   4.814   0.559  0.1848  0.4150  0.1712
  112MOL0     C14672   8.341   4.900   0.642  0.8209 -0.7971  0.1393
  112MOL0     C14673   8.199   4.903   0.584  0.1623  0.0546 -0.1423
  112MOL0     C14674   8.117   4.980   0.685  0.3119 -0.4116 -0.8196
  112MOL0     C14675   7.959   4.953   0.663 -0.2586  0.1406  0.1569
  112MOL0     O14676   7.882   5.043   0.734 -0.0559  0.2861  0.6095
  112MOL0     C14677   7.747   5.043   0.704 -0.7508 -0.5854  0.6450
  112MOL0     C14678   7.688   4.981   0.599  0.1118  0.1449  0.1329
  112MOL0     C14679   7.550   4.995   0.589  0.3112  0.4815 -0.4886
  112MOL0     C14680   7.471   5.058   0.686 -0.0992  0.1916  0.2897
  112MOL0     C14681   7.319   5.067   0.682 -0.0650  0.4214 -0.4534
  112MOL0     O14682   7.259   5.169   0.771 -0.3573  0.2951 -0.2889
  112MOL0     C14683   7.128   5.185   0.789 -0.6128  0.1651  0.0477
  112MOL0     C14684   7.028   5.102   0.743 -0.0316 -0.2998  0.4907
  112MOL0     C14685   6.895   5.138   0.737 -0.0064 -0.3936 -0.9332
  112MOL0     C14686   6.858   5.252   0.806  0.6638  0.4467  1.0811
  112MOL0     O14687   6.718   5.275   0.801  0.5219 -0.4750 -0.3342
  112MOL0     C14688   6.655   5.367   0.898  0.2113 -0.4624  0.1127
  112MOL0     C14689   6.495   5.374   0.875  0.3703  0.3159  0.2720
  112MOL0     C14690   6.441   5.240   0.890 -0.0052  0.3074 -0.2090
  112MOL0     C14691   6.395   5.217   1.036 -0.4846  1.4342 -0.3631
  112MOL0     C14692   6.346   5.076   1.059 -0.3067 -0.1506 -0.1983
  112MOL0     C14693   6.196   5.062   1.045  0.3811 -0.6507 -0.2181
  112MOL0     C14694   6.154   4.928   1.106  0.1086 -0.6106 -0.3569
  112MOL0     C14695   6.016   4.937   1.175  1.1584 -0.2391 -0.4477
  112MOL0    Cl14696   6.000   5.043   1.317  0.3491 -0.3327 -0.1850
  112MOL0     C14697   6.951   5.327   0.879 -0.8846  0.1000  0.5809
  112MOL0     C14698   7.093   5.298   0.859  0.7541 -0.3470 -0.1068
  112MOL0     O14699   7.256   4.976   0.621  0.2389  0.6844 -0.4420
  112MOL0     C14700   7.537   5.120   0.795 -0.8618 -0.8893 -0.0244
  112MOL0     C14701   7.677   5.113   0.804 -0.2422  0.3710 -0.1288
  112MOL0     N14702   8.422   4.682   0.552  0.0815  0.4020  0.0131
  112MOL0     N14703   8.503   4.634   0.465  0.4160 -0.3271  0.6129
  112MOL0     C14704   9.683   4.960   0.303  0.7558 -0.3043  0.2449
  112MOL0     C14705   9.820   4.995   0.320 -0.6836  0.3454  1.2279
  112MOL0     C14706  10.257   4.919   0.266  0.5758 -0.0213  0.7678
  112MOL0     C14707  10.340   4.837   0.356 -0.2570  0.1322 -0.4115
  112MOL0     C14708  10.478   4.849   0.346  0.6411 -0.2420  0.6730
  112MOL0     C14709  10.542   4.951   0.276  0.5513 -0.3131  1.2409
  112MOL0     O14710  10.671   4.980   0.283 -0.8404  0.7726  0.2243
  112MOL0     C14711  10.744   4.949   0.409  1.1489  0.5956  0.4556
  112MOL0     C14712  10.873   5.036   0.428 -0.3270 -0.0484 -0.0262
  112MOL0     C14713  10.846   5.185   0.458  0.3088  0.0989 -0.0657
  112MOL0     C14714  10.962   5.282   0.407 -0.3976  0.1185 -0.7977
  112MOL0     C14715  10.988   5.278   0.264 -0.6325 -0.6827 -0.0791
  112MOL0     C14716  11.017   5.283   0.146  0.6220 -0.2470  0.3067
  112MOL0     C14717  10.465   5.026   0.185 -0.0095 -0.0760  0.3676
  112MOL0     C14718  10.323   5.013   0.183 -0.1967 -0.2334  0.6148
  112MOL0     H14719   9.915   5.035   0.004 -0.0162  0.2599 -0.1607
  112MOL0     H14720   9.655   5.001  -0.030  0.4550  0.4518  0.0336
  112MOL0     H14721   9.398   5.021   0.343  3.1899 -0.5228  0.5988
  112MOL0     H14722   9.416   4.854   0.327  0.7805  1.4166  1.8421
  112MOL0     H14723   9.224   5.025   0.166 -4.2858 -1.7811  0.3001
  112MOL0     H14724   9.182   4.919   0.299 -1.2607 -2.4522 -0.7794
  112MOL0     H14725   9.281   4.730   0.141 -0.2951  1.4477  0.6391
  112MOL0     H14726   9.273   4.849   0.017  0.1297 -1.9991 -1.2909
  112MOL0     H14727   9.030   4.859   0.025  0.7352 -0.9517 -1.7190
  112MOL0     H14728   9.081   4.688   0.028 -0.3452  0.4804 -1.0217
  112MOL0     H14729   9.002   4.856   0.264 -1.6022  0.3842 -1.1916
  112MOL0     H14730   9.067   4.691   0.279  1.8036  1.9258 -0.2536
  112MOL0     H14731   8.865   4.603   0.205 -2.6510  0.0573  0.9120
  112MOL0     H14732   8.836   4.757   0.117 -1.0858  1.3987  1.8586
  112MOL0     H14733   8.835   4.691   0.416 -0.8997 -1.6982  0.4130
  112MOL0     H14734   8.803   4.858   0.363 -2.2643 -0.3503 -1.1557
  112MOL0     H14735   8.635   4.660   0.225 -0.2185  2.4488 -1.2842
  112MOL0     H14736   8.610   4.823   0.236 -0.8442  1.5040  2.4876
  112MOL0     H14737   8.559   4.950   0.454  0.5690 -0.1506 -1.1561
  112MOL0     H14738   8.383   5.001   0.655 -0.5383 -0.4449  2.3245
  112MOL0     H14739   8.326   4.853   0.740  1.1906  2.1084  1.7365
  112MOL0     H14740   8.149   4.807   0.565  0.0627 -0.0472  0.5800
  112MOL0     H14741   8.203   4.950   0.486 -0.4947 -0.0054 -0.2002
  112MOL0     H14742   8.134   4.951   0.789  0.1388 -0.3771 -0.7812
  112MOL0     H14743   8.134   5.087   0.676 -4.1985  0.4380 -2.0815
  112MOL0     H14744   7.936   4.850   0.694  0.3741  0.3275  1.3319
  112MOL0     H14745   7.939   4.985   0.561  0.1012  2.5989  0.7940
  112MOL0     H14746   7.736   4.924   0.519 -0.9898 -1.9102  0.8657
  112MOL0     H14747   7.500   4.964   0.497  0.0340 -1.8216  0.3860
  112MOL0     H14748   7.033   5.014   0.681 -1.2034  0.4885 -0.7828
  112MOL0     H14749   6.811   5.089   0.690 -1.9285  1.6007  0.2561
  112MOL0     H14750   6.689   5.469   0.877 -2.2131  0.0018 -2.0447
  112MOL0     H14751   6.662   5.345   1.005 -2.8120 -0.6148  0.3736
  112MOL0     H14752   6.485   5.417   0.775  0.6884  1.6316  0.7838
  112MOL0     H14753   6.443   5.449   0.936  1.2871  1.8173 -0.7047
  112MOL0     H14754   6.513   5.165   0.856  0.4392  1.1602 -1.2282
  112MOL0     H14755   6.353   5.243   0.825 -0.7284  3.5773  0.7288
  112MOL0     H14756   6.484   5.239   1.096 -1.5413  2.1847  0.9737
  112MOL0     H14757   6.317   5.286   1.070 -0.1045  0.9833  1.5195
  112MOL0     H14758   6.374   5.057   1.163 -0.0838  0.5889 -0.1231
  112MOL0     H14759   6.399   5.002   0.999  0.8425  1.7087 -1.5669
  112MOL0     H14760   6.153   5.069   0.945  1.5170  0.1598 -0.6736
  112MOL0     H14761   6.154   5.151   1.092  0.5962  0.7533 -2.5448
  112MOL0     H14762   6.146   4.846   1.034 -3.0621 -0.7808  0.0100
  112MOL0     H14763   6.223   4.897   1.185  3.9853 -0.2380 -3.3003
  112MOL0     H14764   5.997   4.831   1.192 -3.6809  0.3378 -0.9444
  112MOL0     H14765   5.930   4.964   1.113  0.3512 -0.6725  0.4522
  112MOL0     H14766   6.916   5.412   0.937 -2.5495 -0.8698  1.0512
  112MOL0     H14767   7.167   5.356   0.912  0.0288  1.0245 -0.5493
  112MOL0     H14768   7.472   5.163   0.870 -1.6135 -0.1589 -1.0653
  112MOL0     H14769   7.743   5.154   0.879  3.0766 -0.0285 -2.6131
  112MOL0     H14770   9.633   4.929   0.393 -1.6287 -0.7240 -1.1488
  112MOL0     H14771   9.863   4.982   0.419 -0.8692 -0.9521  1.1625
  112MOL0     H14772  10.297   4.754   0.411 -0.9281  0.0585 -1.0350
  112MOL0     H14773  10.538   4.785   0.411  1.5487  0.4439  0.5325
  112MOL0     H14774  10.768   4.842   0.413 -0.1147  0.1921 -1.4187
  112MOL0     H14775  10.678   4.961   0.495  1.7020 -1.1002  1.1682
  112MOL0     H14776  10.935   4.992   0.507  1.3769 -0.3514 -1.4651
  112MOL0     H14777  10.934   5.033   0.338 -0.1432  0.9933  0.0467
  112MOL0     H14778  10.840   5.193   0.567  1.5629 -0.3611  0.0517
  112MOL0     H14779  10.748   5.205   0.413  0.6227 -1.4982 -1.5552
  112MOL0     H14780  10.947   5.384   0.443  0.2528 -0.2416  0.5381
  112MOL0     H14781  11.055   5.249   0.454  1.8596  3.6944 -2.2814
  112MOL0     H14782  11.049   5.283   0.044  0.6543 -2.8221  0.2747
  112MOL0     H14783  10.518   5.081   0.108 -1.6205 -0.9044 -1.4063
  112MOL0     H14784  10.274   5.076   0.110  1.7092  2.9247  1.8312
  113MOL0     O14785  10.535  10.655   5.634 -0.1560 -0.0910 -0.0726
  113MOL0     C14786  10.559  10.766   5.692  0.0598  1.0114  0.3996
  113MOL0     O14787  10.467  10.833   5.763  0.4245 -0.1046  1.0167
  113MOL0     C14788  10.330  10.793   5.765  0.1280  0.0439 -1.1204
  113MOL0     C14789  10.266  10.705   5.682  0.3146  0.5652  0.1588
  113MOL0     C14790  10.127  10.672   5.699 -0.5537 -0.6042 -0.1091
  113MOL0     C14791  10.048  10.733   5.797 -0.6032 -0.6069  0.0514
  113MOL0     O14792   9.917  10.714   5.822  0.1593  0.0292 -0.2280
  113MOL0     C14793   9.844  10.648   5.721 -0.2882  0.5833  0.7159
  113MOL0     C14794   9.707  10.633   5.776  0.5822 -0.1186  0.0488
  113MOL0     C14795   9.611  10.589   5.669  0.2609  0.5647 -1.0137
  113MOL0     C14796   9.468  10.593   5.715 -0.1310  0.7208 -0.0257
  113MOL0     C14797   9.370  10.584   5.603  0.1198 -0.1334 -0.0446
  113MOL0     C14798   9.226  10.569   5.651  0.5856 -0.5794  0.8789
  113MOL0     C14799   9.127  10.543   5.531 -0.2287  0.0336  0.7850
  113MOL0     C14800   8.991  10.606   5.572 -0.7092  0.0640  0.6472
  113MOL0     N14801   8.876  10.561   5.488 -0.3883  0.0968 -0.6932
  113MOL0     C14802   8.786  10.643   5.434  0.1148  0.0785  0.2840
  113MOL0     C14803   8.704  10.564   5.359  1.2090 -0.2035 -0.4340
  113MOL0     C14804   8.584  10.621   5.287  0.0316 -0.7076  0.0317
  113MOL0     C14805   8.529  10.538   5.170  0.4325  0.2308 -0.2406
  113MOL0     C14806   8.392  10.571   5.130 -0.6872 -0.2358 -0.3768
  113MOL0     C14807   8.360  10.508   4.992  0.7976 -0.2864 -0.2766
  113MOL0     O14808   8.231  10.556   4.947 -0.0387 -0.5742  0.2598
  113MOL0     C14809   8.222  10.681   4.896 -0.7811  0.1704  0.4457
  113MOL0     C14810   8.093  10.737   4.889  0.4029  0.3705  0.1288
  113MOL0     C14811   8.074  10.870   4.833  0.2021  0.4849 -0.9627
  113MOL0     C14812   8.180  10.954   4.792  0.2304 -0.7078 -0.6673
  113MOL0     C14813   8.160  11.085   4.726  0.0473 -0.7019  0.4987
  113MOL0     O14814   8.263  11.159   4.675 -0.1718 -0.0437  0.1283
  113MOL0     C14815   8.244  11.267   4.593 -0.4976  1.4306 -0.7217
  113MOL0     C14816   8.291  11.387   4.624 -0.0738 -0.5080  0.0360
  113MOL0     C14817   8.290  11.486   4.523 -0.1679  0.5845 -0.4145
  113MOL0     C14818   8.225  11.463   4.403 -0.6733 -0.8537 -0.7870
  113MOL0     O14819   8.223  11.571   4.318 -1.0830 -0.6329  0.5379
  113MOL0     C14820   8.232  11.543   4.175  0.1148  0.4715 -0.9425
  113MOL0     C14821   8.297  11.666   4.113  0.4621 -0.4323 -0.1249
  113MOL0     C14822   8.293  11.658   3.960 -0.3754  0.4392  0.5089
  113MOL0     C14823   8.354  11.768   3.883 -0.8404 -0.0597  0.1366
  113MOL0     C14824   8.329  11.748   3.736 -0.5852 -0.2908  0.5891
  113MOL0     C14825   8.425  11.838   3.664  0.4496  0.5899  0.2572
  113MOL0     C14826   8.375  11.878   3.527 -0.1077  0.4198 -0.4869
  113MOL0     C14827   8.405  11.771   3.424  0.4592 -0.0171 -0.1549
  113MOL0    Cl14828   8.580  11.768   3.406 -0.3308  0.1730  0.0402
  113MOL0     C14829   8.176  11.340   4.376  1.0703  0.3248 -1.0464
  113MOL0     C14830   8.184  11.242   4.469  0.1837 -0.6328  0.3074
  113MOL0     O14831   8.047  11.131   4.729  0.4510 -0.0652 -0.0105
  113MOL0     C14832   8.307  10.902   4.822 -0.1224 -0.5984 -0.8002
  113MOL0     C14833   8.327  10.769   4.863  0.0687 -0.5332 -0.8559
  113MOL0     N14834   8.753  10.433   5.367  0.0054 -0.3909 -0.1035
  113MOL0     N14835   8.853  10.436   5.449  0.5754 -0.0378  0.8931
  113MOL0     C14836  10.118  10.823   5.877 -0.3961 -0.0165 -0.5953
  113MOL0     C14837  10.252  10.857   5.862  0.0607  0.1100  0.4653
  113MOL0     C14838  10.693  10.823   5.670 -0.0235 -0.5834 -0.6277
  113MOL0     C14839  10.709  10.957   5.694  0.1492  0.0216 -0.7234
  113MOL0     C14840  10.830  11.019   5.677  0.7902  0.8204  0.2484
  113MOL0     C14841  10.944  10.946   5.636  0.1841 -0.2283 -0.2826
  113MOL0     O14842  11.063  11.008   5.628 -0.4435 -0.0267 -0.3802
  113MOL0     C14843  11.177  10.932   5.572 -0.3419 -0.1796  0.3243
  113MOL0     C14844  11.292  11.036   5.546  0.5369  0.0919 -0.7807
  113MOL0     C14845  11.346  11.021   5.400 -0.0395  0.4298  0.0304
  113MOL0     C14846  11.449  11.113   5.367  0.3653 -0.2012 -0.0653
  113MOL0     C14847  11.543  11.066   5.265 -0.5854 -0.3811 -0.3722
  113MOL0     C14848  11.634  11.025   5.194  0.4857  0.1520 -0.5706
  113MOL0     C14849  10.930  10.813   5.599  0.2297  0.4139  0.1403
  113MOL0     C14850  10.806  10.752   5.614  0.2612 -0.4424  0.2396
  113MOL0     H14851  10.305  10.650   5.597 -1.6466 -1.6680  0.5904
  113MOL0     H14852  10.090  10.593   5.635 -3.3422 -0.7362  1.4900
  113MOL0     H14853   9.875  10.546   5.698 -2.9274 -0.1766  0.2324
  113MOL0     H14854   9.831  10.716   5.636 -0.4429  0.9954  1.0643
  113MOL0     H14855   9.660  10.720   5.824 -0.0092  0.6059 -1.7392
  113MOL0     H14856   9.719  10.557   5.853  2.3309  1.5387  1.5306
  113MOL0     H14857   9.632  10.486   5.639 -0.5392 -0.1779  0.8703
  113MOL0     H14858   9.604  10.660   5.586  0.1374  1.7462 -0.0200
  113MOL0     H14859   9.447  10.519   5.793 -3.2907  0.8671 -0.5822
  113MOL0     H14860   9.443  10.691   5.758 -0.8965  0.6408 -0.2725
  113MOL0     H14861   9.396  10.495   5.545  1.4443 -0.6752  1.3277
  113MOL0     H14862   9.379  10.678   5.549 -0.4534  0.9921  1.7176
  113MOL0     H14863   9.204  10.667   5.693  0.7312 -1.3132  2.7327
  113MOL0     H14864   9.223  10.494   5.730  0.1858 -0.8834  0.5873
  113MOL0     H14865   9.152  10.594   5.438 -2.6799  3.1876  1.6679
  113MOL0     H14866   9.123  10.434   5.524  0.3963  0.0195  0.6550
  113MOL0     H14867   8.999  10.715   5.576 -0.3811  0.0108  1.9917
  113MOL0     H14868   8.961  10.566   5.669  0.2725  0.5073  1.1424
  113MOL0     H14869   8.781  10.752   5.436  2.5902  0.2475  0.4108
  113MOL0     H14870   8.623  10.712   5.240 -2.5177 -0.9321 -2.8253
  113MOL0     H14871   8.505  10.637   5.362  0.3485  1.2978 -0.0102
  113MOL0     H14872   8.532  10.433   5.198  0.1915  0.3694  0.3051
  113MOL0     H14873   8.588  10.545   5.078 -0.8681  0.9777 -1.0422
  113MOL0     H14874   8.316  10.545   5.205  1.0493 -0.0313  1.5378
  113MOL0     H14875   8.388  10.680   5.118  0.3005 -0.0449  0.8815
  113MOL0     H14876   8.350  10.399   4.998 -2.2135 -0.1119 -0.7360
  113MOL0     H14877   8.441  10.529   4.922  0.3953 -1.2532 -1.0591
  113MOL0     H14878   8.007  10.675   4.909  0.3922  0.1141 -0.6476
  113MOL0     H14879   7.972  10.904   4.819 -0.4179 -0.6902  0.4695
  113MOL0     H14880   8.331  11.416   4.721 -0.1597  3.4843 -0.9412
  113MOL0     H14881   8.340  11.582   4.532  1.9012 -0.4215 -0.6292
  113MOL0     H14882   8.138  11.540   4.120 -0.7525 -1.4408  0.5172
  113MOL0     H14883   8.289  11.452   4.157  0.4518  0.8361 -1.7784
  113MOL0     H14884   8.398  11.686   4.148  0.1467 -0.0158  0.5804
  113MOL0     H14885   8.230  11.750   4.134 -0.8603 -1.5677  0.4336
  113MOL0     H14886   8.191  11.646   3.924  0.2085 -1.1778 -0.7297
  113MOL0     H14887   8.348  11.569   3.929 -1.5312  0.1259 -0.7476
  113MOL0     H14888   8.309  11.866   3.904  2.9108  2.0286 -0.7300
  113MOL0     H14889   8.460  11.766   3.909 -0.5256  0.4951 -1.0426
  113MOL0     H14890   8.228  11.771   3.701 -1.1134 -2.9347  0.2343
  113MOL0     H14891   8.351  11.644   3.712  1.0555 -0.4805  2.5649
  113MOL0     H14892   8.530  11.805   3.664  1.3271  3.1185 -0.9319
  113MOL0     H14893   8.429  11.926   3.729  0.6889 -1.1687  2.7873
  113MOL0     H14894   8.269  11.905   3.533  0.0726  0.8233  1.6295
  113MOL0     H14895   8.438  11.963   3.500  0.7887  0.6219  1.9862
  113MOL0     H14896   8.364  11.803   3.328  0.5801  2.0085  0.4187
  113MOL0     H14897   8.367  11.671   3.447  1.3858  0.1354  2.3657
  113MOL0     H14898   8.118  11.310   4.289 -0.5986 -1.2049  0.5226
  113MOL0     H14899   8.134  11.150   4.442 -0.3228 -0.2524 -0.0620
  113MOL0     H14900   8.395  10.965   4.816 -0.7011  0.0850 -2.6203
  113MOL0     H14901   8.431  10.741   4.872  0.4070  0.8264 -0.3492
  113MOL0     H14902  10.083  10.859   5.973 -1.1936  2.3226 -1.6950
  113MOL0     H14903  10.294  10.925   5.935  1.9131 -1.7651  1.2202
  113MOL0     H14904  10.637  11.026   5.736 -1.8764 -2.8300  0.8850
  113MOL0     H14905  10.830  11.127   5.694 -0.9155  0.9832 -0.5085
  113MOL0     H14906  11.152  10.880   5.479 -0.9491 -0.3543  0.5813
  113MOL0     H14907  11.219  10.851   5.632 -2.3824  2.0469  5.2606
  113MOL0     H14908  11.248  11.135   5.557  0.6061  0.0167  0.2798
  113MOL0     H14909  11.378  11.029   5.614  0.8218 -0.5584 -1.1968
  113MOL0     H14910  11.262  11.037   5.333 -1.5132  0.2840  1.7691
  113MOL0     H14911  11.381  10.918   5.387 -1.0088  0.0151  0.6000
  113MOL0     H14912  11.403  11.205   5.331 -1.7992 -0.9746  0.6003
  113MOL0     H14913  11.511  11.125   5.457  1.4375  0.0946 -0.8123
  113MOL0     H14914  11.725  11.018   5.138  1.6699  3.4080  0.7357
  113MOL0     H14915  11.002  10.736   5.573  0.4849  1.4892 -2.6184
  113MOL0     H14916  10.793  10.649   5.583  2.2900 -0.1196 -1.9045
  114MOL0     O14917   9.389   2.125   8.331  1.0476  0.5922 -0.0832
  114MOL0     C14918   9.467   2.042   8.279 -0.4869  0.5063 -0.3411
  114MOL0     O14919   9.431   1.920   8.219 -0.1117 -0.1994 -0.2244
  114MOL0     C14920   9.301   1.881   8.232 -0.2978  0.4439  0.5078
  114MOL0     C14921   9.192   1.947   8.181 -0.3905 -0.0517 -0.2644
  114MOL0     C14922   9.070   1.882   8.201 -0.3230  0.5777  0.3618
  114MOL0     C14923   9.056   1.754   8.249  0.3961  0.1847 -1.1683
  114MOL0     O14924   8.931   1.692   8.263 -0.4417 -0.1381 -0.7233
  114MOL0     C14925   8.920   1.551   8.252  0.4071 -0.6902  0.0827
  114MOL0     C14926   8.787   1.509   8.186  0.3000  0.4789 -0.3183
  114MOL0     C14927   8.659   1.506   8.276  0.2476 -0.2247 -0.2633
  114MOL0     C14928   8.517   1.497   8.202 -0.7322 -0.5771 -0.9000
  114MOL0     C14929   8.399   1.503   8.309  0.5299  0.3317 -0.9465
  114MOL0     C14930   8.279   1.558   8.232  0.2726 -0.2083  0.8611
  114MOL0     C14931   8.161   1.580   8.321 -0.5128  0.1134 -0.4307
  114MOL0     C14932   8.080   1.449   8.352 -0.0579 -0.4516  0.4970
  114MOL0     N14933   7.940   1.465   8.385 -0.1662 -0.2744  0.8076
  114MOL0     C14934   7.887   1.502   8.509  0.0034  0.6159  0.5132
  114MOL0     C14935   7.748   1.513   8.477 -0.5537  0.6641 -0.6262
  114MOL0     C14936   7.632   1.566   8.558  0.1811 -0.0116  0.6097
  114MOL0     C14937   7.591   1.475   8.674 -0.6176 -0.1240  0.3845
  114MOL0     C14938   7.547   1.339   8.627  0.6980  0.6276  0.3565
  114MOL0     C14939   7.399   1.333   8.576  0.1983  0.0924 -1.0867
  114MOL0     O14940   7.352   1.202   8.535  0.0101 -0.2704  0.4854
  114MOL0     C14941   7.217   1.174   8.517 -0.1802  0.4809  0.0744
  114MOL0     C14942   7.189   1.049   8.465 -0.3527 -0.5333  0.7201
  114MOL0     C14943   7.067   1.006   8.424 -0.3035 -0.3668  0.6569
  114MOL0     C14944   6.958   1.085   8.462 -0.3066  0.0705  0.5672
  114MOL0     C14945   6.817   1.041   8.435  0.6402  1.0027 -0.6745
  114MOL0     O14946   6.720   1.118   8.491  0.6833  0.3010  0.0496
  114MOL0     C14947   6.592   1.079   8.519 -0.6073  0.3746 -0.2433
  114MOL0     C14948   6.519   0.993   8.431 -0.3266  0.1054  0.4160
  114MOL0     C14949   6.392   0.953   8.467 -0.5385  0.2051 -0.4335
  114MOL0     C14950   6.322   1.006   8.580 -0.1151 -0.2215 -0.5186
  114MOL0     O14951   6.188   0.997   8.610 -0.5873 -0.3710 -0.0168
  114MOL0     C14952   6.096   0.931   8.521  0.5276  0.0085 -0.1381
  114MOL0     C14953   5.945   0.948   8.543  0.9366  0.3641 -0.2999
  114MOL0     C14954   5.892   0.909   8.686 -0.5882 -0.0755 -0.6872
  114MOL0     C14955   5.925   0.760   8.696  0.3683 -0.5086 -0.0914
  114MOL0     C14956   5.868   0.688   8.821  0.0302 -0.0111  0.3316
  114MOL0     C14957   5.709   0.663   8.803  0.2816  0.1164 -1.1427
  114MOL0     C14958   5.670   0.589   8.934  0.8446  0.8350 -0.1503
  114MOL0     C14959   5.537   0.523   8.919 -0.2532 -0.1278  0.7502
  114MOL0    Cl14960   5.481   0.467   9.088 -0.0601  0.2045 -0.0838
  114MOL0     C14961   6.400   1.095   8.665  0.5742  1.0726  0.0361
  114MOL0     C14962   6.537   1.128   8.636 -0.1854  0.7222  0.5908
  114MOL0     O14963   6.803   0.935   8.380 -0.2059  0.1493  0.3124
  114MOL0     C14964   6.981   1.208   8.521  0.7115  0.0118  0.1785
  114MOL0     C14965   7.110   1.260   8.546  0.2807  0.7285  0.4504
  114MOL0     N14966   7.726   1.460   8.354 -0.1672  0.0069  0.7022
  114MOL0     N14967   7.839   1.429   8.298  0.1226  0.1314 -0.5257
  114MOL0     C14968   9.177   1.691   8.291 -0.3043 -0.4951  0.4523
  114MOL0     C14969   9.303   1.753   8.282  0.5472  0.7026  0.3552
  114MOL0     C14970   9.610   2.068   8.280  0.5538  0.2028 -0.8189
  114MOL0     C14971   9.692   2.014   8.188 -0.4557  0.4317 -0.3163
  114MOL0     C14972   9.828   2.028   8.192  0.4157  0.3268 -0.4665
  114MOL0     C14973   9.885   2.099   8.296  0.0525  0.8434  0.8482
  114MOL0     O14974  10.018   2.117   8.302  0.5349  0.3852 -0.2331
  114MOL0     C14975  10.100   2.032   8.215 -0.5211  0.0979 -0.6387
  114MOL0     C14976  10.244   2.073   8.230  0.0054  0.2814  0.0310
  114MOL0     C14977  10.314   1.990   8.339  0.6084  0.2013 -0.1246
  114MOL0     C14978  10.459   2.030   8.366  1.2165 -1.0493 -0.5163
  114MOL0     C14979  10.463   2.158   8.434 -1.0418 -0.4534 -0.4939
  114MOL0     C14980  10.455   2.266   8.485  0.7143 -0.3974  0.2023
  114MOL0     C14981   9.804   2.152   8.394 -0.6635  0.8327 -0.8708
  114MOL0     C14982   9.665   2.134   8.393  0.1175 -0.8225 -0.3246
  114MOL0     H14983   9.194   2.049   8.144 -2.2717  1.8255  4.0892
  114MOL0     H14984   8.979   1.936   8.179  0.3824  0.7252 -2.6753
  114MOL0     H14985   8.917   1.509   8.353 -1.8843  0.0977  0.4158
  114MOL0     H14986   8.998   1.502   8.193 -1.5475 -1.4243 -2.0393
  114MOL0     H14987   8.797   1.404   8.156 -0.3233  0.2565  0.2193
  114MOL0     H14988   8.771   1.582   8.107 -0.4319 -0.7627 -1.3426
  114MOL0     H14989   8.657   1.586   8.351  2.5893 -1.0008  0.7150
  114MOL0     H14990   8.670   1.416   8.337 -0.6307  0.0923  0.3856
  114MOL0     H14991   8.510   1.579   8.130  1.9761 -1.8067 -2.7607
  114MOL0     H14992   8.522   1.404   8.143  0.9436 -0.6251 -0.7410
  114MOL0     H14993   8.437   1.569   8.387  3.3259 -1.2373 -0.8624
  114MOL0     H14994   8.383   1.405   8.356  2.6339  0.6610  0.5924
  114MOL0     H14995   8.264   1.495   8.144  2.0664  1.0070 -0.3736
  114MOL0     H14996   8.303   1.659   8.199  2.5105  0.3253  3.7371
  114MOL0     H14997   8.190   1.623   8.417  1.0573  0.2704 -0.9389
  114MOL0     H14998   8.105   1.663   8.276 -0.3349  0.7777  0.5558
  114MOL0     H14999   8.132   1.409   8.440 -2.0795 -1.0508  1.4732
  114MOL0     H15000   8.090   1.384   8.264  1.7624  0.4651 -0.0173
  114MOL0     H15001   7.952   1.518   8.594  1.6821 -0.6253 -0.4821
  114MOL0     H15002   7.546   1.564   8.490  1.4585  0.9168 -1.1344
  114MOL0     H15003   7.644   1.670   8.589 -1.9157  0.4050  0.1777
  114MOL0     H15004   7.505   1.518   8.725 -0.4070  2.8403 -1.4921
  114MOL0     H15005   7.682   1.445   8.727  0.2468 -5.0595 -3.1995
  114MOL0     H15006   7.612   1.308   8.544 -1.4413 -2.5338 -0.3466
  114MOL0     H15007   7.564   1.275   8.714 -1.0314  2.7387  2.3609
  114MOL0     H15008   7.395   1.402   8.492 -0.9392  1.5544  0.1119
  114MOL0     H15009   7.333   1.368   8.656  1.3331  0.2778 -0.2042
  114MOL0     H15010   7.269   0.981   8.440 -1.0065 -0.7070 -1.0772
  114MOL0     H15011   7.061   0.907   8.380  0.4853 -0.3199  0.4196
  114MOL0     H15012   6.566   0.953   8.343  1.0045  1.5522  0.4331
  114MOL0     H15013   6.345   0.881   8.401 -0.2624 -0.5777  0.2005
  114MOL0     H15014   6.109   0.822   8.520  0.2890 -0.0205 -0.1237
  114MOL0     H15015   6.115   0.970   8.421 -0.5235  1.9234  0.3659
  114MOL0     H15016   5.891   0.885   8.472  0.6108 -1.2316  1.2819
  114MOL0     H15017   5.922   1.054   8.532 -1.4927 -0.1150 -0.3406
  114MOL0     H15018   5.786   0.936   8.687 -0.3040  1.0747  0.1726
  114MOL0     H15019   5.942   0.951   8.773  0.1039 -2.2344  0.0255
  114MOL0     H15020   5.873   0.717   8.610  0.1970 -1.3380  0.4215
  114MOL0     H15021   6.031   0.734   8.689  0.6654  0.4752  0.4827
  114MOL0     H15022   5.890   0.757   8.903 -2.8408  0.3293  0.9199
  114MOL0     H15023   5.931   0.603   8.850 -0.1284  0.7362  3.1560
  114MOL0     H15024   5.684   0.600   8.717 -2.2950  0.1084 -0.4710
  114MOL0     H15025   5.659   0.760   8.796  1.1807  0.4827 -3.3891
  114MOL0     H15026   5.741   0.512   8.967 -0.2126  0.9077  2.5275
  114MOL0     H15027   5.675   0.657   9.019  0.4700  0.0546  0.5164
  114MOL0     H15028   5.548   0.437   8.852  1.8506  1.2506 -0.8386
  114MOL0     H15029   5.467   0.597   8.880  2.7900  3.2149  1.0353
  114MOL0     H15030   6.338   1.125   8.749  2.3232 -0.0669  1.8402
  114MOL0     H15031   6.589   1.199   8.700  0.6148  2.6117 -1.9856
  114MOL0     H15032   6.901   1.271   8.558  1.1398  1.9887 -2.0417
  114MOL0     H15033   7.130   1.359   8.587  3.8126  0.6794 -0.8596
  114MOL0     H15034   9.178   1.587   8.323 -0.7186 -0.8342 -0.5818
  114MOL0     H15035   9.398   1.701   8.295  0.9874  1.7460  1.5102
  114MOL0     H15036   9.665   1.942   8.112  0.2904 -2.3748  1.9175
  114MOL0     H15037   9.896   1.980   8.122  2.0393 -2.0415  2.4887
  114MOL0     H15038  10.075   2.064   8.113  0.1138 -0.1180 -0.8655
  114MOL0     H15039  10.080   1.926   8.233 -2.7639  0.4597 -0.6718
  114MOL0     H15040  10.298   2.046   8.139  3.7861  2.3597  1.4259
  114MOL0     H15041  10.261   2.177   8.259  1.7393 -0.1427  0.6742
  114MOL0     H15042  10.313   1.884   8.310  2.3424 -0.3943  1.7569
  114MOL0     H15043  10.251   1.996   8.428 -0.3054  1.6050 -0.8310
  114MOL0     H15044  10.497   1.946   8.424  1.0729 -2.2900 -2.1491
  114MOL0     H15045  10.523   2.041   8.278  2.3913  3.8174  0.6221
  114MOL0     H15046  10.438   2.358   8.537 -1.7970  0.1889 -1.4879
  114MOL0     H15047   9.850   2.199   8.480  0.0214  0.7258 -1.1679
  114MOL0     H15048   9.611   2.183   8.473  0.2774 -1.5576  0.2441
  115MOL0     O15049   0.411   7.866   8.316 -0.2028 -0.8596  0.1888
  115MOL0     C15050   0.480   7.935   8.236 -0.8780 -0.3613  0.3793
  115MOL0     O15051   0.426   8.037   8.152 -0.9445  0.4554  0.6758
  115MOL0     C15052   0.289   8.052   8.148 -0.1150  0.1029  0.2629
  115MOL0     C15053   0.259   8.179   8.129 -0.0781 -0.1911  0.1523
  115MOL0     C15054   0.127   8.219   8.107 -0.0440  0.4272  1.2444
  115MOL0     C15055   0.023   8.127   8.121 -0.3767 -0.4788  0.3703
  115MOL0     O15056  -0.110   8.153   8.096 -0.4647  0.0178 -0.2155
  115MOL0     C15057  -0.127   8.267   8.010 -0.5049 -0.3361  0.0304
  115MOL0     C15058  -0.273   8.269   7.957 -0.0214  1.0640  0.2710
  115MOL0     C15059  -0.301   8.403   7.896  0.6605  0.3035 -0.3492
  115MOL0     C15060  -0.446   8.415   7.868  0.8174 -0.9956 -0.0916
  115MOL0     C15061  -0.481   8.559   7.819  0.2967 -0.0579 -0.2612
  115MOL0     C15062  -0.617   8.569   7.755 -0.4971  0.0562  0.3525
  115MOL0     C15063  -0.679   8.707   7.791  0.7776 -0.4878  0.0353
  115MOL0     C15064  -0.747   8.699   7.929  0.1876 -0.2465  0.3416
  115MOL0     N15065  -0.803   8.830   7.971 -0.2469 -0.3860  0.5481
  115MOL0     C15066  -0.927   8.881   7.918 -0.2901  0.1394  0.2322
  115MOL0     C15067  -0.942   8.996   7.979 -0.5131  0.3397 -0.2298
  115MOL0     C15068  -1.057   9.076   7.953  0.7733  0.3291  0.8496
  115MOL0     C15069  -1.159   9.104   8.062 -0.2482 -0.2135 -0.1267
  115MOL0     C15070  -1.272   9.193   8.016  0.9264  0.3157 -0.2546
  115MOL0     C15071  -1.377   9.222   8.126 -0.0204 -0.4699 -0.8353
  115MOL0     O15072  -1.487   9.297   8.069  0.3700  0.1181  0.1682
  115MOL0     C15073  -1.601   9.233   8.045  0.5883 -0.1415 -0.6965
  115MOL0     C15074  -1.643   9.206   7.916 -0.1983  0.3171 -0.2056
  115MOL0     C15075  -1.765   9.142   7.892 -0.1945 -0.1244 -0.6202
  115MOL0     C15076  -1.851   9.103   7.990  0.2492  0.1179  0.6742
  115MOL0     C15077  -1.970   9.032   7.961 -0.1004  0.2105  0.7017
  115MOL0     O15078  -2.062   9.025   8.068  0.2264 -0.2189  0.1073
  115MOL0     C15079  -2.183   8.981   8.027 -0.5831 -0.6044  0.5312
  115MOL0     C15080  -2.295   9.067   7.986 -0.0421  0.8686 -0.8146
  115MOL0     C15081  -2.423   9.017   7.954 -0.8424 -0.6694 -0.5102
  115MOL0     C15082  -2.449   8.877   7.974  0.8586  0.5760 -0.1735
  115MOL0     O15083  -2.574   8.827   7.930 -0.9384 -0.1537 -0.3644
  115MOL0     C15084  -2.684   8.904   7.876  0.3563 -0.0954  0.2423
  115MOL0     C15085  -2.809   8.818   7.873 -0.6375 -0.4985  0.9975
  115MOL0     C15086  -2.926   8.908   7.828 -0.5895  1.0370  0.5426
  115MOL0     C15087  -3.058   8.836   7.783 -0.7267  0.1883  0.3140
  115MOL0     C15088  -3.163   8.937   7.761  0.0423 -1.6440 -0.3228
  115MOL0     C15089  -3.284   8.875   7.687  0.4054  0.7460 -0.4385
  115MOL0     C15090  -3.391   8.984   7.680  0.0343  0.5351 -0.4438
  115MOL0     C15091  -3.478   8.965   7.805  0.4248  0.0547 -0.6964
  115MOL0    Cl15092  -3.642   9.047   7.775  0.1566  0.0676  0.2712
  115MOL0     C15093  -2.351   8.794   8.024 -0.1804 -0.8595  0.9974
  115MOL0     C15094  -2.220   8.847   8.046  0.0463 -0.2373 -0.0364
  115MOL0     O15095  -1.989   8.982   7.849  0.4662  0.1926 -0.1594
  115MOL0     C15096  -1.806   9.125   8.124  0.8675 -0.6129  0.3560
  115MOL0     C15097  -1.686   9.197   8.146 -0.9084 -0.4558  0.6701
  115MOL0     N15098  -0.825   9.018   8.056  0.0756 -0.5191  0.7290
  115MOL0     N15099  -0.743   8.917   8.048 -0.6104 -0.2784 -0.1575
  115MOL0     C15100   0.058   7.994   8.152  0.0531 -0.1317  0.0161
  115MOL0     C15101   0.188   7.963   8.174 -0.6819  0.1687  0.3323
  115MOL0     C15102   0.629   7.903   8.231  0.8526 -0.0099  0.8868
  115MOL0     C15103   0.669   7.780   8.263  0.0076  0.0915  0.2866
  115MOL0     C15104   0.795   7.737   8.219 -0.4608 -0.6925  0.2176
  115MOL0     C15105   0.881   7.807   8.132 -0.4137 -0.7749  0.4125
  115MOL0     O15106   0.997   7.759   8.076  0.3717 -0.7242  0.1212
  115MOL0     C15107   1.064   7.668   8.154 -0.1484  0.8415  0.5362
  115MOL0     C15108   1.207   7.653   8.097 -0.0381  0.7556  0.0731
  115MOL0     C15109   1.290   7.779   8.088 -1.0593 -0.3547 -0.3140
  115MOL0     C15110   1.356   7.821   8.222 -0.4041 -1.2562 -0.3588
  115MOL0     C15111   1.446   7.942   8.189  0.4027  0.0401 -0.3761
  115MOL0     C15112   1.521   8.034   8.168 -0.2339 -0.6554  0.2957
  115MOL0     C15113   0.834   7.934   8.092 -0.5782  0.2254 -0.2657
  115MOL0     C15114   0.714   7.986   8.150 -0.6321  0.4733  0.9833
  115MOL0     H15115   0.342   8.248   8.120 -0.6821  0.4168 -1.0203
  115MOL0     H15116   0.123   8.323   8.077  1.7682 -0.1842 -1.5558
  115MOL0     H15117  -0.048   8.274   7.935  0.8603 -0.6101  1.3939
  115MOL0     H15118  -0.126   8.361   8.067 -2.4637  1.5770 -2.8206
  115MOL0     H15119  -0.352   8.261   8.032 -0.9992 -0.3298 -0.8601
  115MOL0     H15120  -0.280   8.193   7.879  0.2332  0.8316  0.4701
  115MOL0     H15121  -0.248   8.405   7.800 -0.1551  3.0498 -0.8376
  115MOL0     H15122  -0.273   8.481   7.967  2.3057  0.8343 -1.5176
  115MOL0     H15123  -0.472   8.341   7.791 -2.9840  0.9911 -0.9730
  115MOL0     H15124  -0.502   8.387   7.958  0.3474 -2.0992 -0.7046
  115MOL0     H15125  -0.393   8.580   7.757  1.9864 -4.1794  0.3849
  115MOL0     H15126  -0.472   8.626   7.905 -0.5336 -0.0688 -0.1651
  115MOL0     H15127  -0.674   8.480   7.783  1.1702 -0.8112  1.0914
  115MOL0     H15128  -0.606   8.571   7.646 -0.4928 -2.4476  0.2550
  115MOL0     H15129  -0.602   8.785   7.790  2.9123 -2.4762  0.7351
  115MOL0     H15130  -0.759   8.729   7.719  1.3547 -1.1417 -0.8223
  115MOL0     H15131  -0.672   8.666   8.002 -0.6960  1.2242  2.0178
  115MOL0     H15132  -0.823   8.621   7.932  1.7667 -1.9686 -1.5614
  115MOL0     H15133  -1.001   8.829   7.858 -0.0868  0.0305  0.0747
  115MOL0     H15134  -1.118   9.046   7.867 -0.1177  0.7953  1.2921
  115MOL0     H15135  -1.019   9.171   7.914  3.3764 -0.4136  1.3840
  115MOL0     H15136  -1.109   9.157   8.143 -1.6369  0.0575  0.5911
  115MOL0     H15137  -1.185   9.008   8.107  0.9047  0.0085  1.0529
  115MOL0     H15138  -1.227   9.289   7.987 -0.6747  1.1075 -0.2429
  115MOL0     H15139  -1.329   9.138   7.941 -1.6743 -1.1278  2.5473
  115MOL0     H15140  -1.327   9.274   8.208 -1.0022  0.3797 -0.7444
  115MOL0     H15141  -1.413   9.122   8.153 -0.1879 -0.0541  0.5515
  115MOL0     H15142  -1.576   9.243   7.838  0.7036 -0.5202  0.1489
  115MOL0     H15143  -1.783   9.129   7.786 -1.2936  2.0552 -0.7614
  115MOL0     H15144  -2.258   9.169   7.984  0.0447  0.8269 -2.4559
  115MOL0     H15145  -2.495   9.094   7.930  0.5749  0.3584 -1.6574
  115MOL0     H15146  -2.655   8.938   7.776 -0.9034 -3.7737 -1.5879
  115MOL0     H15147  -2.701   8.992   7.938 -2.2608 -1.0160  0.9829
  115MOL0     H15148  -2.829   8.771   7.970 -1.6109  1.0913  1.6000
  115MOL0     H15149  -2.795   8.739   7.798 -1.6402 -0.1213  0.3937
  115MOL0     H15150  -2.900   8.974   7.745  0.2293  0.3143  0.2122
  115MOL0     H15151  -2.948   8.975   7.912  2.3743  0.6959  1.7025
  115MOL0     H15152  -3.037   8.781   7.691  1.7724  2.5207 -0.6746
  115MOL0     H15153  -3.085   8.766   7.862  0.3334  0.9080  1.3629
  115MOL0     H15154  -3.135   9.030   7.711 -1.3930 -0.5945  0.7454
  115MOL0     H15155  -3.215   8.978   7.848  0.0632 -0.1868 -0.9695
  115MOL0     H15156  -3.321   8.790   7.745 -2.1623  1.2946 -1.1320
  115MOL0     H15157  -3.250   8.828   7.594  3.9092  0.6777  0.7245
  115MOL0     H15158  -3.348   9.085   7.680  0.0068  0.6075  2.1687
  115MOL0     H15159  -3.451   8.972   7.589 -2.4344  0.7086  1.0670
  115MOL0     H15160  -3.433   9.004   7.896 -0.2328 -0.0418 -0.3189
  115MOL0     H15161  -3.500   8.859   7.822 -3.9648  0.7472 -0.8978
  115MOL0     H15162  -2.367   8.692   8.057 -0.8927 -0.4090  2.0840
  115MOL0     H15163  -2.153   8.770   8.083  0.6338 -0.1508 -0.9021
  115MOL0     H15164  -1.865   9.092   8.209  1.2515 -0.0743  0.8351
  115MOL0     H15165  -1.655   9.217   8.248 -0.0230 -0.8908  0.4912
  115MOL0     H15166  -0.024   7.924   8.158  1.9521 -2.5039  0.1066
  115MOL0     H15167   0.204   7.856   8.184  1.2126  0.3583 -0.3535
  115MOL0     H15168   0.596   7.710   8.303 -0.1020  0.4167  0.6650
  115MOL0     H15169   0.818   7.633   8.239 -1.3486 -0.6133  1.7345
  115MOL0     H15170   1.014   7.571   8.159 -0.3236  0.9516  0.9998
  115MOL0     H15171   1.077   7.706   8.256 -3.3226 -0.0102  1.3630
  115MOL0     H15172   1.267   7.579   8.152  0.2080  0.1975 -0.9266
  115MOL0     H15173   1.198   7.608   7.998 -2.7405  0.4866  0.3849
  115MOL0     H15174   1.235   7.869   8.058  1.1949  1.7977  1.5435
  115MOL0     H15175   1.363   7.753   8.011  0.7983  2.4615  0.3372
  115MOL0     H15176   1.289   7.870   8.293 -0.6037 -0.1245 -1.2892
  115MOL0     H15177   1.412   7.735   8.261  1.2685 -0.2136 -0.3597
  115MOL0     H15178   1.574   8.121   8.133 -2.7956  0.6082 -0.7025
  115MOL0     H15179   0.900   7.991   8.028 -0.3704  1.3243  0.8916
  115MOL0     H15180   0.693   8.092   8.139  3.0885  1.3158  0.6443
  116MOL0     O15181  10.953   6.159   8.823  0.3019  0.0155  0.4775
  116MOL0     C15182  11.053   6.127   8.756  0.6923 -0.5863 -0.4679
  116MOL0     O15183  11.056   6.034   8.663  0.8389 -0.2428  0.2115
  116MOL0     C15184  10.950   5.962   8.617 -0.3160 -0.0145 -0.1888
  116MOL0     C15185  10.957   5.924   8.485  0.9721  0.1665  0.7168
  116MOL0     C15186  10.843   5.857   8.421  1.0094  0.3370 -0.4818
  116MOL0     C15187  10.728   5.824   8.496 -0.3455  0.2448  0.3096
  116MOL0     O15188  10.647   5.720   8.459 -0.2596 -0.8938  0.5591
  116MOL0     C15189  10.539   5.767   8.377 -0.1801 -0.4790  0.0007
  116MOL0     C15190  10.416   5.810   8.459  1.0066 -0.5622 -0.6571
  116MOL0     C15191  10.272   5.791   8.419  0.6748  0.2045  0.2757
  116MOL0     C15192  10.236   5.886   8.300  0.8620 -0.4473  0.6675
  116MOL0     C15193  10.216   6.034   8.319  0.3951  0.3357  0.5857
  116MOL0     C15194  10.156   6.096   8.189 -0.0735  0.1165  0.3476
  116MOL0     C15195  10.261   6.109   8.073  0.7049 -0.2737 -1.4189
  116MOL0     C15196  10.193   6.180   7.962 -0.1037 -0.0253  0.8505
  116MOL0     N15197  10.128   6.307   7.983 -0.2304 -0.0698 -0.3223
  116MOL0     C15198   9.999   6.312   8.026 -0.0563  0.7645  0.3860
  116MOL0     C15199   9.973   6.436   8.069 -0.0399 -1.1103 -0.2817
  116MOL0     C15200   9.854   6.486   8.158 -0.0274 -0.5566  0.7912
  116MOL0     C15201   9.871   6.452   8.308  0.3247  0.2352 -0.8399
  116MOL0     C15202   9.786   6.549   8.399  0.8474 -0.3617  0.0340
  116MOL0     C15203   9.630   6.526   8.369 -0.8119 -0.2079  0.2343
  116MOL0     O15204   9.559   6.529   8.488  0.1120 -0.3170 -0.3504
  116MOL0     C15205   9.424   6.510   8.485 -0.3535 -0.1397  1.1746
  116MOL0     C15206   9.351   6.527   8.366  0.2944  0.2374 -0.1233
  116MOL0     C15207   9.216   6.494   8.353  0.1841  0.1270  0.2291
  116MOL0     C15208   9.155   6.441   8.470  0.3632 -0.5798  0.1439
  116MOL0     C15209   9.025   6.378   8.460 -0.9961 -0.1038  0.4014
  116MOL0     O15210   8.966   6.403   8.333 -0.4664 -0.1260 -0.1059
  116MOL0     C15211   8.859   6.330   8.287  0.1454  0.0624  0.4985
  116MOL0     C15212   8.737   6.331   8.352 -0.5310 -0.5445  0.5418
  116MOL0     C15213   8.624   6.259   8.292 -0.2142 -0.2259 -0.7792
  116MOL0     C15214   8.632   6.190   8.179 -0.2644  0.0371 -0.1218
  116MOL0     O15215   8.531   6.112   8.133 -0.3730  0.2182  0.6197
  116MOL0     C15216   8.488   6.003   8.220 -0.0064 -0.2963  0.9112
  116MOL0     C15217   8.412   5.895   8.130 -0.3119 -0.3357 -0.9051
  116MOL0     C15218   8.290   5.964   8.052 -0.1256  0.3449  0.7038
  116MOL0     C15219   8.325   5.968   7.899  0.3915  0.1003 -0.3199
  116MOL0     C15220   8.334   6.109   7.860  0.0866  0.7552 -0.7103
  116MOL0     C15221   8.330   6.127   7.712 -0.2224 -0.2293 -0.5087
  116MOL0     C15222   8.387   6.265   7.679  0.0789 -0.4757  0.2170
  116MOL0     C15223   8.386   6.300   7.525  0.0545 -0.4423  0.0253
  116MOL0    Cl15224   8.463   6.165   7.424  0.0032 -0.0531 -0.0833
  116MOL0     C15225   8.757   6.175   8.117  0.1628 -0.2783  1.0245
  116MOL0     C15226   8.863   6.258   8.161 -0.2142  0.5295  0.1093
  116MOL0     O15227   8.981   6.320   8.558  0.1937  0.6046  0.4604
  116MOL0     C15228   9.218   6.431   8.593  0.0575 -0.2322 -1.0779
  116MOL0     C15229   9.352   6.477   8.599 -0.7889 -0.3501 -0.9096
  116MOL0     N15230  10.088   6.506   8.041  0.6418  0.5021  0.1645
  116MOL0     N15231  10.177   6.430   7.989  0.1380  0.0863  0.3298
  116MOL0     C15232  10.731   5.844   8.640  0.1022 -0.1104 -0.4705
  116MOL0     C15233  10.835   5.918   8.689  0.0958  0.3006 -0.0969
  116MOL0     C15234  11.179   6.205   8.775  0.3496  0.5991  1.1200
  116MOL0     C15235  11.298   6.169   8.701  0.2706 -0.3148  0.5490
  116MOL0     C15236  11.417   6.242   8.727 -0.0989  0.3094  0.3407
  116MOL0     C15237  11.426   6.352   8.815 -0.1013 -0.9254  0.4572
  116MOL0     O15238  11.544   6.427   8.833 -0.0934  0.8048 -0.1279
  116MOL0     C15239  11.551   6.547   8.754 -0.4556 -1.1209  1.3850
  116MOL0     C15240  11.538   6.672   8.834 -0.0022 -0.5888 -0.4340
  116MOL0     C15241  11.624   6.659   8.965 -0.1344 -0.6903 -0.4337
  116MOL0     C15242  11.585   6.768   9.062 -0.2301 -0.2771  0.2966
  116MOL0     C15243  11.657   6.903   9.052 -0.5920 -0.6474 -0.1123
  116MOL0     C15244  11.722   7.006   9.045  1.1630 -0.1811  0.2558
  116MOL0     C15245  11.312   6.382   8.892  0.2461 -0.1874  0.0394
  116MOL0     C15246  11.194   6.308   8.873  0.7251  0.1396  0.0822
  116MOL0     H15247  11.042   5.945   8.421  1.0274 -1.4034  0.2338
  116MOL0     H15248  10.847   5.827   8.317 -0.6309  0.5780 -0.6546
  116MOL0     H15249  10.510   5.670   8.336  4.3228 -2.2603  0.5040
  116MOL0     H15250  10.565   5.836   8.297  1.0397 -0.5073  0.3613
  116MOL0     H15251  10.437   5.914   8.483  3.7413 -1.0200 -0.6553
  116MOL0     H15252  10.427   5.749   8.549  2.5296 -1.9490 -1.7074
  116MOL0     H15253  10.221   5.829   8.508  0.5818 -2.4870  1.4439
  116MOL0     H15254  10.247   5.686   8.406  2.3794 -0.2696  0.5299
  116MOL0     H15255  10.316   5.878   8.226 -0.0086 -0.4712 -0.2969
  116MOL0     H15256  10.148   5.849   8.246  1.2235 -1.4948  0.7709
  116MOL0     H15257  10.310   6.083   8.346 -0.5107  2.5765 -0.1215
  116MOL0     H15258  10.140   6.051   8.395 -0.4152 -0.2079 -0.0749
  116MOL0     H15259  10.117   6.195   8.216 -1.5432  0.1976 -1.8325
  116MOL0     H15260  10.073   6.035   8.153  0.9761 -1.4824  0.5815
  116MOL0     H15261  10.340   6.171   8.117 -2.0106  1.2476  1.7646
  116MOL0     H15262  10.294   6.009   8.044  1.0323 -0.6610  0.2275
  116MOL0     H15263  10.120   6.114   7.915  0.1474 -0.7073  1.4035
  116MOL0     H15264  10.275   6.220   7.902  0.6701  0.7083  2.3379
  116MOL0     H15265   9.935   6.225   8.036  1.6001 -0.4899  0.3966
  116MOL0     H15266   9.763   6.435   8.125  0.1480  0.5340 -1.5110
  116MOL0     H15267   9.848   6.594   8.142 -3.0888 -0.8997 -1.2326
  116MOL0     H15268   9.976   6.468   8.333  0.1190 -2.1915  2.0780
  116MOL0     H15269   9.849   6.345   8.314 -2.3916  0.6454 -2.0262
  116MOL0     H15270   9.825   6.529   8.499  0.8479  1.7413  0.4841
  116MOL0     H15271   9.815   6.650   8.369 -1.6860  0.8498  1.3868
  116MOL0     H15272   9.614   6.433   8.314  1.7265 -0.3373 -0.4276
  116MOL0     H15273   9.595   6.608   8.305 -0.6791 -1.3628 -1.3754
  116MOL0     H15274   9.402   6.561   8.276 -2.9427  0.0803 -2.1585
  116MOL0     H15275   9.169   6.508   8.256 -1.0839 -0.9966  0.6569
  116MOL0     H15276   8.723   6.376   8.449 -0.6587 -2.9971  1.7348
  116MOL0     H15277   8.526   6.256   8.338  1.9059 -2.3259  4.2686
  116MOL0     H15278   8.417   6.034   8.297 -2.5164  1.6405 -1.9483
  116MOL0     H15279   8.569   5.939   8.257  4.4834  2.2807 -3.2374
  116MOL0     H15280   8.374   5.808   8.186  0.6191  0.3970  0.9744
  116MOL0     H15281   8.485   5.860   8.056  3.6781  0.0556  2.4505
  116MOL0     H15282   8.276   6.066   8.091  2.1461  0.5686  1.1146
  116MOL0     H15283   8.196   5.908   8.055 -0.2196  0.5144  3.4456
  116MOL0     H15284   8.415   5.912   7.874 -0.5348 -1.8531  0.4782
  116MOL0     H15285   8.244   5.931   7.836  1.6080 -0.2905 -1.6860
  116MOL0     H15286   8.430   6.136   7.906 -1.1003 -1.5997  3.7934
  116MOL0     H15287   8.251   6.168   7.901  0.5382 -0.2678  1.8911
  116MOL0     H15288   8.230   6.118   7.667 -0.6544 -0.7141  0.5237
  116MOL0     H15289   8.384   6.045   7.665  2.3822  0.7457  0.6067
  116MOL0     H15290   8.331   6.341   7.733  0.7125 -0.3846  0.7574
  116MOL0     H15291   8.494   6.276   7.701  0.9747  0.0460 -3.6061
  116MOL0     H15292   8.442   6.393   7.509  0.3706  0.0996  3.4209
  116MOL0     H15293   8.285   6.333   7.497 -0.2458 -0.4017  1.0835
  116MOL0     H15294   8.761   6.115   8.026  2.9070 -0.0220  0.9040
  116MOL0     H15295   8.954   6.257   8.101 -2.8401 -0.8118 -4.3337
  116MOL0     H15296   9.163   6.400   8.681 -1.8591  0.7239 -1.8850
  116MOL0     H15297   9.405   6.468   8.693  1.2055 -0.1116 -1.9600
  116MOL0     H15298  10.646   5.821   8.703 -0.3208  1.6047 -0.3517
  116MOL0     H15299  10.839   5.948   8.794 -1.7275  2.2814 -0.5224
  116MOL0     H15300  11.301   6.098   8.619 -3.9190  0.8448 -0.8422
  116MOL0     H15301  11.496   6.222   8.656 -0.9747 -1.1656 -0.2419
  116MOL0     H15302  11.480   6.551   8.671 -0.0487 -0.8677  1.0443
  116MOL0     H15303  11.650   6.554   8.708 -1.2053  0.3868 -0.1043
  116MOL0     H15304  11.559   6.770   8.790 -0.9180 -0.1189  0.1494
  116MOL0     H15305  11.430   6.677   8.855 -0.4779 -2.2105 -2.2376
  116MOL0     H15306  11.732   6.666   8.948 -0.1766 -0.7604 -0.7415
  116MOL0     H15307  11.601   6.570   9.023 -1.0578  0.6474  1.3753
  116MOL0     H15308  11.476   6.777   9.059 -0.1831  0.4547  0.5670
  116MOL0     H15309  11.607   6.723   9.159 -0.1924 -1.2354 -0.1423
  116MOL0     H15310  11.765   7.100   9.017  0.6455 -0.4201 -1.4528
  116MOL0     H15311  11.336   6.450   8.973 -0.8124  0.3299 -0.0614
  116MOL0     H15312  11.108   6.332   8.936 -0.8887 -1.7700 -1.2714
  117MOL0     O15313   2.243   0.586   5.737  0.7958 -0.1217 -0.8266
  117MOL0     C15314   2.246   0.687   5.669 -0.2779 -0.3655  0.3713
  117MOL0     O15315   2.154   0.740   5.593  0.4839  0.0954  0.0140
  117MOL0     C15316   2.028   0.680   5.578 -0.1640 -0.1310 -0.4625
  117MOL0     C15317   1.969   0.660   5.444 -0.4044 -0.2606 -0.6026
  117MOL0     C15318   1.842   0.601   5.427  0.0303 -0.2528 -0.7603
  117MOL0     C15319   1.778   0.555   5.544  1.3943 -0.1664  0.4013
  117MOL0     O15320   1.648   0.493   5.531 -0.4880 -1.1471 -0.1346
  117MOL0     C15321   1.641   0.357   5.557  0.0922 -0.9163  0.0474
  117MOL0     C15322   1.501   0.302   5.542 -0.3123 -0.2559  0.2628
  117MOL0     C15323   1.419   0.327   5.664 -0.2723 -0.6951  0.2569
  117MOL0     C15324   1.290   0.241   5.646 -0.2186 -0.1487 -0.8297
  117MOL0     C15325   1.187   0.272   5.758  0.3912  0.8333 -0.1367
  117MOL0     C15326   1.061   0.186   5.743 -0.3109 -0.1843  0.2716
  117MOL0     C15327   0.945   0.250   5.820  0.1399 -0.3293 -0.7492
  117MOL0     C15328   0.818   0.152   5.803  0.8200  0.5212  0.6484
  117MOL0     N15329   0.693   0.200   5.873  0.1824  0.3986 -0.4957
  117MOL0     C15330   0.647   0.153   5.989 -0.1619  0.2895  0.2441
  117MOL0     C15331   0.540   0.222   6.022  0.7364 -0.0845  0.7974
  117MOL0     C15332   0.442   0.185   6.137  0.1072 -0.1832 -0.2273
  117MOL0     C15333   0.343   0.301   6.165  0.5719  0.1457  0.9869
  117MOL0     C15334   0.221   0.288   6.069 -0.1299 -0.6234  0.2649
  117MOL0     C15335   0.140   0.428   6.063 -0.2376 -0.0197  0.0463
  117MOL0     O15336   0.006   0.404   6.018  0.4177 -0.5882 -0.1360
  117MOL0     C15337  -0.096   0.408   6.112  0.4029 -0.7279  0.1532
  117MOL0     C15338  -0.224   0.428   6.052 -0.4193  0.1415  0.2647
  117MOL0     C15339  -0.343   0.421   6.126  0.1417 -0.5587  0.2467
  117MOL0     C15340  -0.331   0.403   6.267  0.4747  0.0004 -0.3111
  117MOL0     C15341  -0.452   0.393   6.362  0.4873 -0.5349  0.6981
  117MOL0     O15342  -0.429   0.443   6.490  0.2893  0.3345  1.0357
  117MOL0     C15343  -0.520   0.472   6.585  0.2561  0.1674 -0.4423
  117MOL0     C15344  -0.493   0.590   6.654  0.8970  0.2855  0.4522
  117MOL0     C15345  -0.588   0.629   6.750  0.4044  0.5823 -0.2016
  117MOL0     C15346  -0.691   0.542   6.791  0.2880  0.4684 -0.1315
  117MOL0     O15347  -0.789   0.562   6.890  0.8624  0.1392  0.1887
  117MOL0     C15348  -0.820   0.704   6.909  0.5718  0.4573 -0.4578
  117MOL0     C15349  -0.962   0.706   6.982 -0.0425  0.3210 -1.0096
  117MOL0     C15350  -1.070   0.749   6.882 -1.0101 -0.1201  0.4600
  117MOL0     C15351  -1.210   0.736   6.940  0.8047 -0.0899 -0.9885
  117MOL0     C15352  -1.318   0.779   6.833 -0.5847 -0.0310  0.0351
  117MOL0     C15353  -1.454   0.747   6.896 -0.0461 -0.2186  0.0140
  117MOL0     C15354  -1.562   0.821   6.814  0.0332  0.1849 -0.7372
  117MOL0     C15355  -1.702   0.784   6.865 -0.1323 -0.4475 -0.8006
  117MOL0    Cl15356  -1.808   0.846   6.736  0.0215  0.1330 -0.0759
  117MOL0     C15357  -0.704   0.429   6.724  1.0788  0.6989 -0.6362
  117MOL0     C15358  -0.620   0.383   6.628  0.3422 -0.4044  0.2926
  117MOL0     O15359  -0.561   0.358   6.312  0.2867 -0.7182  0.0957
  117MOL0     C15360  -0.202   0.390   6.323  0.4627  0.1320  0.0656
  117MOL0     C15361  -0.085   0.401   6.252  0.1162  0.4008  0.1802
  117MOL0     N15362   0.519   0.312   5.930 -0.2595 -0.8934  0.3057
  117MOL0     N15363   0.612   0.299   5.834 -0.1412 -0.5906  0.8347
  117MOL0     C15364   1.839   0.572   5.670 -0.1082  0.2131 -0.3747
  117MOL0     C15365   1.952   0.645   5.685 -0.1300 -0.4515  0.5090
  117MOL0     C15366   2.381   0.754   5.656  1.0157 -0.2461 -0.0413
  117MOL0     C15367   2.399   0.851   5.562 -0.9947  0.5256 -0.3183
  117MOL0     C15368   2.527   0.911   5.546  0.8870 -0.7963  0.5817
  117MOL0     C15369   2.628   0.872   5.624 -0.4463  0.3441  0.2125
  117MOL0     O15370   2.745   0.938   5.607 -0.1968  0.8457  0.4275
  117MOL0     C15371   2.774   1.042   5.711 -0.4512  1.3818 -0.9905
  117MOL0     C15372   2.726   1.177   5.668  0.2754 -1.1264 -0.1320
  117MOL0     C15373   2.813   1.228   5.549  0.1267  0.8128  0.2542
  117MOL0     C15374   2.961   1.255   5.604  1.1685 -0.9007  0.5907
  117MOL0     C15375   3.025   1.316   5.482 -0.4776 -0.3349  0.4192
  117MOL0     C15376   3.078   1.367   5.380 -0.3507  0.4419  0.3297
  117MOL0     C15377   2.619   0.767   5.717 -0.0789  0.0911 -0.5549
  117MOL0     C15378   2.492   0.710   5.731 -0.3859  0.4624  0.4707
  117MOL0     H15379   2.025   0.689   5.356  2.7183 -0.8655  1.0171
  117MOL0     H15380   1.796   0.590   5.329 -3.8188 -1.2452  0.9367
  117MOL0     H15381   1.692   0.330   5.650  1.9245  0.2902 -0.5352
  117MOL0     H15382   1.695   0.308   5.475  0.1028 -2.6574  1.0494
  117MOL0     H15383   1.517   0.195   5.527  1.4977 -0.0273  0.3363
  117MOL0     H15384   1.445   0.343   5.457 -3.4438 -0.7664  1.9218
  117MOL0     H15385   1.388   0.431   5.672 -3.4690 -1.3740 -1.5187
  117MOL0     H15386   1.473   0.294   5.753 -5.6024 -2.5788  3.2168
  117MOL0     H15387   1.252   0.265   5.546 -1.6915  4.7932  0.6707
  117MOL0     H15388   1.317   0.135   5.645  0.4112 -0.0135  0.3119
  117MOL0     H15389   1.153   0.375   5.739  0.3851  0.7150 -0.7901
  117MOL0     H15390   1.222   0.275   5.861 -0.2490  1.3073  0.0765
  117MOL0     H15391   1.074   0.088   5.789 -0.0411 -0.4980 -0.4483
  117MOL0     H15392   1.033   0.174   5.637  1.1168  0.9794 -0.2769
  117MOL0     H15393   0.970   0.267   5.925 -0.8581 -4.6832  0.3924
  117MOL0     H15394   0.913   0.344   5.774  0.6793  0.2456  0.0180
  117MOL0     H15395   0.851   0.058   5.847  0.1814 -0.3206 -0.6319
  117MOL0     H15396   0.793   0.133   5.699 -0.0696 -2.0629  1.2671
  117MOL0     H15397   0.690   0.070   6.045  1.2500  1.1728  0.5190
  117MOL0     H15398   0.491   0.167   6.234 -2.4016 -3.0629  0.6522
  117MOL0     H15399   0.387   0.094   6.114 -0.1523 -0.8173  2.4998
  117MOL0     H15400   0.392   0.398   6.152 -2.2841  1.5595 -0.0155
  117MOL0     H15401   0.317   0.297   6.271  0.3031  2.1470  1.0326
  117MOL0     H15402   0.258   0.279   5.967  1.6923  0.5987  0.7502
  117MOL0     H15403   0.164   0.198   6.092 -1.2345  0.3496  1.5673
  117MOL0     H15404   0.191   0.490   5.988 -0.0782 -1.3647 -1.0050
  117MOL0     H15405   0.149   0.481   6.158 -0.8541 -0.0639  0.1372
  117MOL0     H15406  -0.217   0.443   5.944 -0.2954 -1.4392  0.0332
  117MOL0     H15407  -0.435   0.428   6.070  0.7860  0.9731 -0.7094
  117MOL0     H15408  -0.417   0.658   6.618 -0.0810  1.2098  0.0778
  117MOL0     H15409  -0.568   0.728   6.791 -0.0340  0.0389  1.3938
  117MOL0     H15410  -0.821   0.774   6.825 -1.2313  2.4499  1.1016
  117MOL0     H15411  -0.731   0.740   6.961  0.4457  1.2199 -0.7624
  117MOL0     H15412  -0.960   0.777   7.065  1.0049  1.0750 -1.6639
  117MOL0     H15413  -0.990   0.607   7.020  0.7345  1.5744  3.4307
  117MOL0     H15414  -1.062   0.691   6.789  1.0504 -0.6452  0.9177
  117MOL0     H15415  -1.059   0.856   6.860  0.7838 -0.2149  0.7469
  117MOL0     H15416  -1.215   0.638   6.988  1.9753  0.0936 -0.4736
  117MOL0     H15417  -1.211   0.805   7.026  1.5055 -1.0393 -0.1958
  117MOL0     H15418  -1.302   0.739   6.733 -1.4806  0.1830 -0.1988
  117MOL0     H15419  -1.313   0.887   6.822  0.3005  0.1163  1.5553
  117MOL0     H15420  -1.458   0.792   6.996 -2.2620  0.1209 -0.1900
  117MOL0     H15421  -1.468   0.639   6.894  0.0725 -0.2185 -2.0488
  117MOL0     H15422  -1.545   0.927   6.834 -1.9236  1.4077 -4.4607
  117MOL0     H15423  -1.547   0.799   6.707 -2.1868 -0.4520 -0.9630
  117MOL0     H15424  -1.721   0.840   6.957  0.1123 -1.1792 -0.2969
  117MOL0     H15425  -1.707   0.676   6.881 -0.4256 -0.0382  2.7505
  117MOL0     H15426  -0.795   0.374   6.747  1.3370  1.0908  1.5225
  117MOL0     H15427  -0.647   0.292   6.576 -0.6212  0.5453 -0.8964
  117MOL0     H15428  -0.188   0.384   6.431 -0.3625 -1.1185  0.1245
  117MOL0     H15429   0.003   0.381   6.312 -1.6562 -1.7403  2.2394
  117MOL0     H15430   1.779   0.529   5.749  0.6016 -3.3852 -1.6056
  117MOL0     H15431   1.988   0.655   5.787 -3.0062 -1.3892  1.7193
  117MOL0     H15432   2.320   0.888   5.498 -0.1042  2.4596 -0.3672
  117MOL0     H15433   2.526   0.988   5.469  2.0316 -3.0034 -1.7723
  117MOL0     H15434   2.878   1.041   5.746 -1.1819 -0.3473  1.4349
  117MOL0     H15435   2.728   1.013   5.806  1.0279 -0.8239 -0.8630
  117MOL0     H15436   2.632   1.141   5.624  1.9746 -1.5367 -3.7305
  117MOL0     H15437   2.700   1.246   5.749 -1.2386 -1.0415 -0.6465
  117MOL0     H15438   2.773   1.325   5.517  0.4253  1.2159  1.0783
  117MOL0     H15439   2.818   1.149   5.473  4.0828  1.3109 -0.1973
  117MOL0     H15440   2.952   1.336   5.676  1.0166 -0.6765  0.3190
  117MOL0     H15441   3.012   1.168   5.648  0.7123  0.2504  3.6124
  117MOL0     H15442   3.125   1.410   5.294 -0.5861  0.8796  0.4134
  117MOL0     H15443   2.707   0.729   5.767 -0.2746  3.1007  2.3632
  117MOL0     H15444   2.482   0.618   5.789  0.5399  1.2444  1.9211
  118MOL0     O15445   0.723   3.610   4.206 -0.1012 -0.0063 -0.1713
  118MOL0     C15446   0.706   3.494   4.249 -0.6805 -0.2198 -0.7229
  118MOL0     O15447   0.786   3.381   4.214  0.1115  0.3015 -0.6036
  118MOL0     C15448   0.893   3.408   4.126 -0.9672 -0.3403 -0.4716
  118MOL0     C15449   1.023   3.401   4.167 -0.8035  0.4341 -0.7968
  118MOL0     C15450   1.116   3.437   4.072  0.0396 -0.0735 -0.2656
  118MOL0     C15451   1.091   3.485   3.942 -0.4785 -0.1465  0.4504
  118MOL0     O15452   1.189   3.516   3.850  0.5674 -0.2855  0.2856
  118MOL0     C15453   1.306   3.578   3.898 -0.5294  0.0447 -0.3944
  118MOL0     C15454   1.380   3.637   3.778  0.2961  0.2241  0.1485
  118MOL0     C15455   1.535   3.657   3.782  0.4199 -0.4497  0.1910
  118MOL0     C15456   1.581   3.752   3.663  0.3169  0.7475 -0.3610
  118MOL0     C15457   1.732   3.781   3.653 -0.7025 -0.0244  0.1405
  118MOL0     C15458   1.778   3.874   3.762 -0.9644 -0.0495  0.4027
  118MOL0     C15459   1.935   3.882   3.774 -0.8783  0.4384  0.0979
  118MOL0     C15460   2.007   3.924   3.653  0.0522 -0.7991 -0.2290
  118MOL0     N15461   2.156   3.915   3.669 -0.9828  0.7468  0.0706
  118MOL0     C15462   2.233   3.818   3.603  0.7334 -0.0410  0.4800
  118MOL0     C15463   2.353   3.830   3.647 -0.0264 -0.2287  0.1339
  118MOL0     C15464   2.469   3.743   3.596 -0.2385  0.0496  0.5567
  118MOL0     C15465   2.497   3.633   3.703 -0.0300 -0.6942 -0.0485
  118MOL0     C15466   2.392   3.532   3.685  0.4438  0.7204  0.0621
  118MOL0     C15467   2.261   3.547   3.774 -1.2657 -0.5073 -0.1601
  118MOL0     O15468   2.152   3.505   3.697 -0.6317  0.4867  0.6463
  118MOL0     C15469   2.034   3.468   3.754 -0.0787 -0.4081  0.0766
  118MOL0     C15470   1.945   3.390   3.671  0.1165  1.0014 -0.8898
  118MOL0     C15471   1.832   3.331   3.727  0.1306 -1.0153  0.2567
  118MOL0     C15472   1.796   3.351   3.858 -0.3141  0.8958 -0.6532
  118MOL0     C15473   1.661   3.308   3.911 -0.3317  0.0282  0.2930
  118MOL0     O15474   1.587   3.220   3.835 -0.0789  0.3673 -0.8670
  118MOL0     C15475   1.469   3.179   3.897  0.5816  0.2134 -0.1761
  118MOL0     C15476   1.470   3.063   3.980 -0.1153 -1.1149 -0.5274
  118MOL0     C15477   1.353   3.001   4.029  0.0129 -0.7422  0.2389
  118MOL0     C15478   1.224   3.056   3.994  0.0686  1.1261 -0.5237
  118MOL0     O15479   1.124   2.972   4.028  0.7013 -0.0328 -0.4738
  118MOL0     C15480   0.998   3.010   3.976 -0.2711 -0.7161  0.3182
  118MOL0     C15481   0.893   2.903   4.020  0.0264 -0.2086  0.2008
  118MOL0     C15482   0.840   2.935   4.165  0.2184  0.6255  0.1989
  118MOL0     C15483   0.719   2.853   4.208 -0.2423  0.1756 -0.2309
  118MOL0     C15484   0.678   2.869   4.360  0.8712  0.7858 -0.3274
  118MOL0     C15485   0.780   2.881   4.469  0.1975  0.2129  0.1795
  118MOL0     C15486   0.706   2.853   4.600  0.2695 -0.2298  0.5634
  118MOL0     C15487   0.772   2.919   4.724  0.2275 -0.6194  0.6819
  118MOL0    Cl15488   0.930   2.852   4.738 -0.1041 -0.3734 -0.3546
  118MOL0     C15489   1.223   3.175   3.916 -0.1849 -0.0935  0.5755
  118MOL0     C15490   1.340   3.230   3.865  0.1084 -0.4751  0.0021
  118MOL0     O15491   1.637   3.339   4.027 -0.0482 -0.7069 -0.0260
  118MOL0     C15492   1.876   3.433   3.937  0.2687  0.4571  0.7175
  118MOL0     C15493   1.993   3.491   3.884  0.1111 -0.4497  0.5432
  118MOL0     N15494   2.356   3.930   3.743  0.8905 -0.6908  0.0754
  118MOL0     N15495   2.241   3.982   3.750  0.0724  0.1024  0.3445
  118MOL0     C15496   0.962   3.473   3.895  0.0485  0.2280 -0.6877
  118MOL0     C15497   0.861   3.431   3.990  0.5088  0.3944 -0.2700
  118MOL0     C15498   0.596   3.471   4.353 -0.6596 -0.2024 -0.6935
  118MOL0     C15499   0.582   3.343   4.400 -1.0680  0.3448  0.0060
  118MOL0     C15500   0.482   3.316   4.489  0.4160 -0.8092  0.0458
  118MOL0     C15501   0.381   3.413   4.519 -0.0415 -1.0383  0.7022
  118MOL0     O15502   0.265   3.389   4.587 -0.1466  0.7805  0.1003
  118MOL0     C15503   0.232   3.257   4.632 -0.2497  0.0987 -0.1032
  118MOL0     C15504   0.090   3.239   4.686  0.4011  0.1967  0.7870
  118MOL0     C15505   0.057   3.322   4.819 -0.2159  0.1286  0.5046
  118MOL0     C15506   0.029   3.464   4.808  0.0837 -0.6412  0.0192
  118MOL0     C15507  -0.094   3.476   4.735  1.3279  0.0349  0.1716
  118MOL0     C15508  -0.196   3.490   4.674  0.8212 -0.6896  0.2318
  118MOL0     C15509   0.392   3.541   4.469 -0.1711  0.0004 -0.1523
  118MOL0     C15510   0.493   3.567   4.383  0.6607 -0.6590 -0.2467
  118MOL0     H15511   1.055   3.374   4.267  3.4093  1.9382 -1.5184
  118MOL0     H15512   1.218   3.423   4.107  0.2745  0.1756 -0.8312
  118MOL0     H15513   1.374   3.509   3.949  0.6667  2.0657  0.8976
  118MOL0     H15514   1.291   3.659   3.970  0.8531  0.5757 -0.6751
  118MOL0     H15515   1.325   3.729   3.755  1.3940  0.4154 -1.9689
  118MOL0     H15516   1.357   3.560   3.704  1.6171  0.8285 -0.9324
  118MOL0     H15517   1.577   3.556   3.779 -1.0610 -1.1522  1.3374
  118MOL0     H15518   1.571   3.690   3.880 -2.1911  1.5464  0.5790
  118MOL0     H15519   1.544   3.695   3.577  0.1961  0.5821 -0.2018
  118MOL0     H15520   1.532   3.849   3.672  0.6892  0.8759  0.4126
  118MOL0     H15521   1.737   3.818   3.550 -1.6654  0.4779  0.2586
  118MOL0     H15522   1.796   3.692   3.662  0.7633  0.9921  0.1423
  118MOL0     H15523   1.746   3.841   3.861 -0.7356  1.3614  0.9842
  118MOL0     H15524   1.748   3.978   3.743  0.0715  0.0304 -0.9765
  118MOL0     H15525   1.957   3.945   3.861  0.2846  0.2263 -0.0279
  118MOL0     H15526   1.975   3.782   3.787 -0.3540  0.6314 -0.0306
  118MOL0     H15527   1.983   4.031   3.647  2.6043 -0.0524  1.4921
  118MOL0     H15528   1.971   3.882   3.559  2.0658 -0.4595 -1.1957
  118MOL0     H15529   2.194   3.747   3.531  1.4738 -0.3269  0.3411
  118MOL0     H15530   2.556   3.807   3.579 -0.5889  0.1576 -1.0128
  118MOL0     H15531   2.443   3.706   3.496 -1.4357  2.9143 -0.3219
  118MOL0     H15532   2.506   3.681   3.801 -0.5563  0.0707 -0.3651
  118MOL0     H15533   2.595   3.589   3.682 -0.8770 -2.8755  0.2945
  118MOL0     H15534   2.371   3.522   3.579  2.5014  2.9931 -0.6633
  118MOL0     H15535   2.454   3.446   3.713  1.6280  0.5256 -2.8615
  118MOL0     H15536   2.235   3.651   3.795 -2.0702 -0.1782 -2.4334
  118MOL0     H15537   2.281   3.496   3.868  0.4414 -1.2110 -0.8597
  118MOL0     H15538   1.972   3.368   3.569  0.1418  0.9308 -0.8682
  118MOL0     H15539   1.771   3.279   3.654  0.2506 -0.0637 -0.5472
  118MOL0     H15540   1.566   3.017   4.001 -0.6787 -2.6350 -1.1810
  118MOL0     H15541   1.357   2.917   4.096  3.0798 -2.0450 -1.3318
  118MOL0     H15542   1.003   3.023   3.867  0.6661 -0.1319  0.4126
  118MOL0     H15543   0.965   3.112   4.000  1.5158  0.4058 -1.6041
  118MOL0     H15544   0.924   2.798   4.006  2.9335  0.6310 -0.4009
  118MOL0     H15545   0.808   2.918   3.952  1.2506 -0.1473 -1.3932
  118MOL0     H15546   0.813   3.040   4.183 -1.6799  0.5336 -1.7450
  118MOL0     H15547   0.924   2.919   4.233  1.8510  3.2009 -1.0578
  118MOL0     H15548   0.627   2.880   4.154 -1.8443 -0.2138  2.1307
  118MOL0     H15549   0.742   2.747   4.198 -0.2274 -0.0915  2.1803
  118MOL0     H15550   0.632   2.772   4.381 -2.3471  1.7042 -2.4441
  118MOL0     H15551   0.602   2.947   4.366  1.1889  1.1907 -1.3107
  118MOL0     H15552   0.826   2.981   4.464 -0.5390  0.5080 -1.2370
  118MOL0     H15553   0.864   2.811   4.460 -0.2889 -0.3216 -0.2247
  118MOL0     H15554   0.609   2.902   4.588  1.0178  0.7053 -2.3994
  118MOL0     H15555   0.700   2.744   4.607  3.3925 -0.5967 -0.5923
  118MOL0     H15556   0.707   2.887   4.806  0.4105 -0.2717  0.9633
  118MOL0     H15557   0.783   3.027   4.725  0.7655 -0.6383 -0.6694
  118MOL0     H15558   1.129   3.223   3.892  0.4287  0.8939  0.0627
  118MOL0     H15559   1.335   3.311   3.793 -2.2005 -0.2433  0.3538
  118MOL0     H15560   1.833   3.464   4.031 -0.9182 -1.7825  0.9817
  118MOL0     H15561   2.059   3.543   3.952  0.1572  0.7889 -0.4249
  118MOL0     H15562   0.930   3.507   3.797 -0.8655 -0.8550 -0.7832
  118MOL0     H15563   0.755   3.432   3.966  0.3318 -2.4648 -0.0139
  118MOL0     H15564   0.644   3.266   4.356 -0.6262  1.8627 -2.1783
  118MOL0     H15565   0.459   3.213   4.514 -1.8531  0.0402  1.8291
  118MOL0     H15566   0.300   3.222   4.710 -2.6161 -0.5354  1.8025
  118MOL0     H15567   0.230   3.181   4.554 -0.4114 -2.8673  2.5897
  118MOL0     H15568   0.024   3.264   4.602  3.2587 -0.4262 -1.8121
  118MOL0     H15569   0.069   3.135   4.714 -0.8974 -0.4904 -2.2674
  118MOL0     H15570   0.139   3.304   4.890  0.1164 -0.1514  0.0523
  118MOL0     H15571  -0.035   3.278   4.858 -2.6483  3.4775 -0.9190
  118MOL0     H15572   0.014   3.516   4.903 -0.1044  0.6702 -0.6956
  118MOL0     H15573   0.110   3.516   4.756 -0.8305 -0.3007 -1.1025
  118MOL0     H15574  -0.277   3.508   4.605  1.4380 -0.8740 -0.5589
  118MOL0     H15575   0.316   3.617   4.489  1.5095  1.4956  0.8454
  118MOL0     H15576   0.499   3.664   4.334  1.4165 -0.3754  0.3921
  119MOL0     O15577   4.934   5.746   0.982  0.7951 -0.2102 -0.1609
  119MOL0     C15578   4.891   5.689   0.878 -0.6593 -0.2980 -0.3909
  119MOL0     O15579   4.967   5.657   0.770  0.6764  0.5218 -0.4423
  119MOL0     C15580   5.087   5.727   0.753  0.5116 -0.4573  0.6201
  119MOL0     C15581   5.101   5.868   0.757  0.2504  0.6489 -0.5645
  119MOL0     C15582   5.228   5.926   0.720 -0.2216  0.2474  0.0726
  119MOL0     C15583   5.334   5.848   0.679 -0.3842 -0.5421 -1.6803
  119MOL0     O15584   5.460   5.901   0.652 -0.2953  0.6861  0.0372
  119MOL0     C15585   5.476   6.043   0.651  0.0700 -0.0815 -0.2145
  119MOL0     C15586   5.612   6.103   0.625 -0.5505  0.4464  0.3115
  119MOL0     C15587   5.723   6.029   0.719 -0.4672  0.1046 -0.7411
  119MOL0     C15588   5.693   6.051   0.869 -0.1940 -0.1283 -0.8303
  119MOL0     C15589   5.818   6.044   0.951 -0.0276  0.1475  0.6895
  119MOL0     C15590   5.788   5.982   1.087  0.3093  0.8527 -0.1383
  119MOL0     C15591   5.911   6.003   1.174  0.0391 -0.2424 -0.1962
  119MOL0     C15592   5.896   5.930   1.304  0.0264  0.5332  0.2461
  119MOL0     N15593   5.828   6.011   1.410  0.9225 -0.4657 -0.3083
  119MOL0     C15594   5.689   6.005   1.416  0.3503  0.1066 -0.4359
  119MOL0     C15595   5.653   6.070   1.532  0.5116  0.2204 -0.8424
  119MOL0     C15596   5.511   6.084   1.581 -0.4409  0.3603 -0.3447
  119MOL0     C15597   5.413   6.176   1.488  0.4881  0.2065  0.9494
  119MOL0     C15598   5.267   6.170   1.531  0.9719 -0.8550  0.7639
  119MOL0     C15599   5.189   6.249   1.426  0.4025  0.1289 -0.2471
  119MOL0     O15600   5.071   6.309   1.482 -0.6166  0.0289  0.3245
  119MOL0     C15601   4.959   6.242   1.464  0.4433 -0.2295  0.4046
  119MOL0     C15602   4.844   6.321   1.470 -0.1075  0.2818 -0.3918
  119MOL0     C15603   4.716   6.265   1.463  0.1299 -0.0686  0.4711
  119MOL0     C15604   4.696   6.134   1.455  0.5212  0.3135  0.6567
  119MOL0     C15605   4.569   6.080   1.471 -0.7444 -0.4754  0.1389
  119MOL0     O15606   4.463   6.163   1.440 -0.3600 -0.0336 -1.5113
  119MOL0     C15607   4.339   6.116   1.471 -0.5213 -0.6713  0.8700
  119MOL0     C15608   4.288   6.139   1.598  0.9922  0.8714  0.1177
  119MOL0     C15609   4.168   6.083   1.632  0.0378 -0.4487  0.0331
  119MOL0     C15610   4.094   6.024   1.532 -0.1657 -0.0325  0.5451
  119MOL0     O15611   3.979   5.955   1.558  0.5124  0.3057  0.0686
  119MOL0     C15612   3.873   6.027   1.633  0.4964 -0.0144 -0.3186
  119MOL0     C15613   3.739   6.019   1.552 -0.6067 -0.5534 -0.4426
  119MOL0     C15614   3.626   6.042   1.653  0.4898  0.3679  0.0071
  119MOL0     C15615   3.492   6.001   1.589 -0.9114  0.0623 -0.7597
  119MOL0     C15616   3.372   6.033   1.674  0.7145  0.6812  0.3142
  119MOL0     C15617   3.261   5.935   1.656  0.4719 -0.2362  0.5127
  119MOL0     C15618   3.190   5.963   1.519 -0.8400  0.0412 -0.2028
  119MOL0     C15619   3.077   5.869   1.497  0.7664  0.2045  0.2534
  119MOL0    Cl15620   3.141   5.706   1.485  0.0465  0.1239 -0.4505
  119MOL0     C15621   4.143   6.018   1.401 -0.2067 -0.4231 -0.6762
  119MOL0     C15622   4.270   6.061   1.370  0.4160  0.2386  0.3285
  119MOL0     O15623   4.564   5.968   1.526 -0.4064 -0.5755 -0.1518
  119MOL0     C15624   4.810   6.047   1.448  0.9981  0.1007  0.0551
  119MOL0     C15625   4.938   6.097   1.452 -0.7137 -1.0557  0.1247
  119MOL0     N15626   5.785   6.114   1.594 -0.1176  0.3725  0.0100
  119MOL0     N15627   5.878   6.086   1.511  0.0675  0.2958 -0.3145
  119MOL0     C15628   5.325   5.708   0.688 -0.1563 -0.2095 -0.3591
  119MOL0     C15629   5.197   5.651   0.726 -0.5211  0.4330  0.9306
  119MOL0     C15630   4.761   5.618   0.894  0.1550  0.2921 -0.1995
  119MOL0     C15631   4.714   5.545   0.782 -0.0713  0.3407 -0.5508
  119MOL0     C15632   4.588   5.485   0.798 -0.0703 -0.1464  0.3649
  119MOL0     C15633   4.491   5.511   0.906  0.3856  1.3676  0.1861
  119MOL0     O15634   4.363   5.468   0.897  0.0751  1.3196  0.8065
  119MOL0     C15635   4.277   5.506   1.003  0.2491  0.0672 -0.1941
  119MOL0     C15636   4.145   5.427   0.993 -0.1838 -0.4497  0.1501
  119MOL0     C15637   4.051   5.486   0.886 -0.8142 -0.1317 -0.5227
  119MOL0     C15638   3.905   5.468   0.918 -0.1634 -0.8490  0.0924
  119MOL0     C15639   3.820   5.530   0.817  0.0569  0.2551  0.7304
  119MOL0     C15640   3.727   5.581   0.751  0.1361  0.1839  0.4369
  119MOL0     C15641   4.555   5.576   1.016 -0.7145 -0.3466 -0.2689
  119MOL0     C15642   4.685   5.624   1.012 -0.2570 -0.5307 -0.3907
  119MOL0     H15643   5.016   5.929   0.787  0.0128 -1.2606  3.2659
  119MOL0     H15644   5.237   6.032   0.739  0.2760  0.1032  0.6945
  119MOL0     H15645   5.437   6.080   0.747 -0.8704 -0.0229 -0.6060
  119MOL0     H15646   5.414   6.098   0.580  0.2405 -0.0143 -0.3128
  119MOL0     H15647   5.611   6.208   0.656 -0.3643  0.5857 -0.1587
  119MOL0     H15648   5.643   6.104   0.521  0.8742 -1.3492  0.6601
  119MOL0     H15649   5.816   6.083   0.702  0.4149 -0.6619  1.3629
  119MOL0     H15650   5.724   5.922   0.696 -1.3016  0.0614 -0.6252
  119MOL0     H15651   5.654   6.149   0.899  0.1628 -0.9538  2.8905
  119MOL0     H15652   5.622   5.971   0.890  0.6826 -1.0049 -1.1449
  119MOL0     H15653   5.871   6.139   0.956  2.9659 -1.1766 -2.0996
  119MOL0     H15654   5.889   5.977   0.901  1.5503  2.5660 -0.5182
  119MOL0     H15655   5.748   5.880   1.086 -3.9021  2.2926 -0.3040
  119MOL0     H15656   5.701   6.044   1.114  1.8698  2.7462  0.8207
  119MOL0     H15657   5.991   5.952   1.120 -1.0252 -4.4837  1.7836
  119MOL0     H15658   5.926   6.109   1.199 -1.7100  0.0019 -0.0412
  119MOL0     H15659   5.996   5.904   1.341 -0.3105  0.1249  0.8890
  119MOL0     H15660   5.833   5.841   1.293 -1.0498  1.1244  1.3818
  119MOL0     H15661   5.622   5.954   1.347 -1.9290  0.3012  1.4900
  119MOL0     H15662   5.521   6.127   1.681 -0.1596 -0.5916  0.0393
  119MOL0     H15663   5.472   5.982   1.585  1.3205 -0.3282  0.0108
  119MOL0     H15664   5.407   6.146   1.383 -0.6941  1.3418  0.6562
  119MOL0     H15665   5.435   6.282   1.499 -3.4586  1.0817  2.2138
  119MOL0     H15666   5.244   6.063   1.528 -0.3700 -0.5601 -0.9654
  119MOL0     H15667   5.260   6.202   1.636  3.0923  0.1953  0.6478
  119MOL0     H15668   5.165   6.185   1.341 -1.2490  1.3290 -0.7400
  119MOL0     H15669   5.246   6.332   1.383 -2.4311  1.4483 -1.7513
  119MOL0     H15670   4.864   6.428   1.467  3.6553 -0.2878 -2.6079
  119MOL0     H15671   4.633   6.334   1.475 -1.2794 -1.9573  2.1883
  119MOL0     H15672   4.343   6.193   1.674  1.3279  2.0165 -0.9102
  119MOL0     H15673   4.142   6.089   1.737  0.1279 -0.3516  0.0509
  119MOL0     H15674   3.899   6.131   1.654  3.0292 -0.2126 -2.0583
  119MOL0     H15675   3.862   5.971   1.727 -2.4649  0.5838 -0.2155
  119MOL0     H15676   3.742   5.927   1.492  0.0961  0.5894 -2.2393
  119MOL0     H15677   3.745   6.100   1.479 -2.7411 -0.8653 -1.0308
  119MOL0     H15678   3.634   6.149   1.676  1.8909  1.0890 -3.2454
  119MOL0     H15679   3.654   5.982   1.740 -0.6090 -1.6600 -0.9658
  119MOL0     H15680   3.482   6.054   1.493  1.8284  1.4434 -0.3963
  119MOL0     H15681   3.502   5.892   1.581 -2.4331 -0.4971  3.1065
  119MOL0     H15682   3.342   6.136   1.653 -0.9288 -0.2584 -2.5153
  119MOL0     H15683   3.414   6.024   1.774  2.7202 -0.7201 -0.6039
  119MOL0     H15684   3.177   5.942   1.725  1.4609 -0.1689  1.7557
  119MOL0     H15685   3.314   5.840   1.653  5.0691  2.0101  0.8348
  119MOL0     H15686   3.148   6.063   1.507  0.1261  0.3952 -0.7200
  119MOL0     H15687   3.272   5.944   1.448 -0.9815 -0.5273 -0.2217
  119MOL0     H15688   3.027   5.890   1.403  1.9782  2.1777 -0.0114
  119MOL0     H15689   3.003   5.874   1.577  1.2650  0.0609  0.7372
  119MOL0     H15690   4.077   5.972   1.327  1.6284 -1.9598 -1.4491
  119MOL0     H15691   4.326   6.047   1.278 -0.9070 -3.0632 -0.1211
  119MOL0     H15692   4.792   5.940   1.449 -1.2369  0.3824 -1.7662
  119MOL0     H15693   5.015   6.020   1.447 -0.8794 -1.2796  0.8546
  119MOL0     H15694   5.412   5.653   0.654 -0.3230 -0.5872 -0.1709
  119MOL0     H15695   5.195   5.543   0.739 -2.6070  0.6391  3.0259
  119MOL0     H15696   4.775   5.536   0.693 -0.0574 -2.7575 -0.3245
  119MOL0     H15697   4.550   5.435   0.709 -0.8386 -1.6127  1.4576
  119MOL0     H15698   4.253   5.613   0.998  1.0115  0.2414 -0.2595
  119MOL0     H15699   4.322   5.503   1.102 -0.5467  1.8707  0.2714
  119MOL0     H15700   4.171   5.324   0.970  1.8894  0.0456  0.0795
  119MOL0     H15701   4.103   5.442   1.093 -0.1776  1.8923 -0.1230
  119MOL0     H15702   4.078   5.432   0.794  4.1518 -0.6232  0.9137
  119MOL0     H15703   4.078   5.592   0.879 -0.3249 -0.1926  0.3023
  119MOL0     H15704   3.882   5.361   0.922 -1.3374 -0.6402 -0.5237
  119MOL0     H15705   3.889   5.510   1.017  3.6162  1.6730 -0.1534
  119MOL0     H15706   3.651   5.608   0.680 -1.1969 -1.6258  1.1006
  119MOL0     H15707   4.513   5.568   1.115  1.4970 -3.1523  0.5508
  119MOL0     H15708   4.718   5.680   1.099  1.8511 -3.1192  0.6060
  120MOL0     O15709   0.021   2.832   6.339  0.0129  0.1932  0.2949
  120MOL0     C15710   0.074   2.933   6.289 -0.0964  0.3369  0.3410
  120MOL0     O15711   0.019   3.055   6.273  0.1182 -0.0166 -0.0848
  120MOL0     C15712  -0.103   3.093   6.328  0.1133  0.9819  0.2021
  120MOL0     C15713  -0.190   3.161   6.240 -0.2616  0.3059 -1.5530
  120MOL0     C15714  -0.319   3.184   6.281 -0.4775 -0.8623 -0.4246
  120MOL0     C15715  -0.366   3.158   6.407 -0.4319 -0.0168 -0.7821
  120MOL0     O15716  -0.489   3.202   6.451  0.1663  0.4781 -0.3664
  120MOL0     C15717  -0.601   3.146   6.377  0.1982  0.0885  0.1406
  120MOL0     C15718  -0.603   2.992   6.389 -0.6262  0.3277  0.2806
  120MOL0     C15719  -0.744   2.936   6.361 -0.2292 -0.6674  0.1213
  120MOL0     C15720  -0.757   2.787   6.343  0.3648  0.2414  0.3939
  120MOL0     C15721  -0.907   2.740   6.339 -0.2481 -0.4626  0.0975
  120MOL0     C15722  -0.908   2.595   6.293 -0.1542  1.0211  0.1650
  120MOL0     C15723  -1.046   2.543   6.257 -0.3093 -0.4716 -0.3756
  120MOL0     C15724  -1.027   2.407   6.196 -0.8345 -0.7623  0.0102
  120MOL0     N15725  -0.966   2.308   6.290 -0.7365  0.4205  0.3436
  120MOL0     C15726  -0.874   2.216   6.259 -0.4011 -0.5231  0.5184
  120MOL0     C15727  -0.849   2.144   6.375 -0.5660  0.5567 -0.6229
  120MOL0     C15728  -0.776   2.007   6.386  0.2302 -0.2568  0.5473
  120MOL0     C15729  -0.658   2.013   6.490 -0.0185 -0.0437 -0.1911
  120MOL0     C15730  -0.555   2.112   6.444 -1.2104 -0.5846 -0.6232
  120MOL0     C15731  -0.494   2.094   6.304  0.5457 -0.2778  0.2096
  120MOL0     O15732  -0.372   2.178   6.294  1.1473  0.3882 -0.0231
  120MOL0     C15733  -0.254   2.130   6.251 -0.4648 -0.3992  0.5029
  120MOL0     C15734  -0.181   2.195   6.144  0.4714  0.8432 -0.5219
  120MOL0     C15735  -0.053   2.151   6.116 -0.5812 -0.5041 -0.9217
  120MOL0     C15736   0.012   2.046   6.177  0.8980  0.6480 -0.1223
  120MOL0     C15737   0.147   2.010   6.146  0.2369  0.1064 -0.3083
  120MOL0     O15738   0.221   2.090   6.072 -0.2152 -0.1104  0.0716
  120MOL0     C15739   0.347   2.054   6.031 -1.3622  0.0211 -0.7714
  120MOL0     C15740   0.372   2.026   5.891  0.8666 -0.5768  0.1865
  120MOL0     C15741   0.496   1.982   5.850  0.0088 -0.3706  0.2185
  120MOL0     C15742   0.602   1.964   5.941 -0.2190 -0.4418  0.0012
  120MOL0     O15743   0.730   1.911   5.922  0.1566 -0.2654 -0.3131
  120MOL0     C15744   0.758   1.822   5.813  0.2779 -0.6369 -0.1869
  120MOL0     C15745   0.904   1.772   5.826  0.0031  0.4152 -0.4480
  120MOL0     C15746   0.887   1.644   5.908 -0.3002 -0.6172 -0.2711
  120MOL0     C15747   1.022   1.599   5.960  0.0394  0.3923  0.8192
  120MOL0     C15748   1.098   1.693   6.045 -0.5792 -0.3017 -0.5214
  120MOL0     C15749   1.017   1.747   6.162 -0.0738 -0.2458 -1.1252
  120MOL0     C15750   1.105   1.822   6.251 -0.1843  0.6615 -0.4144
  120MOL0     C15751   1.047   1.950   6.319  0.0775  0.3893 -0.7846
  120MOL0    Cl15752   0.891   1.903   6.399 -0.2445 -0.1436  0.7151
  120MOL0     C15753   0.578   1.996   6.077  0.0237  0.1128 -0.4738
  120MOL0     C15754   0.456   2.041   6.123  0.4860  0.3279  0.6382
  120MOL0     O15755   0.189   1.905   6.198 -0.2918  0.0168  0.1791
  120MOL0     C15756  -0.066   1.979   6.271 -0.2332  0.1941  0.1260
  120MOL0     C15757  -0.198   2.016   6.308  0.2717 -0.5599  0.0739
  120MOL0     N15758  -0.928   2.200   6.472 -0.2094 -0.1519  0.1052
  120MOL0     N15759  -0.997   2.295   6.418 -0.4394  0.2298 -0.5718
  120MOL0     C15760  -0.269   3.109   6.503 -0.1494 -0.6880 -0.3611
  120MOL0     C15761  -0.142   3.069   6.458 -0.1540  0.3505 -0.2435
  120MOL0     C15762   0.214   2.919   6.244  0.6608 -0.0139 -0.2424
  120MOL0     C15763   0.266   3.023   6.163 -0.4382 -0.5818 -0.6546
  120MOL0     C15764   0.399   3.017   6.114 -0.4365  0.3172 -0.4986
  120MOL0     C15765   0.478   2.896   6.122  0.2145 -0.6641 -0.6055
  120MOL0     O15766   0.601   2.896   6.064 -0.2124 -0.4788 -0.0882
  120MOL0     C15767   0.693   2.795   6.103  0.2563 -0.5526  0.2211
  120MOL0     C15768   0.842   2.842   6.090 -0.7101  0.7903  0.0667
  120MOL0     C15769   0.888   2.847   5.944 -0.7752 -0.6732  0.5054
  120MOL0     C15770   1.028   2.905   5.915 -0.2896  0.4214 -0.9318
  120MOL0     C15771   1.132   2.847   6.001 -1.0574 -0.7491 -0.2470
  120MOL0     C15772   1.222   2.788   6.059  0.6141 -1.0229  0.1325
  120MOL0     C15773   0.417   2.780   6.190  0.0892 -1.2365  0.5143
  120MOL0     C15774   0.294   2.802   6.248  0.2207  0.2694  0.1302
  120MOL0     H15775  -0.150   3.179   6.141  0.8717  1.5714 -0.9039
  120MOL0     H15776  -0.382   3.243   6.215 -0.6478  1.4144  1.6296
  120MOL0     H15777  -0.592   3.179   6.273 -0.7778  3.5238  0.9998
  120MOL0     H15778  -0.694   3.189   6.415  1.0280  1.7608  0.3613
  120MOL0     H15779  -0.580   2.963   6.492  1.1350  0.0167 -0.1801
  120MOL0     H15780  -0.538   2.951   6.311  0.0604 -0.3185  1.1719
  120MOL0     H15781  -0.778   2.986   6.269 -0.6850 -0.7954  0.2180
  120MOL0     H15782  -0.810   2.964   6.443 -0.0458 -0.4062  0.1811
  120MOL0     H15783  -0.703   2.768   6.249  1.3743 -0.8409  1.1616
  120MOL0     H15784  -0.703   2.742   6.427 -0.3954  0.7421  1.1559
  120MOL0     H15785  -0.967   2.800   6.271 -2.0853  1.1914  2.9860
  120MOL0     H15786  -0.953   2.754   6.437 -0.9456 -1.1106 -0.1335
  120MOL0     H15787  -0.861   2.539   6.373 -0.9790  1.5320  1.0241
  120MOL0     H15788  -0.846   2.584   6.204 -0.6499 -2.7470  0.1507
  120MOL0     H15789  -1.115   2.533   6.341 -0.1471  0.0799 -0.1739
  120MOL0     H15790  -1.098   2.612   6.189  1.7817  1.9201  0.3216
  120MOL0     H15791  -0.968   2.402   6.104 -0.2841  2.7461  0.0630
  120MOL0     H15792  -1.121   2.364   6.160 -0.3127 -1.9363  0.0056
  120MOL0     H15793  -0.831   2.181   6.166  1.4919 -0.7421  1.4078
  120MOL0     H15794  -0.736   1.978   6.288  1.4190  2.4086  0.1693
  120MOL0     H15795  -0.846   1.932   6.424  0.1675 -0.3988  0.1618
  120MOL0     H15796  -0.613   1.915   6.508 -0.5780 -0.0911  1.0559
  120MOL0     H15797  -0.686   2.037   6.593  0.5617 -1.9503  0.4663
  120MOL0     H15798  -0.598   2.212   6.446  0.3517  0.1087  0.3517
  120MOL0     H15799  -0.473   2.122   6.515 -4.0752  1.7633  2.6666
  120MOL0     H15800  -0.559   2.123   6.220  1.8698 -0.0190 -0.7598
  120MOL0     H15801  -0.481   1.986   6.304 -3.0196 -0.8631  2.3882
  120MOL0     H15802  -0.228   2.279   6.093 -0.1643  0.9617  0.2317
  120MOL0     H15803  -0.005   2.214   6.041 -3.0619  0.0565 -2.1603
  120MOL0     H15804   0.298   2.043   5.814  0.6468  0.9741  0.7151
  120MOL0     H15805   0.504   1.964   5.743 -0.2112 -0.3723  0.2021
  120MOL0     H15806   0.756   1.885   5.723  1.0495 -0.3568 -0.0232
  120MOL0     H15807   0.688   1.738   5.818  1.3509 -1.5508 -0.0660
  120MOL0     H15808   0.976   1.848   5.858  1.9054 -0.4213 -2.4556
  120MOL0     H15809   0.943   1.737   5.730  0.1348 -0.3839 -0.1037
  120MOL0     H15810   0.845   1.561   5.850 -0.5617 -2.9173  2.8833
  120MOL0     H15811   0.830   1.667   5.999 -0.2919  3.2008 -1.0570
  120MOL0     H15812   1.009   1.506   6.017 -0.8501  0.2486  0.4027
  120MOL0     H15813   1.089   1.575   5.877 -0.3760  0.2675  0.5129
  120MOL0     H15814   1.129   1.774   5.978 -0.1424 -0.5565 -0.6293
  120MOL0     H15815   1.194   1.651   6.076 -0.0929 -0.0358 -1.6279
  120MOL0     H15816   0.967   1.664   6.213  0.4096 -0.1256 -0.4541
  120MOL0     H15817   0.941   1.815   6.121 -0.0483  1.2235  1.1068
  120MOL0     H15818   1.142   1.752   6.327 -1.0199  1.3625  0.6635
  120MOL0     H15819   1.196   1.856   6.203  2.2515 -2.7577  1.2987
  120MOL0     H15820   1.024   2.022   6.241  0.7079  1.5286  0.0607
  120MOL0     H15821   1.112   2.002   6.390 -0.3711 -2.2225  1.7537
  120MOL0     H15822   0.656   1.982   6.151 -0.6770  0.9793  0.4664
  120MOL0     H15823   0.427   2.047   6.228 -2.3183 -0.4581 -0.0185
  120MOL0     H15824  -0.025   1.900   6.333  1.0895  0.4997 -0.3400
  120MOL0     H15825  -0.238   1.964   6.395 -0.3987  1.2170  0.8870
  120MOL0     H15826  -0.311   3.102   6.603  0.0809  0.1405 -0.2004
  120MOL0     H15827  -0.087   3.004   6.525 -0.4733 -1.2177 -1.4592
  120MOL0     H15828   0.216   3.118   6.148 -1.6454 -0.5869  2.5502
  120MOL0     H15829   0.433   3.108   6.065  1.3158 -0.0697 -0.0961
  120MOL0     H15830   0.670   2.703   6.049 -1.6356 -0.5947  1.0203
  120MOL0     H15831   0.689   2.767   6.209 -1.1761 -1.6638 -0.0967
  120MOL0     H15832   0.846   2.933   6.150 -0.8591 -0.0925  1.4597
  120MOL0     H15833   0.903   2.766   6.140 -0.0997 -0.2307 -2.0650
  120MOL0     H15834   0.807   2.905   5.898 -1.3927 -0.3969  1.8901
  120MOL0     H15835   0.886   2.746   5.902 -1.4896  0.1429 -1.5911
  120MOL0     H15836   1.047   2.886   5.809  4.2033 -0.3940 -0.1723
  120MOL0     H15837   1.017   3.014   5.925 -0.9767  0.4361 -1.7254
  120MOL0     H15838   1.302   2.748   6.119 -0.1049 -2.3692  0.2329
  120MOL0     H15839   0.456   2.679   6.200 -3.1082 -2.3659  3.3711
  120MOL0     H15840   0.252   2.719   6.305  0.4760  0.8554  1.2030
  121MOL0     O15841   0.741   9.059  10.408 -0.0904 -0.5439  0.6330
  121MOL0     C15842   0.787   9.058  10.295 -0.8856  0.1324 -0.3354
  121MOL0     O15843   0.726   9.094  10.177  0.0656 -0.5271 -0.2285
  121MOL0     C15844   0.593   9.130  10.162  0.0287  0.2273  0.2341
  121MOL0     C15845   0.504   9.168  10.270 -0.0450 -0.0876  0.4571
  121MOL0     C15846   0.378   9.213  10.250  0.9474 -0.0853 -0.4075
  121MOL0     C15847   0.331   9.235  10.121 -0.1097  0.0311  0.0545
  121MOL0     O15848   0.199   9.262  10.080 -0.3318  0.1249 -0.2388
  121MOL0     C15849   0.087   9.266  10.173 -0.7062  0.9958 -0.2373
  121MOL0     C15850  -0.059   9.301  10.124 -0.0976 -0.7858  0.3244
  121MOL0     C15851  -0.119   9.176  10.056 -0.1331  0.7563 -1.2055
  121MOL0     C15852  -0.239   9.215   9.969 -0.5046 -0.1604 -0.8211
  121MOL0     C15853  -0.353   9.283  10.060 -0.1491  0.7588 -0.1202
  121MOL0     C15854  -0.468   9.341   9.975 -0.5268  0.7749  0.0287
  121MOL0     C15855  -0.596   9.384  10.043 -0.0073  0.1064  0.8430
  121MOL0     C15856  -0.656   9.273  10.140  0.1970  0.7245 -0.7556
  121MOL0     N15857  -0.787   9.298  10.192  0.5466 -0.5092 -0.0224
  121MOL0     C15858  -0.906   9.235  10.166 -0.2769 -0.1494  0.2519
  121MOL0     C15859  -1.002   9.313  10.207  0.1731 -0.1427 -0.2281
  121MOL0     C15860  -1.152   9.291  10.178 -0.5461  0.0661  0.0515
  121MOL0     C15861  -1.252   9.329  10.288 -0.1280 -0.1291 -0.3691
  121MOL0     C15862  -1.402   9.309  10.249 -0.5186  0.3817  0.9209
  121MOL0     C15863  -1.494   9.350  10.370  0.5896 -0.2895 -0.6122
  121MOL0     O15864  -1.628   9.324  10.328  0.5680 -0.4742 -0.3557
  121MOL0     C15865  -1.729   9.318  10.422  0.5095 -0.5795 -1.5879
  121MOL0     C15866  -1.710   9.311  10.565 -0.2780  0.0991 -0.4103
  121MOL0     C15867  -1.818   9.321  10.654 -0.3327 -0.5695 -0.0241
  121MOL0     C15868  -1.955   9.330  10.604 -0.2890 -0.3552 -0.4707
  121MOL0     C15869  -2.071   9.337  10.692 -0.8311 -0.1947  0.0512
  121MOL0     O15870  -2.044   9.326  10.831 -0.2874  0.0472  0.5770
  121MOL0     C15871  -2.142   9.331  10.921  0.2108 -0.9456 -0.4956
  121MOL0     C15872  -2.255   9.405  10.916 -0.1001 -0.6363  0.0807
  121MOL0     C15873  -2.356   9.402  11.016  0.0671 -0.0283  0.0950
  121MOL0     C15874  -2.339   9.323  11.130  0.8181 -0.1898  0.2165
  121MOL0     O15875  -2.436   9.314  11.225 -0.4102 -0.3208 -0.0174
  121MOL0     C15876  -2.411   9.224  11.336 -0.0581  0.7433 -0.6627
  121MOL0     C15877  -2.512   9.253  11.452  0.0578 -0.3108  0.2915
  121MOL0     C15878  -2.662   9.205  11.431 -0.3710 -0.2241 -0.1730
  121MOL0     C15879  -2.680   9.053  11.402  0.6332 -0.6928  0.1484
  121MOL0     C15880  -2.824   9.011  11.418 -0.1147 -0.2603 -0.3946
  121MOL0     C15881  -2.853   8.877  11.358 -0.2719  0.7051 -0.8827
  121MOL0     C15882  -2.973   8.804  11.407  0.9481  0.5371 -0.0817
  121MOL0     C15883  -3.101   8.883  11.371 -0.0023 -0.2031  0.3035
  121MOL0    Cl15884  -3.236   8.792  11.427  0.1076  0.0546 -0.6742
  121MOL0     C15885  -2.218   9.246  11.138 -0.6024  0.5148 -0.4102
  121MOL0     C15886  -2.130   9.251  11.035  0.4816 -0.7306  0.1561
  121MOL0     O15887  -2.184   9.344  10.638 -0.4453 -0.2305 -0.0606
  121MOL0     C15888  -1.969   9.338  10.470 -0.2116 -0.1132 -0.4070
  121MOL0     C15889  -1.862   9.327  10.388 -0.4333 -1.0175 -0.6173
  121MOL0     N15890  -0.951   9.432  10.267  0.3489 -0.4859  0.5772
  121MOL0     N15891  -0.830   9.418  10.253  0.1625  0.0674 -0.5641
  121MOL0     C15892   0.415   9.223  10.013 -0.0677  0.3220  0.3307
  121MOL0     C15893   0.545   9.157  10.033 -0.6506  0.0361  0.7670
  121MOL0     C15894   0.938   9.025  10.276 -0.0723  0.5016 -0.2072
  121MOL0     C15895   0.992   9.026  10.143 -0.3150  0.2209  0.8280
  121MOL0     C15896   1.129   8.987  10.120 -0.0789  0.0213  0.1657
  121MOL0     C15897   1.211   8.962  10.233  0.6848 -0.8302 -0.1014
  121MOL0     O15898   1.340   8.923  10.217 -0.7038  0.1928  0.4435
  121MOL0     C15899   1.421   9.010  10.136  0.7579  0.7785  0.4591
  121MOL0     C15900   1.565   8.992  10.173  0.3571 -0.4247 -0.4640
  121MOL0     C15901   1.665   9.085  10.103  0.0902  0.0378 -0.3925
  121MOL0     C15902   1.639   9.115   9.959 -0.1962 -0.2764 -0.0633
  121MOL0     C15903   1.747   9.203   9.892  0.4040  0.7608 -0.0073
  121MOL0     C15904   1.836   9.279   9.851 -0.6016  1.0954  0.3331
  121MOL0     C15905   1.152   8.963  10.360  0.2753  0.2565  0.3695
  121MOL0     C15906   1.021   8.990  10.384  0.1918  0.1363  0.2329
  121MOL0     H15907   0.527   9.129  10.369 -0.0339 -1.6539 -0.1326
  121MOL0     H15908   0.317   9.219  10.339  0.8384 -0.1045 -0.4802
  121MOL0     H15909   0.121   9.343  10.242  2.7034 -0.0835 -0.5412
  121MOL0     H15910   0.091   9.170  10.225  0.2752  0.7629 -0.7230
  121MOL0     H15911  -0.050   9.385  10.054  2.3847  0.2715  1.7463
  121MOL0     H15912  -0.122   9.335  10.207  1.7256 -1.4519  2.0900
  121MOL0     H15913  -0.137   9.104  10.137 -0.6817  1.5413 -0.6163
  121MOL0     H15914  -0.043   9.130   9.992 -1.7794 -0.4850 -2.3319
  121MOL0     H15915  -0.216   9.298   9.902 -1.5381  0.0800 -0.8825
  121MOL0     H15916  -0.285   9.134   9.911  0.2613 -0.7816 -0.5825
  121MOL0     H15917  -0.310   9.347  10.138  1.1641  2.2306 -1.9478
  121MOL0     H15918  -0.396   9.202  10.119 -0.3876  1.8517  1.2541
  121MOL0     H15919  -0.490   9.264   9.899 -1.0477  0.1212  0.8196
  121MOL0     H15920  -0.433   9.433   9.928 -1.1770  1.5003  0.9212
  121MOL0     H15921  -0.575   9.475  10.099  3.9455 -0.7549  1.0375
  121MOL0     H15922  -0.670   9.403   9.964  0.3356 -2.0017 -0.0637
  121MOL0     H15923  -0.592   9.230  10.217 -4.5981 -1.6949  2.3464
  121MOL0     H15924  -0.666   9.184  10.078  0.7196 -0.5631  0.9395
  121MOL0     H15925  -0.917   9.141  10.113  2.1657 -1.2315  1.4755
  121MOL0     H15926  -1.170   9.188  10.146 -0.9477  0.9232 -2.7616
  121MOL0     H15927  -1.159   9.347  10.084  1.7193 -3.7737 -2.6765
  121MOL0     H15928  -1.239   9.430  10.326  3.8917 -1.1489  1.5362
  121MOL0     H15929  -1.227   9.259  10.368  3.1571  1.5266  0.1993
  121MOL0     H15930  -1.438   9.359  10.158  0.4110 -2.1985 -0.9708
  121MOL0     H15931  -1.413   9.201  10.241  1.5250  0.2476 -0.6262
  121MOL0     H15932  -1.481   9.455  10.399  0.5981 -0.5842  0.4852
  121MOL0     H15933  -1.479   9.287  10.458 -0.9898  0.7656  0.4654
  121MOL0     H15934  -1.617   9.291  10.616 -0.8260 -1.8183 -0.0920
  121MOL0     H15935  -1.805   9.302  10.760 -0.8669  1.7978  0.5160
  121MOL0     H15936  -2.279   9.471  10.834  1.6139  0.6362  0.5374
  121MOL0     H15937  -2.445   9.463  11.008 -0.0130  0.3625  3.0459
  121MOL0     H15938  -2.310   9.240  11.374  1.0569 -0.5694 -2.9084
  121MOL0     H15939  -2.418   9.120  11.301 -0.6886  0.9176 -1.0715
  121MOL0     H15940  -2.510   9.360  11.474 -0.2373 -0.0652 -0.8293
  121MOL0     H15941  -2.478   9.207  11.545 -0.0652  1.2017  1.1077
  121MOL0     H15942  -2.719   9.264  11.358 -0.1047  0.9875  0.5713
  121MOL0     H15943  -2.715   9.238  11.521  0.4030  1.4239 -0.2831
  121MOL0     H15944  -2.631   9.026  11.309 -2.6356 -1.7608 -1.3978
  121MOL0     H15945  -2.626   8.998  11.480 -0.2549 -2.0072 -0.1345
  121MOL0     H15946  -2.889   9.086  11.371 -1.7467  2.3519  5.2254
  121MOL0     H15947  -2.859   9.015  11.521  0.9298  0.1781 -0.0383
  121MOL0     H15948  -2.770   8.808  11.379 -1.2670 -0.4647 -0.7069
  121MOL0     H15949  -2.874   8.895  11.252  1.8881 -0.4061 -1.5629
  121MOL0     H15950  -2.970   8.701  11.371  0.3421  0.0688  1.1707
  121MOL0     H15951  -2.978   8.803  11.516 -2.0852 -0.5320 -0.1096
  121MOL0     H15952  -3.120   8.898  11.265 -1.6047  1.7869  0.8136
  121MOL0     H15953  -3.101   8.982  11.417  1.3585 -1.0919  2.4086
  121MOL0     H15954  -2.196   9.183  11.223  1.0743  0.8355 -0.5654
  121MOL0     H15955  -2.040   9.190  11.026 -0.5706 -2.3500  0.2702
  121MOL0     H15956  -2.071   9.352  10.435 -0.7515  1.0975  1.4852
  121MOL0     H15957  -1.890   9.323  10.283 -1.6707  0.9929 -0.4140
  121MOL0     H15958   0.373   9.241   9.915  1.5217  1.5976 -0.1594
  121MOL0     H15959   0.593   9.142   9.937 -0.5990 -0.8702  0.9249
  121MOL0     H15960   0.929   9.033  10.055 -1.9673 -0.3379  1.9267
  121MOL0     H15961   1.179   8.987  10.024  0.6922  3.1562  0.4652
  121MOL0     H15962   1.401   9.116  10.151  0.2695  0.8294 -0.4563
  121MOL0     H15963   1.388   8.985  10.034 -2.3112 -0.5493  1.6371
  121MOL0     H15964   1.563   9.000  10.283 -1.1562  0.4159 -0.5219
  121MOL0     H15965   1.592   8.889  10.149 -0.9013 -1.3676  1.8424
  121MOL0     H15966   1.768   9.051  10.117  0.6451  0.4390 -2.9122
  121MOL0     H15967   1.648   9.174  10.165 -0.8540  0.2143 -0.8782
  121MOL0     H15968   1.637   9.016   9.912  0.6763 -2.1732  3.5420
  121MOL0     H15969   1.539   9.156   9.944  0.2880  1.7571  1.8735
  121MOL0     H15970   1.919   9.337   9.818  0.1055 -0.3922 -0.6104
  121MOL0     H15971   1.213   8.941  10.447 -1.2797  0.7777  1.6378
  121MOL0     H15972   0.982   8.992  10.486  0.3551 -0.2358  0.3042
  122MOL0     O15973   7.259   4.498   9.736  0.0558 -0.4113  0.3442
  122MOL0     C15974   7.314   4.445   9.832 -0.2830 -0.6739 -0.7191
  122MOL0     O15975   7.250   4.413   9.949  0.0287  0.5322  0.1437
  122MOL0     C15976   7.114   4.433   9.959 -0.7278 -0.2759 -0.0469
  122MOL0     C15977   7.029   4.369   9.864 -0.7722 -0.5937 -0.5363
  122MOL0     C15978   6.892   4.391   9.886 -0.4050 -0.7905  0.3038
  122MOL0     C15979   6.833   4.463   9.992  0.6165  0.3267 -0.2853
  122MOL0     O15980   6.701   4.476  10.017  0.4763  0.1126 -0.0106
  122MOL0     C15981   6.642   4.348  10.049 -0.8422  0.9287  0.2718
  122MOL0     C15982   6.512   4.332   9.978 -0.3513 -0.5888  0.7875
  122MOL0     C15983   6.429   4.227  10.036  0.1580 -0.2022 -0.9560
  122MOL0     C15984   6.284   4.209   9.984 -0.1180 -0.4942  1.0500
  122MOL0     C15985   6.215   4.076  10.008 -0.4876 -0.4866 -0.1282
  122MOL0     C15986   6.180   4.056  10.154 -0.0890  0.2187 -0.2517
  122MOL0     C15987   6.103   3.922  10.183  0.4531 -0.1376 -0.7680
  122MOL0     C15988   5.950   3.918  10.152 -0.0199 -0.3086  0.5594
  122MOL0     N15989   5.915   3.890  10.016  1.1251  0.0593  0.2164
  122MOL0     C15990   5.957   3.778   9.943  0.2766 -0.4963 -0.8615
  122MOL0     C15991   5.910   3.803   9.815 -0.4617 -0.4318  0.0977
  122MOL0     C15992   5.911   3.708   9.694  0.1032  0.2734  0.6525
  122MOL0     C15993   5.788   3.629   9.674  0.0903 -0.0716  0.1371
  122MOL0     C15994   5.762   3.529   9.789  0.7148  0.5269  0.1868
  122MOL0     C15995   5.655   3.429   9.772 -0.8653  0.7922  0.7031
  122MOL0     O15996   5.533   3.498   9.759  0.5736  0.4299 -0.5224
  122MOL0     C15997   5.417   3.422   9.753 -0.2746 -0.5964 -0.0902
  122MOL0     C15998   5.295   3.494   9.725  0.6237 -0.7081  0.3130
  122MOL0     C15999   5.174   3.418   9.722  0.1934  0.2059 -0.4365
  122MOL0     C16000   5.162   3.281   9.761  0.2841  0.1020  0.3008
  122MOL0     C16001   5.030   3.216   9.764  0.3509 -0.3558 -0.0437
  122MOL0     O16002   5.014   3.093   9.820  0.8029  0.4141  0.1563
  122MOL0     C16003   4.888   3.033   9.816 -0.2243 -0.5466 -0.5285
  122MOL0     C16004   4.845   2.990   9.696  0.1418 -0.0934 -0.1202
  122MOL0     C16005   4.732   2.908   9.680  0.7691  0.1793 -0.0823
  122MOL0     C16006   4.661   2.881   9.801  0.0376 -0.4817 -0.1861
  122MOL0     O16007   4.551   2.804   9.777 -0.1102 -0.0948 -0.1585
  122MOL0     C16008   4.438   2.814   9.869 -1.0192 -0.3261  0.7108
  122MOL0     C16009   4.308   2.771   9.797 -0.7595  0.3689  0.4924
  122MOL0     C16010   4.273   2.845   9.658  1.1150 -0.5538 -0.3109
  122MOL0     C16011   4.252   2.996   9.688 -0.5486 -0.1852  0.7495
  122MOL0     C16012   4.182   3.065   9.572 -0.7853  0.7644 -0.3279
  122MOL0     C16013   4.140   3.202   9.613  0.0870 -0.0101  0.6083
  122MOL0     C16014   4.110   3.302   9.501 -0.0098  0.2316 -0.1866
  122MOL0     C16015   3.964   3.283   9.435  0.4049 -0.1290  0.5591
  122MOL0    Cl16016   3.932   3.402   9.307  0.1435  0.1865  0.0368
  122MOL0     C16017   4.705   2.918   9.927  0.7553  0.1369  0.1135
  122MOL0     C16018   4.819   2.998   9.934 -0.4647  0.5899  0.2489
  122MOL0     O16019   4.943   3.287   9.713 -0.2175  0.5666 -0.5200
  122MOL0     C16020   5.285   3.224   9.790  0.0281  0.0858  0.7986
  122MOL0     C16021   5.405   3.285   9.788 -0.5448 -0.0373  0.1318
  122MOL0     N16022   5.850   3.931   9.815  0.0839 -0.3130  0.3882
  122MOL0     N16023   5.846   3.971   9.934 -0.7054 -0.3245  0.0400
  122MOL0     C16024   6.919   4.535  10.073  0.2166 -0.8443  0.6467
  122MOL0     C16025   7.062   4.515  10.063 -0.2879  0.4172  1.1189
  122MOL0     C16026   7.455   4.408   9.820 -0.3913  0.0979 -0.0076
  122MOL0     C16027   7.537   4.455   9.718 -0.2109 -0.7160 -0.0041
  122MOL0     C16028   7.674   4.434   9.718 -0.7300  0.1919 -0.1597
  122MOL0     C16029   7.730   4.351   9.815 -1.0344  0.0632 -0.3030
  122MOL0     O16030   7.870   4.335   9.827 -0.5874  0.2694  0.5346
  122MOL0     C16031   7.925   4.207   9.792  0.3416  0.0664 -1.6148
  122MOL0     C16032   7.954   4.180   9.646 -0.6137  0.3710  0.1277
  122MOL0     C16033   8.022   4.302   9.572 -0.2381 -0.4522  0.7645
  122MOL0     C16034   8.103   4.253   9.449 -0.0444  0.1485 -0.4277
  122MOL0     C16035   8.222   4.181   9.494 -0.9150 -0.2631 -0.0791
  122MOL0     C16036   8.323   4.117   9.510 -0.2697 -0.1167 -0.0671
  122MOL0     C16037   7.644   4.295   9.907  0.1132 -0.3512 -0.5922
  122MOL0     C16038   7.506   4.318   9.906  0.1021 -0.1239 -0.5308
  122MOL0     H16039   7.072   4.329   9.772  2.3987 -1.0247  1.0223
  122MOL0     H16040   6.829   4.359   9.804 -0.6918  1.0610 -0.2535
  122MOL0     H16041   6.623   4.336  10.156  0.1322 -1.4218  0.2255
  122MOL0     H16042   6.699   4.256  10.037 -1.0330  0.7451  0.7674
  122MOL0     H16043   6.527   4.300   9.874  0.6452 -2.5546  1.4708
  122MOL0     H16044   6.459   4.427   9.970  0.3488 -0.3040 -0.8695
  122MOL0     H16045   6.413   4.250  10.142  2.6517  0.3465 -0.6399
  122MOL0     H16046   6.472   4.127  10.035 -1.6389 -1.0086 -0.8614
  122MOL0     H16047   6.230   4.298  10.016  0.9759  0.3061  0.7503
  122MOL0     H16048   6.291   4.222   9.876  1.9014  1.6952  1.3444
  122MOL0     H16049   6.282   3.994   9.982 -1.2796 -0.9793 -0.6776
  122MOL0     H16050   6.124   4.060   9.949  0.5491  0.7824 -2.1625
  122MOL0     H16051   6.123   4.142  10.191 -1.9345 -0.9974 -0.1391
  122MOL0     H16052   6.277   4.057  10.205  2.7263 -1.2975 -4.9360
  122MOL0     H16053   6.166   3.845  10.139 -1.0713 -1.4113 -0.7935
  122MOL0     H16054   6.100   3.903  10.291 -4.4239 -0.2995 -0.6985
  122MOL0     H16055   5.914   4.016  10.185 -0.3086 -0.5276  0.8960
  122MOL0     H16056   5.900   3.838  10.207 -0.4146 -1.3836 -1.2959
  122MOL0     H16057   6.014   3.692   9.974 -1.1349 -0.5169  1.9322
  122MOL0     H16058   5.990   3.632   9.694  0.8621  0.8712  4.2230
  122MOL0     H16059   5.922   3.767   9.602 -1.4646  0.5855  0.6336
  122MOL0     H16060   5.803   3.570   9.583  0.9121 -0.0502  0.2558
  122MOL0     H16061   5.694   3.684   9.662 -0.2183 -0.5750  0.1790
  122MOL0     H16062   5.854   3.470   9.794  0.6796  0.5765  1.6793
  122MOL0     H16063   5.750   3.584   9.882  4.6689  1.2358  0.4697
  122MOL0     H16064   5.651   3.368   9.863 -0.1246  0.7496  0.7095
  122MOL0     H16065   5.677   3.362   9.689 -0.7661 -0.5362  1.7803
  122MOL0     H16066   5.293   3.594   9.683 -0.2592 -1.0301 -0.4209
  122MOL0     H16067   5.083   3.473   9.699 -1.3190 -2.1071 -0.3080
  122MOL0     H16068   4.903   3.001   9.605  3.7780 -3.2597  1.5273
  122MOL0     H16069   4.698   2.876   9.583 -1.9434 -0.8342  1.1015
  122MOL0     H16070   4.431   2.918   9.902 -0.9028  0.0083 -0.2660
  122MOL0     H16071   4.455   2.748   9.955 -3.7062 -0.2981  1.3551
  122MOL0     H16072   4.226   2.766   9.870 -1.6533  0.2034 -0.5082
  122MOL0     H16073   4.305   2.667   9.765 -2.5750  0.7199 -0.6541
  122MOL0     H16074   4.179   2.806   9.618  0.3504 -1.1189  1.9056
  122MOL0     H16075   4.346   2.828   9.578  0.5830  0.8408 -1.1304
  122MOL0     H16076   4.179   3.010   9.768 -3.5079  1.6737 -2.0273
  122MOL0     H16077   4.345   3.048   9.711  0.4241 -0.6372 -1.8705
  122MOL0     H16078   4.091   3.014   9.541 -0.7366  0.4858 -0.0197
  122MOL0     H16079   4.247   3.069   9.485 -1.6647 -3.9298 -1.4322
  122MOL0     H16080   4.232   3.235   9.662  0.6056 -0.8341  0.2138
  122MOL0     H16081   4.059   3.213   9.686 -0.3808  1.8776 -0.1380
  122MOL0     H16082   4.122   3.404   9.538  0.3960  0.3271 -0.5656
  122MOL0     H16083   4.185   3.312   9.422  0.2501  4.2366  0.3954
  122MOL0     H16084   3.891   3.293   9.515 -1.7208  0.2797 -1.3303
  122MOL0     H16085   3.953   3.181   9.398 -3.8422 -0.0545  1.1731
  122MOL0     H16086   4.646   2.872  10.006 -1.3892 -2.0872 -2.5919
  122MOL0     H16087   4.858   3.019  10.033 -2.8234  1.2934  1.0803
  122MOL0     H16088   5.296   3.117   9.806 -0.1646 -0.4096 -1.8623
  122MOL0     H16089   5.490   3.222   9.812 -2.2069 -2.5071 -0.1199
  122MOL0     H16090   6.885   4.599  10.153 -0.6556 -0.7095  0.1846
  122MOL0     H16091   7.128   4.571  10.129  2.7063  2.7366 -3.3458
  122MOL0     H16092   7.493   4.531   9.655 -2.8215  0.0481  2.4864
  122MOL0     H16093   7.737   4.483   9.644  1.0269  0.4217  1.4260
  122MOL0     H16094   7.862   4.126   9.831  1.8753 -0.1843  0.5336
  122MOL0     H16095   8.015   4.191   9.852 -0.7634 -2.3352 -0.4647
  122MOL0     H16096   8.006   4.085   9.633 -1.8157  0.0390 -3.2210
  122MOL0     H16097   7.856   4.176   9.598  0.5134  2.5520 -2.6367
  122MOL0     H16098   8.082   4.362   9.641  0.8157 -1.3008  0.6237
  122MOL0     H16099   7.950   4.370   9.526 -1.2923 -2.7693 -1.1918
  122MOL0     H16100   8.038   4.188   9.389  0.4957 -2.5420  1.7272
  122MOL0     H16101   8.136   4.343   9.395  0.5837  0.8239  1.0323
  122MOL0     H16102   8.415   4.062   9.513  0.4260  0.9712 -0.5355
  122MOL0     H16103   7.677   4.221   9.980  1.7997  0.2911 -0.6601
  122MOL0     H16104   7.439   4.270   9.977  0.7084  1.1716  0.9827
  123MOL0     O16105   2.662   8.000   9.269  0.5212 -0.6870  0.2611
  123MOL0     C16106   2.674   8.061   9.380 -0.2650  0.5821 -0.5170
  123MOL0     O16107   2.587   8.063   9.487 -0.0757 -0.7492 -0.4685
  123MOL0     C16108   2.461   8.008   9.483  0.9034  0.1822 -0.2146
  123MOL0     C16109   2.416   7.955   9.601  0.7258 -0.2498 -0.6409
  123MOL0     C16110   2.281   7.909   9.608  0.1829  0.7092 -0.0213
  123MOL0     C16111   2.194   7.909   9.495  0.2597  0.0131 -0.2728
  123MOL0     O16112   2.060   7.866   9.506  0.1155  0.3699 -0.7607
  123MOL0     C16113   1.998   7.798   9.401  0.3068  0.2592  0.2558
  123MOL0     C16114   1.855   7.770   9.450  0.1852 -0.2624 -0.3431
  123MOL0     C16115   1.771   7.707   9.345  0.1616 -0.2661  0.0397
  123MOL0     C16116   1.621   7.683   9.371 -0.3325  0.7545  0.4717
  123MOL0     C16117   1.562   7.575   9.277  0.2543  0.0007  0.0497
  123MOL0     C16118   1.572   7.608   9.137  0.4776 -0.1815 -0.3052
  123MOL0     C16119   1.485   7.514   9.049 -0.0769  0.1437 -0.7191
  123MOL0     C16120   1.509   7.532   8.901 -0.2195 -1.0894 -0.0273
  123MOL0     N16121   1.455   7.664   8.857 -0.0072 -0.6942  0.1726
  123MOL0     C16122   1.338   7.724   8.904  0.2750 -0.1287  0.2538
  123MOL0     C16123   1.344   7.853   8.861  0.1489 -0.9308  0.3076
  123MOL0     C16124   1.240   7.956   8.881 -0.2074 -0.8111 -0.5622
  123MOL0     C16125   1.101   7.895   8.903 -0.1820  0.1262 -0.5804
  123MOL0     C16126   0.996   7.986   8.849 -0.0957  0.8114 -0.2787
  123MOL0     C16127   0.855   7.937   8.895  0.0803  0.4226  0.1774
  123MOL0     O16128   0.747   8.021   8.848 -0.6586  0.1678 -0.1566
  123MOL0     C16129   0.612   7.997   8.883  0.0296 -0.1288  0.2424
  123MOL0     C16130   0.568   7.903   8.981 -0.2981 -0.2334 -0.8006
  123MOL0     C16131   0.441   7.879   9.000 -0.3511  0.0519 -0.4722
  123MOL0     C16132   0.339   7.956   8.934  0.4742  0.1526  0.4367
  123MOL0     C16133   0.194   7.935   8.959 -0.3504 -0.1797  0.0323
  123MOL0     O16134   0.107   7.989   8.870  0.0308 -0.0968 -0.6152
  123MOL0     C16135  -0.028   7.958   8.886  0.0382  0.6144 -0.3650
  123MOL0     C16136  -0.080   7.828   8.919  0.2184 -0.7594  1.4258
  123MOL0     C16137  -0.219   7.810   8.934 -0.1671  0.0336  0.6031
  123MOL0     C16138  -0.311   7.921   8.910  0.0050  0.2798 -0.1978
  123MOL0     O16139  -0.447   7.914   8.931  0.4807  0.4558 -0.2852
  123MOL0     C16140  -0.496   7.775   8.933  0.1425  0.5423  0.1053
  123MOL0     C16141  -0.651   7.768   8.935  0.4897  0.1648  1.1485
  123MOL0     C16142  -0.710   7.863   9.036  0.5124  0.5403  0.3539
  123MOL0     C16143  -0.864   7.839   9.042 -0.1114  0.0462  0.2580
  123MOL0     C16144  -0.922   7.922   9.157  0.3790  0.5712  0.0664
  123MOL0     C16145  -1.076   7.896   9.162 -0.1600 -0.3746 -0.6562
  123MOL0     C16146  -1.109   7.754   9.212 -0.7851  0.2936  0.2464
  123MOL0     C16147  -1.198   7.681   9.117 -0.3936  0.4472 -0.1762
  123MOL0    Cl16148  -1.256   7.531   9.190  0.6515  0.5744 -0.3383
  123MOL0     C16149  -0.264   8.039   8.863 -0.9975 -0.7288 -0.3100
  123MOL0     C16150  -0.122   8.062   8.851  0.1504  0.1347 -0.2724
  123MOL0     O16151   0.163   7.882   9.070 -0.3445 -0.2594  0.3792
  123MOL0     C16152   0.377   8.054   8.849  0.1042  0.6522  1.0146
  123MOL0     C16153   0.514   8.064   8.814  0.2535  0.3746 -0.3312
  123MOL0     N16154   1.460   7.873   8.797  0.0716 -0.5248 -0.2787
  123MOL0     N16155   1.527   7.766   8.793  0.2850 -0.1434 -0.0455
  123MOL0     C16156   2.252   7.963   9.378 -0.2175 -0.2219  0.3738
  123MOL0     C16157   2.380   8.015   9.370  0.3260  0.3259 -0.0781
  123MOL0     C16158   2.802   8.131   9.395  0.1536 -0.3321  1.3230
  123MOL0     C16159   2.887   8.156   9.286  0.5002  0.3353  0.9273
  123MOL0     C16160   3.011   8.216   9.298  1.2017  0.7343  0.0576
  123MOL0     C16161   3.056   8.249   9.421  0.5855  0.3306  0.0473
  123MOL0     O16162   3.186   8.299   9.428  0.5414  0.4423 -0.6499
  123MOL0     C16163   3.197   8.440   9.400  0.5453  0.3867  0.1065
  123MOL0     C16164   3.146   8.526   9.515  0.8500 -1.2407 -0.5060
  123MOL0     C16165   3.254   8.612   9.587 -0.6443  0.2630 -0.2404
  123MOL0     C16166   3.328   8.528   9.693 -0.3498  0.0479 -0.7480
  123MOL0     C16167   3.431   8.602   9.765 -0.0664  0.3542 -0.2607
  123MOL0     C16168   3.510   8.656   9.840 -0.0956  0.5814  0.5135
  123MOL0     C16169   2.975   8.221   9.533 -0.7528  0.3687 -1.0203
  123MOL0     C16170   2.846   8.177   9.522  0.1857  0.7341 -0.4882
  123MOL0     H16171   2.484   7.954   9.685  0.7396  0.6776 -0.6361
  123MOL0     H16172   2.242   7.879   9.705 -1.8478  1.4558 -0.5453
  123MOL0     H16173   2.045   7.701   9.382 -0.2495 -0.6667  3.1484
  123MOL0     H16174   1.994   7.860   9.311 -1.4064  1.6078  1.1908
  123MOL0     H16175   1.810   7.866   9.476  4.6026  2.1820 -0.7938
  123MOL0     H16176   1.843   7.697   9.531  1.3997 -2.2486 -1.8415
  123MOL0     H16177   1.813   7.611   9.315  0.4396 -0.4148  0.8895
  123MOL0     H16178   1.779   7.770   9.256 -2.8110  0.1726 -0.0486
  123MOL0     H16179   1.599   7.656   9.475 -1.9479 -2.6737 -0.6141
  123MOL0     H16180   1.570   7.778   9.350 -0.7395  0.2237 -1.0919
  123MOL0     H16181   1.455   7.560   9.292 -0.5394  1.4008 -3.2086
  123MOL0     H16182   1.604   7.480   9.312 -1.2169  0.0595  2.1645
  123MOL0     H16183   1.678   7.602   9.110  0.2514 -0.9230 -1.0687
  123MOL0     H16184   1.524   7.706   9.138  1.6543  0.4867  2.7348
  123MOL0     H16185   1.488   7.410   9.083 -1.6488 -0.0787 -1.2176
  123MOL0     H16186   1.384   7.542   9.079 -0.7212 -0.5623 -2.1476
  123MOL0     H16187   1.444   7.452   8.865 -0.9212  0.5240 -2.5987
  123MOL0     H16188   1.613   7.532   8.866  0.0397 -0.0226  0.6713
  123MOL0     H16189   1.271   7.694   8.984 -3.1991 -1.0684 -2.7582
  123MOL0     H16190   1.233   8.015   8.789  0.0179  0.2206  0.0642
  123MOL0     H16191   1.260   8.025   8.964 -0.9915  0.3105 -1.2810
  123MOL0     H16192   1.075   7.871   9.006 -1.1946 -0.7874 -1.0316
  123MOL0     H16193   1.090   7.800   8.849 -0.6774 -1.2821  1.8173
  123MOL0     H16194   1.006   8.087   8.890 -0.8954 -0.4148  3.2864
  123MOL0     H16195   0.986   7.974   8.741  0.1153 -2.5708 -0.0438
  123MOL0     H16196   0.850   7.934   9.004  2.3028  0.4406  0.3190
  123MOL0     H16197   0.845   7.832   8.866 -0.8514  0.5670 -0.0722
  123MOL0     H16198   0.635   7.839   9.038 -1.0832  0.7132  1.2828
  123MOL0     H16199   0.414   7.805   9.075  1.6416  1.5198  1.8274
  123MOL0     H16200  -0.024   7.736   8.933  0.1025 -1.3096 -1.2582
  123MOL0     H16201  -0.265   7.720   8.974  0.1264 -0.9016 -1.0483
  123MOL0     H16202  -0.466   7.721   9.023  0.5573 -0.7977 -0.8122
  123MOL0     H16203  -0.455   7.720   8.848  0.3978 -0.1895  0.6993
  123MOL0     H16204  -0.688   7.668   8.957  0.6975 -0.5872 -1.5683
  123MOL0     H16205  -0.678   7.794   8.832  0.4293 -2.0002  0.5815
  123MOL0     H16206  -0.690   7.967   9.008 -2.0499  0.7569 -0.9277
  123MOL0     H16207  -0.662   7.850   9.134  0.0410  0.8985  0.6321
  123MOL0     H16208  -0.903   7.873   8.946 -3.0342  0.4931  1.4718
  123MOL0     H16209  -0.890   7.733   9.045 -3.7166  0.7590 -0.5120
  123MOL0     H16210  -0.905   8.030   9.156  0.1572  0.6073 -0.4217
  123MOL0     H16211  -0.879   7.872   9.244  1.5350 -2.4388 -2.0823
  123MOL0     H16212  -1.112   7.916   9.061 -1.1561  2.9606  0.2145
  123MOL0     H16213  -1.144   7.957   9.223 -1.9219 -3.2695  0.4705
  123MOL0     H16214  -1.018   7.696   9.229 -0.0541  1.8050  1.7704
  123MOL0     H16215  -1.162   7.756   9.308 -2.9585  1.7987 -0.9158
  123MOL0     H16216  -1.138   7.651   9.030  2.9174  0.9270  1.7482
  123MOL0     H16217  -1.271   7.759   9.093  0.4750  1.6464  0.9360
  123MOL0     H16218  -0.335   8.120   8.849 -0.6900 -0.3157  0.4922
  123MOL0     H16219  -0.084   8.154   8.808  1.8846 -0.3763  0.0870
  123MOL0     H16220   0.301   8.103   8.789  0.0575 -1.5429 -0.8302
  123MOL0     H16221   0.550   8.135   8.740  3.6907 -0.2539  0.5773
  123MOL0     H16222   2.180   7.977   9.299 -2.0313  1.1779  2.1768
  123MOL0     H16223   2.425   8.064   9.284  3.1016 -1.1397  0.4040
  123MOL0     H16224   2.863   8.132   9.183  0.1753 -3.8313  1.7774
  123MOL0     H16225   3.074   8.229   9.210  0.8399  2.7871  0.0492
  123MOL0     H16226   3.141   8.473   9.313  0.2471  4.5164  1.6486
  123MOL0     H16227   3.297   8.465   9.363  0.7860  3.8510  2.5732
  123MOL0     H16228   3.062   8.589   9.483  2.1461  0.8710  0.0564
  123MOL0     H16229   3.109   8.459   9.594  2.5204  0.1268  1.5657
  123MOL0     H16230   3.193   8.690   9.633 -1.1027  1.0901 -2.1569
  123MOL0     H16231   3.330   8.671   9.536  1.7237 -1.3594  1.2424
  123MOL0     H16232   3.258   8.476   9.759 -2.6235  0.7985 -2.4444
  123MOL0     H16233   3.384   8.449   9.643  0.4136  0.4292 -0.5128
  123MOL0     H16234   3.586   8.696   9.905  0.6744  1.5415 -0.9299
  123MOL0     H16235   3.017   8.237   9.632 -0.9775  1.7943 -1.1272
  123MOL0     H16236   2.799   8.143   9.614  0.1542  0.2204 -0.6882
  124MOL0     O16237   7.370   0.755   2.563 -0.1076  0.3142  0.3395
  124MOL0     C16238   7.425   0.854   2.615  0.4709 -0.7922 -0.2228
  124MOL0     O16239   7.360   0.979   2.637 -0.4620  0.2527  0.1814
  124MOL0     C16240   7.230   0.985   2.591 -0.0283 -1.1073 -0.2269
  124MOL0     C16241   7.110   0.910   2.624 -0.5158  0.3936  0.6574
  124MOL0     C16242   6.984   0.947   2.567  0.8977 -0.6419 -0.1948
  124MOL0     C16243   6.973   1.057   2.480 -0.3052  0.0004 -0.0435
  124MOL0     O16244   6.846   1.086   2.440  0.3177 -0.2123  0.4125
  124MOL0     C16245   6.828   1.140   2.305 -0.2327  0.6813 -0.3662
  124MOL0     C16246   6.678   1.167   2.267 -0.5677 -0.0041  0.1762
  124MOL0     C16247   6.619   1.270   2.361  0.3890 -0.1143  0.0888
  124MOL0     C16248   6.469   1.303   2.341 -0.9911 -0.4378 -0.5275
  124MOL0     C16249   6.377   1.185   2.325  0.1838  0.1611  0.1628
  124MOL0     C16250   6.357   1.108   2.462 -0.2379 -0.4335  0.1639
  124MOL0     C16251   6.267   0.986   2.438 -0.0905 -1.2296  0.4074
  124MOL0     C16252   6.234   0.918   2.574 -0.8152 -0.4183  1.0182
  124MOL0     N16253   6.155   0.794   2.579 -0.1392  0.2132  0.2640
  124MOL0     C16254   6.024   0.780   2.542  0.3690  0.9667 -0.1726
  124MOL0     C16255   6.016   0.642   2.529  0.1388 -0.8499 -1.3045
  124MOL0     C16256   5.889   0.568   2.493 -0.3071  0.8665 -0.1008
  124MOL0     C16257   5.876   0.453   2.588  0.2087  0.1382  0.6413
  124MOL0     C16258   5.747   0.372   2.559  0.9546  0.2332  0.0436
  124MOL0     C16259   5.642   0.376   2.673  0.2154  0.4294 -0.0803
  124MOL0     O16260   5.612   0.520   2.693  0.8712 -0.0583 -0.8776
  124MOL0     C16261   5.507   0.555   2.778 -0.5932  0.2654  0.0980
  124MOL0     C16262   5.475   0.479   2.886  0.2807  0.1203 -0.7484
  124MOL0     C16263   5.362   0.502   2.960 -0.1985  0.4795 -0.0855
  124MOL0     C16264   5.264   0.592   2.926  0.2015 -0.6856  0.2582
  124MOL0     C16265   5.130   0.611   3.000  0.2043 -0.5755  0.1016
  124MOL0     O16266   5.072   0.736   2.981  0.2517  0.6438  0.0567
  124MOL0     C16267   4.953   0.767   3.044 -0.1892 -0.6880 -0.3694
  124MOL0     C16268   4.840   0.688   3.056 -0.4488  0.3739 -0.7794
  124MOL0     C16269   4.717   0.739   3.103 -0.2690  0.0637 -0.8553
  124MOL0     C16270   4.713   0.874   3.153 -0.5027  1.4460 -0.0181
  124MOL0     O16271   4.612   0.930   3.222  0.3952  0.3402 -0.1738
  124MOL0     C16272   4.478   0.937   3.171 -0.2498  0.6291  0.0432
  124MOL0     C16273   4.362   0.995   3.263 -0.2114  0.6142  0.0149
  124MOL0     C16274   4.228   1.015   3.183 -0.0134 -0.0231 -0.3554
  124MOL0     C16275   4.109   1.029   3.274 -0.1047  0.2035  0.3476
  124MOL0     C16276   3.980   1.037   3.193 -0.2919 -0.2306  0.2226
  124MOL0     C16277   3.868   1.096   3.279 -1.0680 -0.2817  0.4098
  124MOL0     C16278   3.729   1.080   3.234  0.2838  1.0753  0.3437
  124MOL0     C16279   3.637   1.116   3.342 -0.0382 -0.6693  0.0004
  124MOL0    Cl16280   3.464   1.094   3.285 -0.6052  0.7003 -0.4433
  124MOL0     C16281   4.832   0.946   3.139  0.3532 -0.2632 -0.2496
  124MOL0     C16282   4.948   0.899   3.090  0.5563 -0.0921  0.1664
  124MOL0     O16283   5.094   0.518   3.077  0.0969 -0.3530  0.5920
  124MOL0     C16284   5.293   0.667   2.811  0.1086 -0.2309  0.2997
  124MOL0     C16285   5.422   0.658   2.744  0.3017  0.6259  1.4997
  124MOL0     N16286   6.129   0.584   2.562 -0.3229  0.0280  0.5475
  124MOL0     N16287   6.217   0.674   2.601 -0.6394  1.4912 -0.6782
  124MOL0     C16288   7.084   1.135   2.457 -1.1128 -0.2184  0.5991
  124MOL0     C16289   7.208   1.102   2.516 -0.0883 -0.2834  0.0061
  124MOL0     C16290   7.574   0.848   2.628 -0.2592  0.2380 -0.7317
  124MOL0     C16291   7.646   0.970   2.640 -0.3699 -0.1425 -0.3668
  124MOL0     C16292   7.779   0.960   2.682  0.4696 -0.2367  0.4580
  124MOL0     C16293   7.849   0.838   2.700  0.4288  0.8804  0.7644
  124MOL0     O16294   7.974   0.825   2.763 -0.5697 -0.2935  0.3097
  124MOL0     C16295   8.046   0.941   2.818 -1.2193 -0.2379 -0.7086
  124MOL0     C16296   8.189   0.901   2.885 -0.1565 -0.1247 -0.7105
  124MOL0     C16297   8.159   0.793   2.989 -0.5461 -0.3148  0.2667
  124MOL0     C16298   8.281   0.744   3.068 -0.3315 -0.2425  0.4030
  124MOL0     C16299   8.340   0.621   3.010  0.1520  0.1620  0.6947
  124MOL0     C16300   8.409   0.517   2.985 -0.2612 -0.4220  0.3343
  124MOL0     C16301   7.782   0.727   2.648 -0.8477  0.9552  0.1218
  124MOL0     C16302   7.649   0.728   2.613 -0.2239 -1.0475 -0.5525
  124MOL0     H16303   7.126   0.823   2.687  1.3310 -1.5022 -2.1957
  124MOL0     H16304   6.894   0.893   2.593 -0.3340  1.2799 -0.2692
  124MOL0     H16305   6.870   1.076   2.227 -0.5745 -0.1813  0.1328
  124MOL0     H16306   6.874   1.237   2.287 -2.9372  2.5055  1.6692
  124MOL0     H16307   6.621   1.074   2.279 -1.2328  0.6928  3.4884
  124MOL0     H16308   6.680   1.209   2.166 -6.4350 -2.3985 -1.3815
  124MOL0     H16309   6.683   1.358   2.355  2.3349 -1.4250  0.7207
  124MOL0     H16310   6.622   1.232   2.463 -1.9382 -2.3652 -0.5712
  124MOL0     H16311   6.432   1.363   2.424  0.9034 -0.6172  0.5038
  124MOL0     H16312   6.453   1.372   2.258  1.7945 -1.1724 -1.8039
  124MOL0     H16313   6.400   1.124   2.237  0.5981 -1.0209  1.0595
  124MOL0     H16314   6.278   1.223   2.299 -0.1727 -1.6960 -1.3916
  124MOL0     H16315   6.310   1.169   2.539  0.4590  1.4838 -0.8803
  124MOL0     H16316   6.454   1.073   2.498  1.3976  1.4552 -2.1177
  124MOL0     H16317   6.174   1.019   2.390  0.5344  0.3907  0.2583
  124MOL0     H16318   6.324   0.919   2.372  0.2564 -0.4275 -0.1181
  124MOL0     H16319   6.175   0.985   2.637  2.2203  3.5642  0.0434
  124MOL0     H16320   6.322   0.900   2.637 -0.5073  1.7152  1.2790
  124MOL0     H16321   5.961   0.866   2.524 -2.0547 -0.0713  2.5905
  124MOL0     H16322   5.903   0.513   2.400  1.0632 -1.8557  1.5783
  124MOL0     H16323   5.798   0.628   2.505 -1.3089 -0.9529  2.4142
  124MOL0     H16324   5.882   0.472   2.696 -2.0440 -1.4367  1.1183
  124MOL0     H16325   5.965   0.391   2.578 -0.0664 -0.2347  0.4794
  124MOL0     H16326   5.710   0.398   2.459 -1.2152 -1.6613  0.2795
  124MOL0     H16327   5.782   0.269   2.563  0.8975  0.2431  0.8798
  124MOL0     H16328   5.688   0.331   2.762  2.3355  1.1026 -0.7634
  124MOL0     H16329   5.555   0.318   2.642  0.2101 -0.0106  0.7208
  124MOL0     H16330   5.544   0.402   2.919  0.7950  0.9492  0.1709
  124MOL0     H16331   5.346   0.433   3.042  1.1674 -1.6752 -1.5251
  124MOL0     H16332   4.853   0.587   3.021 -3.1082 -0.3499  0.0926
  124MOL0     H16333   4.630   0.674   3.109  0.3257 -0.8742 -1.9977
  124MOL0     H16334   4.445   0.841   3.128  0.3117  0.9104 -1.0630
  124MOL0     H16335   4.473   0.999   3.080  0.4973 -0.9012 -1.0915
  124MOL0     H16336   4.404   1.083   3.313 -1.5885 -0.0721  2.5308
  124MOL0     H16337   4.352   0.915   3.337  1.1634  1.8998  1.6825
  124MOL0     H16338   4.217   0.936   3.108  0.6820 -1.6061  1.1416
  124MOL0     H16339   4.232   1.107   3.123 -2.5080  0.0319 -0.5096
  124MOL0     H16340   4.099   0.938   3.332 -0.2798 -0.5069 -0.7592
  124MOL0     H16341   4.123   1.110   3.346  1.4780 -1.4467  1.9983
  124MOL0     H16342   3.952   0.935   3.164  0.6926 -0.4002 -0.1556
  124MOL0     H16343   3.994   1.094   3.101  0.8144  0.2813  0.6998
  124MOL0     H16344   3.889   1.198   3.311  2.2950 -0.3742 -1.0628
  124MOL0     H16345   3.879   1.046   3.377  1.9715  1.6323  1.1777
  124MOL0     H16346   3.716   1.151   3.152  4.0175  0.9128 -0.5838
  124MOL0     H16347   3.714   0.975   3.207 -0.7002  1.1989  0.3865
  124MOL0     H16348   3.634   1.225   3.353  0.3088 -0.6519 -0.0505
  124MOL0     H16349   3.659   1.064   3.435  2.9412 -0.9913 -0.7775
  124MOL0     H16350   4.845   1.044   3.182  0.5481 -0.2766 -0.2752
  124MOL0     H16351   5.035   0.963   3.075  1.3528 -0.9110  1.0879
  124MOL0     H16352   5.221   0.739   2.773  0.8002  0.2718 -0.0768
  124MOL0     H16353   5.443   0.720   2.657 -1.8222  1.5035  1.5582
  124MOL0     H16354   7.076   1.219   2.389  3.4260 -3.1073 -4.3274
  124MOL0     H16355   7.293   1.168   2.498  0.5281 -1.0046  0.2415
  124MOL0     H16356   7.591   1.063   2.652  1.2336  0.5279  2.7628
  124MOL0     H16357   7.826   1.054   2.707 -2.3745  2.7406 -4.0059
  124MOL0     H16358   7.984   1.003   2.884 -3.5783 -2.5706 -0.6004
  124MOL0     H16359   8.069   1.008   2.735 -1.5223  3.2682  1.7910
  124MOL0     H16360   8.246   0.855   2.804 -1.9572 -0.7939 -1.6677
  124MOL0     H16361   8.233   0.988   2.933 -2.9068  0.2887  1.3523
  124MOL0     H16362   8.096   0.710   2.957 -0.0599 -2.0133  3.3054
  124MOL0     H16363   8.095   0.845   3.062 -1.3482  0.0927 -0.7029
  124MOL0     H16364   8.358   0.822   3.065 -0.4880 -0.0988  0.1550
  124MOL0     H16365   8.261   0.719   3.172 -2.1995  0.4769  0.2448
  124MOL0     H16366   8.471   0.430   2.980  2.4831  0.7313  5.9980
  124MOL0     H16367   7.843   0.637   2.647 -3.0280 -0.5938 -0.6062
  124MOL0     H16368   7.601   0.636   2.582 -0.2554 -1.7140  1.3870
  125MOL0     O16369   8.143   0.491   1.430 -0.1053 -0.9153  0.6163
  125MOL0     C16370   8.149   0.435   1.537 -0.5930  0.7999 -0.6972
  125MOL0     O16371   8.044   0.395   1.619  0.3485  0.2408  0.6310
  125MOL0     C16372   7.911   0.389   1.569 -1.5689  0.3788  0.0611
  125MOL0     C16373   7.803   0.437   1.650 -0.3488  0.2199 -0.6771
  125MOL0     C16374   7.670   0.437   1.611  0.0687 -0.7568 -0.3305
  125MOL0     C16375   7.638   0.394   1.474  0.0173 -0.0762 -1.1671
  125MOL0     O16376   7.509   0.394   1.434 -0.5734  0.8115  0.8686
  125MOL0     C16377   7.453   0.512   1.387 -0.2051  0.5665 -0.0220
  125MOL0     C16378   7.312   0.492   1.342 -0.9812 -1.0003 -0.8405
  125MOL0     C16379   7.225   0.433   1.457 -0.3743  0.6194  0.6225
  125MOL0     C16380   7.081   0.430   1.428 -0.7837  0.1936  0.6771
  125MOL0     C16381   7.000   0.385   1.542  0.4337 -0.1036  0.1090
  125MOL0     C16382   6.854   0.424   1.542 -0.2752 -0.3757  0.2395
  125MOL0     C16383   6.789   0.343   1.646  0.0450  0.8121  1.0783
  125MOL0     C16384   6.634   0.352   1.653  0.2621 -0.1994  0.0292
  125MOL0     N16385   6.581   0.483   1.694 -0.0458  0.4043  0.8411
  125MOL0     C16386   6.562   0.524   1.825  1.0851 -0.4629 -0.0242
  125MOL0     C16387   6.509   0.642   1.807 -0.3751 -0.0480 -0.5565
  125MOL0     C16388   6.473   0.738   1.918  0.2792 -0.4562  0.2491
  125MOL0     C16389   6.364   0.691   2.003  0.8760  0.3505  0.4547
  125MOL0     C16390   6.295   0.818   2.065  0.9126  0.1887 -0.1335
  125MOL0     C16391   6.160   0.792   2.141 -0.8104  0.3841 -0.9123
  125MOL0     O16392   6.097   0.907   2.189  0.0161  0.0571 -0.2462
  125MOL0     C16393   5.963   0.894   2.221 -0.4622  0.1622  0.4100
  125MOL0     C16394   5.891   0.773   2.218  0.9378  0.3319  0.1653
  125MOL0     C16395   5.756   0.774   2.248 -0.1505  0.6989  0.4783
  125MOL0     C16396   5.689   0.894   2.293 -0.0459  0.5668 -0.2277
  125MOL0     C16397   5.552   0.876   2.338  0.8101 -0.2467 -0.0201
  125MOL0     O16398   5.496   0.753   2.331 -0.6164  0.6966  0.3506
  125MOL0     C16399   5.366   0.730   2.373 -0.6809 -0.2346 -0.2524
  125MOL0     C16400   5.260   0.821   2.372  0.5814  0.6083  0.0993
  125MOL0     C16401   5.139   0.783   2.424  0.5154  0.8455 -0.4975
  125MOL0     C16402   5.110   0.657   2.461  0.3815  0.4696 -1.5474
  125MOL0     O16403   4.988   0.612   2.512  0.3724  0.2345 -0.2520
  125MOL0     C16404   4.884   0.702   2.527  0.2335  0.7351 -0.0305
  125MOL0     C16405   4.765   0.636   2.607  0.5689 -0.3629 -0.2687
  125MOL0     C16406   4.684   0.754   2.662 -0.8573 -0.0896  0.0666
  125MOL0     C16407   4.547   0.700   2.718  0.2779 -0.3808 -0.0389
  125MOL0     C16408   4.439   0.806   2.747  0.0456 -0.1717  1.2305
  125MOL0     C16409   4.303   0.742   2.784 -0.1481  0.0059 -0.1734
  125MOL0     C16410   4.208   0.854   2.786  0.2160  0.5922  0.5538
  125MOL0     C16411   4.071   0.805   2.843 -0.0247 -0.0961  0.2096
  125MOL0    Cl16412   4.082   0.737   3.010 -0.1662  0.0952  0.1044
  125MOL0     C16413   5.216   0.560   2.460  0.4572 -0.3442  0.6453
  125MOL0     C16414   5.341   0.596   2.414 -0.1763 -0.1450 -0.0069
  125MOL0     O16415   5.488   0.969   2.378 -0.5796  0.0281  0.3491
  125MOL0     C16416   5.763   1.012   2.295 -0.0950 -0.5668  1.0725
  125MOL0     C16417   5.901   1.008   2.255  0.2987  0.0703  0.2165
  125MOL0     N16418   6.478   0.667   1.679  0.1970  1.5034 -0.2832
  125MOL0     N16419   6.519   0.568   1.603 -0.5154 -0.2073 -0.1426
  125MOL0     C16420   7.745   0.355   1.396 -0.2727 -0.2695  0.5787
  125MOL0     C16421   7.878   0.346   1.438 -0.0360  0.7794  0.1452
  125MOL0     C16422   8.274   0.396   1.602  0.9245 -0.0032  0.5919
  125MOL0     C16423   8.287   0.346   1.734  0.3684 -0.3551 -0.3427
  125MOL0     C16424   8.410   0.304   1.782  0.0423 -0.3791 -1.0414
  125MOL0     C16425   8.519   0.308   1.694 -0.1042 -0.5843 -0.0558
  125MOL0     O16426   8.634   0.245   1.724  0.3630  0.1132 -0.3967
  125MOL0     C16427   8.664   0.167   1.841 -0.3043  0.0661 -0.0368
  125MOL0     C16428   8.781   0.081   1.821  0.4531 -0.6546  0.3953
  125MOL0     C16429   8.912   0.156   1.831 -0.2758  0.6769 -0.1147
  125MOL0     C16430   9.032   0.063   1.834  0.0221  0.2426 -0.1691
  125MOL0     C16431   9.151   0.142   1.864  0.4198  0.1645 -0.1349
  125MOL0     C16432   9.248   0.207   1.897 -0.5529 -0.0013  0.8361
  125MOL0     C16433   8.517   0.372   1.575 -0.5072 -0.1578 -0.1096
  125MOL0     C16434   8.397   0.410   1.523  0.8611 -0.2104 -0.3667
  125MOL0     H16435   7.835   0.457   1.751  1.5550 -0.5008 -1.0898
  125MOL0     H16436   7.593   0.462   1.683 -0.0937  1.2872 -1.1329
  125MOL0     H16437   7.511   0.559   1.307 -0.8292  2.8306  0.7687
  125MOL0     H16438   7.458   0.584   1.469  2.1220 -0.1791  0.5797
  125MOL0     H16439   7.320   0.432   1.251  1.9650 -0.5284 -0.9964
  125MOL0     H16440   7.274   0.593   1.323 -1.6280 -1.0114  0.3092
  125MOL0     H16441   7.245   0.477   1.555 -0.6196 -0.7407  1.3087
  125MOL0     H16442   7.266   0.332   1.466 -1.1780  0.2128 -0.0920
  125MOL0     H16443   7.058   0.535   1.407 -1.7679  0.2655  2.0103
  125MOL0     H16444   7.069   0.372   1.336  0.2663  1.2842 -0.1774
  125MOL0     H16445   7.038   0.435   1.632 -2.2969  0.3950  1.0851
  125MOL0     H16446   7.012   0.278   1.562 -0.2258 -0.3915 -0.9708
  125MOL0     H16447   6.809   0.395   1.446  0.7910 -0.9299 -0.1021
  125MOL0     H16448   6.843   0.530   1.564 -0.2024 -0.3766  0.2803
  125MOL0     H16449   6.808   0.235   1.640 -0.1002  0.6872  2.4300
  125MOL0     H16450   6.839   0.377   1.737  3.1318 -0.4377 -0.0053
  125MOL0     H16451   6.606   0.269   1.718  0.6019 -0.0778  0.3333
  125MOL0     H16452   6.580   0.329   1.561 -2.0316  4.2568 -0.0246
  125MOL0     H16453   6.577   0.478   1.922  2.7123  0.3124  0.1177
  125MOL0     H16454   6.444   0.831   1.868  2.4107 -0.9991 -2.2220
  125MOL0     H16455   6.560   0.752   1.982  0.6929 -3.2569  0.4070
  125MOL0     H16456   6.398   0.617   2.076 -0.8606 -0.7520  0.2102
  125MOL0     H16457   6.298   0.647   1.928  3.2248  1.0790 -2.1829
  125MOL0     H16458   6.368   0.873   2.125  2.1604 -3.7024  2.2550
  125MOL0     H16459   6.257   0.876   1.980  0.4671 -1.2994 -0.9842
  125MOL0     H16460   6.172   0.719   2.221 -1.7874 -0.6182 -1.6521
  125MOL0     H16461   6.100   0.734   2.071 -0.0900 -1.9362  0.3069
  125MOL0     H16462   5.937   0.679   2.192  0.3683  0.3503 -0.9686
  125MOL0     H16463   5.707   0.678   2.249  2.0243 -0.5049  2.2827
  125MOL0     H16464   5.267   0.925   2.343 -2.2112  0.5982 -0.8457
  125MOL0     H16465   5.058   0.850   2.450  0.4519  1.9618 -3.1747
  125MOL0     H16466   4.856   0.743   2.430  0.0448 -1.5027 -0.9696
  125MOL0     H16467   4.925   0.784   2.587  0.4277  1.6812 -1.4083
  125MOL0     H16468   4.800   0.566   2.684 -2.8982 -2.1666 -0.1575
  125MOL0     H16469   4.701   0.584   2.535 -0.0318 -0.1066  0.0800
  125MOL0     H16470   4.665   0.834   2.590  2.5463 -1.3718 -2.5129
  125MOL0     H16471   4.735   0.804   2.745  0.1950  2.9802 -2.2581
  125MOL0     H16472   4.502   0.625   2.651 -0.9889  0.6718 -0.4231
  125MOL0     H16473   4.563   0.652   2.814 -4.3723  1.0829  1.7729
  125MOL0     H16474   4.440   0.855   2.649  3.6533 -2.9632 -0.3954
  125MOL0     H16475   4.473   0.873   2.826 -0.4854 -0.0649  1.3741
  125MOL0     H16476   4.321   0.683   2.874  0.5722 -0.8379 -0.8485
  125MOL0     H16477   4.272   0.665   2.713 -0.0754 -1.1874  1.0463
  125MOL0     H16478   4.245   0.943   2.837  0.1084  2.1878 -1.9998
  125MOL0     H16479   4.198   0.885   2.682 -1.7843  0.0438  0.5298
  125MOL0     H16480   4.009   0.734   2.788 -0.3229 -1.1552  1.8172
  125MOL0     H16481   4.018   0.900   2.838  1.3024  0.5863 -2.6285
  125MOL0     H16482   5.194   0.457   2.486  2.0697 -0.7770  0.4198
  125MOL0     H16483   5.419   0.522   2.400  1.7924  1.9060 -0.3110
  125MOL0     H16484   5.712   1.107   2.311  0.6015  0.0355 -0.1249
  125MOL0     H16485   5.954   1.103   2.253 -1.0744  0.9053  1.5455
  125MOL0     H16486   7.727   0.322   1.295 -1.4908 -0.3132  0.7920
  125MOL0     H16487   7.951   0.307   1.368 -2.4749 -0.2484 -1.9647
  125MOL0     H16488   8.206   0.348   1.806 -1.2098  1.8743 -2.0517
  125MOL0     H16489   8.427   0.261   1.880  2.7198 -6.2844 -3.6176
  125MOL0     H16490   8.577   0.101   1.839 -0.2808  0.0475 -0.4743
  125MOL0     H16491   8.675   0.226   1.932 -0.2170  2.3592 -1.4642
  125MOL0     H16492   8.786   0.005   1.899 -1.9342 -0.7376  0.5222
  125MOL0     H16493   8.779   0.017   1.733 -1.2603 -2.3383  1.5822
  125MOL0     H16494   8.905   0.218   1.921 -1.6352  0.4923 -0.0616
  125MOL0     H16495   8.930   0.221   1.744  2.3771  0.4833  0.2096
  125MOL0     H16496   9.001  -0.000   1.918 -1.3166  1.0637 -0.0156
  125MOL0     H16497   9.035  -0.001   1.745 -3.0661  1.0966 -1.0067
  125MOL0     H16498   9.336   0.260   1.927  0.8694 -1.8028  0.0457
  125MOL0     H16499   8.605   0.398   1.517 -0.7409  1.7836  0.3275
  125MOL0     H16500   8.395   0.441   1.419 -0.7259 -0.2973 -0.3882
  126MOL0     O16501   9.293   8.034   1.096 -0.0322 -0.5427 -0.0418
  126MOL0     C16502   9.274   8.146   1.038 -0.9660 -0.9198 -0.3061
  126MOL0     O16503   9.176   8.246   1.050 -0.0917  0.6708 -0.4821
  126MOL0     C16504   9.073   8.241   1.144  0.9521  0.2604  0.4666
  126MOL0     C16505   9.091   8.181   1.271  0.2343  0.2475 -0.3636
  126MOL0     C16506   8.986   8.174   1.359 -0.0322  0.1495  0.4239
  126MOL0     C16507   8.859   8.233   1.324  0.2108  0.0835 -0.0946
  126MOL0     O16508   8.753   8.224   1.411 -0.0135 -0.1115 -0.3000
  126MOL0     C16509   8.781   8.195   1.552  0.6992 -0.8652  0.3245
  126MOL0     C16510   8.658   8.250   1.618 -0.3116  0.3468  0.2117
  126MOL0     C16511   8.548   8.137   1.619 -1.1948 -1.0276  0.7443
  126MOL0     C16512   8.429   8.197   1.695  0.2595 -0.1678 -0.0082
  126MOL0     C16513   8.310   8.106   1.684  0.0884 -0.5301  0.1155
  126MOL0     C16514   8.201   8.158   1.778  0.2378 -0.2880  0.4497
  126MOL0     C16515   8.078   8.059   1.791  0.2690 -0.1941  0.4928
  126MOL0     C16516   7.962   8.125   1.860 -0.3825  0.0767 -0.5041
  126MOL0     N16517   7.840   8.042   1.884 -0.0235  0.0948  0.7918
  126MOL0     C16518   7.748   7.999   1.792  0.4459  0.4528 -0.1552
  126MOL0     C16519   7.637   7.947   1.852 -0.4793  0.0395  0.0298
  126MOL0     C16520   7.507   7.908   1.783  0.1385  0.1632 -0.0014
  126MOL0     C16521   7.412   8.027   1.750 -0.2224  0.0365  1.0066
  126MOL0     C16522   7.270   8.002   1.705 -0.2235  0.4824  0.1958
  126MOL0     C16523   7.201   8.120   1.636  0.3160  0.4295 -0.2609
  126MOL0     O16524   7.079   8.082   1.566 -1.0346 -0.4926  0.1013
  126MOL0     C16525   6.969   8.038   1.640 -0.8438 -0.2418 -0.8457
  126MOL0     C16526   6.850   7.996   1.579  0.4338  0.2114 -0.5922
  126MOL0     C16527   6.734   7.953   1.647 -0.3253  0.0821 -0.7101
  126MOL0     C16528   6.728   7.970   1.788  0.0908  0.3390  0.2572
  126MOL0     C16529   6.615   7.919   1.851 -0.0446 -0.0886 -0.7277
  126MOL0     O16530   6.492   7.904   1.790 -0.0697 -0.2675  0.8405
  126MOL0     C16531   6.383   7.854   1.854  0.0071 -0.2404 -0.5246
  126MOL0     C16532   6.256   7.901   1.811 -0.1182  1.2609 -0.7600
  126MOL0     C16533   6.142   7.847   1.873  0.4095 -0.7453 -0.1441
  126MOL0     C16534   6.149   7.745   1.962  0.5245  0.6903  0.6090
  126MOL0     O16535   6.024   7.704   2.010  0.0415 -0.5782 -0.4667
  126MOL0     C16536   6.017   7.633   2.141 -0.2908 -0.9620 -0.7337
  126MOL0     C16537   5.871   7.654   2.189  0.1066  0.0878 -0.0344
  126MOL0     C16538   5.833   7.797   2.219  0.4521 -0.0598 -0.2046
  126MOL0     C16539   5.844   7.903   2.104 -0.7368  0.9052  0.0978
  126MOL0     C16540   5.762   8.034   2.113  0.2717  0.1305 -0.6093
  126MOL0     C16541   5.618   8.022   2.084 -0.2251  0.7079  0.3415
  126MOL0     C16542   5.544   8.158   2.072 -0.2840 -0.1313 -0.4864
  126MOL0     C16543   5.395   8.133   2.056 -0.8483  0.2360  0.5639
  126MOL0    Cl16544   5.327   8.069   2.207 -0.5778 -0.2472 -0.3124
  126MOL0     C16545   6.278   7.688   1.986  0.3213  1.0740  0.9220
  126MOL0     C16546   6.385   7.747   1.945  0.7482 -0.2418  0.0213
  126MOL0     O16547   6.650   7.866   1.965 -0.2733 -0.4643  0.3460
  126MOL0     C16548   6.845   8.007   1.849 -0.2509 -0.3468  0.1043
  126MOL0     C16549   6.962   8.041   1.785 -0.2493 -0.2407 -0.0861
  126MOL0     N16550   7.672   7.957   1.990 -0.4025 -0.7744  0.9035
  126MOL0     N16551   7.797   8.010   2.004  0.6213  0.4820  0.0192
  126MOL0     C16552   8.848   8.283   1.194 -0.4907 -1.1463  0.5283
  126MOL0     C16553   8.953   8.295   1.111  1.1224 -0.1764  0.3555
  126MOL0     C16554   9.392   8.175   0.958  0.6014 -0.1957 -0.2113
  126MOL0     C16555   9.395   8.288   0.871 -0.4715  0.4178 -0.3691
  126MOL0     C16556   9.507   8.326   0.799  0.5352  1.0310 -0.6464
  126MOL0     C16557   9.627   8.243   0.803  0.2162  0.3863 -0.3790
  126MOL0     O16558   9.748   8.269   0.746 -0.6461  0.1890  0.0603
  126MOL0     C16559   9.756   8.361   0.634 -0.0943  0.2757 -0.4024
  126MOL0     C16560   9.682   8.311   0.517  0.0603 -1.0354  0.0162
  126MOL0     C16561   9.746   8.176   0.469 -0.4668 -1.1620  0.5153
  126MOL0     C16562   9.670   8.123   0.350  0.8244 -0.6402 -0.4898
  126MOL0     C16563   9.705   7.985   0.323 -0.0757 -0.5729  0.7869
  126MOL0     C16564   9.734   7.868   0.301  0.5307 -0.1572 -0.1881
  126MOL0     C16565   9.627   8.131   0.886  0.9860  0.6397  0.0429
  126MOL0     C16566   9.512   8.092   0.959  0.8062 -0.3353 -0.0501
  126MOL0     H16567   9.190   8.149   1.300 -0.3592  0.7227  2.5612
  126MOL0     H16568   9.016   8.121   1.449  1.0683 -0.0644 -0.0428
  126MOL0     H16569   8.863   8.256   1.591  0.4900 -1.1267  1.1830
  126MOL0     H16570   8.802   8.090   1.572  0.1606 -0.4361  3.6113
  126MOL0     H16571   8.625   8.343   1.572  5.0408  2.1664 -0.7365
  126MOL0     H16572   8.685   8.269   1.722 -0.7441 -0.7678  0.5393
  126MOL0     H16573   8.578   8.041   1.663 -3.6730 -1.6851  1.1255
  126MOL0     H16574   8.521   8.124   1.514 -0.7029  0.6203  0.3811
  126MOL0     H16575   8.447   8.221   1.801  1.0966 -3.1400  0.6091
  126MOL0     H16576   8.401   8.289   1.642 -3.3382 -1.2520 -0.2213
  126MOL0     H16577   8.333   8.004   1.714 -1.6293 -0.0738  3.4483
  126MOL0     H16578   8.273   8.097   1.582  0.7456 -4.1088  0.0772
  126MOL0     H16579   8.171   8.261   1.758  0.0437  0.3684  3.5691
  126MOL0     H16580   8.251   8.159   1.875  0.6409 -1.4334  0.2642
  126MOL0     H16581   8.037   8.036   1.692 -0.8695  0.6160  0.7544
  126MOL0     H16582   8.102   7.962   1.835 -0.6800 -0.5857  0.1591
  126MOL0     H16583   7.930   8.209   1.799  0.6083  2.3096  1.8617
  126MOL0     H16584   7.996   8.161   1.958 -0.4161  0.7356 -0.7316
  126MOL0     H16585   7.749   8.007   1.684  0.2291  0.3020 -0.1689
  126MOL0     H16586   7.472   7.820   1.837  2.7990 -1.2989 -0.4903
  126MOL0     H16587   7.531   7.861   1.687 -3.1738  1.2964 -1.5425
  126MOL0     H16588   7.462   8.087   1.673 -1.4619  1.3123  1.1483
  126MOL0     H16589   7.407   8.104   1.828  0.1598  2.0512 -0.8404
  126MOL0     H16590   7.267   7.922   1.631  1.1322  2.0360 -1.6473
  126MOL0     H16591   7.210   7.971   1.791 -1.7092 -0.3442 -1.0897
  126MOL0     H16592   7.267   8.161   1.559  1.9374 -0.8564  0.4112
  126MOL0     H16593   7.188   8.202   1.707 -1.0359 -2.0688  2.6122
  126MOL0     H16594   6.847   8.004   1.470  0.2341 -1.8522 -0.7692
  126MOL0     H16595   6.651   7.905   1.596 -0.9614  0.9882 -0.5389
  126MOL0     H16596   6.242   7.990   1.751 -1.7428  1.8545  0.4170
  126MOL0     H16597   6.043   7.886   1.849 -0.0565 -1.5686  0.4130
  126MOL0     H16598   6.080   7.667   2.224 -4.7221 -1.2609  3.2009
  126MOL0     H16599   6.036   7.530   2.110 -2.4764 -2.1086  1.4455
  126MOL0     H16600   5.847   7.596   2.278 -1.3893  0.4034 -0.2014
  126MOL0     H16601   5.805   7.604   2.117 -1.7797  0.4069  1.4037
  126MOL0     H16602   5.891   7.829   2.306 -2.5145  3.6497  0.6712
  126MOL0     H16603   5.726   7.796   2.244 -0.1341 -0.5332 -2.4781
  126MOL0     H16604   5.950   7.927   2.109 -0.8299  1.0686  3.7580
  126MOL0     H16605   5.831   7.860   2.004  1.2304  0.8370 -0.1641
  126MOL0     H16606   5.794   8.114   2.045 -0.5083  1.2079  0.2734
  126MOL0     H16607   5.775   8.064   2.217  1.7847 -3.7339  0.4959
  126MOL0     H16608   5.571   7.967   2.166 -0.0729  0.8398  0.5161
  126MOL0     H16609   5.607   7.955   1.998 -1.0152 -0.4572  1.3046
  126MOL0     H16610   5.573   8.220   2.157  3.3329 -2.4938  0.2504
  126MOL0     H16611   5.576   8.207   1.980 -0.9584 -3.7044 -2.8233
  126MOL0     H16612   5.390   8.058   1.977 -1.4337 -0.1404  0.9553
  126MOL0     H16613   5.347   8.226   2.022 -0.2475  0.4854  0.3754
  126MOL0     H16614   6.290   7.594   2.040  1.4004 -0.0792 -1.1915
  126MOL0     H16615   6.476   7.694   1.970  1.2311 -0.8799 -2.7106
  126MOL0     H16616   6.839   8.018   1.957  0.4882 -1.7701  0.2987
  126MOL0     H16617   7.042   8.089   1.841 -1.8968  0.9949  1.3220
  126MOL0     H16618   8.758   8.324   1.148  1.6860  4.1004  0.3123
  126MOL0     H16619   8.943   8.352   1.019 -0.0067 -0.6373  0.1779
  126MOL0     H16620   9.320   8.365   0.855 -1.2481 -0.2579 -0.0281
  126MOL0     H16621   9.503   8.419   0.742 -1.2754  1.2397 -0.2556
  126MOL0     H16622   9.860   8.379   0.603 -0.4568  1.6504 -0.8990
  126MOL0     H16623   9.726   8.461   0.664  0.9561  0.6703 -0.6298
  126MOL0     H16624   9.575   8.291   0.525 -0.8487  1.8304 -2.7256
  126MOL0     H16625   9.687   8.396   0.448 -3.9233  4.6895  5.6750
  126MOL0     H16626   9.735   8.103   0.551 -0.6126  0.6712  2.2080
  126MOL0     H16627   9.851   8.189   0.440 -0.6782 -1.0151 -0.1791
  126MOL0     H16628   9.561   8.127   0.354  0.5098 -0.7233 -4.6023
  126MOL0     H16629   9.694   8.182   0.261  1.5385 -2.6971 -1.7446
  126MOL0     H16630   9.754   7.765   0.278 -1.6806 -0.3159 -1.7751
  126MOL0     H16631   9.721   8.077   0.882  0.8523  0.4515 -1.3074
  126MOL0     H16632   9.522   8.009   1.029  1.2046  2.2961  3.3205
  127MOL0     O16633   4.246  10.087   2.402  0.0144 -0.2121 -0.2286
  127MOL0     C16634   4.277  10.111   2.516 -0.0095  0.2389  0.7437
  127MOL0     O16635   4.189  10.132   2.622  0.7264  0.4073  0.5514
  127MOL0     C16636   4.065  10.071   2.606 -0.4914  0.0269  0.0043
  127MOL0     C16637   3.957  10.144   2.547 -0.3841 -0.4216 -1.0684
  127MOL0     C16638   3.837  10.085   2.535  0.7113 -0.3026  0.1673
  127MOL0     C16639   3.807   9.956   2.591 -0.1270 -0.6572 -0.9537
  127MOL0     O16640   3.689   9.886   2.579 -0.0337 -0.7946 -0.6968
  127MOL0     C16641   3.601   9.934   2.472  0.1138  0.4909 -0.3774
  127MOL0     C16642   3.490   9.828   2.451  0.2091 -0.4886  0.5530
  127MOL0     C16643   3.374   9.908   2.391 -0.1106 -0.5866  0.0716
  127MOL0     C16644   3.285   9.833   2.294  0.4743 -0.0179 -0.0516
  127MOL0     C16645   3.152   9.910   2.274 -0.2836  0.3766 -0.2480
  127MOL0     C16646   3.178  10.046   2.202  0.4141  0.3916  0.2427
  127MOL0     C16647   3.039  10.084   2.147 -0.5307 -1.0663  1.1220
  127MOL0     C16648   3.051  10.208   2.067  0.1929 -0.7774 -0.5756
  127MOL0     N16649   2.927  10.237   1.999  0.5098 -0.4246 -0.0622
  127MOL0     C16650   2.814  10.287   2.065 -0.3376 -0.3547 -0.4698
  127MOL0     C16651   2.711  10.283   1.982  0.0298 -0.6544  0.1766
  127MOL0     C16652   2.571  10.335   2.012 -0.8731 -0.2811 -0.3840
  127MOL0     C16653   2.495  10.253   2.113 -0.3586  0.1291  0.1702
  127MOL0     C16654   2.363  10.316   2.155  0.3398 -0.7701  0.5364
  127MOL0     C16655   2.249  10.265   2.066  0.1923 -0.1962  0.1576
  127MOL0     O16656   2.230  10.355   1.956 -0.6671  1.3316 -0.2762
  127MOL0     C16657   2.102  10.345   1.900 -0.4169  0.1308 -0.8752
  127MOL0     C16658   2.031  10.219   1.897 -0.1588 -0.3377 -0.5174
  127MOL0     C16659   1.906  10.208   1.843 -0.7613 -0.6875 -1.2790
  127MOL0     C16660   1.854  10.323   1.780 -0.2350 -0.2617  0.3458
  127MOL0     C16661   1.721  10.314   1.714  1.4866 -0.8259 -0.5116
  127MOL0     O16662   1.703  10.394   1.600 -0.3424 -0.3287 -0.1103
  127MOL0     C16663   1.585  10.396   1.525  0.7638 -0.4652 -0.9645
  127MOL0     C16664   1.456  10.341   1.562  0.2313  0.0379  0.4068
  127MOL0     C16665   1.350  10.350   1.470 -0.3993 -0.1234 -0.5580
  127MOL0     C16666   1.364  10.416   1.346  0.9116  0.7562  0.0833
  127MOL0     O16667   1.267  10.425   1.248 -0.6777  0.3396  0.1036
  127MOL0     C16668   1.134  10.438   1.293  0.4986  0.2600 -0.4735
  127MOL0     C16669   1.057  10.309   1.265 -1.2318 -0.2693 -0.4283
  127MOL0     C16670   0.903  10.344   1.252 -0.5408  0.6017  0.0596
  127MOL0     C16671   0.849  10.446   1.355 -0.2222  0.2621  0.1305
  127MOL0     C16672   0.703  10.492   1.344 -0.7664 -0.2163 -0.2378
  127MOL0     C16673   0.665  10.578   1.226 -0.0854  0.8790 -0.0731
  127MOL0     C16674   0.522  10.614   1.238 -1.1389  0.0741  0.1963
  127MOL0     C16675   0.469  10.711   1.136  0.0898 -0.0580  0.3064
  127MOL0    Cl16676   0.507  10.672   0.967  0.3366 -0.0697 -0.1538
  127MOL0     C16677   1.486  10.469   1.315 -0.8435 -0.0667  0.0228
  127MOL0     C16678   1.597  10.447   1.392 -0.8719 -0.4357 -0.2559
  127MOL0     O16679   1.631  10.240   1.764  0.4617 -0.3894  0.5945
  127MOL0     C16680   1.934  10.444   1.763  0.4197  1.2745 -0.7159
  127MOL0     C16681   2.055  10.453   1.830  0.6764  0.4480  1.3940
  127MOL0     N16682   2.760  10.217   1.865  1.5279 -0.1969  0.4235
  127MOL0     N16683   2.885  10.191   1.878 -0.5172  0.7336  0.5209
  127MOL0     C16684   3.905   9.895   2.669  0.4837 -0.1999 -0.2439
  127MOL0     C16685   4.032   9.954   2.676 -1.2478  0.1980  0.0909
  127MOL0     C16686   4.425  10.121   2.544  0.0335 -0.2344  0.0687
  127MOL0     C16687   4.465  10.196   2.653 -0.0985 -0.2589  0.1727
  127MOL0     C16688   4.601  10.205   2.684 -0.0116 -0.0490 -0.3393
  127MOL0     C16689   4.695  10.136   2.617  0.1287  1.0356  1.2828
  127MOL0     O16690   4.817  10.128   2.682  0.6980  0.7783 -0.6058
  127MOL0     C16691   4.918  10.035   2.638  0.4902 -0.0472 -0.3275
  127MOL0     C16692   5.040  10.029   2.727  0.5574  0.1391  0.4654
  127MOL0     C16693   5.114  10.166   2.707  0.1789  1.1455 -0.1290
  127MOL0     C16694   5.234  10.177   2.803  0.1962 -0.4806  0.8037
  127MOL0     C16695   5.193  10.182   2.942  0.4044 -0.1781 -0.7730
  127MOL0     C16696   5.165  10.195   3.056 -0.3728 -0.2447 -0.7066
  127MOL0     C16697   4.662  10.064   2.504  0.5182 -0.4164 -0.0621
  127MOL0     C16698   4.527  10.049   2.473  0.4784  0.4295 -0.6857
  127MOL0     H16699   3.967  10.249   2.521 -1.6462 -0.0879 -0.2544
  127MOL0     H16700   3.756  10.146   2.496  2.1652  0.6072 -1.5316
  127MOL0     H16701   3.649   9.957   2.377  0.3063  0.0361 -0.3895
  127MOL0     H16702   3.550  10.025   2.506  0.2947 -0.3097  2.2978
  127MOL0     H16703   3.451   9.787   2.545 -0.0213 -1.9461 -0.1422
  127MOL0     H16704   3.519   9.750   2.380 -0.5116  0.2139 -0.5492
  127MOL0     H16705   3.416   9.986   2.328 -1.0469 -1.7825 -2.1358
  127MOL0     H16706   3.314   9.954   2.470 -1.7437 -0.8511 -0.9561
  127MOL0     H16707   3.334   9.806   2.200  0.4410 -2.9230  0.6674
  127MOL0     H16708   3.259   9.735   2.335  2.0255 -0.8841 -1.0367
  127MOL0     H16709   3.121   9.924   2.378  1.7726 -1.4203  0.6807
  127MOL0     H16710   3.080   9.846   2.222  0.3312  0.5776 -1.3841
  127MOL0     H16711   3.255  10.026   2.127  1.1939 -0.4631  1.2497
  127MOL0     H16712   3.213  10.123   2.272  0.8667 -2.0933  2.9535
  127MOL0     H16713   2.986  10.013   2.083 -3.1295  1.6414  0.0297
  127MOL0     H16714   2.974  10.107   2.231  1.9101  3.0522  2.1844
  127MOL0     H16715   3.123  10.195   1.985  0.0263 -1.0017 -0.6889
  127MOL0     H16716   3.075  10.297   2.126  1.3807 -0.7428 -1.0891
  127MOL0     H16717   2.808  10.311   2.170  0.7109 -0.8575 -0.2868
  127MOL0     H16718   2.515  10.339   1.918  0.4977 -0.7293 -1.2342
  127MOL0     H16719   2.575  10.439   2.044  2.7605 -1.0034  2.0426
  127MOL0     H16720   2.558  10.244   2.201  2.7453  1.6201 -1.7291
  127MOL0     H16721   2.475  10.159   2.060  1.5185  0.8023 -1.8884
  127MOL0     H16722   2.332  10.294   2.257  0.4062 -0.1157  0.6978
  127MOL0     H16723   2.355  10.424   2.144 -2.9081 -0.6504  2.8697
  127MOL0     H16724   2.157  10.278   2.124  0.9240  0.4527  1.2115
  127MOL0     H16725   2.263  10.165   2.025 -1.0562  0.4273 -1.9300
  127MOL0     H16726   2.060  10.133   1.956 -0.1285 -0.9638 -1.4224
  127MOL0     H16727   1.852  10.115   1.856  1.0642 -1.3779  2.8534
  127MOL0     H16728   1.429  10.283   1.649 -0.2375 -1.7361 -0.8527
  127MOL0     H16729   1.255  10.309   1.501 -0.7509  1.0372 -0.0801
  127MOL0     H16730   1.104  10.523   1.231  1.3065 -1.5055 -3.5267
  127MOL0     H16731   1.128  10.466   1.398  0.4153  3.3561 -1.2094
  127MOL0     H16732   1.083  10.243   1.349  1.4882  3.1514  1.6686
  127MOL0     H16733   1.092  10.270   1.169  0.5158  0.8172 -0.2603
  127MOL0     H16734   0.841  10.255   1.268  1.6539 -0.9398  0.4532
  127MOL0     H16735   0.879  10.386   1.154 -0.5763  3.3864  1.1865
  127MOL0     H16736   0.854  10.395   1.452 -1.5353  1.6142  0.9520
  127MOL0     H16737   0.914  10.533   1.363  1.6393 -1.2487  4.6263
  127MOL0     H16738   0.691  10.550   1.437  2.8159 -1.1330  0.9412
  127MOL0     H16739   0.642  10.402   1.352 -1.1672 -0.0067 -0.8374
  127MOL0     H16740   0.677  10.520   1.134  2.9095  1.3229 -0.0699
  127MOL0     H16741   0.724  10.671   1.224  1.7692 -0.2056  0.9995
  127MOL0     H16742   0.454  10.528   1.233 -2.9983  1.5175 -1.0234
  127MOL0     H16743   0.507  10.660   1.336 -0.3571 -2.1839  1.4538
  127MOL0     H16744   0.483  10.816   1.160 -2.3037  0.6281 -0.9232
  127MOL0     H16745   0.360  10.694   1.133  0.4101 -2.4967  0.1039
  127MOL0     H16746   1.499  10.521   1.220  1.1246 -1.4353 -0.5291
  127MOL0     H16747   1.699  10.475   1.371 -0.8575  0.1960  0.5777
  127MOL0     H16748   1.895  10.526   1.704 -4.3402 -0.4106 -0.3785
  127MOL0     H16749   2.113  10.545   1.826  3.5901 -1.2959 -2.0973
  127MOL0     H16750   3.878   9.802   2.717 -0.9885 -0.6397 -1.8332
  127MOL0     H16751   4.111   9.906   2.733 -0.0557  3.4289  1.3795
  127MOL0     H16752   4.391  10.243   2.716 -0.9946 -2.8184  1.1638
  127MOL0     H16753   4.626  10.263   2.773 -1.4679  0.0461  0.0337
  127MOL0     H16754   4.940  10.044   2.531 -2.2946 -1.0342 -1.0783
  127MOL0     H16755   4.867   9.938   2.637 -2.9017  1.5519 -2.4810
  127MOL0     H16756   4.995  10.025   2.827  0.1370  0.3607  0.2895
  127MOL0     H16757   5.116   9.952   2.715  0.2297 -0.3872  1.5999
  127MOL0     H16758   5.044  10.248   2.726 -1.0053  0.3345 -0.8889
  127MOL0     H16759   5.153  10.166   2.605 -0.2162 -1.0906 -0.3116
  127MOL0     H16760   5.299  10.091   2.786  0.4420 -0.2214  0.4178
  127MOL0     H16761   5.293  10.266   2.778 -2.1686  1.6747  2.3968
  127MOL0     H16762   5.132  10.209   3.157  0.7312 -2.9808  0.1248
  127MOL0     H16763   4.734  10.002   2.452 -0.3407 -0.8021 -0.8148
  127MOL0     H16764   4.492   9.996   2.385  2.0714 -1.2696 -0.3650
  128MOL0     O16765   5.120   4.412   7.182 -0.5924  0.0222 -0.6935
  128MOL0     C16766   5.097   4.373   7.296  0.2665  0.5042  0.6930
  128MOL0     O16767   4.979   4.301   7.330 -1.1625 -0.6037  0.1575
  128MOL0     C16768   4.886   4.286   7.230 -0.3165  0.8370  0.2575
  128MOL0     C16769   4.831   4.160   7.237  0.3674  0.7973 -0.1192
  128MOL0     C16770   4.714   4.131   7.166  0.3005 -0.1102 -0.3476
  128MOL0     C16771   4.657   4.226   7.087 -0.3758 -0.5444  1.6096
  128MOL0     O16772   4.542   4.200   7.017 -0.3754 -0.0040 -0.5146
  128MOL0     C16773   4.424   4.275   7.056  0.3434 -0.2979  0.0454
  128MOL0     C16774   4.355   4.304   6.927  0.1989  0.1697 -0.4691
  128MOL0     C16775   4.212   4.347   6.974  0.2104 -0.5853  0.8789
  128MOL0     C16776   4.204   4.493   7.011 -0.1456 -0.0583  0.3507
  128MOL0     C16777   4.056   4.551   7.012  0.4552 -0.2589  0.4030
  128MOL0     C16778   4.021   4.630   6.884 -0.5798 -0.5030 -0.0953
  128MOL0     C16779   3.902   4.719   6.901 -0.1646 -0.9868 -0.6186
  128MOL0     C16780   3.783   4.652   6.830  0.2920 -0.8424  0.1877
  128MOL0     N16781   3.659   4.712   6.870  0.6207 -0.0618 -0.5451
  128MOL0     C16782   3.594   4.709   6.994 -0.9004 -0.3249 -0.0555
  128MOL0     C16783   3.478   4.776   6.978  0.9036  0.0278  0.0076
  128MOL0     C16784   3.364   4.805   7.067 -0.1758  0.3883  0.1194
  128MOL0     C16785   3.241   4.728   7.037  0.1383  1.3312 -0.9031
  128MOL0     C16786   3.256   4.577   7.023  0.3657  0.0574 -0.4414
  128MOL0     C16787   3.113   4.515   6.984 -1.0584 -0.3822 -0.6180
  128MOL0     O16788   3.074   4.551   6.850 -0.5786 -0.2264 -0.5326
  128MOL0     C16789   2.955   4.528   6.791  0.0518  0.8826 -0.4806
  128MOL0     C16790   2.843   4.477   6.852 -0.6446  0.8506  0.5833
  128MOL0     C16791   2.719   4.470   6.778  0.1012  0.0512  0.3735
  128MOL0     C16792   2.712   4.524   6.644 -0.3690  0.1278  0.4652
  128MOL0     C16793   2.592   4.514   6.566 -0.8099  0.6307  0.1367
  128MOL0     O16794   2.487   4.437   6.619  0.8772  0.2222 -0.3653
  128MOL0     C16795   2.373   4.422   6.553 -0.9057  0.3021 -0.0389
  128MOL0     C16796   2.309   4.304   6.549  0.2419  0.6395 -0.0078
  128MOL0     C16797   2.186   4.290   6.476 -0.2773 -0.0735  0.3465
  128MOL0     C16798   2.113   4.406   6.442  0.6365 -0.0346 -0.6013
  128MOL0     O16799   1.987   4.393   6.383 -0.2957 -0.2230 -0.2488
  128MOL0     C16800   1.984   4.459   6.249  0.5723 -0.1554 -0.8217
  128MOL0     C16801   1.922   4.374   6.145 -0.4605  0.1636 -0.1323
  128MOL0     C16802   1.772   4.355   6.171 -0.7034 -0.0968 -0.4398
  128MOL0     C16803   1.701   4.301   6.049  0.1579 -0.8999  0.1085
  128MOL0     C16804   1.759   4.172   5.999 -0.1680  0.9409 -0.0545
  128MOL0     C16805   1.776   4.058   6.095 -0.8151 -0.5634  0.7277
  128MOL0     C16806   1.791   3.916   6.017  0.4861  0.2289  0.1673
  128MOL0     C16807   1.920   3.888   5.933  0.2241  0.1967 -0.1274
  128MOL0    Cl16808   1.922   3.718   5.891 -0.3194  0.5320 -0.5393
  128MOL0     C16809   2.175   4.526   6.466 -0.1944 -0.0586 -1.3527
  128MOL0     C16810   2.309   4.535   6.510  0.0459 -0.0712  0.8382
  128MOL0     O16811   2.597   4.559   6.454 -0.2078 -0.2014 -0.4226
  128MOL0     C16812   2.828   4.576   6.584 -0.2254  0.0862 -0.2769
  128MOL0     C16813   2.948   4.580   6.660 -0.1918 -0.1837 -0.5050
  128MOL0     N16814   3.470   4.808   6.842  0.1577  0.1768 -0.2599
  128MOL0     N16815   3.577   4.765   6.783  0.0988  0.2834 -0.0321
  128MOL0     C16816   4.711   4.352   7.078  0.2684  0.4863  0.0622
  128MOL0     C16817   4.828   4.388   7.156  0.7265 -0.1324  0.4055
  128MOL0     C16818   5.206   4.385   7.391  0.4168 -0.3466  0.2225
  128MOL0     C16819   5.311   4.481   7.376  0.4074  0.2823  0.6421
  128MOL0     C16820   5.413   4.483   7.470  0.6211 -0.9202 -0.2185
  128MOL0     C16821   5.423   4.392   7.570  0.2723  0.6187 -0.9516
  128MOL0     O16822   5.515   4.380   7.670 -0.3908 -0.4969  0.1785
  128MOL0     C16823   5.613   4.490   7.690  1.0091  0.2944  0.6693
  128MOL0     C16824   5.713   4.450   7.797 -0.7988  0.2792  0.5706
  128MOL0     C16825   5.828   4.545   7.783  0.5769 -0.0296 -1.0128
  128MOL0     C16826   5.925   4.522   7.896  0.9598 -0.2597  0.1629
  128MOL0     C16827   6.038   4.610   7.894  0.3325 -0.1577 -0.6848
  128MOL0     C16828   6.136   4.679   7.872 -0.4441  0.2115  0.0223
  128MOL0     C16829   5.324   4.294   7.580  0.2064 -0.3667 -0.2379
  128MOL0     C16830   5.214   4.293   7.488 -0.4879  0.7618 -0.3819
  128MOL0     H16831   4.878   4.086   7.301 -2.6401  0.4815  1.9433
  128MOL0     H16832   4.666   4.034   7.174 -1.5803  0.8216  0.5837
  128MOL0     H16833   4.443   4.366   7.114 -0.2842 -0.1375 -0.0000
  128MOL0     H16834   4.365   4.203   7.113  1.3766 -1.7535 -0.6557
  128MOL0     H16835   4.345   4.211   6.871 -1.5715  0.5181 -0.7926
  128MOL0     H16836   4.396   4.381   6.861  1.1156 -0.1339 -0.2665
  128MOL0     H16837   4.177   4.277   7.051  0.2570  0.5139  1.9178
  128MOL0     H16838   4.152   4.350   6.883  1.4831  1.4889  0.0276
  128MOL0     H16839   4.245   4.505   7.112  2.2238 -1.0685 -0.4142
  128MOL0     H16840   4.264   4.551   6.940  2.2047 -1.1668  1.3176
  128MOL0     H16841   4.042   4.631   7.086  1.1596  0.7261 -0.5007
  128MOL0     H16842   3.982   4.474   7.036  1.2520 -0.7807  1.2764
  128MOL0     H16843   4.014   4.565   6.797 -0.1630  1.9266 -2.0696
  128MOL0     H16844   4.107   4.696   6.869  1.0715 -2.1236  1.6870
  128MOL0     H16845   3.881   4.748   7.005 -1.4233 -3.9153  0.0603
  128MOL0     H16846   3.931   4.812   6.853 -0.9810 -0.5158 -0.2157
  128MOL0     H16847   3.769   4.547   6.856 -0.3491 -1.7040 -3.0953
  128MOL0     H16848   3.797   4.660   6.721 -0.2185 -2.2599 -0.0065
  128MOL0     H16849   3.625   4.655   7.082  0.3296 -3.2806 -2.1544
  128MOL0     H16850   3.349   4.913   7.057  1.9916  0.7436  0.3086
  128MOL0     H16851   3.397   4.786   7.169 -1.9130  0.6841  0.7690
  128MOL0     H16852   3.205   4.778   6.946 -0.6841  2.3679 -0.0409
  128MOL0     H16853   3.159   4.757   7.103 -1.0070  1.3020 -2.2555
  128MOL0     H16854   3.335   4.559   6.950 -1.0390  0.3391 -2.0810
  128MOL0     H16855   3.297   4.532   7.114  2.0206  2.0022 -0.1332
  128MOL0     H16856   3.051   4.564   7.060  0.5995  2.0013 -0.6746
  128MOL0     H16857   3.108   4.408   7.004 -2.1202 -0.3601 -0.7038
  128MOL0     H16858   2.849   4.440   6.954  2.6740  2.0810  0.9403
  128MOL0     H16859   2.638   4.418   6.829  0.7495 -1.5861 -0.1956
  128MOL0     H16860   2.354   4.211   6.585  0.3764 -0.9975 -3.8622
  128MOL0     H16861   2.150   4.189   6.457  0.2779 -0.2487  0.1981
  128MOL0     H16862   2.084   4.496   6.225 -0.0504  0.5771 -2.4512
  128MOL0     H16863   1.930   4.553   6.260  0.0873 -0.6990  2.4684
  128MOL0     H16864   1.977   4.280   6.148  0.9189  0.9489 -0.0894
  128MOL0     H16865   1.945   4.417   6.047  2.0679  0.8167  0.6806
  128MOL0     H16866   1.737   4.457   6.190  0.6043  0.1393  0.8744
  128MOL0     H16867   1.755   4.293   6.259 -1.7360  0.9832  0.1521
  128MOL0     H16868   1.595   4.282   6.071  0.1275 -1.0291 -0.1562
  128MOL0     H16869   1.695   4.384   5.977 -0.9764 -1.5627 -0.5926
  128MOL0     H16870   1.852   4.186   5.944 -0.2646 -0.8422 -0.7315
  128MOL0     H16871   1.681   4.138   5.930 -0.2109 -1.8191  1.2020
  128MOL0     H16872   1.693   4.053   6.166  1.9688 -2.5159  4.1774
  128MOL0     H16873   1.868   4.076   6.151 -0.5691  1.8673 -0.3337
  128MOL0     H16874   1.767   3.833   6.084 -2.5730  0.0865 -0.9825
  128MOL0     H16875   1.706   3.904   5.950  0.3120 -0.9526  0.5760
  128MOL0     H16876   2.010   3.905   5.993  0.6925 -2.9398  0.2393
  128MOL0     H16877   1.922   3.948   5.842  1.6267 -0.1448 -0.3384
  128MOL0     H16878   2.114   4.607   6.427 -1.1080  0.6051  1.2203
  128MOL0     H16879   2.352   4.634   6.514 -2.0179  1.0453 -1.6494
  128MOL0     H16880   2.831   4.623   6.486  1.8194  0.7809  0.0656
  128MOL0     H16881   3.037   4.624   6.616 -0.8570 -1.6668 -3.6067
  128MOL0     H16882   4.662   4.438   7.036  2.3135  1.6081 -0.1649
  128MOL0     H16883   4.857   4.492   7.155  0.9010 -0.0633 -4.1517
  128MOL0     H16884   5.303   4.551   7.293 -0.4663 -1.2619 -0.6526
  128MOL0     H16885   5.484   4.565   7.465  0.6074 -0.7511  1.5711
  128MOL0     H16886   5.570   4.584   7.724  0.9108  1.0196 -1.3471
  128MOL0     H16887   5.679   4.501   7.604  2.1423 -1.4051  1.2649
  128MOL0     H16888   5.667   4.457   7.896 -3.1745 -3.6721 -0.0204
  128MOL0     H16889   5.744   4.346   7.783 -1.1509 -0.1869  2.8338
  128MOL0     H16890   5.785   4.646   7.788 -1.4368 -0.8404 -1.1212
  128MOL0     H16891   5.876   4.537   7.685 -0.3938  0.4845 -1.5541
  128MOL0     H16892   5.876   4.524   7.994 -0.4253 -4.1373 -0.2893
  128MOL0     H16893   5.962   4.421   7.876 -0.2554 -0.8800  0.9368
  128MOL0     H16894   6.213   4.740   7.828 -0.6738 -0.0978 -0.8408
  128MOL0     H16895   5.342   4.230   7.665  0.9448  1.4750  1.0611
  128MOL0     H16896   5.143   4.212   7.486  0.4462 -0.0621 -0.7654
  129MOL0     O16897   7.967   9.595   1.934 -0.4028 -0.0309 -0.2252
  129MOL0     C16898   8.042   9.529   2.010  0.1717 -0.8736  0.4691
  129MOL0     O16899   8.003   9.465   2.127  0.4189 -0.2149 -0.0138
  129MOL0     C16900   7.875   9.423   2.129 -0.2451 -0.5541  0.0797
  129MOL0     C16901   7.790   9.479   2.229  0.2293  1.2129 -0.1215
  129MOL0     C16902   7.666   9.428   2.243  0.6543  0.3157 -0.4582
  129MOL0     C16903   7.621   9.323   2.165  0.2904 -0.0594 -0.2223
  129MOL0     O16904   7.490   9.274   2.185 -0.1531 -0.4589 -0.6583
  129MOL0     C16905   7.419   9.216   2.080  0.3579 -0.4465  0.3223
  129MOL0     C16906   7.282   9.166   2.145  0.4639 -0.2966 -0.5094
  129MOL0     C16907   7.167   9.271   2.147 -0.8617  0.3440 -0.1677
  129MOL0     C16908   7.057   9.223   2.243  0.6134 -0.1653 -0.1936
  129MOL0     C16909   6.923   9.306   2.219 -0.4503  0.4505 -0.7621
  129MOL0     C16910   6.950   9.461   2.235  0.1736 -0.1363 -0.5380
  129MOL0     C16911   6.821   9.540   2.255  0.1844  0.0223  1.4278
  129MOL0     C16912   6.850   9.689   2.282  0.6307 -0.2980 -0.2831
  129MOL0     N16913   6.740   9.779   2.280  0.2544  0.2130 -0.4710
  129MOL0     C16914   6.610   9.736   2.303 -0.4756  0.3441 -0.6782
  129MOL0     C16915   6.536   9.848   2.290  0.9719  1.2584  1.5421
  129MOL0     C16916   6.383   9.858   2.286 -0.4687  0.0364 -0.1749
  129MOL0     C16917   6.340   9.864   2.436  0.0306 -0.1093  0.4541
  129MOL0     C16918   6.191   9.876   2.443  0.3855 -0.1093  0.4895
  129MOL0     C16919   6.145   9.905   2.589 -0.3372  0.6896 -0.1491
  129MOL0     O16920   6.189   9.802   2.676 -0.2018  0.2942  0.2624
  129MOL0     C16921   6.090   9.754   2.763  0.8216 -0.5174  0.2418
  129MOL0     C16922   5.955   9.746   2.728 -0.1792 -0.8496 -0.3497
  129MOL0     C16923   5.855   9.714   2.821 -1.3716 -0.1536  0.0457
  129MOL0     C16924   5.900   9.696   2.957 -0.4780 -0.4163  0.1568
  129MOL0     C16925   5.802   9.682   3.067  0.1921 -0.0716  0.1584
  129MOL0     O16926   5.853   9.708   3.195 -0.1728 -0.6167 -0.7155
  129MOL0     C16927   5.770   9.704   3.308  0.3154 -0.2706 -0.5197
  129MOL0     C16928   5.696   9.588   3.337  0.6945  0.5144  0.4138
  129MOL0     C16929   5.606   9.586   3.446  0.2987  0.1186 -0.9908
  129MOL0     C16930   5.582   9.701   3.518  1.2678 -0.5210 -0.6107
  129MOL0     O16931   5.497   9.710   3.629  0.5760  0.3004  0.8394
  129MOL0     C16932   5.402   9.604   3.646  0.0990  1.0807  0.4721
  129MOL0     C16933   5.280   9.623   3.551 -0.5407 -0.9812  1.2133
  129MOL0     C16934   5.168   9.524   3.574  0.1787 -1.3140 -0.0493
  129MOL0     C16935   5.057   9.511   3.477  0.7652 -0.7329 -0.1758
  129MOL0     C16936   4.952   9.402   3.514 -0.0814 -0.6267  0.3997
  129MOL0     C16937   4.811   9.431   3.474 -0.2832 -0.2962  0.5577
  129MOL0     C16938   4.722   9.310   3.479 -0.6180  0.1180 -0.1153
  129MOL0     C16939   4.670   9.275   3.622 -0.3272 -0.0926 -0.3163
  129MOL0    Cl16940   4.565   9.404   3.696  0.3939  0.4113 -0.0980
  129MOL0     C16941   5.665   9.814   3.498  0.2451  0.2391  0.2980
  129MOL0     C16942   5.754   9.815   3.393 -0.0928  0.4065 -0.1976
  129MOL0     O16943   5.686   9.670   3.036  0.7670  0.6534  0.6452
  129MOL0     C16944   6.038   9.695   2.989 -0.3469 -0.0086  0.6052
  129MOL0     C16945   6.131   9.712   2.881  0.1067 -0.7765 -0.8945
  129MOL0     N16946   6.616   9.957   2.264  0.5503 -0.2650  0.6324
  129MOL0     N16947   6.742   9.917   2.253 -0.0547  1.1712  0.1014
  129MOL0     C16948   7.707   9.263   2.076 -0.1193 -0.0340  0.0472
  129MOL0     C16949   7.837   9.313   2.061  0.0294  0.7464  0.1857
  129MOL0     C16950   8.179   9.519   1.967 -0.3721  0.3820 -1.2360
  129MOL0     C16951   8.227   9.599   1.867  0.3362 -0.4678  0.6910
  129MOL0     C16952   8.362   9.602   1.827  1.3555  0.2929 -0.3124
  129MOL0     C16953   8.450   9.516   1.888  0.2068 -0.0567  0.7298
  129MOL0     O16954   8.576   9.512   1.834 -0.2124 -0.1174 -0.2486
  129MOL0     C16955   8.650   9.393   1.869  0.1465  0.5231 -0.5971
  129MOL0     C16956   8.779   9.419   1.801 -0.1324  0.2239  0.8979
  129MOL0     C16957   8.871   9.298   1.798  0.4116  0.0559  1.1136
  129MOL0     C16958   9.012   9.313   1.722  1.5266  0.5516 -0.7863
  129MOL0     C16959   9.096   9.392   1.810 -0.7244 -0.0080  0.2673
  129MOL0     C16960   9.192   9.434   1.871  0.5966 -0.1184  0.1561
  129MOL0     C16961   8.408   9.451   1.999 -0.0513  0.9022 -0.4130
  129MOL0     C16962   8.272   9.445   2.043  0.1683  0.1236  0.4155
  129MOL0     H16963   7.821   9.561   2.292 -0.0894  0.0662  1.5752
  129MOL0     H16964   7.597   9.470   2.315  0.4343 -0.0600 -0.4464
  129MOL0     H16965   7.474   9.134   2.032 -1.9826 -0.8226 -1.9009
  129MOL0     H16966   7.398   9.291   2.004  0.3405  0.5059  1.2498
  129MOL0     H16967   7.312   9.126   2.243  1.7467 -1.9049 -1.4983
  129MOL0     H16968   7.242   9.091   2.076 -0.3158  0.1880 -0.5876
  129MOL0     H16969   7.133   9.289   2.045  0.7923  2.9287 -0.3648
  129MOL0     H16970   7.197   9.368   2.189 -4.0769  1.2478  0.2730
  129MOL0     H16971   7.037   9.116   2.226 -3.2744  0.4672 -0.5981
  129MOL0     H16972   7.073   9.242   2.350 -1.0948  0.1366  0.0481
  129MOL0     H16973   6.834   9.274   2.273 -0.2988 -2.1613 -1.9008
  129MOL0     H16974   6.888   9.271   2.121 -2.0661 -0.8209  0.2115
  129MOL0     H16975   7.003   9.499   2.147  3.0092 -1.5499  0.4421
  129MOL0     H16976   7.023   9.478   2.315 -0.6120 -1.6451  0.5500
  129MOL0     H16977   6.760   9.515   2.168  1.2854 -1.1362  0.9584
  129MOL0     H16978   6.762   9.503   2.340  0.4234  0.6821  1.8911
  129MOL0     H16979   6.917   9.709   2.198  2.1556 -1.0503  0.6933
  129MOL0     H16980   6.898   9.701   2.380 -4.2625  0.1409  2.3378
  129MOL0     H16981   6.577   9.636   2.326 -0.3096  0.8050  1.8931
  129MOL0     H16982   6.345   9.763   2.248  2.9147 -0.2574 -3.3783
  129MOL0     H16983   6.352   9.943   2.225  0.1199  0.7224  0.4516
  129MOL0     H16984   6.390   9.949   2.485  0.3505 -1.8983  3.4562
  129MOL0     H16985   6.384   9.776   2.484  1.1998 -0.3494 -0.9754
  129MOL0     H16986   6.153   9.952   2.375  1.4670 -1.7135 -2.0410
  129MOL0     H16987   6.144   9.782   2.413 -0.9433 -0.1202  2.3790
  129MOL0     H16988   6.040   9.933   2.591 -0.4253  1.2101 -3.8501
  129MOL0     H16989   6.193   9.997   2.622 -0.5795 -0.4876  4.0772
  129MOL0     H16990   5.916   9.769   2.630 -0.5916  0.0117  0.0089
  129MOL0     H16991   5.750   9.712   2.795 -1.2544  0.2208 -0.4681
  129MOL0     H16992   5.720   9.502   3.275 -1.3343 -1.7400  2.5505
  129MOL0     H16993   5.543   9.498   3.459  0.8318 -0.2992 -1.1900
  129MOL0     H16994   5.361   9.594   3.747  0.7429 -0.4577  0.6145
  129MOL0     H16995   5.438   9.503   3.623 -0.7994  1.0011 -0.6852
  129MOL0     H16996   5.301   9.611   3.445 -2.4270  3.0035  0.1866
  129MOL0     H16997   5.238   9.724   3.549 -3.7586 -2.1921 -1.5513
  129MOL0     H16998   5.125   9.542   3.673 -1.2127 -0.7198 -0.7281
  129MOL0     H16999   5.208   9.423   3.571  1.0852 -1.0231  1.2740
  129MOL0     H17000   4.995   9.601   3.474 -0.7600 -1.7695 -1.0116
  129MOL0     H17001   5.094   9.497   3.375  1.4696  0.0353 -0.0384
  129MOL0     H17002   4.963   9.378   3.620 -1.4896 -1.4108  0.3915
  129MOL0     H17003   4.989   9.310   3.468  2.7972  0.6045  0.0133
  129MOL0     H17004   4.809   9.472   3.372 -1.4196 -0.1192  0.6411
  129MOL0     H17005   4.767   9.503   3.542 -1.8418  1.0584 -1.7437
  129MOL0     H17006   4.643   9.309   3.404  0.1054 -1.0749 -0.8846
  129MOL0     H17007   4.783   9.223   3.454  0.9281  1.2265 -0.4011
  129MOL0     H17008   4.761   9.267   3.681  0.4193 -0.6606 -1.5182
  129MOL0     H17009   4.610   9.183   3.620  1.1236 -1.2199  2.5964
  129MOL0     H17010   5.637   9.891   3.569  1.7097  1.6681 -0.5969
  129MOL0     H17011   5.818   9.898   3.365 -0.9779  1.4116  0.6464
  129MOL0     H17012   6.072   9.698   3.092 -0.7477  4.0667  0.7879
  129MOL0     H17013   6.235   9.703   2.911 -0.1905  0.4881  0.6287
  129MOL0     H17014   7.694   9.174   2.014 -0.0621 -1.5687  2.1186
  129MOL0     H17015   7.901   9.261   1.990 -1.0179  0.9049 -0.9096
  129MOL0     H17016   8.160   9.662   1.809  2.8191  0.0141 -1.8685
  129MOL0     H17017   8.394   9.663   1.743 -0.2362  0.5490 -0.7646
  129MOL0     H17018   8.599   9.302   1.835 -0.5747  0.4845  0.5206
  129MOL0     H17019   8.656   9.384   1.978 -0.0269 -1.3107 -0.6997
  129MOL0     H17020   8.755   9.447   1.699  0.6569 -0.3865  0.5282
  129MOL0     H17021   8.836   9.498   1.852  0.3676 -0.8018  1.9900
  129MOL0     H17022   8.824   9.226   1.730 -0.9270  2.3694 -0.5497
  129MOL0     H17023   8.863   9.257   1.899 -1.8562 -1.9683  0.2082
  129MOL0     H17024   9.057   9.214   1.709  2.4813  0.7101  0.9589
  129MOL0     H17025   8.994   9.357   1.624 -3.0494  0.5888 -0.1648
  129MOL0     H17026   9.277   9.458   1.933  0.9733 -1.7382  0.3108
  129MOL0     H17027   8.490   9.401   2.051 -0.2904  0.7525 -0.1769
  129MOL0     H17028   8.242   9.400   2.137 -1.3538 -0.5864 -0.3820
  130MOL0     O17029   4.404   4.336   9.122 -0.2603  0.0561  0.1246
  130MOL0     C17030   4.411   4.413   9.214 -0.2945  0.1763  0.5580
  130MOL0     O17031   4.326   4.521   9.239  0.5188  0.4353 -1.0243
  130MOL0     C17032   4.219   4.542   9.160  0.4203 -0.0312 -0.2546
  130MOL0     C17033   4.211   4.658   9.081 -0.0288 -0.0763  0.3600
  130MOL0     C17034   4.100   4.678   8.990 -0.5039 -0.4110  0.1895
  130MOL0     C17035   4.001   4.580   8.984 -1.3121 -0.7869 -0.2704
  130MOL0     O17036   3.892   4.618   8.910  0.1841 -0.3038 -0.3188
  130MOL0     C17037   3.783   4.533   8.893  0.1153  0.0894  0.3335
  130MOL0     C17038   3.687   4.579   8.781 -0.4004 -0.6893  0.0259
  130MOL0     C17039   3.567   4.661   8.828 -0.4167 -0.9002  0.3526
  130MOL0     C17040   3.617   4.793   8.888 -0.0914 -0.2069  0.0795
  130MOL0     C17041   3.501   4.880   8.934 -0.6267 -0.1213 -1.0009
  130MOL0     C17042   3.385   4.929   8.846  0.2570  0.7424  0.2606
  130MOL0     C17043   3.438   5.001   8.717 -0.1677 -0.0155 -0.2808
  130MOL0     C17044   3.349   5.112   8.661  0.1524  0.2436 -0.1846
  130MOL0     N17045   3.220   5.068   8.622 -0.6008  1.1308 -0.0405
  130MOL0     C17046   3.189   4.970   8.531  0.6423 -0.1583 -0.3114
  130MOL0     C17047   3.052   4.958   8.537 -0.4918 -0.5918 -0.6062
  130MOL0     C17048   2.978   4.867   8.447 -0.6092 -0.4035 -0.3584
  130MOL0     C17049   2.827   4.831   8.497  0.0535 -0.2250  0.1436
  130MOL0     C17050   2.757   4.735   8.398 -0.5816 -1.1910  0.2811
  130MOL0     C17051   2.615   4.700   8.430  0.5238 -0.2721 -1.3466
  130MOL0     O17052   2.544   4.683   8.303  0.3385 -0.5570 -0.0633
  130MOL0     C17053   2.409   4.684   8.303  0.3248 -0.5836  0.0039
  130MOL0     C17054   2.330   4.743   8.412  0.8675 -0.3262  0.5101
  130MOL0     C17055   2.187   4.749   8.391 -0.4023  0.0406  0.2503
  130MOL0     C17056   2.131   4.695   8.273 -0.1241  0.3129 -0.5965
  130MOL0     C17057   1.979   4.702   8.261 -0.4405 -0.1170  1.1795
  130MOL0     O17058   1.918   4.682   8.139 -0.0484 -0.5779  0.4529
  130MOL0     C17059   1.777   4.692   8.150 -0.2395  0.5492  1.3415
  130MOL0     C17060   1.694   4.582   8.152 -0.1731 -1.4529 -0.6773
  130MOL0     C17061   1.555   4.601   8.141  0.6829  0.4648  0.5615
  130MOL0     C17062   1.493   4.720   8.129  0.0839 -0.6080 -0.9172
  130MOL0     O17063   1.358   4.734   8.111  0.2454 -0.5235  0.0860
  130MOL0     C17064   1.278   4.714   8.230 -0.0522 -0.4103 -0.2059
  130MOL0     C17065   1.137   4.774   8.222  0.3236  0.1616 -0.9171
  130MOL0     C17066   1.133   4.925   8.207  0.0240  0.2191  0.5374
  130MOL0     C17067   0.985   4.961   8.225  0.5698 -0.2385 -0.0038
  130MOL0     C17068   0.985   5.115   8.219 -0.1922 -1.0393 -0.3713
  130MOL0     C17069   0.840   5.166   8.239 -0.3141 -0.1225 -0.3796
  130MOL0     C17070   0.826   5.323   8.233  0.1384  0.2543  0.4761
  130MOL0     C17071   0.683   5.356   8.266  0.3053  0.2249  0.1141
  130MOL0    Cl17072   0.679   5.531   8.268 -0.5051 -0.4455 -0.1695
  130MOL0     C17073   1.577   4.836   8.136  0.3536 -0.0356  0.4368
  130MOL0     C17074   1.717   4.818   8.145  0.0257 -0.4960  0.2506
  130MOL0     O17075   1.918   4.722   8.367 -0.0694  0.2439  0.2372
  130MOL0     C17076   2.211   4.659   8.162 -0.3111 -0.9971 -1.0160
  130MOL0     C17077   2.348   4.652   8.182  0.4305  0.1354 -0.3837
  130MOL0     N17078   3.004   5.061   8.614 -0.1242 -0.2121 -0.0703
  130MOL0     N17079   3.104   5.108   8.679 -0.2555 -0.0025 -0.0453
  130MOL0     C17080   4.019   4.464   9.055 -1.5830  0.4448  0.6945
  130MOL0     C17081   4.124   4.444   9.140 -0.3757  0.0907 -0.7440
  130MOL0     C17082   4.534   4.405   9.297 -0.8574 -0.5181 -0.0537
  130MOL0     C17083   4.638   4.314   9.274  0.3760  0.1444  0.7863
  130MOL0     C17084   4.758   4.324   9.350  0.5989  0.2114 -1.1432
  130MOL0     C17085   4.759   4.405   9.465 -0.0132  0.6055  0.2259
  130MOL0     O17086   4.876   4.393   9.532  0.4584  0.1028 -0.0046
  130MOL0     C17087   4.891   4.457   9.652 -0.2865 -0.8033 -0.3012
  130MOL0     C17088   5.017   4.416   9.731  0.1933  0.2601  0.1610
  130MOL0     C17089   5.032   4.518   9.849 -0.0092 -0.5012 -0.4279
  130MOL0     C17090   5.146   4.478   9.938 -0.4994 -0.1810  0.2658
  130MOL0     C17091   5.285   4.475   9.875 -0.0096 -0.3812  0.6572
  130MOL0     C17092   5.395   4.475   9.826 -0.4105  0.3656 -0.2300
  130MOL0     C17093   4.650   4.487   9.493  0.0205  0.3579  0.5727
  130MOL0     C17094   4.546   4.493   9.411  0.8329  0.7357  0.1399
  130MOL0     H17095   4.288   4.735   9.087 -0.6132  0.5607 -0.1880
  130MOL0     H17096   4.088   4.757   8.916  0.0834  0.4446  0.9739
  130MOL0     H17097   3.726   4.515   8.985  0.2054 -1.6177  0.0722
  130MOL0     H17098   3.817   4.433   8.867  1.1424 -0.2605  2.7620
  130MOL0     H17099   3.655   4.488   8.730  1.9683 -0.6103 -1.7666
  130MOL0     H17100   3.747   4.631   8.706 -0.2714 -4.6468 -2.9717
  130MOL0     H17101   3.504   4.604   8.896 -0.0779  1.8750  3.2263
  130MOL0     H17102   3.511   4.688   8.738 -0.1377  0.6185  0.6182
  130MOL0     H17103   3.677   4.776   8.978  1.1685 -1.8635 -1.0192
  130MOL0     H17104   3.681   4.854   8.824  2.3020 -1.2312  1.3802
  130MOL0     H17105   3.545   4.970   8.978  0.6133 -0.4459 -1.5439
  130MOL0     H17106   3.453   4.825   9.017 -0.6742 -1.7014 -2.0308
  130MOL0     H17107   3.332   5.004   8.905  0.0356  0.2137  0.7335
  130MOL0     H17108   3.311   4.852   8.823 -0.2909  1.3979 -0.2190
  130MOL0     H17109   3.533   5.041   8.754  0.3214 -2.7522  1.7522
  130MOL0     H17110   3.465   4.934   8.635  0.6652 -3.2081  2.3820
  130MOL0     H17111   3.405   5.151   8.576 -0.8146 -1.4540 -1.6748
  130MOL0     H17112   3.340   5.193   8.734 -0.5729 -0.1239  0.1502
  130MOL0     H17113   3.258   4.929   8.457  0.9531 -1.4217  0.6458
  130MOL0     H17114   3.034   4.776   8.423  0.5366  0.6609 -1.9495
  130MOL0     H17115   2.954   4.915   8.351 -1.2209  3.3452  1.4700
  130MOL0     H17116   2.765   4.920   8.504 -2.3435 -1.8315  0.5053
  130MOL0     H17117   2.845   4.773   8.588 -0.6637 -0.6053  0.0475
  130MOL0     H17118   2.761   4.777   8.297  3.2294  1.5839  1.3377
  130MOL0     H17119   2.811   4.639   8.400  0.1017 -0.8373 -0.3922
  130MOL0     H17120   2.584   4.788   8.488 -0.1593 -1.3792  0.0112
  130MOL0     H17121   2.608   4.610   8.492 -1.5300 -0.3451 -1.5985
  130MOL0     H17122   2.352   4.784   8.510  1.5322  1.3129 -0.2898
  130MOL0     H17123   2.118   4.783   8.467 -0.4679 -2.3906  1.3834
  130MOL0     H17124   1.738   4.483   8.167  0.3538 -1.4868 -2.2219
  130MOL0     H17125   1.502   4.506   8.141  2.6699 -0.6874  0.4182
  130MOL0     H17126   1.333   4.763   8.310 -1.6595 -0.0606  0.7200
  130MOL0     H17127   1.264   4.610   8.262 -0.4020 -0.5354 -0.7443
  130MOL0     H17128   1.083   4.743   8.312  3.3945 -1.9989  0.3638
  130MOL0     H17129   1.089   4.729   8.135 -0.7995 -0.0656 -0.1969
  130MOL0     H17130   1.184   4.968   8.121  1.4059  2.6420  2.4246
  130MOL0     H17131   1.185   4.966   8.294 -0.9206 -1.0443  1.7626
  130MOL0     H17132   0.922   4.927   8.142 -0.0685  0.3848  0.2144
  130MOL0     H17133   0.939   4.916   8.313 -1.3003 -1.4313 -1.5079
  130MOL0     H17134   1.020   5.138   8.118 -0.9226 -0.6342 -0.5433
  130MOL0     H17135   1.058   5.156   8.289 -1.8908  0.1277  0.7826
  130MOL0     H17136   0.800   5.129   8.334 -0.6768  1.1364 -0.0206
  130MOL0     H17137   0.770   5.133   8.161 -2.7347 -0.7962  1.9329
  130MOL0     H17138   0.896   5.370   8.303 -2.0803 -1.3744  4.0593
  130MOL0     H17139   0.842   5.360   8.131  0.6207  0.2183  0.5379
  130MOL0     H17140   0.653   5.310   8.361 -0.4959  1.6631  0.5965
  130MOL0     H17141   0.606   5.325   8.195 -3.0460  0.8947  3.1076
  130MOL0     H17142   1.536   4.936   8.130  3.9190  1.5431 -0.2706
  130MOL0     H17143   1.785   4.902   8.151  1.0890 -0.9295 -3.2825
  130MOL0     H17144   2.178   4.627   8.063 -0.0180 -1.6202 -0.9187
  130MOL0     H17145   2.406   4.629   8.094 -0.9069 -1.3532 -0.9164
  130MOL0     H17146   3.936   4.394   9.055 -1.2252 -0.0825 -1.7857
  130MOL0     H17147   4.122   4.351   9.197 -1.5015 -0.4836 -1.6733
  130MOL0     H17148   4.622   4.252   9.187 -0.5475 -0.0391  1.0729
  130MOL0     H17149   4.849   4.277   9.314  1.5058  0.5874  0.5339
  130MOL0     H17150   4.809   4.414   9.710  1.2622 -0.8239  1.9658
  130MOL0     H17151   4.876   4.565   9.644  0.3564 -0.7999 -1.9545
  130MOL0     H17152   4.996   4.317   9.772 -1.1542  1.0282  1.4504
  130MOL0     H17153   5.102   4.414   9.663  0.4558  1.7923  0.3904
  130MOL0     H17154   4.938   4.524   9.905 -0.5539 -2.8847 -0.9864
  130MOL0     H17155   5.056   4.617   9.809  3.7778 -1.7716 -1.7020
  130MOL0     H17156   5.159   4.553  10.016 -0.7485 -0.4334  0.5545
  130MOL0     H17157   5.121   4.379   9.977 -3.0048  0.0644 -0.5150
  130MOL0     H17158   5.495   4.489   9.793  0.3457 -2.9925  0.2209
  130MOL0     H17159   4.646   4.555   9.578  0.3171 -1.6343  2.2583
  130MOL0     H17160   4.469   4.567   9.432  0.4187  0.9158 -1.7668
  131MOL0     O17161   0.566   5.497   3.610 -0.1777 -0.9389  0.3823
  131MOL0     C17162   0.540   5.380   3.590 -0.2064  0.2411  0.3867
  131MOL0     O17163   0.422   5.320   3.603 -0.4968  0.1680 -0.1658
  131MOL0     C17164   0.322   5.378   3.681 -0.0960 -0.7955  0.0333
  131MOL0     C17165   0.190   5.370   3.635  0.6838 -0.2190  0.0040
  131MOL0     C17166   0.082   5.409   3.720  0.1607  0.0695  0.2531
  131MOL0     C17167   0.107   5.432   3.855 -0.1903 -0.2565 -0.9320
  131MOL0     O17168   0.012   5.452   3.955  0.5909  0.2802  0.4444
  131MOL0     C17169  -0.125   5.408   3.931 -0.7644 -0.5197 -0.4441
  131MOL0     C17170  -0.214   5.483   4.029  0.3858  0.5696 -0.8956
  131MOL0     C17171  -0.350   5.520   3.964 -0.1224 -0.2785  1.0235
  131MOL0     C17172  -0.440   5.395   3.927 -0.3724 -0.3200 -0.1290
  131MOL0     C17173  -0.583   5.439   3.902 -0.1701 -0.2764  0.2161
  131MOL0     C17174  -0.681   5.323   3.842  0.2949  0.2609  0.0584
  131MOL0     C17175  -0.709   5.223   3.950 -0.2381  0.5164 -0.1669
  131MOL0     C17176  -0.831   5.130   3.916  1.0481 -0.5426 -0.3707
  131MOL0     N17177  -0.956   5.210   3.917 -0.1808 -0.1223 -0.3304
  131MOL0     C17178  -1.022   5.248   4.036  0.8359  0.1886  0.0156
  131MOL0     C17179  -1.077   5.368   4.004  0.0034 -0.3676  0.5522
  131MOL0     C17180  -1.144   5.461   4.106 -0.4718 -0.3904  0.0196
  131MOL0     C17181  -1.285   5.481   4.097  0.0423 -0.2779  0.6126
  131MOL0     C17182  -1.369   5.368   4.163 -0.2041  0.5624 -0.2954
  131MOL0     C17183  -1.509   5.398   4.163  1.0169 -0.3342  0.8019
  131MOL0     O17184  -1.548   5.531   4.216  0.2677  0.1915  0.5456
  131MOL0     C17185  -1.679   5.565   4.215 -0.0559 -0.2923  0.0910
  131MOL0     C17186  -1.723   5.690   4.271  0.6149 -0.2504  1.1854
  131MOL0     C17187  -1.857   5.734   4.261 -0.3368  0.2707  0.2287
  131MOL0     C17188  -1.951   5.636   4.236 -0.3112 -0.5881  0.4395
  131MOL0     C17189  -2.096   5.670   4.256 -0.5173  1.0682 -0.1124
  131MOL0     O17190  -2.195   5.580   4.201 -0.1230 -1.0216  1.0151
  131MOL0     C17191  -2.321   5.637   4.201  0.4029  0.6974  0.1466
  131MOL0     C17192  -2.384   5.649   4.326 -0.0535  0.2676  0.3502
  131MOL0     C17193  -2.521   5.676   4.325 -0.2513 -1.7122 -0.8220
  131MOL0     C17194  -2.599   5.693   4.211 -0.6096  0.7176 -0.1893
  131MOL0     O17195  -2.737   5.717   4.205 -0.9740  0.1385 -0.2797
  131MOL0     C17196  -2.819   5.710   4.326 -0.7591  0.4606  1.0104
  131MOL0     C17197  -2.963   5.717   4.288 -0.2226 -0.3388  0.3176
  131MOL0     C17198  -3.048   5.736   4.417 -0.1814  0.4506 -0.1393
  131MOL0     C17199  -3.190   5.786   4.378 -0.0989 -1.1990 -0.6356
  131MOL0     C17200  -3.278   5.802   4.502 -1.2213  0.1131  0.6604
  131MOL0     C17201  -3.416   5.820   4.462  0.0336 -0.7280  0.4671
  131MOL0     C17202  -3.513   5.790   4.584 -0.5245 -0.4135  0.3983
  131MOL0     C17203  -3.641   5.746   4.523 -0.6313 -0.6283 -0.7196
  131MOL0    Cl17204  -3.740   5.688   4.660 -0.2426 -0.4903  0.1194
  131MOL0     C17205  -2.531   5.667   4.089  0.3728 -0.0835  0.3656
  131MOL0     C17206  -2.395   5.645   4.089  0.2198 -0.1874  0.0221
  131MOL0     O17207  -2.121   5.767   4.322 -0.2542  0.1827  0.3560
  131MOL0     C17208  -1.913   5.511   4.198  0.3236  0.4104  0.7889
  131MOL0     C17209  -1.787   5.476   4.184 -0.6406 -0.2074  0.0677
  131MOL0     N17210  -1.064   5.389   3.869 -0.1087 -0.9130  0.8331
  131MOL0     N17211  -0.988   5.298   3.820  0.2552  0.5894  0.2065
  131MOL0     C17212   0.237   5.439   3.901  0.4044 -0.3203  0.3443
  131MOL0     C17213   0.342   5.414   3.815  0.1769  0.6351  0.5639
  131MOL0     C17214   0.652   5.287   3.572 -0.4423  0.1255 -1.0550
  131MOL0     C17215   0.786   5.318   3.613  0.7732 -0.2006 -0.4896
  131MOL0     C17216   0.887   5.224   3.595  0.3435 -0.5837 -1.2176
  131MOL0     C17217   0.866   5.098   3.543 -0.5079  0.1692  0.7662
  131MOL0     O17218   0.976   5.020   3.516 -0.3943  0.1659 -0.0349
  131MOL0     C17219   1.114   5.060   3.544 -0.5213  0.9069  0.4489
  131MOL0     C17220   1.185   4.993   3.651 -0.1961  0.2297 -1.3499
  131MOL0     C17221   1.341   5.003   3.651  0.6194  0.5541 -0.1519
  131MOL0     C17222   1.418   4.951   3.770  0.0596 -0.8943 -0.4363
  131MOL0     C17223   1.560   4.986   3.771 -0.4609 -0.6949  0.0627
  131MOL0     C17224   1.677   5.021   3.766  0.5970  1.2386  0.4761
  131MOL0     C17225   0.736   5.068   3.506  1.1637  0.4644  0.2514
  131MOL0     C17226   0.630   5.155   3.526  0.1330 -0.0289  0.4356
  131MOL0     H17227   0.166   5.339   3.534 -0.4112  1.7604 -0.3897
  131MOL0     H17228  -0.019   5.401   3.681  0.3411 -0.3291 -0.1403
  131MOL0     H17229  -0.125   5.300   3.948 -1.6420 -0.4325  0.1541
  131MOL0     H17230  -0.161   5.431   3.830  2.5640 -0.1386 -1.6733
  131MOL0     H17231  -0.174   5.578   4.067 -0.3763 -1.0421  4.8432
  131MOL0     H17232  -0.241   5.417   4.111  0.7089  0.3721 -0.9483
  131MOL0     H17233  -0.348   5.570   3.867 -1.3222 -2.7091 -0.3568
  131MOL0     H17234  -0.412   5.571   4.038 -0.7017 -0.5812  0.7512
  131MOL0     H17235  -0.411   5.346   3.834 -2.6708 -1.3729 -0.3542
  131MOL0     H17236  -0.444   5.318   4.004 -0.2122 -1.8205 -1.5854
  131MOL0     H17237  -0.591   5.516   3.825 -1.3817  2.8114  3.1630
  131MOL0     H17238  -0.624   5.495   3.987 -0.0121  0.3510 -0.1168
  131MOL0     H17239  -0.644   5.270   3.753  0.2311  0.9471 -0.3898
  131MOL0     H17240  -0.774   5.367   3.805 -1.9855 -3.3450  1.0380
  131MOL0     H17241  -0.622   5.156   3.961  0.7341  1.2863 -2.5220
  131MOL0     H17242  -0.734   5.274   4.043 -0.0090  0.9558 -0.3419
  131MOL0     H17243  -0.845   5.054   3.993 -3.9187  2.1766  1.8489
  131MOL0     H17244  -0.825   5.079   3.819 -0.2276  0.5913 -1.0892
  131MOL0     H17245  -1.013   5.185   4.125  0.6539  0.0235 -0.0805
  131MOL0     H17246  -1.105   5.562   4.088  0.3666 -1.1154 -2.7410
  131MOL0     H17247  -1.110   5.441   4.208 -2.3458  0.3646  0.8366
  131MOL0     H17248  -1.323   5.494   3.995 -3.2973 -0.7584  1.6659
  131MOL0     H17249  -1.313   5.572   4.150 -0.3851 -0.3428  0.5009
  131MOL0     H17250  -1.356   5.286   4.092  1.4272  2.1789 -1.9494
  131MOL0     H17251  -1.321   5.338   4.257  2.6893 -1.6176 -2.2816
  131MOL0     H17252  -1.557   5.320   4.223 -1.2577 -0.2067 -0.7025
  131MOL0     H17253  -1.547   5.394   4.060  0.9594 -0.1980  0.8170
  131MOL0     H17254  -1.663   5.773   4.307 -1.3045  1.1817  1.2307
  131MOL0     H17255  -1.882   5.836   4.289  0.2489 -0.2220  2.8697
  131MOL0     H17256  -2.322   5.639   4.415  1.2696  0.6757 -0.4935
  131MOL0     H17257  -2.561   5.690   4.425  0.1201  0.3983 -0.9332
  131MOL0     H17258  -2.785   5.777   4.406  0.9440 -1.8664  2.3721
  131MOL0     H17259  -2.810   5.606   4.357  0.1335  0.0035 -0.6391
  131MOL0     H17260  -2.979   5.615   4.251  3.3101 -1.6621  2.0255
  131MOL0     H17261  -2.990   5.797   4.218  0.7233  0.8451  1.2510
  131MOL0     H17262  -3.008   5.820   4.475  2.2169 -0.7499  0.0840
  131MOL0     H17263  -3.049   5.646   4.478 -2.9238  1.6723  1.7987
  131MOL0     H17264  -3.176   5.889   4.345 -1.6715 -0.7469  0.0034
  131MOL0     H17265  -3.235   5.715   4.307  2.5042 -0.8331 -2.8256
  131MOL0     H17266  -3.231   5.874   4.570  1.1541 -0.4782 -0.2408
  131MOL0     H17267  -3.265   5.707   4.554  0.6434  0.7162  1.3917
  131MOL0     H17268  -3.434   5.753   4.377  2.5945 -0.5364 -0.3089
  131MOL0     H17269  -3.433   5.922   4.427 -2.0600 -1.8775 -2.2388
  131MOL0     H17270  -3.469   5.710   4.644  0.9824  0.6335  0.7415
  131MOL0     H17271  -3.515   5.887   4.635  1.0247  0.5359 -1.2067
  131MOL0     H17272  -3.634   5.672   4.444 -1.5384 -0.2278 -1.1969
  131MOL0     H17273  -3.692   5.828   4.471 -0.8182 -1.2431 -1.5190
  131MOL0     H17274  -2.582   5.690   3.995 -2.5226 -2.2261  1.2794
  131MOL0     H17275  -2.346   5.617   3.996  1.7425 -0.8797  0.9815
  131MOL0     H17276  -1.987   5.445   4.156  0.9346 -0.4208  0.9882
  131MOL0     H17277  -1.760   5.381   4.140  0.1799 -0.2139  0.5685
  131MOL0     H17278   0.255   5.461   4.005 -3.3422  2.8878  0.5663
  131MOL0     H17279   0.438   5.388   3.857 -0.2496 -2.7183 -0.2591
  131MOL0     H17280   0.805   5.416   3.656  0.6717 -0.2268 -0.3836
  131MOL0     H17281   0.983   5.259   3.630 -0.2137 -1.0597  0.9242
  131MOL0     H17282   1.134   5.168   3.541  1.4295  0.5710  0.0844
  131MOL0     H17283   1.153   5.026   3.448 -0.5233  0.1808  0.7042
  131MOL0     H17284   1.156   5.046   3.742  0.0821  0.0342 -1.1475
  131MOL0     H17285   1.160   4.887   3.653  0.6417 -0.0268  2.0437
  131MOL0     H17286   1.370   5.106   3.628 -1.2087  0.7498 -1.8825
  131MOL0     H17287   1.374   4.942   3.567  0.3886  1.6508 -1.0696
  131MOL0     H17288   1.375   4.988   3.864 -0.3787 -0.2442 -0.8841
  131MOL0     H17289   1.414   4.841   3.772  1.1837 -0.9274  0.9781
  131MOL0     H17290   1.779   5.054   3.760  1.7578 -2.1415 -1.2990
  131MOL0     H17291   0.719   4.968   3.468 -1.1192  0.5888  0.8354
  131MOL0     H17292   0.531   5.115   3.505  1.0534 -2.0510 -0.3284
  132MOL0     O17293   2.923   3.434   2.983  0.3025  0.0307  0.2546
  132MOL0     C17294   2.971   3.335   3.032 -0.3962  0.4708 -0.5005
  132MOL0     O17295   2.915   3.249   3.117  0.2603  0.5562  0.5640
  132MOL0     C17296   2.790   3.288   3.159  1.1695  0.0370 -0.2055
  132MOL0     C17297   2.675   3.220   3.103  0.2158  0.0053 -0.4806
  132MOL0     C17298   2.545   3.253   3.153 -0.6517 -0.6629 -0.5246
  132MOL0     C17299   2.533   3.340   3.265  0.2927 -0.1197  0.2297
  132MOL0     O17300   2.419   3.391   3.322  0.1927  0.1092  0.0995
  132MOL0     C17301   2.288   3.356   3.268 -0.7660  0.0500  0.7297
  132MOL0     C17302   2.189   3.455   3.329  0.1328  0.5570  0.2137
  132MOL0     C17303   2.047   3.440   3.264  0.4246 -0.1694 -1.2414
  132MOL0     C17304   1.951   3.551   3.307 -0.4964 -0.1511 -0.6606
  132MOL0     C17305   1.810   3.523   3.269 -0.3733 -0.1186 -0.2535
  132MOL0     C17306   1.710   3.618   3.336  0.1147  0.1574 -0.2421
  132MOL0     C17307   1.563   3.585   3.310  0.0763  0.3647 -0.2064
  132MOL0     C17308   1.510   3.585   3.154 -0.8377 -0.2686  0.0094
  132MOL0     N17309   1.364   3.569   3.136  0.6289  0.3132 -0.5253
  132MOL0     C17310   1.275   3.466   3.180 -0.5648  0.0565 -0.0046
  132MOL0     C17311   1.153   3.486   3.121 -0.6750 -1.4463  0.1902
  132MOL0     C17312   1.037   3.397   3.132  0.6460  0.0158 -0.0608
  132MOL0     C17313   0.906   3.461   3.188 -0.1708  0.5566  0.0647
  132MOL0     C17314   0.805   3.345   3.197  0.6372  0.7006 -0.1180
  132MOL0     C17315   0.659   3.387   3.236 -0.4709  0.2568 -0.0811
  132MOL0     O17316   0.579   3.273   3.212  0.0215  0.1521 -0.3930
  132MOL0     C17317   0.454   3.270   3.272  0.0863  0.1725 -0.3460
  132MOL0     C17318   0.401   3.377   3.343  0.5471 -0.1883 -0.4330
  132MOL0     C17319   0.288   3.368   3.427  0.3659 -0.3112  0.5006
  132MOL0     C17320   0.209   3.255   3.429  0.0448  0.1883 -0.8667
  132MOL0     C17321   0.100   3.229   3.522  0.5208  0.5977  0.5614
  132MOL0     O17322   0.046   3.334   3.577  0.3502 -0.2145 -0.4645
  132MOL0     C17323  -0.062   3.315   3.661 -1.3647  0.1448  0.1980
  132MOL0     C17324  -0.188   3.295   3.609 -0.2437  0.2013 -0.9653
  132MOL0     C17325  -0.296   3.273   3.695  0.1418  0.6530 -0.4230
  132MOL0     C17326  -0.280   3.250   3.830 -0.0290 -0.0992  0.0376
  132MOL0     O17327  -0.385   3.216   3.912 -1.0409 -0.0122  0.1730
  132MOL0     C17328  -0.459   3.104   3.872  0.4028 -0.0110  0.0829
  132MOL0     C17329  -0.543   3.053   3.983 -0.6519  0.9877 -0.2279
  132MOL0     C17330  -0.634   2.936   3.938 -0.0197 -0.6871 -0.2589
  132MOL0     C17331  -0.690   2.861   4.046 -0.4618  0.5012 -0.6682
  132MOL0     C17332  -0.830   2.904   4.094  0.2697 -0.1898  0.7680
  132MOL0     C17333  -0.888   2.808   4.200 -0.1444 -0.5129  0.1854
  132MOL0     C17334  -1.034   2.797   4.220 -0.0001  0.0255  0.4754
  132MOL0     C17335  -1.107   2.701   4.116  0.0852 -0.7668 -0.0252
  132MOL0    Cl17336  -1.286   2.701   4.154 -0.0398 -0.0424  0.3503
  132MOL0     C17337  -0.143   3.268   3.882  0.3469  0.3368 -0.1252
  132MOL0     C17338  -0.041   3.304   3.798 -0.1839  0.3971 -0.6046
  132MOL0     O17339   0.074   3.110   3.542  0.9843  0.4786  0.1988
  132MOL0     C17340   0.256   3.148   3.340  0.1252 -0.3079  0.0631
  132MOL0     C17341   0.376   3.162   3.273 -0.6848  0.0199 -0.0884
  132MOL0     N17342   1.165   3.598   3.040 -0.2350  0.1984  0.0590
  132MOL0     N17343   1.284   3.644   3.057  0.6915 -0.8289  0.3839
  132MOL0     C17344   2.644   3.390   3.324  0.0375 -0.1006 -0.7108
  132MOL0     C17345   2.777   3.365   3.273  0.0955 -0.6010 -0.0628
  132MOL0     C17346   3.116   3.315   3.016  0.3395 -0.5365  0.6706
  132MOL0     C17347   3.189   3.232   3.104  0.0462 -0.7184  1.1122
  132MOL0     C17348   3.326   3.215   3.077  0.2576 -0.0583  0.6968
  132MOL0     C17349   3.389   3.269   2.960 -0.7299  0.4252 -0.6253
  132MOL0     O17350   3.522   3.244   2.929 -0.5236 -0.6865 -1.2781
  132MOL0     C17351   3.594   3.151   3.021  0.0786 -0.7158  0.1874
  132MOL0     C17352   3.734   3.119   2.971 -0.5829 -0.0157 -0.2779
  132MOL0     C17353   3.830   3.231   2.999  0.3435 -0.2969  0.5774
  132MOL0     C17354   3.968   3.178   2.970  0.1711 -0.2946  0.1789
  132MOL0     C17355   3.998   3.177   2.822 -0.8961 -0.1393 -0.4220
  132MOL0     C17356   4.019   3.191   2.704  0.7100  0.3560 -0.0169
  132MOL0     C17357   3.310   3.343   2.874  0.5799  0.4817  0.2561
  132MOL0     C17358   3.181   3.369   2.903  0.3080 -0.1275 -0.4959
  132MOL0     H17359   2.677   3.151   3.019  0.6138  0.0404 -0.5028
  132MOL0     H17360   2.452   3.212   3.112 -2.0005 -1.0155  2.6050
  132MOL0     H17361   2.259   3.253   3.291  0.9130 -0.5921  0.0459
  132MOL0     H17362   2.289   3.372   3.160  1.6177  0.4122  0.7566
  132MOL0     H17363   2.216   3.560   3.316 -2.3259  1.1755 -0.5009
  132MOL0     H17364   2.190   3.442   3.438  0.0583 -1.3666  0.0268
  132MOL0     H17365   2.001   3.342   3.281 -1.2566  0.7247 -0.2948
  132MOL0     H17366   2.057   3.449   3.155  0.0278 -0.3284 -1.2956
  132MOL0     H17367   1.959   3.573   3.414  0.1024  1.6692 -1.0353
  132MOL0     H17368   1.980   3.645   3.259  5.0800 -0.4722  1.3247
  132MOL0     H17369   1.789   3.428   3.319  0.8099 -0.3782 -0.2369
  132MOL0     H17370   1.790   3.524   3.162 -0.7226 -0.1430 -0.1898
  132MOL0     H17371   1.726   3.719   3.296  0.8375 -0.3636 -1.3162
  132MOL0     H17372   1.726   3.624   3.444 -1.9042  1.8951  0.0352
  132MOL0     H17373   1.548   3.484   3.349 -0.2503  1.5595  3.0823
  132MOL0     H17374   1.490   3.652   3.357  0.4581  1.1712 -0.7355
  132MOL0     H17375   1.546   3.494   3.106 -0.6299 -0.5676  0.7068
  132MOL0     H17376   1.547   3.674   3.104  1.7451 -0.0449  2.0647
  132MOL0     H17377   1.313   3.372   3.217  1.3153 -0.4380 -2.8035
  132MOL0     H17378   1.058   3.316   3.202 -1.8397  0.9199  1.8677
  132MOL0     H17379   1.024   3.361   3.030  3.8486 -1.0261 -0.2182
  132MOL0     H17380   0.860   3.529   3.115 -1.1504  0.2062  0.3325
  132MOL0     H17381   0.919   3.496   3.291  1.8911 -1.9499  0.7604
  132MOL0     H17382   0.812   3.293   3.101 -0.1343  1.0935 -0.3925
  132MOL0     H17383   0.836   3.271   3.272  1.5561 -1.9491 -2.8747
  132MOL0     H17384   0.628   3.478   3.183  0.3501 -0.0018 -1.0374
  132MOL0     H17385   0.654   3.409   3.343 -1.0630  1.0982 -0.2630
  132MOL0     H17386   0.451   3.473   3.338 -1.3501  0.7841 -3.3947
  132MOL0     H17387   0.268   3.460   3.481  0.2841  1.1230 -1.8289
  132MOL0     H17388  -0.197   3.315   3.503 -1.1940  0.5522 -0.8299
  132MOL0     H17389  -0.392   3.275   3.645  0.3269 -0.2212 -0.8414
  132MOL0     H17390  -0.398   3.021   3.837 -1.8924 -1.7982  0.0358
  132MOL0     H17391  -0.532   3.130   3.794 -0.6489 -2.1130  0.2942
  132MOL0     H17392  -0.609   3.137   4.006  0.5643  2.0955 -0.6175
  132MOL0     H17393  -0.484   3.020   4.069  0.7579  1.6496 -0.8980
  132MOL0     H17394  -0.568   2.869   3.882 -0.1576 -0.9216 -0.1391
  132MOL0     H17395  -0.718   2.974   3.878 -1.1159 -2.0989  0.3182
  132MOL0     H17396  -0.690   2.759   4.008  0.9789  1.0307 -2.1455
  132MOL0     H17397  -0.620   2.864   4.130  1.2968  0.8585 -2.0963
  132MOL0     H17398  -0.898   2.919   4.009 -0.7776 -1.0824  1.4378
  132MOL0     H17399  -0.819   2.999   4.148  1.5744  0.0928  0.0554
  132MOL0     H17400  -0.847   2.842   4.296 -0.0128 -2.6409  0.9571
  132MOL0     H17401  -0.859   2.703   4.186 -1.5196 -0.9028  0.0665
  132MOL0     H17402  -1.043   2.754   4.321  0.4902 -0.0247  0.4970
  132MOL0     H17403  -1.076   2.898   4.225  0.8980  0.4265  0.0244
  132MOL0     H17404  -1.054   2.606   4.129 -0.3593 -1.0919 -0.5465
  132MOL0     H17405  -1.099   2.738   4.014  1.7038 -2.0883 -0.4238
  132MOL0     H17406  -0.121   3.272   3.988  3.3497  0.7149 -0.6874
  132MOL0     H17407   0.058   3.332   3.835  0.6141 -2.2612 -0.5186
  132MOL0     H17408   0.209   3.050   3.339 -0.4664 -0.3292  4.7819
  132MOL0     H17409   0.401   3.076   3.212 -0.3863 -0.9259  1.3347
  132MOL0     H17410   2.625   3.457   3.406 -0.2713 -1.5264  0.4171
  132MOL0     H17411   2.870   3.403   3.314  0.1796  0.3518 -1.0875
  132MOL0     H17412   3.133   3.178   3.180 -0.8778  0.8489  1.5824
  132MOL0     H17413   3.382   3.144   3.137 -0.6128 -0.4558  1.0456
  132MOL0     H17414   3.541   3.056   3.026 -0.5227 -0.3744  0.4548
  132MOL0     H17415   3.614   3.183   3.124 -0.3897  0.0459  0.0570
  132MOL0     H17416   3.769   3.026   3.017  2.0984  1.1306  0.1973
  132MOL0     H17417   3.731   3.094   2.864  0.9274  2.2959 -0.9302
  132MOL0     H17418   3.828   3.281   3.097  0.7767  2.4596 -0.7229
  132MOL0     H17419   3.807   3.309   2.926  2.6674 -0.8324 -0.8467
  132MOL0     H17420   4.045   3.237   3.020  1.3070 -2.2340  0.8538
  132MOL0     H17421   3.988   3.078   3.010  1.3606  0.6038  1.9579
  132MOL0     H17422   4.027   3.196   2.597 -1.5961 -0.7923 -0.3139
  132MOL0     H17423   3.352   3.378   2.780  0.4661  0.5456  0.2286
  132MOL0     H17424   3.120   3.427   2.834  1.9262  0.8232 -1.1847
  133MOL0     O17425   8.819   7.869   6.370  0.2862 -0.9931  0.0956
  133MOL0     C17426   8.899   7.779   6.403  0.5595 -0.0842  0.3440
  133MOL0     O17427   8.867   7.641   6.408 -0.3193  0.0840 -0.2786
  133MOL0     C17428   8.741   7.606   6.379  0.3479  0.6290 -0.4430
  133MOL0     C17429   8.651   7.570   6.480  0.0495 -1.1238  0.5026
  133MOL0     C17430   8.513   7.556   6.446 -0.4879 -1.2043 -0.2127
  133MOL0     C17431   8.464   7.581   6.318  0.1854  0.4142 -0.8383
  133MOL0     O17432   8.345   7.533   6.271 -0.7279  0.2479 -0.3152
  133MOL0     C17433   8.226   7.588   6.320  0.4014 -0.0795 -0.8147
  133MOL0     C17434   8.123   7.481   6.324  0.3244 -0.2994 -0.6667
  133MOL0     C17435   7.987   7.530   6.275  0.0048 -1.0973  0.2283
  133MOL0     C17436   7.882   7.421   6.280  0.9439  0.8459 -0.5482
  133MOL0     C17437   7.741   7.479   6.294  0.3242 -0.3453 -0.8586
  133MOL0     C17438   7.702   7.565   6.175 -1.1573  0.0136  1.1809
  133MOL0     C17439   7.566   7.533   6.110 -0.5120 -0.3071  1.1099
  133MOL0     C17440   7.444   7.551   6.206 -0.6607  0.6604 -0.2828
  133MOL0     N17441   7.313   7.566   6.140 -0.8034  0.6116 -0.0292
  133MOL0     C17442   7.257   7.686   6.122  0.1741 -0.4715  0.4344
  133MOL0     C17443   7.166   7.667   6.030  0.0074  0.1955 -0.7401
  133MOL0     C17444   7.073   7.768   5.970 -1.0183  0.7934 -0.5895
  133MOL0     C17445   6.963   7.798   6.061  0.2584 -0.1502 -0.7704
  133MOL0     C17446   6.857   7.886   5.992 -0.6028 -0.2782 -0.3019
  133MOL0     C17447   6.730   7.921   6.078 -0.7440  0.5965  0.2438
  133MOL0     O17448   6.651   8.012   5.997 -0.0040  0.5834  0.1756
  133MOL0     C17449   6.546   8.070   6.068 -0.1900  0.6303 -0.2494
  133MOL0     C17450   6.438   8.126   5.998  0.4705 -0.0833  0.1904
  133MOL0     C17451   6.342   8.201   6.059 -0.0067  0.5175  0.9030
  133MOL0     C17452   6.344   8.224   6.199 -0.4249 -0.4664 -0.1908
  133MOL0     C17453   6.233   8.298   6.265  0.1117 -0.5785  0.1899
  133MOL0     O17454   6.249   8.326   6.399 -0.1414 -0.2475  0.1928
  133MOL0     C17455   6.129   8.373   6.458  0.1663  0.5690  0.1003
  133MOL0     C17456   6.004   8.311   6.437  0.1703 -0.0917  0.3045
  133MOL0     C17457   5.884   8.357   6.495 -0.3502 -0.8839 -0.7666
  133MOL0     C17458   5.888   8.474   6.575  0.1281  0.2001  0.3737
  133MOL0     O17459   5.779   8.509   6.656 -0.4956  0.0343 -0.1892
  133MOL0     C17460   5.727   8.641   6.626  0.0121  0.5575  0.5954
  133MOL0     C17461   5.583   8.616   6.654  0.0937 -0.2943 -0.4727
  133MOL0     C17462   5.509   8.745   6.652  0.4032  0.6482  0.0254
  133MOL0     C17463   5.362   8.733   6.706  0.1493  0.1619  0.1173
  133MOL0     C17464   5.276   8.655   6.611  0.0003 -0.2652  0.5377
  133MOL0     C17465   5.131   8.641   6.662  0.0003  0.5264  0.4556
  133MOL0     C17466   5.054   8.773   6.666 -0.7083  0.8897 -0.5167
  133MOL0     C17467   4.906   8.756   6.698 -0.5489  0.0145 -1.1915
  133MOL0    Cl17468   4.889   8.686   6.862 -0.3717 -0.1050  0.3816
  133MOL0     C17469   6.012   8.529   6.599 -0.1427  0.1370 -0.4171
  133MOL0     C17470   6.132   8.477   6.549 -0.2024 -0.1756  0.3808
  133MOL0     O17471   6.143   8.339   6.192 -0.2597 -0.6917  0.7136
  133MOL0     C17472   6.446   8.164   6.266 -0.6185  0.2338  0.6886
  133MOL0     C17473   6.554   8.093   6.210 -0.3315 -0.6586 -0.6450
  133MOL0     N17474   7.156   7.530   5.998 -0.3467 -1.5892 -0.5487
  133MOL0     N17475   7.250   7.471   6.066  0.3157  0.1601 -0.8295
  133MOL0     C17476   8.556   7.614   6.221 -0.4547  0.0044  0.6175
  133MOL0     C17477   8.693   7.627   6.245  0.5932 -0.5814  0.0912
  133MOL0     C17478   9.041   7.818   6.434  0.2131 -1.0292  0.5498
  133MOL0     C17479   9.071   7.948   6.479  0.4422  0.7779  0.7694
  133MOL0     C17480   9.195   7.989   6.519 -0.6820 -0.2400  0.3780
  133MOL0     C17481   9.303   7.903   6.516  0.0238  0.1340 -0.7319
  133MOL0     O17482   9.431   7.915   6.563  0.4581 -0.1450 -0.6115
  133MOL0     C17483   9.468   8.022   6.651  0.4899  0.1968  0.6360
  133MOL0     C17484   9.563   8.114   6.575 -0.5124 -0.2771 -0.2180
  133MOL0     C17485   9.634   8.197   6.676 -0.2125  0.1738  0.2263
  133MOL0     C17486   9.716   8.312   6.605 -0.5408  0.5468  0.4252
  133MOL0     C17487   9.794   8.392   6.701  1.2334  0.1304  0.5135
  133MOL0     C17488   9.868   8.463   6.768 -0.1722 -0.1044  0.3589
  133MOL0     C17489   9.277   7.773   6.459  0.0488 -0.0964  0.5289
  133MOL0     C17490   9.148   7.737   6.419 -0.8627  0.2740  0.4394
  133MOL0     H17491   8.689   7.563   6.581  1.5337 -2.0967 -0.0777
  133MOL0     H17492   8.445   7.512   6.518  1.4127 -3.0714  0.5836
  133MOL0     H17493   8.194   7.668   6.252  0.2941 -0.4767 -1.2403
  133MOL0     H17494   8.241   7.628   6.420 -1.4969  0.5569 -0.7552
  133MOL0     H17495   8.100   7.467   6.430  3.7654 -1.7525  0.0080
  133MOL0     H17496   8.161   7.392   6.274  0.3000  0.1253 -1.4479
  133MOL0     H17497   7.982   7.561   6.171 -1.3178  0.1055  0.6244
  133MOL0     H17498   7.955   7.618   6.331 -1.4129 -0.5263 -1.3936
  133MOL0     H17499   7.887   7.356   6.192 -3.1406  0.0647 -0.4133
  133MOL0     H17500   7.906   7.353   6.362  0.5796  1.5175  0.1282
  133MOL0     H17501   7.730   7.535   6.388  1.3939 -0.3081 -0.7483
  133MOL0     H17502   7.665   7.401   6.304  0.6590 -0.3927  2.9394
  133MOL0     H17503   7.771   7.554   6.090 -2.9931 -1.1184 -0.2422
  133MOL0     H17504   7.692   7.669   6.208  2.6356  1.3238 -1.1253
  133MOL0     H17505   7.559   7.611   6.033 -1.0921 -0.9921  0.4443
  133MOL0     H17506   7.561   7.437   6.056 -2.5269 -0.7172  1.9211
  133MOL0     H17507   7.467   7.643   6.262 -0.9629  1.3018 -1.1937
  133MOL0     H17508   7.440   7.470   6.279  0.5801  1.0239  0.2354
  133MOL0     H17509   7.294   7.781   6.160  2.5491 -1.7400  1.5465
  133MOL0     H17510   7.031   7.725   5.878 -2.7092  1.4438 -0.1503
  133MOL0     H17511   7.117   7.866   5.951  0.9373  0.1498  0.3709
  133MOL0     H17512   7.004   7.838   6.154  0.1317  0.3827 -0.9409
  133MOL0     H17513   6.920   7.699   6.077 -0.0913  0.3384  1.7501
  133MOL0     H17514   6.894   7.986   5.968 -0.1629 -0.7850 -1.8440
  133MOL0     H17515   6.818   7.834   5.904  0.7495 -0.6272 -0.7232
  133MOL0     H17516   6.767   7.961   6.173 -2.1279  0.0045  1.0614
  133MOL0     H17517   6.679   7.829   6.107  0.3242 -1.4477 -3.5868
  133MOL0     H17518   6.442   8.133   5.890 -1.0760 -1.7032 -0.0261
  133MOL0     H17519   6.263   8.243   5.998 -1.8191 -1.0407  2.0701
  133MOL0     H17520   5.981   8.226   6.373 -1.7336  0.9191 -0.4461
  133MOL0     H17521   5.795   8.301   6.472 -0.3115 -0.0621 -3.1908
  133MOL0     H17522   5.736   8.668   6.520 -1.0131 -0.7604  0.1447
  133MOL0     H17523   5.772   8.718   6.690  0.9740 -0.1166  0.7463
  133MOL0     H17524   5.567   8.569   6.752  1.1092 -0.9386 -0.6075
  133MOL0     H17525   5.544   8.554   6.573 -1.9888 -0.3257  0.4891
  133MOL0     H17526   5.510   8.792   6.554 -1.2049  3.5126  1.2570
  133MOL0     H17527   5.557   8.812   6.724 -1.8168  1.1643  1.1419
  133MOL0     H17528   5.350   8.685   6.803 -1.3179 -2.2116 -1.1490
  133MOL0     H17529   5.326   8.836   6.711 -1.9384 -0.3460 -2.1994
  133MOL0     H17530   5.319   8.554   6.612  3.3459  1.0351  0.0627
  133MOL0     H17531   5.280   8.688   6.507 -0.3471 -0.2642  0.5236
  133MOL0     H17532   5.132   8.601   6.763 -1.2266 -0.2655  0.1814
  133MOL0     H17533   5.073   8.581   6.591 -0.2083 -1.2750  2.0831
  133MOL0     H17534   5.105   8.835   6.741 -0.1903  1.2632 -1.1614
  133MOL0     H17535   5.073   8.823   6.570  0.2877 -0.4225 -1.0365
  133MOL0     H17536   4.866   8.692   6.620  3.5137 -1.4633 -2.3211
  133MOL0     H17537   4.854   8.853   6.696  0.1801  0.4837  0.5366
  133MOL0     H17538   6.013   8.617   6.662 -0.9257 -0.8020  0.9686
  133MOL0     H17539   6.227   8.526   6.562  0.4024 -0.0821 -3.2780
  133MOL0     H17540   6.440   8.179   6.374 -1.8296  4.3077  0.2122
  133MOL0     H17541   6.638   8.071   6.275 -1.0436 -0.5574  0.3169
  133MOL0     H17542   8.518   7.627   6.120  1.4569 -0.9423 -0.2654
  133MOL0     H17543   8.762   7.667   6.172 -0.6856  0.3784 -0.6346
  133MOL0     H17544   8.996   8.027   6.473  0.8586  1.0853 -1.5756
  133MOL0     H17545   9.201   8.095   6.543 -2.1278 -0.4216  1.6783
  133MOL0     H17546   9.508   7.984   6.746  2.8178 -0.6354 -0.6062
  133MOL0     H17547   9.383   8.086   6.678 -0.1130 -0.9064  1.4855
  133MOL0     H17548   9.636   8.050   6.524 -1.1314 -0.0926 -1.3852
  133MOL0     H17549   9.518   8.179   6.499 -1.2159  0.1284  0.5255
  133MOL0     H17550   9.702   8.133   6.733 -1.1321  0.6662  1.9466
  133MOL0     H17551   9.568   8.247   6.748 -1.3608 -0.1057 -0.6028
  133MOL0     H17552   9.786   8.254   6.543 -1.7243 -0.4918  0.0252
  133MOL0     H17553   9.658   8.376   6.537 -0.2924 -1.4020 -1.7671
  133MOL0     H17554   9.931   8.528   6.826 -2.7914  0.2370  3.0751
  133MOL0     H17555   9.359   7.702   6.454  0.2655  0.2448 -1.9948
  133MOL0     H17556   9.137   7.633   6.389 -0.4921 -0.0644  1.4705
  134MOL0     O17557   8.323   5.424   6.475  0.3000  0.3953  0.4801
  134MOL0     C17558   8.388   5.375   6.567  0.1778  0.4122  0.1246
  134MOL0     O17559   8.338   5.278   6.648 -0.5057 -0.4530 -0.4401
  134MOL0     C17560   8.214   5.227   6.656  0.7269 -1.1390 -0.9210
  134MOL0     C17561   8.093   5.282   6.614  0.0362 -0.3419  0.2687
  134MOL0     C17562   7.982   5.200   6.608  0.0678 -0.1553 -0.1714
  134MOL0     C17563   7.979   5.070   6.649 -0.3755  0.2507  0.6855
  134MOL0     O17564   7.865   5.000   6.652  0.0721  0.4178  0.7208
  134MOL0     C17565   7.862   4.879   6.572 -0.8439  0.1301 -0.1184
  134MOL0     C17566   7.718   4.867   6.512  0.8037 -0.7201 -0.0803
  134MOL0     C17567   7.610   4.863   6.624 -0.6210  0.2101  0.2663
  134MOL0     C17568   7.484   4.794   6.577 -0.1689 -0.1068  0.7773
  134MOL0     C17569   7.375   4.902   6.535  0.2487  0.0024 -0.3032
  134MOL0     C17570   7.275   4.830   6.442  0.3325 -0.0434 -0.7248
  134MOL0     C17571   7.175   4.924   6.382 -0.5473  0.5547 -0.4113
  134MOL0     C17572   7.095   5.004   6.488 -1.4107 -0.0148 -0.1141
  134MOL0     N17573   6.986   4.918   6.545  0.2780  0.4599  0.2349
  134MOL0     C17574   6.861   4.917   6.493 -0.0856 -0.1157  0.1393
  134MOL0     C17575   6.794   4.823   6.567 -0.7334  0.1097  1.0600
  134MOL0     C17576   6.652   4.777   6.546  0.2976  0.1252 -0.4872
  134MOL0     C17577   6.564   4.805   6.666  0.7863  0.4693  0.1488
  134MOL0     C17578   6.420   4.761   6.650 -0.2648  0.5190  0.1563
  134MOL0     C17579   6.405   4.605   6.631  0.6571 -0.5639 -0.3618
  134MOL0     O17580   6.374   4.547   6.761  0.0087 -0.2394 -0.3442
  134MOL0     C17581   6.245   4.490   6.781 -0.4601 -0.2664 -0.3411
  134MOL0     C17582   6.240   4.371   6.857 -0.4876 -1.3965 -0.6765
  134MOL0     C17583   6.118   4.306   6.872 -0.6159 -0.1984 -0.1039
  134MOL0     C17584   6.001   4.346   6.808  0.1583  0.8273  0.6961
  134MOL0     C17585   5.880   4.250   6.811 -0.8138 -0.1680 -0.2522
  134MOL0     O17586   5.777   4.302   6.742  0.5660 -0.2381  0.1598
  134MOL0     C17587   5.668   4.217   6.696 -0.8808  0.3193 -0.7474
  134MOL0     C17588   5.676   4.079   6.682 -0.6118  0.2023  0.2572
  134MOL0     C17589   5.569   4.009   6.633 -0.9301  0.5718  0.0557
  134MOL0     C17590   5.449   4.064   6.610  0.3869 -0.2765 -0.1429
  134MOL0     O17591   5.343   4.010   6.554  0.2263  0.0892  0.8021
  134MOL0     C17592   5.356   3.879   6.509  0.2319 -0.7020  0.3976
  134MOL0     C17593   5.284   3.848   6.373  1.0818  0.0519  0.0076
  134MOL0     C17594   5.138   3.823   6.376  0.2193  0.0945  0.1815
  134MOL0     C17595   5.069   3.800   6.244 -0.3805 -0.4204 -0.9211
  134MOL0     C17596   4.926   3.756   6.254 -0.3478 -0.4412 -0.0798
  134MOL0     C17597   4.870   3.768   6.110 -1.0586 -0.2934  0.1704
  134MOL0     C17598   4.720   3.779   6.123  0.0200  0.5864  0.7477
  134MOL0     C17599   4.642   3.764   5.991 -0.7685  0.4788  0.3874
  134MOL0    Cl17600   4.471   3.734   6.026  0.5160 -0.0783 -0.4080
  134MOL0     C17601   5.437   4.203   6.630 -0.4550 -1.2388 -0.6729
  134MOL0     C17602   5.547   4.280   6.670  0.2161 -1.0044 -0.0123
  134MOL0     O17603   5.878   4.144   6.881  0.1771 -0.0971  0.2813
  134MOL0     C17604   6.005   4.473   6.742  0.1116 -0.4374  0.8100
  134MOL0     C17605   6.129   4.541   6.726 -0.5215 -0.2827  0.4007
  134MOL0     N17606   6.883   4.772   6.660 -0.1898 -0.1360  0.6077
  134MOL0     N17607   7.003   4.825   6.647 -0.9802  0.3350 -0.3887
  134MOL0     C17608   8.102   5.018   6.699 -0.1582 -0.3946 -0.0749
  134MOL0     C17609   8.214   5.089   6.695  0.4983 -0.3696  0.6189
  134MOL0     C17610   8.535   5.409   6.574 -0.1085 -0.5073  0.3073
  134MOL0     C17611   8.591   5.488   6.469 -0.0578  0.7089 -0.1160
  134MOL0     C17612   8.726   5.505   6.467  0.4621 -0.6743 -0.3623
  134MOL0     C17613   8.812   5.451   6.572 -0.7269  0.2049 -0.0392
  134MOL0     O17614   8.947   5.458   6.572 -0.3406 -0.3794  0.5081
  134MOL0     C17615   9.008   5.534   6.476 -0.3335  0.2406  0.6176
  134MOL0     C17616   9.158   5.549   6.503  0.2780  0.0207  0.1267
  134MOL0     C17617   9.205   5.677   6.582 -0.2465  0.2336  0.3518
  134MOL0     C17618   9.113   5.712   6.703 -0.5430  0.1098  0.1599
  134MOL0     C17619   9.108   5.601   6.796 -0.0937 -0.2503  0.6035
  134MOL0     C17620   9.093   5.489   6.843 -0.5029 -0.4219 -1.0327
  134MOL0     C17621   8.757   5.391   6.682  0.4371 -0.8505 -0.7803
  134MOL0     C17622   8.621   5.367   6.678  0.4254 -0.2485  0.0023
  134MOL0     H17623   8.087   5.380   6.568 -2.8297 -0.6049 -0.0623
  134MOL0     H17624   7.892   5.244   6.566  2.0337  2.5725 -1.8912
  134MOL0     H17625   7.889   4.789   6.628  0.0779 -1.0011 -2.3084
  134MOL0     H17626   7.928   4.892   6.486 -0.5024 -0.7375  0.0108
  134MOL0     H17627   7.712   4.777   6.451 -2.9657 -0.7803  0.1145
  134MOL0     H17628   7.700   4.950   6.443  0.3981 -0.3640  0.4426
  134MOL0     H17629   7.601   4.963   6.669  1.6931  0.8247 -0.5208
  134MOL0     H17630   7.635   4.796   6.707  2.4122  2.2840  1.1775
  134MOL0     H17631   7.507   4.727   6.493  2.5165  0.9181  0.6117
  134MOL0     H17632   7.444   4.735   6.660 -1.3805  0.6299  0.7502
  134MOL0     H17633   7.424   4.991   6.494 -0.0606  1.2684  1.9384
  134MOL0     H17634   7.334   4.946   6.626  1.8637  2.5591 -0.7141
  134MOL0     H17635   7.226   4.757   6.506  2.1486  0.5254  1.4269
  134MOL0     H17636   7.335   4.784   6.363 -1.6000  0.3365 -2.5152
  134MOL0     H17637   7.225   4.991   6.312 -1.5334 -0.9020 -2.6335
  134MOL0     H17638   7.103   4.859   6.330 -0.0222 -2.1444  1.9707
  134MOL0     H17639   7.049   5.082   6.427 -0.3507  0.0183 -0.8972
  134MOL0     H17640   7.157   5.042   6.570 -1.3727 -0.5856  0.1226
  134MOL0     H17641   6.824   4.985   6.417 -0.0119  0.4530  0.6113
  134MOL0     H17642   6.663   4.669   6.541 -0.7830 -0.1483  1.8926
  134MOL0     H17643   6.612   4.823   6.455  1.1975  0.4920 -0.7136
  134MOL0     H17644   6.569   4.913   6.684 -1.8031  0.7488 -0.3911
  134MOL0     H17645   6.600   4.747   6.751 -3.6966 -3.4968 -0.2241
  134MOL0     H17646   6.374   4.791   6.745  2.6769  0.6272  1.6650
  134MOL0     H17647   6.382   4.827   6.571  0.4314 -0.9996 -1.5056
  134MOL0     H17648   6.492   4.562   6.581  1.6848  2.3408 -1.2833
  134MOL0     H17649   6.323   4.583   6.562 -0.9422 -0.7053  1.4961
  134MOL0     H17650   6.333   4.345   6.907  0.2924 -0.8252 -1.7811
  134MOL0     H17651   6.126   4.213   6.926  2.0279  0.0611  0.0716
  134MOL0     H17652   5.767   4.021   6.690 -0.2391  0.8376  0.6942
  134MOL0     H17653   5.593   3.903   6.630 -1.6489  0.3300  1.8970
  134MOL0     H17654   5.324   3.807   6.585 -2.4347 -2.3607 -2.0817
  134MOL0     H17655   5.461   3.865   6.484  0.5732  1.9783 -0.0087
  134MOL0     H17656   5.325   3.768   6.310 -2.6978  0.4632 -3.4258
  134MOL0     H17657   5.292   3.936   6.308 -1.1131  0.3017  0.0258
  134MOL0     H17658   5.091   3.911   6.421  2.0596  1.6321 -0.7678
  134MOL0     H17659   5.113   3.739   6.442 -2.1934  1.5818  1.3120
  134MOL0     H17660   5.066   3.896   6.192 -1.7361 -0.0255 -0.1547
  134MOL0     H17661   5.135   3.730   6.192  1.3592 -1.5294  2.4930
  134MOL0     H17662   4.872   3.833   6.309 -0.5086 -1.5762  1.4062
  134MOL0     H17663   4.913   3.662   6.309 -3.8243 -1.0329 -1.6871
  134MOL0     H17664   4.904   3.692   6.038 -0.2428 -0.1882  0.4309
  134MOL0     H17665   4.908   3.858   6.061 -0.8381  0.7837  2.2191
  134MOL0     H17666   4.686   3.703   6.195  0.6519  0.0023  0.4390
  134MOL0     H17667   4.700   3.878   6.163  1.5774  1.2272  0.0281
  134MOL0     H17668   4.682   3.684   5.929  0.4695  2.3571 -1.3818
  134MOL0     H17669   4.657   3.857   5.934  0.1934  0.0403 -0.1042
  134MOL0     H17670   5.340   4.247   6.611 -1.3494 -2.9512 -0.2328
  134MOL0     H17671   5.531   4.385   6.692  0.4961 -0.6265 -1.4821
  134MOL0     H17672   5.915   4.504   6.690  1.0229  3.5857  1.3247
  134MOL0     H17673   6.139   4.629   6.664  0.5406  0.6784  1.8596
  134MOL0     H17674   8.121   4.923   6.748  3.5009 -0.4134 -1.2489
  134MOL0     H17675   8.313   5.056   6.726  0.0925 -1.5501  0.7110
  134MOL0     H17676   8.534   5.530   6.387  0.4125  3.0958  0.6961
  134MOL0     H17677   8.768   5.570   6.392  0.1507 -0.0651 -0.0146
  134MOL0     H17678   8.974   5.638   6.478  0.3255  0.4759  2.7550
  134MOL0     H17679   8.995   5.517   6.369 -2.0123  2.6571  0.3454
  134MOL0     H17680   9.180   5.455   6.554 -0.1819 -0.9704 -1.4154
  134MOL0     H17681   9.219   5.550   6.412 -0.2519  0.5500 -0.2289
  134MOL0     H17682   9.203   5.760   6.511 -0.6185 -0.2143 -0.1600
  134MOL0     H17683   9.306   5.655   6.620  0.2923  0.0165 -1.1279
  134MOL0     H17684   9.165   5.796   6.751  0.0336  0.7396 -1.4986
  134MOL0     H17685   9.011   5.742   6.679 -0.4789 -0.1711 -0.4850
  134MOL0     H17686   9.076   5.386   6.869 -0.9866  0.1013  0.9527
  134MOL0     H17687   8.824   5.368   6.764  0.2154 -0.3649 -0.4551
  134MOL0     H17688   8.576   5.323   6.767 -3.6801 -1.3037 -2.2989
  135MOL0     O17689  10.473   6.361  10.819  0.5204 -0.3692  0.6049
  135MOL0     C17690  10.506   6.323  10.709 -0.6469 -0.6477  0.2203
  135MOL0     O17691  10.434   6.249  10.614 -0.6472 -0.8811  0.6850
  135MOL0     C17692  10.316   6.190  10.638 -0.7476 -0.7162 -0.0788
  135MOL0     C17693  10.281   6.142  10.761 -0.3146  0.3119 -0.2245
  135MOL0     C17694  10.147   6.093  10.777 -0.1991 -1.2182  0.1923
  135MOL0     C17695  10.057   6.092  10.673  0.3889  0.5179  0.9555
  135MOL0     O17696   9.944   6.011  10.681 -0.1101 -0.0114 -0.5029
  135MOL0     C17697   9.828   6.055  10.613  0.1843  0.7387  0.1231
  135MOL0     C17698   9.695   6.025  10.691  0.0275 -0.5768  0.5014
  135MOL0     C17699   9.570   6.095  10.619  0.3060 -0.1352 -0.3017
  135MOL0     C17700   9.436   6.040  10.666  0.5558 -0.2884 -0.6602
  135MOL0     C17701   9.328   6.137  10.615 -0.3128  0.2716 -0.3805
  135MOL0     C17702   9.195   6.082  10.656  0.0353 -0.5018 -0.0799
  135MOL0     C17703   9.083   6.138  10.578 -1.0260  0.9843  0.4763
  135MOL0     C17704   9.083   6.291  10.591 -0.0799  0.8432 -0.0837
  135MOL0     N17705   8.948   6.343  10.596 -0.7736 -0.2303 -0.0509
  135MOL0     C17706   8.917   6.472  10.639  0.1916 -0.1880 -0.0397
  135MOL0     C17707   8.790   6.482  10.618 -0.4376 -0.6721 -0.3697
  135MOL0     C17708   8.716   6.612  10.629  0.1582 -0.1277 -0.9694
  135MOL0     C17709   8.569   6.609  10.668 -0.4070  0.0762  0.0191
  135MOL0     C17710   8.528   6.502  10.775 -0.0305 -1.0567  0.6331
  135MOL0     C17711   8.419   6.556  10.871 -0.3331 -0.1810 -0.2468
  135MOL0     O17712   8.296   6.586  10.811  0.2526 -0.0076  0.7756
  135MOL0     C17713   8.199   6.485  10.788 -0.0299 -0.1910 -0.2117
  135MOL0     C17714   8.072   6.540  10.779  0.6858 -0.9935  0.1091
  135MOL0     C17715   7.959   6.471  10.761 -0.4389 -0.6849 -0.3704
  135MOL0     C17716   7.963   6.328  10.737  1.1639 -0.2577  0.0724
  135MOL0     C17717   7.836   6.251  10.721 -1.1044  0.2011 -0.2633
  135MOL0     O17718   7.732   6.325  10.697 -0.5908 -0.3217 -0.4146
  135MOL0     C17719   7.608   6.271  10.659 -0.3885 -0.6273 -0.2479
  135MOL0     C17720   7.494   6.298  10.738 -0.4399  0.2780  0.1903
  135MOL0     C17721   7.365   6.249  10.692 -0.0449 -0.0614  0.2631
  135MOL0     C17722   7.354   6.176  10.566 -0.2639  0.3958 -0.8620
  135MOL0     O17723   7.239   6.109  10.545 -0.1751  0.2976  0.7968
  135MOL0     C17724   7.232   6.048  10.413  0.6561  0.0844 -0.0823
  135MOL0     C17725   7.090   5.995  10.371  0.2029  0.5677  0.2786
  135MOL0     C17726   7.096   5.924  10.237 -0.2305 -0.0263 -0.6319
  135MOL0     C17727   6.967   5.928  10.155 -0.9033  0.4141 -1.1430
  135MOL0     C17728   6.999   5.837  10.039  0.7547  0.1403  0.7536
  135MOL0     C17729   6.895   5.869   9.918 -0.7768  0.0156  0.7604
  135MOL0     C17730   6.927   5.767   9.816 -0.5187 -0.3745 -0.3652
  135MOL0     C17731   6.838   5.771   9.698  0.7821 -0.2902  0.6958
  135MOL0    Cl17732   6.685   5.712   9.750 -0.5088  0.6631  0.3136
  135MOL0     C17733   7.474   6.161  10.491  0.4934  1.2137 -0.7031
  135MOL0     C17734   7.591   6.203  10.535 -0.0006  0.2875 -0.1940
  135MOL0     O17735   7.845   6.132  10.721 -0.3483 -0.5639  0.4065
  135MOL0     C17736   8.093   6.269  10.753 -0.0004  0.1029  1.1009
  135MOL0     C17737   8.208   6.343  10.779  0.1113 -0.5050  0.6179
  135MOL0     N17738   8.739   6.368  10.573  0.3822 -0.2173  0.0151
  135MOL0     N17739   8.835   6.275  10.561  0.3136  0.5765 -0.7121
  135MOL0     C17740  10.101   6.145  10.547  0.3481 -0.1302 -0.8511
  135MOL0     C17741  10.235   6.188  10.532  0.2401 -0.6687  0.4012
  135MOL0     C17742  10.648   6.364  10.666 -0.1560 -0.3280 -0.8601
  135MOL0     C17743  10.664   6.397  10.531  0.4097 -1.0489 -0.3492
  135MOL0     C17744  10.790   6.449  10.496 -0.6170 -0.5240 -0.1700
  135MOL0     C17745  10.892   6.472  10.592 -0.3226  0.4437 -0.6489
  135MOL0     O17746  11.010   6.535  10.556  0.1868 -0.0836  0.2258
  135MOL0     C17747  11.048   6.545  10.416  0.0881  0.1064 -0.2743
  135MOL0     C17748  11.184   6.612  10.397  0.8818  0.0190 -0.1542
  135MOL0     C17749  11.297   6.536  10.459 -0.3038 -0.1241  0.0894
  135MOL0     C17750  11.427   6.570  10.400 -1.6324 -0.6658  0.4081
  135MOL0     C17751  11.519   6.470  10.459  0.0593  0.1209  0.4559
  135MOL0     C17752  11.609   6.405  10.505  0.9547 -0.3286 -0.4244
  135MOL0     C17753  10.866   6.428  10.726  0.6398  0.0215 -0.4822
  135MOL0     C17754  10.747   6.370  10.765 -1.1966  0.1471  0.1129
  135MOL0     H17755  10.356   6.136  10.840  1.5958 -1.5136 -2.0363
  135MOL0     H17756  10.121   6.044  10.871  2.1199 -0.7531  1.1565
  135MOL0     H17757   9.820   6.001  10.519  2.0924  0.0722  0.2867
  135MOL0     H17758   9.826   6.162  10.590  0.4720  0.5951 -0.5841
  135MOL0     H17759   9.692   6.074  10.789 -0.0074  2.7238 -1.0161
  135MOL0     H17760   9.681   5.917  10.700  4.4904 -1.3219  0.6298
  135MOL0     H17761   9.570   6.084  10.510  0.5017 -1.9573 -0.1596
  135MOL0     H17762   9.566   6.202  10.638 -0.8855  0.0491 -1.5291
  135MOL0     H17763   9.416   5.942  10.622 -2.0450 -0.2125  0.1842
  135MOL0     H17764   9.428   6.030  10.774 -1.6795  2.2401 -0.4877
  135MOL0     H17765   9.335   6.145  10.506 -1.5736 -1.7105 -0.6545
  135MOL0     H17766   9.347   6.239  10.649  2.5921 -0.5789  0.7819
  135MOL0     H17767   9.177   6.111  10.760 -0.9372  1.9036 -0.8281
  135MOL0     H17768   9.201   5.973  10.653  3.0668 -0.4805  1.6684
  135MOL0     H17769   9.097   6.108  10.474 -0.5928  0.7049  0.6119
  135MOL0     H17770   8.987   6.097  10.611 -1.8925  0.8214 -2.0554
  135MOL0     H17771   9.135   6.330  10.503  1.4106 -0.5830  0.1166
  135MOL0     H17772   9.129   6.332  10.681 -0.3298  0.4552  0.2252
  135MOL0     H17773   8.980   6.556  10.667 -0.8253  0.1903  1.2263
  135MOL0     H17774   8.728   6.666  10.534  1.2644 -1.2258 -1.4842
  135MOL0     H17775   8.765   6.664  10.711  0.7563 -1.1684 -0.6503
  135MOL0     H17776   8.502   6.591  10.584 -1.0353  1.9095  0.0976
  135MOL0     H17777   8.545   6.706  10.712  0.2522  0.3189 -0.1434
  135MOL0     H17778   8.516   6.404  10.729  2.3875 -1.1299  0.0340
  135MOL0     H17779   8.614   6.492  10.842  0.5067  1.0370  0.3384
  135MOL0     H17780   8.440   6.659  10.900 -5.0308  0.7764  0.4778
  135MOL0     H17781   8.409   6.487  10.956 -0.9725 -0.2891 -0.4034
  135MOL0     H17782   8.074   6.649  10.786  2.0129 -0.8885 -1.3329
  135MOL0     H17783   7.872   6.534  10.775  1.4113  2.5533 -2.1107
  135MOL0     H17784   7.504   6.359  10.828  0.3811 -0.5630  0.6885
  135MOL0     H17785   7.270   6.252  10.746  0.0949  0.0189  0.5099
  135MOL0     H17786   7.290   5.955  10.420  1.6217  0.7342  0.7844
  135MOL0     H17787   7.262   6.121  10.337 -3.2238  0.2166 -1.6973
  135MOL0     H17788   7.031   6.087  10.364 -1.9891 -0.6461  1.4512
  135MOL0     H17789   7.054   5.919  10.441  0.4522  0.8767  0.7515
  135MOL0     H17790   7.124   5.819  10.251  0.6779  0.4070  1.1060
  135MOL0     H17791   7.174   5.969  10.176  0.9645 -2.6923 -1.1989
  135MOL0     H17792   6.893   5.883  10.223  0.9027  2.1255  2.2070
  135MOL0     H17793   6.938   6.031  10.130 -1.4812  0.6533  0.3602
  135MOL0     H17794   6.986   5.732  10.069  0.1434 -0.5851 -1.8296
  135MOL0     H17795   7.102   5.847  10.003  0.9253 -1.5935  0.6441
  135MOL0     H17796   6.908   5.971   9.881  0.5664  0.6067  2.6942
  135MOL0     H17797   6.791   5.859   9.952 -1.1870 -1.8409 -0.8515
  135MOL0     H17798   7.034   5.771   9.791  0.2187 -1.4390  2.2339
  135MOL0     H17799   6.917   5.672   9.869 -1.6710  0.7789  1.6016
  135MOL0     H17800   6.877   5.726   9.606 -1.2299  3.1537 -2.1135
  135MOL0     H17801   6.825   5.877   9.673 -1.1539 -0.9432 -1.2976
  135MOL0     H17802   7.485   6.105  10.399  0.5147  1.5430 -0.9038
  135MOL0     H17803   7.682   6.190  10.478  0.6701 -0.5757  1.0019
  135MOL0     H17804   8.106   6.162  10.740 -1.6681 -0.4486  3.3114
  135MOL0     H17805   8.305   6.294  10.789 -0.2812 -2.3055 -2.9168
  135MOL0     H17806  10.032   6.142  10.464 -1.3814  0.1302  0.5118
  135MOL0     H17807  10.264   6.227  10.435 -1.6567  1.5118  0.6291
  135MOL0     H17808  10.585   6.387  10.457  1.0305 -1.7058 -0.9374
  135MOL0     H17809  10.799   6.479  10.392 -1.6743 -0.4385 -0.2458
  135MOL0     H17810  10.972   6.608  10.369  1.6661  1.2222 -1.4573
  135MOL0     H17811  11.044   6.443  10.376 -0.6603  0.4154 -1.0067
  135MOL0     H17812  11.189   6.622  10.288  0.7732 -1.4139 -0.3092
  135MOL0     H17813  11.183   6.708  10.449  2.4190  0.2503 -0.5184
  135MOL0     H17814  11.284   6.430  10.437  2.1272 -0.1282 -1.7544
  135MOL0     H17815  11.304   6.554  10.567  0.6417  0.6311 -0.0828
  135MOL0     H17816  11.426   6.568  10.291  3.2543  2.6718 -0.0072
  135MOL0     H17817  11.462   6.671  10.422  0.5282 -1.7333  2.4060
  135MOL0     H17818  11.684   6.333  10.532  0.7839 -1.9716 -3.8625
  135MOL0     H17819  10.933   6.450  10.808 -0.4723  1.8986 -0.0127
  135MOL0     H17820  10.740   6.329  10.866  0.7486 -1.0232 -0.1621
  136MOL0     O17821   7.383  10.124   2.444  0.4830 -0.9867  0.7989
  136MOL0     C17822   7.384  10.178   2.554 -0.6843 -0.0211 -0.1913
  136MOL0     O17823   7.304  10.156   2.656  0.0172  0.1181 -0.6966
  136MOL0     C17824   7.183  10.099   2.653  1.0076  0.2608  1.1426
  136MOL0     C17825   7.099  10.074   2.538 -0.2583 -1.0475  1.2644
  136MOL0     C17826   6.981   9.998   2.549 -0.2187 -0.1400  0.1557
  136MOL0     C17827   6.946   9.953   2.681  0.2186  0.0364  0.3380
  136MOL0     O17828   6.843   9.858   2.680 -0.0078  0.4217 -0.4457
  136MOL0     C17829   6.717   9.923   2.692 -0.7009 -0.2493  0.3602
  136MOL0     C17830   6.608   9.832   2.734  0.1916  0.8342  0.2139
  136MOL0     C17831   6.618   9.766   2.871  0.4069  0.1164 -0.0211
  136MOL0     C17832   6.479   9.713   2.906 -0.4160  0.2815 -0.0456
  136MOL0     C17833   6.469   9.632   3.037 -0.0448 -0.2419 -0.2221
  136MOL0     C17834   6.513   9.488   3.018 -0.8291 -0.0135 -0.2598
  136MOL0     C17835   6.562   9.420   3.153  0.2655 -0.1263  0.4010
  136MOL0     C17836   6.645   9.284   3.134 -0.4215 -0.4759  0.5185
  136MOL0     N17837   6.685   9.215   3.257  0.1276 -0.8758  0.4870
  136MOL0     C17838   6.603   9.150   3.342 -0.3776 -0.5119 -0.1510
  136MOL0     C17839   6.687   9.091   3.434 -0.0638 -0.3170  0.0029
  136MOL0     C17840   6.671   9.002   3.562  0.5815 -0.2400 -0.5666
  136MOL0     C17841   6.516   8.993   3.591 -0.0956  0.4049 -0.7628
  136MOL0     C17842   6.494   8.907   3.706 -0.7733 -0.2303 -0.0941
  136MOL0     C17843   6.350   8.923   3.774  0.1206  1.1651  0.3554
  136MOL0     O17844   6.248   8.849   3.702 -0.4627  0.0056 -0.0785
  136MOL0     C17845   6.146   8.780   3.770 -0.3597  0.2798  0.3667
  136MOL0     C17846   6.069   8.843   3.868  0.3414  0.9031 -0.5899
  136MOL0     C17847   5.955   8.786   3.924 -0.3244 -0.3038  0.6110
  136MOL0     C17848   5.911   8.664   3.868  0.2410 -0.1410  0.5869
  136MOL0     C17849   5.784   8.602   3.911 -0.5809  0.8030  0.9453
  136MOL0     O17850   5.744   8.491   3.840  0.0131 -0.5831 -0.9164
  136MOL0     C17851   5.616   8.457   3.862  0.0589  1.0336  0.4900
  136MOL0     C17852   5.503   8.506   3.804  0.4904 -0.4002 -0.5764
  136MOL0     C17853   5.374   8.449   3.823  0.7592 -1.0114 -0.3038
  136MOL0     C17854   5.370   8.331   3.907 -0.1112 -0.1168  0.4142
  136MOL0     O17855   5.254   8.263   3.940  0.7589 -0.1370 -0.1013
  136MOL0     C17856   5.140   8.314   3.881  0.3644 -0.6344  1.1460
  136MOL0     C17857   5.011   8.242   3.918  0.0428  0.2029  0.0302
  136MOL0     C17858   4.898   8.297   3.833 -0.7733  0.1239  0.6727
  136MOL0     C17859   4.767   8.216   3.848 -0.1958 -0.1291  0.3959
  136MOL0     C17860   4.694   8.244   3.982  0.4459 -0.4088 -0.5336
  136MOL0     C17861   4.546   8.218   3.979 -0.0166 -0.9358  0.5371
  136MOL0     C17862   4.475   8.237   4.115 -0.3903  0.6962  0.2993
  136MOL0     C17863   4.325   8.219   4.097  0.6533 -0.2872  0.1764
  136MOL0    Cl17864   4.236   8.240   4.260  0.2252  0.1636  0.0687
  136MOL0     C17865   5.488   8.288   3.961  0.3382 -0.3079 -0.2616
  136MOL0     C17866   5.606   8.342   3.946  0.0791  0.2232 -0.2035
  136MOL0     O17867   5.719   8.664   3.992 -0.0941 -0.7182  0.2226
  136MOL0     C17868   5.976   8.605   3.757  0.0538  0.3832 -0.8511
  136MOL0     C17869   6.097   8.665   3.707 -0.4450  0.6442 -0.3719
  136MOL0     N17870   6.819   9.128   3.390 -0.2254 -0.2187 -0.5453
  136MOL0     N17871   6.818   9.194   3.291  0.9771  0.0340  0.2975
  136MOL0     C17872   7.017   9.997   2.792  0.5369  0.5770  0.0906
  136MOL0     C17873   7.140  10.065   2.779  0.4232  0.0776  0.9845
  136MOL0     C17874   7.498  10.271   2.571 -0.9787  0.3911 -0.6005
  136MOL0     C17875   7.599  10.289   2.472 -0.2372 -0.1050 -0.2513
  136MOL0     C17876   7.692  10.388   2.491 -0.4280  0.2775  0.8368
  136MOL0     C17877   7.705  10.467   2.604  0.0758 -0.1545 -0.1263
  136MOL0     O17878   7.804  10.563   2.617  0.7902 -0.2040  0.6056
  136MOL0     C17879   7.835  10.633   2.737  0.7632  0.5118 -0.0463
  136MOL0     C17880   7.973  10.580   2.770 -0.8475  0.2036 -0.7785
  136MOL0     C17881   7.971  10.438   2.829  0.9771  0.4270 -0.7147
  136MOL0     C17882   8.114  10.376   2.834  0.2372 -0.0963 -0.0915
  136MOL0     C17883   8.202  10.425   2.946  0.4521  0.0660 -1.2463
  136MOL0     C17884   8.273  10.459   3.045  0.6063  0.7579  0.6580
  136MOL0     C17885   7.607  10.440   2.702  0.5388 -0.0820  0.7544
  136MOL0     C17886   7.499  10.354   2.686 -0.3540  0.5981  0.6308
  136MOL0     H17887   7.134  10.111   2.442 -0.1553 -2.2858  0.8020
  136MOL0     H17888   6.930   9.956   2.463  2.5326 -0.8754 -1.2325
  136MOL0     H17889   6.698   9.965   2.593  1.2361 -1.7617 -0.7196
  136MOL0     H17890   6.717  10.005   2.765 -1.8261 -0.8279  1.0327
  136MOL0     H17891   6.601   9.756   2.656 -1.3102  1.6298 -0.4659
  136MOL0     H17892   6.517   9.891   2.738 -0.0473  0.4320  0.9025
  136MOL0     H17893   6.668   9.829   2.944  1.5034 -1.5458  0.7129
  136MOL0     H17894   6.675   9.674   2.856 -1.8063 -1.1036 -1.6840
  136MOL0     H17895   6.417   9.802   2.923  0.4215  0.9403 -0.3231
  136MOL0     H17896   6.438   9.654   2.824 -0.0967 -0.9337  0.6405
  136MOL0     H17897   6.366   9.619   3.072  0.5821  0.4005  2.0218
  136MOL0     H17898   6.531   9.683   3.111 -0.7517 -0.3730  0.4721
  136MOL0     H17899   6.592   9.483   2.942  0.2169 -1.0578  0.8408
  136MOL0     H17900   6.433   9.432   2.969 -1.2134  2.1805 -2.3184
  136MOL0     H17901   6.639   9.485   3.196  0.0421  1.0288 -0.8621
  136MOL0     H17902   6.475   9.406   3.217  1.6734  1.2555  2.7908
  136MOL0     H17903   6.738   9.302   3.079 -2.7656  2.4040 -3.0533
  136MOL0     H17904   6.592   9.219   3.064 -1.0846  0.2175  0.3554
  136MOL0     H17905   6.496   9.140   3.330 -0.4419  0.5290 -0.5411
  136MOL0     H17906   6.720   9.049   3.648  2.9748  2.9944 -3.4514
  136MOL0     H17907   6.718   8.906   3.539  0.5168 -0.0553 -1.4957
  136MOL0     H17908   6.465   8.935   3.514  0.0935 -1.2062  0.2661
  136MOL0     H17909   6.464   9.088   3.602 -1.4688 -0.1471 -2.0413
  136MOL0     H17910   6.515   8.803   3.676  2.4427  1.0194 -2.8980
  136MOL0     H17911   6.564   8.933   3.786 -2.6747  2.3604  0.8236
  136MOL0     H17912   6.331   9.031   3.767  2.0621  1.6577  1.7891
  136MOL0     H17913   6.346   8.889   3.878  0.7405 -0.0496 -0.0007
  136MOL0     H17914   6.110   8.937   3.903  2.6285 -0.0573 -0.5513
  136MOL0     H17915   5.903   8.837   4.004  0.8901 -1.9566  2.5535
  136MOL0     H17916   5.512   8.593   3.740  2.4344 -0.5098 -0.5103
  136MOL0     H17917   5.298   8.507   3.771  1.3331 -0.0446 -0.0832
  136MOL0     H17918   5.148   8.324   3.772  2.7461 -0.8700  1.2402
  136MOL0     H17919   5.125   8.416   3.917 -1.4642  0.2055 -1.6170
  136MOL0     H17920   4.986   8.262   4.023  2.4570 -0.6486  0.8292
  136MOL0     H17921   5.023   8.134   3.905  1.8043  0.0817  2.1332
  136MOL0     H17922   4.931   8.291   3.729 -2.3715 -0.7134  0.1768
  136MOL0     H17923   4.893   8.404   3.854  2.8016  0.9398 -1.7998
  136MOL0     H17924   4.702   8.240   3.764  0.0175 -1.0762 -0.0485
  136MOL0     H17925   4.793   8.111   3.832  0.4055  0.2492 -1.2615
  136MOL0     H17926   4.712   8.351   3.999 -0.8973  0.8178 -5.2757
  136MOL0     H17927   4.732   8.190   4.070 -1.0503 -0.9305 -0.1835
  136MOL0     H17928   4.544   8.116   3.940 -1.0664  0.1930 -2.6549
  136MOL0     H17929   4.492   8.276   3.903  1.8227 -1.1524 -1.0089
  136MOL0     H17930   4.518   8.165   4.184 -0.0008  0.3850 -0.2648
  136MOL0     H17931   4.488   8.331   4.170 -0.9725  0.2074  1.3167
  136MOL0     H17932   4.300   8.125   4.046 -1.4746  0.7610 -0.8120
  136MOL0     H17933   4.294   8.302   4.033  1.5995  2.6590  3.2810
  136MOL0     H17934   5.462   8.202   4.021  1.5400 -0.6274 -0.1732
  136MOL0     H17935   5.694   8.302   3.995 -0.5439 -2.5007 -1.1003
  136MOL0     H17936   5.943   8.518   3.702  2.4148 -0.8453 -0.4524
  136MOL0     H17937   6.139   8.620   3.618 -0.0777  1.9526 -0.8852
  136MOL0     H17938   6.991   9.952   2.887  1.2949 -0.2757 -0.0906
  136MOL0     H17939   7.199  10.068   2.870  2.8544 -0.1846 -0.5081
  136MOL0     H17940   7.600  10.222   2.386  1.4038  0.9278 -1.0814
  136MOL0     H17941   7.769  10.393   2.414 -2.0740  1.9104 -0.7998
  136MOL0     H17942   7.769  10.617   2.823  0.6854  1.0978  0.0113
  136MOL0     H17943   7.839  10.741   2.717 -0.9829  0.7478  0.6895
  136MOL0     H17944   8.035  10.576   2.679 -1.9795  0.7313 -1.6043
  136MOL0     H17945   8.023  10.646   2.842 -0.7761 -0.1861 -0.4706
  136MOL0     H17946   7.913  10.364   2.774  1.2091  0.9508 -1.6958
  136MOL0     H17947   7.918  10.445   2.924  2.5319 -0.8919  0.2990
  136MOL0     H17948   8.097  10.268   2.831  1.7546 -0.3292 -1.1308
  136MOL0     H17949   8.169  10.397   2.742 -0.1176  0.3967 -0.1978
  136MOL0     H17950   8.331  10.501   3.125 -0.1672  1.2177  0.9864
  136MOL0     H17951   7.612  10.496   2.795 -2.4129  0.8785  0.4304
  136MOL0     H17952   7.429  10.333   2.767  0.6300  0.7904  1.5442
  137MOL0     O17953   1.644   6.645   5.141 -0.1322 -0.1335  0.0302
  137MOL0     C17954   1.614   6.676   5.255 -0.0694  0.2235 -0.5147
  137MOL0     O17955   1.492   6.658   5.311  0.5091 -0.4789  0.0225
  137MOL0     C17956   1.378   6.633   5.243  0.5028 -0.6294  0.4047
  137MOL0     C17957   1.284   6.544   5.298  1.2098  0.0309  0.2710
  137MOL0     C17958   1.163   6.505   5.225 -0.8158 -0.0128  0.7936
  137MOL0     C17959   1.139   6.567   5.102  0.0077 -0.3363  0.3225
  137MOL0     O17960   1.034   6.523   5.031 -1.1679  0.3136  0.2559
  137MOL0     C17961   0.939   6.627   4.996 -0.1299  0.5160  0.0285
  137MOL0     C17962   0.832   6.571   4.906 -0.1312  0.4179 -0.0027
  137MOL0     C17963   0.736   6.476   4.981 -0.1374  0.5544 -0.4568
  137MOL0     C17964   0.639   6.404   4.896  0.4360  0.9186 -0.3221
  137MOL0     C17965   0.516   6.496   4.858 -0.0565  0.4000  0.0915
  137MOL0     C17966   0.413   6.424   4.761 -0.5485  0.0434  0.3248
  137MOL0     C17967   0.296   6.506   4.715  0.2128 -0.6642 -0.2219
  137MOL0     C17968   0.197   6.433   4.637 -0.4859 -0.2643 -0.4749
  137MOL0     N17969   0.069   6.513   4.637 -0.6421  0.0452  0.1699
  137MOL0     C17970   0.029   6.599   4.535  0.3823  0.5497 -0.2106
  137MOL0     C17971  -0.076   6.658   4.578  0.0739  0.5289 -0.1500
  137MOL0     C17972  -0.140   6.769   4.498  0.3896  0.8801 -0.2309
  137MOL0     C17973  -0.097   6.906   4.560 -0.7052  0.6439 -0.4151
  137MOL0     C17974   0.047   6.947   4.545  0.2571  0.6259 -0.0498
  137MOL0     C17975   0.109   6.957   4.407 -0.3108 -0.0424  0.3150
  137MOL0     O17976   0.164   6.829   4.366  0.5368  0.3668  0.2876
  137MOL0     C17977   0.286   6.790   4.419 -0.5643  0.1156 -1.2744
  137MOL0     C17978   0.347   6.670   4.378  0.0235  0.3358 -0.5540
  137MOL0     C17979   0.476   6.630   4.427 -0.6355 -0.2676  0.9382
  137MOL0     C17980   0.548   6.715   4.516 -0.3823  0.0656  0.4567
  137MOL0     C17981   0.678   6.672   4.549 -0.6651 -0.2686  0.4596
  137MOL0     O17982   0.756   6.772   4.601 -0.4287 -0.8975  0.4640
  137MOL0     C17983   0.894   6.763   4.633  0.3436  0.2600  0.7655
  137MOL0     C17984   0.983   6.662   4.592  0.6705 -0.3837  0.0289
  137MOL0     C17985   1.116   6.668   4.622  0.7331 -0.2181  0.8425
  137MOL0     C17986   1.170   6.775   4.694  0.8761  0.8453 -0.1641
  137MOL0     O17987   1.303   6.761   4.721 -0.1413  0.0627  1.2280
  137MOL0     C17988   1.380   6.870   4.771  0.7408  0.1036 -0.0399
  137MOL0     C17989   1.523   6.820   4.790 -0.4825  0.4658  0.5216
  137MOL0     C17990   1.606   6.939   4.844  0.9282 -0.2338 -0.1188
  137MOL0     C17991   1.745   6.899   4.840 -0.3568 -0.9161 -0.6939
  137MOL0     C17992   1.834   7.029   4.845 -0.0568 -0.7079 -0.4597
  137MOL0     C17993   1.979   6.982   4.842 -0.0801  0.0804  0.3761
  137MOL0     C17994   2.080   7.090   4.885  0.6258  0.2059 -0.4445
  137MOL0     C17995   2.217   7.020   4.889  0.0043  0.1376 -0.9352
  137MOL0    Cl17996   2.230   6.902   5.020  0.0141 -0.2103  0.3130
  137MOL0     C17997   1.087   6.878   4.739  0.3866  0.1010  0.0287
  137MOL0     C17998   0.949   6.871   4.705 -0.6298 -0.0868  0.3186
  137MOL0     O17999   0.714   6.566   4.522 -0.3367 -0.0729  0.2148
  137MOL0     C18000   0.492   6.832   4.569 -0.3004  0.0715  0.0316
  137MOL0     C18001   0.363   6.864   4.526 -0.9840 -0.1275  0.7766
  137MOL0     N18002  -0.114   6.602   4.700 -0.3217  0.2719 -0.6114
  137MOL0     N18003  -0.022   6.513   4.738  0.1365 -0.0872  0.1447
  137MOL0     C18004   1.237   6.653   5.050  0.5943  0.1488 -0.0862
  137MOL0     C18005   1.348   6.698   5.124  0.1613  0.2680  0.3969
  137MOL0     C18006   1.728   6.726   5.329 -0.7062  0.0692  0.2344
  137MOL0     C18007   1.855   6.748   5.271 -0.8099 -0.1435  0.0382
  137MOL0     C18008   1.960   6.804   5.342  0.2013 -0.9919  0.5029
  137MOL0     C18009   1.948   6.834   5.478 -0.2031 -0.8837  0.2919
  137MOL0     O18010   2.055   6.883   5.544 -0.4888 -0.1474  0.5671
  137MOL0     C18011   2.037   6.930   5.681  0.0358  0.5453  0.2538
  137MOL0     C18012   2.152   7.005   5.731  0.1986  0.3240  0.2813
  137MOL0     C18013   2.290   6.927   5.702 -0.0640  0.1093 -0.9133
  137MOL0     C18014   2.412   7.017   5.714 -0.3115 -0.4954  0.0484
  137MOL0     C18015   2.544   6.959   5.687  0.3764  0.5605 -0.4545
  137MOL0     C18016   2.648   6.898   5.671 -0.2207 -0.5694 -0.7186
  137MOL0     C18017   1.823   6.807   5.541  0.0971 -0.3108 -0.1951
  137MOL0     C18018   1.721   6.750   5.468 -0.6236  0.6147 -0.1326
  137MOL0     H18019   1.292   6.487   5.391 -0.7781  1.3569  1.3033
  137MOL0     H18020   1.098   6.435   5.276 -0.7335 -0.8672 -0.2460
  137MOL0     H18021   0.997   6.707   4.949  1.6259  0.4366  1.9017
  137MOL0     H18022   0.879   6.654   5.084 -1.5693 -3.5320  0.4675
  137MOL0     H18023   0.875   6.524   4.818  0.1905 -0.2588  0.5059
  137MOL0     H18024   0.775   6.657   4.868  2.7572  3.4234  1.9055
  137MOL0     H18025   0.690   6.534   5.061  0.7317 -2.3223  2.3595
  137MOL0     H18026   0.803   6.409   5.035  1.7041  0.2815 -2.8666
  137MOL0     H18027   0.681   6.360   4.805 -0.4913 -1.3898  0.2915
  137MOL0     H18028   0.597   6.323   4.956 -0.3036  0.9421 -0.7994
  137MOL0     H18029   0.565   6.578   4.805  0.5455 -0.3102 -0.4664
  137MOL0     H18030   0.466   6.534   4.948  1.1265  1.8090  0.1885
  137MOL0     H18031   0.381   6.333   4.811  1.0735 -0.3955  0.6320
  137MOL0     H18032   0.462   6.388   4.670 -1.0355  2.3493 -0.9514
  137MOL0     H18033   0.252   6.542   4.808 -0.7044 -2.1066 -0.0630
  137MOL0     H18034   0.339   6.591   4.662 -0.6442 -0.0467  0.0506
  137MOL0     H18035   0.172   6.336   4.682  0.4350  0.2465  1.2074
  137MOL0     H18036   0.226   6.404   4.535 -2.7092  1.2830 -1.6339
  137MOL0     H18037   0.070   6.601   4.435 -2.7186  2.2903 -1.5855
  137MOL0     H18038  -0.248   6.760   4.513  0.6636  2.2515  3.7659
  137MOL0     H18039  -0.118   6.760   4.391  4.2425 -1.4438  0.5667
  137MOL0     H18040  -0.109   6.895   4.668  1.9389  2.3592  0.1378
  137MOL0     H18041  -0.161   6.987   4.523  0.4126  2.3433  1.1959
  137MOL0     H18042   0.062   7.044   4.594 -1.2943  0.3602  1.0175
  137MOL0     H18043   0.105   6.884   4.613 -1.6874  0.5003  1.5749
  137MOL0     H18044   0.186   7.033   4.405 -0.7193  0.3968  0.8801
  137MOL0     H18045   0.040   7.001   4.335  1.9252 -0.1115 -1.9863
  137MOL0     H18046   0.286   6.621   4.303 -1.9563  1.7506  0.0581
  137MOL0     H18047   0.524   6.542   4.385  0.0231  1.1318 -1.4680
  137MOL0     H18048   0.943   6.580   4.533  1.6520 -0.9031  0.0503
  137MOL0     H18049   1.188   6.596   4.586  1.9297  1.8575 -1.1480
  137MOL0     H18050   1.339   6.913   4.863  0.1328  0.6386 -0.5493
  137MOL0     H18051   1.385   6.943   4.689  0.1253 -1.3563 -1.4453
  137MOL0     H18052   1.561   6.782   4.695 -0.7147  0.4462  0.4358
  137MOL0     H18053   1.525   6.734   4.858 -1.4996  1.3661  1.7486
  137MOL0     H18054   1.573   6.971   4.943  0.6871 -0.9855  0.0505
  137MOL0     H18055   1.593   7.024   4.776  1.3961  0.1106  0.2186
  137MOL0     H18056   1.757   6.839   4.931 -1.3335 -0.7578 -0.4506
  137MOL0     H18057   1.756   6.853   4.741 -0.4132 -0.1096 -1.0781
  137MOL0     H18058   1.814   7.076   4.942 -0.3912 -2.6236  0.4433
  137MOL0     H18059   1.814   7.105   4.769  1.5959 -0.0628 -0.2854
  137MOL0     H18060   2.001   6.953   4.738 -0.1233 -2.0825  0.9290
  137MOL0     H18061   1.971   6.898   4.911 -1.0932 -0.2064 -0.0750
  137MOL0     H18062   2.086   7.166   4.807  2.8120 -0.1756 -0.7155
  137MOL0     H18063   2.045   7.132   4.980  1.1701 -2.0250  0.8217
  137MOL0     H18064   2.298   7.093   4.886  0.2181 -0.1293 -2.3637
  137MOL0     H18065   2.225   6.956   4.801 -0.0291 -1.1350 -0.0347
  137MOL0     H18066   1.133   6.965   4.785  1.1786  1.1609 -2.6001
  137MOL0     H18067   0.884   6.956   4.725  2.6157  2.6851  0.0150
  137MOL0     H18068   0.548   6.893   4.639 -0.2244  0.4254 -0.3300
  137MOL0     H18069   0.328   6.951   4.580 -1.4624 -0.0912  0.4199
  137MOL0     H18070   1.203   6.692   4.955  1.0207 -1.5165 -0.9607
  137MOL0     H18071   1.411   6.769   5.071  0.4251 -2.9370 -4.1344
  137MOL0     H18072   1.872   6.725   5.166  1.2234 -0.9898  0.5015
  137MOL0     H18073   2.054   6.831   5.294  1.2398 -0.1372  2.8646
  137MOL0     H18074   2.007   6.846   5.744  1.2860 -1.0757 -1.2082
  137MOL0     H18075   1.955   7.002   5.684 -0.8483 -0.4482  0.3701
  137MOL0     H18076   2.158   7.102   5.681  1.8459  0.7166  1.1460
  137MOL0     H18077   2.154   7.024   5.839  2.0064  1.0926  0.1631
  137MOL0     H18078   2.299   6.878   5.605 -0.2387  1.1058 -1.4403
  137MOL0     H18079   2.290   6.848   5.778  1.0697  3.5088  2.9865
  137MOL0     H18080   2.390   7.101   5.649 -1.3838 -2.2469 -1.9755
  137MOL0     H18081   2.417   7.049   5.819 -1.5012  1.6044 -0.4935
  137MOL0     H18082   2.733   6.833   5.660  0.9733  0.5247  1.4130
  137MOL0     H18083   1.806   6.825   5.647 -2.3012 -2.0199 -0.2106
  137MOL0     H18084   1.626   6.756   5.521 -0.0664 -1.1567  1.1663
  138MOL0     O18085   6.559   6.151   1.434  0.1453  0.3901 -0.7967
  138MOL0     C18086   6.676   6.142   1.468  0.4764 -0.5908 -0.6200
  138MOL0     O18087   6.741   6.202   1.575  1.0447  0.3876  0.0272
  138MOL0     C18088   6.660   6.249   1.673  0.0375 -0.3634  0.4075
  138MOL0     C18089   6.640   6.170   1.789  0.5458  0.0387  0.3952
  138MOL0     C18090   6.559   6.218   1.891 -0.5949  0.2679 -0.7406
  138MOL0     C18091   6.506   6.344   1.904 -0.5137 -0.9792  0.3008
  138MOL0     O18092   6.431   6.375   2.013  0.9553  0.5071  0.0382
  138MOL0     C18093   6.346   6.492   2.019 -0.4759  0.4157 -0.1884
  138MOL0     C18094   6.274   6.484   2.154  0.7059 -0.0437 -0.0360
  138MOL0     C18095   6.207   6.628   2.169 -0.4794 -0.0270  0.6136
  138MOL0     C18096   6.106   6.647   2.287 -0.6444  0.3847 -0.5696
  138MOL0     C18097   5.967   6.595   2.262 -0.3774 -0.3878 -0.3719
  138MOL0     C18098   5.897   6.572   2.404 -0.5357  0.4804 -0.1662
  138MOL0     C18099   5.751   6.552   2.412  0.1948 -0.8195  0.1885
  138MOL0     C18100   5.668   6.643   2.328 -0.6792 -0.1558 -0.3288
  138MOL0     N18101   5.525   6.627   2.350  0.6221 -0.3835  0.6189
  138MOL0     C18102   5.432   6.609   2.254 -0.9802 -0.4688  0.3665
  138MOL0     C18103   5.307   6.606   2.303 -0.8009 -0.5129  0.1510
  138MOL0     C18104   5.178   6.587   2.235 -0.0776 -0.4594  0.0010
  138MOL0     C18105   5.054   6.660   2.281  0.7530 -0.7253 -0.1464
  138MOL0     C18106   4.981   6.575   2.389 -0.1677 -0.6274 -0.1807
  138MOL0     C18107   4.843   6.626   2.425 -0.0020 -1.8327  0.2619
  138MOL0     O18108   4.745   6.605   2.320  0.0863  0.1893 -0.6745
  138MOL0     C18109   4.614   6.599   2.361 -1.0236 -0.5327  0.5310
  138MOL0     C18110   4.567   6.659   2.478 -0.2065  0.1103 -0.4842
  138MOL0     C18111   4.428   6.653   2.514 -1.0139  0.0224  0.1142
  138MOL0     C18112   4.336   6.579   2.433 -0.0857 -0.5545  0.5505
  138MOL0     C18113   4.199   6.571   2.470 -0.2033  0.5115 -0.3083
  138MOL0     O18114   4.126   6.468   2.419 -0.3329  0.2318  0.0703
  138MOL0     C18115   3.993   6.468   2.417 -0.6906  0.3493  0.2726
  138MOL0     C18116   3.927   6.441   2.304  0.6401 -0.0963  0.3402
  138MOL0     C18117   3.790   6.425   2.308 -0.2037  0.3169  0.4229
  138MOL0     C18118   3.716   6.431   2.417  0.4245 -0.4712  0.2870
  138MOL0     O18119   3.583   6.389   2.401  0.4347  0.5418  0.0065
  138MOL0     C18120   3.496   6.400   2.510  0.1151 -0.1576  0.0244
  138MOL0     C18121   3.354   6.383   2.459  0.5624  0.0157 -0.0983
  138MOL0     C18122   3.311   6.244   2.397 -0.5236  0.0721  0.6895
  138MOL0     C18123   3.170   6.243   2.345 -0.2961  0.5831  0.8155
  138MOL0     C18124   3.049   6.223   2.437 -0.1479 -0.3493  0.2416
  138MOL0     C18125   2.927   6.249   2.349  0.1760  0.4349 -0.9693
  138MOL0     C18126   2.803   6.239   2.419  0.1828  0.3328  0.5675
  138MOL0     C18127   2.695   6.311   2.338 -0.4901  0.3162  0.2533
  138MOL0    Cl18128   2.699   6.488   2.385 -0.0174  0.1777 -0.3065
  138MOL0     C18129   3.780   6.455   2.540  0.0900  0.5183  0.3741
  138MOL0     C18130   3.922   6.475   2.540 -0.0428 -0.0217  0.3646
  138MOL0     O18131   4.152   6.662   2.547 -0.0643 -0.5017 -0.1695
  138MOL0     C18132   4.384   6.512   2.320 -0.3654  0.6688  0.7776
  138MOL0     C18133   4.520   6.532   2.279 -0.0807  0.8379 -0.4487
  138MOL0     N18134   5.336   6.619   2.439  0.9890  0.0036 -0.5420
  138MOL0     N18135   5.452   6.630   2.469 -0.3348 -0.1494 -0.4232
  138MOL0     C18136   6.537   6.435   1.796 -0.3929  0.7077 -0.4198
  138MOL0     C18137   6.617   6.389   1.681 -0.2646 -0.4475  0.1718
  138MOL0     C18138   6.747   6.044   1.382 -0.3027  0.5303  0.8040
  138MOL0     C18139   6.873   5.991   1.426 -0.1886  0.1230  0.3091
  138MOL0     C18140   6.940   5.892   1.349 -0.5017 -0.3317 -0.4355
  138MOL0     C18141   6.891   5.853   1.226 -0.3672  0.3830 -0.4829
  138MOL0     O18142   6.971   5.760   1.161 -0.0464 -1.0792 -0.7721
  138MOL0     C18143   6.951   5.740   1.014 -1.0039  0.8039  0.3325
  138MOL0     C18144   7.078   5.673   0.966  0.2001 -0.1400  1.0984
  138MOL0     C18145   7.212   5.752   0.975  0.1239 -0.3893  0.6044
  138MOL0     C18146   7.278   5.744   1.112 -0.2990  0.2753  0.2455
  138MOL0     C18147   7.305   5.604   1.154 -0.5460 -0.5334 -0.2946
  138MOL0     C18148   7.333   5.501   1.207  0.2465  0.1753  0.1624
  138MOL0     C18149   6.771   5.897   1.179  0.2661  0.1683  0.0164
  138MOL0     C18150   6.696   5.993   1.257  0.8916 -0.1833 -0.8680
  138MOL0     H18151   6.666   6.065   1.801 -1.2726 -0.4409  0.4195
  138MOL0     H18152   6.538   6.140   1.964  1.9894 -0.0965 -0.3020
  138MOL0     H18153   6.278   6.502   1.934 -2.5799 -3.0629  0.8727
  138MOL0     H18154   6.408   6.582   2.018  2.0802 -1.2074  1.6969
  138MOL0     H18155   6.354   6.461   2.225  3.1714  4.1763 -1.0601
  138MOL0     H18156   6.188   6.417   2.150 -0.5393  1.5237 -3.7330
  138MOL0     H18157   6.167   6.661   2.072  0.8481  0.9995  0.3837
  138MOL0     H18158   6.285   6.702   2.189 -1.2261  0.2521  2.7511
  138MOL0     H18159   6.160   6.609   2.374 -1.7444  1.9099  0.8398
  138MOL0     H18160   6.103   6.755   2.307  0.0319  0.7010 -1.9972
  138MOL0     H18161   5.960   6.503   2.204 -1.0171  0.2928 -1.3991
  138MOL0     H18162   5.904   6.664   2.206 -2.0782 -0.3245  1.5154
  138MOL0     H18163   5.909   6.662   2.465  0.9188  0.0521  0.2268
  138MOL0     H18164   5.946   6.489   2.456  0.0384  0.7674 -0.2405
  138MOL0     H18165   5.729   6.452   2.375 -3.3076  1.1294 -3.8173
  138MOL0     H18166   5.715   6.562   2.515 -0.7498  0.3836 -0.2327
  138MOL0     H18167   5.696   6.632   2.222  0.7034 -0.2070  0.0237
  138MOL0     H18168   5.700   6.737   2.375  2.6492 -1.9426  1.3331
  138MOL0     H18169   5.461   6.619   2.149 -0.3305  5.0523  0.8135
  138MOL0     H18170   5.153   6.481   2.234 -1.3822 -0.1702 -1.7135
  138MOL0     H18171   5.182   6.615   2.130 -5.0078 -1.7955 -0.7757
  138MOL0     H18172   4.983   6.680   2.200 -0.0363  0.9564  0.9049
  138MOL0     H18173   5.082   6.756   2.327 -1.9814 -0.4067  1.0646
  138MOL0     H18174   4.962   6.473   2.353 -2.8479 -1.1335  2.3444
  138MOL0     H18175   5.049   6.582   2.474 -0.8453  1.0840  0.2559
  138MOL0     H18176   4.848   6.734   2.443  0.6358 -2.0608  1.6150
  138MOL0     H18177   4.806   6.588   2.521 -1.7934  2.2166  1.3878
  138MOL0     H18178   4.623   6.715   2.552 -0.3858  0.1531 -0.3798
  138MOL0     H18179   4.409   6.713   2.602 -0.9600 -0.3179  0.3613
  138MOL0     H18180   3.989   6.435   2.215  2.0538 -0.8162  1.3435
  138MOL0     H18181   3.735   6.410   2.216  3.7188 -1.0756 -1.9021
  138MOL0     H18182   3.509   6.499   2.555 -0.3214  0.3726 -0.9973
  138MOL0     H18183   3.524   6.325   2.585  2.8506 -1.3303 -2.0114
  138MOL0     H18184   3.328   6.462   2.389 -0.8706  2.4097  2.8989
  138MOL0     H18185   3.280   6.408   2.535 -0.1662  0.0448 -0.8053
  138MOL0     H18186   3.312   6.158   2.465  0.6645 -0.5121 -0.0231
  138MOL0     H18187   3.382   6.218   2.318 -0.7983 -1.2803  0.8570
  138MOL0     H18188   3.160   6.331   2.281  0.0482  2.0236  2.6797
  138MOL0     H18189   3.165   6.161   2.273 -1.6679  1.4320 -0.0875
  138MOL0     H18190   3.046   6.297   2.517 -0.3142  2.1443 -1.9257
  138MOL0     H18191   3.041   6.122   2.479 -3.1540 -0.1020  0.4565
  138MOL0     H18192   2.916   6.188   2.259 -2.1522  1.5064 -1.4778
  138MOL0     H18193   2.945   6.352   2.315  3.0955  2.0729  4.3960
  138MOL0     H18194   2.778   6.135   2.439  1.0858 -0.0594 -0.2376
  138MOL0     H18195   2.808   6.285   2.518  1.6386  2.2372 -0.3170
  138MOL0     H18196   2.598   6.262   2.351 -0.2664  0.0499  0.9888
  138MOL0     H18197   2.714   6.309   2.230  1.4877 -3.2529  0.5085
  138MOL0     H18198   3.725   6.445   2.633  0.2626 -1.6278  0.2960
  138MOL0     H18199   3.970   6.462   2.637 -0.7038 -2.4943  0.4402
  138MOL0     H18200   4.317   6.445   2.268  1.0257  0.4024 -0.7285
  138MOL0     H18201   4.567   6.472   2.202  1.9932  2.1528 -0.2852
  138MOL0     H18202   6.502   6.537   1.800 -1.4340  0.4554 -1.9823
  138MOL0     H18203   6.626   6.460   1.600 -3.0293 -0.3908 -0.1669
  138MOL0     H18204   6.901   6.018   1.528 -1.7572  4.5174 -0.2287
  138MOL0     H18205   7.022   5.833   1.388 -1.4947 -3.2817 -2.4779
  138MOL0     H18206   6.932   5.835   0.963  3.2928  1.1934 -1.0037
  138MOL0     H18207   6.864   5.676   0.993 -1.2590  0.2573  2.7846
  138MOL0     H18208   7.094   5.575   1.013  0.4751  0.2346  1.7932
  138MOL0     H18209   7.062   5.663   0.858 -1.1158  2.0120  1.0381
  138MOL0     H18210   7.192   5.855   0.943  0.3156  0.2895  2.5432
  138MOL0     H18211   7.269   5.730   0.884 -1.5246  0.8529 -0.7861
  138MOL0     H18212   7.376   5.792   1.113 -0.3514  0.3773  1.9882
  138MOL0     H18213   7.211   5.797   1.180 -2.9661 -0.0806 -1.9189
  138MOL0     H18214   7.374   5.410   1.247  3.5162  0.3124 -2.3963
  138MOL0     H18215   6.730   5.851   1.090 -2.1780  0.7574  0.7563
  138MOL0     H18216   6.595   6.018   1.227  0.9698  0.5696 -0.5323
  139MOL0     O18217   9.903   9.575   6.090  0.1466  0.5718  0.0839
  139MOL0     C18218   9.992   9.575   6.011 -0.0404 -0.6207  0.6179
  139MOL0     O18219   9.972   9.602   5.885  0.3068  0.2000 -0.4473
  139MOL0     C18220   9.849   9.629   5.827  0.0173  0.3710  1.2067
  139MOL0     C18221   9.784   9.534   5.742 -0.6137 -0.8610 -0.6656
  139MOL0     C18222   9.661   9.562   5.679 -0.7462  0.2335  0.0243
  139MOL0     C18223   9.603   9.695   5.688 -0.7643  0.3078  0.7333
  139MOL0     O18224   9.487   9.713   5.617  0.3501  0.3678  0.0876
  139MOL0     C18225   9.392   9.810   5.675 -0.5263  0.0846 -0.0163
  139MOL0     C18226   9.261   9.817   5.599 -0.2771  0.4966 -0.9330
  139MOL0     C18227   9.145   9.886   5.674 -0.5587 -0.3237 -0.2172
  139MOL0     C18228   9.019   9.895   5.583 -0.9041  0.0147  0.4656
  139MOL0     C18229   8.943  10.022   5.616 -0.6709 -0.5772 -0.0727
  139MOL0     C18230   8.856  10.026   5.743 -0.4569  0.8265 -0.5067
  139MOL0     C18231   8.775  10.160   5.748 -0.0496  1.2135 -0.8669
  139MOL0     C18232   8.654  10.170   5.655 -0.0666  0.4527  0.3100
  139MOL0     N18233   8.550  10.075   5.682  0.2978 -0.8279 -0.4020
  139MOL0     C18234   8.475  10.067   5.803  0.3668  0.1317  0.1600
  139MOL0     C18235   8.391   9.971   5.773  0.3505  0.8548 -0.4103
  139MOL0     C18236   8.268   9.935   5.836 -0.2237  0.6187 -0.8921
  139MOL0     C18237   8.142   9.993   5.783 -0.0843 -0.1957  0.0209
  139MOL0     C18238   8.154  10.139   5.801  0.2390  0.4843  0.3751
  139MOL0     C18239   8.031  10.210   5.744 -0.5010 -0.4060  0.3823
  139MOL0     O18240   7.946  10.215   5.861 -0.3043  0.3059 -0.1800
  139MOL0     C18241   7.814  10.252   5.838 -0.6566 -0.5381  0.6604
  139MOL0     C18242   7.772  10.377   5.775  0.6896  0.3736  1.3588
  139MOL0     C18243   7.630  10.397   5.751  0.3246  0.4776  0.3662
  139MOL0     C18244   7.536  10.312   5.805 -0.4664 -0.9333  1.4875
  139MOL0     C18245   7.390  10.350   5.803 -0.3719  0.8864 -0.2923
  139MOL0     O18246   7.310  10.249   5.847  0.5053 -0.6349 -0.0310
  139MOL0     C18247   7.177  10.277   5.861  0.4626 -0.5176  0.5512
  139MOL0     C18248   7.082  10.179   5.828 -0.9134  0.5368 -0.4787
  139MOL0     C18249   6.943  10.210   5.841 -0.1775  0.1894 -0.0833
  139MOL0     C18250   6.900  10.339   5.870  1.1926  0.2751 -0.2045
  139MOL0     O18251   6.766  10.341   5.886 -0.2539  0.3491  0.6879
  139MOL0     C18252   6.692  10.461   5.859 -0.3015 -1.0510 -0.1390
  139MOL0     C18253   6.636  10.525   5.987 -0.2550 -1.1118  1.0540
  139MOL0     C18254   6.551  10.645   5.971 -0.3236 -0.0239  0.1289
  139MOL0     C18255   6.484  10.690   6.101  0.3351  0.2738  0.0078
  139MOL0     C18256   6.403  10.820   6.092  0.8759 -0.2457  0.5595
  139MOL0     C18257   6.362  10.869   6.233 -0.2609  0.0109  0.2896
  139MOL0     C18258   6.281  10.993   6.234 -0.0197 -0.8922 -0.1117
  139MOL0     C18259   6.150  10.975   6.144 -0.9553 -0.0501  0.8862
  139MOL0    Cl18260   6.045  11.109   6.193 -0.0212 -0.3788 -0.1112
  139MOL0     C18261   6.987  10.435   5.916 -1.0879 -0.0430  0.4315
  139MOL0     C18262   7.126  10.399   5.910 -0.5463 -0.6918 -0.2761
  139MOL0     O18263   7.351  10.450   5.738  0.2368  0.2099  0.3157
  139MOL0     C18264   7.582  10.199   5.865 -0.2054  0.2895  0.1899
  139MOL0     C18265   7.719  10.164   5.876  0.2371  0.1038 -0.0135
  139MOL0     N18266   8.409   9.918   5.644  0.3637 -0.2979  0.0831
  139MOL0     N18267   8.502   9.985   5.592 -0.6780 -0.6447  0.2576
  139MOL0     C18268   9.674   9.793   5.760  0.3700  0.7195 -0.6037
  139MOL0     C18269   9.795   9.761   5.829 -0.1215  0.1197  0.2978
  139MOL0     C18270  10.120   9.525   6.050 -0.0214 -0.2201 -0.3197
  139MOL0     C18271  10.144   9.506   6.187  0.2939  1.0485 -0.8310
  139MOL0     C18272  10.262   9.463   6.235  0.4211 -0.7301  0.2681
  139MOL0     C18273  10.375   9.449   6.143 -0.2513 -0.3907 -0.6421
  139MOL0     O18274  10.509   9.423   6.176 -0.7540  0.0184  0.0048
  139MOL0     C18275  10.576   9.485   6.290  0.7405 -0.0097  0.0991
  139MOL0     C18276  10.541   9.634   6.299 -1.1876  0.0191 -0.0115
  139MOL0     C18277  10.625   9.726   6.389  0.0870  0.7040  0.2207
  139MOL0     C18278  10.765   9.726   6.340 -0.1990  0.0046 -0.0718
  139MOL0     C18279  10.851   9.810   6.422  0.3845  0.2397 -0.3320
  139MOL0     C18280  10.904   9.882   6.502  0.2854 -0.2882 -0.1239
  139MOL0     C18281  10.353   9.474   6.006  0.0205  0.4922 -0.6625
  139MOL0     C18282  10.229   9.513   5.960  0.1116  0.0164  0.0991
  139MOL0     H18283   9.836   9.439   5.733  0.9576 -0.5265  3.1381
  139MOL0     H18284   9.615   9.480   5.625  0.6523 -0.2714 -0.4519
  139MOL0     H18285   9.439   9.909   5.678  0.8172 -0.5335  0.1408
  139MOL0     H18286   9.377   9.768   5.775 -1.9560 -0.1625 -0.3152
  139MOL0     H18287   9.230   9.713   5.586 -3.4883  1.6320 -3.9360
  139MOL0     H18288   9.273   9.859   5.499  0.1435  2.7183 -0.0009
  139MOL0     H18289   9.178   9.985   5.706  0.1148 -0.9627  1.1342
  139MOL0     H18290   9.109   9.843   5.768  0.5174 -2.2364 -0.6231
  139MOL0     H18291   9.058   9.886   5.482  0.2213 -2.4918  1.0526
  139MOL0     H18292   8.956   9.805   5.585  0.8672 -1.3069 -0.4873
  139MOL0     H18293   8.870  10.035   5.535 -0.2108  0.8564 -0.2785
  139MOL0     H18294   9.009  10.109   5.612 -0.0803 -1.0435 -0.9611
  139MOL0     H18295   8.915  10.030   5.835 -1.4857  2.5527  0.1140
  139MOL0     H18296   8.791   9.938   5.744  2.4637 -1.5414 -1.4972
  139MOL0     H18297   8.739  10.166   5.851 -1.5470  2.2393 -1.4068
  139MOL0     H18298   8.843  10.242   5.723  0.0117  1.8222  1.1117
  139MOL0     H18299   8.677  10.148   5.551 -2.6084  0.0525 -0.2457
  139MOL0     H18300   8.618  10.274   5.655 -1.8583 -0.1292 -0.1839
  139MOL0     H18301   8.466  10.139   5.884 -1.3724  1.1192 -0.8633
  139MOL0     H18302   8.277   9.946   5.944 -1.3962  2.2997 -0.9313
  139MOL0     H18303   8.261   9.827   5.819  1.9579  0.4836 -1.2354
  139MOL0     H18304   8.058   9.957   5.843 -0.3392 -2.7160 -1.6530
  139MOL0     H18305   8.116   9.975   5.678 -0.6479 -2.5431  0.5046
  139MOL0     H18306   8.169  10.164   5.907 -1.0593 -2.2180  1.3084
  139MOL0     H18307   8.244  10.171   5.748  1.6231 -1.0404  1.6825
  139MOL0     H18308   7.985  10.155   5.661 -3.2333  1.5710  0.4472
  139MOL0     H18309   8.059  10.311   5.713 -0.9557  0.4349  2.5518
  139MOL0     H18310   7.842  10.455   5.746 -2.5300  2.9834 -0.0342
  139MOL0     H18311   7.602  10.496   5.717 -2.0198 -0.0109  0.7051
  139MOL0     H18312   7.109  10.078   5.799  0.1373  1.3850 -2.6543
  139MOL0     H18313   6.865  10.135   5.825  1.2852 -2.1688  2.8477
  139MOL0     H18314   6.612  10.436   5.788 -2.1737  0.8718  1.1634
  139MOL0     H18315   6.738  10.549   5.812 -1.9671  1.7020  2.9795
  139MOL0     H18316   6.717  10.545   6.058 -0.5108 -0.0504  1.0510
  139MOL0     H18317   6.578  10.444   6.032  1.7246 -1.2520  3.5629
  139MOL0     H18318   6.470  10.633   5.898 -0.1818  0.7581 -0.1711
  139MOL0     H18319   6.606  10.734   5.940 -2.3750  0.5412 -2.2663
  139MOL0     H18320   6.412  10.613   6.129  1.6132 -0.1424  2.4093
  139MOL0     H18321   6.556  10.679   6.183 -1.8059  1.0874  2.0923
  139MOL0     H18322   6.315  10.804   6.028  1.5733  0.5735 -0.6435
  139MOL0     H18323   6.463  10.895   6.040  0.3236 -1.3892 -1.9000
  139MOL0     H18324   6.443  10.876   6.307 -0.1583 -0.6786  0.2483
  139MOL0     H18325   6.312  10.779   6.270 -0.3788 -0.4265 -0.8994
  139MOL0     H18326   6.254  11.008   6.339  3.8443  0.2236  0.8988
  139MOL0     H18327   6.325  11.092   6.218 -3.7264  0.8629 -0.5285
  139MOL0     H18328   6.096  10.885   6.175 -1.9195  1.6873  4.9567
  139MOL0     H18329   6.166  10.974   6.036 -2.2289 -0.6056  0.6793
  139MOL0     H18330   6.961  10.534   5.955  1.5942  1.0419 -0.2953
  139MOL0     H18331   7.185  10.483   5.944 -1.1821 -1.0151  1.7807
  139MOL0     H18332   7.517  10.124   5.908  1.4070 -2.9026 -2.4414
  139MOL0     H18333   7.741  10.069   5.923 -2.1802  0.9559  3.2084
  139MOL0     H18334   9.629   9.891   5.770 -1.3922  0.0046 -1.1476
  139MOL0     H18335   9.861   9.837   5.867  1.9379 -0.4183 -1.9470
  139MOL0     H18336  10.062   9.519   6.257  0.7535 -1.1001  0.1821
  139MOL0     H18337  10.278   9.457   6.342 -2.1900 -0.2510  0.7560
  139MOL0     H18338  10.684   9.469   6.277  1.3749  3.8219 -0.6941
  139MOL0     H18339  10.550   9.438   6.385 -2.1460  3.8814  1.5096
  139MOL0     H18340  10.532   9.672   6.197  1.1077  1.2134  0.1602
  139MOL0     H18341  10.438   9.643   6.335 -1.3672  4.5970 -0.9929
  139MOL0     H18342  10.614   9.698   6.494 -0.4060  3.6287  1.0143
  139MOL0     H18343  10.582   9.826   6.376  0.5092  0.9920  0.9804
  139MOL0     H18344  10.810   9.626   6.341  2.9254  1.3033 -0.3016
  139MOL0     H18345  10.763   9.754   6.234 -0.6569 -1.8845 -0.6004
  139MOL0     H18346  10.929   9.952   6.579 -1.4226  2.2466 -1.6901
  139MOL0     H18347  10.434   9.452   5.937 -0.2863 -1.4734 -0.4494
  139MOL0     H18348  10.209   9.538   5.856  1.2492  1.3348  0.1664
  140MOL0     O18349   5.897  10.098   7.878 -0.1004  0.2828 -0.6994
  140MOL0     C18350   5.990  10.029   7.918  0.3003  0.1940  0.7054
  140MOL0     O18351   5.978   9.917   7.995 -0.8221  0.1518  0.0532
  140MOL0     C18352   5.857   9.861   8.028  0.2977  0.1383 -0.4779
  140MOL0     C18353   5.841   9.795   8.155  0.1651  0.6916  0.8755
  140MOL0     C18354   5.720   9.732   8.195 -0.4151  0.1733  0.1621
  140MOL0     C18355   5.605   9.732   8.112 -0.0242 -0.6558 -0.3548
  140MOL0     O18356   5.490   9.681   8.152 -0.1324 -0.1214 -0.1098
  140MOL0     C18357   5.367   9.669   8.076  1.0780 -0.1821  0.1099
  140MOL0     C18358   5.276   9.785   8.122  0.5183  0.4356 -0.2518
  140MOL0     C18359   5.146   9.776   8.054  0.5583 -0.1038  0.4711
  140MOL0     C18360   5.046   9.888   8.106 -0.7863 -0.0602 -0.1292
  140MOL0     C18361   4.921   9.907   8.015 -0.2537  0.0861 -0.2639
  140MOL0     C18362   4.825   9.787   8.021  0.1615 -0.8015 -0.3127
  140MOL0     C18363   4.685   9.808   7.969 -0.4905 -0.9117  0.1757
  140MOL0     C18364   4.577   9.689   7.988 -1.2888  0.4200 -0.0529
  140MOL0     N18365   4.438   9.737   7.954 -0.5061  0.9135 -0.3821
  140MOL0     C18366   4.375   9.855   7.998 -0.2378  0.4009 -0.1483
  140MOL0     C18367   4.263   9.853   7.924 -0.7664  0.5314 -0.2798
  140MOL0     C18368   4.171   9.967   7.942  0.3765  0.0846 -0.5947
  140MOL0     C18369   4.068   9.960   8.052  1.1065  0.4059 -0.2971
  140MOL0     C18370   4.007  10.095   8.080 -0.9538  0.3406 -0.2491
  140MOL0     C18371   3.964  10.174   7.961  0.3358 -0.0634  0.2717
  140MOL0     O18372   3.889  10.288   8.010  0.4357  0.2086  0.3817
  140MOL0     C18373   3.769  10.278   8.057  0.0388 -0.1009  0.1521
  140MOL0     C18374   3.713  10.389   8.118 -1.1319  0.6847 -0.2953
  140MOL0     C18375   3.584  10.403   8.156  0.0435  0.2086  0.0021
  140MOL0     C18376   3.491  10.293   8.145  0.4707  0.1932  0.1617
  140MOL0     C18377   3.350  10.294   8.184 -0.1373 -0.4772 -0.4938
  140MOL0     O18378   3.309  10.407   8.245  0.1276 -0.4276  0.2814
  140MOL0     C18379   3.181  10.429   8.269  0.1211 -0.0378  0.7602
  140MOL0     C18380   3.115  10.401   8.386 -0.2243  0.6642  0.7037
  140MOL0     C18381   2.982  10.429   8.396 -0.1588 -0.4157 -0.2913
  140MOL0     C18382   2.915  10.514   8.296  0.4508 -1.0083 -0.1651
  140MOL0     O18383   2.787  10.578   8.310  0.2376  0.2286 -0.5826
  140MOL0     C18384   2.693  10.515   8.401  0.0448 -0.0851 -0.0013
  140MOL0     C18385   2.564  10.594   8.380  0.1919  0.4290 -0.3218
  140MOL0     C18386   2.436  10.556   8.463 -0.0427 -0.2650 -0.1547
  140MOL0     C18387   2.331  10.664   8.438 -0.4002  0.5125 -0.3157
  140MOL0     C18388   2.184  10.616   8.500  0.0152  0.9210  0.5235
  140MOL0     C18389   2.092  10.737   8.496  0.2184 -0.8047 -0.3065
  140MOL0     C18390   1.962  10.717   8.566  1.0036  1.1618  0.0194
  140MOL0     C18391   1.888  10.847   8.584 -0.1115  0.1379  0.5595
  140MOL0    Cl18392   1.865  10.957   8.443 -0.4659 -0.0956  0.0300
  140MOL0     C18393   2.984  10.543   8.175  0.2601 -0.7864  0.0925
  140MOL0     C18394   3.115  10.497   8.171  0.4081 -0.1635 -0.3395
  140MOL0     O18395   3.274  10.206   8.147  0.1008 -0.1226  0.2424
  140MOL0     C18396   3.548  10.175   8.090  0.1464 -0.5863  1.0465
  140MOL0     C18397   3.683  10.163   8.047 -0.2405 -0.5523 -0.0507
  140MOL0     N18398   4.260   9.745   7.843 -0.7155 -0.1872  0.4166
  140MOL0     N18399   4.363   9.679   7.860  0.4484  0.2774 -1.0388
  140MOL0     C18400   5.625   9.800   7.983  0.7143  0.7551 -0.7401
  140MOL0     C18401   5.755   9.847   7.939  0.1233  0.1396 -0.7742
  140MOL0     C18402   6.128  10.059   7.883 -0.8196 -1.1599  0.1614
  140MOL0     C18403   6.232   9.960   7.874 -0.1295 -0.2039  0.4957
  140MOL0     C18404   6.367  10.001   7.849  0.7405 -0.2973 -0.1392
  140MOL0     C18405   6.404  10.131   7.828 -1.0144  0.4179 -0.3282
  140MOL0     O18406   6.546  10.158   7.815 -0.4431  0.1533  0.1786
  140MOL0     C18407   6.594  10.289   7.849 -0.8960 -0.7335  0.5013
  140MOL0     C18408   6.743  10.289   7.837  0.6842 -0.6082  0.0411
  140MOL0     C18409   6.824  10.185   7.914 -0.4791  0.7179  0.0568
  140MOL0     C18410   6.975  10.181   7.881  0.4141 -0.0679  0.5911
  140MOL0     C18411   7.042  10.313   7.924  0.4342 -0.0675  0.1196
  140MOL0     C18412   7.093  10.419   7.955 -0.1759  0.3719  0.0606
  140MOL0     C18413   6.307  10.229   7.832 -0.8574 -0.2304  0.0204
  140MOL0     C18414   6.168  10.197   7.864 -0.9287 -1.1826  1.0398
  140MOL0     H18415   5.919   9.806   8.229 -0.7236  0.7621  1.8278
  140MOL0     H18416   5.705   9.703   8.298  0.6597  0.4321  0.4004
  140MOL0     H18417   5.320   9.573   8.102 -0.1380  0.3924  0.1000
  140MOL0     H18418   5.378   9.676   7.967 -2.7912  1.7809 -0.3165
  140MOL0     H18419   5.334   9.877   8.114  0.1860  0.5722 -1.1893
  140MOL0     H18420   5.253   9.771   8.228  3.2601 -2.5711  0.0896
  140MOL0     H18421   5.108   9.675   8.071  0.5443  0.3760  3.8451
  140MOL0     H18422   5.175   9.804   7.952  0.5470  1.1440  0.7954
  140MOL0     H18423   5.017   9.869   8.210  0.0566  1.8708  0.4872
  140MOL0     H18424   5.104   9.980   8.114 -3.1552  1.3666  2.4554
  140MOL0     H18425   4.957   9.909   7.912 -2.5131  0.7271 -1.0902
  140MOL0     H18426   4.879  10.006   8.035  0.6549  0.4472 -0.0933
  140MOL0     H18427   4.819   9.758   8.127  1.3179 -1.3009 -0.3609
  140MOL0     H18428   4.870   9.698   7.975  1.0546  0.4028 -1.8534
  140MOL0     H18429   4.659   9.899   8.024  2.2464 -0.9899  1.7832
  140MOL0     H18430   4.703   9.843   7.867 -1.9239  1.1802  0.5743
  140MOL0     H18431   4.582   9.649   8.090  3.5706  0.5094 -0.0340
  140MOL0     H18432   4.617   9.611   7.923 -1.2134 -0.6395  1.2175
  140MOL0     H18433   4.395   9.926   8.077 -0.2357  0.0223  0.1975
  140MOL0     H18434   4.114   9.977   7.849 -1.5764 -1.6295  0.3499
  140MOL0     H18435   4.232  10.054   7.968  1.3409 -1.0720  1.2611
  140MOL0     H18436   4.109   9.931   8.148 -0.5221  0.1041  0.3438
  140MOL0     H18437   3.989   9.886   8.033  0.3223  0.7655  1.4062
  140MOL0     H18438   3.926  10.079   8.153 -2.3529  0.2581 -1.7520
  140MOL0     H18439   4.078  10.151   8.141 -1.5235  2.4557 -1.3944
  140MOL0     H18440   3.904  10.117   7.890 -0.4031  0.9147  0.0799
  140MOL0     H18441   4.053  10.217   7.915  0.7178 -0.8143  0.3042
  140MOL0     H18442   3.767  10.479   8.144  0.3627  0.0867 -1.1588
  140MOL0     H18443   3.553  10.499   8.195  1.7658  1.2456 -1.0100
  140MOL0     H18444   3.180  10.360   8.463  1.4596  0.7678 -0.6056
  140MOL0     H18445   2.936  10.395   8.488  1.5075  0.7413  1.0397
  140MOL0     H18446   2.724  10.530   8.505  0.6931 -0.6068 -0.1121
  140MOL0     H18447   2.669  10.413   8.370 -2.7424  0.3022  0.5379
  140MOL0     H18448   2.543  10.571   8.275  0.8609  0.2078 -0.4097
  140MOL0     H18449   2.591  10.700   8.371  1.8178 -0.1536 -4.0440
  140MOL0     H18450   2.466  10.562   8.568 -0.6868  2.2487 -0.0447
  140MOL0     H18451   2.391  10.458   8.444 -0.6876 -0.7068  3.0234
  140MOL0     H18452   2.361  10.755   8.490  1.0625  0.4870 -1.0737
  140MOL0     H18453   2.330  10.674   8.329  3.7456 -1.6889 -0.7317
  140MOL0     H18454   2.203  10.575   8.600  1.1578 -2.6904 -0.9988
  140MOL0     H18455   2.152  10.535   8.434  3.7388  1.5533 -2.3885
  140MOL0     H18456   2.076  10.759   8.390  5.0103  0.1897 -1.0861
  140MOL0     H18457   2.139  10.828   8.534 -0.3563 -0.9100  0.6581
  140MOL0     H18458   1.920  10.635   8.507  3.9253  0.8966 -1.9190
  140MOL0     H18459   1.974  10.665   8.662  0.9354 -2.3132 -1.7055
  140MOL0     H18460   1.935  10.905   8.663  2.2067 -2.5590  1.3087
  140MOL0     H18461   1.786  10.812   8.604 -1.1151  2.8244  0.5777
  140MOL0     H18462   2.940  10.604   8.097 -0.1617 -0.0673  0.8747
  140MOL0     H18463   3.169  10.519   8.080 -0.4917 -1.4581 -1.2187
  140MOL0     H18464   3.483  10.089   8.076 -4.1318  2.2930  1.2827
  140MOL0     H18465   3.710  10.068   8.003  0.4277 -1.2871  1.8226
  140MOL0     H18466   5.542   9.803   7.913 -0.7450 -0.6254  0.8320
  140MOL0     H18467   5.775   9.877   7.837  4.0742  0.8006  0.0295
  140MOL0     H18468   6.215   9.859   7.909  1.7518  0.7750  4.9154
  140MOL0     H18469   6.449   9.930   7.846 -0.0849 -1.2793  0.3688
  140MOL0     H18470   6.560  10.316   7.949 -0.1399 -0.8347  0.7966
  140MOL0     H18471   6.555  10.360   7.775  0.8794 -0.6324 -0.3936
  140MOL0     H18472   6.773  10.294   7.732  0.2159  0.6390 -0.0552
  140MOL0     H18473   6.768  10.392   7.868 -0.2239 -0.2226 -0.4808
  140MOL0     H18474   6.780  10.085   7.913 -0.5074  0.7186  0.7680
  140MOL0     H18475   6.829  10.209   8.020  0.1444 -0.8398  0.4024
  140MOL0     H18476   7.013  10.104   7.949 -1.7347 -1.2239  0.5787
  140MOL0     H18477   6.993  10.156   7.776 -2.1008  0.9522 -0.1673
  140MOL0     H18478   7.137  10.505   8.002 -1.4354  0.6473  0.7645
  140MOL0     H18479   6.335  10.328   7.798  0.2771 -0.9378 -1.1710
  140MOL0     H18480   6.095  10.277   7.858  0.6912  0.2805 -0.4109
  141MOL0     O18481   5.498   5.016   7.426 -0.6681  0.0465  0.2602
  141MOL0     C18482   5.593   4.937   7.442  0.6473 -0.1721 -0.3010
  141MOL0     O18483   5.605   4.818   7.383 -0.5456  0.5398  0.3700
  141MOL0     C18484   5.549   4.790   7.260  0.0104 -0.3481 -0.3998
  141MOL0     C18485   5.424   4.830   7.212  1.3835 -0.8621  0.0242
  141MOL0     C18486   5.359   4.766   7.109  0.2644 -0.3565 -0.1684
  141MOL0     C18487   5.433   4.677   7.027 -0.1213  0.0927 -0.4598
  141MOL0     O18488   5.390   4.620   6.912 -0.5425  0.5323 -0.7403
  141MOL0     C18489   5.248   4.613   6.890  0.1359 -0.0759 -0.8413
  141MOL0     C18490   5.223   4.480   6.815 -0.2514  0.0798  0.3696
  141MOL0     C18491   5.080   4.434   6.847  0.7811  0.4974 -0.1091
  141MOL0     C18492   4.987   4.489   6.738  0.2846 -0.3127  0.2159
  141MOL0     C18493   4.962   4.384   6.626 -0.3190  0.0575 -0.2085
  141MOL0     C18494   5.087   4.313   6.562 -0.0556 -0.8207  0.3179
  141MOL0     C18495   5.036   4.215   6.456  0.4927  0.2902 -0.7383
  141MOL0     C18496   5.116   4.205   6.327 -0.9755  0.3827 -0.4019
  141MOL0     N18497   5.039   4.267   6.215 -0.8694  0.1949 -0.4740
  141MOL0     C18498   5.028   4.219   6.093 -0.7145  0.0930 -0.5601
  141MOL0     C18499   4.975   4.316   6.015  0.1690 -0.5636 -0.3263
  141MOL0     C18500   4.950   4.315   5.866 -0.0153  0.0126 -0.6381
  141MOL0     C18501   4.800   4.292   5.831 -0.3054  0.0884 -0.7670
  141MOL0     C18502   4.761   4.145   5.877  0.1633 -0.7089 -0.8335
  141MOL0     C18503   4.620   4.111   5.827  0.1493 -0.9734 -0.3833
  141MOL0     O18504   4.520   4.127   5.923  0.3251 -0.4129 -0.3055
  141MOL0     C18505   4.402   4.166   5.863  1.0503  0.3870  0.7281
  141MOL0     C18506   4.314   4.069   5.836  0.8263  0.4895  0.3396
  141MOL0     C18507   4.192   4.097   5.770 -0.0150  0.0221 -0.3142
  141MOL0     C18508   4.157   4.229   5.731 -0.2938 -0.5198 -0.0069
  141MOL0     C18509   4.029   4.265   5.670 -0.7185  0.2131  0.5372
  141MOL0     O18510   4.000   4.397   5.640 -0.3107 -0.2400  0.5052
  141MOL0     C18511   3.874   4.430   5.601 -0.1345 -0.9409  0.5630
  141MOL0     C18512   3.861   4.548   5.525 -0.2797 -0.1967 -0.0148
  141MOL0     C18513   3.733   4.600   5.495 -0.6380 -0.3324 -0.1620
  141MOL0     C18514   3.619   4.537   5.542 -1.2869 -0.1874  0.8467
  141MOL0     O18515   3.494   4.576   5.519  0.1908 -0.0714  0.1022
  141MOL0     C18516   3.467   4.600   5.376 -0.0789 -0.3176  0.0876
  141MOL0     C18517   3.324   4.549   5.359 -0.0857  1.0353  0.0531
  141MOL0     C18518   3.280   4.582   5.209  0.2010 -0.5897  0.7499
  141MOL0     C18519   3.137   4.531   5.182  0.9517 -1.0498  1.0098
  141MOL0     C18520   3.028   4.639   5.186  0.2945 -0.6627 -0.3453
  141MOL0     C18521   2.959   4.670   5.050 -0.3932 -1.2532  0.8951
  141MOL0     C18522   2.843   4.768   5.057 -0.9918  0.2329  0.0590
  141MOL0     C18523   2.823   4.861   4.935  0.2324 -0.9203 -1.0597
  141MOL0    Cl18524   2.960   4.964   4.896 -1.3052 -0.3258  0.3910
  141MOL0     C18525   3.632   4.419   5.619  0.2539 -0.3233 -0.1586
  141MOL0     C18526   3.756   4.366   5.648 -0.1776  0.3476 -0.0576
  141MOL0     O18527   3.957   4.170   5.651 -0.1139  0.7322 -0.2010
  141MOL0     C18528   4.246   4.329   5.770 -0.6643  0.4957  0.3517
  141MOL0     C18529   4.366   4.299   5.837  0.6664 -0.8486 -0.3630
  141MOL0     N18530   4.954   4.424   6.094  0.8621 -0.4339 -0.9615
  141MOL0     N18531   4.981   4.396   6.222 -0.1968 -0.2610  0.4091
  141MOL0     C18532   5.563   4.645   7.064 -0.5627 -0.4448 -0.2289
  141MOL0     C18533   5.612   4.691   7.190 -0.5316  0.1732  0.2164
  141MOL0     C18534   5.691   4.978   7.543 -0.2742  0.2094 -0.4845
  141MOL0     C18535   5.765   4.883   7.620 -0.3032  0.0116 -0.1215
  141MOL0     C18536   5.846   4.924   7.726 -1.0015  0.4508 -0.5210
  141MOL0     C18537   5.866   5.057   7.754  0.1224 -0.4003  0.7005
  141MOL0     O18538   5.965   5.099   7.842 -0.2857  0.1918 -0.4491
  141MOL0     C18539   6.076   5.179   7.793  0.1283  0.1864 -0.2308
  141MOL0     C18540   6.195   5.172   7.889  0.6890  0.1653 -0.0367
  141MOL0     C18541   6.236   5.032   7.914 -0.2569  0.5362  0.2408
  141MOL0     C18542   6.357   5.028   8.016  0.8616 -0.3518  0.7011
  141MOL0     C18543   6.475   5.103   7.976  0.2095  0.1816  0.8869
  141MOL0     C18544   6.580   5.168   7.966 -0.3190 -0.1988  0.2694
  141MOL0     C18545   5.805   5.149   7.670  0.3004 -0.0807 -0.0544
  141MOL0     C18546   5.718   5.112   7.570  0.0873 -0.2551 -0.7999
  141MOL0     H18547   5.360   4.900   7.266  2.4092 -0.5036  0.8154
  141MOL0     H18548   5.254   4.783   7.086 -0.7812 -3.0775  1.9826
  141MOL0     H18549   5.215   4.695   6.826  0.5712  0.4485 -0.4087
  141MOL0     H18550   5.195   4.605   6.986 -0.8839  1.6344 -1.2125
  141MOL0     H18551   5.280   4.395   6.855 -0.9590 -0.6832 -0.2219
  141MOL0     H18552   5.249   4.487   6.709 -1.0268 -0.8044  0.1158
  141MOL0     H18553   5.037   4.476   6.938  0.3834 -0.0649 -0.0371
  141MOL0     H18554   5.066   4.326   6.853  1.8438  0.2306 -1.7157
  141MOL0     H18555   4.888   4.527   6.768 -0.8624 -3.6285  1.0923
  141MOL0     H18556   5.043   4.575   6.699  1.0350  0.4173  2.6895
  141MOL0     H18557   4.904   4.432   6.547  1.0716  0.7128 -0.8572
  141MOL0     H18558   4.885   4.309   6.642 -1.1023  0.3897 -2.1037
  141MOL0     H18559   5.148   4.264   6.638 -1.4823 -1.3729  1.1496
  141MOL0     H18560   5.143   4.395   6.515 -0.4450 -2.7276 -3.9769
  141MOL0     H18561   5.024   4.115   6.499 -0.3656  1.0850  0.9650
  141MOL0     H18562   4.936   4.243   6.422  0.7729  0.3651 -1.5347
  141MOL0     H18563   5.141   4.100   6.308 -0.0794  0.5207 -0.0486
  141MOL0     H18564   5.213   4.254   6.344 -1.2599  0.5866  0.6974
  141MOL0     H18565   5.056   4.122   6.054  0.9198  1.0014 -1.7455
  141MOL0     H18566   5.015   4.240   5.817 -0.2074 -0.8564  0.3998
  141MOL0     H18567   4.988   4.408   5.824  0.8855 -0.4214 -0.8112
  141MOL0     H18568   4.784   4.303   5.724 -0.9055 -1.3644 -0.8578
  141MOL0     H18569   4.730   4.360   5.881  0.6550  0.3630  0.2621
  141MOL0     H18570   4.829   4.072   5.834  0.7733 -0.4639 -0.2900
  141MOL0     H18571   4.762   4.151   5.986  2.1113  4.2923 -0.8663
  141MOL0     H18572   4.617   4.008   5.791 -2.3526 -2.4377  3.4064
  141MOL0     H18573   4.602   4.173   5.739  0.8456 -0.3384 -0.0884
  141MOL0     H18574   4.342   3.964   5.842  1.1110  0.5415 -0.0817
  141MOL0     H18575   4.127   4.014   5.745 -2.2878  1.8353 -0.8270
  141MOL0     H18576   3.945   4.614   5.503 -0.9419  1.1435  1.3120
  141MOL0     H18577   3.717   4.691   5.439 -2.7028 -1.3219 -1.2945
  141MOL0     H18578   3.521   4.531   5.311 -0.0984  1.1785 -1.5851
  141MOL0     H18579   3.494   4.695   5.330  4.9226 -1.9722 -0.9728
  141MOL0     H18580   3.251   4.591   5.429 -1.8576 -0.4159 -0.8165
  141MOL0     H18581   3.321   4.441   5.377  0.9632  0.8491 -0.7851
  141MOL0     H18582   3.344   4.533   5.135 -0.7302  1.1926 -1.3390
  141MOL0     H18583   3.281   4.691   5.197 -2.4708 -0.1292  3.3276
  141MOL0     H18584   3.132   4.465   5.095 -1.1836  0.6668 -0.2786
  141MOL0     H18585   3.118   4.475   5.274  1.2791  0.4561  2.0110
  141MOL0     H18586   3.073   4.730   5.226  1.4818  0.3981 -3.7357
  141MOL0     H18587   2.945   4.613   5.252  0.6104  0.5622  0.5554
  141MOL0     H18588   2.916   4.579   5.008  1.7820 -2.2889  0.7860
  141MOL0     H18589   3.039   4.698   4.980 -1.9089  1.2386 -0.0108
  141MOL0     H18590   2.750   4.710   5.060 -0.9758  0.1237 -1.1509
  141MOL0     H18591   2.853   4.843   5.137 -1.7160  2.7985 -2.0981
  141MOL0     H18592   2.737   4.924   4.960 -0.5050 -2.9578  2.1855
  141MOL0     H18593   2.793   4.799   4.850  0.0198 -1.1292 -0.8352
  141MOL0     H18594   3.550   4.363   5.664 -1.5881 -0.2182 -3.1173
  141MOL0     H18595   3.758   4.269   5.698  2.9048  0.1140 -0.4728
  141MOL0     H18596   4.232   4.430   5.733 -0.3291  0.4412  0.0629
  141MOL0     H18597   4.427   4.382   5.872  0.3928 -1.5312  1.8835
  141MOL0     H18598   5.615   4.572   7.003 -1.2155 -1.8309  0.8331
  141MOL0     H18599   5.710   4.658   7.221 -0.3864  1.0783  0.7735
  141MOL0     H18600   5.745   4.777   7.605 -2.1381  0.7265 -4.0892
  141MOL0     H18601   5.902   4.847   7.778 -1.4396  1.0419  0.8690
  141MOL0     H18602   6.041   5.282   7.784 -0.7386 -0.0256  0.5042
  141MOL0     H18603   6.111   5.146   7.695  0.5045 -0.9221  0.2527
  141MOL0     H18604   6.271   5.235   7.841  0.5480  0.1808 -0.2407
  141MOL0     H18605   6.155   5.222   7.978 -0.2528  3.9205 -2.3355
  141MOL0     H18606   6.262   4.983   7.820  0.0951  1.2833 -0.0529
  141MOL0     H18607   6.164   4.974   7.973  1.9365 -2.3946  0.2523
  141MOL0     H18608   6.327   5.060   8.116 -2.3152 -1.1095  0.1065
  141MOL0     H18609   6.377   4.924   8.042 -0.3844 -0.4404  1.3971
  141MOL0     H18610   6.666   5.231   7.958 -0.6263 -0.0208 -2.8526
  141MOL0     H18611   5.825   5.255   7.684 -0.6159  0.2353 -1.0436
  141MOL0     H18612   5.678   5.186   7.501  2.3909  0.7214 -1.1672
  142MOL0     O18613   6.856   6.244   5.574 -0.3263 -0.1041  0.1239
  142MOL0     C18614   6.961   6.199   5.619 -0.3624  0.0982  0.0762
  142MOL0     O18615   6.967   6.080   5.697 -0.2995 -0.3114  0.4324
  142MOL0     C18616   6.850   6.019   5.719  0.3086 -0.5594 -0.2231
  142MOL0     C18617   6.768   6.072   5.813  0.7917 -0.5253  0.3445
  142MOL0     C18618   6.635   6.025   5.838 -0.3149  0.7805  0.9820
  142MOL0     C18619   6.598   5.904   5.779  0.3635  0.0424  0.0960
  142MOL0     O18620   6.471   5.867   5.804 -0.2713  0.2222  0.2388
  142MOL0     C18621   6.398   5.765   5.721  0.3732 -0.7418 -0.2595
  142MOL0     C18622   6.251   5.815   5.729  0.4490 -0.2614 -0.9439
  142MOL0     C18623   6.174   5.739   5.624  0.4967  0.4855  0.1687
  142MOL0     C18624   6.025   5.787   5.636  0.3152 -0.0728 -0.7978
  142MOL0     C18625   5.930   5.708   5.545  0.0831 -0.1900  0.3943
  142MOL0     C18626   5.781   5.713   5.583  0.1591 -0.7060  0.6719
  142MOL0     C18627   5.718   5.574   5.561 -0.5016  0.1674 -0.2410
  142MOL0     C18628   5.695   5.531   5.420  0.1794 -0.5306 -0.5093
  142MOL0     N18629   5.618   5.406   5.420 -1.0919 -0.3478 -0.2510
  142MOL0     C18630   5.580   5.351   5.302 -0.2864  0.0132  0.1853
  142MOL0     C18631   5.540   5.227   5.328 -0.0864  0.1582  0.5561
  142MOL0     C18632   5.490   5.138   5.229  0.3247  0.3492 -0.8997
  142MOL0     C18633   5.335   5.139   5.203 -0.6844  0.5239  0.2497
  142MOL0     C18634   5.281   5.278   5.160  0.0826 -1.0125 -0.0933
  142MOL0     C18635   5.149   5.278   5.095  0.2773  0.4554 -1.0865
  142MOL0     O18636   5.058   5.238   5.195  0.4910 -0.2689 -0.2234
  142MOL0     C18637   4.923   5.227   5.158  0.7290 -0.5665  0.3764
  142MOL0     C18638   4.881   5.219   5.020 -1.1261  0.8712  0.4866
  142MOL0     C18639   4.744   5.206   4.985  0.4059 -0.2457 -0.3814
  142MOL0     C18640   4.647   5.199   5.092  0.1304 -0.2573  0.3848
  142MOL0     C18641   4.505   5.197   5.058  0.6807  0.0642 -0.0042
  142MOL0     O18642   4.459   5.190   4.925 -0.4116 -0.2115  0.3290
  142MOL0     C18643   4.333   5.164   4.882  0.0203  0.6346 -0.6609
  142MOL0     C18644   4.295   5.180   4.746 -0.5382  0.5428 -0.2352
  142MOL0     C18645   4.159   5.169   4.700  0.5626 -0.5716 -0.2368
  142MOL0     C18646   4.064   5.106   4.780  0.8321 -0.2315  0.7015
  142MOL0     O18647   3.937   5.089   4.732 -0.2208 -0.1195  0.4521
  142MOL0     C18648   3.832   5.050   4.828  0.6536  0.7501 -0.1538
  142MOL0     C18649   3.687   5.053   4.780 -0.8151 -0.8185  0.2384
  142MOL0     C18650   3.664   5.060   4.623 -0.3961  1.2315 -0.3326
  142MOL0     C18651   3.522   5.032   4.585 -0.3722  0.6029 -0.1280
  142MOL0     C18652   3.481   4.879   4.578 -0.7726  0.2557  0.2576
  142MOL0     C18653   3.507   4.824   4.432  0.5530  0.4728  0.1285
  142MOL0     C18654   3.453   4.672   4.403  0.4086 -0.2708 -1.1892
  142MOL0     C18655   3.298   4.665   4.421  0.6915  0.5824  0.5469
  142MOL0    Cl18656   3.207   4.799   4.345 -0.2199 -0.5611 -0.3404
  142MOL0     C18657   4.096   5.098   4.920 -0.0068  0.3612  0.9174
  142MOL0     C18658   4.222   5.121   4.964 -0.6868  0.4217  0.2160
  142MOL0     O18659   4.422   5.216   5.148  0.3252 -0.5062 -0.5165
  142MOL0     C18660   4.690   5.216   5.223 -0.1850  0.5502  0.3253
  142MOL0     C18661   4.823   5.223   5.259 -0.0076  0.7979  0.2196
  142MOL0     N18662   5.552   5.212   5.461  0.2120  0.0866 -0.1767
  142MOL0     N18663   5.605   5.317   5.520 -0.3593  0.4481  0.7589
  142MOL0     C18664   6.687   5.842   5.703  0.0293  0.0170  0.4959
  142MOL0     C18665   6.817   5.898   5.670 -1.1125  0.4889 -0.1188
  142MOL0     C18666   7.086   6.265   5.580  0.5200  0.6792  0.4793
  142MOL0     C18667   7.095   6.342   5.458 -0.4450 -0.0503  0.3497
  142MOL0     C18668   7.220   6.402   5.420  0.3174  0.3324  0.0781
  142MOL0     C18669   7.337   6.379   5.502  0.0167  0.5603  0.0912
  142MOL0     O18670   7.461   6.435   5.487  0.1426 -0.2564  0.4603
  142MOL0     C18671   7.515   6.470   5.352 -0.1144  0.3574 -0.8432
  142MOL0     C18672   7.612   6.589   5.365 -0.4237 -0.4487 -0.2738
  142MOL0     C18673   7.758   6.554   5.392  0.1738 -0.0979 -0.4662
  142MOL0     C18674   7.776   6.508   5.537 -0.1050  0.2024 -0.5241
  142MOL0     C18675   7.916   6.457   5.573  0.0320  0.1853  0.9707
  142MOL0     C18676   8.036   6.440   5.604 -0.5269 -0.8492  0.0955
  142MOL0     C18677   7.325   6.299   5.621  0.0449  0.2368 -0.2963
  142MOL0     C18678   7.201   6.248   5.654 -0.6780  0.4506  0.0410
  142MOL0     H18679   6.792   6.166   5.863 -3.2620  1.2406 -0.5868
  142MOL0     H18680   6.554   6.072   5.893 -3.1477 -1.4640 -0.9942
  142MOL0     H18681   6.403   5.663   5.759  0.9647 -0.8546 -0.6141
  142MOL0     H18682   6.424   5.772   5.615 -1.3242  1.8380 -0.6034
  142MOL0     H18683   6.249   5.921   5.704 -1.8353  0.0289  0.2559
  142MOL0     H18684   6.207   5.799   5.828 -1.5719  1.4291 -1.5040
  142MOL0     H18685   6.185   5.632   5.644 -1.4279  0.3021  0.4424
  142MOL0     H18686   6.219   5.762   5.527  2.4334  3.3401  1.6135
  142MOL0     H18687   6.000   5.764   5.740  2.5023  3.7674  0.7858
  142MOL0     H18688   6.011   5.895   5.628  1.0598  0.3848  2.4152
  142MOL0     H18689   5.952   5.602   5.530 -3.9518 -1.3492  1.2952
  142MOL0     H18690   5.938   5.766   5.453 -1.5334  1.5463  1.2849
  142MOL0     H18691   5.725   5.784   5.523 -0.8900 -1.0318  1.2465
  142MOL0     H18692   5.764   5.736   5.689  0.2791 -0.7132  0.6938
  142MOL0     H18693   5.769   5.504   5.628  1.2924  3.4158  2.0752
  142MOL0     H18694   5.619   5.582   5.608  0.5898  0.8914  2.0974
  142MOL0     H18695   5.789   5.510   5.368 -0.4996 -0.9770 -1.5904
  142MOL0     H18696   5.645   5.599   5.350  1.4507 -1.4828 -2.4250
  142MOL0     H18697   5.591   5.403   5.207  1.0896  0.8302  0.7660
  142MOL0     H18698   5.509   5.036   5.266  1.8397  1.3614  1.3577
  142MOL0     H18699   5.544   5.166   5.138 -2.2369  0.9293 -2.3220
  142MOL0     H18700   5.279   5.108   5.293 -0.1651 -1.7701 -0.1560
  142MOL0     H18701   5.307   5.066   5.126 -2.6324  1.3779  0.0818
  142MOL0     H18702   5.285   5.348   5.243  0.3016 -1.2032  0.0584
  142MOL0     H18703   5.351   5.320   5.087 -0.8743 -1.2492 -1.1809
  142MOL0     H18704   5.158   5.209   5.011  0.3744  0.7475 -1.3148
  142MOL0     H18705   5.130   5.378   5.057 -0.8928 -0.3689 -2.8274
  142MOL0     H18706   4.950   5.230   4.937 -2.0849 -1.5890 -0.7740
  142MOL0     H18707   4.710   5.211   4.882 -1.6341 -0.0011  0.2533
  142MOL0     H18708   4.372   5.199   4.672  2.2210 -3.0517  1.3711
  142MOL0     H18709   4.135   5.198   4.598 -1.9799 -1.4315  0.0450
  142MOL0     H18710   3.838   5.108   4.920  0.4446  0.1318  0.2548
  142MOL0     H18711   3.853   4.945   4.851  4.1673  1.2971 -0.2912
  142MOL0     H18712   3.640   5.142   4.825 -1.2369 -1.5890  1.3688
  142MOL0     H18713   3.640   4.962   4.818 -0.7214 -0.5081  1.1324
  142MOL0     H18714   3.720   4.985   4.566  1.4493  1.4818  1.0435
  142MOL0     H18715   3.697   5.159   4.590  0.5937  1.4523  1.2026
  142MOL0     H18716   3.471   5.082   4.668  2.6873 -0.5014  2.6507
  142MOL0     H18717   3.498   5.088   4.494 -2.6613 -0.9346 -0.5570
  142MOL0     H18718   3.374   4.889   4.599 -0.6980  1.8904 -0.0478
  142MOL0     H18719   3.526   4.817   4.656 -0.0585  0.0678 -0.3004
  142MOL0     H18720   3.616   4.825   4.422  0.3859  0.4826 -2.0286
  142MOL0     H18721   3.462   4.898   4.366 -0.6913  1.2801  1.8079
  142MOL0     H18722   3.493   4.642   4.306  3.0399  1.9204 -0.9059
  142MOL0     H18723   3.494   4.606   4.479 -1.6093  0.0060  0.2247
  142MOL0     H18724   3.273   4.665   4.527  1.4132 -1.7493  0.7580
  142MOL0     H18725   3.264   4.573   4.374 -2.5302  3.2445 -2.9435
  142MOL0     H18726   4.021   5.083   4.997  0.3216 -1.9125  0.8412
  142MOL0     H18727   4.229   5.104   5.070 -1.4065 -2.6426 -0.1170
  142MOL0     H18728   4.624   5.216   5.309  3.2341  0.8879  3.1551
  142MOL0     H18729   4.860   5.207   5.360  0.9299 -0.2524 -0.2559
  142MOL0     H18730   6.661   5.742   5.668  0.0289 -0.1135  0.8702
  142MOL0     H18731   6.888   5.838   5.613 -0.5694 -0.3573  1.3955
  142MOL0     H18732   7.005   6.353   5.397  1.3911 -2.3627 -3.1242
  142MOL0     H18733   7.213   6.477   5.342 -0.7130 -0.7689 -0.9354
  142MOL0     H18734   7.442   6.501   5.278  0.4076  0.3005 -1.3960
  142MOL0     H18735   7.558   6.377   5.312 -3.6799 -2.9724  2.2505
  142MOL0     H18736   7.614   6.647   5.272  0.8567  0.9402  0.5605
  142MOL0     H18737   7.568   6.655   5.441 -3.1673 -0.5025 -1.7034
  142MOL0     H18738   7.817   6.646   5.386  0.7905 -0.3578  1.0977
  142MOL0     H18739   7.803   6.479   5.327  0.5185  0.7875 -1.2784
  142MOL0     H18740   7.754   6.593   5.602  0.1573 -0.7291  0.8210
  142MOL0     H18741   7.705   6.431   5.568  2.8954 -2.2044  0.8652
  142MOL0     H18742   8.140   6.424   5.625 -0.5620 -2.5730 -0.8912
  142MOL0     H18743   7.408   6.270   5.685 -1.3502 -3.5343  0.0001
  142MOL0     H18744   7.200   6.186   5.744 -0.9105  1.9411  1.1076
  143MOL0     O18745   1.643   4.374   9.722 -0.3235 -0.1877  0.1615
  143MOL0     C18746   1.677   4.486   9.758  0.4932  0.4565  0.3688
  143MOL0     O18747   1.603   4.598   9.728 -0.4235 -0.0598 -0.5079
  143MOL0     C18748   1.491   4.588   9.656  0.0499 -0.3249  0.3665
  143MOL0     C18749   1.481   4.636   9.516  0.4488 -0.0111 -0.3803
  143MOL0     C18750   1.365   4.628   9.442  0.7782  0.3919  0.4063
  143MOL0     C18751   1.251   4.573   9.496  0.7033 -0.1917  0.2814
  143MOL0     O18752   1.145   4.568   9.409 -0.0148  0.1048 -0.2109
  143MOL0     C18753   1.016   4.589   9.478 -0.3242 -0.0784 -0.2856
  143MOL0     C18754   0.936   4.457   9.489  0.4527  0.6333 -0.5480
  143MOL0     C18755   0.806   4.486   9.571 -1.2715  0.1722 -0.4435
  143MOL0     C18756   0.688   4.558   9.510 -0.0844 -0.4165  0.4193
  143MOL0     C18757   0.563   4.543   9.590  0.2096 -1.0656 -0.2632
  143MOL0     C18758   0.455   4.648   9.540  0.7013 -0.4759  0.2478
  143MOL0     C18759   0.332   4.629   9.620 -1.3797  0.6067  0.6604
  143MOL0     C18760   0.206   4.713   9.566 -0.0893 -0.2636  0.1565
  143MOL0     N18761   0.081   4.666   9.622  1.3527  0.0643 -0.2818
  143MOL0     C18762   0.002   4.559   9.579  0.0245 -0.4933  0.7039
  143MOL0     C18763  -0.120   4.573   9.637 -0.4902  0.0014 -0.3732
  143MOL0     C18764  -0.232   4.468   9.621 -0.8511  0.4196  0.1760
  143MOL0     C18765  -0.355   4.526   9.572  0.5721  0.1992 -0.0682
  143MOL0     C18766  -0.454   4.413   9.538  0.8145 -0.0449 -0.2642
  143MOL0     C18767  -0.585   4.476   9.503 -0.3174  0.2534 -0.5706
  143MOL0     O18768  -0.669   4.373   9.456  0.0564 -0.2971 -0.4795
  143MOL0     C18769  -0.801   4.418   9.454  0.6369 -0.3461 -0.8083
  143MOL0     C18770  -0.890   4.314   9.450  0.5010  0.4287 -0.0960
  143MOL0     C18771  -1.028   4.344   9.439 -0.8252  0.1220 -0.0796
  143MOL0     C18772  -1.079   4.473   9.436 -0.5161 -0.0550  0.2560
  143MOL0     C18773  -1.219   4.492   9.426  0.7257  0.1930 -0.4961
  143MOL0     O18774  -1.263   4.610   9.461  0.5129 -0.0679 -0.1806
  143MOL0     C18775  -1.390   4.628   9.496  0.1947  0.2474 -0.9430
  143MOL0     C18776  -1.436   4.582   9.619  0.0669  1.5787  0.3979
  143MOL0     C18777  -1.575   4.592   9.652  0.0035  0.1293  0.0161
  143MOL0     C18778  -1.669   4.631   9.555  0.2646 -0.2391 -0.7626
  143MOL0     O18779  -1.811   4.615   9.573  0.2288  0.1013  0.0662
  143MOL0     C18780  -1.844   4.520   9.681 -0.0592 -0.8994  0.1847
  143MOL0     C18781  -1.983   4.489   9.632 -0.6919  0.2647 -0.5610
  143MOL0     C18782  -2.027   4.364   9.703  0.2324 -0.1379  0.3259
  143MOL0     C18783  -2.171   4.320   9.695  0.0402 -0.4964  0.5758
  143MOL0     C18784  -2.211   4.207   9.783 -1.1629 -0.5743  0.2755
  143MOL0     C18785  -2.186   4.223   9.936 -0.9038  0.3748  0.4527
  143MOL0     C18786  -2.281   4.324  10.008 -0.4959  0.5899  0.4060
  143MOL0     C18787  -2.237   4.317  10.157 -0.2627  0.6248  0.0221
  143MOL0    Cl18788  -2.060   4.350  10.170  0.0814 -0.0416 -0.4982
  143MOL0     C18789  -1.618   4.684   9.435 -0.0197  0.3663 -0.0773
  143MOL0     C18790  -1.480   4.677   9.409 -0.1463  1.0063  0.4516
  143MOL0     O18791  -1.291   4.391   9.411 -0.3072  0.1415 -0.4958
  143MOL0     C18792  -0.984   4.578   9.443  0.5003 -0.4657  0.8564
  143MOL0     C18793  -0.849   4.554   9.447 -0.4792 -0.2416  1.0158
  143MOL0     N18794  -0.101   4.681   9.728 -0.1714  0.3401 -0.1772
  143MOL0     N18795   0.015   4.731   9.721 -0.0946 -0.1470 -0.9294
  143MOL0     C18796   1.258   4.535   9.634 -0.4474 -0.2928  0.2936
  143MOL0     C18797   1.378   4.533   9.708  0.7808  0.3231 -0.4285
  143MOL0     C18798   1.802   4.482   9.842 -0.0949 -0.6454 -1.0860
  143MOL0     C18799   1.874   4.366   9.870 -0.6358 -0.1047 -0.1183
  143MOL0     C18800   1.981   4.353   9.963 -0.3613  0.3702 -0.6119
  143MOL0     C18801   2.029   4.463  10.031  1.0601 -0.9232  0.5599
  143MOL0     O18802   2.143   4.473  10.105  0.1931  0.4280  0.3634
  143MOL0     C18803   2.198   4.345  10.137 -0.1360  1.0077  0.1444
  143MOL0     C18804   2.304   4.279  10.041  0.1726  0.4379 -0.1827
  143MOL0     C18805   2.429   4.368  10.055 -0.6157 -0.1465 -0.4416
  143MOL0     C18806   2.564   4.317  10.008 -0.1230  0.5844 -0.7292
  143MOL0     C18807   2.638   4.246  10.109 -0.3751  0.7652 -0.7784
  143MOL0     C18808   2.696   4.177  10.193 -0.0896 -0.3304  0.5527
  143MOL0     C18809   1.962   4.586   9.997 -0.5178 -0.6216  0.1290
  143MOL0     C18810   1.852   4.594   9.910  0.2575 -0.7311  0.8840
  143MOL0     H18811   1.560   4.683   9.457  0.2745 -0.2756 -0.8222
  143MOL0     H18812   1.350   4.666   9.342  0.0830  3.0371  1.4220
  143MOL0     H18813   0.956   4.659   9.419 -1.0365 -0.5288 -0.1034
  143MOL0     H18814   1.030   4.627   9.579  0.3865  3.0546 -1.4600
  143MOL0     H18815   0.996   4.380   9.538 -1.6542 -0.8633 -0.1692
  143MOL0     H18816   0.902   4.420   9.392  0.0324 -1.2613  0.2712
  143MOL0     H18817   0.827   4.528   9.670  1.5589  1.8005 -1.6330
  143MOL0     H18818   0.781   4.380   9.585  0.3479 -0.7270 -3.4652
  143MOL0     H18819   0.701   4.666   9.496 -1.0608 -0.0685  2.0179
  143MOL0     H18820   0.688   4.535   9.403 -0.0721 -1.4468  0.6319
  143MOL0     H18821   0.597   4.556   9.693 -0.8503  2.5248 -0.2393
  143MOL0     H18822   0.530   4.441   9.570 -0.1420 -0.8121 -1.0324
  143MOL0     H18823   0.420   4.629   9.438 -0.5039  1.9540  0.1250
  143MOL0     H18824   0.495   4.749   9.554 -1.3009  0.2072  1.4623
  143MOL0     H18825   0.312   4.524   9.640 -0.2932  0.5201  1.3517
  143MOL0     H18826   0.359   4.663   9.721  1.3661  1.3236 -0.2179
  143MOL0     H18827   0.208   4.705   9.457 -2.4340 -1.0305  0.1253
  143MOL0     H18828   0.226   4.818   9.592  0.8922  0.0083 -1.6016
  143MOL0     H18829   0.044   4.487   9.509  1.2457  0.5802  0.2821
  143MOL0     H18830  -0.247   4.420   9.719 -2.0740  0.3969 -0.0089
  143MOL0     H18831  -0.196   4.395   9.548 -0.9314  0.4339  0.1222
  143MOL0     H18832  -0.341   4.588   9.483 -1.2842 -0.1513 -0.6532
  143MOL0     H18833  -0.400   4.585   9.653  0.9301  0.1446  0.1736
  143MOL0     H18834  -0.422   4.365   9.445  1.2977  3.0788 -1.8702
  143MOL0     H18835  -0.458   4.342   9.621  0.3717 -0.3243 -0.5239
  143MOL0     H18836  -0.553   4.534   9.416  1.0708 -0.4825 -0.5855
  143MOL0     H18837  -0.624   4.538   9.584  0.2546  2.5016 -1.9458
  143MOL0     H18838  -0.857   4.211   9.438 -3.0604 -0.8568 -0.0494
  143MOL0     H18839  -1.097   4.262   9.420  1.0373 -1.7446  0.8860
  143MOL0     H18840  -1.356   4.546   9.683 -0.0581  2.5586  1.1277
  143MOL0     H18841  -1.605   4.562   9.752 -1.1532 -1.2423 -0.6996
  143MOL0     H18842  -1.851   4.580   9.772 -1.4716 -1.4650  0.4787
  143MOL0     H18843  -1.784   4.430   9.691  1.0211  0.0796  4.0140
  143MOL0     H18844  -1.988   4.463   9.526 -0.9144 -1.1630 -0.2101
  143MOL0     H18845  -2.056   4.569   9.647 -1.8275 -0.9901  0.8941
  143MOL0     H18846  -2.010   4.379   9.810  1.1861  1.6847 -0.0503
  143MOL0     H18847  -1.973   4.279   9.661 -0.8429 -0.1947 -1.0348
  143MOL0     H18848  -2.232   4.409   9.713 -1.3592 -0.7157 -2.3913
  143MOL0     H18849  -2.193   4.289   9.592  0.4675  0.4295  0.1921
  143MOL0     H18850  -2.145   4.123   9.760 -0.8119 -0.0189 -0.8070
  143MOL0     H18851  -2.316   4.187   9.763 -1.4160  2.7521 -2.8418
  143MOL0     H18852  -2.079   4.240   9.953 -0.3650 -2.6107  0.5765
  143MOL0     H18853  -2.202   4.120   9.970 -0.4421 -0.0554 -0.5946
  143MOL0     H18854  -2.284   4.424   9.963 -1.5998  1.2881  1.9517
  143MOL0     H18855  -2.382   4.284  10.019 -0.4145  0.7659  2.0963
  143MOL0     H18856  -2.261   4.219  10.198 -1.1845  0.1629 -1.5418
  143MOL0     H18857  -2.284   4.396  10.218 -1.3461  0.5790 -0.7139
  143MOL0     H18858  -1.694   4.704   9.360  1.3140 -1.5988 -2.0910
  143MOL0     H18859  -1.449   4.704   9.309 -0.4688 -2.4050 -0.6995
  143MOL0     H18860  -1.020   4.680   9.457  1.2376 -0.0001 -0.4817
  143MOL0     H18861  -0.776   4.634   9.450  0.0537 -0.6124 -0.8388
  143MOL0     H18862   1.171   4.513   9.695 -0.4780  3.8344  2.1227
  143MOL0     H18863   1.366   4.479   9.801  2.4967 -1.4127 -1.1646
  143MOL0     H18864   1.844   4.276   9.818 -0.5414  0.1715 -0.6612
  143MOL0     H18865   2.016   4.251   9.978 -1.3437  0.0959 -0.0898
  143MOL0     H18866   2.126   4.265  10.152  2.2288 -1.6229 -1.4988
  143MOL0     H18867   2.239   4.345  10.239 -0.2927  1.8310  0.2187
  143MOL0     H18868   2.330   4.182  10.084  0.6606  0.7881  0.3237
  143MOL0     H18869   2.268   4.270   9.939  0.0365 -0.8611 -0.0397
  143MOL0     H18870   2.452   4.388  10.160 -1.4840  1.6677 -0.5577
  143MOL0     H18871   2.423   4.461   9.998  2.8207 -0.8296 -2.2014
  143MOL0     H18872   2.553   4.260   9.915  0.6894 -0.2902 -0.3121
  143MOL0     H18873   2.616   4.410   9.984 -0.9685  1.2402 -0.0700
  143MOL0     H18874   2.750   4.114  10.262 -0.7259 -1.7915 -0.2307
  143MOL0     H18875   2.003   4.677  10.040  2.0490 -0.4505 -2.4212
  143MOL0     H18876   1.811   4.694   9.902  2.6946  0.2440 -0.6383
  144MOL0     O18877   9.304  11.030  10.595  0.3021 -0.3905  0.4238
  144MOL0     C18878   9.336  10.912  10.592  0.7155 -0.3526 -0.1471
  144MOL0     O18879   9.251  10.802  10.606 -0.5675  0.5692 -0.0985
  144MOL0     C18880   9.115  10.818  10.588 -0.4533  0.3284 -0.0332
  144MOL0     C18881   9.061  10.758  10.479 -0.5705  0.1501  0.7621
  144MOL0     C18882   8.925  10.750  10.460  0.3098  0.4597 -0.5720
  144MOL0     C18883   8.834  10.809  10.553  0.2380  0.0144  0.7063
  144MOL0     O18884   8.701  10.802  10.525 -0.3206  0.6284  0.2622
  144MOL0     C18885   8.610  10.898  10.582  0.0401 -0.5399  0.2189
  144MOL0     C18886   8.469  10.881  10.535  0.5170 -0.3516 -0.0820
  144MOL0     C18887   8.427  10.730  10.579 -0.4512  0.2518 -0.7122
  144MOL0     C18888   8.272  10.710  10.572 -0.6753 -0.4459 -0.4443
  144MOL0     C18889   8.218  10.743  10.708  0.1624  0.5679 -0.1366
  144MOL0     C18890   8.065  10.724  10.736 -0.0002 -0.0627  0.3684
  144MOL0     C18891   7.992  10.840  10.665 -0.1484  0.7497 -0.7691
  144MOL0     C18892   7.835  10.824  10.666  0.1405 -0.2413 -0.1175
  144MOL0     N18893   7.763  10.948  10.631  0.0546 -0.6076  0.9080
  144MOL0     C18894   7.793  11.073  10.673  0.4561 -0.1414  0.2761
  144MOL0     C18895   7.691  11.155  10.626 -0.2890 -0.2565 -0.4632
  144MOL0     C18896   7.674  11.303  10.661  0.3642 -0.3544  1.1519
  144MOL0     C18897   7.585  11.332  10.780  0.3719  0.1205  0.9762
  144MOL0     C18898   7.432  11.283  10.761 -0.8835  0.6412  0.3302
  144MOL0     C18899   7.339  11.340  10.867 -0.2294  0.5003  0.0585
  144MOL0     O18900   7.216  11.268  10.866 -0.1828 -0.6253 -0.3450
  144MOL0     C18901   7.115  11.337  10.803  0.3565  0.4240  0.9579
  144MOL0     C18902   7.056  11.446  10.865 -0.2014  1.1078 -0.2026
  144MOL0     C18903   6.947  11.506  10.813  1.1592 -0.4058  0.8090
  144MOL0     C18904   6.867  11.460  10.707 -0.7743  0.7593  0.0230
  144MOL0     C18905   6.752  11.523  10.664  0.6538  0.0183  0.5045
  144MOL0     O18906   6.678  11.580  10.766  0.0046 -0.4009 -0.0231
  144MOL0     C18907   6.574  11.661  10.742  0.1064  0.6692  0.0275
  144MOL0     C18908   6.576  11.796  10.773 -0.1027  0.1311 -0.1743
  144MOL0     C18909   6.462  11.878  10.756  0.5932 -0.4105  0.4034
  144MOL0     C18910   6.342  11.820  10.703 -0.3073 -0.2956  0.9461
  144MOL0     O18911   6.239  11.912  10.683 -0.0551  0.8926 -0.0425
  144MOL0     C18912   6.156  11.877  10.576  0.4081 -0.4809  0.5721
  144MOL0     C18913   6.031  11.962  10.561  0.3206  0.5978 -1.1890
  144MOL0     C18914   5.930  11.965  10.686  0.1067  1.0749 -0.7745
  144MOL0     C18915   5.845  11.835  10.725 -0.0168 -1.5944 -0.2273
  144MOL0     C18916   5.737  11.809  10.618 -0.7363 -0.4781 -0.2618
  144MOL0     C18917   5.633  11.915  10.601  0.7434  0.4082 -0.4064
  144MOL0     C18918   5.533  11.883  10.487 -0.2244  0.0481  0.0729
  144MOL0     C18919   5.415  11.983  10.477  0.7683  0.5638 -0.6694
  144MOL0    Cl18920   5.326  11.961  10.630  0.1917 -0.0913 -0.1870
  144MOL0     C18921   6.338  11.682  10.674 -0.7220 -0.5767 -0.6298
  144MOL0     C18922   6.453  11.602  10.692 -0.3125 -0.2382 -0.6697
  144MOL0     O18923   6.728  11.525  10.543  0.2832  0.1124  0.1434
  144MOL0     C18924   6.937  11.346  10.652  0.4449  1.2831 -0.8682
  144MOL0     C18925   7.055  11.284  10.693 -0.3389  0.4999  0.9600
  144MOL0     N18926   7.605  11.072  10.552  0.0701  0.2503  0.7152
  144MOL0     N18927   7.657  10.955  10.548 -0.1379  0.8218  0.2506
  144MOL0     C18928   8.894  10.873  10.666  0.1373  0.7351  0.0367
  144MOL0     C18929   9.028  10.878  10.679 -0.6350 -0.3890 -0.5422
  144MOL0     C18930   9.477  10.876  10.564 -0.5828 -0.7227  0.3473
  144MOL0     C18931   9.587  10.959  10.592  0.3094  0.3129  0.2531
  144MOL0     C18932   9.716  10.909  10.565 -1.1448  0.0611 -0.2509
  144MOL0     C18933   9.742  10.790  10.509  0.0941  0.6421 -0.1366
  144MOL0     O18934   9.865  10.744  10.494  0.0158  1.1848 -0.3637
  144MOL0     C18935   9.972  10.809  10.559 -0.5429  0.5623  1.3542
  144MOL0     C18936  10.100  10.734  10.535 -0.3758 -0.2430  0.2887
  144MOL0     C18937  10.237  10.808  10.557  0.5768  0.7994 -0.0321
  144MOL0     C18938  10.310  10.821  10.427  0.0580  0.6285 -0.5462
  144MOL0     C18939  10.449  10.852  10.453  0.6446 -0.5744  0.5543
  144MOL0     C18940  10.562  10.874  10.491  0.7834  0.3890 -0.1098
  144MOL0     C18941   9.635  10.721  10.467 -0.2640  1.0275  0.0175
  144MOL0     C18942   9.501  10.762  10.493  0.0768  0.0967  0.3489
  144MOL0     H18943   9.116  10.709  10.399 -1.6404 -1.0444  0.7332
  144MOL0     H18944   8.884  10.688  10.381  1.2012  0.6025 -1.1708
  144MOL0     H18945   8.648  10.998  10.560  1.6081 -0.2782  3.4530
  144MOL0     H18946   8.610  10.884  10.691 -0.6625  1.7717  0.5712
  144MOL0     H18947   8.447  10.894  10.429 -2.6843 -1.3272  0.3598
  144MOL0     H18948   8.400  10.949  10.584  1.2596  0.7066 -0.4808
  144MOL0     H18949   8.452  10.703  10.681 -2.0478 -2.4782 -0.9668
  144MOL0     H18950   8.481  10.653  10.523 -1.6544 -2.0140  1.0959
  144MOL0     H18951   8.230  10.772  10.492 -0.7664 -0.2849 -0.2717
  144MOL0     H18952   8.254  10.603  10.553  0.3913 -0.8773  0.8770
  144MOL0     H18953   8.233  10.848  10.733 -2.3167  1.1137 -0.6460
  144MOL0     H18954   8.272  10.683  10.782 -1.2960 -0.2959  0.2766
  144MOL0     H18955   8.046  10.738  10.843 -1.8158 -1.7241  0.3125
  144MOL0     H18956   8.024  10.627  10.706 -1.2327  0.3882  0.5462
  144MOL0     H18957   8.043  10.934  10.688  1.6298 -0.3358 -0.0951
  144MOL0     H18958   8.014  10.844  10.558 -1.8985  2.0887 -1.1222
  144MOL0     H18959   7.796  10.793  10.763 -1.1845 -0.1705 -0.6003
  144MOL0     H18960   7.793  10.738  10.613 -1.1779  1.2181 -1.5753
  144MOL0     H18961   7.871  11.103  10.743 -1.0439  1.3399  1.3845
  144MOL0     H18962   7.631  11.352  10.573 -0.1453  0.1217  1.6538
  144MOL0     H18963   7.775  11.340  10.680  0.4334  1.9300 -2.6803
  144MOL0     H18964   7.583  11.437  10.810  3.0261  0.1244  1.3790
  144MOL0     H18965   7.624  11.277  10.866 -1.3052 -1.5347  0.7523
  144MOL0     H18966   7.395  11.302  10.660 -1.0288  3.0899  0.7977
  144MOL0     H18967   7.437  11.174  10.771 -0.2487  0.4586 -1.4367
  144MOL0     H18968   7.342  11.448  10.848  1.5949  0.3068 -1.0022
  144MOL0     H18969   7.382  11.330  10.967 -1.2822 -2.5017  0.3060
  144MOL0     H18970   7.102  11.493  10.951  1.0207  0.7336 -0.6227
  144MOL0     H18971   6.911  11.587  10.876 -3.7569 -1.1733 -0.6066
  144MOL0     H18972   6.663  11.837  10.822 -1.6526  2.1626  1.0179
  144MOL0     H18973   6.477  11.979  10.791  2.1980 -0.8532  1.0628
  144MOL0     H18974   6.134  11.771  10.564  1.8310 -0.7930  0.6000
  144MOL0     H18975   6.216  11.897  10.487 -1.3599 -1.6275 -0.9518
  144MOL0     H18976   5.972  11.926  10.476 -1.3171 -0.8419  0.4630
  144MOL0     H18977   6.049  12.068  10.539  0.0894  2.0497  4.2817
  144MOL0     H18978   5.858  12.046  10.673 -1.0957  0.1337 -0.1390
  144MOL0     H18979   5.993  11.988  10.772 -0.7148  2.0906 -0.4268
  144MOL0     H18980   5.913  11.750  10.715  1.7183 -0.1154 -1.8268
  144MOL0     H18981   5.807  11.855  10.825 -0.0618  1.2038 -0.7218
  144MOL0     H18982   5.694  11.715  10.652 -1.1826  0.5216  2.1528
  144MOL0     H18983   5.789  11.792  10.524  2.3572 -1.7494  1.5414
  144MOL0     H18984   5.672  12.017  10.593  0.8428  0.5932  1.7330
  144MOL0     H18985   5.578  11.919  10.696  0.9607  1.6411 -0.3191
  144MOL0     H18986   5.598  11.881  10.399 -0.9428  1.1908 -0.5003
  144MOL0     H18987   5.490  11.785  10.512  3.0359 -1.1063  1.8858
  144MOL0     H18988   5.358  11.974  10.384  2.3075  0.8900 -1.6700
  144MOL0     H18989   5.463  12.081  10.474  2.0400 -0.0507 -1.2660
  144MOL0     H18990   6.243  11.633  10.655 -2.2059  1.0152  2.0931
  144MOL0     H18991   6.441  11.496  10.675 -1.7482 -0.0614 -0.9219
  144MOL0     H18992   6.894  11.294  10.567  0.0838 -1.2576  0.7742
  144MOL0     H18993   7.083  11.196  10.636 -0.2814  1.7799 -1.0975
  144MOL0     H18994   8.828  10.921  10.739 -0.0848 -0.3283  0.5611
  144MOL0     H18995   9.085  10.915  10.764 -0.1685 -2.2147 -0.0212
  144MOL0     H18996   9.573  11.060  10.629 -1.7355 -0.1932  1.0073
  144MOL0     H18997   9.788  10.987  10.583 -0.3196 -0.7509  0.0322
  144MOL0     H18998   9.948  10.839  10.661 -3.7136  1.6978  0.3925
  144MOL0     H18999   9.984  10.906  10.510 -1.0570 -0.7840 -1.6538
  144MOL0     H19000  10.097  10.645  10.598 -1.7526  0.3903  1.1623
  144MOL0     H19001  10.090  10.716  10.427 -1.8313  1.6833  0.0563
  144MOL0     H19002  10.287  10.742  10.628 -1.1772  1.0814  1.5490
  144MOL0     H19003  10.221  10.900  10.612 -0.8869 -1.0791  2.9510
  144MOL0     H19004  10.309  10.731  10.366  1.3454  0.3041 -0.1175
  144MOL0     H19005  10.273  10.904  10.366 -0.8121 -0.4908 -1.5697
  144MOL0     H19006  10.662  10.897  10.521  0.0585 -1.4787  4.5043
  144MOL0     H19007   9.655  10.632  10.407  1.7797  1.4176  0.0408
  144MOL0     H19008   9.423  10.698  10.452 -0.0048  0.9162 -0.8092
  145MOL0     O19009  11.168   2.051   2.057  0.4363  0.3895  0.1669
  145MOL0     C19010  11.225   2.137   2.125 -0.2487  0.1999 -0.2317
  145MOL0     O19011  11.159   2.224   2.208  0.2792 -0.0430  0.3310
  145MOL0     C19012  11.024   2.203   2.249 -0.9666 -0.5609  0.2575
  145MOL0     C19013  10.970   2.302   2.338  0.1166  0.4066  0.2326
  145MOL0     C19014  10.838   2.277   2.387  0.0403 -0.8971  0.2885
  145MOL0     C19015  10.746   2.178   2.339  0.1388  0.7038  0.2011
  145MOL0     O19016  10.620   2.175   2.394 -0.3438 -0.0458  0.5409
  145MOL0     C19017  10.535   2.060   2.377  0.1162  0.3110 -0.6032
  145MOL0     C19018  10.394   2.088   2.438 -0.3263 -0.0275  1.0575
  145MOL0     C19019  10.286   2.002   2.388 -0.1731  0.5307  0.0756
  145MOL0     C19020  10.316   1.849   2.405 -0.5995  0.2852 -0.1007
  145MOL0     C19021  10.332   1.803   2.555  0.6257  0.0238 -0.3391
  145MOL0     C19022  10.194   1.806   2.611 -0.1917  0.5381  0.4926
  145MOL0     C19023  10.158   1.716   2.725  0.4678  0.0449  0.4585
  145MOL0     C19024  10.180   1.571   2.681 -0.1744  0.2461  0.8592
  145MOL0     N19025  10.106   1.489   2.775 -0.1528 -0.3241 -0.3321
  145MOL0     C19026   9.982   1.426   2.758  0.1623  0.6677  0.3388
  145MOL0     C19027   9.942   1.371   2.874 -0.0530 -0.3052 -0.7556
  145MOL0     C19028   9.811   1.294   2.913 -0.4484  0.1322  1.2817
  145MOL0     C19029   9.703   1.381   2.976 -0.2218 -0.1737  0.0833
  145MOL0     C19030   9.617   1.473   2.886 -0.4015 -0.9917 -0.0573
  145MOL0     C19031   9.484   1.507   2.952 -0.6503  0.1908  0.5795
  145MOL0     O19032   9.504   1.582   3.076  0.2031  0.5213 -0.4993
  145MOL0     C19033   9.400   1.588   3.169 -0.3448 -0.3059  0.2683
  145MOL0     C19034   9.265   1.555   3.147 -0.0816  0.2166 -1.2281
  145MOL0     C19035   9.168   1.590   3.243 -0.5478 -0.7853  0.3307
  145MOL0     C19036   9.191   1.668   3.351 -0.4633  0.1244  0.2150
  145MOL0     C19037   9.089   1.712   3.441  0.7165  0.3558  0.0424
  145MOL0     O19038   9.127   1.799   3.539  0.0787  0.3915  0.1234
  145MOL0     C19039   9.080   1.796   3.665  0.6724 -0.0094 -0.2850
  145MOL0     C19040   9.167   1.777   3.763  0.2583 -0.6439 -0.5598
  145MOL0     C19041   9.122   1.782   3.901 -0.0235  0.0963 -0.4339
  145MOL0     C19042   8.985   1.798   3.930  0.1682  0.1221  0.2411
  145MOL0     O19043   8.926   1.782   4.051  0.1156 -0.2295  0.4973
  145MOL0     C19044   9.004   1.812   4.168 -0.0883 -0.0385  0.2412
  145MOL0     C19045   8.915   1.816   4.291 -0.4852  0.1424  0.9326
  145MOL0     C19046   8.805   1.922   4.293  0.4286 -0.3337  0.2992
  145MOL0     C19047   8.698   1.894   4.411 -0.1294 -0.2978  0.4279
  145MOL0     C19048   8.581   1.995   4.408  0.2090  0.2334 -1.5659
  145MOL0     C19049   8.487   1.970   4.528 -0.4119 -0.4596 -0.5083
  145MOL0     C19050   8.336   2.013   4.509 -0.0932 -0.3741 -0.5500
  145MOL0     C19051   8.252   1.917   4.598  0.6084  0.4116  0.1764
  145MOL0    Cl19052   8.297   1.909   4.768  0.1886 -0.0104  0.1876
  145MOL0     C19053   8.903   1.802   3.820  0.1977 -0.8053 -0.3706
  145MOL0     C19054   8.950   1.811   3.693 -0.4389 -0.0484  0.3693
  145MOL0     O19055   8.978   1.660   3.430  0.1595 -0.1001 -0.1335
  145MOL0     C19056   9.328   1.700   3.380  0.8780  1.3935  0.3107
  145MOL0     C19057   9.421   1.660   3.283  0.2778  0.3675 -0.7922
  145MOL0     N19058  10.053   1.386   2.958 -0.0983 -0.0941 -0.5208
  145MOL0     N19059  10.145   1.460   2.903  0.0754 -0.0939  0.0650
  145MOL0     C19060  10.800   2.091   2.239  0.4437 -0.2325  0.1542
  145MOL0     C19061  10.937   2.098   2.203  0.5683 -0.1710 -0.2490
  145MOL0     C19062  11.375   2.139   2.112  0.3218 -0.6873  0.5546
  145MOL0     C19063  11.455   2.065   2.016  0.2606  0.8241  0.0099
  145MOL0     C19064  11.593   2.082   2.014 -0.0255  0.4604  0.6386
  145MOL0     C19065  11.650   2.183   2.091 -0.9553  0.6082 -0.5576
  145MOL0     O19066  11.788   2.206   2.094  0.7407 -0.2255  0.2635
  145MOL0     C19067  11.869   2.088   2.076  0.1834 -0.5970 -0.0249
  145MOL0     C19068  12.005   2.094   2.143 -0.8830  1.0161  0.0188
  145MOL0     C19069  12.114   2.013   2.074  0.7474 -0.1298  0.5694
  145MOL0     C19070  12.238   2.030   2.167 -0.4973  0.5123  0.4193
  145MOL0     C19071  12.347   1.941   2.129  0.0881 -0.7168  0.5884
  145MOL0     C19072  12.449   1.883   2.083 -0.0897  0.1004 -0.8521
  145MOL0     C19073  11.567   2.266   2.172  0.7192 -0.6166 -1.2898
  145MOL0     C19074  11.431   2.247   2.178  0.4117  0.6244  0.2937
  145MOL0     H19075  11.026   2.389   2.368  1.7963 -0.7600  0.6430
  145MOL0     H19076  10.812   2.339   2.472  1.1825 -0.0807  0.0666
  145MOL0     H19077  10.578   1.972   2.425  1.3571  1.9289  1.4240
  145MOL0     H19078  10.519   2.045   2.270  2.1701 -0.4800 -0.8269
  145MOL0     H19079  10.383   2.197   2.429  0.2376  0.1248  2.0315
  145MOL0     H19080  10.406   2.072   2.546 -1.5338 -1.1567  1.0394
  145MOL0     H19081  10.281   2.021   2.281 -1.5977  0.5392  0.1258
  145MOL0     H19082  10.197   2.031   2.446 -0.3514  1.4062 -0.6165
  145MOL0     H19083  10.234   1.791   2.361 -2.8016  0.8444  2.9461
  145MOL0     H19084  10.407   1.823   2.350  0.3768 -3.4556  2.8460
  145MOL0     H19085  10.400   1.861   2.618  0.0843  0.5753 -0.2491
  145MOL0     H19086  10.365   1.699   2.544  0.6516 -0.0017 -0.0249
  145MOL0     H19087  10.121   1.780   2.534 -2.3925 -1.0951  2.9500
  145MOL0     H19088  10.172   1.909   2.639  0.0291  0.1022  2.4363
  145MOL0     H19089  10.219   1.750   2.810 -2.1087  2.7319  1.4147
  145MOL0     H19090  10.058   1.719   2.770 -0.2561 -1.1094 -1.0046
  145MOL0     H19091  10.289   1.560   2.675  0.4093  4.7808 -0.4366
  145MOL0     H19092  10.142   1.562   2.579 -0.0005  1.2872  0.6908
  145MOL0     H19093   9.925   1.420   2.666  0.6952  1.3705 -0.0408
  145MOL0     H19094   9.837   1.206   2.972  2.0091  1.9655  3.1923
  145MOL0     H19095   9.761   1.263   2.822 -1.4686 -0.9572  2.1907
  145MOL0     H19096   9.744   1.447   3.053  0.4297 -2.6178  1.9996
  145MOL0     H19097   9.643   1.309   3.033  2.2563 -1.2092  1.5906
  145MOL0     H19098   9.670   1.565   2.861 -0.2135 -1.7408 -2.7319
  145MOL0     H19099   9.595   1.427   2.789 -0.2747 -2.3231  0.5274
  145MOL0     H19100   9.419   1.420   2.970  1.6368 -1.7640  0.0089
  145MOL0     H19101   9.428   1.576   2.889  0.2587 -2.1126 -3.0263
  145MOL0     H19102   9.231   1.498   3.061 -1.0056 -1.8776  0.4255
  145MOL0     H19103   9.069   1.552   3.219 -0.8664 -1.0252  1.8886
  145MOL0     H19104   9.272   1.777   3.739  0.4514  0.1266  0.2606
  145MOL0     H19105   9.187   1.786   3.989 -2.0364 -0.1166  1.1312
  145MOL0     H19106   9.056   1.909   4.164  0.5842 -0.3755  0.5712
  145MOL0     H19107   9.085   1.740   4.182 -0.5570 -0.8674 -1.1273
  145MOL0     H19108   8.980   1.835   4.378  1.4249  0.8618 -0.5705
  145MOL0     H19109   8.875   1.715   4.296  0.4505 -0.9145 -5.3745
  145MOL0     H19110   8.743   1.919   4.203 -2.3584  1.8044  1.9838
  145MOL0     H19111   8.848   2.022   4.300 -2.8038  1.1581  0.4535
  145MOL0     H19112   8.667   1.789   4.398  1.4753 -0.7392 -0.0907
  145MOL0     H19113   8.768   1.904   4.494  0.8501 -0.4977 -0.3445
  145MOL0     H19114   8.519   1.982   4.318 -2.0948  0.5462 -0.0979
  145MOL0     H19115   8.615   2.099   4.405  0.0952  0.2637 -1.8957
  145MOL0     H19116   8.519   2.022   4.619  2.7736 -3.1389  0.1202
  145MOL0     H19117   8.494   1.865   4.556  0.5619 -0.0853  0.7751
  145MOL0     H19118   8.319   2.118   4.534 -1.0990 -0.3653 -1.2259
  145MOL0     H19119   8.307   1.998   4.405 -3.1980  0.2927  0.1140
  145MOL0     H19120   8.255   1.817   4.554 -1.9609 -0.5141  1.9126
  145MOL0     H19121   8.145   1.942   4.599  0.3043 -0.8383  0.3606
  145MOL0     H19122   8.799   1.778   3.840  0.2827 -1.5342 -0.7903
  145MOL0     H19123   8.882   1.818   3.609  0.2833 -1.9148 -0.4329
  145MOL0     H19124   9.352   1.759   3.468  0.0444  3.5107 -0.8062
  145MOL0     H19125   9.524   1.691   3.299  0.3116  0.5074 -1.2690
  145MOL0     H19126  10.738   2.013   2.195 -0.7895  0.3482  0.7819
  145MOL0     H19127  10.970   2.024   2.131  2.5844 -0.6246  1.0328
  145MOL0     H19128  11.419   1.985   1.952  0.6280 -0.8183  1.7675
  145MOL0     H19129  11.649   2.019   1.945 -2.9418 -0.9909 -0.5681
  145MOL0     H19130  11.881   2.078   1.967 -1.4391 -2.2446 -0.1062
  145MOL0     H19131  11.812   2.002   2.113 -1.1926 -0.2135 -1.1829
  145MOL0     H19132  12.026   2.202   2.143  2.1025  0.6092 -3.5655
  145MOL0     H19133  11.990   2.050   2.242 -1.0181  0.6123 -0.1796
  145MOL0     H19134  12.131   2.042   1.970 -0.8040 -0.8964  0.0817
  145MOL0     H19135  12.082   1.910   2.059 -1.4690  0.0650  3.2455
  145MOL0     H19136  12.284   2.129   2.163  1.8159 -0.4674  1.6076
  145MOL0     H19137  12.193   2.026   2.266 -0.4791  2.8959  0.5982
  145MOL0     H19138  12.542   1.841   2.052 -0.2628  1.2552 -3.0998
  145MOL0     H19139  11.611   2.342   2.236  1.2849 -1.2391 -0.9286
  145MOL0     H19140  11.378   2.317   2.243  0.8184  0.8773  0.3573
  146MOL0     O19141   0.082   2.986   6.750  0.1856  0.2744  0.4979
  146MOL0     C19142   0.080   3.027   6.864 -0.2870  0.2621  0.3037
  146MOL0     O19143  -0.043   3.048   6.937 -0.1688 -1.2365  0.2077
  146MOL0     C19144  -0.165   3.011   6.878  0.5663 -0.0322 -0.2820
  146MOL0     C19145  -0.281   3.090   6.888 -0.2167 -0.1076 -0.3243
  146MOL0     C19146  -0.408   3.036   6.851  0.3932 -0.3368  0.2697
  146MOL0     C19147  -0.417   2.911   6.787  0.3620  0.6969  0.0530
  146MOL0     O19148  -0.528   2.846   6.733 -0.4383 -0.4368 -0.3256
  146MOL0     C19149  -0.658   2.900   6.765 -0.0432 -0.9194  0.3090
  146MOL0     C19150  -0.758   2.800   6.712 -0.3988  0.0613  0.0284
  146MOL0     C19151  -0.899   2.829   6.762  0.9129  0.4870  0.4172
  146MOL0     C19152  -0.985   2.699   6.756 -0.5804  1.0756 -0.8543
  146MOL0     C19153  -1.128   2.746   6.773  0.5460  0.3615 -1.0319
  146MOL0     C19154  -1.230   2.638   6.795  1.1815  0.8140  0.1614
  146MOL0     C19155  -1.180   2.530   6.895 -0.2014  0.4704  0.1614
  146MOL0     C19156  -1.312   2.444   6.928  0.6518  0.4300  0.4926
  146MOL0     N19157  -1.381   2.378   6.815 -0.7865  0.5000  0.4273
  146MOL0     C19158  -1.330   2.287   6.729  0.1215 -0.1017  0.1264
  146MOL0     C19159  -1.434   2.221   6.671 -0.0326 -0.3706  0.3489
  146MOL0     C19160  -1.422   2.106   6.570  0.2318 -1.2293  0.6402
  146MOL0     C19161  -1.343   1.986   6.628 -0.6903 -1.3034  0.0270
  146MOL0     C19162  -1.323   1.874   6.526  0.0433  0.2842 -0.3018
  146MOL0     C19163  -1.184   1.852   6.468 -0.3438 -0.2073 -0.8680
  146MOL0     O19164  -1.181   1.832   6.324  0.2539 -0.5202 -0.3935
  146MOL0     C19165  -1.212   1.706   6.286 -1.0795 -0.5093  1.4296
  146MOL0     C19166  -1.343   1.663   6.283 -0.0629  0.3746 -0.0921
  146MOL0     C19167  -1.361   1.517   6.250 -0.7433  0.1515 -0.1995
  146MOL0     C19168  -1.264   1.435   6.196 -0.7918  0.5475 -0.0138
  146MOL0     C19169  -1.297   1.298   6.154  0.9238 -0.1886 -0.7023
  146MOL0     O19170  -1.411   1.236   6.211 -0.0088 -0.5611  0.1167
  146MOL0     C19171  -1.437   1.115   6.170  0.7779 -0.0991  1.6840
  146MOL0     C19172  -1.358   0.998   6.147 -0.3008  0.0972 -0.5135
  146MOL0     C19173  -1.422   0.881   6.107 -1.1446 -0.1413  0.8741
  146MOL0     C19174  -1.555   0.872   6.072 -0.0922  0.1822  0.0575
  146MOL0     O19175  -1.607   0.751   6.035 -0.5410  0.5247 -0.1971
  146MOL0     C19176  -1.727   0.740   5.960  1.2623 -0.5091  0.2037
  146MOL0     C19177  -1.725   0.606   5.890  0.7820  0.1326 -0.5502
  146MOL0     C19178  -1.873   0.564   5.876 -0.6337  0.5856  0.2902
  146MOL0     C19179  -1.887   0.421   5.821  0.3642 -0.7587 -0.4466
  146MOL0     C19180  -2.031   0.387   5.775 -0.2301 -0.2261  0.1596
  146MOL0     C19181  -2.102   0.477   5.671 -0.2305 -0.2582 -0.0441
  146MOL0     C19182  -2.247   0.429   5.656 -0.1482  0.8698  0.5661
  146MOL0     C19183  -2.253   0.293   5.577  0.2959 -0.1799 -0.5892
  146MOL0    Cl19184  -2.418   0.283   5.514  0.4608  0.0712  0.2149
  146MOL0     C19185  -1.635   0.987   6.092  0.8416  0.3949 -0.1209
  146MOL0     C19186  -1.572   1.102   6.143  0.3305  0.9348  0.7595
  146MOL0     O19187  -1.209   1.249   6.080  0.0863  0.7871 -0.2718
  146MOL0     C19188  -1.138   1.491   6.199  0.0287  0.7845  0.9803
  146MOL0     C19189  -1.110   1.618   6.241  0.1776 -0.7338  0.2029
  146MOL0     N19190  -1.552   2.287   6.708  0.1437  0.5261  0.6376
  146MOL0     N19191  -1.520   2.384   6.794 -0.5088  0.3176 -0.6051
  146MOL0     C19192  -0.300   2.832   6.774 -0.6875 -0.2366 -0.0777
  146MOL0     C19193  -0.181   2.885   6.823  0.0719  0.0447  0.2283
  146MOL0     C19194   0.207   3.047   6.932  0.2661 -0.3077  0.4012
  146MOL0     C19195   0.328   3.018   6.867  0.5252  0.6879  0.9992
  146MOL0     C19196   0.450   3.057   6.914  0.4668 -0.5775 -0.5450
  146MOL0     C19197   0.452   3.108   7.046  0.0604  0.0611  0.5354
  146MOL0     O19198   0.568   3.150   7.105  0.1870 -0.0494 -0.5586
  146MOL0     C19199   0.697   3.126   7.054 -0.1599  0.5766 -0.2480
  146MOL0     C19200   0.785   3.191   7.159  0.4462  0.2965  0.1486
  146MOL0     C19201   0.929   3.169   7.133 -0.1129  0.1797 -0.1238
  146MOL0     C19202   1.015   3.288   7.177 -0.3861 -0.3346  0.8822
  146MOL0     C19203   1.140   3.299   7.093  0.0965  0.7251 -0.3537
  146MOL0     C19204   1.251   3.312   7.052 -0.0290  0.1537  0.3960
  146MOL0     C19205   0.336   3.120   7.121 -0.1360 -0.2594 -0.4920
  146MOL0     C19206   0.214   3.085   7.067  0.1937 -0.0392  0.5620
  146MOL0     H19207  -0.276   3.191   6.929  1.1406 -0.1851 -0.2395
  146MOL0     H19208  -0.502   3.090   6.862  0.9973  0.5369  1.4851
  146MOL0     H19209  -0.679   2.985   6.700  0.0724 -2.2992 -1.6372
  146MOL0     H19210  -0.661   2.918   6.873 -1.2081 -2.3711  0.5505
  146MOL0     H19211  -0.728   2.698   6.741  2.8515  0.8924 -0.0214
  146MOL0     H19212  -0.751   2.819   6.605 -0.9486  1.5084  0.2264
  146MOL0     H19213  -0.939   2.915   6.708  2.4946  0.8873 -0.1889
  146MOL0     H19214  -0.887   2.863   6.865 -0.7082  2.7760 -0.0728
  146MOL0     H19215  -0.983   2.653   6.656  1.3167 -2.1184  0.5064
  146MOL0     H19216  -0.964   2.635   6.841 -2.4365  1.2966 -0.1916
  146MOL0     H19217  -1.162   2.817   6.697  0.2744 -0.9127 -2.1326
  146MOL0     H19218  -1.132   2.801   6.868  1.9125  2.1421 -1.9464
  146MOL0     H19219  -1.256   2.587   6.702  0.6189  1.2621  0.0674
  146MOL0     H19220  -1.323   2.678   6.838  0.9138 -1.2715  1.7367
  146MOL0     H19221  -1.105   2.462   6.856 -1.7990 -1.5905  0.5364
  146MOL0     H19222  -1.144   2.583   6.984 -2.0349  1.2493  0.4991
  146MOL0     H19223  -1.383   2.513   6.974  0.6463  0.6891  0.0952
  146MOL0     H19224  -1.286   2.362   6.996  3.2757  2.1583  1.7594
  146MOL0     H19225  -1.225   2.258   6.724 -0.1026 -1.3984  1.8838
  146MOL0     H19226  -1.368   2.146   6.484 -2.0680  1.0166  0.1250
  146MOL0     H19227  -1.521   2.074   6.536  1.0823 -0.9600 -2.3355
  146MOL0     H19228  -1.417   1.956   6.703 -2.0976 -1.9559 -1.5481
  146MOL0     H19229  -1.249   2.014   6.677  0.0272  1.0562 -2.5087
  146MOL0     H19230  -1.347   1.789   6.591  0.7586  0.2411 -0.0807
  146MOL0     H19231  -1.397   1.886   6.446  0.1362  1.6507 -0.2097
  146MOL0     H19232  -1.143   1.765   6.520  0.8849  1.1296  0.4909
  146MOL0     H19233  -1.131   1.947   6.476  0.2781 -0.6318  0.1787
  146MOL0     H19234  -1.415   1.728   6.330 -2.2382 -2.2771  0.5114
  146MOL0     H19235  -1.458   1.469   6.264  0.6602 -2.5389  1.1351
  146MOL0     H19236  -1.256   0.993   6.183 -0.8860 -3.6158  1.1569
  146MOL0     H19237  -1.358   0.795   6.090 -0.3096  0.6271  0.0127
  146MOL0     H19238  -1.727   0.818   5.883  0.1228  0.3508  1.0412
  146MOL0     H19239  -1.819   0.765   6.013 -0.8367  4.5706 -4.8230
  146MOL0     H19240  -1.674   0.542   5.962 -2.7332 -1.7963  0.4115
  146MOL0     H19241  -1.673   0.618   5.794  1.2396  1.0844 -0.2012
  146MOL0     H19242  -1.926   0.637   5.814  1.4837  0.9475 -1.1669
  146MOL0     H19243  -1.914   0.548   5.976 -0.7211  0.2790  0.2084
  146MOL0     H19244  -1.814   0.391   5.745  1.4910 -0.3033  0.4308
  146MOL0     H19245  -1.868   0.360   5.910 -1.0454  0.2782  0.6132
  146MOL0     H19246  -2.084   0.397   5.870 -0.0731 -0.1828  0.2421
  146MOL0     H19247  -2.033   0.285   5.735 -0.1221  0.8468 -2.8864
  146MOL0     H19248  -2.053   0.459   5.575 -0.0563 -0.4046  0.0702
  146MOL0     H19249  -2.095   0.579   5.710  3.7327 -0.6480  0.7214
  146MOL0     H19250  -2.281   0.406   5.757  1.6036 -2.4748  0.5292
  146MOL0     H19251  -2.318   0.494   5.604 -5.1559 -4.0610  0.3772
  146MOL0     H19252  -2.236   0.213   5.650 -0.7987  0.8756  0.8804
  146MOL0     H19253  -2.181   0.287   5.495 -0.2409  2.0127 -1.2867
  146MOL0     H19254  -1.741   0.996   6.072  0.6949 -1.6304 -0.4836
  146MOL0     H19255  -1.632   1.190   6.166 -1.7524  0.5572 -2.6415
  146MOL0     H19256  -1.059   1.420   6.176 -1.4012 -1.1083  1.6882
  146MOL0     H19257  -1.009   1.657   6.237 -0.0230 -0.2766 -0.6688
  146MOL0     H19258  -0.290   2.741   6.716  2.2900  0.8646 -1.4711
  146MOL0     H19259  -0.109   2.804   6.827 -0.2934 -0.2382  1.6452
  146MOL0     H19260   0.333   2.975   6.767 -0.7233  0.9468  0.8041
  146MOL0     H19261   0.543   3.043   6.860  0.4657 -0.3412 -0.6126
  146MOL0     H19262   0.703   3.168   6.953 -2.0027  0.7449 -0.3181
  146MOL0     H19263   0.717   3.021   7.032 -1.8859  0.4714 -1.5733
  146MOL0     H19264   0.758   3.295   7.176  2.7104  0.5828  2.6847
  146MOL0     H19265   0.757   3.152   7.258  1.3681  3.6047  1.8777
  146MOL0     H19266   0.948   3.148   7.027 -1.1222  1.2247 -0.5268
  146MOL0     H19267   0.957   3.075   7.182  0.1849 -0.8318 -2.1098
  146MOL0     H19268   0.969   3.388   7.181  2.7930  1.3495 -0.9181
  146MOL0     H19269   1.039   3.256   7.278 -4.5022 -0.3796  2.0415
  146MOL0     H19270   1.354   3.316   7.020  1.4171  1.5995  4.5103
  146MOL0     H19271   0.348   3.168   7.217 -2.6078 -0.8932  0.2004
  146MOL0     H19272   0.120   3.089   7.123 -0.7562 -0.3405 -0.9637
  147MOL0     O19273   2.411   8.606   2.443 -0.1177 -0.5138 -0.4682
  147MOL0     C19274   2.416   8.503   2.511  0.0574  0.0820  0.4368
  147MOL0     O19275   2.321   8.408   2.510 -0.6770  0.3283 -0.0540
  147MOL0     C19276   2.218   8.426   2.427 -0.5705  0.9027  1.0055
  147MOL0     C19277   2.223   8.381   2.297  0.0767 -0.8767 -0.0059
  147MOL0     C19278   2.116   8.405   2.213  0.2879  0.7069 -0.8406
  147MOL0     C19279   2.008   8.482   2.261  0.7127 -0.2343 -0.6645
  147MOL0     O19280   1.894   8.490   2.201  0.4001 -0.5660  0.1194
  147MOL0     C19281   1.896   8.510   2.061 -0.2670 -0.7658  0.2624
  147MOL0     C19282   1.777   8.592   2.005  0.3421  0.2602  0.1310
  147MOL0     C19283   1.786   8.648   1.860 -1.0068 -0.3585 -0.4669
  147MOL0     C19284   1.665   8.723   1.812  0.1637  0.7768  0.1831
  147MOL0     C19285   1.692   8.777   1.662 -0.7257  0.0063  0.0737
  147MOL0     C19286   1.557   8.806   1.585 -0.2231 -0.1587 -0.1587
  147MOL0     C19287   1.504   8.950   1.580 -0.4590 -0.0048 -0.8407
  147MOL0     C19288   1.440   8.991   1.712 -0.1799  0.3774 -0.5188
  147MOL0     N19289   1.304   8.945   1.730 -0.3040 -0.3063 -0.8984
  147MOL0     C19290   1.192   8.987   1.658  0.2439  0.3999 -0.0025
  147MOL0     C19291   1.090   8.906   1.694 -0.0393 -0.9741  0.5588
  147MOL0     C19292   0.962   8.921   1.625  1.0365  0.1367 -0.1516
  147MOL0     C19293   0.895   9.062   1.623 -0.5841  0.1430 -0.3475
  147MOL0     C19294   0.885   9.132   1.758 -0.1160  0.3567 -0.0190
  147MOL0     C19295   0.815   9.040   1.854 -0.5347  0.3744  0.0119
  147MOL0     O19296   0.689   8.996   1.791 -0.3260  0.1385  0.1664
  147MOL0     C19297   0.581   9.076   1.784 -0.7276 -0.0300 -0.7143
  147MOL0     C19298   0.548   9.174   1.884 -0.5107 -0.0170  0.2208
  147MOL0     C19299   0.444   9.263   1.855 -1.1621  0.0182 -0.6174
  147MOL0     C19300   0.364   9.253   1.740  0.5084 -0.1497  0.1570
  147MOL0     C19301   0.239   9.336   1.725  0.4489 -0.0917 -0.5033
  147MOL0     O19302   0.189   9.391   1.833  0.0873  0.1401  0.5436
  147MOL0     C19303   0.077   9.466   1.830 -0.1985  0.7074 -0.4368
  147MOL0     C19304  -0.047   9.416   1.797 -0.0154  0.2765 -0.0116
  147MOL0     C19305  -0.162   9.495   1.808 -0.7411  0.0326 -0.6684
  147MOL0     C19306  -0.154   9.622   1.868  0.7217 -0.0704 -0.6797
  147MOL0     O19307  -0.273   9.692   1.864 -0.5398 -0.8344 -0.0271
  147MOL0     C19308  -0.296   9.809   1.950  0.2192  0.1271  0.5969
  147MOL0     C19309  -0.443   9.827   1.994  1.4482 -0.5754  0.2755
  147MOL0     C19310  -0.533   9.812   1.871 -0.1728 -0.0194 -0.8001
  147MOL0     C19311  -0.677   9.856   1.899 -0.5865 -0.8015 -0.3438
  147MOL0     C19312  -0.758   9.871   1.782 -0.1223  0.0003 -0.0295
  147MOL0     C19313  -0.888   9.947   1.817  0.2040 -0.2965 -0.2380
  147MOL0     C19314  -0.999   9.910   1.724  0.0405  1.0818  0.4237
  147MOL0     C19315  -1.138   9.969   1.768 -0.1997  0.2683  0.2223
  147MOL0    Cl19316  -1.126  10.154   1.752  0.0635  0.4045  0.6537
  147MOL0     C19317  -0.026   9.673   1.908 -0.2580 -0.2365 -0.3972
  147MOL0     C19318   0.088   9.597   1.882  0.7350  0.3650  0.4498
  147MOL0     O19319   0.178   9.333   1.619 -0.4616  0.1955  0.4169
  147MOL0     C19320   0.405   9.154   1.638 -0.2179  0.0184  0.3419
  147MOL0     C19321   0.518   9.071   1.659  0.3850  0.1095 -0.3546
  147MOL0     N19322   1.136   8.806   1.780 -0.2888  0.1752  0.2531
  147MOL0     N19323   1.267   8.835   1.803 -0.0903 -0.1115 -0.8750
  147MOL0     C19324   2.005   8.525   2.392  0.2770 -0.5240 -0.3528
  147MOL0     C19325   2.112   8.496   2.478  0.4375  0.3172  0.1592
  147MOL0     C19326   2.516   8.484   2.612 -0.7279  0.0647 -0.7924
  147MOL0     C19327   2.495   8.388   2.717  0.7094 -0.3708 -0.8408
  147MOL0     C19328   2.590   8.378   2.821  0.2523 -0.2517  0.4624
  147MOL0     C19329   2.704   8.445   2.819 -0.5417  0.0969  0.1488
  147MOL0     O19330   2.788   8.419   2.926  0.2062  0.6664 -0.1818
  147MOL0     C19331   2.921   8.476   2.918  0.9979  0.4092 -0.0499
  147MOL0     C19332   3.012   8.422   3.031 -0.0684  1.0393  0.5496
  147MOL0     C19333   3.016   8.267   3.012  0.6537  0.2007  0.5146
  147MOL0     C19334   3.065   8.228   2.873  0.5707 -0.9910  0.7301
  147MOL0     C19335   3.115   8.092   2.872  0.7503 -0.2294 -0.3345
  147MOL0     C19336   3.165   7.979   2.869 -0.0982 -0.7687  0.1356
  147MOL0     C19337   2.731   8.530   2.710  0.3357  0.1693 -0.5284
  147MOL0     C19338   2.634   8.553   2.614 -0.1277 -0.1310 -0.1554
  147MOL0     H19339   2.314   8.324   2.276 -0.7712 -2.0506 -0.6169
  147MOL0     H19340   2.118   8.366   2.111 -0.1324  0.0091 -0.5866
  147MOL0     H19341   1.896   8.422   1.996  1.0889 -0.4505 -0.2067
  147MOL0     H19342   1.988   8.562   2.032 -0.3283 -0.5311  0.4834
  147MOL0     H19343   1.760   8.680   2.068 -0.2898 -1.0587  1.9027
  147MOL0     H19344   1.687   8.531   2.019  1.5588 -1.5931  0.2949
  147MOL0     H19345   1.817   8.570   1.790 -0.5099 -1.9100  1.4154
  147MOL0     H19346   1.867   8.722   1.861 -0.8911 -0.4544 -1.4468
  147MOL0     H19347   1.585   8.648   1.810  0.4243  0.4854  0.5544
  147MOL0     H19348   1.634   8.798   1.884 -0.0059  0.1567  0.7631
  147MOL0     H19349   1.742   8.694   1.613 -0.0421 -0.2785  1.2167
  147MOL0     H19350   1.757   8.865   1.655 -0.3487 -0.0940  1.8663
  147MOL0     H19351   1.486   8.729   1.618 -0.8814  0.2096 -0.7000
  147MOL0     H19352   1.585   8.788   1.480  0.0661  1.9155 -0.4746
  147MOL0     H19353   1.580   9.023   1.550 -2.6433  3.2554  0.9604
  147MOL0     H19354   1.436   8.960   1.495  0.7725  2.3023 -1.6556
  147MOL0     H19355   1.444   9.100   1.709  1.8759  0.3291 -2.5647
  147MOL0     H19356   1.488   8.948   1.800 -0.7852 -3.3898 -1.8174
  147MOL0     H19357   1.193   9.064   1.581 -1.9409  2.5032  1.8872
  147MOL0     H19358   0.883   8.856   1.663 -0.5213  0.7199 -2.2039
  147MOL0     H19359   0.979   8.886   1.522  0.7285 -0.4655 -0.0047
  147MOL0     H19360   0.798   9.058   1.572  0.4419  1.6402 -2.5688
  147MOL0     H19361   0.960   9.120   1.557 -0.0121  1.8132  1.5954
  147MOL0     H19362   0.985   9.145   1.801  0.0846 -3.6282  1.0938
  147MOL0     H19363   0.831   9.226   1.746 -1.4202 -0.6160 -2.4387
  147MOL0     H19364   0.794   9.101   1.943 -3.0422  0.9171 -0.8527
  147MOL0     H19365   0.874   8.956   1.890  2.1338  0.5801 -3.3900
  147MOL0     H19366   0.601   9.183   1.979 -0.6230 -0.5546  0.3393
  147MOL0     H19367   0.432   9.343   1.928 -0.8709 -1.5892  1.2592
  147MOL0     H19368  -0.052   9.315   1.759  3.1140  0.2458 -0.5775
  147MOL0     H19369  -0.259   9.450   1.789 -0.4685 -1.5689  1.3396
  147MOL0     H19370  -0.261   9.905   1.912 -0.5465  0.1776 -0.0102
  147MOL0     H19371  -0.240   9.792   2.042  2.0527  0.0310 -0.4985
  147MOL0     H19372  -0.451   9.929   2.032 -0.6725 -0.4286 -0.3894
  147MOL0     H19373  -0.470   9.758   2.075  2.4403 -1.9554 -0.5307
  147MOL0     H19374  -0.537   9.704   1.849 -1.0395  0.0887 -1.2109
  147MOL0     H19375  -0.482   9.861   1.788 -2.2184  1.0910 -1.4553
  147MOL0     H19376  -0.721   9.804   1.985 -1.9268  1.5898  0.5114
  147MOL0     H19377  -0.674   9.955   1.945 -0.4652 -0.6913 -0.5851
  147MOL0     H19378  -0.767   9.774   1.734  1.6992 -0.2554  0.0891
  147MOL0     H19379  -0.703   9.930   1.708 -1.7431  0.0557 -1.2553
  147MOL0     H19380  -0.876  10.055   1.820  2.0154 -0.4534 -0.6148
  147MOL0     H19381  -0.912   9.908   1.916 -2.3218 -1.4296 -1.1876
  147MOL0     H19382  -0.972   9.938   1.622 -2.2415  2.8798  0.2295
  147MOL0     H19383  -1.003   9.800   1.721  1.3538  0.9648 -3.6478
  147MOL0     H19384  -1.159   9.944   1.873  1.7523  2.4092  1.2143
  147MOL0     H19385  -1.221   9.950   1.700 -0.8137  3.7583 -0.2308
  147MOL0     H19386  -0.016   9.766   1.963 -1.5254  0.4254 -1.2245
  147MOL0     H19387   0.187   9.636   1.902  0.2156  1.2936  1.3307
  147MOL0     H19388   0.347   9.163   1.547  0.6848  1.5929 -0.1083
  147MOL0     H19389   0.559   8.996   1.593 -0.0862 -0.4064 -0.0728
  147MOL0     H19390   1.920   8.576   2.436  1.6490  3.2117 -1.5658
  147MOL0     H19391   2.113   8.535   2.579 -3.3477  2.0954 -0.3228
  147MOL0     H19392   2.414   8.316   2.713 -0.2170  0.6188 -4.9688
  147MOL0     H19393   2.565   8.313   2.904  0.3011 -1.5415 -0.5087
  147MOL0     H19394   2.908   8.583   2.941  2.4266  0.3503  1.2241
  147MOL0     H19395   2.969   8.467   2.820 -0.9463  1.4254 -1.1495
  147MOL0     H19396   3.112   8.461   3.014  1.0070 -2.7410 -3.6926
  147MOL0     H19397   2.967   8.454   3.126  0.0240  1.9795  0.2775
  147MOL0     H19398   2.917   8.227   3.039  0.7613  1.0690  2.3591
  147MOL0     H19399   3.091   8.231   3.082  0.5011 -0.5248  0.3127
  147MOL0     H19400   2.988   8.257   2.800  1.5311  1.5407  0.6195
  147MOL0     H19401   3.158   8.282   2.852  1.7870 -2.5947  1.7759
  147MOL0     H19402   3.219   7.887   2.878  0.5997 -0.4105 -0.2662
  147MOL0     H19403   2.823   8.588   2.718 -0.4558  1.1711  2.9299
  147MOL0     H19404   2.664   8.625   2.539  1.9373 -1.4089 -0.6389
  148MOL0     O19405   0.997   7.964  10.908 -0.6127 -0.9665  0.1213
  148MOL0     C19406   1.077   7.877  10.907 -0.3317 -0.6532  0.3711
  148MOL0     O19407   1.044   7.749  10.884 -0.5387  0.8741  0.1298
  148MOL0     C19408   0.915   7.709  10.867  0.1553  0.8850 -0.0854
  148MOL0     C19409   0.919   7.594  10.786 -0.6544 -0.0765 -0.3063
  148MOL0     C19410   0.797   7.536  10.747  0.2380 -0.1551  1.5586
  148MOL0     C19411   0.675   7.600  10.774 -0.4225  0.7656 -0.2040
  148MOL0     O19412   0.562   7.539  10.732 -0.3266  0.4872  0.1221
  148MOL0     C19413   0.432   7.579  10.770 -0.5392  0.3142  0.7880
  148MOL0     C19414   0.337   7.461  10.749 -0.5061 -0.4380 -0.0197
  148MOL0     C19415   0.195   7.520  10.729 -0.1021  0.0386 -0.1136
  148MOL0     C19416   0.088   7.411  10.723 -0.5843 -0.5180 -0.6552
  148MOL0     C19417  -0.043   7.457  10.665  0.4556 -0.3908 -0.1316
  148MOL0     C19418  -0.149   7.362  10.716 -0.6768 -0.6989  0.3672
  148MOL0     C19419  -0.279   7.398  10.653  0.8129 -0.2940  0.9664
  148MOL0     C19420  -0.399   7.321  10.723  0.0091  0.0394 -0.0577
  148MOL0     N19421  -0.529   7.350  10.678  0.2813  0.3783 -0.2906
  148MOL0     C19422  -0.623   7.430  10.740  0.0244 -1.0305 -0.2203
  148MOL0     C19423  -0.737   7.418  10.670 -0.6543  0.4752  0.6398
  148MOL0     C19424  -0.866   7.490  10.714 -0.1426  0.3570 -0.0138
  148MOL0     C19425  -0.980   7.480  10.600  0.5214  0.0257 -0.0477
  148MOL0     C19426  -1.098   7.577  10.630 -0.0899  0.3797  0.4163
  148MOL0     C19427  -1.229   7.534  10.550  0.3762  0.4165 -0.7032
  148MOL0     O19428  -1.338   7.634  10.575 -0.0963 -0.1028 -0.2090
  148MOL0     C19429  -1.470   7.582  10.584  0.3784 -0.0575  0.5525
  148MOL0     C19430  -1.517   7.450  10.542 -0.7335 -0.3891  1.0441
  148MOL0     C19431  -1.645   7.410  10.573 -0.2788  0.3541 -0.0388
  148MOL0     C19432  -1.740   7.506  10.621  0.2113  1.1740 -0.6738
  148MOL0     C19433  -1.883   7.477  10.624  0.4561  0.6102  0.9075
  148MOL0     O19434  -1.960   7.576  10.665  0.7368  0.7769  0.1140
  148MOL0     C19435  -2.097   7.549  10.692 -0.9026  0.5508 -0.6495
  148MOL0     C19436  -2.143   7.427  10.745 -0.2283  0.4727 -0.8472
  148MOL0     C19437  -2.275   7.412  10.783 -0.2487 -0.6457 -0.0142
  148MOL0     C19438  -2.376   7.513  10.759 -0.5093  0.0643  0.0499
  148MOL0     O19439  -2.508   7.506  10.797  0.7164 -0.3460  0.2743
  148MOL0     C19440  -2.523   7.433  10.924 -0.7709  0.0791 -0.2235
  148MOL0     C19441  -2.654   7.462  10.994 -0.0065 -0.1988  0.6175
  148MOL0     C19442  -2.776   7.434  10.906  0.4359  0.4021  0.8287
  148MOL0     C19443  -2.896   7.395  10.986  0.0224  0.1813 -0.8456
  148MOL0     C19444  -2.995   7.327  10.899 -0.3908 -0.4289  0.5332
  148MOL0     C19445  -3.133   7.330  10.962  0.0751  0.3268  0.7355
  148MOL0     C19446  -3.227   7.240  10.885  0.5597  0.1094 -0.0196
  148MOL0     C19447  -3.363   7.308  10.890  0.1471 -0.1682  0.8395
  148MOL0    Cl19448  -3.430   7.345  11.047  0.3347  0.2068  0.2652
  148MOL0     C19449  -2.324   7.636  10.703  1.4720 -0.7957 -0.0148
  148MOL0     C19450  -2.192   7.645  10.670 -0.1587  0.0752 -0.5750
  148MOL0     O19451  -1.923   7.371  10.580 -0.0543 -0.4087  0.2405
  148MOL0     C19452  -1.692   7.635  10.662  0.0456  0.3868  0.2722
  148MOL0     C19453  -1.560   7.671  10.642 -1.0267 -0.2723 -1.1877
  148MOL0     N19454  -0.710   7.325  10.568  0.0437 -0.4637 -0.7044
  148MOL0     N19455  -0.588   7.286  10.570  0.3207 -0.7809  0.3973
  148MOL0     C19456   0.669   7.716  10.850 -0.2336 -1.2925  0.4013
  148MOL0     C19457   0.794   7.772  10.895 -0.2146  0.5359  0.7528
  148MOL0     C19458   1.221   7.913  10.926  0.1761 -0.3856 -0.0272
  148MOL0     C19459   1.323   7.833  10.907 -0.6963  0.3025 -0.6832
  148MOL0     C19460   1.462   7.884  10.912 -0.6457  0.5381  0.0839
  148MOL0     C19461   1.491   8.014  10.959 -0.8953 -0.2662  0.0005
  148MOL0     O19462   1.620   8.059  10.967 -0.1776  0.2295  0.6224
  148MOL0     C19463   1.671   8.111  10.842  0.7809  0.0485 -0.3361
  148MOL0     C19464   1.810   8.044  10.812 -0.6243 -0.1551 -0.9170
  148MOL0     C19465   1.918   8.109  10.900  0.6614  0.4886 -0.1031
  148MOL0     C19466   2.049   8.039  10.915  0.4214 -0.3293 -0.0319
  148MOL0     C19467   2.136   8.125  10.992 -0.3305 -0.1963 -0.6581
  148MOL0     C19468   2.203   8.209  11.047  0.5499  0.1452  0.7103
  148MOL0     C19469   1.383   8.098  10.967  0.3354  0.6559  0.4224
  148MOL0     C19470   1.257   8.048  10.936  1.6081  0.3104  0.4791
  148MOL0     H19471   1.010   7.536  10.773  1.0058  1.7156  2.3398
  148MOL0     H19472   0.797   7.440  10.696  2.6279  0.6250 -0.1088
  148MOL0     H19473   0.414   7.661  10.700  1.1191 -0.9807 -1.2859
  148MOL0     H19474   0.426   7.617  10.872 -2.8320 -0.8394  1.1415
  148MOL0     H19475   0.337   7.395  10.836  3.0469 -0.1794  0.3055
  148MOL0     H19476   0.364   7.407  10.658  1.1953  0.4032 -0.0584
  148MOL0     H19477   0.186   7.574  10.635  3.5605 -0.0394 -0.6573
  148MOL0     H19478   0.175   7.584  10.815  0.5733 -2.2920  1.8986
  148MOL0     H19479   0.127   7.326  10.668  2.5716 -0.0472  0.6481
  148MOL0     H19480   0.078   7.362  10.820 -0.9553 -3.9260 -2.2854
  148MOL0     H19481  -0.039   7.462  10.556  0.1283 -1.5368 -0.2098
  148MOL0     H19482  -0.055   7.558  10.704  0.3381  0.0106 -1.1703
  148MOL0     H19483  -0.151   7.355  10.825 -0.8692 -3.0528  0.2658
  148MOL0     H19484  -0.126   7.258  10.692 -1.4244 -0.6129 -0.8372
  148MOL0     H19485  -0.293   7.506  10.659 -1.1744 -0.5872  2.9925
  148MOL0     H19486  -0.286   7.368  10.548 -4.7361  0.2639  0.8836
  148MOL0     H19487  -0.399   7.332  10.832  0.2852 -0.7736  0.0286
  148MOL0     H19488  -0.373   7.218  10.695  3.4720  0.6200  0.6275
  148MOL0     H19489  -0.613   7.497  10.825 -3.4106 -0.8649  0.1716
  148MOL0     H19490  -0.849   7.591  10.752 -0.1068 -0.8482  3.5196
  148MOL0     H19491  -0.903   7.436  10.802 -1.4159  2.0528  0.5499
  148MOL0     H19492  -1.009   7.375  10.599  1.0947 -0.1329 -0.4256
  148MOL0     H19493  -0.932   7.493  10.502 -1.7425 -3.4815 -1.8115
  148MOL0     H19494  -1.100   7.578  10.739  1.0508 -0.9618  0.4783
  148MOL0     H19495  -1.080   7.673  10.582  0.1070  0.0869 -0.1119
  148MOL0     H19496  -1.249   7.440  10.602  4.6048 -0.7464 -0.8100
  148MOL0     H19497  -1.208   7.518  10.444 -0.5853  0.6919 -0.9379
  148MOL0     H19498  -1.446   7.382  10.496  1.4551  2.3224  0.1403
  148MOL0     H19499  -1.682   7.312  10.546  1.0899  0.3243 -1.9919
  148MOL0     H19500  -2.080   7.340  10.756 -0.1260  0.7735  1.5239
  148MOL0     H19501  -2.297   7.314  10.825  0.7365 -2.1966 -2.8288
  148MOL0     H19502  -2.452   7.462  11.003 -2.9765 -0.1025  1.9385
  148MOL0     H19503  -2.505   7.327  10.907 -2.2768 -0.4242  1.0903
  148MOL0     H19504  -2.665   7.566  11.026 -1.3176 -0.3605  0.7362
  148MOL0     H19505  -2.656   7.402  11.085 -1.3196  0.4755  1.0601
  148MOL0     H19506  -2.762   7.342  10.848 -1.2223 -0.6235  1.9581
  148MOL0     H19507  -2.803   7.522  10.846 -0.6216  0.6309  1.6250
  148MOL0     H19508  -2.871   7.324  11.065 -0.8528  0.9148  0.1299
  148MOL0     H19509  -2.940   7.480  11.040 -2.4370 -1.1943 -0.5594
  148MOL0     H19510  -2.964   7.228  10.863  2.2635  0.8040 -0.8623
  148MOL0     H19511  -3.001   7.384  10.806 -0.3310  1.0037  1.3878
  148MOL0     H19512  -3.163   7.434  10.978  0.3218  0.6975 -0.9919
  148MOL0     H19513  -3.122   7.294  11.065 -1.3125 -0.4907  0.6180
  148MOL0     H19514  -3.183   7.213  10.788  0.5153 -2.5853  0.6450
  148MOL0     H19515  -3.231   7.148  10.944  3.7645  0.3670  0.7918
  148MOL0     H19516  -3.419   7.231  10.837  2.6000 -0.0868 -2.2169
  148MOL0     H19517  -3.370   7.396  10.825 -1.2018 -1.7058 -1.2235
  148MOL0     H19518  -2.390   7.719  10.679  0.8476 -0.4799  2.5847
  148MOL0     H19519  -2.164   7.741  10.628  0.8443 -0.4948 -1.2642
  148MOL0     H19520  -1.760   7.711  10.697 -0.4903 -2.0483  5.4786
  148MOL0     H19521  -1.517   7.763  10.681  2.3002 -2.5925  1.1450
  148MOL0     H19522   0.575   7.763  10.877 -0.9958 -3.0744  0.9513
  148MOL0     H19523   0.787   7.873  10.934  2.6123  0.8636  0.6494
  148MOL0     H19524   1.293   7.732  10.881  0.6100 -0.7380  1.5259
  148MOL0     H19525   1.543   7.817  10.883 -1.2862 -0.0843 -0.3251
  148MOL0     H19526   1.672   8.219  10.863 -1.5893 -0.0899  0.8232
  148MOL0     H19527   1.595   8.111  10.764 -0.5310  1.0156  0.8868
  148MOL0     H19528   1.804   7.937  10.834 -1.0555 -0.1887 -1.1788
  148MOL0     H19529   1.837   8.045  10.706 -0.0987 -1.0934 -0.7987
  148MOL0     H19530   1.888   8.125  11.004  0.2050  3.9817 -0.6333
  148MOL0     H19531   1.926   8.212  10.862 -1.2570  0.2766 -1.1853
  148MOL0     H19532   2.046   7.940  10.961  0.0473  1.0119  3.1124
  148MOL0     H19533   2.097   8.045  10.817  2.6701 -0.7551  0.9761
  148MOL0     H19534   2.245   8.292  11.100 -0.9862  0.4452  1.5043
  148MOL0     H19535   1.411   8.203  10.976  0.2489  0.6531  0.7265
  148MOL0     H19536   1.181   8.122  10.914 -0.1740 -1.3631  0.7666
  149MOL0     O19537   5.723   4.771   8.334  0.1619  0.4588  0.7206
  149MOL0     C19538   5.754   4.765   8.212  1.0667 -0.0288 -0.4191
  149MOL0     O19539   5.873   4.790   8.167  0.6954  0.4952 -0.5322
  149MOL0     C19540   5.976   4.761   8.247  0.1729  0.6463  0.6782
  149MOL0     C19541   6.087   4.846   8.248 -0.2365 -0.8745  0.1725
  149MOL0     C19542   6.189   4.812   8.330 -0.4292  0.2193 -0.5237
  149MOL0     C19543   6.186   4.705   8.422 -0.0165 -0.4260  0.7008
  149MOL0     O19544   6.283   4.676   8.514  0.4410 -0.9851  0.0678
  149MOL0     C19545   6.275   4.768   8.626 -0.8454  0.2782  0.5600
  149MOL0     C19546   6.272   4.687   8.755  1.4800  0.4017  0.3561
  149MOL0     C19547   6.150   4.587   8.785 -1.0173 -0.1839  1.0876
  149MOL0     C19548   6.134   4.525   8.932  1.1479 -0.6149 -0.4183
  149MOL0     C19549   6.058   4.385   8.927  0.6866 -0.3837  0.3041
  149MOL0     C19550   5.919   4.396   8.851  0.1181 -0.5755 -0.2043
  149MOL0     C19551   5.826   4.297   8.912 -0.2648  0.6490  0.4347
  149MOL0     C19552   5.687   4.340   8.959 -0.2245 -0.4825 -0.0066
  149MOL0     N19553   5.631   4.227   9.033 -0.3113 -0.7276  0.6382
  149MOL0     C19554   5.519   4.162   8.996  0.0784  0.6735  0.1325
  149MOL0     C19555   5.507   4.064   9.089 -0.7542 -0.2268 -0.0906
  149MOL0     C19556   5.396   3.955   9.095  0.1144  1.0770  0.0561
  149MOL0     C19557   5.245   3.998   9.100 -0.2322  0.3635  0.5176
  149MOL0     C19558   5.188   4.040   8.965  0.3912  0.5434 -0.1180
  149MOL0     C19559   5.038   4.044   8.981  0.4835  0.0358 -0.1741
  149MOL0     O19560   4.984   4.082   8.856 -0.7880 -0.0089  0.3519
  149MOL0     C19561   4.856   4.115   8.838  0.2241 -0.1720  0.4996
  149MOL0     C19562   4.753   4.122   8.935  0.1199  0.5703 -0.4575
  149MOL0     C19563   4.617   4.167   8.899  0.5042 -0.2027  0.1910
  149MOL0     C19564   4.582   4.178   8.766 -0.0916 -0.2584  0.2421
  149MOL0     C19565   4.444   4.209   8.733 -1.0170  0.1613  0.4311
  149MOL0     O19566   4.349   4.166   8.825  0.3129 -0.4455  0.2969
  149MOL0     C19567   4.219   4.170   8.782  0.3480  0.1435 -0.3713
  149MOL0     C19568   4.124   4.220   8.870 -0.2900 -0.5849 -1.1753
  149MOL0     C19569   3.983   4.219   8.843 -0.2408  0.2880 -0.7123
  149MOL0     C19570   3.948   4.177   8.719  0.0402  0.2563  0.6277
  149MOL0     O19571   3.819   4.194   8.672  0.3077  0.9032 -0.4667
  149MOL0     C19572   3.785   4.176   8.534 -0.2850  0.5721 -0.5968
  149MOL0     C19573   3.661   4.257   8.511  0.1481 -0.0922  0.3412
  149MOL0     C19574   3.608   4.243   8.361 -0.2107  0.1191 -0.4145
  149MOL0     C19575   3.695   4.304   8.253 -0.0050  0.6529 -0.2899
  149MOL0     C19576   3.754   4.445   8.292 -0.2873  0.0831 -0.2929
  149MOL0     C19577   3.639   4.551   8.314  0.6019  0.2520  0.2716
  149MOL0     C19578   3.678   4.687   8.371 -0.7728  0.3289 -0.8750
  149MOL0     C19579   3.804   4.741   8.293 -0.0035  0.3622  0.0929
  149MOL0    Cl19580   3.759   4.793   8.123  0.1360  0.1200  0.2044
  149MOL0     C19581   4.040   4.121   8.630 -0.2546  0.0736 -0.0508
  149MOL0     C19582   4.175   4.116   8.662  0.0289 -0.0741 -0.7452
  149MOL0     O19583   4.422   4.260   8.620 -0.2487  0.4233 -0.0441
  149MOL0     C19584   4.686   4.167   8.671  0.5552  0.5047  0.7958
  149MOL0     C19585   4.816   4.134   8.706  0.8741  0.1996 -0.6438
  149MOL0     N19586   5.602   4.083   9.181  0.0565 -0.1587  0.4287
  149MOL0     N19587   5.679   4.176   9.151  0.0446  0.4608  0.1184
  149MOL0     C19588   6.089   4.607   8.404  1.1356  0.3565 -0.5817
  149MOL0     C19589   5.981   4.630   8.315 -0.3892 -0.7906 -0.0548
  149MOL0     C19590   5.642   4.743   8.118 -0.0897 -0.6184  0.0603
  149MOL0     C19591   5.634   4.810   8.003 -0.3618 -0.3482 -0.0325
  149MOL0     C19592   5.523   4.805   7.917  0.1725 -0.1872 -0.4723
  149MOL0     C19593   5.415   4.729   7.949 -0.4950  0.1843  0.1122
  149MOL0     O19594   5.304   4.706   7.868  1.0100 -0.4204 -0.0721
  149MOL0     C19595   5.300   4.779   7.745 -0.9220 -0.9328 -0.0375
  149MOL0     C19596   5.172   4.735   7.685  0.4570 -0.2968  0.0925
  149MOL0     C19597   5.133   4.822   7.558 -0.3228  0.4945  0.2190
  149MOL0     C19598   4.997   4.780   7.505 -0.5983  0.0016  0.8908
  149MOL0     C19599   4.972   4.833   7.369  0.6872  0.1042 -1.1157
  149MOL0     C19600   4.952   4.869   7.263 -0.4056 -0.1121 -0.1812
  149MOL0     C19601   5.423   4.659   8.065 -0.1419 -0.4334 -0.8069
  149MOL0     C19602   5.533   4.663   8.149  0.6974 -0.2821 -0.6507
  149MOL0     H19603   6.077   4.945   8.206 -1.1257 -0.5890  1.0133
  149MOL0     H19604   6.273   4.875   8.357  1.0689 -1.6294 -0.6921
  149MOL0     H19605   6.194   4.841   8.629 -1.4468 -0.4043  2.6315
  149MOL0     H19606   6.366   4.827   8.613 -1.2572  0.5976 -1.0507
  149MOL0     H19607   6.283   4.750   8.843 -2.0425  0.7207  0.6949
  149MOL0     H19608   6.367   4.633   8.744  2.7628  2.8274 -1.5089
  149MOL0     H19609   6.159   4.499   8.721 -2.8972  1.3692 -1.5034
  149MOL0     H19610   6.053   4.632   8.761 -0.8297 -0.1926  0.3002
  149MOL0     H19611   6.229   4.500   8.980  0.9068 -3.5413 -1.2078
  149MOL0     H19612   6.079   4.600   8.988 -1.5970 -2.1737 -0.8656
  149MOL0     H19613   6.044   4.369   9.034  0.4285 -0.9821  0.1830
  149MOL0     H19614   6.113   4.299   8.888  0.1133 -1.0705  0.9850
  149MOL0     H19615   5.929   4.393   8.742 -0.8297  1.6239 -0.3930
  149MOL0     H19616   5.876   4.494   8.872 -0.1545 -0.7293 -0.0402
  149MOL0     H19617   5.802   4.229   8.829  0.8430 -0.0243  0.6509
  149MOL0     H19618   5.874   4.243   8.994 -0.2942  2.0834  1.4317
  149MOL0     H19619   5.637   4.381   8.871  3.6518  1.3183 -1.6300
  149MOL0     H19620   5.693   4.417   9.037 -0.8754 -0.4725  0.0370
  149MOL0     H19621   5.445   4.178   8.918 -1.0477 -0.5432  0.9032
  149MOL0     H19622   5.415   3.896   9.185 -0.1601  1.6837  0.5201
  149MOL0     H19623   5.418   3.884   9.014  1.9721  0.1068  1.3509
  149MOL0     H19624   5.227   4.080   9.171  1.8854  0.4019  1.0618
  149MOL0     H19625   5.193   3.905   9.124  0.6833  0.3058  2.4891
  149MOL0     H19626   5.221   4.141   8.939  0.4270  0.3658 -0.7651
  149MOL0     H19627   5.208   3.964   8.889 -4.1286 -0.5060 -0.4970
  149MOL0     H19628   5.026   4.110   9.066 -0.1215 -0.1436 -0.1152
  149MOL0     H19629   4.983   3.955   9.013 -0.1933 -0.3144 -2.1171
  149MOL0     H19630   4.766   4.077   9.033  5.0685 -0.6075 -1.3983
  149MOL0     H19631   4.546   4.174   8.981  0.0705 -0.5005 -0.1563
  149MOL0     H19632   4.159   4.239   8.971  0.9233  2.0016 -1.9999
  149MOL0     H19633   3.895   4.244   8.900 -0.9243 -0.6696 -1.3084
  149MOL0     H19634   3.768   4.071   8.507 -2.7052  0.4730  1.0368
  149MOL0     H19635   3.859   4.228   8.472 -1.3890  1.2913 -1.3271
  149MOL0     H19636   3.678   4.362   8.535 -0.5858  0.4746 -1.4195
  149MOL0     H19637   3.577   4.226   8.574 -1.1684 -1.2545 -1.8302
  149MOL0     H19638   3.507   4.282   8.353 -0.2680 -0.4513 -3.2252
  149MOL0     H19639   3.608   4.136   8.341  1.5056 -0.4362  1.9349
  149MOL0     H19640   3.768   4.235   8.211 -0.4435  0.1168 -0.1831
  149MOL0     H19641   3.637   4.344   8.169  0.3571  0.6572 -0.5384
  149MOL0     H19642   3.803   4.490   8.205  0.1237 -0.6028 -0.4190
  149MOL0     H19643   3.827   4.426   8.371  0.4651 -1.5804 -1.3349
  149MOL0     H19644   3.563   4.509   8.380  0.7429  1.4574  1.2285
  149MOL0     H19645   3.601   4.569   8.213  2.0063  1.6920 -0.0352
  149MOL0     H19646   3.592   4.754   8.360 -1.4714 -0.9300 -4.5045
  149MOL0     H19647   3.702   4.670   8.476 -1.4009  1.0916 -0.6039
  149MOL0     H19648   3.894   4.677   8.292  2.0795  3.1251 -0.7456
  149MOL0     H19649   3.834   4.832   8.345  0.3816  0.0417  0.4472
  149MOL0     H19650   4.021   4.106   8.524 -1.0928  2.1693 -0.2309
  149MOL0     H19651   4.246   4.079   8.589  0.5312  2.0359 -1.3720
  149MOL0     H19652   4.658   4.191   8.569  2.4078  2.3592  0.6672
  149MOL0     H19653   4.883   4.111   8.624 -0.0650 -0.3638 -1.2725
  149MOL0     H19654   6.096   4.524   8.473  1.1288  1.3275  0.6047
  149MOL0     H19655   5.901   4.558   8.306 -1.0345 -0.1828  0.6595
  149MOL0     H19656   5.720   4.875   7.988 -1.0987  1.1693  1.7419
  149MOL0     H19657   5.521   4.862   7.825  1.3875 -0.2203 -0.5358
  149MOL0     H19658   5.383   4.759   7.677  1.0391 -2.4541  2.6239
  149MOL0     H19659   5.302   4.888   7.754 -0.4487 -1.0068  0.9040
  149MOL0     H19660   5.177   4.632   7.647 -1.8845 -0.6229  0.5237
  149MOL0     H19661   5.092   4.739   7.759  1.0026 -0.8471  0.7290
  149MOL0     H19662   5.219   4.807   7.492 -0.4793  0.6475 -0.0185
  149MOL0     H19663   5.127   4.926   7.591  2.6687  1.5310 -2.0708
  149MOL0     H19664   4.991   4.671   7.497  1.3656 -0.1654  1.2300
  149MOL0     H19665   4.909   4.809   7.564 -1.6182  1.0485 -1.0411
  149MOL0     H19666   4.931   4.894   7.160 -2.9123 -0.7478  0.1148
  149MOL0     H19667   5.339   4.592   8.078 -1.2551  0.6658 -2.1182
  149MOL0     H19668   5.526   4.599   8.236 -0.2079  0.2253 -0.3437
  150MOL0     O19669   1.175  10.252   9.606 -0.2957 -0.1370 -0.1185
  150MOL0     C19670   1.132  10.360   9.562 -0.6007  0.6332 -1.0386
  150MOL0     O19671   1.022  10.419   9.606 -0.1297  0.2651  0.1587
  150MOL0     C19672   0.937  10.329   9.673  0.2127  0.5181  0.8608
  150MOL0     C19673   0.838  10.263   9.596  0.1888  0.2604  0.1572
  150MOL0     C19674   0.764  10.162   9.670  0.2691 -1.2604 -0.2899
  150MOL0     C19675   0.770  10.153   9.809  0.4143  0.5207 -0.4784
  150MOL0     O19676   0.673  10.070   9.864 -0.3462 -0.1026  0.1864
  150MOL0     C19677   0.708  10.003   9.987  0.5175  1.1662  0.8651
  150MOL0     C19678   0.652  10.079  10.120  0.4160 -0.7399  0.4229
  150MOL0     C19679   0.501  10.051  10.135  0.1283 -0.4268 -0.4489
  150MOL0     C19680   0.408  10.156  10.060 -0.7018 -0.2643 -0.6214
  150MOL0     C19681   0.257  10.118  10.070 -0.4512 -0.5803  0.0118
  150MOL0     C19682   0.218   9.972  10.039 -0.1052 -0.1057 -0.9595
  150MOL0     C19683   0.068   9.957  10.067 -0.3580  0.4528 -0.2691
  150MOL0     C19684   0.019   9.818  10.054 -0.4104 -0.3297 -0.0946
  150MOL0     N19685  -0.128   9.806  10.071  0.2465  1.0357  0.7493
  150MOL0     C19686  -0.215   9.888  10.130  0.2903  1.0981  0.0687
  150MOL0     C19687  -0.343   9.832  10.097 -0.6977  0.5591  0.1139
  150MOL0     C19688  -0.470   9.881  10.160 -0.3023 -1.0135 -0.2569
  150MOL0     C19689  -0.593   9.835  10.079  0.1045 -0.4501 -0.0758
  150MOL0     C19690  -0.727   9.891  10.132  0.7177  0.1452 -0.4334
  150MOL0     C19691  -0.777  10.020  10.059 -0.4567 -0.4243 -0.5934
  150MOL0     O19692  -0.915  10.044  10.103 -0.3851 -0.0661 -0.4931
  150MOL0     C19693  -1.010  10.023  10.014  0.1084 -0.3342  0.6628
  150MOL0     C19694  -1.078   9.899  10.008  0.7126 -1.6666 -0.5052
  150MOL0     C19695  -1.198   9.880   9.939 -0.5970  0.2106  1.0161
  150MOL0     C19696  -1.231   9.966   9.836 -0.2572  0.8505 -0.1628
  150MOL0     C19697  -1.343   9.940   9.742 -0.0093 -0.3227 -0.8000
  150MOL0     O19698  -1.399   9.817   9.754  0.0995 -0.6944 -0.0198
  150MOL0     C19699  -1.503   9.764   9.678  0.2389 -0.0703 -0.8112
  150MOL0     C19700  -1.535   9.633   9.697  0.2331  0.6436  0.3477
  150MOL0     C19701  -1.661   9.579   9.648 -0.5363 -0.2364 -0.3416
  150MOL0     C19702  -1.756   9.659   9.582  1.1171  0.3935 -0.1998
  150MOL0     O19703  -1.883   9.618   9.533 -0.3662 -0.5911 -0.2110
  150MOL0     C19704  -1.971   9.559   9.626  0.8520 -0.7416 -0.2814
  150MOL0     C19705  -2.110   9.562   9.582 -0.6258 -0.3175  0.0872
  150MOL0     C19706  -2.211   9.537   9.695  0.7614 -0.3713 -0.2007
  150MOL0     C19707  -2.358   9.543   9.644  0.4187  0.7122  0.4331
  150MOL0     C19708  -2.462   9.505   9.747  0.0696  0.5717 -0.2380
  150MOL0     C19709  -2.602   9.493   9.686  0.1440 -0.1138  0.9043
  150MOL0     C19710  -2.717   9.454   9.783 -1.5555 -0.6014  0.1026
  150MOL0     C19711  -2.863   9.466   9.736  0.1005  0.0152 -0.4913
  150MOL0    Cl19712  -2.889   9.623   9.666 -0.0925  0.0326  0.3296
  150MOL0     C19713  -1.704   9.781   9.538 -1.0236  0.7409  1.0671
  150MOL0     C19714  -1.570   9.828   9.573  0.8276  0.0543  0.0291
  150MOL0     O19715  -1.376  10.035   9.668 -0.1652 -0.0215  0.3669
  150MOL0     C19716  -1.153  10.082   9.825  1.3823  0.3195  0.1272
  150MOL0     C19717  -1.045  10.112   9.918  0.5693  0.1424  0.0625
  150MOL0     N19718  -0.318   9.722  10.010  0.2665 -0.9679  0.6710
  150MOL0     N19719  -0.195   9.712  10.001 -0.0766 -0.0658 -0.6417
  150MOL0     C19720   0.857  10.229   9.878  0.0650 -0.2941 -0.0080
  150MOL0     C19721   0.950  10.310   9.812  0.1351  0.5438  0.4242
  150MOL0     C19722   1.200  10.415   9.446  0.3456 -0.6946 -0.0552
  150MOL0     C19723   1.136  10.517   9.375  0.0673  0.4780  0.2368
  150MOL0     C19724   1.189  10.568   9.253 -0.6063 -0.4835  0.9743
  150MOL0     C19725   1.319  10.522   9.212  0.4454 -0.9964 -0.1968
  150MOL0     O19726   1.377  10.585   9.109  0.4446 -0.4163  0.6392
  150MOL0     C19727   1.502  10.656   9.120 -0.1027 -1.5469 -0.4844
  150MOL0     C19728   1.597  10.623   9.002 -0.0363  0.3375 -0.0573
  150MOL0     C19729   1.720  10.707   9.018  0.1783  0.2819 -0.0260
  150MOL0     C19730   1.818  10.674   8.911 -0.7009  0.2786 -0.2533
  150MOL0     C19731   1.928  10.771   8.928  0.0929  0.6028 -0.2323
  150MOL0     C19732   2.020  10.848   8.960 -0.1665 -0.2787  0.4615
  150MOL0     C19733   1.389  10.427   9.286 -0.6550 -0.3181 -0.9467
  150MOL0     C19734   1.327  10.371   9.402  0.7433  0.0122  1.3482
  150MOL0     H19735   0.825  10.270   9.488  6.2447  3.9802 -0.8059
  150MOL0     H19736   0.679  10.104   9.637 -2.3881  1.6765  0.9045
  150MOL0     H19737   0.813   9.974   9.995 -0.1232 -1.9435 -0.7310
  150MOL0     H19738   0.661   9.905   9.991  2.0024  0.4767  2.2171
  150MOL0     H19739   0.674  10.186  10.109  0.8000 -1.1091 -4.5206
  150MOL0     H19740   0.707  10.040  10.206 -0.6944 -0.9361  1.0689
  150MOL0     H19741   0.482  10.053  10.243  0.8938  0.6020 -0.3164
  150MOL0     H19742   0.473   9.955  10.091 -1.7717  1.0694 -2.7559
  150MOL0     H19743   0.434  10.258  10.090 -0.6928 -0.4882  0.1579
  150MOL0     H19744   0.437  10.151   9.954 -0.8265 -0.6303 -0.6401
  150MOL0     H19745   0.214  10.191  10.001 -1.5721 -0.9053  0.3453
  150MOL0     H19746   0.226  10.130  10.174  2.3689 -1.2094  1.0023
  150MOL0     H19747   0.268   9.893  10.096 -0.9045 -0.2287 -0.4081
  150MOL0     H19748   0.240   9.945   9.935  1.6520 -1.2575 -0.3367
  150MOL0     H19749   0.052   9.995  10.168  0.8105  1.2814 -0.3739
  150MOL0     H19750   0.013  10.024   9.999 -2.2499 -1.2533 -0.5120
  150MOL0     H19751   0.056   9.759  10.138 -0.8107  1.5333  1.4903
  150MOL0     H19752   0.059   9.777   9.961  2.3487 -1.5135  1.4884
  150MOL0     H19753  -0.218   9.962  10.209  3.1533  0.4607  0.8950
  150MOL0     H19754  -0.456   9.990  10.164 -1.1329 -0.9397  1.1836
  150MOL0     H19755  -0.479   9.826  10.254 -2.6693  2.3090  1.6651
  150MOL0     H19756  -0.600   9.726  10.068 -2.2758 -0.1339 -3.4546
  150MOL0     H19757  -0.588   9.880   9.979 -1.2412  0.6465  0.3158
  150MOL0     H19758  -0.807   9.816  10.126  1.5848 -0.7140 -1.6761
  150MOL0     H19759  -0.709   9.914  10.238  2.7566  0.8388 -0.8996
  150MOL0     H19760  -0.784  10.021   9.950 -1.4608  1.3511 -0.5482
  150MOL0     H19761  -0.726  10.111  10.090 -1.0328 -0.4072  0.3345
  150MOL0     H19762  -1.053   9.822  10.080  2.0449  0.4129  1.3846
  150MOL0     H19763  -1.250   9.786   9.960 -0.0151  0.0396  1.7422
  150MOL0     H19764  -1.476   9.575   9.768 -1.2409  1.2743  2.1827
  150MOL0     H19765  -1.695   9.478   9.670 -1.3364 -0.2331 -1.4610
  150MOL0     H19766  -1.961   9.614   9.720 -2.8313 -1.0308  0.4266
  150MOL0     H19767  -1.947   9.456   9.652  1.6057 -0.5923 -0.3619
  150MOL0     H19768  -2.134   9.492   9.501 -1.3044  1.0055 -0.8907
  150MOL0     H19769  -2.131   9.656   9.531  1.1286  0.3668  0.5656
  150MOL0     H19770  -2.198   9.613   9.773  2.4802  1.4802 -2.1835
  150MOL0     H19771  -2.196   9.447   9.755  1.8268  1.9162  3.3128
  150MOL0     H19772  -2.388   9.642   9.609 -1.4622  0.3961  1.0608
  150MOL0     H19773  -2.363   9.473   9.561 -0.9592  1.3378 -0.0532
  150MOL0     H19774  -2.456   9.582   9.824  0.9493 -0.3892  0.6951
  150MOL0     H19775  -2.431   9.416   9.804 -0.5408 -0.4477 -1.4570
  150MOL0     H19776  -2.599   9.421   9.604  1.0106  1.3451 -0.4108
  150MOL0     H19777  -2.624   9.591   9.643  3.0162  1.6474  3.0550
  150MOL0     H19778  -2.712   9.348   9.810 -2.8880 -1.0467 -1.2823
  150MOL0     H19779  -2.695   9.513   9.872 -0.2617  0.2605 -0.7488
  150MOL0     H19780  -2.926   9.452   9.825  0.3451  1.4883 -0.0540
  150MOL0     H19781  -2.879   9.392   9.658  0.2325 -0.2371 -0.2826
  150MOL0     H19782  -1.767   9.837   9.470 -0.4794 -0.8267 -0.8181
  150MOL0     H19783  -1.548   9.926   9.532  2.0624 -0.7490 -1.3032
  150MOL0     H19784  -1.176  10.156   9.749  0.6965  0.0706  0.0899
  150MOL0     H19785  -1.006  10.213   9.905 -2.2425  1.1635 -1.2666
  150MOL0     H19786   0.847  10.242   9.985 -2.0580  0.5042 -0.2556
  150MOL0     H19787   1.009  10.370   9.880 -0.3368 -0.0354  1.3701
  150MOL0     H19788   1.036  10.544   9.408 -1.0019 -2.1465 -0.6038
  150MOL0     H19789   1.135  10.645   9.199 -0.6952 -1.3737 -0.2532
  150MOL0     H19790   1.557  10.639   9.213  2.1641  0.0279 -1.4340
  150MOL0     H19791   1.476  10.761   9.130  0.6359 -1.2803 -1.2295
  150MOL0     H19792   1.624  10.517   9.000 -0.0064  0.3243 -3.0449
  150MOL0     H19793   1.558  10.644   8.902  0.2572  0.6638 -0.1059
  150MOL0     H19794   1.763  10.686   9.116 -0.9735 -0.2906  0.3797
  150MOL0     H19795   1.683  10.810   9.021 -3.4743 -0.9103  1.7342
  150MOL0     H19796   1.854  10.570   8.907 -2.9702 -0.5646 -0.1863
  150MOL0     H19797   1.771  10.694   8.814  0.7337  3.5756 -0.4149
  150MOL0     H19798   2.096  10.919   8.985 -0.1071  0.1048 -0.7470
  150MOL0     H19799   1.490  10.397   9.261 -0.5659 -0.1255 -0.8188
  150MOL0     H19800   1.371  10.292   9.463 -0.0499 -0.4018  1.3887
  151MOL0     O19801  10.624   7.103   9.622 -0.1746 -0.2749  0.9768
  151MOL0     C19802  10.691   7.155   9.539  0.1937  0.7683 -0.3931
  151MOL0     O19803  10.673   7.274   9.495  0.0777  0.6662  1.6203
  151MOL0     C19804  10.605   7.357   9.568 -0.4307  0.6504  0.3911
  151MOL0     C19805  10.514   7.431   9.499  0.9442 -0.9221 -0.0894
  151MOL0     C19806  10.441   7.536   9.564 -0.3283  0.0137  0.2560
  151MOL0     C19807  10.456   7.565   9.705 -0.1257 -0.3333  0.4405
  151MOL0     O19808  10.390   7.661   9.765  0.9394 -0.2954 -0.0249
  151MOL0     C19809  10.339   7.621   9.892  0.4491 -0.3942  0.0674
  151MOL0     C19810  10.208   7.687   9.917 -0.6621 -0.8321  0.3579
  151MOL0     C19811  10.135   7.631  10.041  0.0236 -0.2962 -0.4271
  151MOL0     C19812  10.091   7.481  10.026 -0.7085  0.0176  0.8106
  151MOL0     C19813   9.939   7.442  10.055 -0.4752  0.4237 -0.3686
  151MOL0     C19814   9.886   7.517  10.185  1.1149 -0.5201 -0.2519
  151MOL0     C19815   9.744   7.571  10.176 -0.0173  0.6584 -0.7071
  151MOL0     C19816   9.633   7.463  10.153 -0.0265  0.1942  0.2361
  151MOL0     N19817   9.503   7.528  10.136 -0.1987 -0.9019  0.4250
  151MOL0     C19818   9.429   7.592  10.231 -0.1293 -0.2096 -0.4909
  151MOL0     C19819   9.313   7.628  10.173  0.2200 -0.8832  0.5535
  151MOL0     C19820   9.207   7.721  10.234 -0.0772 -0.0006 -0.3895
  151MOL0     C19821   9.091   7.656  10.306  0.6106 -0.6872 -0.2052
  151MOL0     C19822   9.033   7.531  10.235  0.1661  0.2415 -0.1114
  151MOL0     C19823   8.994   7.438  10.349 -0.0142  0.8199  0.1749
  151MOL0     O19824   8.916   7.319  10.298 -0.1422 -0.2101  0.3893
  151MOL0     C19825   8.789   7.297  10.347  0.5934  0.0673  0.0988
  151MOL0     C19826   8.730   7.357  10.457  0.2128  0.0900  0.2389
  151MOL0     C19827   8.594   7.326  10.494  1.0982  0.9426  1.2627
  151MOL0     C19828   8.526   7.224  10.429 -0.1584  0.2696  0.5039
  151MOL0     C19829   8.387   7.184  10.463 -0.1667  0.3977  0.1980
  151MOL0     O19830   8.306   7.112  10.375 -0.1485  0.3784 -0.7677
  151MOL0     C19831   8.188   7.067  10.423  0.0928 -0.1722 -0.2783
  151MOL0     C19832   8.173   6.996  10.544  0.7390  0.1578  0.9004
  151MOL0     C19833   8.052   6.940  10.585  0.7679 -0.1832 -0.4855
  151MOL0     C19834   7.937   6.961  10.509 -0.2818  0.3178  0.1919
  151MOL0     O19835   7.816   6.899  10.534  0.3258  0.0769 -0.2147
  151MOL0     C19836   7.826   6.758  10.554 -0.1217  0.0105 -0.3029
  151MOL0     C19837   7.698   6.677  10.507 -1.0174 -0.4084 -0.4920
  151MOL0     C19838   7.688   6.679  10.355 -0.0201  0.4408  0.4938
  151MOL0     C19839   7.582   6.585  10.299  0.7847 -0.5525  0.2524
  151MOL0     C19840   7.631   6.482  10.202 -0.0702  0.0956  0.1898
  151MOL0     C19841   7.534   6.378  10.157  0.2419  0.3137 -0.6617
  151MOL0     C19842   7.421   6.448  10.070 -0.5028  0.5921  0.3507
  151MOL0     C19843   7.323   6.359  10.012 -0.6018 -0.2198  0.2305
  151MOL0    Cl19844   7.210   6.304  10.135  0.3056 -0.2926  0.0657
  151MOL0     C19845   7.952   7.025  10.392  0.3411 -0.7334  1.0380
  151MOL0     C19846   8.072   7.077  10.347  0.4889 -0.4013 -0.8666
  151MOL0     O19847   8.359   7.228  10.577  0.0288  1.1197 -1.1290
  151MOL0     C19848   8.591   7.155  10.328  0.7238  0.2443  0.1322
  151MOL0     C19849   8.716   7.193  10.284 -0.9434  0.0220  0.6132
  151MOL0     N19850   9.319   7.598  10.036 -0.0758 -0.0072  0.3320
  151MOL0     N19851   9.430   7.537  10.023  0.1601 -0.3312 -0.6135
  151MOL0     C19852  10.543   7.479   9.773  0.3257  0.8151 -0.2659
  151MOL0     C19853  10.618   7.383   9.700 -0.3880  0.3769 -0.8874
  151MOL0     C19854  10.812   7.093   9.493 -0.2736  0.6851  0.2362
  151MOL0     C19855  10.900   7.155   9.401 -0.4651 -0.4414 -0.5298
  151MOL0     C19856  11.020   7.093   9.358  0.0221 -0.5644 -0.9291
  151MOL0     C19857  11.048   6.964   9.394  0.4738  0.1295  0.1448
  151MOL0     O19858  11.164   6.895   9.342 -0.0673  0.1900  0.0993
  151MOL0     C19859  11.273   6.964   9.282  0.1859 -0.0680 -0.1756
  151MOL0     C19860  11.267   6.939   9.130 -0.8944  0.4433 -0.0616
  151MOL0     C19861  11.162   7.019   9.053  0.1963  0.1339  0.0207
  151MOL0     C19862  11.175   6.999   8.900 -0.2173  0.6144  0.0048
  151MOL0     C19863  11.167   6.857   8.863 -0.0470 -0.6995 -0.3868
  151MOL0     C19864  11.162   6.741   8.827  0.5114  0.1095  0.1650
  151MOL0     C19865  10.958   6.896   9.479  0.0420  0.0405  0.2163
  151MOL0     C19866  10.840   6.961   9.521  0.0929 -0.6866 -0.5678
  151MOL0     H19867  10.490   7.429   9.393  1.7366 -1.5833 -0.2641
  151MOL0     H19868  10.383   7.611   9.511  0.9214  1.4551  0.8432
  151MOL0     H19869  10.417   7.640   9.966  1.2855 -3.0891 -0.0294
  151MOL0     H19870  10.318   7.514   9.901  2.0763 -0.6714  0.9207
  151MOL0     H19871  10.144   7.692   9.828 -0.4809  1.9263  0.2934
  151MOL0     H19872  10.245   7.788   9.939 -0.8142 -0.9243  1.0533
  151MOL0     H19873  10.044   7.690  10.051 -0.8561 -1.5949 -0.5292
  151MOL0     H19874  10.193   7.652  10.131 -3.1674  0.0249  1.7004
  151MOL0     H19875  10.106   7.457   9.920 -1.4072 -2.7422  1.2631
  151MOL0     H19876  10.159   7.416  10.081 -2.5219  0.2730  3.5524
  151MOL0     H19877   9.927   7.334  10.049  1.6613  0.0294  1.1643
  151MOL0     H19878   9.884   7.475   9.967  1.3951 -0.1537 -1.8058
  151MOL0     H19879   9.954   7.600  10.205 -2.1037  2.0175  0.9776
  151MOL0     H19880   9.902   7.449  10.269 -0.0635  0.2505  0.6134
  151MOL0     H19881   9.712   7.630  10.263 -0.6119 -1.6645  0.7575
  151MOL0     H19882   9.741   7.628  10.083 -0.6461 -0.4627 -1.3901
  151MOL0     H19883   9.634   7.400  10.243 -0.1004 -2.2009 -1.3692
  151MOL0     H19884   9.663   7.396  10.073  1.4474  1.9816 -0.7723
  151MOL0     H19885   9.455   7.606  10.335  0.1443  0.7843 -0.6751
  151MOL0     H19886   9.165   7.784  10.155 -1.1738 -0.4290 -0.1610
  151MOL0     H19887   9.262   7.786  10.304  2.4494  0.4177 -2.5892
  151MOL0     H19888   9.008   7.728  10.310  0.6834 -0.5229 -1.3874
  151MOL0     H19889   9.133   7.645  10.406  0.1060  2.0614  0.3810
  151MOL0     H19890   8.944   7.563  10.181  1.8830  2.1936 -1.9970
  151MOL0     H19891   9.100   7.488  10.160  1.3877 -2.2360  2.2120
  151MOL0     H19892   8.952   7.491  10.435  3.1667  2.5759  0.8066
  151MOL0     H19893   9.087   7.393  10.385  0.1830  1.3116  0.2854
  151MOL0     H19894   8.768   7.435  10.523 -0.0859  2.4746 -2.2132
  151MOL0     H19895   8.556   7.383  10.578 -1.5443  3.2944 -1.3122
  151MOL0     H19896   8.261   6.975  10.603 -0.9367 -1.5578  2.9374
  151MOL0     H19897   8.047   6.885  10.678  2.2019  1.5222  0.6494
  151MOL0     H19898   7.846   6.751  10.661 -0.1437  0.1730 -0.2885
  151MOL0     H19899   7.907   6.710  10.498 -0.5193 -3.1334  1.5559
  151MOL0     H19900   7.610   6.709  10.565 -1.1663 -1.5574 -0.0534
  151MOL0     H19901   7.715   6.575  10.543  0.4639  0.5687  1.7425
  151MOL0     H19902   7.788   6.655  10.318  0.0095  1.5407 -0.2000
  151MOL0     H19903   7.654   6.779  10.326 -0.7199 -0.2598 -1.3078
  151MOL0     H19904   7.529   6.541  10.384 -0.5945 -0.7279 -0.6670
  151MOL0     H19905   7.507   6.642  10.244 -0.1149 -3.1204 -1.3491
  151MOL0     H19906   7.718   6.435  10.248  2.8736  1.3457 -3.5909
  151MOL0     H19907   7.658   6.539  10.112  0.5845 -1.3229 -0.5442
  151MOL0     H19908   7.475   6.327  10.234  2.4769 -0.5263  0.5781
  151MOL0     H19909   7.589   6.305  10.095 -1.3175 -1.0218 -0.5445
  151MOL0     H19910   7.368   6.516  10.138 -0.7606 -2.8718  3.9222
  151MOL0     H19911   7.463   6.509   9.989 -3.4564  0.5111 -1.3764
  151MOL0     H19912   7.372   6.264   9.985  0.4043  0.3022  0.1734
  151MOL0     H19913   7.277   6.413   9.929  1.3863  1.9247  0.4004
  151MOL0     H19914   7.869   7.025  10.321  0.7091 -3.2105  0.5228
  151MOL0     H19915   8.080   7.107  10.243 -0.3268  0.5139 -0.6851
  151MOL0     H19916   8.547   7.070  10.278  2.1629 -0.6323  0.2793
  151MOL0     H19917   8.755   7.136  10.201  1.8234  2.6398 -0.0641
  151MOL0     H19918  10.549   7.478   9.881 -0.9239 -0.8936 -0.1601
  151MOL0     H19919  10.696   7.336   9.759  1.4192  2.2539 -1.6448
  151MOL0     H19920  10.883   7.259   9.374  3.0316  0.6611  0.8657
  151MOL0     H19921  11.088   7.160   9.307 -0.1609  1.7830  1.6468
  151MOL0     H19922  11.368   6.919   9.311 -0.3691 -0.5211  1.0136
  151MOL0     H19923  11.273   7.069   9.313  2.4108 -0.0040 -0.2322
  151MOL0     H19924  11.366   6.959   9.090 -0.1201 -2.6540  0.0977
  151MOL0     H19925  11.255   6.831   9.116  0.7358  0.2009  0.1857
  151MOL0     H19926  11.182   7.121   9.089  0.1585  0.4227 -0.7658
  151MOL0     H19927  11.058   6.994   9.077  0.1938  0.2674  0.1538
  151MOL0     H19928  11.095   7.055   8.851  0.7174 -0.3360 -2.8661
  151MOL0     H19929  11.270   7.051   8.880 -1.3457  2.2663 -1.3179
  151MOL0     H19930  11.175   6.639   8.799 -0.5019  0.1222 -0.4077
  151MOL0     H19931  10.971   6.795   9.515  3.8642  0.2579 -0.1600
  151MOL0     H19932  10.775   6.903   9.586 -0.6489 -0.4938 -1.1290
  152MOL0     O19933   2.120   0.404   3.484  0.1711 -0.1467 -0.1205
  152MOL0     C19934   2.092   0.482   3.572  0.2078  0.0793 -0.6120
  152MOL0     O19935   2.175   0.584   3.613 -0.5528 -0.5866 -0.3771
  152MOL0     C19936   2.297   0.621   3.561  0.3386 -0.1149 -1.1781
  152MOL0     C19937   2.371   0.717   3.624 -0.0714  0.5153 -0.1080
  152MOL0     C19938   2.506   0.748   3.596  0.3576  0.1791 -0.2595
  152MOL0     C19939   2.569   0.682   3.487 -0.3090  0.0599 -1.0254
  152MOL0     O19940   2.695   0.731   3.446 -0.2914 -0.5355  0.0774
  152MOL0     C19941   2.738   0.724   3.307 -0.5708 -0.7827 -0.1096
  152MOL0     C19942   2.881   0.781   3.304 -0.0992  0.0515 -0.2986
  152MOL0     C19943   2.887   0.936   3.283 -0.0551  0.0639  0.1630
  152MOL0     C19944   3.025   0.978   3.331  0.7094 -1.1739  0.3546
  152MOL0     C19945   3.061   1.125   3.309 -0.1932 -0.2602  0.1083
  152MOL0     C19946   2.991   1.231   3.395  0.3071  0.1934  0.1855
  152MOL0     C19947   3.046   1.370   3.369 -0.0090  0.9520  0.0419
  152MOL0     C19948   2.988   1.472   3.470  1.4363 -0.3224 -0.1526
  152MOL0     N19949   3.036   1.454   3.607 -0.0388 -0.0650  0.2095
  152MOL0     C19950   3.128   1.544   3.657 -0.2473  0.5653 -0.2083
  152MOL0     C19951   3.144   1.497   3.781 -0.2285  0.0739  0.5476
  152MOL0     C19952   3.263   1.531   3.863  0.3473 -0.0012  0.0047
  152MOL0     C19953   3.221   1.615   3.988 -0.1734 -0.3560  0.4557
  152MOL0     C19954   3.343   1.688   4.059  0.1602 -1.0094  0.3210
  152MOL0     C19955   3.455   1.594   4.099 -1.0198  0.4590 -0.6846
  152MOL0     O19956   3.537   1.596   3.976  0.6619 -0.7341 -0.3376
  152MOL0     C19957   3.674   1.602   3.990  0.0752  1.5510 -0.5734
  152MOL0     C19958   3.735   1.693   3.924 -0.7595 -1.3377 -0.3855
  152MOL0     C19959   3.872   1.714   3.934  0.3855  0.8018 -0.7856
  152MOL0     C19960   3.945   1.634   4.028 -0.8547 -0.6138 -0.6940
  152MOL0     C19961   4.089   1.652   4.048  0.0616  0.2741 -0.7155
  152MOL0     O19962   4.145   1.747   3.968  0.4989  0.3809  0.1306
  152MOL0     C19963   4.277   1.789   3.983  0.3361  0.3040  0.2444
  152MOL0     C19964   4.390   1.709   3.980  0.0974  0.1574  0.0434
  152MOL0     C19965   4.514   1.765   3.960 -0.6793 -0.1886  0.6210
  152MOL0     C19966   4.529   1.907   3.954 -0.2722 -0.2410 -0.8859
  152MOL0     O19967   4.649   1.965   3.929  0.2997  0.1635 -0.5482
  152MOL0     C19968   4.756   1.909   4.003 -0.2125  0.5947  0.0076
  152MOL0     C19969   4.860   2.014   3.979 -0.5922  0.1422  0.2712
  152MOL0     C19970   4.870   2.080   3.832  0.2123 -0.4210 -0.5985
  152MOL0     C19971   4.994   2.168   3.824 -0.4247 -0.3579  0.0354
  152MOL0     C19972   5.004   2.219   3.683  0.2942 -0.8752  0.1709
  152MOL0     C19973   5.124   2.296   3.646  0.4752  0.5275  0.3551
  152MOL0     C19974   5.139   2.440   3.696  0.0763  0.2234  0.6862
  152MOL0     C19975   5.264   2.507   3.632 -0.5648  0.7762  0.1223
  152MOL0    Cl19976   5.420   2.442   3.683  0.3562  0.0984 -0.3419
  152MOL0     C19977   4.418   1.988   3.969 -0.2034  0.1656  0.0949
  152MOL0     C19978   4.293   1.927   3.980 -0.2303 -0.6049  0.4887
  152MOL0     O19979   4.149   1.589   4.137 -0.1341  0.3730  0.2289
  152MOL0     C19980   3.879   1.545   4.100  0.2430  0.1296  0.2579
  152MOL0     C19981   3.744   1.513   4.077  1.5007 -0.0943 -0.7463
  152MOL0     N19982   3.073   1.379   3.797 -0.9375  0.0382  0.3460
  152MOL0     N19983   2.996   1.362   3.699  0.4527 -0.1090 -0.2131
  152MOL0     C19984   2.490   0.584   3.415  0.0462  0.0679 -0.4827
  152MOL0     C19985   2.362   0.558   3.449  0.3489 -0.9195  0.1643
  152MOL0     C19986   1.951   0.493   3.607  0.1434  0.2218  0.5907
  152MOL0     C19987   1.856   0.395   3.580 -0.2039 -0.6724  0.0033
  152MOL0     C19988   1.730   0.406   3.636  0.6211  0.5958 -0.1118
  152MOL0     C19989   1.698   0.502   3.729 -0.4444  0.5569  0.0513
  152MOL0     O19990   1.573   0.520   3.787  0.7961  0.3203 -0.3088
  152MOL0     C19991   1.467   0.447   3.728  0.6066 -0.6700  0.4823
  152MOL0     C19992   1.339   0.441   3.802 -1.0601 -0.5008 -0.4255
  152MOL0     C19993   1.346   0.366   3.933 -0.8962  0.4150 -0.0347
  152MOL0     C19994   1.227   0.399   4.030  0.3637  0.0137  0.3942
  152MOL0     C19995   1.098   0.377   3.960 -0.6952 -0.1033  0.4850
  152MOL0     C19996   0.989   0.360   3.913  1.6895 -0.3944 -0.1290
  152MOL0     C19997   1.785   0.607   3.747 -0.4549  0.0774  0.4533
  152MOL0     C19998   1.912   0.594   3.700  0.2694  0.6419  0.4028
  152MOL0     H19999   2.329   0.760   3.714 -0.5572  0.5063 -0.3267
  152MOL0     H20000   2.552   0.817   3.666 -0.8939  0.4945  0.2985
  152MOL0     H20001   2.675   0.784   3.241  0.0992 -0.7257 -0.7063
  152MOL0     H20002   2.738   0.620   3.272  1.2026 -0.9469  0.2676
  152MOL0     H20003   2.932   0.723   3.226  0.5137 -0.0622  0.1784
  152MOL0     H20004   2.933   0.762   3.398  0.8797  0.8260 -0.6656
  152MOL0     H20005   2.811   0.985   3.344 -1.4397 -3.0651  1.1662
  152MOL0     H20006   2.878   0.957   3.176  0.5727  3.3280  0.6544
  152MOL0     H20007   3.024   0.963   3.439  0.8083  1.1020  0.7201
  152MOL0     H20008   3.097   0.916   3.276 -1.6581 -2.7330 -1.1789
  152MOL0     H20009   3.033   1.137   3.203 -1.6777 -2.6518  0.1411
  152MOL0     H20010   3.170   1.135   3.310  0.0417 -2.2165  1.6131
  152MOL0     H20011   2.979   1.197   3.498  1.7614 -0.3576  0.1954
  152MOL0     H20012   2.885   1.238   3.369  0.2023  0.3896  0.6585
  152MOL0     H20013   3.155   1.380   3.378 -0.0962  0.7394  1.4334
  152MOL0     H20014   3.018   1.407   3.270 -0.8636  0.8021  0.2191
  152MOL0     H20015   2.882   1.484   3.446  1.8920  1.8227 -1.4063
  152MOL0     H20016   3.029   1.568   3.438  0.2951  1.0306  2.1405
  152MOL0     H20017   3.193   1.613   3.604  0.4193 -0.0990 -0.2674
  152MOL0     H20018   3.333   1.588   3.801  2.2199 -1.1408  0.9713
  152MOL0     H20019   3.313   1.440   3.898  2.0594  0.9887  0.2410
  152MOL0     H20020   3.162   1.556   4.059 -0.9071  0.7663  0.7982
  152MOL0     H20021   3.149   1.690   3.954 -2.9824 -2.4229  1.4275
  152MOL0     H20022   3.378   1.760   3.984  1.8686 -2.0327  0.0857
  152MOL0     H20023   3.319   1.749   4.147  1.5016  1.9916 -1.2326
  152MOL0     H20024   3.423   1.492   4.123 -2.7059  0.7805 -1.4104
  152MOL0     H20025   3.498   1.625   4.195 -1.9975  0.7478 -0.3241
  152MOL0     H20026   3.687   1.766   3.861  0.8321 -1.2289 -1.5278
  152MOL0     H20027   3.928   1.787   3.875  1.6045  2.3111  2.0657
  152MOL0     H20028   4.387   1.600   3.976 -1.8568  0.2075 -0.8045
  152MOL0     H20029   4.601   1.701   3.949  1.0784  2.0673  0.6255
  152MOL0     H20030   4.793   1.818   3.955  0.6106  0.2978  1.1405
  152MOL0     H20031   4.729   1.891   4.108 -2.3359 -0.5025 -0.6597
  152MOL0     H20032   4.955   1.964   3.996 -0.6728  0.4996  1.8674
  152MOL0     H20033   4.852   2.088   4.059  1.4560  0.4794  0.2108
  152MOL0     H20034   4.788   2.151   3.815  1.3469  1.1577  0.3467
  152MOL0     H20035   4.868   1.997   3.760 -0.4723 -0.8839 -0.0638
  152MOL0     H20036   4.994   2.253   3.892  2.7212  0.2078 -0.5084
  152MOL0     H20037   5.074   2.105   3.864  0.1004  2.4584  3.9151
  152MOL0     H20038   4.924   2.291   3.664  0.5672 -1.1660 -2.4892
  152MOL0     H20039   4.994   2.139   3.609 -0.3690  0.6169 -1.4164
  152MOL0     H20040   5.133   2.301   3.537  1.3525  0.1076  0.3983
  152MOL0     H20041   5.213   2.243   3.682 -0.9388 -0.0802  3.2543
  152MOL0     H20042   5.047   2.496   3.675 -0.1297 -0.0884  0.7453
  152MOL0     H20043   5.150   2.450   3.805  0.5891  0.6591  0.5977
  152MOL0     H20044   5.260   2.616   3.635  2.7530  0.9673  0.8011
  152MOL0     H20045   5.268   2.491   3.523 -0.0174 -1.1042  0.3699
  152MOL0     H20046   4.425   2.096   3.980 -2.4615  0.6444 -2.0888
  152MOL0     H20047   4.209   1.995   3.985  0.4626  0.5753 -2.0568
  152MOL0     H20048   3.942   1.492   4.172  0.5237  1.4738  1.0339
  152MOL0     H20049   3.687   1.442   4.135  0.8559  1.1168  0.1710
  152MOL0     H20050   2.537   0.523   3.339 -0.1054 -1.2049  0.4032
  152MOL0     H20051   2.331   0.477   3.383 -2.2520  0.3598 -0.2944
  152MOL0     H20052   1.870   0.314   3.510  0.6122 -0.7378  0.2328
  152MOL0     H20053   1.659   0.336   3.593  0.2421  1.9572 -1.7864
  152MOL0     H20054   1.487   0.340   3.712  0.1326 -0.8598  1.1171
  152MOL0     H20055   1.442   0.500   3.636 -1.3534  0.5595  1.6697
  152MOL0     H20056   1.309   0.545   3.817 -2.4134 -0.9034 -0.2542
  152MOL0     H20057   1.268   0.397   3.731  0.4747 -1.5730 -1.3751
  152MOL0     H20058   1.440   0.384   3.985 -1.5203  3.9778  0.0929
  152MOL0     H20059   1.345   0.259   3.912  0.4014  0.6130 -1.2007
  152MOL0     H20060   1.229   0.326   4.112 -1.0245 -0.7381 -0.1944
  152MOL0     H20061   1.229   0.502   4.064 -2.4185  0.0655  0.5830
  152MOL0     H20062   0.901   0.348   3.853  0.1587 -0.9179  2.1099
  152MOL0     H20063   1.741   0.681   3.814 -4.2577  0.2800 -1.9523
  152MOL0     H20064   1.983   0.672   3.726  1.5755 -0.6439  0.8773
  153MOL0     O20065   1.729   0.214   7.838 -0.1398 -0.1781  0.0373
  153MOL0     C20066   1.739   0.175   7.720 -0.5979  0.5813  0.5197
  153MOL0     O20067   1.743   0.049   7.682 -0.0048  0.0835  0.4289
  153MOL0     C20068   1.743  -0.064   7.767 -0.3003 -1.1645  0.4112
  153MOL0     C20069   1.802  -0.062   7.898  0.4177 -0.0719 -0.3463
  153MOL0     C20070   1.795  -0.181   7.982 -0.7940  0.2338  0.8368
  153MOL0     C20071   1.732  -0.291   7.930  0.6457  1.3224  0.9363
  153MOL0     O20072   1.726  -0.418   7.989  0.3674  1.2220  0.6374
  153MOL0     C20073   1.767  -0.426   8.125 -0.2065 -0.7722 -0.1134
  153MOL0     C20074   1.763  -0.565   8.173  0.0814  0.5504 -0.5946
  153MOL0     C20075   1.627  -0.619   8.230 -0.3348  0.3115 -0.1883
  153MOL0     C20076   1.632  -0.767   8.260 -0.5042  0.3609 -0.3983
  153MOL0     C20077   1.500  -0.815   8.319  0.3716  0.3170 -0.1961
  153MOL0     C20078   1.509  -0.959   8.369  0.9249 -0.5724  0.2562
  153MOL0     C20079   1.443  -1.064   8.280 -0.2479 -0.9571  1.1536
  153MOL0     C20080   1.554  -1.115   8.180 -0.0760  0.4539  0.4472
  153MOL0     N20081   1.498  -1.235   8.112  0.0007 -0.1147  0.0400
  153MOL0     C20082   1.421  -1.218   7.996 -0.0594  0.5939  0.3355
  153MOL0     C20083   1.377  -1.344   7.960 -0.3524 -0.8754 -0.7088
  153MOL0     C20084   1.273  -1.380   7.862 -0.8749  0.1033 -0.6850
  153MOL0     C20085   1.149  -1.295   7.880  0.5501  0.0952 -0.0527
  153MOL0     C20086   1.064  -1.335   7.995  1.1678 -0.0663 -0.2251
  153MOL0     C20087   0.923  -1.383   7.962 -0.1977 -0.3258  0.1268
  153MOL0     O20088   0.920  -1.509   7.887  0.1234 -0.2449  0.7497
  153MOL0     C20089   0.799  -1.556   7.850  0.3861 -0.8926 -0.1197
  153MOL0     C20090   0.803  -1.673   7.786  0.8883 -0.9934  0.7198
  153MOL0     C20091   0.686  -1.729   7.731 -0.0178  0.1087  0.0404
  153MOL0     C20092   0.560  -1.661   7.740 -0.5732 -0.2675 -0.4224
  153MOL0     C20093   0.437  -1.726   7.690 -0.7057  0.0205  0.2980
  153MOL0     O20094   0.315  -1.674   7.716  0.8820 -0.4444  0.0324
  153MOL0     C20095   0.204  -1.751   7.679 -0.2341  0.0242  0.1511
  153MOL0     C20096   0.133  -1.820   7.775  0.8132  0.0745 -0.5492
  153MOL0     C20097   0.026  -1.890   7.721  0.2320 -0.6185 -0.6114
  153MOL0     C20098  -0.017  -1.894   7.594 -0.8125  0.4413 -0.5537
  153MOL0     O20099  -0.129  -1.967   7.573 -0.5889  0.5605  0.2457
  153MOL0     C20100  -0.198  -1.961   7.451  0.5396  0.6354 -0.3550
  153MOL0     C20101  -0.328  -2.038   7.465  0.5261 -0.2236 -0.0993
  153MOL0     C20102  -0.408  -2.006   7.594 -0.7497 -0.6060  0.5525
  153MOL0     C20103  -0.536  -2.091   7.604  0.2827  0.6644 -0.3999
  153MOL0     C20104  -0.639  -2.028   7.699  0.1587  0.4612 -0.1667
  153MOL0     C20105  -0.756  -2.129   7.724  0.7225  0.7228  0.1334
  153MOL0     C20106  -0.831  -2.180   7.604 -0.1759  0.4298  0.1075
  153MOL0     C20107  -0.883  -2.068   7.515  0.6150 -0.0524  0.6999
  153MOL0    Cl20108  -0.999  -2.137   7.393  0.0571 -0.0921  0.2565
  153MOL0     C20109   0.056  -1.824   7.501  0.2112 -0.3843 -0.6107
  153MOL0     C20110   0.160  -1.732   7.548  0.5779  0.3909  0.2703
  153MOL0     O20111   0.453  -1.832   7.627  0.0539 -0.9956 -1.0271
  153MOL0     C20112   0.565  -1.540   7.812  0.0994 -1.2817  0.3247
  153MOL0     C20113   0.685  -1.494   7.867  0.1032 -0.4141  0.3875
  153MOL0     N20114   1.429  -1.428   8.058 -0.0760  0.1782 -0.4190
  153MOL0     N20115   1.495  -1.366   8.143  0.2893  0.4872 -0.5726
  153MOL0     C20116   1.678  -0.292   7.798 -0.3164 -0.5221  0.5607
  153MOL0     C20117   1.688  -0.177   7.715  0.2944  0.1621 -0.2040
  153MOL0     C20118   1.731   0.279   7.614 -0.6213 -0.2568  0.0737
  153MOL0     C20119   1.713   0.244   7.478  0.3670 -0.2735 -0.0324
  153MOL0     C20120   1.697   0.341   7.383  0.2519  0.2442  0.7093
  153MOL0     C20121   1.689   0.474   7.419  0.4646 -0.2038 -0.2503
  153MOL0     O20122   1.668   0.561   7.316 -0.0099 -0.0750  0.1012
  153MOL0     C20123   1.575   0.666   7.330 -0.4711 -0.2373  0.1208
  153MOL0     C20124   1.607   0.770   7.224  0.1718  0.4322  0.3431
  153MOL0     C20125   1.758   0.824   7.221  0.0159 -0.7848  0.3067
  153MOL0     C20126   1.814   0.875   7.353 -0.1665  0.4468  0.2419
  153MOL0     C20127   1.958   0.854   7.369  0.3503 -0.4729 -0.4141
  153MOL0     C20128   2.075   0.814   7.371  0.4786 -0.1138  0.4065
  153MOL0     C20129   1.704   0.508   7.555 -0.1237 -0.0590  0.2116
  153MOL0     C20130   1.729   0.415   7.652 -0.1854 -0.2043  0.0303
  153MOL0     H20131   1.851   0.030   7.929  0.4586  0.4746 -1.9740
  153MOL0     H20132   1.830  -0.187   8.084 -0.1324 -3.5570  0.5630
  153MOL0     H20133   1.695  -0.373   8.187 -1.6879 -2.9820  0.1618
  153MOL0     H20134   1.867  -0.385   8.143 -0.4068 -0.4154  0.1805
  153MOL0     H20135   1.837  -0.569   8.253  1.5053  3.1494 -1.6666
  153MOL0     H20136   1.801  -0.625   8.089 -0.8432  1.4730 -1.7107
  153MOL0     H20137   1.550  -0.602   8.155 -1.4187 -0.5858  0.6935
  153MOL0     H20138   1.598  -0.567   8.322 -2.5709 -2.6939  0.9756
  153MOL0     H20139   1.653  -0.819   8.166  0.2672  1.7250 -1.0083
  153MOL0     H20140   1.717  -0.792   8.325 -0.6910 -3.2152 -1.3077
  153MOL0     H20141   1.413  -0.805   8.253 -1.4141 -0.9522  1.8277
  153MOL0     H20142   1.480  -0.750   8.405 -0.9070 -1.8403  1.2318
  153MOL0     H20143   1.437  -0.960   8.451  2.6027 -0.5620  1.7972
  153MOL0     H20144   1.603  -0.986   8.418  0.5239 -1.6097  0.4772
  153MOL0     H20145   1.406  -1.145   8.345 -3.4498 -0.2941  0.2921
  153MOL0     H20146   1.349  -1.034   8.235  0.0980 -1.7091 -0.1295
  153MOL0     H20147   1.651  -1.125   8.229 -0.4107  0.9192  1.2469
  153MOL0     H20148   1.556  -1.045   8.096 -1.3178 -0.6083 -0.5151
  153MOL0     H20149   1.391  -1.131   7.939  0.0513  1.1990  1.1844
  153MOL0     H20150   1.259  -1.488   7.851  2.2466 -0.4764 -0.0726
  153MOL0     H20151   1.319  -1.372   7.763 -0.3318 -3.1270 -0.8097
  153MOL0     H20152   1.089  -1.296   7.789 -1.1303  1.8860  0.9594
  153MOL0     H20153   1.186  -1.192   7.890 -0.8921  0.9663 -2.7199
  153MOL0     H20154   1.122  -1.396   8.065  1.6475 -0.3237 -0.8284
  153MOL0     H20155   1.046  -1.245   8.054 -0.3987 -1.1954  1.1190
  153MOL0     H20156   0.866  -1.305   7.912 -1.6951  0.0414  2.2711
  153MOL0     H20157   0.872  -1.411   8.054 -1.1182 -0.3472 -0.3783
  153MOL0     H20158   0.903  -1.713   7.771  2.0229  2.4451 -2.1608
  153MOL0     H20159   0.685  -1.826   7.682 -2.6470 -1.1104  2.2464
  153MOL0     H20160   0.155  -1.842   7.879  1.9809 -0.8276 -0.9617
  153MOL0     H20161  -0.037  -1.946   7.789  1.3706 -1.1573  0.0260
  153MOL0     H20162  -0.144  -1.999   7.364 -0.2086  2.7071 -1.8128
  153MOL0     H20163  -0.222  -1.857   7.427 -6.0316 -0.6494 -1.3944
  153MOL0     H20164  -0.308  -2.145   7.475 -2.5435 -0.7180  1.9714
  153MOL0     H20165  -0.384  -2.026   7.371 -0.1513  0.4285  0.3828
  153MOL0     H20166  -0.442  -1.903   7.584 -1.6293 -1.0552 -1.9040
  153MOL0     H20167  -0.348  -2.016   7.685  1.0806 -0.2291 -0.5542
  153MOL0     H20168  -0.578  -2.109   7.505  0.9819  0.5908 -0.6910
  153MOL0     H20169  -0.507  -2.184   7.654 -1.7563  2.3611  4.5467
  153MOL0     H20170  -0.681  -1.929   7.674 -0.3919  0.4780  0.7625
  153MOL0     H20171  -0.581  -2.006   7.789  0.3083 -1.4408  0.2365
  153MOL0     H20172  -0.829  -2.079   7.789  0.4859 -0.5183  0.8525
  153MOL0     H20173  -0.724  -2.218   7.780 -1.8093 -1.8500 -2.1952
  153MOL0     H20174  -0.759  -2.238   7.544 -2.4611  0.1228 -2.5687
  153MOL0     H20175  -0.906  -2.247   7.646  0.1590  0.8423  1.3981
  153MOL0     H20176  -0.806  -2.018   7.456  0.7507  0.0513  0.9601
  153MOL0     H20177  -0.932  -1.994   7.580  0.2906 -0.3403  0.7831
  153MOL0     H20178   0.015  -1.812   7.401 -1.5800  0.4661  0.1800
  153MOL0     H20179   0.210  -1.662   7.483  0.1451  2.5393  2.1379
  153MOL0     H20180   0.477  -1.484   7.842 -1.7021 -3.2680 -0.8892
  153MOL0     H20181   0.684  -1.395   7.912  0.3805 -0.6319  0.8768
  153MOL0     H20182   1.635  -0.383   7.756  2.1204 -1.7694  0.6216
  153MOL0     H20183   1.655  -0.182   7.612  0.2621 -0.2968 -0.1711
  153MOL0     H20184   1.723   0.145   7.434  2.0872 -0.2464  0.2341
  153MOL0     H20185   1.698   0.305   7.281  0.1109 -1.0857  1.1562
  153MOL0     H20186   1.583   0.698   7.435  2.9460  0.0246 -0.0886
  153MOL0     H20187   1.473   0.633   7.308 -0.4014 -1.1616  1.0419
  153MOL0     H20188   1.574   0.730   7.127  1.3841  0.2071  0.0120
  153MOL0     H20189   1.548   0.860   7.246  0.0129  0.4030  0.0469
  153MOL0     H20190   1.775   0.903   7.148  2.7025  0.2692  1.8837
  153MOL0     H20191   1.813   0.737   7.185 -1.4623 -2.8835  2.7923
  153MOL0     H20192   1.778   0.978   7.363 -0.2730  0.3764  0.6025
  153MOL0     H20193   1.769   0.824   7.438  2.8080 -2.4630  0.2599
  153MOL0     H20194   2.172   0.769   7.360  1.1020  0.2908  3.4297
  153MOL0     H20195   1.697   0.608   7.597 -0.5643 -1.0631  2.7020
  153MOL0     H20196   1.730   0.437   7.759 -1.1428  1.2328 -0.2263
  154MOL0     O20197   7.732   1.515   5.640 -0.4128 -0.0662  0.3147
  154MOL0     C20198   7.806   1.611   5.607 -1.0232 -0.3839  0.2453
  154MOL0     O20199   7.898   1.606   5.509 -0.0378  0.0029 -0.7093
  154MOL0     C20200   7.947   1.482   5.471  0.2230  0.3944  0.1956
  154MOL0     C20201   7.962   1.377   5.563 -0.6168 -0.8268  0.0808
  154MOL0     C20202   8.007   1.250   5.522  0.0629 -0.0131  0.4999
  154MOL0     C20203   8.052   1.231   5.394 -0.1848  0.0862  0.2400
  154MOL0     O20204   8.092   1.100   5.374  0.5782  0.4093  0.0923
  154MOL0     C20205   8.161   1.077   5.251 -0.4502 -0.3036  0.0089
  154MOL0     C20206   8.120   0.937   5.215  0.7139 -0.6701 -0.3561
  154MOL0     C20207   7.976   0.910   5.219  0.7100  0.0781  0.4580
  154MOL0     C20208   7.941   0.776   5.156  0.8125  0.1536  0.3771
  154MOL0     C20209   7.911   0.787   5.004 -0.0784 -0.1160  0.4074
  154MOL0     C20210   7.788   0.869   4.972  0.1109  0.8666  0.3168
  154MOL0     C20211   7.662   0.796   5.023 -0.7886  0.1084 -0.0429
  154MOL0     C20212   7.538   0.848   4.957  0.0185 -0.3459 -0.2864
  154MOL0     N20213   7.422   0.857   5.056 -0.6533  1.3010  0.4176
  154MOL0     C20214   7.345   0.753   5.103 -0.5748 -0.2997  0.9142
  154MOL0     C20215   7.249   0.827   5.171  1.1505  0.7516  0.2135
  154MOL0     C20216   7.143   0.770   5.262  0.6257 -0.2159  0.3143
  154MOL0     C20217   7.012   0.750   5.177  0.2941  0.4624 -0.0932
  154MOL0     C20218   6.952   0.893   5.154 -0.0772 -0.4428 -0.2302
  154MOL0     C20219   6.834   0.892   5.067  0.3236  0.5368  1.5753
  154MOL0     O20220   6.756   1.011   5.083  0.2591 -0.7919 -0.2269
  154MOL0     C20221   6.633   1.011   5.017  0.1865  0.4479  0.3818
  154MOL0     C20222   6.521   1.063   5.080 -0.4972  0.3744  0.1579
  154MOL0     C20223   6.403   1.070   5.013 -0.8586 -0.4844 -0.2581
  154MOL0     C20224   6.395   1.059   4.875 -0.0953 -0.3288  0.1228
  154MOL0     C20225   6.258   1.074   4.808 -0.9158 -0.8724  0.2071
  154MOL0     O20226   6.147   1.081   4.881 -0.5376  0.0838  0.2986
  154MOL0     C20227   6.024   1.088   4.816  0.0355  0.1248 -0.5205
  154MOL0     C20228   5.981   0.966   4.766  0.3045  0.4082 -0.2646
  154MOL0     C20229   5.860   0.956   4.697  0.3621  0.3189  0.2693
  154MOL0     C20230   5.791   1.080   4.673  0.7782  0.6121 -0.1000
  154MOL0     O20231   5.678   1.066   4.593 -0.3443 -0.6309 -0.4774
  154MOL0     C20232   5.565   1.003   4.668 -0.4498  0.0718  0.4754
  154MOL0     C20233   5.419   1.045   4.621 -0.5171  0.0305 -0.7829
  154MOL0     C20234   5.363   1.147   4.725  0.0229  0.1795  0.5339
  154MOL0     C20235   5.221   1.176   4.685 -0.6598  0.0069 -0.3098
  154MOL0     C20236   5.166   1.292   4.769 -0.0135 -0.8569  0.4536
  154MOL0     C20237   5.054   1.365   4.699 -0.4045  0.7889 -0.5893
  154MOL0     C20238   4.990   1.477   4.789 -0.3609 -0.9611 -0.4455
  154MOL0     C20239   4.847   1.517   4.752 -0.2481 -0.2516  0.0890
  154MOL0    Cl20240   4.835   1.574   4.584 -0.1930 -0.2468  0.3825
  154MOL0     C20241   5.837   1.195   4.725  0.2186  0.0664 -0.0542
  154MOL0     C20242   5.959   1.203   4.792  0.7716 -1.0896  0.8441
  154MOL0     O20243   6.257   1.071   4.684 -0.2588  0.1514  0.2588
  154MOL0     C20244   6.518   1.030   4.811  0.3707  0.3006 -0.3987
  154MOL0     C20245   6.633   1.003   4.879  0.7514  0.7539 -0.3648
  154MOL0     N20246   7.275   0.963   5.156  0.8954 -0.9073 -0.1239
  154MOL0     N20247   7.381   0.978   5.093  0.1738  0.1754  0.2532
  154MOL0     C20248   8.039   1.339   5.299 -0.2772 -0.6349 -0.4510
  154MOL0     C20249   7.984   1.458   5.340  0.0974 -0.0707  0.0379
  154MOL0     C20250   7.793   1.743   5.667 -0.6198 -0.0417  0.5957
  154MOL0     C20251   7.895   1.839   5.665 -0.1863  0.0650  0.3205
  154MOL0     C20252   7.875   1.965   5.722  0.0081  0.0932  0.2830
  154MOL0     C20253   7.757   1.996   5.781  0.7131 -0.6439 -0.1007
  154MOL0     O20254   7.764   2.122   5.849  0.0392 -0.3387  0.2694
  154MOL0     C20255   7.646   2.172   5.912  0.2755 -0.1281 -0.0903
  154MOL0     C20256   7.548   2.231   5.812  0.3831 -0.1935 -0.1472
  154MOL0     C20257   7.621   2.337   5.717 -0.3866  0.0521  0.0856
  154MOL0     C20258   7.683   2.453   5.796 -1.1023  1.1681 -1.3628
  154MOL0     C20259   7.593   2.543   5.867 -0.6437  0.3791 -0.8434
  154MOL0     C20260   7.518   2.613   5.940  0.6344  0.4201  0.9478
  154MOL0     C20261   7.655   1.899   5.779 -0.0359 -0.2402 -0.5026
  154MOL0     C20262   7.669   1.773   5.719  0.7265 -0.8005 -0.4471
  154MOL0     H20263   7.944   1.392   5.669  0.7515 -1.6805  0.4677
  154MOL0     H20264   7.995   1.159   5.579 -1.0548  0.1028  0.4677
  154MOL0     H20265   8.267   1.105   5.255 -0.9319  1.6083  1.0772
  154MOL0     H20266   8.132   1.138   5.164  0.3109 -1.3351 -0.9924
  154MOL0     H20267   8.171   0.863   5.278 -2.9334 -2.4817  0.7275
  154MOL0     H20268   8.150   0.931   5.110  3.6972 -0.0999  0.3706
  154MOL0     H20269   7.909   0.983   5.173 -1.9534 -3.3624 -1.6447
  154MOL0     H20270   7.945   0.917   5.324  0.8453  2.1832  0.4089
  154MOL0     H20271   8.023   0.707   5.176  0.3010 -0.6730 -0.3511
  154MOL0     H20272   7.842   0.756   5.197  0.2170  3.8212  1.1283
  154MOL0     H20273   7.888   0.688   4.965 -0.0683 -0.7868  1.9945
  154MOL0     H20274   7.999   0.820   4.948  0.5361 -1.1807  0.6967
  154MOL0     H20275   7.787   0.872   4.863  2.0791 -3.5365 -0.0217
  154MOL0     H20276   7.803   0.976   4.990  1.9114  1.0420 -1.7964
  154MOL0     H20277   7.669   0.687   5.028 -1.6658  0.0829  3.0556
  154MOL0     H20278   7.650   0.832   5.125 -1.1760  3.0548 -1.0472
  154MOL0     H20279   7.509   0.788   4.871 -2.3065 -1.3945  1.1469
  154MOL0     H20280   7.551   0.947   4.913 -1.2656 -0.6630 -1.4210
  154MOL0     H20281   7.360   0.646   5.095 -4.6643 -1.1055  1.7617
  154MOL0     H20282   7.136   0.840   5.346 -0.5796  1.1847 -0.8842
  154MOL0     H20283   7.182   0.674   5.296  2.5798 -0.1318 -1.5046
  154MOL0     H20284   6.938   0.691   5.233 -0.3269  1.1540 -0.1765
  154MOL0     H20285   7.022   0.704   5.078  1.7540  3.6471 -1.5435
  154MOL0     H20286   6.918   0.926   5.253  0.8905 -0.8871  0.2597
  154MOL0     H20287   7.028   0.962   5.115  0.2260  0.2203  1.4040
  154MOL0     H20288   6.776   0.802   5.089 -0.0634  0.0888 -0.9468
  154MOL0     H20289   6.886   0.896   4.971  1.2295 -0.0675  2.0343
  154MOL0     H20290   6.531   1.081   5.186 -1.5250 -2.9228  0.9451
  154MOL0     H20291   6.317   1.085   5.077  0.1816 -1.3136  1.4075
  154MOL0     H20292   6.056   0.888   4.769  1.3997  1.2268 -3.0419
  154MOL0     H20293   5.813   0.863   4.665  3.3318 -1.6614  1.1869
  154MOL0     H20294   5.569   1.029   4.774  1.4892  1.5888  0.0844
  154MOL0     H20295   5.588   0.897   4.652  3.3282  0.8546 -0.2183
  154MOL0     H20296   5.348   0.964   4.603 -0.8820  0.8031 -3.1099
  154MOL0     H20297   5.443   1.096   4.528 -0.5443 -0.7737 -1.2314
  154MOL0     H20298   5.426   1.236   4.731  0.5984 -0.3184  2.3755
  154MOL0     H20299   5.351   1.109   4.827  3.5416 -0.4398  0.8434
  154MOL0     H20300   5.225   1.211   4.581  2.0114  2.5785  0.5317
  154MOL0     H20301   5.150   1.092   4.690 -0.2232 -0.3096  1.0986
  154MOL0     H20302   5.247   1.359   4.800  1.7289 -3.4040  1.7818
  154MOL0     H20303   5.119   1.249   4.858 -1.2772  0.5882  0.5101
  154MOL0     H20304   4.981   1.294   4.659  2.8535 -0.9701 -4.0678
  154MOL0     H20305   5.092   1.417   4.610  0.7751 -0.1735 -0.6696
  154MOL0     H20306   4.987   1.449   4.894 -1.1143 -1.0997 -0.4926
  154MOL0     H20307   5.044   1.572   4.783 -1.3917 -0.3567 -0.5923
  154MOL0     H20308   4.828   1.606   4.813 -0.3899  0.7375 -1.3604
  154MOL0     H20309   4.773   1.439   4.774 -1.2782  0.8243  0.5930
  154MOL0     H20310   5.794   1.289   4.691  1.7584  0.2875 -1.5031
  154MOL0     H20311   5.997   1.303   4.812  0.1757 -0.8331  0.7174
  154MOL0     H20312   6.509   1.031   4.703 -0.4853 -0.7936 -0.3603
  154MOL0     H20313   6.727   0.988   4.827  0.6293  0.1920 -0.4324
  154MOL0     H20314   8.086   1.328   5.202  1.9845 -0.4886  0.5770
  154MOL0     H20315   7.976   1.547   5.278  1.9132  0.5516  0.6066
  154MOL0     H20316   7.991   1.822   5.618  0.1371  1.6064  0.3886
  154MOL0     H20317   7.958   2.033   5.733  0.0973 -0.3096  2.6150
  154MOL0     H20318   7.678   2.252   5.981  0.5378 -0.1933 -0.1329
  154MOL0     H20319   7.603   2.093   5.974  0.0991  1.9341  2.6264
  154MOL0     H20320   7.504   2.156   5.746 -0.1529 -0.1371  0.1378
  154MOL0     H20321   7.464   2.270   5.870 -0.2441 -1.3225 -0.2777
  154MOL0     H20322   7.554   2.378   5.641  0.0715 -3.0025 -2.1468
  154MOL0     H20323   7.699   2.282   5.665 -1.6935 -1.9838  0.1778
  154MOL0     H20324   7.751   2.413   5.872 -3.6153  1.4563  1.2376
  154MOL0     H20325   7.738   2.502   5.715  2.6285 -3.2697 -1.8872
  154MOL0     H20326   7.443   2.675   5.986 -1.8930 -0.3327 -1.8335
  154MOL0     H20327   7.563   1.924   5.831 -0.0637 -0.0863 -0.6252
  154MOL0     H20328   7.586   1.703   5.725  1.1259 -1.2838 -0.5044
  155MOL0     O20329  11.015   1.471   9.093 -0.8387 -0.2819 -0.0365
  155MOL0     C20330  11.054   1.416   9.197  0.4330 -0.1665  0.4666
  155MOL0     O20331  11.168   1.450   9.266  0.1261 -0.1908  0.4097
  155MOL0     C20332  11.222   1.575   9.238  0.2906 -0.5267  0.3548
  155MOL0     C20333  11.367   1.598   9.208  0.1479 -0.3034  0.0890
  155MOL0     C20334  11.419   1.724   9.190 -0.3469 -0.0785 -0.6569
  155MOL0     C20335  11.340   1.833   9.205 -0.3139  0.0258  0.8040
  155MOL0     O20336  11.403   1.958   9.192  0.4079  0.5407  0.1680
  155MOL0     C20337  11.312   2.072   9.159 -0.6466 -0.8318 -0.4160
  155MOL0     C20338  11.382   2.199   9.171  0.0696  0.7863  0.1928
  155MOL0     C20339  11.279   2.318   9.157  0.1055 -0.7189 -0.6971
  155MOL0     C20340  11.226   2.342   9.021  0.0687  0.1727 -0.5003
  155MOL0     C20341  11.209   2.495   9.003  0.6749 -0.2496 -0.2685
  155MOL0     C20342  11.091   2.561   9.072  0.2472 -0.4913 -0.7172
  155MOL0     C20343  10.965   2.562   8.981  1.2110  0.3654  0.4208
  155MOL0     C20344  10.842   2.594   9.064  0.1933  0.2009 -0.0961
  155MOL0     N20345  10.860   2.716   9.141 -0.0299  0.7201  0.2642
  155MOL0     C20346  10.873   2.847   9.080  0.5174 -0.2783 -0.2369
  155MOL0     C20347  10.892   2.930   9.189 -0.2049 -0.2755  0.5868
  155MOL0     C20348  10.920   3.074   9.196  0.6403 -1.6914  0.2364
  155MOL0     C20349  11.073   3.086   9.225  0.4328  0.2674  0.3452
  155MOL0     C20350  11.122   3.222   9.273 -1.1120  0.0204 -0.1689
  155MOL0     C20351  11.279   3.227   9.300 -0.1864 -1.3022  0.4530
  155MOL0     O20352  11.312   3.357   9.357  0.2387 -0.3463  0.7287
  155MOL0     C20353  11.446   3.396   9.338  1.0374  0.4607 -0.4510
  155MOL0     C20354  11.561   3.314   9.333 -0.2644  0.4521  0.1569
  155MOL0     C20355  11.694   3.365   9.307  0.2541  0.0083 -0.1565
  155MOL0     C20356  11.722   3.503   9.314 -0.0542  1.0595  0.2674
  155MOL0     C20357  11.856   3.558   9.290  0.2882 -0.4140  0.8584
  155MOL0     O20358  11.956   3.493   9.218 -0.8396  0.2636 -0.1429
  155MOL0     C20359  12.079   3.556   9.215  0.7195 -0.2358 -0.4190
  155MOL0     C20360  12.138   3.588   9.340  0.4073  1.1321  0.2414
  155MOL0     C20361  12.253   3.674   9.326  0.3283  1.8879 -0.5709
  155MOL0     C20362  12.319   3.704   9.208  0.0553 -0.8373  1.0351
  155MOL0     O20363  12.442   3.774   9.188 -0.5673  0.0915  0.0932
  155MOL0     C20364  12.527   3.776   9.301  0.1786 -0.2877 -0.6456
  155MOL0     C20365  12.658   3.848   9.282  0.2828 -0.0244 -0.0016
  155MOL0     C20366  12.776   3.765   9.234  0.0570 -0.5111 -0.9452
  155MOL0     C20367  12.799   3.782   9.087 -0.5553  0.0523 -0.2843
  155MOL0     C20368  12.898   3.686   9.015  0.6255  0.4396 -0.1023
  155MOL0     C20369  13.048   3.723   9.048  0.0600 -0.1059 -0.7849
  155MOL0     C20370  13.104   3.811   8.926  0.2229 -0.2872 -0.0188
  155MOL0     C20371  13.247   3.846   8.963 -0.3539  0.9462  0.1582
  155MOL0    Cl20372  13.326   3.914   8.812  0.4664  0.1765  0.3100
  155MOL0     C20373  12.262   3.647   9.092  0.0860 -0.1645  0.7742
  155MOL0     C20374  12.139   3.582   9.090 -0.3548 -0.1575 -0.5108
  155MOL0     O20375  11.869   3.667   9.340 -0.0936 -0.4318 -0.0678
  155MOL0     C20376  11.606   3.584   9.331 -0.3502 -1.0118  0.4714
  155MOL0     C20377  11.471   3.537   9.338 -0.7258  0.4532  0.1767
  155MOL0     N20378  10.893   2.852   9.300  0.5886 -0.7481 -0.0370
  155MOL0     N20379  10.880   2.734   9.277 -0.1341  0.6454  0.7722
  155MOL0     C20380  11.202   1.812   9.226 -0.6819  0.3107  0.0358
  155MOL0     C20381  11.145   1.688   9.242 -0.9720 -0.6305  0.1845
  155MOL0     C20382  10.979   1.296   9.246  0.0317 -0.1028 -0.2631
  155MOL0     C20383  10.854   1.250   9.194  0.2630  0.1374  0.3643
  155MOL0     C20384  10.783   1.154   9.274 -0.5023  0.0972 -0.1167
  155MOL0     C20385  10.842   1.080   9.379  0.7850  0.1656  1.3617
  155MOL0     O20386  10.765   0.974   9.417  0.4117  0.0043  0.7167
  155MOL0     C20387  10.781   0.933   9.558  0.3420 -0.4307  0.4883
  155MOL0     C20388  10.670   0.995   9.649  0.0576 -0.1717  0.9439
  155MOL0     C20389  10.645   0.913   9.782  0.4689  0.7325  0.1287
  155MOL0     C20390  10.541   0.972   9.873 -0.2647  0.1457  0.0386
  155MOL0     C20391  10.522   0.896   9.991  0.6472 -0.3997 -0.0707
  155MOL0     C20392  10.484   0.832  10.085 -0.2108 -0.0573 -0.1856
  155MOL0     C20393  10.969   1.113   9.417  0.7298  0.8265  0.4390
  155MOL0     C20394  11.031   1.220   9.350 -0.0216  0.5214 -0.5368
  155MOL0     H20395  11.430   1.511   9.189  0.8116 -0.3441  2.2332
  155MOL0     H20396  11.526   1.731   9.173  0.8342 -3.7712  3.3142
  155MOL0     H20397  11.229   2.079   9.230  0.1469  0.1146  0.4543
  155MOL0     H20398  11.292   2.060   9.052 -0.0116  0.4883 -0.6975
  155MOL0     H20399  11.446   2.203   9.082 -1.4231 -1.2617 -1.0598
  155MOL0     H20400  11.447   2.212   9.258  0.3092  2.7885 -0.2337
  155MOL0     H20401  11.345   2.399   9.191  1.9557 -2.1196 -0.7893
  155MOL0     H20402  11.200   2.310   9.232 -0.3938  0.4674 -1.0791
  155MOL0     H20403  11.292   2.301   8.945  0.3929 -3.9119  1.6675
  155MOL0     H20404  11.122   2.309   9.014 -0.1068  0.4507  0.5277
  155MOL0     H20405  11.199   2.518   8.896 -1.0168 -0.1253 -0.1092
  155MOL0     H20406  11.297   2.542   9.046  0.2176  0.4033 -0.0422
  155MOL0     H20407  11.128   2.658   9.105 -0.2556 -1.1744  2.1297
  155MOL0     H20408  11.076   2.500   9.162 -0.6383  0.0910 -0.4529
  155MOL0     H20409  10.983   2.633   8.900 -0.1916  1.7495  1.2694
  155MOL0     H20410  10.960   2.460   8.942  0.6989  0.2305  0.8337
  155MOL0     H20411  10.822   2.508   9.128 -1.5410 -0.7698 -1.7988
  155MOL0     H20412  10.754   2.609   9.000 -0.4746 -2.2033  0.1685
  155MOL0     H20413  10.872   2.881   8.977  3.2734 -1.2388 -0.6512
  155MOL0     H20414  10.871   3.131   9.276  0.4069 -2.3045  0.5421
  155MOL0     H20415  10.900   3.116   9.097  2.0794 -0.4841  0.4189
  155MOL0     H20416  11.115   3.061   9.127 -1.1879  0.8521 -0.5226
  155MOL0     H20417  11.096   3.017   9.307  1.1475  2.7190  2.3484
  155MOL0     H20418  11.104   3.280   9.182 -1.0038 -0.8170 -0.7319
  155MOL0     H20419  11.075   3.265   9.362 -2.0208  0.1828 -0.7095
  155MOL0     H20420  11.340   3.190   9.217 -0.8581  0.5019 -0.9083
  155MOL0     H20421  11.292   3.161   9.387 -0.4233 -0.3653  1.2123
  155MOL0     H20422  11.538   3.210   9.310 -1.6185  1.0909 -1.6082
  155MOL0     H20423  11.775   3.295   9.293 -0.0800 -0.6499  1.0906
  155MOL0     H20424  12.096   3.555   9.434  0.6142  0.1494 -0.0026
  155MOL0     H20425  12.293   3.705   9.422 -0.0983  0.5574  0.0568
  155MOL0     H20426  12.541   3.679   9.349 -1.1865  0.1495  0.7166
  155MOL0     H20427  12.470   3.840   9.369  0.4750  1.7134 -2.1709
  155MOL0     H20428  12.681   3.887   9.381 -0.5076  1.3570 -0.3422
  155MOL0     H20429  12.651   3.939   9.221 -2.9176 -1.3966 -1.9583
  155MOL0     H20430  12.751   3.660   9.250 -2.9439  0.1590 -0.5389
  155MOL0     H20431  12.860   3.792   9.298 -1.6825  1.4652  0.6425
  155MOL0     H20432  12.707   3.760   9.033 -0.2560 -0.7519 -0.4811
  155MOL0     H20433  12.831   3.885   9.066  1.3136  0.2205  2.6765
  155MOL0     H20434  12.884   3.694   8.907  0.9124  3.5138 -0.0128
  155MOL0     H20435  12.882   3.582   9.044 -1.8847  0.8939  0.3156
  155MOL0     H20436  13.105   3.629   9.053  0.7086  0.3377  0.5708
  155MOL0     H20437  13.057   3.766   9.148 -3.0532 -0.9805 -0.0020
  155MOL0     H20438  13.096   3.764   8.827  1.1070  0.6121 -0.5458
  155MOL0     H20439  13.057   3.910   8.920  2.6378  1.0961  2.1683
  155MOL0     H20440  13.310   3.762   8.993 -2.3845 -1.1811 -1.1807
  155MOL0     H20441  13.243   3.920   9.044 -0.7441  1.9643 -0.7661
  155MOL0     H20442  12.304   3.671   8.994 -1.3502  0.0217  0.1792
  155MOL0     H20443  12.083   3.549   9.003 -0.0402  3.4495 -2.2488
  155MOL0     H20444  11.631   3.689   9.336  1.4250 -1.3354 -0.4271
  155MOL0     H20445  11.392   3.607   9.363 -0.9722 -0.5895  2.5569
  155MOL0     H20446  11.131   1.890   9.253 -0.4526 -0.9403  5.6413
  155MOL0     H20447  11.039   1.677   9.262 -0.5915  0.0641  2.9563
  155MOL0     H20448  10.802   1.293   9.109 -1.2499 -0.2758  1.0517
  155MOL0     H20449  10.685   1.124   9.238  0.0844 -0.7434 -1.0709
  155MOL0     H20450  10.877   0.952   9.607 -1.2551  2.6102  2.8045
  155MOL0     H20451  10.768   0.825   9.545 -3.4473  0.1341 -1.8947
  155MOL0     H20452  10.704   1.094   9.678  2.4310  0.8718 -4.1720
  155MOL0     H20453  10.579   1.011   9.591 -0.9083 -1.5760  1.9897
  155MOL0     H20454  10.739   0.920   9.837 -0.0468 -1.5089  1.4175
  155MOL0     H20455  10.623   0.809   9.758 -1.8801  0.2901  3.4647
  155MOL0     H20456  10.551   1.079   9.893  1.6693  0.3590 -1.7135
  155MOL0     H20457  10.445   0.965   9.819 -0.3569  1.7294 -0.0347
  155MOL0     H20458  10.443   0.775  10.165  1.3983  0.7914  1.3131
  155MOL0     H20459  11.019   1.063   9.500 -0.7835 -1.6015 -0.0221
  155MOL0     H20460  11.131   1.242   9.387 -0.5451  0.3804  1.0501
  156MOL0     O20461   1.479   2.944   4.613  0.2881  1.0228  0.1376
  156MOL0     C20462   1.539   3.026   4.549 -0.1567 -0.4506  0.5921
  156MOL0     O20463   1.484   3.137   4.506  0.5699 -0.4493  0.5227
  156MOL0     C20464   1.355   3.159   4.524  1.2295  0.1599  0.2823
  156MOL0     C20465   1.265   3.119   4.424 -0.6690 -0.3304  0.1950
  156MOL0     C20466   1.130   3.133   4.439  0.5297 -1.0090 -0.1788
  156MOL0     C20467   1.074   3.192   4.553 -0.8081  0.5511 -1.1122
  156MOL0     O20468   0.943   3.200   4.548  0.2137  0.1065  0.3832
  156MOL0     C20469   0.869   3.276   4.641  0.8867  0.0665  0.0317
  156MOL0     C20470   0.881   3.428   4.600 -0.3562  0.2705 -0.2076
  156MOL0     C20471   0.832   3.517   4.707  0.3673 -0.4604 -0.1183
  156MOL0     C20472   0.678   3.525   4.700 -0.2926 -0.0532 -0.7378
  156MOL0     C20473   0.613   3.589   4.829 -0.2410  0.1900  0.3275
  156MOL0     C20474   0.466   3.589   4.810  1.0280 -0.5611 -0.4987
  156MOL0     C20475   0.379   3.677   4.901  0.9530  0.6547 -0.1607
  156MOL0     C20476   0.367   3.609   5.041 -0.2733 -0.2896 -0.9579
  156MOL0     N20477   0.273   3.677   5.129 -0.0992 -0.3764  0.0754
  156MOL0     C20478   0.285   3.694   5.262 -0.1438 -0.2331  0.2972
  156MOL0     C20479   0.173   3.746   5.300 -0.0421  0.7870 -0.1972
  156MOL0     C20480   0.152   3.791   5.438  0.0442 -0.4039  0.3978
  156MOL0     C20481   0.002   3.813   5.474 -0.5750 -0.1411  0.5395
  156MOL0     C20482  -0.005   3.844   5.626 -0.0400  0.6123 -0.0266
  156MOL0     C20483  -0.138   3.897   5.672  1.0882 -0.5181 -0.1573
  156MOL0     O20484  -0.157   4.024   5.614 -0.2668  0.7367  0.1988
  156MOL0     C20485  -0.249   4.106   5.666 -0.2849  0.0080 -0.2412
  156MOL0     C20486  -0.340   4.070   5.767  0.1621  0.1020  0.5885
  156MOL0     C20487  -0.437   4.152   5.793 -0.2556 -1.3096 -0.5031
  156MOL0     C20488  -0.450   4.281   5.723 -0.0314 -0.1153 -0.2285
  156MOL0     C20489  -0.561   4.375   5.753  1.0214  0.5878 -0.2835
  156MOL0     O20490  -0.631   4.348   5.870  0.0745 -0.1279  0.2064
  156MOL0     C20491  -0.741   4.426   5.888  0.0631  0.5587  0.6836
  156MOL0     C20492  -0.723   4.554   5.937 -0.7240  1.1842  0.2060
  156MOL0     C20493  -0.826   4.637   5.970  0.1484 -1.0395  0.2165
  156MOL0     C20494  -0.960   4.593   5.940 -0.1581 -0.5668  0.5994
  156MOL0     O20495  -1.072   4.671   5.964 -0.3901 -0.2682  0.8703
  156MOL0     C20496  -1.059   4.747   6.086  0.0280 -0.0922 -0.2782
  156MOL0     C20497  -1.205   4.764   6.148  0.9328 -0.1545 -0.0976
  156MOL0     C20498  -1.298   4.643   6.126  0.2318 -0.2165 -0.5500
  156MOL0     C20499  -1.434   4.677   6.183 -0.0031  0.3783 -0.8837
  156MOL0     C20500  -1.527   4.554   6.181 -0.4211  0.3191 -0.8466
  156MOL0     C20501  -1.675   4.588   6.176 -0.5514 -0.7480  0.1905
  156MOL0     C20502  -1.730   4.641   6.299 -0.5806 -0.2066 -0.3272
  156MOL0     C20503  -1.869   4.698   6.299 -0.8441 -0.6941 -0.6043
  156MOL0    Cl20504  -1.984   4.588   6.219  0.3320 -0.4245  0.3100
  156MOL0     C20505  -0.983   4.460   5.903  0.1706  0.1015  0.0920
  156MOL0     C20506  -0.870   4.380   5.868  0.5592  0.1249 -0.3315
  156MOL0     O20507  -0.577   4.475   5.681  0.1515  0.4478 -0.5800
  156MOL0     C20508  -0.349   4.320   5.628 -0.1462  0.0644 -0.3650
  156MOL0     C20509  -0.249   4.231   5.607  0.6248 -0.7488  0.0400
  156MOL0     N20510   0.091   3.766   5.190 -0.0347  0.1735  0.7587
  156MOL0     N20511   0.160   3.735   5.087 -0.0874 -0.1935  0.1611
  156MOL0     C20512   1.165   3.235   4.654 -0.4914  0.2246 -0.3374
  156MOL0     C20513   1.300   3.214   4.633  0.2760 -0.5529 -0.6493
  156MOL0     C20514   1.680   3.005   4.510  0.0458  0.3675 -1.0638
  156MOL0     C20515   1.745   3.091   4.415  0.1646  0.9548 -0.6365
  156MOL0     C20516   1.887   3.075   4.400 -0.0783 -1.0460  0.0768
  156MOL0     C20517   1.953   2.976   4.476 -0.1353  0.8111  0.4026
  156MOL0     O20518   2.086   2.941   4.455  0.6057 -0.3878 -0.4704
  156MOL0     C20519   2.178   3.017   4.377 -0.3848 -0.6904 -0.5588
  156MOL0     C20520   2.313   2.933   4.351  0.2603  0.0029 -0.4559
  156MOL0     C20521   2.392   2.916   4.480 -0.1508 -0.4217 -0.0786
  156MOL0     C20522   2.518   2.834   4.451 -0.4536  0.3793 -0.0098
  156MOL0     C20523   2.610   2.902   4.354  0.6557  0.0529  0.0071
  156MOL0     C20524   2.687   2.956   4.279  0.2816  0.2194  0.0480
  156MOL0     C20525   1.890   2.906   4.566 -0.6636  0.0412  0.8739
  156MOL0     C20526   1.754   2.912   4.590 -1.2246  0.0592  0.0541
  156MOL0     H20527   1.316   3.079   4.337 -1.2927  1.0007 -0.8212
  156MOL0     H20528   1.060   3.104   4.361 -0.0434 -0.0915 -0.0170
  156MOL0     H20529   0.900   3.253   4.744  0.6854  0.7068  0.2449
  156MOL0     H20530   0.763   3.251   4.651  1.2798 -3.0919 -2.2684
  156MOL0     H20531   0.852   3.458   4.498 -0.0864  0.3342 -0.2651
  156MOL0     H20532   0.990   3.435   4.593 -0.4394  0.2214 -2.4595
  156MOL0     H20533   0.871   3.618   4.691  0.7913 -0.3768  1.2952
  156MOL0     H20534   0.863   3.477   4.805  1.4637 -1.6473 -0.9140
  156MOL0     H20535   0.650   3.581   4.610  0.4605 -0.5141 -1.2630
  156MOL0     H20536   0.646   3.422   4.687  0.0895 -0.1231 -1.1358
  156MOL0     H20537   0.648   3.688   4.859  0.6010 -0.2182  0.7260
  156MOL0     H20538   0.621   3.517   4.910  2.0366 -1.0487 -0.8771
  156MOL0     H20539   0.433   3.484   4.812  1.6410 -0.7494  0.0940
  156MOL0     H20540   0.439   3.611   4.706 -2.1408 -2.0920 -0.1242
  156MOL0     H20541   0.426   3.775   4.899  0.4005  0.9274 -0.0310
  156MOL0     H20542   0.276   3.692   4.868  2.0424  1.8601 -3.4266
  156MOL0     H20543   0.462   3.619   5.094  0.5354  2.7884 -2.7304
  156MOL0     H20544   0.348   3.501   5.033 -2.0568 -0.0499 -0.2218
  156MOL0     H20545   0.368   3.673   5.329  1.6335  0.6990 -1.5376
  156MOL0     H20546   0.198   3.890   5.442  0.7165 -0.5627 -1.6953
  156MOL0     H20547   0.209   3.733   5.510 -0.4538 -0.4352  0.7712
  156MOL0     H20548  -0.051   3.722   5.445 -0.2249  0.4611 -2.3961
  156MOL0     H20549  -0.038   3.892   5.408  1.0055 -0.8728 -1.4051
  156MOL0     H20550   0.015   3.751   5.679 -0.7082 -1.2621 -2.9046
  156MOL0     H20551   0.080   3.908   5.655  0.6298 -1.2953  2.5884
  156MOL0     H20552  -0.146   3.909   5.781 -1.7600 -1.5095 -0.1611
  156MOL0     H20553  -0.218   3.828   5.644  0.9510 -0.9057  1.0968
  156MOL0     H20554  -0.346   3.969   5.806 -0.4090  0.7354  2.2493
  156MOL0     H20555  -0.511   4.119   5.866 -0.3003 -3.3617 -1.4097
  156MOL0     H20556  -0.622   4.595   5.931 -0.9926  1.6900 -1.3548
  156MOL0     H20557  -0.802   4.738   6.001 -1.1264 -1.2034  1.8604
  156MOL0     H20558  -1.008   4.843   6.074  1.1573 -0.4918  1.1261
  156MOL0     H20559  -1.001   4.685   6.155 -2.3959 -0.5166  1.5064
  156MOL0     H20560  -1.258   4.849   6.105  0.7583 -0.4540 -0.4847
  156MOL0     H20561  -1.196   4.780   6.256  2.0956  0.9955 -0.3360
  156MOL0     H20562  -1.252   4.562   6.183  1.3913  1.4154  0.9530
  156MOL0     H20563  -1.291   4.618   6.019 -0.7769 -0.7471 -0.5042
  156MOL0     H20564  -1.420   4.728   6.279  0.5523  0.2938 -0.9143
  156MOL0     H20565  -1.490   4.747   6.120  0.5627  4.2996  2.5346
  156MOL0     H20566  -1.513   4.474   6.255 -1.3568 -0.6744 -1.7066
  156MOL0     H20567  -1.501   4.503   6.087  0.4932  0.8220 -0.8823
  156MOL0     H20568  -1.734   4.499   6.152 -1.5184 -0.2187  0.5317
  156MOL0     H20569  -1.692   4.659   6.095  2.9789 -1.0436 -0.9864
  156MOL0     H20570  -1.732   4.554   6.366 -0.7129 -2.2080 -2.8164
  156MOL0     H20571  -1.674   4.725   6.341 -2.9981  1.9627 -1.2412
  156MOL0     H20572  -1.877   4.798   6.255  1.5728 -0.7417 -1.2600
  156MOL0     H20573  -1.912   4.710   6.400  1.0063  0.4522  0.0955
  156MOL0     H20574  -1.081   4.413   5.900  0.4960 -0.6600  0.9714
  156MOL0     H20575  -0.892   4.283   5.826  1.5507  0.3924 -1.5202
  156MOL0     H20576  -0.339   4.414   5.574 -0.7366  1.6377  2.0999
  156MOL0     H20577  -0.171   4.258   5.537 -1.1438  0.2499 -1.6264
  156MOL0     H20578   1.141   3.282   4.748  0.1691 -0.2556  0.0833
  156MOL0     H20579   1.374   3.239   4.708  1.2826 -2.8121 -0.7904
  156MOL0     H20580   1.695   3.172   4.363 -2.2797  0.0259  0.1366
  156MOL0     H20581   1.949   3.144   4.343  0.8020 -1.5779  0.3755
  156MOL0     H20582   2.221   3.100   4.433 -2.8006  1.2537 -1.4028
  156MOL0     H20583   2.143   3.055   4.281  4.3021 -1.7486 -2.9585
  156MOL0     H20584   2.280   2.837   4.310  0.5510 -0.7889  1.0873
  156MOL0     H20585   2.377   2.978   4.275  0.0782 -3.3018 -2.8199
  156MOL0     H20586   2.334   2.873   4.562  0.3405 -1.8790 -0.4621
  156MOL0     H20587   2.425   3.013   4.519 -0.1192 -0.1716 -0.7125
  156MOL0     H20588   2.566   2.819   4.548 -2.0688  0.9217  0.9159
  156MOL0     H20589   2.479   2.737   4.417 -1.9837  0.1461  2.1650
  156MOL0     H20590   2.754   3.013   4.218 -0.1130  3.0855  2.0789
  156MOL0     H20591   1.949   2.827   4.611 -1.0092 -0.7033  0.0601
  156MOL0     H20592   1.712   2.839   4.658  3.4412  0.0006  3.3999
  157MOL0     O20593   4.802   4.855   3.433  0.6543 -0.1984 -0.3762
  157MOL0     C20594   4.883   4.775   3.373 -0.0641 -0.6789  0.1610
  157MOL0     O20595   4.843   4.664   3.316  0.1119 -0.0076  0.2217
  157MOL0     C20596   4.705   4.640   3.326 -0.2509  0.9674  0.7998
  157MOL0     C20597   4.607   4.718   3.259  1.1130 -0.5677 -0.5182
  157MOL0     C20598   4.472   4.691   3.267 -0.4269 -0.0307  0.4157
  157MOL0     C20599   4.434   4.571   3.321  0.5751  0.5414 -0.0570
  157MOL0     O20600   4.301   4.546   3.326 -0.3269 -0.3388 -0.2727
  157MOL0     C20601   4.250   4.531   3.460  0.3575 -0.2215  0.6826
  157MOL0     C20602   4.091   4.502   3.446 -0.2794  0.2539 -0.2751
  157MOL0     C20603   4.056   4.409   3.332 -1.1461  1.2174 -0.3519
  157MOL0     C20604   3.916   4.346   3.352 -0.1061 -0.3727  0.3357
  157MOL0     C20605   3.813   4.443   3.288 -0.5331  0.6093  0.0681
  157MOL0     C20606   3.676   4.372   3.290  0.2953  0.0025  0.4796
  157MOL0     C20607   3.555   4.460   3.256 -0.1026 -0.3032 -0.2844
  157MOL0     C20608   3.416   4.380   3.263 -0.4155  0.2212  0.2043
  157MOL0     N20609   3.378   4.339   3.402  0.2475 -0.0268  0.1959
  157MOL0     C20610   3.346   4.421   3.510 -1.0937  0.7239  0.0003
  157MOL0     C20611   3.274   4.339   3.597 -0.5185 -0.3335 -0.6423
  157MOL0     C20612   3.204   4.383   3.726  0.0100  0.4577  0.7702
  157MOL0     C20613   3.058   4.378   3.713 -0.3196  0.6496  0.4628
  157MOL0     C20614   3.011   4.452   3.581  0.3142 -0.0062  0.0953
  157MOL0     C20615   2.865   4.482   3.573  0.1996 -1.3872 -0.1865
  157MOL0     O20616   2.788   4.362   3.594 -0.3697 -0.0245 -0.3173
  157MOL0     C20617   2.649   4.364   3.580  0.0054  0.0316  0.0021
  157MOL0     C20618   2.570   4.259   3.627  0.1756  0.7958 -0.9540
  157MOL0     C20619   2.431   4.275   3.656  0.2159 -0.5567  0.0412
  157MOL0     C20620   2.369   4.393   3.621 -0.3114  0.4103  0.3550
  157MOL0     C20621   2.232   4.422   3.671 -1.4722  0.4716  0.1722
  157MOL0     O20622   2.161   4.321   3.731  0.4931 -0.1907  0.2140
  157MOL0     C20623   2.024   4.334   3.738  0.3752  0.2687 -0.2926
  157MOL0     C20624   1.937   4.379   3.633  0.4348  0.4756 -0.7397
  157MOL0     C20625   1.798   4.382   3.655  0.0357  0.1684 -0.1259
  157MOL0     C20626   1.743   4.313   3.768 -0.1373  0.0604 -0.1811
  157MOL0     O20627   1.606   4.296   3.786 -0.3076  0.2097 -0.1252
  157MOL0     C20628   1.546   4.238   3.671  0.5321  0.2698  0.5482
  157MOL0     C20629   1.403   4.200   3.694  0.1581  0.1824 -0.9135
  157MOL0     C20630   1.380   4.131   3.832  0.0249  0.0250  0.9811
  157MOL0     C20631   1.229   4.101   3.838  0.3954 -0.4642  0.1062
  157MOL0     C20632   1.178   4.078   3.981  0.1451 -0.0876  0.3007
  157MOL0     C20633   1.027   4.075   3.986  0.2400 -0.1438 -0.5197
  157MOL0     C20634   0.967   4.001   4.111  0.9303  0.1398  0.2918
  157MOL0     C20635   0.958   3.848   4.078 -1.1386 -0.2654 -0.3624
  157MOL0    Cl20636   0.827   3.814   3.965 -0.0363 -0.1331 -0.0586
  157MOL0     C20637   1.832   4.256   3.858  0.6297 -0.3956  0.0042
  157MOL0     C20638   1.965   4.272   3.846  0.1668 -0.8295 -1.2587
  157MOL0     O20639   2.188   4.536   3.639 -0.2640  0.2462  0.6904
  157MOL0     C20640   2.443   4.494   3.557  0.6337  0.1808  0.7066
  157MOL0     C20641   2.579   4.481   3.541  0.4722  0.0369  0.1556
  157MOL0     N20642   3.268   4.213   3.528  0.2249 -0.0955  0.3332
  157MOL0     N20643   3.335   4.211   3.415 -0.6606 -0.2476 -0.4357
  157MOL0     C20644   4.529   4.488   3.387 -0.1458  0.7092 -0.1265
  157MOL0     C20645   4.666   4.526   3.389  0.5617  0.8612 -0.1425
  157MOL0     C20646   5.023   4.812   3.368  0.4005 -0.3198  0.2548
  157MOL0     C20647   5.114   4.743   3.279  0.7763 -0.3202 -0.4260
  157MOL0     C20648   5.252   4.786   3.271  0.3971  0.3965 -0.4608
  157MOL0     C20649   5.295   4.894   3.351  0.1446 -0.7390  0.2295
  157MOL0     O20650   5.434   4.922   3.340  0.0840  0.0673 -0.5698
  157MOL0     C20651   5.466   5.044   3.409 -0.8055  0.1249 -0.1243
  157MOL0     C20652   5.600   5.100   3.363 -0.5355 -0.1824 -0.2412
  157MOL0     C20653   5.707   4.997   3.359  0.4205 -0.1021 -0.2251
  157MOL0     C20654   5.725   4.924   3.501 -0.5940  0.1702 -0.0538
  157MOL0     C20655   5.713   5.001   3.629  0.0689 -0.2792  0.8386
  157MOL0     C20656   5.697   5.061   3.731 -0.3925 -0.7081 -0.5202
  157MOL0     C20657   5.211   4.952   3.444 -0.1019  0.3029 -0.6692
  157MOL0     C20658   5.072   4.919   3.446 -0.0472 -0.4268 -0.7764
  157MOL0     H20659   4.643   4.801   3.199 -0.1560  0.5926  0.2966
  157MOL0     H20660   4.398   4.756   3.223 -2.0292 -1.3335  1.0780
  157MOL0     H20661   4.267   4.624   3.516  2.9236 -0.1044 -0.1661
  157MOL0     H20662   4.298   4.444   3.506 -0.6729 -1.9230 -1.3143
  157MOL0     H20663   4.039   4.597   3.433 -1.8480 -0.4756  0.3418
  157MOL0     H20664   4.054   4.463   3.542  0.3868  3.1960  1.2878
  157MOL0     H20665   4.133   4.332   3.332 -0.3808  1.9453 -1.5766
  157MOL0     H20666   4.066   4.456   3.234  2.1312 -1.9964 -1.7592
  157MOL0     H20667   3.927   4.259   3.287 -0.0446 -0.5218  0.5456
  157MOL0     H20668   3.893   4.315   3.454  1.0088  0.9892  1.0324
  157MOL0     H20669   3.844   4.467   3.186 -0.0894  1.5345  0.4111
  157MOL0     H20670   3.811   4.532   3.351  0.3386  1.0687 -0.5318
  157MOL0     H20671   3.672   4.339   3.394  3.3088 -1.1132  0.3526
  157MOL0     H20672   3.670   4.280   3.230 -2.5141  0.2618  0.2310
  157MOL0     H20673   3.552   4.537   3.334 -1.8527 -1.0359  0.4323
  157MOL0     H20674   3.565   4.508   3.158  0.3266 -1.0837 -0.6241
  157MOL0     H20675   3.413   4.292   3.198  0.1205  0.7752 -0.6004
  157MOL0     H20676   3.342   4.446   3.216  1.1805  0.4092 -2.2549
  157MOL0     H20677   3.371   4.526   3.520  0.4275  0.3050  1.0127
  157MOL0     H20678   3.227   4.489   3.738 -0.6769  0.8550 -1.0893
  157MOL0     H20679   3.229   4.314   3.807 -4.1735 -1.2915  0.8203
  157MOL0     H20680   3.014   4.428   3.800 -2.3300 -1.8232  0.9962
  157MOL0     H20681   3.020   4.276   3.719 -1.0592  0.8502 -0.4926
  157MOL0     H20682   3.064   4.547   3.566 -0.8124  0.2741 -2.8120
  157MOL0     H20683   3.026   4.393   3.491 -1.1207 -2.8998  1.6234
  157MOL0     H20684   2.848   4.518   3.472 -0.7017 -0.2972  0.3337
  157MOL0     H20685   2.826   4.560   3.639  0.5533 -1.5061  0.1668
  157MOL0     H20686   2.626   4.169   3.653  1.4125  1.8413  0.1269
  157MOL0     H20687   2.373   4.198   3.707  0.3995 -0.6648  0.0894
  157MOL0     H20688   1.987   4.415   3.544  0.1088  0.4780 -0.9249
  157MOL0     H20689   1.733   4.420   3.576  0.7266 -1.3091 -1.4627
  157MOL0     H20690   1.603   4.152   3.634  1.2754  1.8580 -2.3375
  157MOL0     H20691   1.538   4.309   3.588 -3.7098 -1.1884 -0.5628
  157MOL0     H20692   1.371   4.134   3.613 -0.2813 -0.3508 -0.3146
  157MOL0     H20693   1.344   4.291   3.694  0.6601  0.5665  1.2212
  157MOL0     H20694   1.415   4.208   3.901  1.0004 -0.0112  0.5389
  157MOL0     H20695   1.442   4.041   3.841  2.0099  0.9896 -1.6717
  157MOL0     H20696   1.171   4.183   3.795 -0.4299 -0.0868  1.8285
  157MOL0     H20697   1.214   4.005   3.787 -2.8036 -1.3539  2.3453
  157MOL0     H20698   1.202   4.161   4.049 -1.4707  0.0200  0.7723
  157MOL0     H20699   1.218   3.986   4.025 -0.4436 -1.0725 -1.1657
  157MOL0     H20700   0.993   4.030   3.892  0.0719 -0.9236 -0.0997
  157MOL0     H20701   0.979   4.172   3.980 -0.3022 -0.4569 -1.4017
  157MOL0     H20702   1.022   4.020   4.204  0.4002 -0.3834  0.7221
  157MOL0     H20703   0.862   4.028   4.126  0.1824 -2.4798  0.2380
  157MOL0     H20704   0.938   3.791   4.169 -0.2894  2.7003  1.8327
  157MOL0     H20705   1.056   3.817   4.040 -1.0639  0.2306 -0.5808
  157MOL0     H20706   1.802   4.186   3.936  1.0506  0.4153  0.9279
  157MOL0     H20707   2.037   4.226   3.913  0.1808  0.3606 -0.4039
  157MOL0     H20708   2.386   4.575   3.513 -3.0679 -2.2943  0.4853
  157MOL0     H20709   2.635   4.560   3.492 -2.3262  0.6209 -2.4295
  157MOL0     H20710   4.500   4.393   3.429 -0.5198  0.1996 -1.4742
  157MOL0     H20711   4.741   4.465   3.438 -0.3562 -0.3211 -0.1623
  157MOL0     H20712   5.081   4.666   3.211 -0.1557  0.2915 -0.6931
  157MOL0     H20713   5.325   4.738   3.207 -0.3728  0.1439 -1.1624
  157MOL0     H20714   5.466   5.025   3.516  3.4123  3.4296  0.7416
  157MOL0     H20715   5.394   5.126   3.403 -1.6730 -0.6296 -0.1157
  157MOL0     H20716   5.593   5.144   3.263  1.2421  0.0835 -0.2740
  157MOL0     H20717   5.626   5.173   3.440  2.5012  0.7176 -1.9957
  157MOL0     H20718   5.803   5.035   3.324  0.7629 -1.3592 -0.6897
  157MOL0     H20719   5.671   4.931   3.280 -1.7904  1.6939 -0.8306
  157MOL0     H20720   5.652   4.842   3.498 -0.7214  0.2901 -0.2123
  157MOL0     H20721   5.823   4.874   3.500  0.4613  2.0619  1.4936
  157MOL0     H20722   5.674   5.110   3.824  0.9416 -2.7006  0.9471
  157MOL0     H20723   5.253   5.017   3.521  0.2017  0.7405 -1.2003
  157MOL0     H20724   5.007   4.985   3.501 -0.6157 -0.0309 -1.8907
  158MOL0     O20725   2.163   4.856  10.925  0.4144  0.4027  0.6440
  158MOL0     C20726   2.178   4.966  10.887 -0.2479 -0.4792  0.3098
  158MOL0     O20727   2.101   5.026  10.811  0.7544  0.1990 -0.1389
  158MOL0     C20728   1.977   4.971  10.776 -1.0061 -1.4545 -1.2076
  158MOL0     C20729   1.938   4.958  10.645  0.6918 -0.2599 -0.1604
  158MOL0     C20730   1.811   4.904  10.623  0.1374 -0.2032  0.1666
  158MOL0     C20731   1.723   4.867  10.724  0.3866 -0.1126 -0.0363
  158MOL0     O20732   1.596   4.821  10.710 -0.2081  0.1840  0.0564
  158MOL0     C20733   1.572   4.734  10.587 -0.7255  0.5686 -0.0518
  158MOL0     C20734   1.442   4.661  10.624 -1.0192 -0.2760  0.0351
  158MOL0     C20735   1.395   4.580  10.492  1.3566 -0.4196  0.3946
  158MOL0     C20736   1.281   4.484  10.541  0.0378 -0.8657 -0.3182
  158MOL0     C20737   1.229   4.392  10.437  0.1834  0.2360  0.1061
  158MOL0     C20738   1.180   4.480  10.320 -0.1450  0.1558 -0.0167
  158MOL0     C20739   1.098   4.393  10.231  0.1913  0.4774  0.3798
  158MOL0     C20740   1.035   4.492  10.133 -0.7284  0.1182  0.3596
  158MOL0     N20741   0.973   4.432  10.010 -0.5784 -0.4327  0.7812
  158MOL0     C20742   0.879   4.337  10.017  0.5261  0.0447 -0.3117
  158MOL0     C20743   0.875   4.284   9.893  0.2910 -0.6139  0.2371
  158MOL0     C20744   0.802   4.156   9.861  0.3061 -0.4521  0.6267
  158MOL0     C20745   0.646   4.172   9.880  0.2731  0.6011 -0.1949
  158MOL0     C20746   0.577   4.274   9.788  0.2948  0.3960  0.4743
  158MOL0     C20747   0.427   4.272   9.809 -0.3347  0.2374  0.6910
  158MOL0     O20748   0.393   4.300   9.946  0.3266  0.3408  0.6404
  158MOL0     C20749   0.259   4.310   9.951  0.0538  0.2832 -0.4221
  158MOL0     C20750   0.184   4.206  10.009  0.1238  0.1696  0.6381
  158MOL0     C20751   0.048   4.233  10.048  0.1101 -0.4091  0.2335
  158MOL0     C20752  -0.023   4.344  10.014 -0.5447 -0.9563  0.0129
  158MOL0     C20753  -0.167   4.360  10.042 -0.1731 -1.1251 -0.2895
  158MOL0     O20754  -0.227   4.468   9.984 -0.2506  0.0164  0.2580
  158MOL0     C20755  -0.363   4.484   9.970  0.8194 -0.7283 -0.1071
  158MOL0     C20756  -0.408   4.608   9.920  0.1716 -0.2330 -0.5178
  158MOL0     C20757  -0.548   4.632   9.895 -0.3194  0.1093 -0.1688
  158MOL0     C20758  -0.647   4.536   9.913 -0.0408  0.4780 -0.6239
  158MOL0     O20759  -0.781   4.553   9.909  0.1065 -0.0121 -0.5247
  158MOL0     C20760  -0.840   4.587   9.786  0.5304  0.1615  0.2442
  158MOL0     C20761  -0.982   4.630   9.803  0.1508  0.4067  0.4233
  158MOL0     C20762  -1.000   4.773   9.845 -0.0645  0.6282 -0.1822
  158MOL0     C20763  -1.138   4.825   9.904 -0.6033  0.0465 -0.0342
  158MOL0     C20764  -1.238   4.873   9.799 -0.7209 -0.4372 -0.1141
  158MOL0     C20765  -1.379   4.873   9.860  0.0815 -0.3185  0.7849
  158MOL0     C20766  -1.468   4.962   9.775 -0.1285  0.2577 -0.5724
  158MOL0     C20767  -1.613   4.989   9.836 -0.1270 -0.6296  0.6076
  158MOL0    Cl20768  -1.706   4.835   9.844  0.0626  0.3996 -0.0177
  158MOL0     C20769  -0.604   4.412   9.968 -0.0521 -0.5103 -0.8321
  158MOL0     C20770  -0.462   4.384   9.997 -0.4558  0.6864  0.2512
  158MOL0     O20771  -0.213   4.282  10.122  0.2977  0.0584  0.6323
  158MOL0     C20772   0.052   4.446   9.940  0.4084  0.7635 -0.6912
  158MOL0     C20773   0.188   4.425   9.913 -0.5461 -0.7608  0.3777
  158MOL0     N20774   0.970   4.362   9.819 -0.6031  0.0337 -0.1481
  158MOL0     N20775   1.019   4.452   9.889 -1.1915  0.3017  0.1991
  158MOL0     C20776   1.765   4.891  10.858 -0.3341 -0.2343 -0.0157
  158MOL0     C20777   1.878   4.962  10.883 -0.7495  0.4492 -0.0716
  158MOL0     C20778   2.307   5.044  10.913  0.4575  0.5573  0.2354
  158MOL0     C20779   2.426   4.973  10.954 -0.7693 -0.7596  0.6714
  158MOL0     C20780   2.543   5.046  10.986  0.0954 -0.4730 -0.9147
  158MOL0     C20781   2.544   5.189  10.963 -0.5754 -0.4714  0.4377
  158MOL0     O20782   2.654   5.268  10.998 -0.2056  0.1194  0.1288
  158MOL0     C20783   2.779   5.198  11.022  0.1542  0.3472 -0.7579
  158MOL0     C20784   2.839   5.138  10.906  0.1933  0.2623  0.3368
  158MOL0     C20785   2.900   5.244  10.816 -0.3347  0.7822  0.4356
  158MOL0     C20786   2.972   5.184  10.693 -0.4489  0.3499  0.2045
  158MOL0     C20787   2.873   5.105  10.615 -0.2018  0.1887  0.6691
  158MOL0     C20788   2.784   5.050  10.558  0.5661 -0.7833  0.1932
  158MOL0     C20789   2.431   5.256  10.919  0.2844 -0.2866 -0.0845
  158MOL0     C20790   2.321   5.177  10.887 -0.0105  0.1609  0.2492
  158MOL0     H20791   2.010   4.979  10.566  2.0867 -2.3162  0.4811
  158MOL0     H20792   1.788   4.901  10.517 -2.7066  2.2095  0.5865
  158MOL0     H20793   1.648   4.656  10.591  0.3595  1.5222 -1.2501
  158MOL0     H20794   1.571   4.786  10.491  1.1515 -1.4651 -1.2476
  158MOL0     H20795   1.367   4.737  10.650  1.4796  2.0663  0.8469
  158MOL0     H20796   1.456   4.603  10.716 -2.4069  1.2059  1.2552
  158MOL0     H20797   1.483   4.521  10.465  1.1620 -0.0003 -1.2371
  158MOL0     H20798   1.367   4.646  10.409 -0.9941 -2.7985 -0.8220
  158MOL0     H20799   1.316   4.421  10.624 -0.9437 -2.2192 -0.8992
  158MOL0     H20800   1.194   4.539  10.579 -0.4036 -1.6202 -0.2067
  158MOL0     H20801   1.147   4.337  10.483 -0.2679  0.7080 -0.1273
  158MOL0     H20802   1.304   4.317  10.412 -0.3752 -0.8798  1.6698
  158MOL0     H20803   1.270   4.514  10.267  0.5744 -1.9485 -0.2162
  158MOL0     H20804   1.121   4.566  10.351 -0.6779 -0.4329  0.6215
  158MOL0     H20805   1.161   4.323  10.175  0.8706  3.1808 -2.5549
  158MOL0     H20806   1.017   4.346  10.286  1.0338 -0.3147  0.9666
  158MOL0     H20807   1.111   4.565  10.103  0.8122  0.2102  3.9352
  158MOL0     H20808   0.961   4.548  10.190  2.3870  1.4902  3.4340
  158MOL0     H20809   0.838   4.284  10.102 -2.8016  1.7262 -0.6903
  158MOL0     H20810   0.851   4.088   9.931  0.4057 -0.2072  0.7949
  158MOL0     H20811   0.813   4.123   9.757 -2.4087  1.1601 -0.2806
  158MOL0     H20812   0.635   4.196   9.986  1.3467 -0.0781  0.0764
  158MOL0     H20813   0.614   4.070   9.856  0.3283 -0.4868  3.6874
  158MOL0     H20814   0.620   4.373   9.810 -1.1614  0.8349  1.5175
  158MOL0     H20815   0.596   4.259   9.681 -0.4792  1.9701  0.0826
  158MOL0     H20816   0.392   4.176   9.770  0.1112  1.1858 -2.2821
  158MOL0     H20817   0.381   4.348   9.746  0.8026  2.4369  2.3780
  158MOL0     H20818   0.240   4.118  10.041  2.3702  1.6398  0.9974
  158MOL0     H20819  -0.007   4.152  10.096  1.4314 -1.0800  0.6669
  158MOL0     H20820  -0.338   4.689   9.906 -2.0958  2.3379  1.7537
  158MOL0     H20821  -0.578   4.735   9.877 -0.6281 -0.0839 -0.7438
  158MOL0     H20822  -0.842   4.510   9.709 -0.7095  1.3262 -0.9349
  158MOL0     H20823  -0.787   4.670   9.739 -1.9232  2.1200  0.7122
  158MOL0     H20824  -1.030   4.573   9.883  0.0671 -0.2630 -0.0922
  158MOL0     H20825  -1.038   4.621   9.709  0.6550  1.5058  0.0033
  158MOL0     H20826  -0.969   4.847   9.771  2.2978  1.3159  1.3730
  158MOL0     H20827  -0.930   4.788   9.928  0.7158  3.0643 -1.1954
  158MOL0     H20828  -1.185   4.745   9.962 -2.3209  0.1078 -1.2838
  158MOL0     H20829  -1.108   4.911   9.965  3.5906 -0.2163 -1.3616
  158MOL0     H20830  -1.229   4.804   9.715  0.2525 -3.7532  2.5155
  158MOL0     H20831  -1.224   4.977   9.767 -2.3357  1.0733  3.5283
  158MOL0     H20832  -1.373   4.903   9.965  1.3296  0.4294  0.5243
  158MOL0     H20833  -1.419   4.772   9.871 -0.6447 -0.2221 -0.6909
  158MOL0     H20834  -1.425   5.062   9.759 -1.4230  0.8156 -0.7101
  158MOL0     H20835  -1.490   4.916   9.678 -1.3931  1.6010 -0.9615
  158MOL0     H20836  -1.669   5.060   9.774 -0.6608 -2.6921 -1.4182
  158MOL0     H20837  -1.617   5.034   9.935  0.3070 -1.8419  1.1951
  158MOL0     H20838  -0.685   4.343   9.990 -0.4123  0.5210  1.2440
  158MOL0     H20839  -0.419   4.292  10.036  1.8766  0.4933 -2.4488
  158MOL0     H20840   0.002   4.533   9.899  2.0544  0.9746 -2.3966
  158MOL0     H20841   0.258   4.496   9.869 -0.1421 -0.6920  1.1070
  158MOL0     H20842   1.702   4.856  10.938  1.9326 -1.4272  1.3624
  158MOL0     H20843   1.914   5.006  10.975 -1.1736  3.0401 -1.0636
  158MOL0     H20844   2.419   4.866  10.973  2.3332 -1.2406 -0.2831
  158MOL0     H20845   2.634   4.991  11.009  1.0762  1.4595  0.0982
  158MOL0     H20846   2.766   5.122  11.099  0.3796 -0.3832 -1.4335
  158MOL0     H20847   2.853   5.260  11.074 -0.4623 -1.0190  1.9112
  158MOL0     H20848   2.920   5.071  10.938  0.7184  0.8500  0.2472
  158MOL0     H20849   2.762   5.078  10.856  0.4342 -1.6416  2.1145
  158MOL0     H20850   2.971   5.302  10.875  1.2271  0.5866 -1.1614
  158MOL0     H20851   2.843   5.328  10.775  1.6329  1.1184 -1.8555
  158MOL0     H20852   3.017   5.255  10.623 -0.9000 -1.2061 -1.7561
  158MOL0     H20853   3.056   5.125  10.733 -0.7970 -2.4620 -2.8608
  158MOL0     H20854   2.703   5.020  10.495  1.2708  0.8130 -1.5673
  158MOL0     H20855   2.445   5.363  10.903  2.1815 -0.4165  0.4216
  158MOL0     H20856   2.229   5.229  10.863 -0.8515 -0.4441  2.0155
  159MOL0     O20857   7.940   2.956   3.980  0.6642 -0.6246 -0.2798
  159MOL0     C20858   7.974   2.839   4.012 -0.9948  0.4825  0.3200
  159MOL0     O20859   7.914   2.753   4.093  0.1453 -0.1833 -0.5259
  159MOL0     C20860   7.779   2.775   4.119 -0.3690  0.4223 -0.0048
  159MOL0     C20861   7.749   2.881   4.204  0.6470 -0.5686 -0.1796
  159MOL0     C20862   7.615   2.903   4.239  0.4757  0.4684  0.3129
  159MOL0     C20863   7.508   2.821   4.194 -0.2108 -0.9977 -1.4254
  159MOL0     O20864   7.372   2.830   4.239 -0.0154  0.0237  0.3905
  159MOL0     C20865   7.343   2.929   4.333 -1.2257 -0.4092 -0.2257
  159MOL0     C20866   7.195   2.938   4.359  0.9262  0.4744 -0.0498
  159MOL0     C20867   7.105   2.921   4.233 -0.2773  0.1858 -0.0936
  159MOL0     C20868   6.955   2.924   4.278 -0.4308  0.0004 -0.0125
  159MOL0     C20869   6.865   2.882   4.160  0.3563  0.2921 -0.4801
  159MOL0     C20870   6.719   2.881   4.192  0.2647  0.2289  0.9075
  159MOL0     C20871   6.621   2.847   4.071  0.2612  0.3705 -0.8919
  159MOL0     C20872   6.479   2.839   4.115  0.7872  0.2993 -0.1400
  159MOL0     N20873   6.406   2.876   3.993  0.2525  0.2713 -0.1867
  159MOL0     C20874   6.341   2.998   3.976 -0.0371  0.4459  0.8942
  159MOL0     C20875   6.263   2.980   3.862  0.0775 -0.0193  0.2325
  159MOL0     C20876   6.189   3.096   3.800 -0.0677 -0.2119  0.7005
  159MOL0     C20877   6.078   3.035   3.710 -0.7003 -0.2688  0.2286
  159MOL0     C20878   5.987   3.135   3.651  0.3594  0.6434  0.3816
  159MOL0     C20879   5.879   3.079   3.551 -0.3294  0.4405 -0.6941
  159MOL0     O20880   5.794   2.976   3.602  0.1250  0.0044 -0.2803
  159MOL0     C20881   5.688   2.934   3.524  0.7272 -1.5846  0.0050
  159MOL0     C20882   5.638   2.993   3.409  0.1529  0.1234 -0.2878
  159MOL0     C20883   5.544   2.937   3.322  0.9054  0.3303 -0.2900
  159MOL0     C20884   5.472   2.823   3.366  0.5278 -0.9228 -0.4475
  159MOL0     C20885   5.357   2.778   3.292  1.1111 -0.3169 -0.6531
  159MOL0     O20886   5.319   2.832   3.172  0.2129 -0.1665  0.8429
  159MOL0     C20887   5.227   2.762   3.099 -0.5782  0.3154 -0.0968
  159MOL0     C20888   5.097   2.742   3.134  0.3441 -0.2215 -0.2188
  159MOL0     C20889   5.018   2.645   3.068  0.2499 -0.0216  0.1862
  159MOL0     C20890   5.077   2.568   2.963  0.9530  0.3616 -1.0295
  159MOL0     O20891   4.982   2.476   2.916 -0.0644  0.4030 -0.7739
  159MOL0     C20892   5.036   2.377   2.830  0.0323 -0.5083 -0.4541
  159MOL0     C20893   4.916   2.296   2.773 -0.2468 -0.5588  0.2008
  159MOL0     C20894   4.955   2.165   2.692 -0.5111 -0.2394 -0.2934
  159MOL0     C20895   4.838   2.088   2.635 -0.6422 -0.5074 -0.4049
  159MOL0     C20896   4.892   1.968   2.559 -0.2201  0.6497 -0.9494
  159MOL0     C20897   4.965   1.995   2.428 -0.1801 -0.0982  0.5937
  159MOL0     C20898   4.962   1.872   2.340  0.8041 -0.4246  0.3686
  159MOL0     C20899   5.047   1.882   2.211 -0.3630 -0.2775  0.0296
  159MOL0    Cl20900   5.224   1.883   2.257 -0.4697 -0.2028  0.7224
  159MOL0     C20901   5.207   2.591   2.924  0.7142  0.0257  0.3672
  159MOL0     C20902   5.286   2.694   2.993 -0.0224  0.0946  0.5039
  159MOL0     O20903   5.294   2.690   3.347 -0.0220 -0.0290 -0.1868
  159MOL0     C20904   5.520   2.764   3.483  1.5292 -0.0708  0.2994
  159MOL0     C20905   5.628   2.815   3.558  0.2263 -0.2266 -0.0476
  159MOL0     N20906   6.276   2.852   3.818  0.4359 -1.4127 -0.6572
  159MOL0     N20907   6.374   2.798   3.889 -0.5131 -0.5391 -0.4309
  159MOL0     C20908   7.542   2.716   4.105  0.1527  0.2949  0.3866
  159MOL0     C20909   7.682   2.692   4.065  0.3950  0.6469 -0.6436
  159MOL0     C20910   8.117   2.804   3.975 -0.5006 -0.9263  0.2883
  159MOL0     C20911   8.168   2.863   3.857  0.1129  1.0220 -0.1390
  159MOL0     C20912   8.288   2.826   3.810 -0.0709  0.4433 -0.1673
  159MOL0     C20913   8.371   2.734   3.887  0.3270 -0.5029  0.7087
  159MOL0     O20914   8.494   2.687   3.850 -1.0131 -0.0162 -0.1344
  159MOL0     C20915   8.532   2.690   3.708 -1.0257 -0.5890 -0.3871
  159MOL0     C20916   8.658   2.612   3.706 -0.3339 -0.4816 -0.0045
  159MOL0     C20917   8.696   2.595   3.565  0.1553 -0.9150 -0.1084
  159MOL0     C20918   8.823   2.508   3.551  0.3962 -0.5320  0.1595
  159MOL0     C20919   8.941   2.591   3.586 -0.5967 -0.1285  0.0233
  159MOL0     C20920   9.045   2.650   3.625 -0.5989 -0.5287  0.1050
  159MOL0     C20921   8.334   2.698   4.014  0.9531  0.3377 -0.1722
  159MOL0     C20922   8.200   2.717   4.057 -0.6042 -0.7493  0.9177
  159MOL0     H20923   7.831   2.936   4.249  1.8197 -2.7625  0.5110
  159MOL0     H20924   7.598   2.993   4.298  3.4527  2.1611 -1.1455
  159MOL0     H20925   7.376   3.027   4.297 -0.7343 -0.1915  0.7890
  159MOL0     H20926   7.382   2.903   4.432 -0.6228  1.3849  0.0465
  159MOL0     H20927   7.171   3.037   4.400 -2.6341  0.2135 -1.1440
  159MOL0     H20928   7.176   2.868   4.440  0.7556  0.8106  0.2041
  159MOL0     H20929   7.135   2.829   4.183 -0.0330  0.0208  0.3472
  159MOL0     H20930   7.110   3.007   4.166 -1.7321 -0.3230 -0.9059
  159MOL0     H20931   6.940   2.852   4.360  0.2025 -1.2833 -0.9825
  159MOL0     H20932   6.932   3.024   4.314  0.7525  0.3843 -0.2877
  159MOL0     H20933   6.894   2.783   4.125  0.0271  0.3807 -1.0214
  159MOL0     H20934   6.876   2.957   4.080 -1.3730  3.7180  2.1911
  159MOL0     H20935   6.685   2.977   4.233 -0.6131  0.3262 -0.0053
  159MOL0     H20936   6.710   2.807   4.271  0.8810  0.9114  1.6370
  159MOL0     H20937   6.626   2.928   3.997 -0.3503  0.4646 -0.8348
  159MOL0     H20938   6.654   2.754   4.023  2.2277  0.0870  0.8545
  159MOL0     H20939   6.448   2.900   4.201 -3.0035 -0.0854 -1.0857
  159MOL0     H20940   6.453   2.736   4.141  1.1161 -0.1306 -1.4257
  159MOL0     H20941   6.339   3.089   4.035 -2.8366  2.2853 -1.7320
  159MOL0     H20942   6.267   3.151   3.747 -0.3172 -2.7328 -2.6278
  159MOL0     H20943   6.146   3.147   3.887 -1.3220 -0.3894  0.2089
  159MOL0     H20944   6.027   2.950   3.756  0.8479 -1.6666 -0.5137
  159MOL0     H20945   6.134   2.984   3.631 -0.7628  0.5477 -0.3571
  159MOL0     H20946   5.937   3.198   3.726  1.9352  1.0943  1.1035
  159MOL0     H20947   6.041   3.207   3.589 -1.4146  0.8349 -1.0244
  159MOL0     H20948   5.925   3.031   3.464 -1.1087 -0.8152 -0.4405
  159MOL0     H20949   5.829   3.169   3.513 -0.7141  0.0805 -1.0504
  159MOL0     H20950   5.681   3.089   3.380 -0.1887 -0.3624 -2.5991
  159MOL0     H20951   5.517   2.981   3.227 -1.7715 -1.8120 -0.6678
  159MOL0     H20952   5.052   2.806   3.210  0.7098 -0.8823  0.5706
  159MOL0     H20953   4.915   2.626   3.095 -0.4969  1.1751 -1.6334
  159MOL0     H20954   5.105   2.311   2.883  0.4107  0.9201  0.9244
  159MOL0     H20955   5.092   2.424   2.749 -0.3312  0.0793 -0.3720
  159MOL0     H20956   4.865   2.359   2.699  0.8413  0.8666  0.6182
  159MOL0     H20957   4.849   2.278   2.857 -0.6006  0.3754  0.1328
  159MOL0     H20958   5.015   2.107   2.762 -1.3299  1.4089  1.9017
  159MOL0     H20959   5.023   2.186   2.609 -2.7246  1.5885 -1.7950
  159MOL0     H20960   4.778   2.058   2.721  2.4552  3.2053  3.4703
  159MOL0     H20961   4.778   2.158   2.577 -1.4700  0.8660  2.0070
  159MOL0     H20962   4.809   1.898   2.544  1.4933 -2.0763  1.2964
  159MOL0     H20963   4.962   1.904   2.613 -1.5324 -2.1899 -2.3760
  159MOL0     H20964   5.070   2.025   2.435  0.5150 -2.5679  3.0208
  159MOL0     H20965   4.905   2.076   2.387  0.7186  0.5288  0.5002
  159MOL0     H20966   5.011   1.790   2.392  0.6324 -1.0788 -0.4832
  159MOL0     H20967   4.859   1.850   2.310 -0.1180  2.6750  0.8598
  159MOL0     H20968   5.032   1.957   2.133  2.5019 -0.0253 -0.3819
  159MOL0     H20969   5.031   1.789   2.156 -1.5946 -1.0891  1.6627
  159MOL0     H20970   5.244   2.531   2.841 -0.7403  1.3431 -1.3258
  159MOL0     H20971   5.392   2.702   2.972  0.4310 -3.4930  0.7919
  159MOL0     H20972   5.474   2.671   3.517 -2.0596  0.9205 -1.4014
  159MOL0     H20973   5.666   2.764   3.646  1.3855 -2.0578 -1.5499
  159MOL0     H20974   7.469   2.655   4.054 -0.8894  2.7049 -1.2175
  159MOL0     H20975   7.705   2.604   4.005 -3.6298  0.0944 -1.6603
  159MOL0     H20976   8.107   2.926   3.793 -0.0654 -0.5650 -1.6133
  159MOL0     H20977   8.334   2.867   3.720  1.2488 -2.0182 -0.6942
  159MOL0     H20978   8.543   2.796   3.682 -0.1574 -0.3732  0.8167
  159MOL0     H20979   8.458   2.644   3.642  0.1508 -1.3837 -1.1930
  159MOL0     H20980   8.732   2.673   3.759 -3.3043 -0.2612  4.5356
  159MOL0     H20981   8.641   2.523   3.767 -2.0806 -0.5354 -0.5108
  159MOL0     H20982   8.711   2.691   3.515  1.6769 -0.3961  1.2432
  159MOL0     H20983   8.613   2.549   3.511 -2.0813  0.5808  1.8395
  159MOL0     H20984   8.823   2.420   3.616  4.2923  0.6105  2.0244
  159MOL0     H20985   8.828   2.477   3.446  0.2727 -2.0417  0.5708
  159MOL0     H20986   9.116   2.724   3.654 -1.6678  0.6385 -0.1465
  159MOL0     H20987   8.405   2.642   4.073 -0.3639 -2.0948 -0.7564
  159MOL0     H20988   8.172   2.671   4.151  2.9666 -3.0282  1.0461
  160MOL0     O20989   8.295   3.255   3.053 -0.7658  0.0193  0.2020
  160MOL0     C20990   8.368   3.333   2.996 -0.2928  0.4239 -0.6365
  160MOL0     O20991   8.328   3.419   2.896  0.0704 -0.5327 -0.4730
  160MOL0     C20992   8.191   3.448   2.882 -0.1674  0.2646 -0.9091
  160MOL0     C20993   8.095   3.434   2.982 -0.7694 -0.4826 -0.3868
  160MOL0     C20994   7.965   3.482   2.944 -0.1346 -0.8991  0.0427
  160MOL0     C20995   7.924   3.524   2.816  0.2081  0.5641  1.0377
  160MOL0     O20996   7.797   3.560   2.773  0.1805  0.5659  0.2007
  160MOL0     C20997   7.707   3.606   2.877  0.0057 -0.1376  0.0171
  160MOL0     C20998   7.602   3.689   2.815 -0.2590  0.2516 -0.4358
  160MOL0     C20999   7.500   3.720   2.921 -1.0426  0.0454 -0.0018
  160MOL0     C21000   7.386   3.790   2.840  0.3726 -0.1607 -0.0817
  160MOL0     C21001   7.264   3.816   2.922 -0.3455  0.2851  0.5516
  160MOL0     C21002   7.174   3.697   2.949 -0.4575  0.6247 -0.1001
  160MOL0     C21003   7.046   3.740   3.036 -1.0566 -0.0303  0.5406
  160MOL0     C21004   6.947   3.843   2.975  0.3279  0.3839  0.2132
  160MOL0     N21005   6.892   3.787   2.852  0.5410  0.3115 -0.2528
  160MOL0     C21006   6.792   3.693   2.835 -0.3144 -0.0280 -0.3372
  160MOL0     C21007   6.787   3.669   2.701  0.4421  0.2603  0.1672
  160MOL0     C21008   6.698   3.567   2.630 -0.2800 -0.9223  0.3765
  160MOL0     C21009   6.620   3.643   2.520  0.1963 -0.0450  1.0507
  160MOL0     C21010   6.545   3.530   2.455  0.5643  0.2825  0.2515
  160MOL0     C21011   6.429   3.589   2.364  0.0038 -0.3441 -0.7123
  160MOL0     O21012   6.308   3.610   2.441 -0.0689 -0.2242  0.0561
  160MOL0     C21013   6.196   3.668   2.389  0.8063  0.3514 -1.0979
  160MOL0     C21014   6.197   3.733   2.264  0.8383  0.6642  0.4323
  160MOL0     C21015   6.073   3.783   2.215 -0.3041 -0.9794 -0.1732
  160MOL0     C21016   5.947   3.757   2.277 -0.5323 -0.3073 -0.6325
  160MOL0     C21017   5.818   3.812   2.224  0.0816  0.7685  0.1485
  160MOL0     O21018   5.823   3.892   2.118  0.7953  0.0228 -0.0549
  160MOL0     C21019   5.705   3.918   2.058  0.1032 -0.0951 -0.0822
  160MOL0     C21020   5.656   4.049   2.067 -0.8923 -0.5931  0.4835
  160MOL0     C21021   5.545   4.087   1.989 -0.2406 -0.2393  0.5766
  160MOL0     C21022   5.471   4.009   1.905  0.0767  0.0126  0.3936
  160MOL0     O21023   5.361   4.060   1.845  0.1668 -0.1357 -0.4681
  160MOL0     C21024   5.301   3.993   1.737  0.1778  0.2387  0.2547
  160MOL0     C21025   5.179   3.897   1.779 -0.4419  0.8372 -0.5801
  160MOL0     C21026   5.110   3.826   1.668 -0.8606 -0.0293  0.8132
  160MOL0     C21027   4.988   3.733   1.692 -0.3678  0.3347 -0.3570
  160MOL0     C21028   4.850   3.784   1.646 -0.0081 -0.0542 -0.2104
  160MOL0     C21029   4.746   3.688   1.678  0.9123 -0.2547  0.7742
  160MOL0     C21030   4.734   3.568   1.576 -0.4024 -1.4238  0.0629
  160MOL0     C21031   4.634   3.594   1.467  0.6393 -0.4367  0.6204
  160MOL0    Cl21032   4.482   3.527   1.540  0.3934 -0.5652  0.0715
  160MOL0     C21033   5.511   3.866   1.899  0.3655  0.1500  0.1783
  160MOL0     C21034   5.624   3.827   1.983 -0.1965  0.6496 -0.1817
  160MOL0     O21035   5.717   3.750   2.272  0.8153  0.1565  0.5974
  160MOL0     C21036   5.951   3.687   2.395  0.1767 -0.0556 -0.5726
  160MOL0     C21037   6.077   3.650   2.449  1.1035  0.4440  0.4863
  160MOL0     N21038   6.872   3.757   2.636 -0.3108  1.2970 -0.3009
  160MOL0     N21039   6.939   3.815   2.729  0.4551 -0.1780 -0.3133
  160MOL0     C21040   8.028   3.530   2.721  0.4082  0.3736  0.1443
  160MOL0     C21041   8.158   3.498   2.757 -0.0743  0.0047 -0.2380
  160MOL0     C21042   8.502   3.359   3.055  0.5753 -0.4753 -0.4794
  160MOL0     C21043   8.574   3.252   3.120  0.1783  0.3028  0.6346
  160MOL0     C21044   8.707   3.272   3.165 -0.7826 -0.2121  0.5575
  160MOL0     C21045   8.765   3.403   3.155  0.3012 -0.3923 -0.7067
  160MOL0     O21046   8.898   3.415   3.204  0.3625 -0.4595 -0.1110
  160MOL0     C21047   8.964   3.543   3.187  0.6793 -0.9180  0.1827
  160MOL0     C21048   9.118   3.551   3.224  0.3730 -0.7148  0.4962
  160MOL0     C21049   9.159   3.507   3.363  0.0274  0.6175 -0.2023
  160MOL0     C21050   9.308   3.486   3.392 -0.5729 -0.7645 -0.8662
  160MOL0     C21051   9.364   3.368   3.327  0.4613 -0.2768  0.2863
  160MOL0     C21052   9.421   3.284   3.260 -0.8116 -0.1343 -0.1005
  160MOL0     C21053   8.687   3.511   3.101  0.2192  0.6824  0.8900
  160MOL0     C21054   8.564   3.485   3.044 -0.0305  0.2737  0.2236
  160MOL0     H21055   8.098   3.388   3.080 -0.0715  0.1655 -0.0956
  160MOL0     H21056   7.895   3.460   3.024 -0.8062  0.7241 -0.0663
  160MOL0     H21057   7.760   3.673   2.946 -0.7715  1.3567 -0.7870
  160MOL0     H21058   7.672   3.519   2.934  2.4016 -1.0805  0.2080
  160MOL0     H21059   7.563   3.635   2.728 -0.2334 -1.1492  0.3977
  160MOL0     H21060   7.644   3.780   2.772  3.7629 -0.1353  2.1385
  160MOL0     H21061   7.541   3.789   2.995 -0.1983 -1.7964  1.3013
  160MOL0     H21062   7.457   3.632   2.968 -3.7848  1.9678  1.4249
  160MOL0     H21063   7.425   3.891   2.822 -0.4692  0.8230  2.9945
  160MOL0     H21064   7.372   3.731   2.749  2.3389 -0.7829 -0.0212
  160MOL0     H21065   7.210   3.892   2.865 -0.3238  1.1077  1.5947
  160MOL0     H21066   7.301   3.851   3.019  0.7262 -2.5075  1.2615
  160MOL0     H21067   7.233   3.633   3.015 -0.7914  0.4544  0.0325
  160MOL0     H21068   7.140   3.639   2.862 -4.6467 -0.5004  2.0337
  160MOL0     H21069   6.993   3.646   3.055 -3.3936  0.3184 -3.1754
  160MOL0     H21070   7.089   3.773   3.131  1.4119  2.0317 -1.1562
  160MOL0     H21071   6.998   3.937   2.952 -0.7965  1.9645  3.5656
  160MOL0     H21072   6.869   3.863   3.049  0.5748 -1.9273  1.1797
  160MOL0     H21073   6.733   3.647   2.914  0.1308 -0.7878 -0.4373
  160MOL0     H21074   6.631   3.516   2.701 -1.0661 -0.0185  0.3136
  160MOL0     H21075   6.767   3.497   2.583 -1.8292 -2.6958  0.6193
  160MOL0     H21076   6.688   3.689   2.447 -1.5932 -0.2190 -0.8373
  160MOL0     H21077   6.549   3.719   2.552  0.8851  0.0432  2.4065
  160MOL0     H21078   6.612   3.472   2.392  0.5344 -0.6020  1.0260
  160MOL0     H21079   6.488   3.465   2.521 -0.1038  1.2619  0.6735
  160MOL0     H21080   6.418   3.509   2.290  2.8124  0.4970 -2.1754
  160MOL0     H21081   6.467   3.673   2.306 -0.9776 -0.7478 -1.9866
  160MOL0     H21082   6.287   3.734   2.203  0.8198 -2.8706  0.1075
  160MOL0     H21083   6.076   3.842   2.124  2.1813  0.5429  0.8084
  160MOL0     H21084   5.718   4.119   2.123  1.4246 -1.4997 -0.8023
  160MOL0     H21085   5.502   4.187   1.997 -3.8568 -1.3497 -2.1388
  160MOL0     H21086   5.384   3.940   1.687 -0.7351  0.7929 -1.9663
  160MOL0     H21087   5.262   4.066   1.666  0.3499  0.4655  0.3920
  160MOL0     H21088   5.099   3.956   1.823 -2.1407 -1.0612 -0.9993
  160MOL0     H21089   5.210   3.827   1.858 -2.4258  1.1053  0.4840
  160MOL0     H21090   5.188   3.767   1.619 -0.3415  0.4598  1.0274
  160MOL0     H21091   5.088   3.904   1.594 -1.9277 -0.1456  0.9946
  160MOL0     H21092   5.008   3.639   1.640  1.0216  2.2757 -3.5900
  160MOL0     H21093   4.983   3.704   1.797  0.4882 -1.4618 -0.7697
  160MOL0     H21094   4.842   3.806   1.540 -1.9445  2.0704  0.2992
  160MOL0     H21095   4.832   3.880   1.695  0.4266 -0.3450  0.5370
  160MOL0     H21096   4.650   3.739   1.677  1.8563  1.6445 -1.1811
  160MOL0     H21097   4.769   3.660   1.781  1.5362 -2.7360  0.0496
  160MOL0     H21098   4.828   3.544   1.525  0.2586 -0.6748  0.9002
  160MOL0     H21099   4.707   3.476   1.628 -2.8274 -0.1511  1.2455
  160MOL0     H21100   4.652   3.546   1.370 -2.5901  0.0079 -0.2962
  160MOL0     H21101   4.624   3.702   1.453  1.2437 -0.3626  0.7362
  160MOL0     H21102   5.454   3.798   1.836 -3.1752  0.9637  2.2054
  160MOL0     H21103   5.648   3.721   1.985 -0.0132  0.6893  1.9004
  160MOL0     H21104   5.857   3.663   2.445  0.1754  2.8309  1.0223
  160MOL0     H21105   6.076   3.587   2.537  2.4443  1.5399  1.3362
  160MOL0     H21106   8.000   3.564   2.622 -2.8422  1.8434  1.4189
  160MOL0     H21107   8.238   3.514   2.686 -0.1421  0.6286 -0.1757
  160MOL0     H21108   8.511   3.164   3.131 -2.5262  1.6402 -2.4696
  160MOL0     H21109   8.763   3.192   3.212 -2.3831 -2.0308 -0.5154
  160MOL0     H21110   8.915   3.611   3.257  0.0917 -0.7635 -0.3717
  160MOL0     H21111   8.955   3.568   3.081  0.1420 -3.1311 -0.3567
  160MOL0     H21112   9.171   3.473   3.168 -0.2542 -2.5482  2.3042
  160MOL0     H21113   9.162   3.645   3.191  2.9055 -1.3542  1.7795
  160MOL0     H21114   9.100   3.418   3.386 -1.5002  1.7561  0.4989
  160MOL0     H21115   9.127   3.593   3.422 -0.1898 -0.0015  0.6026
  160MOL0     H21116   9.366   3.567   3.347 -0.0340 -2.3575 -3.2466
  160MOL0     H21117   9.311   3.480   3.501 -2.1533  2.4816 -0.5220
  160MOL0     H21118   9.463   3.214   3.190  0.7334  1.7508 -1.1527
  160MOL0     H21119   8.710   3.617   3.105 -0.9357  0.9315  1.2676
  160MOL0     H21120   8.494   3.558   3.004 -2.4251  0.6661  4.5329
  161MOL0     O21121   2.086   3.790   0.072  0.8607  0.0282 -0.2455
  161MOL0     C21122   2.000   3.775  -0.019 -0.0930  0.0849 -0.1244
  161MOL0     O21123   2.014   3.698  -0.125 -0.1570  0.1874  0.1759
  161MOL0     C21124   2.136   3.646  -0.152 -0.8287 -0.2361  0.5197
  161MOL0     C21125   2.255   3.716  -0.181 -0.6812  0.4715 -1.2795
  161MOL0     C21126   2.381   3.660  -0.200  0.5289  0.5073 -0.2582
  161MOL0     C21127   2.397   3.527  -0.192  0.2376  0.4919 -0.1098
  161MOL0     O21128   2.515   3.459  -0.196 -1.1693 -0.5403  0.2005
  161MOL0     C21129   2.623   3.507  -0.273  1.0793 -0.0835  0.0037
  161MOL0     C21130   2.742   3.427  -0.243 -0.7331  0.4624  0.5154
  161MOL0     C21131   2.723   3.281  -0.278  0.9096  0.0419  0.6822
  161MOL0     C21132   2.857   3.210  -0.280 -0.7566  0.0060  0.0135
  161MOL0     C21133   2.834   3.053  -0.300 -0.2865 -1.2145  0.1708
  161MOL0     C21134   2.788   2.973  -0.182 -0.3218  0.2324  0.9888
  161MOL0     C21135   2.772   2.820  -0.224  0.5677  0.3582 -0.2192
  161MOL0     C21136   2.728   2.737  -0.109 -0.6751 -0.2161  0.0455
  161MOL0     N21137   2.732   2.593  -0.157  0.1219 -0.0258  0.8055
  161MOL0     C21138   2.636   2.527  -0.233 -0.6617  0.1474 -0.2623
  161MOL0     C21139   2.691   2.420  -0.296 -0.2793  0.2510 -0.4018
  161MOL0     C21140   2.613   2.316  -0.368  0.3169 -0.5532 -0.1281
  161MOL0     C21141   2.556   2.224  -0.264  0.6209  0.3020 -0.1011
  161MOL0     C21142   2.488   2.098  -0.330 -0.5832 -0.8322 -1.0191
  161MOL0     C21143   2.460   2.107  -0.468 -0.0158 -0.3512  0.8744
  161MOL0     O21144   2.385   1.991  -0.493 -0.3976 -0.3284  0.4785
  161MOL0     C21145   2.265   2.004  -0.560  0.3057  0.2058 -0.5760
  161MOL0     C21146   2.158   1.929  -0.512  0.9597  0.0833 -0.2747
  161MOL0     C21147   2.038   1.919  -0.579  0.5739 -0.5620 -0.5253
  161MOL0     C21148   2.014   1.985  -0.695  0.1669 -0.6253  0.4487
  161MOL0     C21149   1.898   1.965  -0.780  0.6002  0.0597 -0.6226
  161MOL0     O21150   1.804   1.881  -0.722 -0.2611  0.1012 -0.2477
  161MOL0     C21151   1.690   1.865  -0.797  0.4872  0.2002  0.2401
  161MOL0     C21152   1.656   1.735  -0.834 -0.0293 -0.0972 -0.1103
  161MOL0     C21153   1.543   1.706  -0.909 -0.7154  0.8028 -1.2871
  161MOL0     C21154   1.454   1.803  -0.942 -0.0349  0.5067  0.4604
  161MOL0     O21155   1.345   1.784  -1.019 -0.0637 -0.0569  0.2283
  161MOL0     C21156   1.308   1.651  -1.045  0.5887 -0.8085  0.2875
  161MOL0     C21157   1.168   1.631  -1.098  0.4619 -0.3511 -0.0124
  161MOL0     C21158   1.064   1.665  -0.988  0.2433 -0.2526 -0.4074
  161MOL0     C21159   0.919   1.664  -1.036 -0.4248  0.6067  1.0376
  161MOL0     C21160   0.863   1.524  -1.008 -0.5892  0.6956  0.2063
  161MOL0     C21161   0.831   1.504  -0.863  0.2773  0.2970 -0.1299
  161MOL0     C21162   0.721   1.402  -0.852  0.1043  0.1033 -0.0820
  161MOL0     C21163   0.669   1.373  -0.710  0.3110 -0.0272 -0.2078
  161MOL0    Cl21164   0.524   1.282  -0.686  0.1006  0.0634  0.4119
  161MOL0     C21165   1.491   1.930  -0.904 -0.2557  0.6308 -0.7332
  161MOL0     C21166   1.599   1.963  -0.835  0.4936  0.5726  0.2179
  161MOL0     O21167   1.879   2.024  -0.880 -0.5211  0.1617  0.0494
  161MOL0     C21168   2.119   2.061  -0.744  0.6455 -0.6110  0.5774
  161MOL0     C21169   2.238   2.080  -0.676  0.3425 -0.4663  1.4531
  161MOL0     N21170   2.816   2.419  -0.258  0.4427 -0.0211 -0.2221
  161MOL0     N21171   2.845   2.517  -0.180  1.0482  0.3466  0.0937
  161MOL0     C21172   2.278   3.450  -0.167 -0.8230  0.5914  1.2533
  161MOL0     C21173   2.154   3.510  -0.142  0.0049  0.4078  0.3436
  161MOL0     C21174   1.866   3.839  -0.010  0.2611 -0.3271  0.5705
  161MOL0     C21175   1.772   3.840  -0.123  0.1010 -1.0613 -0.2046
  161MOL0     C21176   1.648   3.909  -0.113  0.6627  0.4730 -0.1102
  161MOL0     C21177   1.613   3.962   0.006 -0.0913  0.0991 -0.5016
  161MOL0     O21178   1.481   4.001   0.019 -0.0493  0.4024  0.0267
  161MOL0     C21179   1.428   4.010   0.148 -0.4062 -0.2160 -0.5356
  161MOL0     C21180   1.284   4.048   0.180 -0.6842 -0.8334  0.4641
  161MOL0     C21181   1.225   4.147   0.072  0.7778 -0.3832  0.5339
  161MOL0     C21182   1.199   4.084  -0.069  0.7575 -0.1557  0.3320
  161MOL0     C21183   1.101   3.979  -0.041  0.6543  0.3115 -1.0225
  161MOL0     C21184   1.002   3.907  -0.022 -0.2360 -0.2112  0.0281
  161MOL0     C21185   1.695   3.954   0.122 -0.4154  0.1323 -0.2184
  161MOL0     C21186   1.826   3.892   0.113  0.4102 -0.4289  0.8793
  161MOL0     H21187   2.257   3.824  -0.171  0.4344  0.3355  0.2496
  161MOL0     H21188   2.468   3.724  -0.190  1.0334 -0.2307  0.1720
  161MOL0     H21189   2.647   3.613  -0.262 -1.6789  0.6875 -0.7491
  161MOL0     H21190   2.595   3.491  -0.378  0.3615  0.2834  0.1317
  161MOL0     H21191   2.760   3.431  -0.135  0.9646 -1.7489  0.3996
  161MOL0     H21192   2.816   3.479  -0.304 -0.9891  1.5568  1.1060
  161MOL0     H21193   2.694   3.280  -0.384  2.5953  1.8239  0.1270
  161MOL0     H21194   2.648   3.235  -0.214  1.3443  0.9037  1.8377
  161MOL0     H21195   2.914   3.255  -0.362 -1.1999  0.8655  0.1530
  161MOL0     H21196   2.914   3.225  -0.188  2.4491 -2.3273 -1.4269
  161MOL0     H21197   2.936   3.021  -0.323  1.5173  3.4886  0.6652
  161MOL0     H21198   2.764   3.059  -0.384  1.4424  3.2398 -1.1909
  161MOL0     H21199   2.695   3.016  -0.142 -0.3558  0.0578  1.1023
  161MOL0     H21200   2.857   2.992  -0.099  2.4766 -0.5521 -1.0248
  161MOL0     H21201   2.693   2.821  -0.300  0.2932  1.7346  0.0417
  161MOL0     H21202   2.864   2.785  -0.271  0.9437 -0.9377  1.3885
  161MOL0     H21203   2.623   2.754  -0.082 -0.9238  2.0414 -2.0264
  161MOL0     H21204   2.795   2.756  -0.025  1.5662  1.5745 -2.0210
  161MOL0     H21205   2.534   2.563  -0.233 -0.0702  2.3649  3.2845
  161MOL0     H21206   2.680   2.261  -0.434  0.0554  0.2862 -1.1335
  161MOL0     H21207   2.541   2.364  -0.435  1.1535  0.6270 -0.2110
  161MOL0     H21208   2.474   2.279  -0.218  0.6925  1.5391 -1.3766
  161MOL0     H21209   2.627   2.196  -0.186  0.3522  2.7483  1.1259
  161MOL0     H21210   2.568   2.025  -0.314  1.0773  1.5696  3.4503
  161MOL0     H21211   2.395   2.079  -0.275 -1.8571  1.2324 -2.3075
  161MOL0     H21212   2.547   2.109  -0.534 -0.1615 -2.6056  0.5611
  161MOL0     H21213   2.395   2.195  -0.476  0.5484  0.0503  0.6661
  161MOL0     H21214   2.174   1.885  -0.414  2.7789 -0.2930 -0.6929
  161MOL0     H21215   1.966   1.855  -0.529  0.6462 -0.3190 -0.1024
  161MOL0     H21216   1.724   1.655  -0.808  1.4655  0.9717 -0.5586
  161MOL0     H21217   1.535   1.605  -0.947 -1.4470  1.4711 -2.9906
  161MOL0     H21218   1.308   1.590  -0.953  2.8354 -0.1759  0.7528
  161MOL0     H21219   1.382   1.602  -1.108  1.1949 -0.8731  1.0368
  161MOL0     H21220   1.157   1.528  -1.134 -3.8659  0.2983 -1.0981
  161MOL0     H21221   1.162   1.702  -1.181  1.4756 -1.3863 -1.0076
  161MOL0     H21222   1.085   1.763  -0.944 -0.5086  0.4934 -1.6474
  161MOL0     H21223   1.082   1.596  -0.905 -0.7309 -1.3572 -1.0858
  161MOL0     H21224   0.840   1.725  -0.991 -2.0324 -0.6330 -0.0061
  161MOL0     H21225   0.914   1.697  -1.140 -3.0274  1.0288  1.2342
  161MOL0     H21226   0.930   1.448  -1.051 -0.6289  1.4211 -1.2160
  161MOL0     H21227   0.771   1.509  -1.065 -0.2323  0.2340 -0.2692
  161MOL0     H21228   0.799   1.595  -0.811  1.2909  0.3547  0.4172
  161MOL0     H21229   0.918   1.458  -0.815 -0.4237  0.5133  1.4187
  161MOL0     H21230   0.630   1.440  -0.899 -1.0378 -1.2386  0.9628
  161MOL0     H21231   0.746   1.308  -0.902  0.7660  1.7370 -3.0546
  161MOL0     H21232   0.662   1.468  -0.656  2.4624 -1.3797  2.7496
  161MOL0     H21233   0.754   1.332  -0.653 -0.3912 -1.1968  0.0425
  161MOL0     H21234   1.417   2.008  -0.918 -2.7090 -1.5258 -0.5618
  161MOL0     H21235   1.619   2.065  -0.803 -2.9926  1.5369 -0.3139
  161MOL0     H21236   2.098   2.121  -0.833  1.5997  2.3896  2.2071
  161MOL0     H21237   2.312   2.150  -0.713  0.5295 -0.8150  1.1640
  161MOL0     H21238   2.300   3.343  -0.165 -0.3698  0.6812  1.2754
  161MOL0     H21239   2.074   3.439  -0.119  0.3187  0.2564  0.9763
  161MOL0     H21240   1.798   3.791  -0.216 -3.5329  1.2633 -2.7167
  161MOL0     H21241   1.577   3.901  -0.195 -1.8980  0.9038  1.9535
  161MOL0     H21242   1.482   4.089   0.200 -1.2456  0.6410 -0.9442
  161MOL0     H21243   1.439   3.916   0.203 -2.9380 -0.2052  0.1339
  161MOL0     H21244   1.224   3.957   0.176 -0.6285 -0.8273 -0.6548
  161MOL0     H21245   1.276   4.092   0.280 -1.0589 -1.2152  0.6080
  161MOL0     H21246   1.299   4.221   0.044  0.1080  0.4648  0.9639
  161MOL0     H21247   1.142   4.193   0.127  1.4341  1.9763 -0.3443
  161MOL0     H21248   1.152   4.154  -0.139 -0.0999 -2.7231 -1.8373
  161MOL0     H21249   1.285   4.041  -0.120 -0.7816 -0.9224 -1.7971
  161MOL0     H21250   0.914   3.848  -0.006 -0.3563 -0.5415 -1.6659
  161MOL0     H21251   1.664   3.989   0.220  2.4075 -1.3565  1.3286
  161MOL0     H21252   1.896   3.892   0.197  0.5007  1.2876  0.8301
  162MOL0     O21253   5.467   8.030   6.040 -0.6045  0.2857  0.0598
  162MOL0     C21254   5.568   8.076   6.094 -0.4858 -0.8075 -0.0828
  162MOL0     O21255   5.577   8.157   6.201 -0.2116 -0.8335  0.4054
  162MOL0     C21256   5.464   8.202   6.255  0.1745 -0.1204 -0.4886
  162MOL0     C21257   5.350   8.122   6.298  0.7295  0.2626 -0.8545
  162MOL0     C21258   5.227   8.164   6.349 -0.3907 -0.2410  0.4732
  162MOL0     C21259   5.219   8.302   6.373  0.2128  1.0295  0.0912
  162MOL0     O21260   5.112   8.361   6.443  0.3526 -0.4993 -0.2951
  162MOL0     C21261   5.011   8.269   6.491  0.6166 -0.2389  0.0863
  162MOL0     C21262   4.901   8.353   6.544 -0.2650 -0.6676  0.4536
  162MOL0     C21263   4.768   8.283   6.565 -0.6927  0.1402  0.1214
  162MOL0     C21264   4.688   8.241   6.441 -0.2188 -0.6038  0.2855
  162MOL0     C21265   4.563   8.161   6.485 -0.1141 -0.7119  0.4592
  162MOL0     C21266   4.500   8.094   6.359 -0.5689 -0.9762 -1.9365
  162MOL0     C21267   4.356   8.064   6.386 -0.1559 -0.0139 -0.2176
  162MOL0     C21268   4.336   7.965   6.498  0.3027  0.1471  0.1363
  162MOL0     N21269   4.187   7.963   6.514  0.4209 -0.2166  0.2558
  162MOL0     C21270   4.109   7.849   6.522 -0.6204  0.0322 -0.3195
  162MOL0     C21271   3.982   7.896   6.532 -0.8544  0.4200  0.4187
  162MOL0     C21272   3.862   7.808   6.511 -0.6863  0.4672  0.0403
  162MOL0     C21273   3.741   7.868   6.566  0.3929  0.3659  0.0211
  162MOL0     C21274   3.657   7.750   6.617  0.3031  1.1862 -0.1457
  162MOL0     C21275   3.550   7.796   6.720 -0.4170 -0.4265  0.4553
  162MOL0     O21276   3.443   7.834   6.631 -0.0164  0.2943 -0.6048
  162MOL0     C21277   3.335   7.747   6.608  0.9570 -0.6197  0.3180
  162MOL0     C21278   3.243   7.810   6.529  0.4730  0.0007 -0.1507
  162MOL0     C21279   3.117   7.752   6.493 -0.4796  0.6001 -0.2309
  162MOL0     C21280   3.089   7.624   6.530  0.5956 -0.3665  0.2387
  162MOL0     C21281   2.956   7.563   6.505 -0.1068 -0.3263 -0.7887
  162MOL0     O21282   2.934   7.444   6.564 -0.0779  0.0621  0.0068
  162MOL0     C21283   2.802   7.406   6.597 -0.1820  0.0329 -0.3135
  162MOL0     C21284   2.764   7.429   6.729  0.0035  0.3900  0.6942
  162MOL0     C21285   2.630   7.420   6.766  0.4676  0.4594  0.5987
  162MOL0     C21286   2.528   7.385   6.685 -0.1753 -0.5159  0.2123
  162MOL0     O21287   2.395   7.376   6.711  0.1515  0.7728  0.3880
  162MOL0     C21288   2.337   7.484   6.785  0.3945 -0.1244  0.0664
  162MOL0     C21289   2.205   7.438   6.863  0.7233 -0.0829  0.0558
  162MOL0     C21290   2.227   7.362   6.996 -0.5500 -0.2421 -0.2254
  162MOL0     C21291   2.269   7.466   7.097  0.3887  0.8531  0.1956
  162MOL0     C21292   2.306   7.399   7.230 -0.1362 -0.2160  0.4853
  162MOL0     C21293   2.364   7.509   7.327 -0.4190 -0.7644 -0.3537
  162MOL0     C21294   2.510   7.543   7.291 -0.3729 -0.8942 -0.2710
  162MOL0     C21295   2.572   7.638   7.394 -1.0063 -1.0359  0.0618
  162MOL0    Cl21296   2.733   7.668   7.322 -0.0077 -0.7867 -0.0824
  162MOL0     C21297   2.561   7.359   6.553 -0.7666  0.4815  0.4050
  162MOL0     C21298   2.696   7.368   6.508 -0.3865  0.7717  0.5123
  162MOL0     O21299   2.867   7.633   6.462  0.1529 -0.0120 -0.2586
  162MOL0     C21300   3.195   7.557   6.604  0.3831  0.1225 -0.4438
  162MOL0     C21301   3.314   7.618   6.652  0.4701 -1.0883  0.2655
  162MOL0     N21302   3.987   8.034   6.536 -0.2716 -0.3394  0.4191
  162MOL0     N21303   4.105   8.072   6.529 -0.1646  0.2683 -0.2995
  162MOL0     C21304   5.327   8.377   6.348 -0.9345 -0.2429  0.4344
  162MOL0     C21305   5.444   8.332   6.284 -0.3089  0.8929 -0.9627
  162MOL0     C21306   5.683   8.063   6.005 -1.2305 -0.6712 -0.8363
  162MOL0     C21307   5.693   7.983   5.897  0.1208  0.6612  0.4210
  162MOL0     C21308   5.802   7.957   5.815 -0.3817 -1.2083 -0.6858
  162MOL0     C21309   5.915   8.032   5.846  0.6904 -0.5783  0.0767
  162MOL0     O21310   6.023   8.041   5.762  0.2325 -0.8076 -0.0284
  162MOL0     C21311   5.991   8.030   5.621 -0.4499  0.4754 -0.3840
  162MOL0     C21312   6.099   8.084   5.528  0.0761 -0.6748 -0.0522
  162MOL0     C21313   6.213   7.995   5.510 -0.6557 -0.2062 -1.0904
  162MOL0     C21314   6.323   8.004   5.619 -0.6999  0.0013 -0.0740
  162MOL0     C21315   6.446   7.944   5.568  0.5415 -0.7769  0.6807
  162MOL0     C21316   6.546   7.907   5.515  0.1717  0.0235 -0.0240
  162MOL0     C21317   5.919   8.099   5.972 -0.2036 -0.1155 -0.0694
  162MOL0     C21318   5.808   8.113   6.052 -0.2635 -0.5935 -1.1473
  162MOL0     H21319   5.361   8.014   6.291  0.4505  0.2562 -1.2013
  162MOL0     H21320   5.147   8.094   6.369 -0.9652  0.1454 -0.4286
  162MOL0     H21321   5.055   8.207   6.569 -2.9500 -2.5484  0.4559
  162MOL0     H21322   4.972   8.216   6.404 -3.2658  2.0967  0.1587
  162MOL0     H21323   4.892   8.447   6.488  2.5702  0.9174  2.3824
  162MOL0     H21324   4.942   8.381   6.641  0.9429 -3.6091  0.8705
  162MOL0     H21325   4.698   8.348   6.619 -2.2413 -1.3317 -0.0083
  162MOL0     H21326   4.789   8.188   6.615 -1.0792 -2.3320 -3.9252
  162MOL0     H21327   4.666   8.330   6.382  1.0458 -0.9519 -0.7285
  162MOL0     H21328   4.741   8.172   6.376 -0.0330 -0.5988  0.4312
  162MOL0     H21329   4.488   8.219   6.539  0.2974  3.1806 -2.6542
  162MOL0     H21330   4.595   8.090   6.561 -1.1672  1.3641  2.9761
  162MOL0     H21331   4.548   7.998   6.339 -0.7255 -1.8019  1.1050
  162MOL0     H21332   4.515   8.156   6.271  0.2404  0.5170 -0.7976
  162MOL0     H21333   4.308   8.162   6.399  1.9168  1.3322 -2.0859
  162MOL0     H21334   4.317   8.017   6.296  1.2559 -2.0406  0.1520
  162MOL0     H21335   4.363   7.996   6.600 -2.9384 -0.7653  1.4011
  162MOL0     H21336   4.385   7.870   6.476 -2.0935 -0.8776 -0.9665
  162MOL0     H21337   4.135   7.744   6.513 -0.3250 -0.0310  1.0699
  162MOL0     H21338   3.897   7.718   6.563  1.7726  2.0631  1.3073
  162MOL0     H21339   3.847   7.777   6.407  1.5135  0.3881 -0.2892
  162MOL0     H21340   3.679   7.927   6.498 -0.2077  0.2317  0.4352
  162MOL0     H21341   3.776   7.926   6.652 -0.1848  0.1568  0.4050
  162MOL0     H21342   3.616   7.683   6.540 -0.1370 -0.0632  1.1282
  162MOL0     H21343   3.719   7.684   6.678 -1.0793 -1.6355 -1.5490
  162MOL0     H21344   3.587   7.882   6.776  2.3411  0.1077 -1.9243
  162MOL0     H21345   3.508   7.728   6.794  0.6280 -0.8704  0.6497
  162MOL0     H21346   3.251   7.910   6.486  1.2712 -0.0363 -0.1059
  162MOL0     H21347   3.037   7.802   6.439  0.0250  0.1367 -1.4486
  162MOL0     H21348   2.825   7.455   6.815 -0.8510  1.1525  1.0981
  162MOL0     H21349   2.608   7.433   6.871  4.0946  0.7251  1.4342
  162MOL0     H21350   2.315   7.564   6.714  1.0344  1.0935  1.1776
  162MOL0     H21351   2.411   7.527   6.854  0.0080  2.9204 -1.2589
  162MOL0     H21352   2.137   7.369   6.811 -1.2817  0.5389  1.6858
  162MOL0     H21353   2.136   7.521   6.882 -0.4290 -1.2650  1.3597
  162MOL0     H21354   2.318   7.303   6.977  1.1482  2.8542 -2.6629
  162MOL0     H21355   2.147   7.302   7.041 -0.5868 -0.7499 -0.9543
  162MOL0     H21356   2.351   7.521   7.050  1.0165 -0.3754 -0.1791
  162MOL0     H21357   2.196   7.546   7.117  1.0196  1.0291  2.0434
  162MOL0     H21358   2.381   7.322   7.210  1.0306  1.0031 -0.0195
  162MOL0     H21359   2.220   7.345   7.270 -1.0030 -1.4840 -2.7655
  162MOL0     H21360   2.361   7.469   7.429 -2.1500  0.5223  0.1377
  162MOL0     H21361   2.305   7.601   7.331  1.6530  0.6995 -1.5276
  162MOL0     H21362   2.562   7.449   7.270 -2.2026 -1.8533 -0.7121
  162MOL0     H21363   2.522   7.596   7.197  1.8831  0.4647  0.6825
  162MOL0     H21364   2.564   7.594   7.494  1.7723 -4.0364 -0.8522
  162MOL0     H21365   2.518   7.733   7.389  0.9935  0.1511 -0.0143
  162MOL0     H21366   2.481   7.340   6.482 -0.2052 -0.4498  0.0037
  162MOL0     H21367   2.719   7.350   6.404  2.9464  0.7840  1.1125
  162MOL0     H21368   3.185   7.454   6.638  0.9774  0.9380  2.4757
  162MOL0     H21369   3.392   7.560   6.700  1.5705 -0.3576 -0.5949
  162MOL0     H21370   5.324   8.482   6.374  1.2506  0.2869 -1.1930
  162MOL0     H21371   5.528   8.401   6.271  1.0195 -0.2960  0.8251
  162MOL0     H21372   5.602   7.937   5.860 -0.2369  1.7690 -0.1332
  162MOL0     H21373   5.780   7.887   5.735 -0.1155 -0.0559 -1.8083
  162MOL0     H21374   5.903   8.092   5.602 -1.4230  0.0780  2.3750
  162MOL0     H21375   5.975   7.925   5.596 -0.8603  0.0425  1.5326
  162MOL0     H21376   6.048   8.085   5.431 -1.6340  1.4839  0.7748
  162MOL0     H21377   6.132   8.189   5.533 -2.1715  0.1415 -1.0135
  162MOL0     H21378   6.251   8.008   5.408  0.3815  1.5434 -0.5366
  162MOL0     H21379   6.173   7.894   5.519  0.0523 -0.3567  0.7493
  162MOL0     H21380   6.331   8.111   5.639 -1.2015 -0.3311  2.2120
  162MOL0     H21381   6.304   7.951   5.713 -0.8445 -1.3782 -0.8568
  162MOL0     H21382   6.625   7.879   5.448  0.3761  1.0794 -0.2338
  162MOL0     H21383   6.007   8.160   5.991 -1.6729  2.7077 -1.5863
  162MOL0     H21384   5.809   8.173   6.142 -1.6480 -1.2312 -0.6701
  163MOL0     O21385   9.097   1.065  10.390 -0.1295 -0.9102  0.1641
  163MOL0     C21386   9.149   0.972  10.445  0.4888  0.5855  0.8162
  163MOL0     O21387   9.079   0.860  10.476 -0.8691  0.3811 -0.1197
  163MOL0     C21388   8.959   0.858  10.418 -0.1173  0.0560 -1.6729
  163MOL0     C21389   8.846   0.899  10.496  0.0274  0.0805 -0.7113
  163MOL0     C21390   8.719   0.893  10.434  0.3211  0.2518  0.4687
  163MOL0     C21391   8.701   0.850  10.300  0.3617  0.5758  0.1743
  163MOL0     O21392   8.587   0.854  10.231  0.6581  0.2014  0.5194
  163MOL0     C21393   8.468   0.871  10.313 -0.8659 -0.3134  0.3431
  163MOL0     C21394   8.339   0.836  10.232 -1.2309 -0.4546  0.0209
  163MOL0     C21395   8.218   0.838  10.317  0.8337  0.5132 -0.0524
  163MOL0     C21396   8.092   0.831  10.232  0.6528 -0.7914  0.1808
  163MOL0     C21397   7.960   0.894  10.293 -0.0338  0.1325  0.3694
  163MOL0     C21398   7.878   0.963  10.191  0.0590  0.3202  0.1020
  163MOL0     C21399   7.731   1.008  10.227 -0.3312 -0.2835  0.1285
  163MOL0     C21400   7.634   0.896  10.228 -0.2825 -0.0112 -0.0282
  163MOL0     N21401   7.607   0.837  10.095 -0.0945 -0.4965  0.0344
  163MOL0     C21402   7.589   0.910   9.980 -0.0364  0.8470 -0.7039
  163MOL0     C21403   7.528   0.823   9.894  0.5698  0.7200 -0.3637
  163MOL0     C21404   7.455   0.860   9.772 -0.3771  0.7479 -0.1147
  163MOL0     C21405   7.301   0.858   9.785  0.4521 -0.0163 -0.3773
  163MOL0     C21406   7.235   0.819   9.645 -0.5370 -0.0423 -0.0037
  163MOL0     C21407   7.081   0.836   9.632  1.3389  0.6157 -0.3345
  163MOL0     O21408   7.004   0.803   9.751  0.7986  0.2942 -0.5731
  163MOL0     C21409   6.867   0.796   9.752  0.0216 -0.5676 -0.0489
  163MOL0     C21410   6.810   0.730   9.862 -0.5653  0.0679 -0.1165
  163MOL0     C21411   6.680   0.703   9.867  0.2490 -0.2773 -0.0546
  163MOL0     C21412   6.590   0.728   9.759  0.2938 -0.4158 -1.1351
  163MOL0     C21413   6.449   0.696   9.770 -0.5915  0.1277  0.2186
  163MOL0     O21414   6.399   0.678   9.646  0.4485 -0.0541 -0.0637
  163MOL0     C21415   6.268   0.651   9.608  0.1484 -0.1416 -0.1614
  163MOL0     C21416   6.172   0.628   9.705  0.2583  0.7113  0.5587
  163MOL0     C21417   6.060   0.547   9.657 -0.1409 -0.8804 -0.2773
  163MOL0     C21418   6.026   0.525   9.517  0.0337 -0.1450 -0.0960
  163MOL0     O21419   5.921   0.462   9.462  0.6549 -0.4674  0.3171
  163MOL0     C21420   5.815   0.418   9.548  0.3580  0.2104 -0.1006
  163MOL0     C21421   5.700   0.360   9.459  0.0763 -0.2921 -0.3177
  163MOL0     C21422   5.580   0.313   9.544 -0.7236  0.3179  0.8290
  163MOL0     C21423   5.476   0.244   9.455 -0.5467  0.5720 -0.7315
  163MOL0     C21424   5.363   0.169   9.527 -0.5032  0.1985  0.6596
  163MOL0     C21425   5.403   0.045   9.603 -1.1833  0.2244 -0.4800
  163MOL0     C21426   5.298  -0.007   9.699  0.2148  1.1791 -0.4107
  163MOL0     C21427   5.358  -0.095   9.804 -0.3298  0.3817 -1.3107
  163MOL0    Cl21428   5.424  -0.241   9.718  0.3414  0.2113  0.0648
  163MOL0     C21429   6.130   0.563   9.426 -0.2172  0.1744  0.7278
  163MOL0     C21430   6.244   0.627   9.471 -0.7599  0.5374  0.4834
  163MOL0     O21431   6.391   0.706   9.875  0.4158  0.0500 -0.5897
  163MOL0     C21432   6.645   0.807   9.657  0.0017  0.0892 -0.3166
  163MOL0     C21433   6.779   0.842   9.654 -0.1689 -0.2707 -0.1571
  163MOL0     N21434   7.529   0.700   9.959 -0.6335 -0.2478 -0.1165
  163MOL0     N21435   7.572   0.707  10.076 -0.8219 -0.7370  0.3958
  163MOL0     C21436   8.812   0.810  10.226 -0.1377  0.0465 -0.2858
  163MOL0     C21437   8.942   0.816  10.281 -0.2037 -0.6465 -0.6830
  163MOL0     C21438   9.299   0.980  10.459 -0.1423 -0.2539  0.2223
  163MOL0     C21439   9.371   0.863  10.510  1.2065  0.0641 -0.4707
  163MOL0     C21440   9.514   0.864  10.514  0.1312  0.1743 -0.1123
  163MOL0     C21441   9.583   0.979  10.471 -0.1131  0.2421 -1.0669
  163MOL0     O21442   9.719   0.995  10.477  0.3920 -0.8181  0.3440
  163MOL0     C21443   9.809   0.888  10.508 -0.1592 -0.4662  0.4994
  163MOL0     C21444   9.942   0.960  10.492 -0.1888 -1.0676  0.0655
  163MOL0     C21445   9.977   0.977  10.343  0.4287  0.2085  0.4887
  163MOL0     C21446  10.131   1.013  10.334  0.0918 -0.5285 -0.1031
  163MOL0     C21447  10.177   1.071  10.201 -0.2489 -0.0537 -0.3366
  163MOL0     C21448  10.229   1.115  10.099 -0.4231 -0.0650  0.3791
  163MOL0     C21449   9.515   1.082  10.416 -0.5802  0.6651 -0.0165
  163MOL0     C21450   9.374   1.094  10.414 -0.4296  0.4934  0.4705
  163MOL0     H21451   8.864   0.930  10.598 -0.2284  1.9680 -1.2045
  163MOL0     H21452   8.628   0.917  10.488  0.3584 -0.0234  0.6582
  163MOL0     H21453   8.463   0.973  10.351  0.0126  1.0505 -2.8683
  163MOL0     H21454   8.461   0.802  10.398 -3.8149  1.0319  1.3147
  163MOL0     H21455   8.340   0.730  10.205  1.8844 -0.4781 -0.2047
  163MOL0     H21456   8.335   0.902  10.145  0.6060 -1.2293 -0.7212
  163MOL0     H21457   8.220   0.928  10.380 -2.3489 -0.9723  2.5003
  163MOL0     H21458   8.219   0.759  10.392 -1.6077 -0.4971 -0.9921
  163MOL0     H21459   8.107   0.898  10.147  2.0015  2.6402  2.8861
  163MOL0     H21460   8.078   0.730  10.191  1.2328 -0.4362 -0.9603
  163MOL0     H21461   7.985   0.966  10.371 -0.6730  1.6160 -0.7651
  163MOL0     H21462   7.892   0.815  10.329  0.5917 -0.0676  1.1333
  163MOL0     H21463   7.883   0.905  10.099 -0.1823  0.4183  0.0260
  163MOL0     H21464   7.934   1.056  10.180  0.9606  0.1332  2.3911
  163MOL0     H21465   7.736   1.053  10.326 -0.2401  1.0408 -0.4490
  163MOL0     H21466   7.706   1.082  10.150  0.5661  0.0094  0.1080
  163MOL0     H21467   7.540   0.927  10.275  0.2876  0.9485  0.4996
  163MOL0     H21468   7.669   0.819  10.297 -3.0987 -0.0738  1.4800
  163MOL0     H21469   7.597   1.016   9.955  0.7915  1.1632  0.7827
  163MOL0     H21470   7.479   0.791   9.690  1.2624  1.9986 -0.7553
  163MOL0     H21471   7.487   0.955   9.729  1.9074  0.0236 -0.1532
  163MOL0     H21472   7.259   0.957   9.808 -0.3394  0.5744 -3.7164
  163MOL0     H21473   7.280   0.790   9.867 -0.1226  0.4810 -0.1052
  163MOL0     H21474   7.296   0.883   9.580  0.9036 -1.6878 -0.3206
  163MOL0     H21475   7.265   0.720   9.609  0.2546  0.4513 -0.7423
  163MOL0     H21476   7.039   0.754   9.573 -1.0704  1.4616  0.1099
  163MOL0     H21477   7.048   0.936   9.600 -3.7662 -0.4706  0.6240
  163MOL0     H21478   6.870   0.700   9.948 -2.1471 -0.5689  0.7921
  163MOL0     H21479   6.645   0.669   9.963 -0.8583  0.2136 -0.2759
  163MOL0     H21480   6.192   0.654   9.808  1.8905  0.3163  0.3672
  163MOL0     H21481   5.990   0.532   9.738 -0.1535 -1.7621 -0.4475
  163MOL0     H21482   5.784   0.509   9.601  0.8361 -1.2116  2.8390
  163MOL0     H21483   5.845   0.346   9.625  2.4449  0.3870 -0.6689
  163MOL0     H21484   5.736   0.271   9.406 -1.7143 -0.7311 -0.8393
  163MOL0     H21485   5.662   0.436   9.391 -0.5394 -0.1349  0.1980
  163MOL0     H21486   5.533   0.399   9.592 -2.7520 -0.3349  0.1294
  163MOL0     H21487   5.611   0.245   9.624 -0.0341  1.7360  1.8047
  163MOL0     H21488   5.441   0.327   9.394 -1.7686  0.4953 -0.1701
  163MOL0     H21489   5.528   0.179   9.384 -2.7174 -0.6601 -1.2940
  163MOL0     H21490   5.296   0.137   9.446 -0.3422 -0.7850  0.9039
  163MOL0     H21491   5.300   0.226   9.595 -0.6958  0.6522  0.1128
  163MOL0     H21492   5.486   0.080   9.665 -0.1892 -1.7293 -0.6169
  163MOL0     H21493   5.454  -0.028   9.540  3.5668  0.9759  2.0275
  163MOL0     H21494   5.250   0.074   9.754 -1.7750 -0.6714  0.7435
  163MOL0     H21495   5.228  -0.077   9.652  1.4522 -1.5014  1.5165
  163MOL0     H21496   5.284  -0.113   9.883  1.2477  0.4656  0.2375
  163MOL0     H21497   5.444  -0.046   9.850  0.2698 -2.3286  0.7138
  163MOL0     H21498   6.116   0.554   9.319  1.5510  0.7423  0.4097
  163MOL0     H21499   6.321   0.656   9.401 -3.4405  2.5415 -1.9176
  163MOL0     H21500   6.574   0.848   9.585 -2.6077 -2.2921  0.6929
  163MOL0     H21501   6.806   0.907   9.571 -2.3453 -1.3902 -1.8228
  163MOL0     H21502   8.803   0.780  10.122 -1.2747  3.6383 -1.3834
  163MOL0     H21503   9.029   0.785  10.224 -0.8249 -0.3737 -1.8155
  163MOL0     H21504   9.309   0.777  10.532  2.0003 -0.5478 -0.5916
  163MOL0     H21505   9.579   0.783  10.545 -1.1913 -0.8339  0.1316
  163MOL0     H21506   9.804   0.808  10.435  0.6119 -2.5356  2.6052
  163MOL0     H21507   9.799   0.851  10.610  2.5599 -0.9937  0.6310
  163MOL0     H21508   9.947   1.065  10.524 -3.0336 -0.3357 -1.5404
  163MOL0     H21509  10.020   0.900  10.539  0.8852 -0.7061 -1.2068
  163MOL0     H21510   9.917   1.059  10.303  0.8172  1.1350  1.7603
  163MOL0     H21511   9.951   0.888  10.284 -0.7503  1.8591 -1.6363
  163MOL0     H21512  10.165   1.086  10.408 -0.8167  1.6291 -1.7052
  163MOL0     H21513  10.176   0.914  10.349  0.5563 -0.1012  1.5012
  163MOL0     H21514  10.276   1.134  10.005 -1.0848 -0.5068 -0.0464
  163MOL0     H21515   9.586   1.158  10.384 -1.9075  2.1376  0.4002
  163MOL0     H21516   9.338   1.184  10.367  2.6986  1.8232  0.3530
  164MOL0     O21517  11.136   7.261   0.175 -0.2342 -0.5509 -0.2491
  164MOL0     C21518  11.143   7.159   0.237 -0.0073 -0.0081 -0.4394
  164MOL0     O21519  11.045   7.098   0.315  0.5643  0.4103 -0.0503
  164MOL0     C21520  10.909   7.141   0.299 -0.2003  0.2412 -0.1357
  164MOL0     C21521  10.854   7.188   0.181  0.5769  0.6659  0.6832
  164MOL0     C21522  10.724   7.224   0.177  0.0577  1.1691  0.5711
  164MOL0     C21523  10.634   7.218   0.284  0.4506  0.0296 -0.5683
  164MOL0     O21524  10.505   7.263   0.284  0.5072 -0.8180  0.5721
  164MOL0     C21525  10.454   7.262   0.147  0.3940  0.1791  0.1869
  164MOL0     C21526  10.306   7.319   0.161  0.0851 -0.7554 -0.1518
  164MOL0     C21527  10.304   7.468   0.195 -0.4816  0.7392  0.4880
  164MOL0     C21528  10.164   7.524   0.194  0.4821  0.7283  0.1521
  164MOL0     C21529  10.158   7.665   0.263  0.3622 -0.3507 -0.0404
  164MOL0     C21530  10.165   7.776   0.158  0.3893 -0.7522 -0.2281
  164MOL0     C21531  10.189   7.917   0.227  0.0405 -0.1710  0.0854
  164MOL0     C21532  10.103   7.940   0.344 -0.8890  0.3773 -0.0930
  164MOL0     N21533  10.121   8.074   0.400  0.0208  0.5231 -1.6118
  164MOL0     C21534  10.110   8.191   0.340  0.6706 -0.1379  0.0112
  164MOL0     C21535  10.126   8.287   0.437 -0.6078 -0.1165  0.3493
  164MOL0     C21536  10.124   8.437   0.410 -0.4855  0.1895 -0.0693
  164MOL0     C21537  10.012   8.465   0.310  0.1498  0.3109  0.1781
  164MOL0     C21538   9.992   8.623   0.297 -1.1200  0.7497 -0.0993
  164MOL0     C21539   9.911   8.660   0.177  0.0192 -0.0787  0.8490
  164MOL0     O21540   9.801   8.574   0.134 -0.2144 -1.3148  0.2217
  164MOL0     C21541   9.687   8.580   0.210  0.2867  0.3600  0.0868
  164MOL0     C21542   9.601   8.475   0.187  0.0925  0.6577 -0.2451
  164MOL0     C21543   9.478   8.462   0.244 -0.8416  0.1860  0.5306
  164MOL0     C21544   9.443   8.543   0.348 -0.3832  1.2200 -0.3066
  164MOL0     C21545   9.330   8.513   0.435  0.4099  0.1327 -0.5968
  164MOL0     O21546   9.213   8.481   0.376 -0.3440 -0.9775 -0.0704
  164MOL0     C21547   9.106   8.458   0.464 -0.5920  0.0271 -0.1855
  164MOL0     C21548   8.984   8.523   0.433 -0.1429  0.1316 -0.4745
  164MOL0     C21549   8.869   8.484   0.508 -0.3257 -0.7640  0.1959
  164MOL0     C21550   8.865   8.380   0.604  0.2634 -0.2798 -0.4126
  164MOL0     O21551   8.761   8.335   0.684  0.0697  0.0918  1.2067
  164MOL0     C21552   8.631   8.377   0.636  0.3048  0.2978  0.7900
  164MOL0     C21553   8.511   8.328   0.728  0.0413  0.1942  0.0109
  164MOL0     C21554   8.378   8.358   0.667  0.1599  0.0162 -0.1121
  164MOL0     C21555   8.265   8.337   0.760 -0.0380 -0.4434  0.0327
  164MOL0     C21556   8.264   8.187   0.809 -1.3485  0.4343  0.4022
  164MOL0     C21557   8.120   8.152   0.848  0.9514 -0.1099 -0.6307
  164MOL0     C21558   8.074   8.243   0.964  0.0383 -0.2587 -0.3934
  164MOL0     C21559   7.921   8.231   0.983 -0.0752 -0.0325 -1.4650
  164MOL0    Cl21560   7.874   8.066   1.049  0.0915  0.8449  0.1072
  164MOL0     C21561   8.987   8.321   0.631 -0.5103 -0.0557 -0.1752
  164MOL0     C21562   9.110   8.362   0.567  1.1301 -0.1692  0.1606
  164MOL0     O21563   9.342   8.524   0.562 -0.4451  0.6441 -0.0144
  164MOL0     C21564   9.535   8.645   0.387 -0.0608  0.9707 -0.2129
  164MOL0     C21565   9.658   8.664   0.316  0.3219  0.2306 -0.3398
  164MOL0     N21566  10.145   8.221   0.562 -0.6195 -0.5622  0.7747
  164MOL0     N21567  10.141   8.099   0.537  0.0889  0.7009 -0.1408
  164MOL0     C21568  10.694   7.177   0.401  1.6181  0.8980  0.7572
  164MOL0     C21569  10.827   7.133   0.412 -0.2568 -0.8368  0.0786
  164MOL0     C21570  11.273   7.097   0.255  0.0682 -0.1293  0.2068
  164MOL0     C21571  11.391   7.179   0.248  0.1389 -0.2178  0.7692
  164MOL0     C21572  11.523   7.131   0.262 -0.0618  0.2728 -0.0226
  164MOL0     C21573  11.543   6.992   0.290 -0.9963  0.1259 -0.0042
  164MOL0     O21574  11.664   6.923   0.285 -0.6202  0.6250 -0.2351
  164MOL0     C21575  11.787   6.997   0.287 -0.0482 -0.2164  0.3165
  164MOL0     C21576  11.890   6.900   0.329 -0.1197  0.0440  0.0157
  164MOL0     C21577  12.030   6.967   0.324 -0.6698  0.1945 -0.1262
  164MOL0     C21578  12.084   6.993   0.183 -0.3273  0.7785 -0.6413
  164MOL0     C21579  12.229   7.002   0.194 -0.4448  0.4012  0.7693
  164MOL0     C21580  12.350   7.000   0.207 -0.3209 -0.0447  0.0524
  164MOL0     C21581  11.432   6.915   0.307  0.0585 -0.1560  0.7683
  164MOL0     C21582  11.300   6.966   0.284 -0.2800  0.7743 -0.6390
  164MOL0     H21583  10.920   7.200   0.095 -0.4312 -0.7395 -0.3454
  164MOL0     H21584  10.693   7.274   0.085 -0.6637  1.1003  0.7687
  164MOL0     H21585  10.455   7.161   0.106  1.6672 -0.3299  1.4044
  164MOL0     H21586  10.506   7.326   0.075  0.5344 -2.1160 -1.8562
  164MOL0     H21587  10.248   7.255   0.228  0.1212 -1.5756 -0.8866
  164MOL0     H21588  10.251   7.314   0.067  2.4024 -0.2370 -1.6247
  164MOL0     H21589  10.360   7.514   0.114  0.3806 -2.6884 -1.0720
  164MOL0     H21590  10.344   7.487   0.295 -1.0471  1.1788  0.6282
  164MOL0     H21591  10.122   7.536   0.094 -1.2996  3.1317  1.1064
  164MOL0     H21592  10.104   7.457   0.256  0.4945 -2.0029 -2.5480
  164MOL0     H21593  10.242   7.675   0.333 -0.3959 -3.6959  1.5633
  164MOL0     H21594  10.064   7.673   0.319  0.5673  0.7491  0.1624
  164MOL0     H21595  10.072   7.781   0.101  0.0028  0.0737  0.4335
  164MOL0     H21596  10.244   7.750   0.087 -0.9723 -0.8159 -1.7504
  164MOL0     H21597  10.294   7.921   0.256  1.1351  1.9392 -3.5175
  164MOL0     H21598  10.176   8.000   0.156 -1.0981 -1.7232 -1.6380
  164MOL0     H21599  10.141   7.865   0.414  0.7279  0.7304 -0.5429
  164MOL0     H21600   9.999   7.933   0.313 -1.1554  0.4633  0.7521
  164MOL0     H21601  10.075   8.205   0.238  0.1456 -0.9012  0.0844
  164MOL0     H21602  10.221   8.472   0.375  0.4123 -1.3018  0.8084
  164MOL0     H21603  10.105   8.485   0.507  0.4862 -0.3599  0.4004
  164MOL0     H21604   9.916   8.419   0.335  0.6620 -1.5319 -1.0686
  164MOL0     H21605  10.055   8.429   0.216  1.5746  0.6094  0.6855
  164MOL0     H21606   9.946   8.651   0.392  0.3277 -1.0238  1.2008
  164MOL0     H21607  10.092   8.667   0.289 -0.8588  0.2841  0.5271
  164MOL0     H21608   9.986   8.680   0.100 -0.9744  0.6404  0.0460
  164MOL0     H21609   9.885   8.765   0.190  1.9223  0.4851  0.3497
  164MOL0     H21610   9.643   8.400   0.121 -0.2814 -0.0746  0.3442
  164MOL0     H21611   9.414   8.381   0.215 -0.3996  0.0750 -0.1606
  164MOL0     H21612   8.979   8.601   0.359  0.8045  0.0888 -0.5942
  164MOL0     H21613   8.780   8.542   0.489  1.1480  0.9300 -2.0305
  164MOL0     H21614   8.623   8.340   0.533 -0.5314  1.4977  0.3920
  164MOL0     H21615   8.634   8.486   0.626  3.1543  0.1804 -0.9281
  164MOL0     H21616   8.522   8.378   0.825 -0.5251  0.9381 -0.2925
  164MOL0     H21617   8.528   8.221   0.743 -0.4368  0.3839  2.3779
  164MOL0     H21618   8.378   8.301   0.574  2.1638 -2.5877  1.3630
  164MOL0     H21619   8.377   8.466   0.648  2.0509  0.1276  0.2565
  164MOL0     H21620   8.264   8.403   0.848 -0.7627 -1.5100  0.8443
  164MOL0     H21621   8.171   8.367   0.713  1.1981 -0.4376 -2.6272
  164MOL0     H21622   8.332   8.182   0.895 -2.0667  0.8000  1.0033
  164MOL0     H21623   8.297   8.122   0.727 -0.5517  1.8767 -0.4522
  164MOL0     H21624   8.114   8.046   0.875 -2.5295  1.0140  4.2847
  164MOL0     H21625   8.058   8.170   0.760  1.3979 -1.1357 -1.1677
  164MOL0     H21626   8.119   8.212   1.059 -0.9647  0.6220  0.3930
  164MOL0     H21627   8.085   8.351   0.950 -0.4646  0.0390  1.2204
  164MOL0     H21628   7.874   8.248   0.885 -0.6012  2.4579 -0.8393
  164MOL0     H21629   7.896   8.309   1.055 -0.3582 -0.5618 -0.9844
  164MOL0     H21630   9.001   8.242   0.704  1.3197  1.6628  1.4905
  164MOL0     H21631   9.202   8.309   0.590  2.8010  1.6138 -2.0181
  164MOL0     H21632   9.511   8.718   0.463  2.8312  1.0556  0.7598
  164MOL0     H21633   9.725   8.737   0.360  0.2842 -0.7122  1.3999
  164MOL0     H21634  10.628   7.164   0.486 -0.6224  3.5752 -0.4235
  164MOL0     H21635  10.856   7.089   0.507 -1.5476 -3.0049 -0.4646
  164MOL0     H21636  11.367   7.284   0.234  0.1368 -0.1201  1.4659
  164MOL0     H21637  11.614   7.190   0.263  0.3157 -0.3032  0.5255
  164MOL0     H21638  11.782   7.078   0.362 -1.5624  1.6795 -1.7125
  164MOL0     H21639  11.811   7.041   0.190  1.5388 -0.6337  0.4836
  164MOL0     H21640  11.866   6.871   0.432 -2.2089  0.3457 -0.3458
  164MOL0     H21641  11.893   6.815   0.260 -0.1318 -0.4948  0.6753
  164MOL0     H21642  12.098   6.900   0.376 -1.4045 -2.0690 -1.9092
  164MOL0     H21643  12.018   7.056   0.387 -4.0135  0.4157 -0.8581
  164MOL0     H21644  12.058   6.910   0.116  2.9571  0.0585 -1.2137
  164MOL0     H21645  12.040   7.088   0.152  1.5353  2.7058  2.0839
  164MOL0     H21646  12.455   7.012   0.222 -0.1788  2.0879 -2.1133
  164MOL0     H21647  11.454   6.809   0.319 -1.1273 -0.6649 -1.0595
  164MOL0     H21648  11.223   6.893   0.307 -1.1718  1.6107 -0.9281
  165MOL0     O21649   7.199   6.703   9.254 -0.2825  0.6583 -0.6700
  165MOL0     C21650   7.247   6.674   9.143  0.0618  0.0980 -0.6339
  165MOL0     O21651   7.181   6.682   9.022 -0.2301  0.1768 -0.4880
  165MOL0     C21652   7.049   6.700   9.019 -0.6313  0.2333 -0.7388
  165MOL0     C21653   6.986   6.826   9.022  0.0933  0.7351  1.6441
  165MOL0     C21654   6.841   6.823   9.007 -0.9529 -0.0489  0.0340
  165MOL0     C21655   6.769   6.696   8.981  0.0207  0.4686 -0.3434
  165MOL0     O21656   6.629   6.711   8.959 -0.7842  0.0812 -0.9930
  165MOL0     C21657   6.550   6.605   9.003  0.4580 -0.2215 -0.6718
  165MOL0     C21658   6.412   6.661   9.029 -0.9335 -0.5364 -0.3376
  165MOL0     C21659   6.330   6.560   9.092  1.2050 -0.3518 -0.1255
  165MOL0     C21660   6.177   6.594   9.103  0.0225 -0.7388 -0.6452
  165MOL0     C21661   6.096   6.471   9.141  0.6245  0.5866 -0.4025
  165MOL0     C21662   5.955   6.511   9.187  0.0987  0.9841 -0.6315
  165MOL0     C21663   5.866   6.387   9.211  1.0435  1.0000 -0.2326
  165MOL0     C21664   5.785   6.342   9.090 -0.1372  0.4780  0.1405
  165MOL0     N21665   5.642   6.316   9.131  0.5258  0.3258 -0.2802
  165MOL0     C21666   5.580   6.196   9.100  0.3906 -0.3434  0.1994
  165MOL0     C21667   5.458   6.213   9.143  0.2902  0.0576  0.2893
  165MOL0     C21668   5.351   6.118   9.124 -0.5895  0.7975 -0.7436
  165MOL0     C21669   5.272   6.092   9.257 -0.4014  0.7136 -0.2515
  165MOL0     C21670   5.191   5.969   9.265  0.1991  0.1815  0.1125
  165MOL0     C21671   5.283   5.850   9.291  0.1448  0.7088 -0.2572
  165MOL0     O21672   5.216   5.727   9.266 -1.4506  0.1059  0.8297
  165MOL0     C21673   5.119   5.673   9.350  0.9838  0.5485  0.0654
  165MOL0     C21674   5.052   5.554   9.307  0.5822  0.0424 -0.1482
  165MOL0     C21675   4.955   5.484   9.384  0.3921  0.1490  0.8621
  165MOL0     C21676   4.932   5.528   9.514 -0.2535  0.1260 -0.2756
  165MOL0     C21677   4.836   5.461   9.606 -0.2786 -0.4920  0.1925
  165MOL0     O21678   4.852   5.490   9.725  0.0408  0.5842 -0.7412
  165MOL0     C21679   4.810   5.391   9.808  0.1736 -0.5014 -0.4155
  165MOL0     C21680   4.879   5.274   9.831  0.1790  0.1542  0.0598
  165MOL0     C21681   4.825   5.175   9.916 -0.2136 -0.4474  0.0057
  165MOL0     C21682   4.701   5.191   9.973  0.0058  0.1133 -0.5990
  165MOL0     O21683   4.657   5.072  10.029  0.1557  0.4705  0.6811
  165MOL0     C21684   4.514   5.058  10.006 -0.2921  0.0856  0.1011
  165MOL0     C21685   4.498   4.936  10.093 -0.2528  1.2611 -0.3658
  165MOL0     C21686   4.357   4.905  10.131  0.3864 -0.0663 -0.5547
  165MOL0     C21687   4.290   5.013  10.212 -0.2989  0.4932 -0.1656
  165MOL0     C21688   4.185   4.961  10.318  0.4559 -0.3621  0.6679
  165MOL0     C21689   4.071   4.885  10.251  0.3306  0.5190 -0.2069
  165MOL0     C21690   3.951   4.905  10.349  0.9754  0.7300  0.0446
  165MOL0     C21691   3.849   4.781  10.350 -0.0124 -0.2478  0.2486
  165MOL0    Cl21692   3.737   4.786  10.205  0.3893 -0.3014 -0.3291
  165MOL0     C21693   4.631   5.321   9.963  0.2262  0.0425  0.3339
  165MOL0     C21694   4.687   5.417   9.878  0.8389  0.3097  0.0105
  165MOL0     O21695   4.754   5.380   9.558  0.0408 -0.3737 -0.0345
  165MOL0     C21696   4.997   5.640   9.559 -0.1204  0.4856 -0.4010
  165MOL0     C21697   5.084   5.716   9.480 -0.6338  0.1900  0.0711
  165MOL0     N21698   5.441   6.347   9.174 -0.6373 -0.5185  1.1331
  165MOL0     N21699   5.552   6.412   9.158  1.0190 -0.8380  0.7091
  165MOL0     C21700   6.833   6.577   8.979 -0.2335  0.4650  0.9492
  165MOL0     C21701   6.970   6.581   8.992  0.4271 -0.7740 -0.3086
  165MOL0     C21702   7.390   6.630   9.137  0.2108 -0.0069  0.2500
  165MOL0     C21703   7.448   6.565   9.020 -0.2891 -0.5560  0.3399
  165MOL0     C21704   7.587   6.543   9.008  0.1950 -0.5063 -0.3042
  165MOL0     C21705   7.674   6.582   9.110  0.3356 -0.6300 -0.7028
  165MOL0     O21706   7.804   6.553   9.086 -0.1596  0.4652 -0.2973
  165MOL0     C21707   7.901   6.598   9.188  0.3279  0.3018  0.7933
  165MOL0     C21708   8.041   6.559   9.122  0.1531  0.0862  0.1448
  165MOL0     C21709   8.158   6.631   9.179  0.2704  0.4050  0.5219
  165MOL0     C21710   8.285   6.611   9.089  0.9590 -0.8418 -1.0438
  165MOL0     C21711   8.402   6.683   9.135  0.9862 -0.5781 -0.1605
  165MOL0     C21712   8.502   6.736   9.171 -0.3677  0.0605  0.2815
  165MOL0     C21713   7.620   6.636   9.228  0.0298  0.1595 -0.4703
  165MOL0     C21714   7.481   6.652   9.249 -0.4456  0.3875  0.5541
  165MOL0     H21715   7.044   6.914   9.049  4.1649 -0.6165 -1.5008
  165MOL0     H21716   6.782   6.914   8.999 -3.0250 -1.4118 -1.7292
  165MOL0     H21717   6.590   6.562   9.095 -0.8806 -1.3766 -0.5994
  165MOL0     H21718   6.542   6.523   8.932 -0.9937  0.6783 -1.6004
  165MOL0     H21719   6.365   6.700   8.938  0.5540  0.4509 -0.6992
  165MOL0     H21720   6.428   6.743   9.098  2.8366  0.5026 -2.1934
  165MOL0     H21721   6.367   6.537   9.192  1.7904  2.1177  0.2787
  165MOL0     H21722   6.338   6.464   9.038  0.2930 -0.6544  0.2534
  165MOL0     H21723   6.168   6.663   9.187  1.9921  0.2894 -1.2119
  165MOL0     H21724   6.136   6.631   9.008  0.0029 -0.7783 -0.6523
  165MOL0     H21725   6.149   6.408   9.213 -2.1525 -1.0264  0.3942
  165MOL0     H21726   6.080   6.411   9.052  2.8590  0.2982 -0.6716
  165MOL0     H21727   5.918   6.576   9.107  1.3923  1.9463 -0.4755
  165MOL0     H21728   5.969   6.558   9.284 -0.1064  0.5702 -0.3958
  165MOL0     H21729   5.916   6.291   9.229 -1.2800  0.0287  1.5640
  165MOL0     H21730   5.793   6.412   9.288 -0.5178 -1.1314 -0.9289
  165MOL0     H21731   5.816   6.247   9.045 -1.6472  0.7569 -1.6011
  165MOL0     H21732   5.796   6.418   9.011  1.0450  1.4318  1.1773
  165MOL0     H21733   5.645   6.116   9.066  1.2146  0.3195  0.1517
  165MOL0     H21734   5.389   6.023   9.087 -3.2583 -0.2329 -1.0320
  165MOL0     H21735   5.279   6.148   9.047  0.6322 -1.5035 -2.8995
  165MOL0     H21736   5.204   6.173   9.283  1.3282  2.2077 -0.1134
  165MOL0     H21737   5.344   6.094   9.340 -2.2190  0.2943  1.3841
  165MOL0     H21738   5.111   5.969   9.340 -1.5611  1.6381 -1.6387
  165MOL0     H21739   5.146   5.952   9.167 -0.6500  2.4858  0.0269
  165MOL0     H21740   5.317   5.857   9.395 -0.2085 -1.0259  0.0178
  165MOL0     H21741   5.376   5.840   9.234 -0.1122 -2.1761 -0.3306
  165MOL0     H21742   5.086   5.516   9.211  0.2803 -1.7790  0.4279
  165MOL0     H21743   4.900   5.396   9.354  2.2100 -0.8554  0.3240
  165MOL0     H21744   4.970   5.258   9.774  0.5787  2.8255 -0.1850
  165MOL0     H21745   4.889   5.088   9.929  1.4562  0.3160 -2.2333
  165MOL0     H21746   4.494   5.048   9.899 -4.0023  1.8109  0.4490
  165MOL0     H21747   4.457   5.144  10.043  1.2113  0.8577  0.7179
  165MOL0     H21748   4.554   4.941  10.187 -2.7771 -0.5278  1.3789
  165MOL0     H21749   4.535   4.846  10.042 -1.5764  0.3646  0.1889
  165MOL0     H21750   4.367   4.813  10.188  1.7016  1.0302  1.1058
  165MOL0     H21751   4.298   4.889  10.040 -2.7390  1.9060  0.9209
  165MOL0     H21752   4.359   5.084  10.259 -0.0971  1.0275 -1.2387
  165MOL0     H21753   4.243   5.074  10.135  4.2620  1.5158 -2.4556
  165MOL0     H21754   4.145   5.048  10.372 -2.3987 -1.3247  0.2303
  165MOL0     H21755   4.225   4.900  10.400 -3.8365 -0.0196  3.2868
  165MOL0     H21756   4.106   4.782  10.236  1.2884  0.8191 -0.1048
  165MOL0     H21757   4.042   4.923  10.153 -0.9128  0.5612  0.1626
  165MOL0     H21758   3.977   4.929  10.452 -0.2992  1.6005  0.1888
  165MOL0     H21759   3.902   4.994  10.308 -0.4246 -1.1930 -2.8512
  165MOL0     H21760   3.798   4.769  10.446  1.3259 -4.4549  0.6717
  165MOL0     H21761   3.913   4.693  10.341  0.4530  0.2273 -1.4174
  165MOL0     H21762   4.546   5.345  10.026 -1.0985  1.0828 -1.7260
  165MOL0     H21763   4.633   5.509   9.857 -0.2326 -0.5592 -1.2513
  165MOL0     H21764   4.979   5.688   9.655 -0.6727 -2.7078  1.2412
  165MOL0     H21765   5.119   5.813   9.515  0.4061  1.2060 -3.3500
  165MOL0     H21766   6.791   6.484   8.943 -0.5179  0.1330  2.0994
  165MOL0     H21767   7.012   6.482   8.979 -1.5994 -1.9777  1.5053
  165MOL0     H21768   7.396   6.550   8.925  0.7939 -0.7624 -0.2331
  165MOL0     H21769   7.621   6.505   8.912 -0.3739  2.6426 -1.8997
  165MOL0     H21770   7.881   6.540   9.279 -2.7655 -1.7750 -1.0375
  165MOL0     H21771   7.904   6.704   9.215 -2.3584 -0.4944  5.1446
  165MOL0     H21772   8.046   6.449   9.122 -3.2706 -0.1760 -0.8723
  165MOL0     H21773   8.031   6.576   9.014  0.6955  1.5784  0.3038
  165MOL0     H21774   8.169   6.603   9.284 -1.7466 -2.1733  0.1445
  165MOL0     H21775   8.128   6.736   9.185 -0.9585  0.1501 -0.6364
  165MOL0     H21776   8.305   6.503   9.090  1.7714 -0.7458 -2.7268
  165MOL0     H21777   8.274   6.640   8.984  4.3122  1.7959 -0.8379
  165MOL0     H21778   8.595   6.774   9.208  1.2680 -2.1216 -1.3278
  165MOL0     H21779   7.693   6.672   9.300  0.5705  2.9371 -2.2403
  165MOL0     H21780   7.453   6.708   9.338  0.2973  1.4643  0.1341
  166MOL0     O21781   5.811   4.767   0.280 -0.3306  0.8711 -0.6861
  166MOL0     C21782   5.689   4.763   0.295 -0.2211 -0.3970 -0.0286
  166MOL0     O21783   5.616   4.857   0.355 -0.5000 -0.0927  0.0769
  166MOL0     C21784   5.679   4.943   0.442 -0.5613  0.8089  0.0372
  166MOL0     C21785   5.700   4.927   0.575 -0.3340  1.6080 -0.1722
  166MOL0     C21786   5.790   5.002   0.654  0.1035  0.4258 -0.1982
  166MOL0     C21787   5.863   5.098   0.595 -0.1851 -0.5070 -0.6098
  166MOL0     O21788   5.942   5.175   0.673  0.2841 -0.5668 -1.0273
  166MOL0     C21789   5.982   5.305   0.629  0.5473  0.0883  0.0790
  166MOL0     C21790   6.060   5.385   0.738 -0.6036  0.2767 -0.3474
  166MOL0     C21791   5.974   5.390   0.863 -0.0778 -0.2379 -0.3895
  166MOL0     C21792   5.999   5.515   0.957 -0.1986  1.1681  0.8107
  166MOL0     C21793   6.146   5.526   0.992 -0.4584 -0.1155 -0.3480
  166MOL0     C21794   6.176   5.636   1.087 -0.1247  0.3128  0.9591
  166MOL0     C21795   6.326   5.668   1.095 -1.1214  0.3013 -0.1506
  166MOL0     C21796   6.358   5.764   1.213 -0.0790  0.2093  0.6840
  166MOL0     N21797   6.305   5.898   1.191  0.0728  0.3839 -0.1049
  166MOL0     C21798   6.299   5.995   1.286  1.3815  0.0052  1.2273
  166MOL0     C21799   6.261   6.105   1.216  0.0088  1.3772  0.3236
  166MOL0     C21800   6.245   6.255   1.252  0.6584 -0.3080  0.1325
  166MOL0     C21801   6.213   6.278   1.402 -0.0453  0.4824  0.1001
  166MOL0     C21802   6.241   6.416   1.455 -0.1199 -1.2898 -0.7120
  166MOL0     C21803   6.173   6.544   1.371 -0.6503 -0.2244 -0.2234
  166MOL0     O21804   6.032   6.567   1.393  0.0709  0.0038  0.0686
  166MOL0     C21805   5.945   6.512   1.307 -0.5205 -1.0845 -0.3435
  166MOL0     C21806   5.867   6.397   1.339 -0.1537  1.1421 -0.7367
  166MOL0     C21807   5.774   6.342   1.255 -0.7578  0.0976 -0.1273
  166MOL0     C21808   5.742   6.412   1.137 -0.6366  0.3224 -0.1987
  166MOL0     C21809   5.632   6.373   1.062 -0.9391 -0.1448 -0.6226
  166MOL0     O21810   5.552   6.291   1.130  0.2043 -0.4197  0.3056
  166MOL0     C21811   5.432   6.256   1.071  0.2556 -1.5242 -0.1769
  166MOL0     C21812   5.396   6.125   1.071 -0.2819 -0.0144  0.0570
  166MOL0     C21813   5.269   6.090   1.025  0.5104 -0.0707 -0.7404
  166MOL0     C21814   5.171   6.188   0.988  0.2819 -0.6000  0.4100
  166MOL0     O21815   5.039   6.167   0.951 -0.7387  0.5131  0.1139
  166MOL0     C21816   4.963   6.078   1.036 -0.6710  0.0031 -0.3921
  166MOL0     C21817   4.813   6.080   1.029  0.2155 -0.2551 -0.3766
  166MOL0     C21818   4.753   6.218   1.071 -0.1964  0.1964 -0.3467
  166MOL0     C21819   4.604   6.234   1.031 -0.8772 -0.2718  0.4331
  166MOL0     C21820   4.556   6.377   1.079  0.8436  0.5565  0.3637
  166MOL0     C21821   4.406   6.367   1.069  0.2469  0.1995 -0.4174
  166MOL0     C21822   4.352   6.508   1.087 -0.3067  0.5097 -0.7994
  166MOL0     C21823   4.193   6.497   1.093 -0.5866  0.3509  0.0545
  166MOL0    Cl21824   4.097   6.639   1.127  0.0257 -0.6012 -0.1842
  166MOL0     C21825   5.212   6.319   0.989 -0.3403 -0.2649 -0.5963
  166MOL0     C21826   5.339   6.361   1.035  0.4519  0.3287 -0.3188
  166MOL0     O21827   5.628   6.410   0.946 -0.7633 -0.3034 -0.1365
  166MOL0     C21828   5.808   6.529   1.109  0.1851 -0.4985 -1.1179
  166MOL0     C21829   5.913   6.576   1.191 -0.5708 -1.1621  0.3502
  166MOL0     N21830   6.229   6.064   1.088 -0.2570  0.3955  0.7038
  166MOL0     N21831   6.272   5.948   1.071 -0.8804  0.1993 -0.1857
  166MOL0     C21832   5.832   5.130   0.459 -1.3938 -0.2906 -0.3566
  166MOL0     C21833   5.760   5.038   0.385 -0.0714 -0.1940  0.2610
  166MOL0     C21834   5.618   4.645   0.246  0.4519  0.4738  0.4508
  166MOL0     C21835   5.479   4.632   0.281  0.9312  0.2348  0.0724
  166MOL0     C21836   5.394   4.525   0.232  0.7065  0.4892  0.6651
  166MOL0     C21837   5.459   4.429   0.148  0.2856  0.0853 -0.1590
  166MOL0     O21838   5.372   4.344   0.080 -0.3735  0.4218 -1.1670
  166MOL0     C21839   5.431   4.237   0.005  0.1273  0.2162 -0.1352
  166MOL0     C21840   5.317   4.156  -0.070 -0.2854 -0.1268  0.4303
  166MOL0     C21841   5.225   4.092   0.030  0.2856 -0.5068  0.6042
  166MOL0     C21842   5.102   4.011  -0.027  0.6513  0.7537 -0.4813
  166MOL0     C21843   4.990   4.099  -0.069  0.2438 -0.3579 -0.5058
  166MOL0     C21844   4.900   4.180  -0.100 -0.0731 -0.6374  0.3397
  166MOL0     C21845   5.597   4.445   0.116 -0.3938 -0.2112  0.4685
  166MOL0     C21846   5.680   4.546   0.160  0.1430 -0.6792 -0.6850
  166MOL0     H21847   5.648   4.853   0.635 -0.5458  0.8656 -1.2380
  166MOL0     H21848   5.800   4.974   0.759 -0.9386 -0.6925 -0.3781
  166MOL0     H21849   5.892   5.358   0.595  0.4701 -0.7254 -1.0274
  166MOL0     H21850   6.052   5.284   0.548  0.3399  1.4111 -0.4693
  166MOL0     H21851   6.073   5.488   0.702  0.2391  0.5764  0.7321
  166MOL0     H21852   6.161   5.346   0.754 -0.2400  1.4933  0.5575
  166MOL0     H21853   5.996   5.302   0.924 -0.1346 -0.0966 -0.1646
  166MOL0     H21854   5.867   5.388   0.842 -0.6002  0.7231  1.8289
  166MOL0     H21855   5.965   5.609   0.911 -2.3072 -0.0078 -0.1896
  166MOL0     H21856   5.934   5.496   1.042 -1.4975 -0.4243 -0.4589
  166MOL0     H21857   6.199   5.542   0.897  0.2062 -0.4481 -0.0421
  166MOL0     H21858   6.186   5.431   1.027 -1.0543  0.1707  1.1525
  166MOL0     H21859   6.132   5.609   1.183  2.8725  0.9385  2.6493
  166MOL0     H21860   6.119   5.723   1.052  0.5103 -0.6897 -3.0908
  166MOL0     H21861   6.389   5.579   1.104  3.4285  3.1106 -0.6486
  166MOL0     H21862   6.362   5.707   0.999 -0.6697 -2.3014 -1.1243
  166MOL0     H21863   6.467   5.765   1.229  0.3449 -1.4469 -1.5759
  166MOL0     H21864   6.317   5.715   1.302 -0.1461  0.6962  0.9232
  166MOL0     H21865   6.318   5.970   1.389 -1.0971 -1.9999  1.2899
  166MOL0     H21866   6.165   6.315   1.208  0.1056 -1.3130 -0.2678
  166MOL0     H21867   6.344   6.296   1.230  0.6705 -0.1408  0.4860
  166MOL0     H21868   6.269   6.203   1.459 -1.0063 -0.1855  0.1879
  166MOL0     H21869   6.108   6.260   1.426 -0.1907 -0.5419 -1.1845
  166MOL0     H21870   6.221   6.441   1.559  0.9786 -0.6287 -0.6370
  166MOL0     H21871   6.349   6.438   1.453 -0.2067 -0.8078 -0.2956
  166MOL0     H21872   6.189   6.514   1.266  1.5206  1.8829 -0.5781
  166MOL0     H21873   6.237   6.628   1.399 -2.2246  0.3060  2.0164
  166MOL0     H21874   5.885   6.344   1.431 -0.7007  1.5510 -0.3931
  166MOL0     H21875   5.720   6.257   1.296 -1.0554  0.8035  0.9851
  166MOL0     H21876   5.473   6.054   1.100  0.5577  1.0479  0.4630
  166MOL0     H21877   5.244   5.987   1.006 -0.8022 -0.4192  2.3421
  166MOL0     H21878   4.990   6.098   1.140  2.0281 -0.8379 -0.8532
  166MOL0     H21879   4.994   5.975   1.014 -1.1346 -0.1462 -0.3445
  166MOL0     H21880   4.779   6.000   1.095  1.1685 -1.6451 -1.4966
  166MOL0     H21881   4.776   6.061   0.928 -0.5659  2.4728 -0.7038
  166MOL0     H21882   4.816   6.291   1.019  0.8657 -1.7950 -1.9929
  166MOL0     H21883   4.765   6.233   1.178  2.1064  1.7635 -0.7369
  166MOL0     H21884   4.587   6.216   0.924  3.2504  2.0030 -0.8354
  166MOL0     H21885   4.547   6.159   1.086  0.7105 -0.9831  1.1707
  166MOL0     H21886   4.591   6.453   1.010  1.5363 -0.0825 -0.0028
  166MOL0     H21887   4.592   6.414   1.175  2.2728 -0.4817  0.2554
  166MOL0     H21888   4.365   6.301   1.146  3.1428  1.3055  2.2829
  166MOL0     H21889   4.378   6.328   0.971  0.8532 -2.3557  0.3485
  166MOL0     H21890   4.395   6.551   1.177 -0.3831  1.9242 -1.4146
  166MOL0     H21891   4.385   6.570   1.004  0.2624 -2.2267 -2.7738
  166MOL0     H21892   4.154   6.415   1.153 -1.8227 -0.9601 -2.3776
  166MOL0     H21893   4.167   6.464   0.992  1.3678 -2.8145  0.4590
  166MOL0     H21894   5.161   6.412   0.963  0.3574  0.3070  0.0467
  166MOL0     H21895   5.350   6.469   1.037 -2.0273  0.6338  0.8218
  166MOL0     H21896   5.779   6.590   1.023 -2.8775 -1.4420 -0.8703
  166MOL0     H21897   5.951   6.676   1.176 -0.0026 -1.7385 -2.7152
  166MOL0     H21898   5.883   5.207   0.403  1.9711  0.0556  2.8354
  166MOL0     H21899   5.755   5.040   0.276 -0.6124  3.3451  0.2623
  166MOL0     H21900   5.428   4.707   0.341  2.3754 -1.6491  4.0287
  166MOL0     H21901   5.287   4.521   0.249  0.5102  0.4590 -0.5265
  166MOL0     H21902   5.496   4.180   0.072 -2.7183 -2.6365  0.4422
  166MOL0     H21903   5.500   4.279  -0.068 -0.5235 -1.5825 -1.8743
  166MOL0     H21904   5.257   4.222  -0.132 -1.0841 -1.3868 -0.1916
  166MOL0     H21905   5.360   4.084  -0.141  0.4295  1.0115 -0.3190
  166MOL0     H21906   5.195   4.165   0.106 -0.7940  1.6995 -1.7363
  166MOL0     H21907   5.291   4.016   0.072 -2.9368 -3.2574  1.1021
  166MOL0     H21908   5.135   3.947  -0.109 -0.1583 -0.8788  0.4185
  166MOL0     H21909   5.064   3.947   0.053 -2.2807  0.3571 -2.0627
  166MOL0     H21910   4.827   4.255  -0.122  2.7069  2.1665  0.1215
  166MOL0     H21911   5.649   4.366   0.063 -2.9902 -1.7068 -0.0435
  166MOL0     H21912   5.786   4.536   0.139  0.1394  0.2423 -1.1755
  167MOL0     O21913   6.751   2.014   4.948  0.6409  0.4569 -0.1915
  167MOL0     C21914   6.736   1.919   4.874 -0.2442 -0.1292  0.4440
  167MOL0     O21915   6.822   1.808   4.861  0.5451  0.1831 -0.0491
  167MOL0     C21916   6.948   1.809   4.911  0.3865  0.1084 -0.6476
  167MOL0     C21917   7.021   1.921   4.960 -0.4044  0.2437 -0.1093
  167MOL0     C21918   7.144   1.904   5.019  0.0056  0.3267  0.7993
  167MOL0     C21919   7.197   1.773   5.023  0.1475  0.2042  1.1020
  167MOL0     O21920   7.324   1.747   5.071 -0.6085 -0.0086  0.2501
  167MOL0     C21921   7.323   1.711   5.208 -0.1056 -0.0822  0.4847
  167MOL0     C21922   7.459   1.670   5.247 -0.6103 -0.4800  0.9329
  167MOL0     C21923   7.511   1.551   5.156 -1.1649 -0.6658  0.0177
  167MOL0     C21924   7.649   1.507   5.208  0.4486  0.6571  0.4951
  167MOL0     C21925   7.676   1.371   5.128  0.0773  0.5621  0.8014
  167MOL0     C21926   7.598   1.252   5.186 -0.0030 -0.0709 -0.7027
  167MOL0     C21927   7.626   1.226   5.338 -0.2532  0.8243 -0.8415
  167MOL0     C21928   7.578   1.079   5.374  0.0292 -0.3602 -0.2001
  167MOL0     N21929   7.627   1.058   5.510  0.2773 -0.1880 -0.6383
  167MOL0     C21930   7.742   1.003   5.573 -0.0145 -1.1087  0.7699
  167MOL0     C21931   7.721   1.010   5.706 -0.2672 -1.0033  0.3189
  167MOL0     C21932   7.812   0.943   5.815  0.7161 -0.8493  0.2373
  167MOL0     C21933   7.769   0.987   5.958 -0.4285  0.0087 -0.5268
  167MOL0     C21934   7.875   0.952   6.057  1.1569 -0.1469  0.5351
  167MOL0     C21935   7.982   1.054   6.073 -1.3992  0.6895 -1.0974
  167MOL0     O21936   8.101   0.988   6.118  0.7887 -0.0324  0.2366
  167MOL0     C21937   8.117   0.965   6.249 -0.2211  0.6419 -0.7524
  167MOL0     C21938   8.022   0.983   6.353 -0.4319  0.2287 -0.2514
  167MOL0     C21939   8.061   0.970   6.492  0.7850 -0.2295 -0.1946
  167MOL0     C21940   8.196   0.931   6.521  0.4864  0.0409 -0.7678
  167MOL0     C21941   8.239   0.909   6.663  0.1857  0.5885 -0.8762
  167MOL0     O21942   8.157   0.941   6.766  0.0006  0.1166 -0.1573
  167MOL0     C21943   8.206   0.939   6.895 -0.1380  0.3605  0.6439
  167MOL0     C21944   8.149   0.866   7.009  0.1312 -0.2401 -0.4599
  167MOL0     C21945   8.209   0.887   7.135 -0.2457 -0.5641 -0.1619
  167MOL0     C21946   8.310   0.976   7.153 -0.4194  1.1402  0.7800
  167MOL0     O21947   8.367   0.983   7.271 -0.2052  0.5141 -0.0688
  167MOL0     C21948   8.464   1.075   7.310 -0.2428 -0.0835  0.0507
  167MOL0     C21949   8.607   1.027   7.298  0.1557  0.4870  0.4143
  167MOL0     C21950   8.699   1.127   7.360 -0.4398 -0.4636  0.4373
  167MOL0     C21951   8.850   1.084   7.360  0.1716 -0.1740 -0.1570
  167MOL0     C21952   8.937   1.186   7.428  0.1861  0.1030  0.6663
  167MOL0     C21953   9.080   1.143   7.460  0.3714  0.2500  0.6884
  167MOL0     C21954   9.141   1.238   7.570  0.5858  0.6870  0.8742
  167MOL0     C21955   9.286   1.207   7.624  0.2627  0.2496 -0.3089
  167MOL0    Cl21956   9.382   1.229   7.476 -0.5214 -0.4270  0.4538
  167MOL0     C21957   8.359   1.044   7.041 -0.0686  0.5038 -0.0736
  167MOL0     C21958   8.309   1.025   6.920  0.9412 -0.8070  0.0611
  167MOL0     O21959   8.357   0.884   6.682  0.3213  0.0874  0.4274
  167MOL0     C21960   8.285   0.912   6.418 -0.1310 -0.3436  0.1609
  167MOL0     C21961   8.248   0.928   6.283 -0.5283  0.1434 -0.3980
  167MOL0     N21962   7.609   1.083   5.727 -0.1339 -0.8761 -0.2882
  167MOL0     N21963   7.546   1.102   5.616  0.3090  0.1944  0.1772
  167MOL0     C21964   7.125   1.655   4.973  0.9003 -0.8517  0.1793
  167MOL0     C21965   6.996   1.680   4.920 -0.1685  0.2307  0.2598
  167MOL0     C21966   6.614   1.925   4.800  0.0300 -0.0685  1.1070
  167MOL0     C21967   6.597   1.836   4.686 -0.0121 -0.3008 -0.3298
  167MOL0     C21968   6.474   1.849   4.614 -0.0573  0.3491 -0.1613
  167MOL0     C21969   6.377   1.942   4.655  1.2272  0.4325  0.0441
  167MOL0     O21970   6.266   1.942   4.576  1.3253  0.4643 -0.1521
  167MOL0     C21971   6.156   2.033   4.615 -0.5750 -0.4349 -0.5802
  167MOL0     C21972   6.041   1.999   4.523 -1.1201 -0.3627  0.0677
  167MOL0     C21973   5.916   2.081   4.561 -0.1777  0.4646 -0.1961
  167MOL0     C21974   5.794   2.052   4.475  0.3705  0.5356  0.5174
  167MOL0     C21975   5.676   2.119   4.534 -0.0971 -1.3178  0.0121
  167MOL0     C21976   5.571   2.173   4.564  0.6307  0.5074 -0.5122
  167MOL0     C21977   6.392   2.019   4.774  0.0215  0.3178 -1.0658
  167MOL0     C21978   6.514   2.017   4.836  0.0968  0.1451 -0.9217
  167MOL0     H21979   7.000   2.027   4.959  3.4402  1.2573  2.1530
  167MOL0     H21980   7.209   1.984   5.052  0.4036  0.1911  0.3506
  167MOL0     H21981   7.255   1.628   5.229  3.4277 -2.7901  2.2421
  167MOL0     H21982   7.281   1.796   5.261 -2.4109 -1.3380  0.8098
  167MOL0     H21983   7.450   1.648   5.353 -1.8121 -2.7151  0.4286
  167MOL0     H21984   7.530   1.753   5.234  0.7715 -1.7234  0.2314
  167MOL0     H21985   7.514   1.583   5.052 -0.3653 -3.6537 -0.9571
  167MOL0     H21986   7.443   1.466   5.163  0.9314 -2.3127  2.8423
  167MOL0     H21987   7.728   1.575   5.176  0.6470 -0.1424 -0.7726
  167MOL0     H21988   7.647   1.500   5.317 -2.0111  0.6656  0.5038
  167MOL0     H21989   7.783   1.348   5.134  0.1730  0.7011 -0.1656
  167MOL0     H21990   7.654   1.398   5.025 -0.9306  1.6616  1.2879
  167MOL0     H21991   7.630   1.164   5.128 -0.5351  0.9667 -2.6417
  167MOL0     H21992   7.494   1.276   5.163 -0.2029  2.1709  2.0587
  167MOL0     H21993   7.731   1.229   5.368 -0.1608 -2.6972 -0.3413
  167MOL0     H21994   7.573   1.300   5.400  4.3577  1.0704  3.3976
  167MOL0     H21995   7.625   1.005   5.309  3.9275  2.2718 -0.7212
  167MOL0     H21996   7.468   1.082   5.372 -0.0308  1.6206 -3.9482
  167MOL0     H21997   7.832   0.971   5.522  0.6547  3.1470 -1.1730
  167MOL0     H21998   7.915   0.975   5.796  1.2065 -1.7984  1.2431
  167MOL0     H21999   7.815   0.834   5.801  2.8093 -0.5837 -2.2063
  167MOL0     H22000   7.671   0.946   5.985 -0.0933 -1.5372 -1.5230
  167MOL0     H22001   7.762   1.096   5.959  3.5809  0.4272 -0.3353
  167MOL0     H22002   7.817   0.944   6.149 -2.0532  0.5386 -1.2547
  167MOL0     H22003   7.904   0.848   6.038 -1.6501 -0.8991 -0.1915
  167MOL0     H22004   7.955   1.132   6.145  0.5184 -0.0241  0.4924
  167MOL0     H22005   7.997   1.092   5.972 -0.0615  2.3056 -0.3420
  167MOL0     H22006   7.931   1.032   6.319 -0.4489 -0.2795 -0.9660
  167MOL0     H22007   7.995   0.996   6.574  1.5008  4.5730 -0.8461
  167MOL0     H22008   8.063   0.800   6.999  0.7612 -1.7462  2.7706
  167MOL0     H22009   8.179   0.824   7.218  1.2825 -1.5216 -0.3080
  167MOL0     H22010   8.446   1.092   7.417 -1.2077 -0.5781 -0.0165
  167MOL0     H22011   8.456   1.176   7.271  1.8680 -0.1847 -0.7815
  167MOL0     H22012   8.637   1.002   7.195  0.3213  0.2720  0.5130
  167MOL0     H22013   8.610   0.932   7.352  0.9172  0.1639 -0.1668
  167MOL0     H22014   8.667   1.131   7.465  0.6218  0.9341  0.7467
  167MOL0     H22015   8.683   1.230   7.327  0.9328  0.1558  1.5592
  167MOL0     H22016   8.857   0.988   7.413  1.7675 -0.5531 -0.9655
  167MOL0     H22017   8.887   1.066   7.258 -1.7674 -2.3554 -0.5712
  167MOL0     H22018   8.893   1.217   7.523 -1.0372  2.5875 -0.6179
  167MOL0     H22019   8.953   1.266   7.355  1.5501 -1.0124 -0.3146
  167MOL0     H22020   9.128   1.141   7.362 -1.4734 -1.9203 -0.2648
  167MOL0     H22021   9.093   1.043   7.502  0.5299  0.4681  1.1669
  167MOL0     H22022   9.145   1.337   7.525  0.0486 -0.1333 -1.0747
  167MOL0     H22023   9.065   1.233   7.648 -0.8329 -1.8378 -0.5298
  167MOL0     H22024   9.286   1.100   7.647 -0.3972  0.1010 -0.9596
  167MOL0     H22025   9.320   1.264   7.711  0.9056 -0.8609  0.1949
  167MOL0     H22026   8.451   1.098   7.059 -0.5304  1.5928 -0.8718
  167MOL0     H22027   8.353   1.087   6.843 -0.2742  1.2562  0.9256
  167MOL0     H22028   8.386   0.891   6.450 -0.5282  0.0037  1.7168
  167MOL0     H22029   8.325   0.887   6.218 -2.4372 -5.2325  0.1671
  167MOL0     H22030   7.179   1.562   4.988  2.5519 -0.1852 -1.3022
  167MOL0     H22031   6.934   1.596   4.890  1.0423 -1.3787  2.0012
  167MOL0     H22032   6.661   1.749   4.676 -1.8959 -2.3198  2.9638
  167MOL0     H22033   6.470   1.784   4.527 -3.2477  1.0218 -0.6493
  167MOL0     H22034   6.169   2.142   4.608 -0.6498 -0.2505  1.4627
  167MOL0     H22035   6.131   2.026   4.721 -0.0242  0.6938 -0.3624
  167MOL0     H22036   6.073   2.016   4.420  0.4404 -3.2163 -0.0409
  167MOL0     H22037   6.005   1.895   4.523 -2.0166 -0.1441 -3.1367
  167MOL0     H22038   5.944   2.186   4.553  3.4757 -0.2212  1.4508
  167MOL0     H22039   5.889   2.056   4.664  1.3270 -0.7370 -0.0429
  167MOL0     H22040   5.825   2.089   4.377 -1.2905 -0.0103 -0.2477
  167MOL0     H22041   5.758   1.948   4.468  0.5603  0.4130  1.2721
  167MOL0     H22042   5.473   2.213   4.583  1.2120  0.2616  4.1300
  167MOL0     H22043   6.313   2.080   4.817  2.9746  1.9078  2.7077
  167MOL0     H22044   6.523   2.082   4.923 -0.8041  0.0527 -0.7403
  168MOL0     O22045   8.989  11.034   1.902 -0.7907 -0.2154  0.4907
  168MOL0     C22046   8.996  10.914   1.877 -0.5659 -0.0172 -0.8790
  168MOL0     O22047   8.902  10.837   1.821  0.3005  0.4984 -0.0769
  168MOL0     C22048   8.779  10.892   1.815  0.2901 -0.0755 -0.1026
  168MOL0     C22049   8.717  10.946   1.925  0.2523  0.2209 -0.5731
  168MOL0     C22050   8.595  11.021   1.898  0.2256  0.1947 -1.0412
  168MOL0     C22051   8.538  11.026   1.772  0.1768 -0.6133  0.9707
  168MOL0     O22052   8.431  11.100   1.733  0.3106 -0.3946 -0.2462
  168MOL0     C22053   8.352  11.157   1.831  0.2156 -0.4063 -0.1176
  168MOL0     C22054   8.251  11.253   1.771  0.3318 -1.1942  0.4216
  168MOL0     C22055   8.122  11.167   1.752 -0.1094 -0.0117  0.3604
  168MOL0     C22056   8.014  11.256   1.677 -0.1066 -0.1623 -0.2158
  168MOL0     C22057   7.885  11.200   1.624 -0.6115  0.6210  0.0127
  168MOL0     C22058   7.794  11.134   1.721 -0.2943 -0.1131  0.0897
  168MOL0     C22059   7.647  11.095   1.665 -0.7723 -0.6019 -0.3715
  168MOL0     C22060   7.648  10.976   1.562 -0.1655 -0.2981 -0.7404
  168MOL0     N22061   7.513  10.953   1.513 -0.2617  0.6045 -0.3337
  168MOL0     C22062   7.410  10.928   1.596  0.4281  0.4914 -0.2935
  168MOL0     C22063   7.302  10.924   1.517  0.2728  0.8547 -0.4388
  168MOL0     C22064   7.157  10.891   1.560  0.4646  0.6366  1.1523
  168MOL0     C22065   7.063  10.956   1.460 -0.0430  0.1201 -0.8595
  168MOL0     C22066   6.926  10.935   1.532  0.3768 -0.2191  0.4049
  168MOL0     C22067   6.815  10.966   1.434 -0.5026 -0.4119 -0.2287
  168MOL0     O22068   6.815  10.888   1.315  0.4925 -0.3894 -0.0358
  168MOL0     C22069   6.704  10.906   1.230 -0.7323 -0.1712  0.0402
  168MOL0     C22070   6.610  11.006   1.244 -0.1520  0.7750  0.1296
  168MOL0     C22071   6.507  11.017   1.148 -0.5420 -0.3243 -0.8272
  168MOL0     C22072   6.499  10.933   1.034 -0.2786 -0.2155 -0.7882
  168MOL0     C22073   6.393  10.951   0.928 -0.5283  0.0356 -0.5089
  168MOL0     O22074   6.397  10.849   0.840 -0.4194  0.0441  1.2477
  168MOL0     C22075   6.298  10.849   0.735  0.4508 -0.4037 -0.1047
  168MOL0     C22076   6.347  10.856   0.611  0.1769 -0.0700  0.2157
  168MOL0     C22077   6.255  10.848   0.504 -0.5335  0.0167  0.5620
  168MOL0     C22078   6.116  10.825   0.531 -0.2003 -0.4917 -0.8418
  168MOL0     O22079   6.015  10.827   0.439 -0.9031  0.0790 -0.3563
  168MOL0     C22080   6.049  10.781   0.309 -0.8849  0.0149  0.0860
  168MOL0     C22081   5.931  10.778   0.211 -0.7192 -0.1168 -0.3529
  168MOL0     C22082   5.794  10.767   0.270  0.6695  0.2206 -0.2414
  168MOL0     C22083   5.693  10.685   0.195 -0.4030  0.5661 -0.4434
  168MOL0     C22084   5.551  10.699   0.255  0.5488 -0.0649  0.3885
  168MOL0     C22085   5.440  10.646   0.155  1.4869  0.1533 -0.4455
  168MOL0     C22086   5.298  10.659   0.215 -0.4116 -0.4308  0.4438
  168MOL0     C22087   5.183  10.661   0.118 -0.4934  0.0156  0.1149
  168MOL0    Cl22088   5.045  10.675   0.232 -0.0914 -0.0005  0.1866
  168MOL0     C22089   6.066  10.818   0.661  0.6004  0.3047 -0.4462
  168MOL0     C22090   6.164  10.838   0.763  0.3726  0.1573  0.3275
  168MOL0     O22091   6.304  11.036   0.940 -0.4281  0.7704 -0.0431
  168MOL0     C22092   6.601  10.838   1.016 -0.2000 -0.2287  0.4356
  168MOL0     C22093   6.700  10.820   1.110 -0.1566 -0.9189 -0.0692
  168MOL0     N22094   7.349  10.948   1.389 -0.4962 -0.3699 -0.2658
  168MOL0     N22095   7.480  10.968   1.384  0.0665  0.4711  0.2454
  168MOL0     C22096   8.609  10.975   1.658 -0.2666 -0.0168  1.0668
  168MOL0     C22097   8.718  10.903   1.691  0.4390 -0.1414  0.8090
  168MOL0     C22098   9.134  10.854   1.872  0.0303 -0.3598  1.1980
  168MOL0     C22099   9.160  10.719   1.860  0.9645 -0.5102 -0.9225
  168MOL0     C22100   9.294  10.668   1.866 -0.2062  0.9782  0.0712
  168MOL0     C22101   9.401  10.754   1.856 -0.1459 -0.2557  0.3229
  168MOL0     O22102   9.533  10.706   1.850  0.3547  0.1374  0.2399
  168MOL0     C22103   9.558  10.568   1.846 -0.7011  1.0843  0.1077
  168MOL0     C22104   9.709  10.531   1.856  0.0377 -1.0449 -0.9121
  168MOL0     C22105   9.786  10.603   1.746 -0.2616  0.5533  0.4725
  168MOL0     C22106   9.723  10.593   1.607 -0.0775  0.3932 -0.6185
  168MOL0     C22107   9.819  10.631   1.508 -0.0397  0.4210  0.4055
  168MOL0     C22108   9.896  10.679   1.428 -0.3046  0.7723 -0.4034
  168MOL0     C22109   9.375  10.887   1.863 -0.3840  0.3227  0.4861
  168MOL0     C22110   9.247  10.939   1.869 -0.0495  0.2035  0.3076
  168MOL0     H22111   8.760  10.957   2.024  0.7160  5.8973 -1.0790
  168MOL0     H22112   8.560  11.085   1.979  1.0906  0.3918 -0.8047
  168MOL0     H22113   8.415  11.216   1.899  1.6614  1.9105 -3.2080
  168MOL0     H22114   8.316  11.070   1.886  0.0278 -2.1940 -2.9174
  168MOL0     H22115   8.296  11.281   1.675  1.8178 -3.3950  0.4093
  168MOL0     H22116   8.222  11.340   1.832  1.3019 -0.7491  0.2731
  168MOL0     H22117   8.088  11.133   1.851  0.2946  1.9104  1.2117
  168MOL0     H22118   8.150  11.084   1.686  2.0088  0.8904  0.0524
  168MOL0     H22119   7.988  11.342   1.740 -0.5208  0.4236 -1.1751
  168MOL0     H22120   8.074  11.300   1.597  0.6255  1.3233  1.0868
  168MOL0     H22121   7.905  11.138   1.537  0.9116 -0.1630  0.8797
  168MOL0     H22122   7.834  11.291   1.590 -0.1577  0.4419 -1.1752
  168MOL0     H22123   7.791  11.204   1.805  2.9996 -1.1393  1.2315
  168MOL0     H22124   7.857  11.046   1.735  2.0095  0.9049 -2.8803
  168MOL0     H22125   7.585  11.065   1.750  1.0499 -0.1645  1.1831
  168MOL0     H22126   7.605  11.193   1.638  5.3042  2.7145  0.4995
  168MOL0     H22127   7.692  10.882   1.597  0.6261  0.1566 -0.5002
  168MOL0     H22128   7.722  10.994   1.483  2.1262  1.7044  1.6991
  168MOL0     H22129   7.415  10.909   1.702  0.6781 -1.0328 -0.5500
  168MOL0     H22130   7.140  10.928   1.662  0.9023 -1.3605  1.9941
  168MOL0     H22131   7.133  10.784   1.562 -2.7547  1.0841 -2.6291
  168MOL0     H22132   7.062  10.902   1.365  3.2704 -0.6532 -0.6020
  168MOL0     H22133   7.075  11.062   1.435 -0.7521 -0.1755 -2.5803
  168MOL0     H22134   6.928  10.837   1.579 -1.3030  1.1713  3.6851
  168MOL0     H22135   6.908  11.011   1.609 -1.5859  1.3231 -1.4540
  168MOL0     H22136   6.821  11.071   1.406 -1.6297 -0.1545  0.4481
  168MOL0     H22137   6.721  10.944   1.484  0.8802 -6.4179  0.5405
  168MOL0     H22138   6.600  11.078   1.324 -1.7783  2.0200 -1.1069
  168MOL0     H22139   6.440  11.102   1.154  2.0742  1.8143  0.0072
  168MOL0     H22140   6.450  10.881   0.591  0.1939 -0.4923 -0.2541
  168MOL0     H22141   6.297  10.865   0.405 -2.5203  0.1777 -0.3033
  168MOL0     H22142   6.084  10.677   0.313 -1.4369 -0.2542 -1.2859
  168MOL0     H22143   6.129  10.840   0.264 -0.3323 -0.5073  0.3710
  168MOL0     H22144   5.949  10.698   0.138 -1.5524 -0.6358 -0.0112
  168MOL0     H22145   5.943  10.862   0.143  3.3953 -1.2632 -1.3173
  168MOL0     H22146   5.751  10.868   0.274 -2.6258 -0.9739 -2.1018
  168MOL0     H22147   5.795  10.736   0.375  2.3469 -0.5838 -0.4667
  168MOL0     H22148   5.685  10.718   0.091  0.4071 -0.4742 -0.8549
  168MOL0     H22149   5.725  10.581   0.199  1.9633  1.2866  0.7106
  168MOL0     H22150   5.528  10.804   0.275 -0.5611  0.2846 -2.2547
  168MOL0     H22151   5.547  10.642   0.348 -1.2862 -2.2490 -0.9318
  168MOL0     H22152   5.462  10.541   0.134  3.1403 -0.0487  1.8867
  168MOL0     H22153   5.441  10.699   0.059  2.0604  2.1791  0.6125
  168MOL0     H22154   5.283  10.598   0.304 -1.0766  1.5700  1.7778
  168MOL0     H22155   5.296  10.757   0.264  0.7618 -0.2538  0.1523
  168MOL0     H22156   5.164  10.572   0.057 -2.2626 -1.1115  2.1551
  168MOL0     H22157   5.187  10.744   0.047  0.4606 -0.8848 -0.9089
  168MOL0     H22158   5.963  10.794   0.685  1.0288 -0.2687  0.8810
  168MOL0     H22159   6.143  10.838   0.870 -1.2710  0.4044  0.0224
  168MOL0     H22160   6.620  10.770   0.934  0.4827 -0.2583  0.6100
  168MOL0     H22161   6.771  10.738   1.099  1.2006  0.5005 -3.2466
  168MOL0     H22162   8.583  10.974   1.553  0.8225 -3.1821  0.7237
  168MOL0     H22163   8.767  10.849   1.611 -2.3719  0.9240 -1.8190
  168MOL0     H22164   9.071  10.657   1.860  0.6269 -0.0677 -2.6504
  168MOL0     H22165   9.301  10.560   1.869  1.3274  1.0665  0.7087
  168MOL0     H22166   9.517  10.514   1.760  1.4187 -0.4686  0.0033
  168MOL0     H22167   9.509  10.531   1.936 -2.4845  0.3061 -1.1188
  168MOL0     H22168   9.752  10.570   1.949 -0.0812 -1.8692 -0.4971
  168MOL0     H22169   9.729  10.423   1.859  0.3558 -0.9768 -0.2872
  168MOL0     H22170   9.888  10.564   1.739  1.0823  3.5228  1.6665
  168MOL0     H22171   9.795  10.711   1.765  2.8252  0.6936 -1.2068
  168MOL0     H22172   9.697  10.491   1.580  2.2128 -0.5554  0.4532
  168MOL0     H22173   9.637  10.660   1.602 -0.0427  0.4089 -0.9994
  168MOL0     H22174   9.975  10.723   1.370  0.7131 -0.7788 -0.2717
  168MOL0     H22175   9.457  10.958   1.855 -1.8427  1.9863 -0.5375
  168MOL0     H22176   9.238  11.047   1.880  0.1745  0.2638 -0.1029
  169MOL0     O22177   1.117   6.088   9.222  0.1898 -0.2926 -0.0616
  169MOL0     C22178   1.134   6.083   9.100 -0.2877  0.2059  0.9405
  169MOL0     O22179   1.048   6.029   9.014 -0.0253 -0.5239  0.6062
  169MOL0     C22180   0.924   5.995   9.063  1.3879  0.4380  0.4310
  169MOL0     C22181   0.840   6.079   9.143 -0.5035  0.8641 -0.3384
  169MOL0     C22182   0.710   6.055   9.164 -0.2345  0.4203 -0.7821
  169MOL0     C22183   0.647   5.953   9.094  0.0830  0.5901 -0.5441
  169MOL0     O22184   0.513   5.950   9.116  0.2799  0.1167  0.3674
  169MOL0     C22185   0.450   5.835   9.048  1.1383  0.3814 -0.0471
  169MOL0     C22186   0.303   5.820   9.089 -0.0204  0.0708 -0.1694
  169MOL0     C22187   0.214   5.948   9.071 -0.2291  0.1209 -0.1642
  169MOL0     C22188   0.069   5.934   9.115  1.1569 -0.4153  0.1057
  169MOL0     C22189  -0.032   6.045   9.060  0.5887  0.9085 -0.1302
  169MOL0     C22190  -0.130   6.084   9.172  0.2691 -0.1528  0.9327
  169MOL0     C22191  -0.208   5.961   9.214  0.2245  0.6471  0.1884
  169MOL0     C22192  -0.286   5.893   9.093  0.7784 -0.6720  0.6563
  169MOL0     N22193  -0.407   5.821   9.135 -0.0613 -0.0802  0.7961
  169MOL0     C22194  -0.479   5.746   9.052 -0.1264 -0.0926  0.5446
  169MOL0     C22195  -0.591   5.711   9.119 -0.7502 -0.0558  0.1282
  169MOL0     C22196  -0.706   5.629   9.068 -0.2792  0.0592 -1.2810
  169MOL0     C22197  -0.709   5.496   9.144  0.1747  0.7049 -0.9184
  169MOL0     C22198  -0.583   5.411   9.133 -0.3092  0.1737  0.3845
  169MOL0     C22199  -0.565   5.314   9.251 -0.0435  0.4944 -0.5223
  169MOL0     O22200  -0.478   5.202   9.220 -0.4835  0.0712  0.4681
  169MOL0     C22201  -0.350   5.244   9.192  0.2459 -0.2157 -0.7794
  169MOL0     C22202  -0.310   5.241   9.061  0.3589 -1.0219  0.0483
  169MOL0     C22203  -0.190   5.310   9.028 -0.4739  0.4920 -0.1176
  169MOL0     C22204  -0.109   5.374   9.121 -0.3900  0.1804  0.7691
  169MOL0     C22205   0.024   5.454   9.072 -0.2341  0.4790 -0.4022
  169MOL0     O22206   0.067   5.412   8.948 -0.0019  0.5203 -0.2708
  169MOL0     C22207   0.176   5.468   8.898  0.4162  0.8048  0.6035
  169MOL0     C22208   0.175   5.498   8.766  0.3283  0.3541  0.2352
  169MOL0     C22209   0.283   5.553   8.697  0.5834 -1.0147 -0.7740
  169MOL0     C22210   0.405   5.567   8.766  0.4079  0.0147 -0.9015
  169MOL0     O22211   0.518   5.589   8.691 -0.8612  0.0543  0.1787
  169MOL0     C22212   0.654   5.563   8.731  0.6527 -0.6457 -0.5646
  169MOL0     C22213   0.735   5.563   8.607 -0.7998  0.1207  0.1368
  169MOL0     C22214   0.883   5.536   8.627  0.1107  0.0817  0.3487
  169MOL0     C22215   0.949   5.648   8.709  0.9040  0.1786 -0.4839
  169MOL0     C22216   1.096   5.609   8.727 -0.3897  0.4013  0.4931
  169MOL0     C22217   1.162   5.711   8.821  0.6858  0.2345  0.4763
  169MOL0     C22218   1.319   5.708   8.801  0.3676 -0.2692  0.6204
  169MOL0     C22219   1.357   5.767   8.660 -0.6532  0.9374 -0.2351
  169MOL0    Cl22220   1.326   5.936   8.631 -0.1944  0.3040  0.1048
  169MOL0     C22221   0.419   5.532   8.902  0.4742  0.2413 -0.0423
  169MOL0     C22222   0.302   5.481   8.961 -0.1164  0.3420 -0.6450
  169MOL0     O22223   0.071   5.545   9.138  0.0476  0.1147 -0.4384
  169MOL0     C22224  -0.150   5.371   9.248  0.0546  0.6298 -0.0947
  169MOL0     C22225  -0.271   5.307   9.290 -0.0110  0.0987 -0.8967
  169MOL0     N22226  -0.583   5.766   9.250  0.4093  0.2279 -0.1626
  169MOL0     N22227  -0.472   5.832   9.259  0.1627 -0.4514 -0.9470
  169MOL0     C22228   0.729   5.861   9.017 -0.2492  0.8590  0.1881
  169MOL0     C22229   0.865   5.887   9.007 -0.1982 -0.9794 -0.0361
  169MOL0     C22230   1.253   6.150   9.043  0.0359 -0.2664  0.4785
  169MOL0     C22231   1.311   6.264   9.108 -0.4661  0.4990 -1.6794
  169MOL0     C22232   1.410   6.339   9.042  0.4121 -0.2773  0.3825
  169MOL0     C22233   1.471   6.294   8.919  0.7181  0.9786 -0.2086
  169MOL0     O22234   1.576   6.371   8.868 -0.0633  0.5301  0.4064
  169MOL0     C22235   1.654   6.311   8.758  0.4921  0.1230  0.1838
  169MOL0     C22236   1.753   6.414   8.702  1.8204  0.0064  0.6143
  169MOL0     C22237   1.676   6.525   8.625  0.3740  0.4551 -0.6219
  169MOL0     C22238   1.753   6.649   8.615 -0.1813  0.0318  0.1575
  169MOL0     C22239   1.866   6.635   8.527 -0.1543  1.1135 -0.8930
  169MOL0     C22240   1.969   6.614   8.465  0.0363  0.0251 -0.5365
  169MOL0     C22241   1.409   6.184   8.858  0.6008  0.2671  0.0549
  169MOL0     C22242   1.296   6.113   8.914 -0.1722 -1.4319 -0.9816
  169MOL0     H22243   0.891   6.171   9.170 -1.3710  1.7755 -1.6466
  169MOL0     H22244   0.656   6.127   9.225  0.6291 -0.6459  1.3404
  169MOL0     H22245   0.503   5.744   9.077 -2.1609 -1.6829  0.0297
  169MOL0     H22246   0.441   5.845   8.939 -2.3211  1.8736  0.2534
  169MOL0     H22247   0.298   5.796   9.196 -0.1799  1.6646  0.2024
  169MOL0     H22248   0.264   5.733   9.036  0.4573  0.3273 -0.9628
  169MOL0     H22249   0.214   5.981   8.967  0.6426  1.6953  0.3101
  169MOL0     H22250   0.263   6.031   9.123  0.5546 -1.6462  2.0593
  169MOL0     H22251   0.040   5.836   9.076 -3.0921 -0.0386  1.8170
  169MOL0     H22252   0.058   5.933   9.224 -0.4341 -0.2722 -0.0407
  169MOL0     H22253  -0.080   6.019   8.965 -1.8215  3.5563  0.2305
  169MOL0     H22254   0.034   6.130   9.039  0.9714  0.7884  0.5617
  169MOL0     H22255  -0.202   6.164   9.149 -1.5925 -2.5232 -2.3208
  169MOL0     H22256  -0.077   6.130   9.256  3.7501 -0.7965 -0.7286
  169MOL0     H22257  -0.151   5.887   9.270  0.1431 -0.1480 -0.7591
  169MOL0     H22258  -0.280   5.990   9.291 -0.1807  0.1966 -0.0229
  169MOL0     H22259  -0.223   5.832   9.028  0.3441 -2.7305  2.0603
  169MOL0     H22260  -0.320   5.976   9.030  0.9570 -0.5181  0.7573
  169MOL0     H22261  -0.453   5.721   8.950  0.8032  1.0918  0.4694
  169MOL0     H22262  -0.700   5.607   8.961 -2.1002 -0.9105 -1.2292
  169MOL0     H22263  -0.796   5.691   9.068  0.7998  1.7654  0.7312
  169MOL0     H22264  -0.792   5.429   9.118 -0.8767  2.4762 -2.4014
  169MOL0     H22265  -0.729   5.534   9.244 -2.5131 -0.3285 -0.9550
  169MOL0     H22266  -0.591   5.344   9.047  0.8360  0.1454  0.2798
  169MOL0     H22267  -0.488   5.464   9.121 -0.7519  1.9532  3.5525
  169MOL0     H22268  -0.662   5.274   9.283  1.3854 -2.4797  0.4922
  169MOL0     H22269  -0.530   5.379   9.332  1.5636  0.2137 -0.9548
  169MOL0     H22270  -0.364   5.192   8.980  0.3821  0.4970 -0.9150
  169MOL0     H22271  -0.151   5.292   8.928  0.4888  1.0155  0.1573
  169MOL0     H22272   0.078   5.491   8.717  0.8922  1.8418 -1.2118
  169MOL0     H22273   0.284   5.565   8.589 -0.7474  0.5571 -0.6477
  169MOL0     H22274   0.651   5.468   8.784 -1.1524 -0.6899 -0.7006
  169MOL0     H22275   0.686   5.647   8.794  0.5974 -1.0256 -0.0265
  169MOL0     H22276   0.725   5.651   8.542 -1.5949 -0.0714 -0.0092
  169MOL0     H22277   0.689   5.478   8.556 -1.7183  1.4002 -1.2724
  169MOL0     H22278   0.916   5.530   8.523 -0.1731 -0.2591  0.2794
  169MOL0     H22279   0.901   5.439   8.673  3.2292  0.2105 -0.3655
  169MOL0     H22280   0.943   5.741   8.652  0.3816  0.5596  0.1705
  169MOL0     H22281   0.889   5.657   8.801 -1.8688 -0.8911 -2.0586
  169MOL0     H22282   1.148   5.606   8.630  3.4646  0.5312  2.3717
  169MOL0     H22283   1.101   5.506   8.762 -2.3268 -0.8321 -2.4601
  169MOL0     H22284   1.141   5.707   8.929 -1.3520 -3.3696  0.0938
  169MOL0     H22285   1.122   5.809   8.794 -1.7579 -0.6422  0.6151
  169MOL0     H22286   1.379   5.762   8.874  0.0049  2.3092 -0.8550
  169MOL0     H22287   1.344   5.601   8.797  2.2708  0.1757 -1.9918
  169MOL0     H22288   1.310   5.712   8.578 -0.7192  0.6145  0.0156
  169MOL0     H22289   1.465   5.756   8.646 -0.8024 -1.5838  0.1185
  169MOL0     H22290   0.512   5.530   8.958 -0.9333 -0.4438  2.4525
  169MOL0     H22291   0.309   5.461   9.067 -1.9673  1.9130 -0.1659
  169MOL0     H22292  -0.092   5.427   9.320  0.5012 -0.4035  0.3831
  169MOL0     H22293  -0.302   5.309   9.394  3.2347 -1.0395  0.2050
  169MOL0     H22294   0.691   5.774   8.965  2.6980 -0.3311 -0.1619
  169MOL0     H22295   0.926   5.817   8.950  0.2200 -2.4196  2.0411
  169MOL0     H22296   1.279   6.299   9.206 -3.5686 -3.0618 -1.1745
  169MOL0     H22297   1.463   6.414   9.100 -1.2951  1.1907  0.1149
  169MOL0     H22298   1.582   6.272   8.686  0.2572  2.1810 -0.7753
  169MOL0     H22299   1.702   6.218   8.791 -1.2828 -0.9452 -0.0836
  169MOL0     H22300   1.815   6.459   8.780  0.1732  3.1447  0.2830
  169MOL0     H22301   1.812   6.353   8.633  0.4265  1.5138 -2.0827
  169MOL0     H22302   1.585   6.540   8.683  1.3071 -0.5804  1.2335
  169MOL0     H22303   1.664   6.482   8.525  0.7378 -1.0539 -0.0573
  169MOL0     H22304   1.692   6.729   8.572 -0.0655 -0.7297 -1.5028
  169MOL0     H22305   1.796   6.689   8.707  2.0098  1.1672 -1.2556
  169MOL0     H22306   2.059   6.620   8.408 -0.0678  0.1271 -0.6926
  169MOL0     H22307   1.448   6.142   8.766 -0.8707  0.9894 -0.9415
  169MOL0     H22308   1.259   6.033   8.850 -2.0294 -0.6959 -0.8915
  170MOL0     O22309   3.564   1.225   9.577  0.0767  0.2517 -0.2470
  170MOL0     C22310   3.668   1.272   9.541 -0.5549  0.1173 -0.5436
  170MOL0     O22311   3.689   1.372   9.452 -0.8392  0.2199 -0.6741
  170MOL0     C22312   3.589   1.452   9.414  0.3902 -0.5150  0.1247
  170MOL0     C22313   3.520   1.527   9.511 -0.7155  0.3912 -0.3616
  170MOL0     C22314   3.410   1.617   9.480 -0.5598 -0.0143 -0.2526
  170MOL0     C22315   3.373   1.635   9.351 -0.5385  0.9675 -0.0003
  170MOL0     O22316   3.268   1.714   9.315  1.0763  0.3560  0.1520
  170MOL0     C22317   3.274   1.779   9.182  0.0737 -0.7770 -0.3348
  170MOL0     C22318   3.152   1.865   9.142 -0.0938 -0.0297 -0.1446
  170MOL0     C22319   3.103   1.945   9.263 -0.4943  0.4665 -0.0855
  170MOL0     C22320   2.965   1.988   9.219  0.4294  0.5154  0.4327
  170MOL0     C22321   2.897   2.093   9.302 -0.0257 -0.2108 -0.2530
  170MOL0     C22322   2.749   2.118   9.265 -0.2012 -0.0582  0.2118
  170MOL0     C22323   2.701   2.231   9.352  0.3739  0.6339  0.4782
  170MOL0     C22324   2.547   2.244   9.358  0.2315  0.8255  1.3080
  170MOL0     N22325   2.473   2.225   9.232  0.3371 -0.6063 -0.4138
  170MOL0     C22326   2.392   2.122   9.207 -0.2654 -0.2862  1.3488
  170MOL0     C22327   2.324   2.152   9.098  0.6734 -0.2123 -0.0469
  170MOL0     C22328   2.221   2.074   9.012 -0.9022  0.0278  0.3955
  170MOL0     C22329   2.068   2.089   9.058  0.6229 -0.4384  0.0475
  170MOL0     C22330   1.971   2.058   8.941  0.3161  0.5823 -0.5161
  170MOL0     C22331   1.823   2.068   8.971  0.1400  0.3157  0.0442
  170MOL0     O22332   1.764   2.029   8.842 -0.2526 -0.1129 -0.7735
  170MOL0     C22333   1.640   1.975   8.842  0.2927  0.6319  0.2386
  170MOL0     C22334   1.587   1.911   8.720 -0.2505  0.0227 -1.1118
  170MOL0     C22335   1.453   1.871   8.715 -0.1260 -0.1781  0.3436
  170MOL0     C22336   1.360   1.913   8.815  0.7095  0.1844  0.1986
  170MOL0     C22337   1.204   1.900   8.800 -0.2770 -0.4126  0.4377
  170MOL0     O22338   1.119   1.962   8.892 -0.7774  0.4521 -0.3659
  170MOL0     C22339   1.001   1.900   8.914 -0.0276 -0.2768  0.0135
  170MOL0     C22340   0.884   1.918   8.833  0.2257 -0.6907 -0.2697
  170MOL0     C22341   0.759   1.872   8.874 -0.5398  0.9342  0.7138
  170MOL0     C22342   0.735   1.813   8.999 -0.1032 -0.8045 -0.6761
  170MOL0     O22343   0.607   1.785   9.049  0.1005  0.5308  0.3367
  170MOL0     C22344   0.491   1.849   8.983  0.7308  0.7928  0.3340
  170MOL0     C22345   0.448   1.754   8.871  0.1120  0.3498 -0.2780
  170MOL0     C22346   0.319   1.801   8.787 -0.7625 -1.0830 -0.0372
  170MOL0     C22347   0.285   1.692   8.680  0.5544  0.7266  0.3222
  170MOL0     C22348   0.177   1.729   8.579  0.0000 -1.4102 -0.1019
  170MOL0     C22349   0.044   1.789   8.629 -0.2769 -0.3153 -0.0111
  170MOL0     C22350  -0.040   1.706   8.723  0.1644  0.6012 -0.3050
  170MOL0     C22351  -0.171   1.768   8.772 -0.6116  0.8063 -0.3338
  170MOL0    Cl22352  -0.141   1.902   8.877  0.0228  0.1092  0.2328
  170MOL0     C22353   0.843   1.794   9.080  0.2592  0.7505 -0.3469
  170MOL0     C22354   0.976   1.824   9.039  1.1146 -0.3186 -0.3988
  170MOL0     O22355   1.163   1.814   8.719 -0.0646  0.5447 -0.0807
  170MOL0     C22356   1.412   1.975   8.932  0.1632  0.7804 -0.3094
  170MOL0     C22357   1.543   2.001   8.943  0.1483  1.4981 -0.5871
  170MOL0     N22358   2.370   2.281   9.053  0.5670 -0.2361  0.5233
  170MOL0     N22359   2.460   2.323   9.138 -0.2811  0.0720  0.1450
  170MOL0     C22360   3.440   1.557   9.249  1.1696  0.7766 -0.3552
  170MOL0     C22361   3.552   1.471   9.280  0.3004  0.0178  0.0857
  170MOL0     C22362   3.801   1.214   9.592  0.1602  0.3256 -0.1545
  170MOL0     C22363   3.918   1.201   9.517 -0.4138  0.2638  0.7448
  170MOL0     C22364   4.034   1.145   9.561 -0.0578  0.0053  0.3281
  170MOL0     C22365   4.043   1.095   9.694 -1.0837  0.3539 -0.1155
  170MOL0     O22366   4.168   1.034   9.733 -0.1826 -0.7086  1.1751
  170MOL0     C22367   4.203   1.018   9.872  0.2110 -0.5555 -0.1855
  170MOL0     C22368   4.319   1.105   9.904  0.1093  0.2365  0.8519
  170MOL0     C22369   4.433   1.095   9.806 -0.3248  0.1644  0.6218
  170MOL0     C22370   4.559   1.152   9.865 -0.0880  0.8400 -0.1603
  170MOL0     C22371   4.537   1.279   9.929 -0.3273 -0.0283 -0.2950
  170MOL0     C22372   4.530   1.385   9.977 -0.0849  0.5449  0.0407
  170MOL0     C22373   3.929   1.108   9.772 -0.4360  0.2053 -0.1058
  170MOL0     C22374   3.812   1.170   9.726  0.4131 -0.2086  0.1443
  170MOL0     H22375   3.530   1.520   9.618  0.9491 -0.9834 -0.5623
  170MOL0     H22376   3.363   1.665   9.565 -1.1327  2.3406 -1.8119
  170MOL0     H22377   3.275   1.718   9.091 -0.6239  1.9652 -2.3056
  170MOL0     H22378   3.361   1.846   9.183 -0.9995  0.8558  3.9363
  170MOL0     H22379   3.075   1.795   9.109  0.5992 -1.5744  1.3590
  170MOL0     H22380   3.175   1.926   9.054  1.7766  1.1309  1.0750
  170MOL0     H22381   3.171   2.030   9.272  1.6644 -1.0014 -1.6173
  170MOL0     H22382   3.094   1.883   9.353  1.1592 -2.7599 -1.9382
  170MOL0     H22383   2.961   2.015   9.114 -3.8442  0.2019  0.3308
  170MOL0     H22384   2.905   1.896   9.217  1.4527 -0.1774  0.6428
  170MOL0     H22385   2.946   2.190   9.306  0.0749 -0.2562  3.7158
  170MOL0     H22386   2.907   2.053   9.404 -1.1416 -0.2035 -0.1307
  170MOL0     H22387   2.684   2.032   9.283 -0.7582  0.1692 -0.6318
  170MOL0     H22388   2.751   2.161   9.164  1.2998  0.8853  0.6100
  170MOL0     H22389   2.742   2.231   9.453 -1.4817 -2.2121  1.3810
  170MOL0     H22390   2.746   2.318   9.304  0.7068  0.8762  1.2158
  170MOL0     H22391   2.523   2.344   9.396  0.3627  2.0655 -1.5945
  170MOL0     H22392   2.510   2.177   9.436  1.1447 -0.5055  0.6368
  170MOL0     H22393   2.381   2.039   9.276 -0.0079 -1.1336  0.3796
  170MOL0     H22394   2.239   1.967   9.029 -1.2552  0.3900  3.7228
  170MOL0     H22395   2.225   2.102   8.907  0.4289  3.0262  1.1286
  170MOL0     H22396   2.049   2.191   9.091  0.7481  0.3912 -2.3082
  170MOL0     H22397   2.052   2.023   9.144  1.1239 -2.1283 -1.1001
  170MOL0     H22398   1.996   2.120   8.854  3.7423  0.3744  0.1924
  170MOL0     H22399   1.991   1.952   8.918 -0.4487  0.5551 -1.1166
  170MOL0     H22400   1.790   2.167   9.005 -2.4138 -0.2240 -0.6310
  170MOL0     H22401   1.795   2.001   9.053 -0.5855 -0.0277 -0.4701
  170MOL0     H22402   1.650   1.894   8.633  1.7927  2.1274 -0.1366
  170MOL0     H22403   1.407   1.831   8.626 -1.3463 -3.4251  2.2773
  170MOL0     H22404   0.893   1.954   8.731 -0.5219 -3.0550 -1.2331
  170MOL0     H22405   0.672   1.895   8.814 -2.5828 -0.6346  2.8443
  170MOL0     H22406   0.516   1.948   8.943 -0.9106  0.7560 -0.8767
  170MOL0     H22407   0.403   1.869   9.046  0.6466  2.0444 -0.1565
  170MOL0     H22408   0.421   1.660   8.920 -0.8685  1.1890  0.8326
  170MOL0     H22409   0.527   1.732   8.799  1.3180  1.9447  0.4998
  170MOL0     H22410   0.344   1.897   8.742  2.3906 -1.4191  0.7854
  170MOL0     H22411   0.239   1.823   8.859 -0.7652 -0.7929 -0.1291
  170MOL0     H22412   0.379   1.669   8.630  1.6665  2.9771  1.1976
  170MOL0     H22413   0.249   1.601   8.729 -0.7739  1.2152  0.2954
  170MOL0     H22414   0.150   1.649   8.509 -1.6575  0.2059 -1.4041
  170MOL0     H22415   0.230   1.804   8.520 -0.3157 -0.0609  1.2517
  170MOL0     H22416  -0.016   1.816   8.542  0.1214 -2.6213 -1.0756
  170MOL0     H22417   0.075   1.880   8.681  0.4930 -0.7034  0.2267
  170MOL0     H22418  -0.074   1.618   8.668 -2.5557  1.6042 -0.3888
  170MOL0     H22419   0.025   1.689   8.810  0.4457  1.0456 -0.4198
  170MOL0     H22420  -0.230   1.697   8.830 -2.1431  1.8837 -0.5250
  170MOL0     H22421  -0.225   1.801   8.683 -2.0293 -2.4694 -0.8263
  170MOL0     H22422   0.809   1.756   9.176  0.9751 -0.5041 -0.5652
  170MOL0     H22423   1.050   1.791   9.110  2.0041  0.6978 -0.8232
  170MOL0     H22424   1.342   1.999   9.012  2.9062 -1.0340  2.8713
  170MOL0     H22425   1.571   2.063   9.027  3.1007  0.6114 -0.8259
  170MOL0     H22426   3.423   1.574   9.143 -1.6567 -1.6522 -0.4259
  170MOL0     H22427   3.600   1.408   9.206 -1.2208 -1.3461  0.2062
  170MOL0     H22428   3.910   1.219   9.410 -1.0102 -0.2147  0.7032
  170MOL0     H22429   4.119   1.114   9.502 -0.5294 -0.6466 -0.0152
  170MOL0     H22430   4.225   0.918   9.912  0.8334 -0.1754  0.4382
  170MOL0     H22431   4.123   1.031   9.945  1.2360  0.0454  0.8494
  170MOL0     H22432   4.270   1.203   9.907 -0.4839  0.0001 -0.6401
  170MOL0     H22433   4.342   1.066  10.004  0.9984 -0.6554  0.3182
  170MOL0     H22434   4.421   1.155   9.715  2.6036  0.4490  0.3289
  170MOL0     H22435   4.448   0.990   9.780 -2.5909 -0.4483  1.5123
  170MOL0     H22436   4.586   1.070   9.933 -4.4960 -2.0079 -1.4574
  170MOL0     H22437   4.635   1.160   9.787 -0.3279 -0.3576 -0.5388
  170MOL0     H22438   4.541   1.477  10.032  1.7321 -0.4804  1.4998
  170MOL0     H22439   3.933   1.081   9.877 -0.9409  1.1333  0.1540
  170MOL0     H22440   3.734   1.189   9.799 -0.4445 -2.4204 -0.1286
  171MOL0     O22441  10.648   4.376   6.548  0.1795 -0.3238 -0.1232
  171MOL0     C22442  10.647   4.354   6.425 -1.0780 -0.0440  0.4520
  171MOL0     O22443  10.536   4.351   6.342  0.5896  0.0573 -0.2893
  171MOL0     C22444  10.410   4.380   6.393 -0.1689  0.3941 -0.0128
  171MOL0     C22445  10.343   4.288   6.468  0.0305  0.1416 -0.4190
  171MOL0     C22446  10.214   4.314   6.513 -0.6631 -0.0552  0.1458
  171MOL0     C22447  10.157   4.444   6.506 -0.0520  0.5223  0.3404
  171MOL0     O22448  10.043   4.490   6.553  0.1318 -0.3947 -0.6608
  171MOL0     C22449   9.949   4.403   6.612 -0.1352 -0.6020 -0.4004
  171MOL0     C22450   9.954   4.408   6.765  0.1345 -0.1581  0.6099
  171MOL0     C22451   9.847   4.327   6.834  0.4390 -1.0269  0.3356
  171MOL0     C22452   9.843   4.348   6.987  0.2115 -0.3716  0.0594
  171MOL0     C22453   9.748   4.238   7.055  0.0594 -0.0855  0.4847
  171MOL0     C22454   9.725   4.276   7.200 -0.3332  0.5614 -0.1819
  171MOL0     C22455   9.628   4.178   7.262  0.5054 -0.5824  0.1797
  171MOL0     C22456   9.611   4.226   7.406 -0.6836  1.0933  0.5894
  171MOL0     N22457   9.538   4.123   7.487  0.3246  0.2159 -0.0200
  171MOL0     C22458   9.408   4.079   7.465 -0.0551 -0.7704  0.6866
  171MOL0     C22459   9.395   3.966   7.540  0.8460  0.9453 -0.6366
  171MOL0     C22460   9.268   3.887   7.553 -0.2135  0.4094  0.3312
  171MOL0     C22461   9.274   3.775   7.670  0.0054 -0.0633  0.6342
  171MOL0     C22462   9.141   3.708   7.703  0.3084  0.0420 -0.1481
  171MOL0     C22463   9.042   3.793   7.779 -0.1474  0.4315  0.1420
  171MOL0     O22464   9.062   3.818   7.918 -0.6912  0.1933  0.1525
  171MOL0     C22465   8.986   3.915   7.981 -0.2084 -0.1439 -0.5964
  171MOL0     C22466   9.007   3.938   8.115 -0.1180 -0.7155  0.5091
  171MOL0     C22467   8.951   4.044   8.178  0.4599  0.1037  0.8139
  171MOL0     C22468   8.856   4.127   8.115  0.0579 -0.5221  0.0343
  171MOL0     C22469   8.791   4.235   8.179 -0.3590  0.6577 -0.6655
  171MOL0     O22470   8.771   4.213   8.316  1.1093 -0.3253  0.0450
  171MOL0     C22471   8.656   4.272   8.376 -0.4131  0.1123  0.8084
  171MOL0     C22472   8.629   4.407   8.387  0.8355 -0.1040  0.5578
  171MOL0     C22473   8.520   4.450   8.453 -0.1453  0.4642 -0.2375
  171MOL0     C22474   8.416   4.361   8.499 -0.2115 -0.6572  0.4206
  171MOL0     O22475   8.293   4.406   8.540  0.3848 -0.7227 -0.2978
  171MOL0     C22476   8.226   4.501   8.454  0.1182  0.5267  0.0114
  171MOL0     C22477   8.094   4.534   8.518  0.7908  0.3878  0.0868
  171MOL0     C22478   7.984   4.422   8.515 -0.1118  0.7198  1.0988
  171MOL0     C22479   7.867   4.472   8.598 -0.0513 -0.9105 -0.4873
  171MOL0     C22480   7.758   4.373   8.594  0.7862  0.2056 -0.7776
  171MOL0     C22481   7.635   4.414   8.664  0.6055  0.6604 -0.2754
  171MOL0     C22482   7.531   4.493   8.585 -0.5142 -0.2528  0.1150
  171MOL0     C22483   7.404   4.499   8.673 -0.8385 -0.1352 -0.0444
  171MOL0    Cl22484   7.432   4.616   8.812 -0.3513 -0.0139 -0.1355
  171MOL0     C22485   8.442   4.228   8.489  0.4671 -0.7065  0.5171
  171MOL0     C22486   8.563   4.181   8.430 -0.2341  0.4589 -0.6454
  171MOL0     O22487   8.765   4.345   8.123  0.0421 -0.4095  0.2354
  171MOL0     C22488   8.817   4.099   7.980  0.3343 -0.1293  0.0160
  171MOL0     C22489   8.885   3.993   7.918  0.1357 -0.6227  0.0801
  171MOL0     N22490   9.518   3.938   7.595 -0.2590 -0.0642  0.0966
  171MOL0     N22491   9.606   4.031   7.559  0.4355  0.6098 -0.0864
  171MOL0     C22492  10.229   4.541   6.434 -1.0278 -0.5024 -0.3672
  171MOL0     C22493  10.362   4.511   6.381  0.3309 -0.9825  0.6406
  171MOL0     C22494  10.777   4.347   6.365 -1.0978 -0.6349  0.2516
  171MOL0     C22495  10.783   4.313   6.228 -0.7703  1.2467 -0.3411
  171MOL0     C22496  10.910   4.296   6.165 -0.4371  0.8512 -0.1649
  171MOL0     C22497  11.032   4.301   6.236 -0.4077 -0.6026  0.1870
  171MOL0     O22498  11.165   4.277   6.186  0.3939  0.1003 -0.1046
  171MOL0     C22499  11.174   4.248   6.044 -0.1903  0.7080 -0.0665
  171MOL0     C22500  11.312   4.222   6.016 -0.8388  0.1465 -0.3661
  171MOL0     C22501  11.337   4.150   5.883 -0.6585  0.0070  0.7554
  171MOL0     C22502  11.472   4.196   5.814 -0.8351  0.8537  0.6122
  171MOL0     C22503  11.541   4.076   5.765  0.0479 -0.7913 -0.2473
  171MOL0     C22504  11.621   3.983   5.757 -0.3847  0.4930 -0.4937
  171MOL0     C22505  11.024   4.336   6.368 -0.4208  0.2634 -1.4951
  171MOL0     C22506  10.904   4.362   6.437  0.5777 -1.1184 -0.0038
  171MOL0     H22507  10.372   4.183   6.473 -1.5157 -0.3435 -0.8892
  171MOL0     H22508  10.151   4.233   6.549  1.7204 -2.3462 -0.4853
  171MOL0     H22509   9.959   4.297   6.588 -0.9059 -0.9369  0.6653
  171MOL0     H22510   9.846   4.431   6.585 -0.2894 -2.8195 -2.3375
  171MOL0     H22511   9.953   4.512   6.798 -0.4288 -1.1344  4.1182
  171MOL0     H22512  10.052   4.374   6.802  0.0126  0.8190  1.9256
  171MOL0     H22513   9.860   4.223   6.802  0.3170 -0.5769 -1.2579
  171MOL0     H22514   9.758   4.370   6.787  1.6706 -0.3622 -1.5269
  171MOL0     H22515   9.943   4.337   7.030  0.9018 -1.1764 -1.6547
  171MOL0     H22516   9.807   4.446   7.018  1.0625  0.0674 -0.3224
  171MOL0     H22517   9.789   4.140   7.029  1.6620  1.0694 -1.6384
  171MOL0     H22518   9.650   4.244   7.007 -0.0688  0.6913  0.8377
  171MOL0     H22519   9.697   4.381   7.214  3.7448  1.7819  0.3951
  171MOL0     H22520   9.824   4.260   7.244  0.3091 -5.0438 -2.8392
  171MOL0     H22521   9.535   4.187   7.205  0.4457  0.1834  0.3900
  171MOL0     H22522   9.665   4.075   7.254  1.2393 -0.2357 -1.3124
  171MOL0     H22523   9.570   4.327   7.405 -1.7356  0.6783 -0.3502
  171MOL0     H22524   9.709   4.230   7.454 -1.0698 -2.5591  2.0251
  171MOL0     H22525   9.327   4.131   7.416 -1.1543 -1.7478  1.4002
  171MOL0     H22526   9.240   3.844   7.456 -1.0698 -0.8066  1.0927
  171MOL0     H22527   9.182   3.953   7.570 -0.4137  0.4194 -0.6357
  171MOL0     H22528   9.316   3.821   7.759  1.7468 -0.0823 -0.1437
  171MOL0     H22529   9.339   3.691   7.642  1.0817  0.6560  0.9418
  171MOL0     H22530   9.102   3.669   7.608  1.7840 -1.8080 -0.0535
  171MOL0     H22531   9.152   3.619   7.766 -2.2126 -0.3585 -0.1762
  171MOL0     H22532   8.940   3.756   7.766  0.9967 -2.5513 -1.1513
  171MOL0     H22533   9.042   3.887   7.723 -2.3471 -0.2392 -1.1312
  171MOL0     H22534   9.088   3.876   8.151  1.9988  2.2551  1.2162
  171MOL0     H22535   8.983   4.053   8.281 -1.1998  1.1208  1.2791
  171MOL0     H22536   8.687   4.482   8.335  0.5920 -1.3839 -1.7036
  171MOL0     H22537   8.511   4.558   8.457 -2.1219  0.3824 -1.1413
  171MOL0     H22538   8.217   4.474   8.348  1.0611  0.7496 -0.1345
  171MOL0     H22539   8.280   4.596   8.449  2.5132 -0.7892 -0.5735
  171MOL0     H22540   8.046   4.612   8.459  1.2657 -0.3465 -1.3121
  171MOL0     H22541   8.106   4.555   8.625  1.0065 -0.7108  0.2845
  171MOL0     H22542   8.016   4.325   8.555 -3.6218 -0.8156  0.5941
  171MOL0     H22543   7.947   4.409   8.412 -1.9759 -1.8816  1.9745
  171MOL0     H22544   7.890   4.499   8.701 -2.3126  0.9261 -0.3712
  171MOL0     H22545   7.828   4.568   8.562 -0.8438 -0.4725  1.4287
  171MOL0     H22546   7.791   4.276   8.633  0.7309 -0.5436 -2.5044
  171MOL0     H22547   7.730   4.350   8.491 -1.6169  3.4175 -0.9855
  171MOL0     H22548   7.664   4.471   8.753  2.2207  1.6367 -1.3900
  171MOL0     H22549   7.579   4.328   8.703 -0.4689  1.2915 -0.3647
  171MOL0     H22550   7.568   4.590   8.549 -3.6795  1.1377  0.2385
  171MOL0     H22551   7.508   4.438   8.493  1.1499 -0.3566 -0.2669
  171MOL0     H22552   7.382   4.401   8.715  2.7840 -0.6612  0.9530
  171MOL0     H22553   7.318   4.525   8.610 -0.9781  0.3220  0.3238
  171MOL0     H22554   8.367   4.163   8.534 -0.1274  1.0194  2.1338
  171MOL0     H22555   8.591   4.077   8.420  0.9922  0.6921  0.1530
  171MOL0     H22556   8.737   4.151   7.928  2.1394  1.6477 -1.1378
  171MOL0     H22557   8.846   3.987   7.817 -0.5629 -0.3116  0.3251
  171MOL0     H22558  10.176   4.634   6.419 -0.9362 -0.2740  0.6134
  171MOL0     H22559  10.415   4.593   6.333 -0.4023 -0.1325  1.2492
  171MOL0     H22560  10.695   4.292   6.169 -1.4060  1.3657  0.5331
  171MOL0     H22561  10.904   4.273   6.059 -1.2937  1.4053 -0.2451
  171MOL0     H22562  11.144   4.329   5.977 -2.5124  2.2699  2.6105
  171MOL0     H22563  11.123   4.153   6.027 -0.4192  0.7575  0.3287
  171MOL0     H22564  11.364   4.316   6.037 -0.2288  0.0490 -1.3641
  171MOL0     H22565  11.344   4.155   6.097 -0.2010 -0.6384 -1.2467
  171MOL0     H22566  11.258   4.166   5.809  0.0641  0.1776 -0.0020
  171MOL0     H22567  11.339   4.044   5.911  3.2259 -0.5209 -0.8632
  171MOL0     H22568  11.463   4.250   5.720  0.0943 -2.2661 -1.4102
  171MOL0     H22569  11.528   4.254   5.888 -0.4926 -0.4194  1.3961
  171MOL0     H22570  11.691   3.903   5.773  0.3268  1.3256  0.7260
  171MOL0     H22571  11.116   4.337   6.426 -1.2218 -0.2919 -0.1620
  171MOL0     H22572  10.897   4.402   6.538 -0.1335  2.1009 -1.2238
  172MOL0     O22573   8.874   0.625   4.911  0.1991  0.1291 -0.2835
  172MOL0     C22574   8.800   0.703   4.976  0.3259  0.2801 -0.1022
  172MOL0     O22575   8.814   0.721   5.112 -0.2108 -0.2226  0.5777
  172MOL0     C22576   8.923   0.661   5.170 -0.0850 -0.5369  0.2448
  172MOL0     C22577   8.928   0.527   5.211  0.5774  0.8374  0.6195
  172MOL0     C22578   9.048   0.474   5.262 -0.7277 -0.4717  0.2632
  172MOL0     C22579   9.158   0.556   5.278 -0.2349 -0.9271  0.0421
  172MOL0     O22580   9.272   0.508   5.340 -0.5489  0.0995 -0.1880
  172MOL0     C22581   9.366   0.608   5.393 -0.3850  0.5855 -0.3743
  172MOL0     C22582   9.490   0.541   5.446  0.9736 -0.6882  0.1981
  172MOL0     C22583   9.600   0.638   5.484  0.9923  0.0039  0.8681
  172MOL0     C22584   9.724   0.557   5.522 -0.0509 -0.1105 -0.0300
  172MOL0     C22585   9.825   0.646   5.599  0.3960 -0.2706  0.4700
  172MOL0     C22586   9.924   0.558   5.689  0.5234 -0.3662 -0.3296
  172MOL0     C22587  10.009   0.642   5.786  0.5267 -0.1470  0.5701
  172MOL0     C22588  10.104   0.562   5.869 -0.1790 -0.0758 -0.2456
  172MOL0     N22589  10.183   0.650   5.956 -0.1725  0.5501  0.2801
  172MOL0     C22590  10.288   0.721   5.914  0.3350  0.2340  0.1588
  172MOL0     C22591  10.281   0.835   5.984  0.3423  0.0105  0.1126
  172MOL0     C22592  10.381   0.948   5.991  0.7747 -0.2016  0.2738
  172MOL0     C22593  10.333   1.089   5.951  0.5067 -0.0465  0.4906
  172MOL0     C22594  10.281   1.086   5.809  0.4676 -0.2814 -0.2857
  172MOL0     C22595  10.132   1.070   5.813 -0.4117 -0.0507 -0.2722
  172MOL0     O22596  10.087   1.028   5.686 -0.4601  0.0024 -0.0349
  172MOL0     C22597   9.951   1.004   5.677  0.0572  0.0540 -0.1495
  172MOL0     C22598   9.891   0.980   5.552  0.3138  0.4794  0.0303
  172MOL0     C22599   9.748   0.972   5.535  0.0414  0.3025 -0.0542
  172MOL0     C22600   9.664   0.999   5.642 -0.1594 -0.3604  0.6551
  172MOL0     C22601   9.519   1.011   5.633  0.2565  0.6146  0.7009
  172MOL0     O22602   9.474   1.004   5.503 -0.3756  0.6371 -0.5017
  172MOL0     C22603   9.341   1.025   5.481  0.1494  0.0553 -0.8675
  172MOL0     C22604   9.305   1.143   5.411 -0.0641 -0.0707  0.9931
  172MOL0     C22605   9.176   1.151   5.365  0.3648  0.0702  0.3657
  172MOL0     C22606   9.076   1.061   5.405  0.7683 -0.0635 -0.7470
  172MOL0     O22607   8.946   1.077   5.355 -0.2148 -0.2279  0.7149
  172MOL0     C22608   8.837   1.010   5.411 -0.6593 -0.4300  0.3848
  172MOL0     C22609   8.705   1.055   5.354 -0.8165 -0.1028  0.1522
  172MOL0     C22610   8.593   0.965   5.409  0.4140 -0.0691  0.3795
  172MOL0     C22611   8.554   0.991   5.554  0.0564 -0.5847  0.3402
  172MOL0     C22612   8.404   0.970   5.582 -0.2743 -0.0751  0.3743
  172MOL0     C22613   8.345   0.843   5.560  0.6253  0.6741  0.0869
  172MOL0     C22614   8.197   0.852   5.588 -0.0829  0.7660 -0.0934
  172MOL0     C22615   8.132   0.713   5.572 -0.5921 -0.3626  1.3142
  172MOL0    Cl22616   7.957   0.744   5.581 -0.0171  0.1012  0.0971
  172MOL0     C22617   9.114   0.940   5.468  0.3953  0.4441  0.1841
  172MOL0     C22618   9.245   0.918   5.500 -0.6674 -0.5956  0.3166
  172MOL0     O22619   9.447   1.047   5.725 -0.6089  0.1166 -0.7694
  172MOL0     C22620   9.724   1.021   5.768  0.1823 -0.3409 -0.1620
  172MOL0     C22621   9.860   1.009   5.784 -0.1623  0.0153  0.1563
  172MOL0     N22622  10.183   0.823   6.080 -0.6424 -0.1204  0.1053
  172MOL0     N22623  10.136   0.709   6.070  0.0005 -0.0498  0.7397
  172MOL0     C22624   9.146   0.697   5.258 -0.5593  0.4388  0.0861
  172MOL0     C22625   9.032   0.751   5.198 -0.3988 -1.1112  0.6853
  172MOL0     C22626   8.708   0.790   4.909 -0.5160  0.3136  0.4553
  172MOL0     C22627   8.631   0.880   4.991 -0.1033 -0.3119 -0.2747
  172MOL0     C22628   8.522   0.945   4.934 -0.2235  0.2701  0.7547
  172MOL0     C22629   8.493   0.935   4.792 -0.7032 -0.4614  0.0212
  172MOL0     O22630   8.393   1.013   4.743 -0.2838 -0.0250 -0.2545
  172MOL0     C22631   8.367   1.003   4.602  0.2934 -0.3402  0.3293
  172MOL0     C22632   8.253   1.085   4.555 -0.4668  1.0720 -0.6031
  172MOL0     C22633   8.228   1.080   4.402  0.0391 -1.0644  1.1291
  172MOL0     C22634   8.304   1.184   4.308 -0.4523 -0.2996 -0.9265
  172MOL0     C22635   8.241   1.314   4.316 -0.4972  0.0212 -0.2181
  172MOL0     C22636   8.167   1.414   4.312 -1.1033  0.8667  1.1452
  172MOL0     C22637   8.569   0.842   4.717  1.3395 -0.1979  0.7431
  172MOL0     C22638   8.666   0.766   4.773  0.1408  0.8702  0.4707
  172MOL0     H22639   8.840   0.464   5.199  1.1940  0.3023 -1.3652
  172MOL0     H22640   9.080   0.372   5.282  2.0832  0.3038  0.1982
  172MOL0     H22641   9.321   0.675   5.466 -2.3659  0.5171 -1.4528
  172MOL0     H22642   9.405   0.660   5.305  1.0349  0.5904  0.2402
  172MOL0     H22643   9.542   0.483   5.369  1.0315  2.1178 -2.0587
  172MOL0     H22644   9.459   0.464   5.517 -0.8407  0.5400  0.8189
  172MOL0     H22645   9.565   0.701   5.567 -0.7329 -0.9863  0.9311
  172MOL0     H22646   9.630   0.699   5.399 -0.2652 -2.5711 -1.5768
  172MOL0     H22647   9.706   0.470   5.586  1.3197 -0.4853 -0.1251
  172MOL0     H22648   9.776   0.515   5.435 -0.2533 -0.4152 -0.0067
  172MOL0     H22649   9.778   0.720   5.664  3.0507  0.3852  1.8066
  172MOL0     H22650   9.898   0.699   5.537  1.5540 -2.7490 -0.4226
  172MOL0     H22651   9.994   0.501   5.626  1.1973 -0.2603  0.3127
  172MOL0     H22652   9.868   0.486   5.749 -1.1267  0.1995 -1.1367
  172MOL0     H22653  10.071   0.713   5.729  1.0756 -0.0732  1.2410
  172MOL0     H22654   9.940   0.697   5.850 -0.8349  1.0452 -1.7547
  172MOL0     H22655  10.171   0.500   5.809  1.6887  1.1771  0.4503
  172MOL0     H22656  10.036   0.502   5.929 -3.1158  0.7436 -2.5008
  172MOL0     H22657  10.369   0.684   5.852  1.3242 -1.5086  2.3372
  172MOL0     H22658  10.468   0.927   5.928 -0.7141 -0.1803 -1.9134
  172MOL0     H22659  10.421   0.951   6.093  0.3733 -0.4481  0.4426
  172MOL0     H22660  10.413   1.163   5.955 -0.7929  1.3634  1.7313
  172MOL0     H22661  10.257   1.138   6.014  0.4023  0.2813  0.1114
  172MOL0     H22662  10.311   1.175   5.753  2.2043 -1.2678 -1.0052
  172MOL0     H22663  10.333   1.006   5.755  0.5310  0.7905 -1.8977
  172MOL0     H22664  10.076   1.161   5.836 -2.2692 -1.3657  0.6473
  172MOL0     H22665  10.092   0.994   5.879 -0.5154  1.8545  2.0097
  172MOL0     H22666   9.958   0.978   5.466  0.7893  2.3535  0.3187
  172MOL0     H22667   9.719   0.950   5.432  2.2422 -0.0820 -0.6404
  172MOL0     H22668   9.369   1.226   5.384 -1.3357  0.2326 -1.3246
  172MOL0     H22669   9.146   1.230   5.296 -0.4043 -1.5057 -1.1732
  172MOL0     H22670   8.828   1.038   5.516 -0.1044  1.4482 -0.0475
  172MOL0     H22671   8.845   0.901   5.403  0.5359 -0.2192 -2.0137
  172MOL0     H22672   8.712   1.044   5.245  0.9957  0.0739  0.2199
  172MOL0     H22673   8.696   1.159   5.387 -1.3463 -0.3649  0.8550
  172MOL0     H22674   8.612   0.859   5.389  1.4141  0.3028 -0.7927
  172MOL0     H22675   8.505   0.990   5.349 -1.2584 -2.9040  1.4586
  172MOL0     H22676   8.619   0.932   5.619  1.6228 -0.3128 -0.8940
  172MOL0     H22677   8.584   1.094   5.574 -0.5271 -0.2660 -0.3810
  172MOL0     H22678   8.354   1.044   5.519  3.1603  1.5366 -0.6959
  172MOL0     H22679   8.394   0.992   5.689 -0.4112  0.7820  0.1911
  172MOL0     H22680   8.376   0.768   5.633 -0.4536 -0.0232 -0.1386
  172MOL0     H22681   8.367   0.799   5.463  0.1902  1.8384 -0.5555
  172MOL0     H22682   8.188   0.870   5.696 -1.5558 -4.6061  0.9727
  172MOL0     H22683   8.153   0.932   5.528  0.5039 -0.7559 -2.7284
  172MOL0     H22684   8.162   0.647   5.653  1.5535 -1.4113 -0.2266
  172MOL0     H22685   8.161   0.665   5.478 -0.4101  0.6885  0.8204
  172MOL0     H22686   9.051   0.854   5.489  1.1327 -0.2978 -0.5718
  172MOL0     H22687   9.270   0.825   5.549 -0.4794 -0.6762  0.0710
  172MOL0     H22688   9.671   1.039   5.861 -0.8614  0.3813 -0.8692
  172MOL0     H22689   9.896   1.037   5.882  1.2832 -0.3534 -0.2372
  172MOL0     H22690   9.230   0.762   5.282  0.3225 -1.1036  1.3809
  172MOL0     H22691   9.039   0.857   5.174 -1.4778 -1.6429 -2.4274
  172MOL0     H22692   8.648   0.897   5.097  0.4305 -1.5431 -0.1444
  172MOL0     H22693   8.457   1.002   5.000 -0.6534 -0.1688  0.7133
  172MOL0     H22694   8.349   0.898   4.578 -4.9904  0.3314  0.1738
  172MOL0     H22695   8.459   1.043   4.559  2.2144 -0.5053  3.8578
  172MOL0     H22696   8.168   1.039   4.606  0.3278  1.0372  0.7483
  172MOL0     H22697   8.260   1.190   4.587 -0.5642  0.7795  0.4065
  172MOL0     H22698   8.121   1.091   4.383  0.2770  1.7214  0.8968
  172MOL0     H22699   8.261   0.980   4.373 -1.5537 -0.6377 -2.7265
  172MOL0     H22700   8.410   1.203   4.330 -0.8948  0.6090  0.6142
  172MOL0     H22701   8.309   1.150   4.204 -0.1410  0.5736 -1.2101
  172MOL0     H22702   8.096   1.493   4.324 -2.0684  0.5681 -1.7317
  172MOL0     H22703   8.560   0.833   4.609 -1.8711  0.3299  0.8796
  172MOL0     H22704   8.716   0.685   4.722 -0.5237 -0.7434  2.2769
  173MOL0     O22705   9.962   0.371   1.493 -0.4454  0.1038  0.0542
  173MOL0     C22706   9.908   0.469   1.453  0.2507 -0.2981 -0.5856
  173MOL0     O22707   9.973   0.581   1.422 -0.1960 -0.0668 -0.0369
  173MOL0     C22708  10.108   0.592   1.434 -0.5662 -0.5077 -0.2171
  173MOL0     C22709  10.156   0.697   1.352 -0.2106 -0.9380 -0.4434
  173MOL0     C22710  10.294   0.728   1.359  0.5869  0.1448  0.1922
  173MOL0     C22711  10.377   0.651   1.433 -0.9536 -0.4510 -0.8065
  173MOL0     O22712  10.511   0.667   1.427 -0.4448 -0.0107  0.1598
  173MOL0     C22713  10.566   0.758   1.524 -0.4444  0.1146  0.5014
  173MOL0     C22714  10.718   0.781   1.498 -0.3688 -0.2330 -0.3619
  173MOL0     C22715  10.811   0.679   1.555 -0.2494  0.0232 -0.4227
  173MOL0     C22716  10.748   0.544   1.541 -0.0049  0.4969  0.1811
  173MOL0     C22717  10.848   0.425   1.573  0.7845  0.0263 -0.2183
  173MOL0     C22718  10.974   0.414   1.483  0.0457  0.5170  0.0906
  173MOL0     C22719  11.059   0.281   1.510 -0.3410  0.0414  0.1208
  173MOL0     C22720  11.164   0.318   1.617  0.0448 -0.4186 -0.6678
  173MOL0     N22721  11.121   0.370   1.747 -0.6991 -0.2994 -0.3885
  173MOL0     C22722  11.071   0.294   1.850  0.0922 -0.4829  0.0807
  173MOL0     C22723  11.069   0.374   1.963 -0.1627 -0.3994  1.2693
  173MOL0     C22724  11.048   0.328   2.107 -0.3524  0.2079 -0.0427
  173MOL0     C22725  11.175   0.340   2.203  0.0832  1.0241 -0.4145
  173MOL0     C22726  11.168   0.469   2.280  0.0539 -0.2344 -0.6978
  173MOL0     C22727  11.297   0.487   2.368 -0.0460  0.2851 -0.0141
  173MOL0     O22728  11.406   0.401   2.330  0.6698 -0.2977  0.6624
  173MOL0     C22729  11.523   0.460   2.279 -1.2343 -0.0880  0.8143
  173MOL0     C22730  11.535   0.581   2.212  0.6144  0.3681  0.6127
  173MOL0     C22731  11.651   0.619   2.147  0.2646 -0.1986  0.2124
  173MOL0     C22732  11.767   0.534   2.164 -0.2133  0.2777 -0.2057
  173MOL0     C22733  11.891   0.553   2.095 -0.8415 -0.1587 -0.0836
  173MOL0     O22734  11.996   0.461   2.106 -0.1858  0.5350 -0.2650
  173MOL0     C22735  12.110   0.453   2.029  0.6075 -0.5279  0.0340
  173MOL0     C22736  12.116   0.471   1.887  0.9257 -0.0533  0.3856
  173MOL0     C22737  12.238   0.460   1.815  0.1029 -0.3135 -0.5085
  173MOL0     C22738  12.349   0.412   1.885  0.4344  0.7319  0.2537
  173MOL0     O22739  12.459   0.380   1.805 -0.3172 -0.5345 -0.5304
  173MOL0     C22740  12.584   0.384   1.862  0.6922 -0.4728  0.0503
  173MOL0     C22741  12.686   0.307   1.776 -0.2638 -0.3753 -0.4081
  173MOL0     C22742  12.831   0.299   1.835 -0.0225 -0.6458 -0.0893
  173MOL0     C22743  12.903   0.430   1.859 -0.2795  0.2231 -0.1399
  173MOL0     C22744  13.050   0.414   1.871 -0.2881  0.2745 -0.0671
  173MOL0     C22745  13.117   0.387   1.731  0.5813 -0.2266 -0.6842
  173MOL0     C22746  13.267   0.420   1.718  0.4117 -0.6515 -0.5866
  173MOL0     C22747  13.308   0.411   1.574  0.3378 -0.5682 -0.4077
  173MOL0    Cl22748  13.314   0.245   1.506  0.1469 -0.1948  0.1103
  173MOL0     C22749  12.335   0.377   2.016  0.6026  1.5714 -0.0653
  173MOL0     C22750  12.219   0.391   2.093 -0.8095  0.3697  0.2036
  173MOL0     O22751  11.897   0.639   2.009 -0.3016  0.1936 -0.5089
  173MOL0     C22752  11.753   0.414   2.236  0.0344 -0.0472 -0.4880
  173MOL0     C22753  11.635   0.381   2.291  0.7741 -0.1445  0.1405
  173MOL0     N22754  11.091   0.503   1.921  1.1570 -0.0471  0.4322
  173MOL0     N22755  11.132   0.494   1.799  0.2821 -0.9718 -0.8839
  173MOL0     C22756  10.333   0.559   1.520 -0.4569  0.3569  0.0134
  173MOL0     C22757  10.194   0.532   1.533  0.1526 -0.0237  0.9438
  173MOL0     C22758   9.761   0.468   1.420 -0.1507 -0.4242 -0.7127
  173MOL0     C22759   9.692   0.589   1.383 -0.6302 -0.1971 -0.5030
  173MOL0     C22760   9.561   0.588   1.370  0.7089  0.0206  0.5853
  173MOL0     C22761   9.488   0.470   1.382  0.0527 -0.5320 -0.4442
  173MOL0     O22762   9.352   0.492   1.363 -0.4007  0.1636 -0.3768
  173MOL0     C22763   9.263   0.418   1.447 -0.6100 -0.5297 -0.5334
  173MOL0     C22764   9.127   0.433   1.372 -0.2329 -0.6345  0.1940
  173MOL0     C22765   9.002   0.370   1.426 -0.2421 -0.3456 -0.2231
  173MOL0     C22766   8.893   0.344   1.319  0.4230  0.2014 -0.0017
  173MOL0     C22767   8.880   0.455   1.222 -0.4279 -0.3023 -0.8841
  173MOL0     C22768   8.871   0.538   1.138 -0.8599 -0.6538 -0.0106
  173MOL0     C22769   9.554   0.346   1.412 -0.1146  0.1600  0.0473
  173MOL0     C22770   9.688   0.346   1.427 -0.2273  0.1297  0.4469
  173MOL0     H22771  10.087   0.761   1.299  0.8020  1.5274  1.0125
  173MOL0     H22772  10.353   0.805   1.311  2.9789 -0.6911  1.6086
  173MOL0     H22773  10.543   0.719   1.623 -1.0933  2.3702  1.3147
  173MOL0     H22774  10.504   0.849   1.523  0.0610  0.5075  1.9137
  173MOL0     H22775  10.743   0.885   1.522 -1.4195 -0.4421  1.8958
  173MOL0     H22776  10.725   0.779   1.389 -1.1654  1.3723 -0.4701
  173MOL0     H22777  10.833   0.690   1.661  1.0335  3.5446 -0.9024
  173MOL0     H22778  10.901   0.684   1.493 -1.2678 -0.6009 -2.0198
  173MOL0     H22779  10.663   0.524   1.607 -2.0938 -0.6701 -2.6483
  173MOL0     H22780  10.714   0.535   1.438  1.1447  1.5425 -0.3115
  173MOL0     H22781  10.783   0.338   1.562 -1.1886  1.1339  1.8694
  173MOL0     H22782  10.884   0.450   1.673 -2.1398  1.2757  0.6402
  173MOL0     H22783  11.037   0.499   1.510  0.5072  0.0691  0.4686
  173MOL0     H22784  10.947   0.409   1.377 -0.0005  1.0177  0.0781
  173MOL0     H22785  11.007   0.192   1.546  1.0133 -0.3956  1.0795
  173MOL0     H22786  11.114   0.244   1.423  1.8754 -0.8673  1.8146
  173MOL0     H22787  11.224   0.395   1.568  0.7681 -1.2435 -1.1070
  173MOL0     H22788  11.228   0.232   1.636  0.8540  0.6902  2.0228
  173MOL0     H22789  11.045   0.189   1.842 -4.9056  0.5407 -1.1255
  173MOL0     H22790  11.011   0.225   2.115 -2.4098  0.8262 -0.9783
  173MOL0     H22791  10.963   0.385   2.145 -1.3766 -2.5151  2.0559
  173MOL0     H22792  11.261   0.346   2.136 -1.9421  1.3517 -3.1353
  173MOL0     H22793  11.183   0.250   2.266  2.0321  2.2633  1.2313
  173MOL0     H22794  11.162   0.549   2.207  1.2445 -1.0289 -1.7105
  173MOL0     H22795  11.079   0.468   2.344  0.8095  1.1023  0.4356
  173MOL0     H22796  11.275   0.456   2.471 -0.6027  1.3078  0.1858
  173MOL0     H22797  11.323   0.592   2.381 -1.9326  0.7093  0.7558
  173MOL0     H22798  11.448   0.644   2.192  0.5285 -0.9494 -4.3697
  173MOL0     H22799  11.657   0.720   2.106 -2.2639  0.6459  1.7241
  173MOL0     H22800  12.028   0.491   1.827  1.4221 -2.5463 -1.3330
  173MOL0     H22801  12.252   0.479   1.709  0.4466 -3.1232 -1.0571
  173MOL0     H22802  12.595   0.338   1.961  0.1860  0.3508  0.4969
  173MOL0     H22803  12.614   0.489   1.864 -0.2969 -0.1938  0.9484
  173MOL0     H22804  12.684   0.368   1.685 -3.0160 -0.3457 -0.3899
  173MOL0     H22805  12.657   0.207   1.743  3.0083 -1.1597 -1.2948
  173MOL0     H22806  12.892   0.234   1.772  0.0275  0.6451 -1.4229
  173MOL0     H22807  12.817   0.250   1.932 -3.4295 -0.0042 -0.1417
  173MOL0     H22808  12.896   0.498   1.774  0.6556 -0.2571 -0.6255
  173MOL0     H22809  12.869   0.476   1.952  0.6647 -1.2200  0.9693
  173MOL0     H22810  13.069   0.339   1.949  0.4119  1.8105  1.2907
  173MOL0     H22811  13.087   0.509   1.910 -2.0741  1.5038 -1.2052
  173MOL0     H22812  13.061   0.434   1.649  2.4048  2.6605 -0.4039
  173MOL0     H22813  13.105   0.279   1.720 -0.1076 -0.3946  1.2200
  173MOL0     H22814  13.290   0.522   1.750  2.8665 -0.6895 -1.9913
  173MOL0     H22815  13.324   0.349   1.779  0.7253  0.8189  0.9080
  173MOL0     H22816  13.404   0.462   1.563  1.8227 -3.1030  0.1189
  173MOL0     H22817  13.245   0.473   1.509 -0.3023 -0.5914  0.1768
  173MOL0     H22818  12.421   0.340   2.072  1.9146  0.2711 -2.7481
  173MOL0     H22819  12.209   0.360   2.197  0.7680 -0.4921  0.1372
  173MOL0     H22820  11.827   0.335   2.243  1.6641  1.4730  0.4124
  173MOL0     H22821  11.629   0.285   2.343  3.4620  0.0211  0.8808
  173MOL0     H22822  10.403   0.502   1.580  0.7769  0.7377 -1.0013
  173MOL0     H22823  10.168   0.461   1.611 -2.5863  0.4284  0.5188
  173MOL0     H22824   9.753   0.678   1.369 -0.9149  0.0086 -0.4361
  173MOL0     H22825   9.504   0.677   1.346  1.0960 -0.1885 -1.1863
  173MOL0     H22826   9.261   0.449   1.552 -2.6650 -2.5639  0.1195
  173MOL0     H22827   9.294   0.314   1.461 -0.1703 -0.0147  3.8929
  173MOL0     H22828   9.113   0.539   1.351 -0.2603 -0.8696 -1.0731
  173MOL0     H22829   9.153   0.397   1.272  1.5875  1.9704 -0.3538
  173MOL0     H22830   8.956   0.433   1.503  0.0998  2.2424 -2.0380
  173MOL0     H22831   9.034   0.276   1.471  1.0093 -0.6745 -1.7112
  173MOL0     H22832   8.921   0.249   1.273 -0.6258  0.6370 -1.6241
  173MOL0     H22833   8.798   0.315   1.364 -1.1024  1.8195 -1.9647
  173MOL0     H22834   8.851   0.614   1.065  1.0737 -1.8491 -1.9078
  173MOL0     H22835   9.502   0.254   1.390 -0.9929  1.4489 -4.1766
  173MOL0     H22836   9.741   0.254   1.449 -0.4330  0.3080  1.7697
  174MOL0     O22837   5.453   4.511   6.461  0.4300  0.9130  0.1043
  174MOL0     C22838   5.563   4.556   6.418  0.5773  0.6617  1.3140
  174MOL0     O22839   5.603   4.545   6.285  0.8427  0.7062 -0.0777
  174MOL0     C22840   5.536   4.499   6.174  0.2177 -0.4741 -0.0757
  174MOL0     C22841   5.619   4.474   6.066 -1.1045 -0.1267  0.2839
  174MOL0     C22842   5.574   4.438   5.938 -0.0745 -0.3163  0.0969
  174MOL0     C22843   5.435   4.435   5.919  0.9748 -0.2338  0.6510
  174MOL0     O22844   5.387   4.396   5.793 -0.0857 -0.0679  0.0096
  174MOL0     C22845   5.407   4.488   5.689  0.3241  0.0448  0.0000
  174MOL0     C22846   5.373   4.408   5.560 -0.3199 -0.0021 -0.1622
  174MOL0     C22847   5.225   4.396   5.526  0.0730 -0.5996 -1.0376
  174MOL0     C22848   5.204   4.359   5.378  0.1480  0.4291 -0.1485
  174MOL0     C22849   5.053   4.389   5.340 -0.5223 -0.2638  0.3889
  174MOL0     C22850   5.039   4.308   5.205  0.1259  0.0900  0.7537
  174MOL0     C22851   4.896   4.313   5.153  0.4192 -0.0729  0.4258
  174MOL0     C22852   4.864   4.434   5.068  0.3042 -0.5968  0.2062
  174MOL0     N22853   4.736   4.423   4.998  0.8884  0.0050 -0.7029
  174MOL0     C22854   4.622   4.368   5.062 -0.0776  0.2530  1.2138
  174MOL0     C22855   4.535   4.351   4.955 -0.8075 -0.8731  0.3222
  174MOL0     C22856   4.395   4.288   4.970  0.5127 -0.1773  0.0931
  174MOL0     C22857   4.314   4.290   4.842  0.1886 -0.3758  0.3989
  174MOL0     C22858   4.187   4.220   4.876  0.3305 -0.1683  0.7182
  174MOL0     C22859   4.084   4.238   4.771  0.4916  0.1270  0.7199
  174MOL0     O22860   3.963   4.163   4.810  0.0239 -0.2334 -0.5631
  174MOL0     C22861   3.846   4.184   4.741  0.7285 -0.6376 -0.2480
  174MOL0     C22862   3.810   4.285   4.646 -0.0709  0.6239 -0.6394
  174MOL0     C22863   3.683   4.297   4.576 -0.9883  0.4050 -0.3632
  174MOL0     C22864   3.584   4.212   4.606  0.7769  0.4285  0.0454
  174MOL0     C22865   3.458   4.208   4.544  0.3491  0.9562 -0.1828
  174MOL0     O22866   3.436   4.278   4.435 -0.1555  0.1439  0.1954
  174MOL0     C22867   3.321   4.300   4.368 -0.1882  0.6165 -0.1164
  174MOL0     C22868   3.340   4.354   4.245 -0.0983 -0.3814 -0.0660
  174MOL0     C22869   3.226   4.385   4.162 -0.6681  0.1418  0.2804
  174MOL0     C22870   3.096   4.365   4.206 -0.5663 -0.1111  0.1925
  174MOL0     O22871   2.984   4.388   4.124  0.6587 -0.1485 -0.6170
  174MOL0     C22872   2.908   4.508   4.165 -0.4625  0.4363  0.0320
  174MOL0     C22873   2.818   4.545   4.054 -0.3530  0.0320 -0.1906
  174MOL0     C22874   2.732   4.429   4.001 -0.5941 -0.6974 -0.0570
  174MOL0     C22875   2.638   4.377   4.113  0.1828  0.9851  0.3719
  174MOL0     C22876   2.520   4.284   4.054 -0.3364  0.6417 -0.3008
  174MOL0     C22877   2.402   4.267   4.145  0.2623 -0.4893 -0.1029
  174MOL0     C22878   2.270   4.216   4.076  0.4935 -0.2402  0.1271
  174MOL0     C22879   2.178   4.153   4.182  0.1048 -0.0083  0.0240
  174MOL0    Cl22880   2.098   4.283   4.264  0.0342  0.1079  0.0188
  174MOL0     C22881   3.081   4.307   4.334 -0.2544  0.4100 -0.1350
  174MOL0     C22882   3.187   4.274   4.413  0.3148 -0.6411 -0.0803
  174MOL0     O22883   3.370   4.135   4.603 -0.3949 -0.4232 -0.3203
  174MOL0     C22884   3.609   4.119   4.711 -0.5258 -0.7978 -0.5693
  174MOL0     C22885   3.739   4.105   4.766  0.4748 -0.7607 -0.5706
  174MOL0     N22886   4.594   4.409   4.842  0.1350 -0.1833  0.1284
  174MOL0     N22887   4.717   4.439   4.865 -0.6205 -0.3936  0.4376
  174MOL0     C22888   5.347   4.461   6.021  0.1126 -0.5921 -0.9660
  174MOL0     C22889   5.399   4.489   6.152 -0.1367  0.0304  0.4758
  174MOL0     C22890   5.646   4.625   6.519 -0.3658  0.2907  0.5225
  174MOL0     C22891   5.782   4.639   6.491  0.6918  0.2759 -1.0559
  174MOL0     C22892   5.862   4.711   6.584  0.6253  0.2968  0.8183
  174MOL0     C22893   5.813   4.758   6.695  0.4286  0.2164 -0.6376
  174MOL0     O22894   5.905   4.811   6.781  0.6428 -0.3845 -0.1037
  174MOL0     C22895   5.878   4.871   6.912  0.1480  0.2682  0.5576
  174MOL0     C22896   5.969   4.824   7.017 -0.0450 -0.0999  0.0043
  174MOL0     C22897   6.110   4.858   6.976  0.2218 -0.2153 -0.0387
  174MOL0     C22898   6.152   5.000   6.987  0.8300 -1.0558 -0.0368
  174MOL0     C22899   6.291   5.017   6.936  0.6044 -0.0945 -0.5443
  174MOL0     C22900   6.412   5.035   6.902  0.7831  0.6911  0.4001
  174MOL0     C22901   5.680   4.740   6.721  0.4000  0.2640  0.9124
  174MOL0     C22902   5.594   4.667   6.641 -0.1013 -1.0955 -0.9843
  174MOL0     H22903   5.727   4.477   6.078 -1.0548 -1.0256  0.1263
  174MOL0     H22904   5.645   4.403   5.864  0.3630 -0.2838  0.5049
  174MOL0     H22905   5.511   4.520   5.677  1.1877 -1.5788  2.3527
  174MOL0     H22906   5.344   4.576   5.704 -2.2176 -1.6490 -0.1815
  174MOL0     H22907   5.417   4.308   5.562 -0.4677 -0.1077 -1.3656
  174MOL0     H22908   5.422   4.470   5.485  0.8196 -0.5388  0.1182
  174MOL0     H22909   5.165   4.483   5.554  0.1773 -0.7147 -0.4284
  174MOL0     H22910   5.185   4.320   5.595  1.5372 -0.9774 -0.5691
  174MOL0     H22911   5.266   4.427   5.318  1.7296  0.6010  1.6189
  174MOL0     H22912   5.232   4.257   5.353  0.8585  0.7418 -0.6508
  174MOL0     H22913   5.044   4.496   5.317  2.1501  0.2318  1.3785
  174MOL0     H22914   4.980   4.353   5.413 -0.7449  0.7903  0.7070
  174MOL0     H22915   5.073   4.207   5.229 -1.5427 -0.4831  0.8441
  174MOL0     H22916   5.106   4.346   5.128 -0.1462 -4.9248 -2.3952
  174MOL0     H22917   4.877   4.215   5.108  2.5297 -1.0652  1.5551
  174MOL0     H22918   4.822   4.308   5.233 -0.3426  0.5487 -0.2189
  174MOL0     H22919   4.943   4.456   4.996 -0.5881  0.2316 -0.5490
  174MOL0     H22920   4.866   4.517   5.138 -2.5077 -0.6501  0.4927
  174MOL0     H22921   4.597   4.328   5.159 -2.5172 -1.9341 -0.1814
  174MOL0     H22922   4.329   4.342   5.037 -3.6136 -1.6224 -2.4155
  174MOL0     H22923   4.408   4.186   5.006 -0.1623 -0.0148  0.8155
  174MOL0     H22924   4.363   4.243   4.757 -1.4229  1.4581 -1.6530
  174MOL0     H22925   4.292   4.392   4.810  2.8887 -0.4300 -1.9811
  174MOL0     H22926   4.202   4.112   4.885  1.1486  0.1030  3.5871
  174MOL0     H22927   4.147   4.252   4.972  2.8025  0.7313  1.5183
  174MOL0     H22928   4.126   4.202   4.677 -0.6341  0.0823  0.2144
  174MOL0     H22929   4.076   4.347   4.766  1.4960  0.2973  2.1088
  174MOL0     H22930   3.888   4.344   4.600 -1.0683 -0.7160 -4.3887
  174MOL0     H22931   3.680   4.369   4.494 -0.5455  0.7514 -0.0825
  174MOL0     H22932   3.437   4.384   4.207 -0.2776  1.4764  0.8353
  174MOL0     H22933   3.229   4.427   4.062 -1.5308  2.9374  1.3373
  174MOL0     H22934   2.974   4.592   4.187  1.2836 -1.3833  2.4211
  174MOL0     H22935   2.843   4.493   4.252  1.1361  1.9655  1.5547
  174MOL0     H22936   2.877   4.580   3.969  2.4888 -0.2988  1.5070
  174MOL0     H22937   2.757   4.632   4.079  3.0087  3.4819 -2.8661
  174MOL0     H22938   2.800   4.351   3.965  0.6212  0.9739 -1.5256
  174MOL0     H22939   2.685   4.475   3.914  2.3857  2.4292 -0.2529
  174MOL0     H22940   2.696   4.321   4.187  0.0121  0.2937 -0.0031
  174MOL0     H22941   2.594   4.469   4.152 -2.6315  2.5989 -5.4242
  174MOL0     H22942   2.557   4.186   4.025 -1.7023  0.6128 -2.0885
  174MOL0     H22943   2.493   4.337   3.962 -0.6170  0.1700 -0.4933
  174MOL0     H22944   2.378   4.360   4.196 -2.2605 -1.2081  0.1498
  174MOL0     H22945   2.441   4.197   4.220 -2.0538 -0.4597  1.2102
  174MOL0     H22946   2.231   4.308   4.031  3.7054  0.9912 -0.4301
  174MOL0     H22947   2.291   4.148   3.992 -3.5952  0.8566 -2.0575
  174MOL0     H22948   2.228   4.078   4.243  0.3258 -0.0791 -0.2489
  174MOL0     H22949   2.096   4.106   4.127 -0.3663  1.3674 -0.5089
  174MOL0     H22950   2.984   4.279   4.375 -0.8028 -0.3830 -1.8808
  174MOL0     H22951   3.166   4.238   4.513  0.5132  0.1411  0.2550
  174MOL0     H22952   3.542   4.044   4.751  0.2583  0.0971  2.7334
  174MOL0     H22953   3.760   4.032   4.844  0.8814  0.5842  0.6135
  174MOL0     H22954   5.242   4.440   6.008 -0.4806 -0.9001  3.0483
  174MOL0     H22955   5.326   4.514   6.228 -2.1321 -0.3254 -1.2354
  174MOL0     H22956   5.826   4.604   6.399  1.0182 -0.4262 -0.6395
  174MOL0     H22957   5.963   4.738   6.554  0.4164  1.1886  0.8772
  174MOL0     H22958   5.774   4.849   6.938 -0.0317  0.6168  0.1302
  174MOL0     H22959   5.878   4.979   6.899 -0.6112  0.0061 -2.3010
  174MOL0     H22960   5.943   4.849   7.120 -0.2874 -1.2182  0.2315
  174MOL0     H22961   5.969   4.714   7.017 -0.8529 -0.1116 -0.4438
  174MOL0     H22962   6.114   4.831   6.870 -2.2997  1.1353 -0.5391
  174MOL0     H22963   6.178   4.792   7.031 -0.0851  0.6983  1.4914
  174MOL0     H22964   6.088   5.076   6.941 -2.2501 -1.1598  3.5989
  174MOL0     H22965   6.150   5.027   7.093 -0.0187 -0.5632 -0.1743
  174MOL0     H22966   6.515   5.045   6.874  0.5674 -2.3845 -2.0737
  174MOL0     H22967   5.637   4.776   6.813  1.8430  1.6989  1.0810
  174MOL0     H22968   5.492   4.653   6.676 -0.5704 -1.9148 -2.5964
  175MOL0     O22969   3.971   2.193  10.120  0.3531 -0.3952 -0.4305
  175MOL0     C22970   4.028   2.104  10.054 -0.0102  0.7713 -0.4742
  175MOL0     O22971   3.993   2.072   9.932  0.0119  0.1430  0.3537
  175MOL0     C22972   3.957   2.175   9.845  0.3215 -0.3161 -0.2105
  175MOL0     C22973   4.054   2.267   9.801  0.6335 -0.1234 -0.6049
  175MOL0     C22974   4.020   2.395   9.744 -0.2057  0.0359  0.5494
  175MOL0     C22975   3.892   2.407   9.694 -0.1009  0.8687 -0.0606
  175MOL0     O22976   3.872   2.518   9.617  0.4990 -0.4250 -0.3986
  175MOL0     C22977   3.773   2.502   9.510 -0.6551  0.9713  0.0443
  175MOL0     C22978   3.752   2.633   9.428 -0.4382 -1.3123 -0.0871
  175MOL0     C22979   3.632   2.627   9.336  1.5471  0.0409  0.1203
  175MOL0     C22980   3.603   2.753   9.249  0.5477  0.5324 -0.2956
  175MOL0     C22981   3.460   2.739   9.201  0.5924  0.2327  0.0785
  175MOL0     C22982   3.422   2.833   9.083  0.1208  0.1441  0.2136
  175MOL0     C22983   3.286   2.792   9.019  1.0570 -0.3678 -0.9891
  175MOL0     C22984   3.176   2.818   9.117 -0.3017 -0.4124 -0.0760
  175MOL0     N22985   3.051   2.805   9.050  0.7506 -0.1566 -0.0471
  175MOL0     C22986   2.990   2.690   9.010 -0.0012  0.6501  0.4429
  175MOL0     C22987   2.891   2.723   8.927 -0.1443 -0.0069  0.0313
  175MOL0     C22988   2.820   2.636   8.833 -0.2370  0.0772  0.7295
  175MOL0     C22989   2.661   2.639   8.826 -0.7890  0.5216  0.3047
  175MOL0     C22990   2.625   2.519   8.729  0.2930  0.0025 -0.7689
  175MOL0     C22991   2.484   2.484   8.746  0.0478  0.4859  0.1406
  175MOL0     O22992   2.398   2.603   8.759 -0.9021 -0.4907  0.4100
  175MOL0     C22993   2.264   2.593   8.793  0.0530  0.2759  0.4255
  175MOL0     C22994   2.191   2.704   8.808 -0.8581 -0.6597  0.2668
  175MOL0     C22995   2.053   2.701   8.833  0.1174  0.4276 -0.7859
  175MOL0     C22996   1.985   2.585   8.851 -0.0083  0.1325 -0.5603
  175MOL0     C22997   1.834   2.570   8.848  0.8381  0.2419 -0.4914
  175MOL0     O22998   1.776   2.460   8.789  0.3047 -0.4015 -0.0838
  175MOL0     C22999   1.643   2.451   8.769  0.4219 -0.2104 -0.1749
  175MOL0     C23000   1.568   2.548   8.702  0.1352  0.1015 -0.7129
  175MOL0     C23001   1.425   2.525   8.688  0.1101  1.1167 -0.1964
  175MOL0     C23002   1.361   2.414   8.747  0.4394 -0.4917  0.1505
  175MOL0     O23003   1.224   2.397   8.745  0.2368  0.6600  0.6059
  175MOL0     C23004   1.156   2.324   8.852 -0.5761  0.1221  0.0802
  175MOL0     C23005   1.009   2.360   8.859  0.5848 -0.8696 -0.5889
  175MOL0     C23006   0.993   2.487   8.946  0.0322 -0.5358  0.0513
  175MOL0     C23007   0.862   2.551   8.931  0.5725  0.9583 -0.4543
  175MOL0     C23008   0.864   2.685   9.008 -0.2700  0.3986  1.1380
  175MOL0     C23009   0.721   2.741   9.025  0.0160 -0.4202 -1.2736
  175MOL0     C23010   0.723   2.895   9.031 -0.1653  0.1727 -0.0137
  175MOL0     C23011   0.576   2.950   9.022  0.1053  0.1777 -0.3489
  175MOL0    Cl23012   0.583   3.123   9.027 -0.4867 -0.3985 -0.3028
  175MOL0     C23013   1.440   2.314   8.813 -0.2918  0.6635  0.0855
  175MOL0     C23014   1.582   2.339   8.817 -0.3916  0.4123  0.6843
  175MOL0     O23015   1.776   2.665   8.893  0.2819  0.1407  0.5252
  175MOL0     C23016   2.062   2.469   8.847 -0.3838 -0.8533 -0.0133
  175MOL0     C23017   2.202   2.471   8.814 -0.7054  0.6318  0.4893
  175MOL0     N23018   2.887   2.862   8.922  0.0270  0.2547  0.1849
  175MOL0     N23019   2.976   2.911   9.005  0.1534  0.4216  0.8333
  175MOL0     C23020   3.795   2.314   9.729  0.0950  0.2138 -0.2195
  175MOL0     C23021   3.828   2.196   9.805 -0.2769 -0.5150  0.9819
  175MOL0     C23022   4.120   2.008  10.123  0.7490  0.0835  0.8864
  175MOL0     C23023   4.146   1.880  10.075 -0.1274  0.1780 -0.2116
  175MOL0     C23024   4.242   1.793  10.143 -0.2887  0.1771 -0.3162
  175MOL0     C23025   4.299   1.834  10.264  0.1678 -0.3002  0.7024
  175MOL0     O23026   4.398   1.772  10.330  0.0007 -0.6673 -0.2324
  175MOL0     C23027   4.505   1.720  10.250  0.6239 -0.2854  0.3933
  175MOL0     C23028   4.631   1.689  10.338  0.1873 -0.2656  0.1403
  175MOL0     C23029   4.761   1.700  10.265 -0.0312 -1.4121  0.8357
  175MOL0     C23030   4.870   1.630  10.347 -0.1854  0.2941  0.7902
  175MOL0     C23031   5.006   1.677  10.331  0.2474 -0.0429  0.2987
  175MOL0     C23032   5.115   1.720  10.305  0.7362  0.2133 -0.3998
  175MOL0     C23033   4.260   1.955  10.318  0.4590 -0.2113  0.5195
  175MOL0     C23034   4.169   2.036  10.252 -0.7238 -0.1688 -0.3855
  175MOL0     H23035   4.153   2.251   9.843 -0.5485  0.7646  2.8947
  175MOL0     H23036   4.103   2.464   9.741 -0.0492  0.2212  4.1540
  175MOL0     H23037   3.676   2.482   9.557  0.1028  2.1027  2.2350
  175MOL0     H23038   3.788   2.413   9.449 -1.3738  0.2838  0.8347
  175MOL0     H23039   3.842   2.649   9.368 -1.4188  2.4998 -0.8349
  175MOL0     H23040   3.744   2.719   9.496  1.6789 -0.7957 -0.4212
  175MOL0     H23041   3.541   2.615   9.396  0.6237  2.5566 -0.6502
  175MOL0     H23042   3.641   2.545   9.264 -0.8393  0.2521 -0.4887
  175MOL0     H23043   3.621   2.851   9.293 -0.6553  1.6907 -2.2145
  175MOL0     H23044   3.671   2.752   9.162  1.6344  1.1706  0.5188
  175MOL0     H23045   3.390   2.759   9.283  0.5685 -0.2153  0.1699
  175MOL0     H23046   3.443   2.636   9.170  2.4579  0.2305 -1.0593
  175MOL0     H23047   3.500   2.829   9.006 -1.0112 -0.0304 -0.9615
  175MOL0     H23048   3.423   2.941   9.098  0.4346  0.3621 -1.2364
  175MOL0     H23049   3.257   2.854   8.933 -1.9517 -0.0223  0.1605
  175MOL0     H23050   3.292   2.688   8.986 -0.3311 -0.3430 -1.3785
  175MOL0     H23051   3.176   2.918   9.160 -0.1641  0.3505 -1.7926
  175MOL0     H23052   3.189   2.747   9.200  0.2539 -1.0736 -0.7132
  175MOL0     H23053   3.014   2.586   9.032  1.3410  0.9386  0.4073
  175MOL0     H23054   2.851   2.534   8.857  0.0609 -0.2974 -1.1093
  175MOL0     H23055   2.863   2.663   8.736 -0.5199  0.4785  0.7128
  175MOL0     H23056   2.629   2.730   8.776 -0.2266 -0.0096 -1.0879
  175MOL0     H23057   2.622   2.630   8.928 -0.1910 -0.7456  0.4408
  175MOL0     H23058   2.637   2.534   8.622  0.7306 -0.7696 -0.8399
  175MOL0     H23059   2.676   2.429   8.765 -0.7825  0.3276  1.8559
  175MOL0     H23060   2.473   2.424   8.837 -1.5732 -0.2200 -0.4684
  175MOL0     H23061   2.450   2.423   8.662 -1.8949  1.2789  0.2923
  175MOL0     H23062   2.232   2.804   8.807 -1.8068 -0.2506 -0.9374
  175MOL0     H23063   1.995   2.793   8.839 -2.1389 -0.8125 -2.4831
  175MOL0     H23064   1.612   2.637   8.660  2.7192 -1.7312 -2.1573
  175MOL0     H23065   1.368   2.601   8.637 -1.5639  0.6729  0.9177
  175MOL0     H23066   1.197   2.358   8.947 -1.9904  4.9941 -0.7712
  175MOL0     H23067   1.165   2.218   8.825  1.4715 -0.6325  3.2471
  175MOL0     H23068   0.949   2.279   8.902  1.3571 -0.6870  0.8731
  175MOL0     H23069   0.970   2.379   8.758 -2.2300  2.0602  0.8687
  175MOL0     H23070   1.070   2.554   8.906 -0.4397 -0.0167 -0.0085
  175MOL0     H23071   1.012   2.472   9.052  1.5531 -1.7824 -0.3681
  175MOL0     H23072   0.844   2.577   8.826 -2.4805  2.1588  0.2606
  175MOL0     H23073   0.791   2.478   8.970  2.8224 -0.7704  0.6259
  175MOL0     H23074   0.928   2.755   8.954  0.2613  0.7157  2.1606
  175MOL0     H23075   0.914   2.677   9.105  0.3519  0.5403  0.8292
  175MOL0     H23076   0.689   2.713   9.126  0.6810  2.0319 -0.3124
  175MOL0     H23077   0.656   2.721   8.939 -1.3232 -0.1939 -0.3315
  175MOL0     H23078   0.782   2.923   9.119  0.8856  1.2462 -1.0353
  175MOL0     H23079   0.774   2.929   8.941  0.5313 -3.0282 -0.9704
  175MOL0     H23080   0.506   2.914   9.098  0.5646  1.6489  0.8178
  175MOL0     H23081   0.530   2.938   8.924 -0.7313  0.3166  0.0190
  175MOL0     H23082   1.388   2.226   8.848  2.4238 -1.0172  0.1886
  175MOL0     H23083   1.648   2.263   8.856 -0.7828 -0.2405  0.0953
  175MOL0     H23084   2.021   2.368   8.858 -0.1535 -0.7224  2.5040
  175MOL0     H23085   2.255   2.377   8.809 -3.8062 -1.2270 -0.8001
  175MOL0     H23086   3.694   2.345   9.707 -1.0573 -1.2951  2.4282
  175MOL0     H23087   3.752   2.131   9.845  1.6257 -2.8532  1.0177
  175MOL0     H23088   4.110   1.850   9.977 -2.7131 -1.7081  1.1822
  175MOL0     H23089   4.280   1.698  10.106  1.0617  1.2879 -1.9671
  175MOL0     H23090   4.524   1.792  10.170 -0.6339  2.9551  2.7888
  175MOL0     H23091   4.469   1.625  10.209  1.2081 -0.0021 -0.8214
  175MOL0     H23092   4.624   1.753  10.426 -1.2996  0.1583 -0.2538
  175MOL0     H23093   4.624   1.584  10.368  1.1308  0.0072  1.4144
  175MOL0     H23094   4.776   1.809  10.264 -2.6415 -0.9826 -0.9951
  175MOL0     H23095   4.748   1.664  10.163 -2.6527 -0.0842  0.6010
  175MOL0     H23096   4.840   1.648  10.451  1.7574 -2.9654  2.0770
  175MOL0     H23097   4.866   1.521  10.337 -1.7682  0.3359  0.6356
  175MOL0     H23098   5.220   1.742  10.300  0.8426 -0.1232  0.3409
  175MOL0     H23099   4.304   1.994  10.410 -1.3460  0.3097  1.2161
  175MOL0     H23100   4.133   2.127  10.300  1.8643  1.3546 -1.1292
  176MOL0     O23101   7.431   2.680   2.936  0.6319  0.1527  0.0828
  176MOL0     C23102   7.413   2.637   2.823 -0.5549 -0.4049  0.0450
  176MOL0     O23103   7.290   2.632   2.749  0.2026  1.1052 -0.5020
  176MOL0     C23104   7.175   2.664   2.817 -0.1353  0.4760 -0.1251
  176MOL0     C23105   7.066   2.576   2.837 -0.2571 -0.9389  0.2261
  176MOL0     C23106   6.947   2.614   2.903  0.2305  0.5937 -0.1044
  176MOL0     C23107   6.937   2.740   2.956  0.6864  0.3241  0.2049
  176MOL0     O23108   6.810   2.779   3.009 -0.1742  0.7015  0.9647
  176MOL0     C23109   6.796   2.912   3.054  1.1567 -0.1467 -0.3911
  176MOL0     C23110   6.658   2.930   3.126 -1.8684  0.7266 -0.4038
  176MOL0     C23111   6.529   2.888   3.059 -0.1061  0.6031  0.3633
  176MOL0     C23112   6.413   2.933   3.149  0.1541 -0.2320 -0.2467
  176MOL0     C23113   6.278   2.874   3.104  0.5386  1.2483 -0.2914
  176MOL0     C23114   6.156   2.926   3.180  0.5299 -0.5020  0.7644
  176MOL0     C23115   6.022   2.860   3.137 -0.4465 -0.0008 -0.5595
  176MOL0     C23116   5.908   2.867   3.224 -0.3536  0.6966  0.1784
  176MOL0     N23117   5.807   2.777   3.185  0.4388 -0.4097 -0.1221
  176MOL0     C23118   5.765   2.662   3.257 -0.6172 -0.1385 -0.5698
  176MOL0     C23119   5.668   2.611   3.174  0.3042  0.0257 -0.3835
  176MOL0     C23120   5.579   2.485   3.182 -0.5291 -0.1809  0.6338
  176MOL0     C23121   5.553   2.439   3.320 -0.0263  0.6565 -0.0827
  176MOL0     C23122   5.502   2.292   3.324 -0.7359  0.7520 -0.2626
  176MOL0     C23123   5.372   2.279   3.263  0.4557  0.2763  0.0287
  176MOL0     O23124   5.305   2.166   3.312 -0.5775  0.8136 -0.1718
  176MOL0     C23125   5.185   2.132   3.251 -0.6561  0.6843  0.2214
  176MOL0     C23126   5.138   2.004   3.275  0.4254  0.8811 -0.4057
  176MOL0     C23127   5.016   1.961   3.233  0.5390 -0.6989  0.1380
  176MOL0     C23128   4.925   2.040   3.164 -0.5416 -0.0429 -0.1568
  176MOL0     C23129   4.794   1.982   3.123  0.6467  0.4853  0.9207
  176MOL0     O23130   4.782   1.843   3.121  0.1073  0.4496 -0.6680
  176MOL0     C23131   4.654   1.800   3.126  0.6131 -0.3112  0.5245
  176MOL0     C23132   4.589   1.806   3.247  0.0276  0.7475  0.0575
  176MOL0     C23133   4.451   1.784   3.249  0.7909 -0.8349 -0.1399
  176MOL0     C23134   4.378   1.737   3.141 -0.2764 -0.4705 -1.0170
  176MOL0     O23135   4.240   1.714   3.134 -0.6736  0.6421  0.4409
  176MOL0     C23136   4.157   1.773   3.231 -0.7166 -0.2731 -0.4003
  176MOL0     C23137   4.016   1.791   3.182 -0.1854  0.6854 -0.6279
  176MOL0     C23138   3.940   1.653   3.186 -0.7641  0.7030  0.2655
  176MOL0     C23139   3.792   1.679   3.175 -1.0632  0.9238 -0.6838
  176MOL0     C23140   3.705   1.566   3.131 -0.5464  0.2472  0.4062
  176MOL0     C23141   3.564   1.619   3.109  0.8924  1.2580 -0.0322
  176MOL0     C23142   3.460   1.517   3.078 -0.0370  0.1916 -0.1328
  176MOL0     C23143   3.316   1.556   3.109  0.2522  0.1545  0.5824
  176MOL0    Cl23144   3.268   1.698   3.005  0.0337  0.1960  0.2265
  176MOL0     C23145   4.455   1.700   3.029 -0.1368 -0.3200  0.1893
  176MOL0     C23146   4.588   1.742   3.014  0.2700  0.8996 -0.2078
  176MOL0     O23147   4.716   2.064   3.066  0.0899  0.0207  0.3378
  176MOL0     C23148   4.975   2.169   3.128 -0.5963 -0.1322  1.0727
  176MOL0     C23149   5.101   2.215   3.176 -0.4606  0.1249 -0.3898
  176MOL0     N23150   5.682   2.675   3.050  0.1497  0.8330 -0.0717
  176MOL0     N23151   5.743   2.779   3.070 -0.7081  0.2382  0.0031
  176MOL0     C23152   7.043   2.831   2.951  0.2440  0.0153  0.7875
  176MOL0     C23153   7.158   2.792   2.876  0.4048  0.3124 -0.3052
  176MOL0     C23154   7.530   2.575   2.760  0.3371 -0.7520  0.5009
  176MOL0     C23155   7.649   2.553   2.839 -0.0562  0.1644  0.1609
  176MOL0     C23156   7.764   2.502   2.773  0.1411  0.1630  0.1410
  176MOL0     C23157   7.764   2.459   2.639 -0.6201  0.5700 -0.5925
  176MOL0     O23158   7.880   2.415   2.581 -0.8233  0.1235 -0.6646
  176MOL0     C23159   7.885   2.383   2.444 -0.4070  0.6029  0.9377
  176MOL0     C23160   8.017   2.333   2.400  0.1653  0.0979  0.0942
  176MOL0     C23161   8.120   2.444   2.401 -0.4143  0.0000 -0.2670
  176MOL0     C23162   8.258   2.398   2.365  0.8857 -0.7041 -0.3859
  176MOL0     C23163   8.313   2.295   2.449 -0.1962 -0.6668  0.0957
  176MOL0     C23164   8.358   2.206   2.522  0.2904 -0.5379  0.4377
  176MOL0     C23165   7.644   2.483   2.567 -0.8581  0.1515  0.0266
  176MOL0     C23166   7.524   2.524   2.624  0.3186  0.2796  0.9920
  176MOL0     H23167   7.084   2.471   2.816 -0.7711 -1.2251  1.1819
  176MOL0     H23168   6.857   2.555   2.911  1.1467 -0.7482  0.6472
  176MOL0     H23169   6.810   2.985   2.974 -0.6073 -1.4307 -1.9553
  176MOL0     H23170   6.871   2.938   3.130  1.1932  0.4131 -0.6102
  176MOL0     H23171   6.652   3.039   3.138 -1.6730  1.1095 -3.0796
  176MOL0     H23172   6.660   2.879   3.222  3.0884  1.1774 -0.0279
  176MOL0     H23173   6.533   2.782   3.030  2.5168  1.0746 -1.4201
  176MOL0     H23174   6.514   2.945   2.967  0.3296 -1.2413 -0.9214
  176MOL0     H23175   6.432   2.896   3.250 -0.4025 -2.5743 -0.9284
  176MOL0     H23176   6.415   3.042   3.150 -1.3835 -0.1678  1.7503
  176MOL0     H23177   6.291   2.765   3.109 -0.1576  1.1160 -1.2425
  176MOL0     H23178   6.273   2.891   2.996  0.2523  2.5189 -0.0972
  176MOL0     H23179   6.169   3.034   3.173  3.2641 -0.8393 -0.8349
  176MOL0     H23180   6.166   2.885   3.281 -2.0024 -0.4376  1.1016
  176MOL0     H23181   6.000   2.905   3.040  1.3570  0.5791 -0.7519
  176MOL0     H23182   6.035   2.752   3.124 -1.9286 -0.6084  2.2276
  176MOL0     H23183   5.857   2.963   3.230 -0.8138  0.4498  0.2987
  176MOL0     H23184   5.938   2.840   3.325 -0.6862 -0.4203 -0.0017
  176MOL0     H23185   5.795   2.633   3.358  2.0687  1.6607 -0.7454
  176MOL0     H23186   5.620   2.399   3.128 -0.2379  0.4449 -0.1642
  176MOL0     H23187   5.486   2.508   3.129 -1.5923  0.3663  2.6655
  176MOL0     H23188   5.485   2.506   3.374 -0.3053 -0.3914  0.9129
  176MOL0     H23189   5.646   2.432   3.377 -0.4708  0.8471  0.6804
  176MOL0     H23190   5.563   2.217   3.274 -1.2230 -0.5834  1.0826
  176MOL0     H23191   5.494   2.259   3.428 -1.2589  2.2525  0.2074
  176MOL0     H23192   5.384   2.285   3.154 -2.6811 -2.4783 -0.5941
  176MOL0     H23193   5.311   2.365   3.291 -0.6130 -0.7640  0.9789
  176MOL0     H23194   5.198   1.935   3.334 -0.8085 -2.3072 -2.5583
  176MOL0     H23195   4.988   1.858   3.254  1.3887 -0.8143  0.7606
  176MOL0     H23196   4.643   1.853   3.328 -1.1725  0.4666  1.0573
  176MOL0     H23197   4.406   1.815   3.343  0.2658  0.9231 -0.9452
  176MOL0     H23198   4.198   1.874   3.241 -1.7492  0.5545 -3.5428
  176MOL0     H23199   4.153   1.723   3.328  0.9804  2.8544  1.4666
  176MOL0     H23200   4.012   1.838   3.083  1.6742 -1.4138 -1.7905
  176MOL0     H23201   3.962   1.858   3.249 -2.8536 -0.7336 -1.1994
  176MOL0     H23202   3.958   1.602   3.281  4.5760  0.4706 -0.5651
  176MOL0     H23203   3.972   1.590   3.103 -0.6755  0.8841  0.1612
  176MOL0     H23204   3.764   1.722   3.272  0.9146  1.9155 -0.4965
  176MOL0     H23205   3.781   1.756   3.099  1.0151  2.7913  0.7590
  176MOL0     H23206   3.712   1.488   3.206 -2.0999  1.1037  1.4935
  176MOL0     H23207   3.753   1.519   3.044  1.2241  2.1157  0.2953
  176MOL0     H23208   3.565   1.694   3.029 -2.1703  1.9435  0.4338
  176MOL0     H23209   3.517   1.673   3.192  0.5372 -3.0329  2.9153
  176MOL0     H23210   3.463   1.493   2.972 -1.3865 -0.6568 -0.0037
  176MOL0     H23211   3.478   1.427   3.138  3.3218  0.9138  0.0926
  176MOL0     H23212   3.311   1.593   3.212 -1.1068 -0.9350  0.9312
  176MOL0     H23213   3.246   1.474   3.095 -0.9334  1.4787 -1.9590
  176MOL0     H23214   4.397   1.645   2.955  0.5048  1.4604 -1.7270
  176MOL0     H23215   4.643   1.719   2.923 -2.3506  0.1120 -1.7073
  176MOL0     H23216   4.901   2.234   3.083 -1.4683 -2.6113 -1.3743
  176MOL0     H23217   5.122   2.321   3.176 -2.7819  0.6331  0.1902
  176MOL0     H23218   7.033   2.931   2.991 -1.3256  0.7407 -1.2288
  176MOL0     H23219   7.234   2.870   2.872  1.0503  0.1847  3.9129
  176MOL0     H23220   7.656   2.571   2.946 -0.5926 -1.4188  0.4978
  176MOL0     H23221   7.854   2.483   2.830 -0.4335  1.0522  1.3684
  176MOL0     H23222   7.860   2.473   2.388 -1.0621 -0.0700  0.1202
  176MOL0     H23223   7.815   2.304   2.415  0.4440 -0.0070  0.4970
  176MOL0     H23224   8.044   2.239   2.448  0.0292  0.8599  1.7100
  176MOL0     H23225   8.008   2.307   2.294 -0.4006  0.1916  0.1156
  176MOL0     H23226   8.129   2.472   2.507  0.9637  0.5877 -0.5136
  176MOL0     H23227   8.105   2.532   2.337 -0.2127 -1.9936 -3.2091
  176MOL0     H23228   8.263   2.363   2.261 -4.9122  0.0134 -1.2568
  176MOL0     H23229   8.317   2.490   2.378 -1.0370  0.2868  2.0545
  176MOL0     H23230   8.399   2.137   2.593 -0.0757  0.5316  1.7407
  176MOL0     H23231   7.633   2.441   2.467 -3.4090 -3.1970  1.5388
  176MOL0     H23232   7.431   2.530   2.569  0.1102 -0.0917  1.3026
  177MOL0     O23233   5.677   5.519  10.586 -0.1727  0.4870  0.1611
  177MOL0     C23234   5.688   5.606  10.506 -0.4559 -0.0521 -0.2421
  177MOL0     O23235   5.585   5.671  10.450  0.1609  0.5639 -0.1417
  177MOL0     C23236   5.462   5.640  10.491  0.5713  0.1882  0.8216
  177MOL0     C23237   5.369   5.586  10.401 -0.0753 -0.0478 -0.3781
  177MOL0     C23238   5.243   5.549  10.445 -0.2263 -0.8973 -1.2561
  177MOL0     C23239   5.206   5.577  10.578  0.2541 -0.5556  0.0695
  177MOL0     O23240   5.079   5.548  10.629  0.4970  0.4749 -0.3814
  177MOL0     C23241   4.978   5.476  10.550 -1.1351 -0.3599  0.6917
  177MOL0     C23242   4.849   5.434  10.624  0.0449 -1.1472  0.9301
  177MOL0     C23243   4.749   5.543  10.634  0.4167 -0.8330  0.9396
  177MOL0     C23244   4.625   5.498  10.710 -0.8226  0.1599  0.0666
  177MOL0     C23245   4.531   5.607  10.746  0.3719 -0.6152  0.1964
  177MOL0     C23246   4.414   5.535  10.812  0.3029  0.0329 -0.7732
  177MOL0     C23247   4.345   5.635  10.902  0.2878 -0.4029 -0.5644
  177MOL0     C23248   4.202   5.580  10.935  0.0601 -0.5430 -0.8975
  177MOL0     N23249   4.136   5.695  11.006  0.3592  0.4649  0.0089
  177MOL0     C23250   4.123   5.710  11.143 -0.1981 -0.0304 -0.2688
  177MOL0     C23251   4.067   5.830  11.154  0.2716 -0.9360 -0.6416
  177MOL0     C23252   4.027   5.903  11.289 -0.8679 -0.1434  0.6319
  177MOL0     C23253   3.872   5.948  11.294  0.3444  0.4319 -1.1265
  177MOL0     C23254   3.772   5.824  11.292 -0.6069  0.1574 -0.0906
  177MOL0     C23255   3.629   5.877  11.314  0.3083 -1.3309  0.0031
  177MOL0     O23256   3.525   5.776  11.294 -1.0047  0.3266 -0.0908
  177MOL0     C23257   3.392   5.795  11.291  1.0630 -0.4239  1.2195
  177MOL0     C23258   3.310   5.684  11.261 -0.4186 -0.0263  0.5564
  177MOL0     C23259   3.173   5.695  11.264 -1.0171  0.9228  0.4554
  177MOL0     C23260   3.112   5.822  11.289 -0.1044  0.3404 -0.3200
  177MOL0     C23261   2.969   5.832  11.301 -0.2825 -1.0643 -0.3640
  177MOL0     O23262   2.915   5.959  11.308 -0.4206 -0.5926 -0.0109
  177MOL0     C23263   2.783   5.958  11.341  0.2494 -0.2719 -0.1155
  177MOL0     C23264   2.695   5.915  11.248 -1.1981 -0.7863 -0.1048
  177MOL0     C23265   2.558   5.916  11.284  0.6853  0.3097 -0.2336
  177MOL0     C23266   2.508   5.982  11.396 -0.4690  0.1500 -0.6657
  177MOL0     O23267   2.377   5.998  11.425  0.1136 -0.2725 -0.1568
  177MOL0     C23268   2.286   5.898  11.390 -0.2010 -0.2199  0.6149
  177MOL0     C23269   2.185   5.911  11.508  0.7859 -0.3434  0.1757
  177MOL0     C23270   2.095   5.787  11.517  0.3229  0.6265 -0.3061
  177MOL0     C23271   1.960   5.824  11.458 -0.8962 -0.5541 -0.5200
  177MOL0     C23272   1.853   5.709  11.479 -0.8631  0.2384 -0.3236
  177MOL0     C23273   1.725   5.758  11.403 -0.1553 -0.2701  0.1851
  177MOL0     C23274   1.594   5.706  11.459  1.0888  0.4589  0.1190
  177MOL0     C23275   1.488   5.728  11.361  0.8260 -0.1083 -0.0267
  177MOL0    Cl23276   1.325   5.673  11.422  0.0326  0.1014  0.1263
  177MOL0     C23277   2.609   6.024  11.489  0.4457  0.4625 -0.0797
  177MOL0     C23278   2.740   6.014  11.467 -0.3683 -0.1570  0.1469
  177MOL0     O23279   2.907   5.728  11.290 -0.2220  0.3705  0.6732
  177MOL0     C23280   3.189   5.932  11.322  0.0218 -0.1869  0.1330
  177MOL0     C23281   3.325   5.917  11.316 -0.3160  0.6199 -0.2584
  177MOL0     N23282   4.035   5.872  11.023  0.2613 -0.2765  0.0521
  177MOL0     N23283   4.070   5.788  10.934 -0.4920 -0.7308 -0.0760
  177MOL0     C23284   5.293   5.640  10.664  0.1821 -1.0706 -0.6858
  177MOL0     C23285   5.419   5.666  10.624 -0.0149  0.7396  0.3681
  177MOL0     C23286   5.822   5.629  10.443 -0.4912  0.7746 -0.2785
  177MOL0     C23287   5.934   5.542  10.463  0.9819 -1.2411 -0.7470
  177MOL0     C23288   6.059   5.560  10.401  0.2108 -0.2137  0.3003
  177MOL0     C23289   6.084   5.669  10.327  0.2296 -0.9760  0.4780
  177MOL0     O23290   6.216   5.700  10.287  0.1821 -0.3391  1.1273
  177MOL0     C23291   6.251   5.631  10.161  0.0579  0.2450 -0.3427
  177MOL0     C23292   6.404   5.607  10.159  0.2549 -1.1269 -0.1876
  177MOL0     C23293   6.478   5.718  10.082  0.6845  0.5567 -0.3240
  177MOL0     C23294   6.456   5.854  10.158 -0.0608  0.6556  0.6422
  177MOL0     C23295   6.532   5.959  10.098 -0.0121 -0.2882 -0.4236
  177MOL0     C23296   6.582   6.057  10.044 -0.3334 -0.1184 -0.1345
  177MOL0     C23297   5.974   5.763  10.307  0.0703 -0.3795 -0.2831
  177MOL0     C23298   5.846   5.742  10.367 -1.0274 -0.2908  1.1593
  177MOL0     H23299   5.390   5.583  10.294  0.0599  0.0610 -0.3544
  177MOL0     H23300   5.163   5.513  10.381 -1.3132  2.6797 -2.1104
  177MOL0     H23301   5.025   5.381  10.522 -4.4597 -2.5278  1.8607
  177MOL0     H23302   4.959   5.525  10.454  0.1488 -0.5985  0.2964
  177MOL0     H23303   4.866   5.400  10.727 -0.4558 -1.0109  1.0642
  177MOL0     H23304   4.802   5.349  10.574 -0.2963 -0.5683  0.2480
  177MOL0     H23305   4.713   5.579  10.537  3.2161  2.2916  0.8779
  177MOL0     H23306   4.789   5.628  10.690  2.4852 -2.8376  2.7089
  177MOL0     H23307   4.578   5.433  10.636 -0.3585  1.8237 -1.7510
  177MOL0     H23308   4.658   5.437  10.794 -2.5249  0.8316  1.2879
  177MOL0     H23309   4.493   5.663  10.660  2.2298 -2.6007 -2.0534
  177MOL0     H23310   4.575   5.661  10.830 -0.6141 -2.6248  2.1398
  177MOL0     H23311   4.440   5.450  10.876  0.7532  1.3242  0.8261
  177MOL0     H23312   4.341   5.495  10.740  2.2074 -0.9700 -2.2678
  177MOL0     H23313   4.401   5.654  10.994 -0.1392  0.7092 -0.5148
  177MOL0     H23314   4.334   5.731  10.850  3.3810  1.2985  1.5710
  177MOL0     H23315   4.205   5.494  11.003  1.9818 -0.5489 -0.9350
  177MOL0     H23316   4.143   5.551  10.848  0.8129  1.0414 -1.9961
  177MOL0     H23317   4.159   5.650  11.225 -2.4449  0.9416  1.5361
  177MOL0     H23318   4.095   5.988  11.295 -1.0334 -0.0367  0.9927
  177MOL0     H23319   4.031   5.846  11.381  0.0072  1.5334  1.6800
  177MOL0     H23320   3.860   6.007  11.203  1.5900  0.0549 -1.5529
  177MOL0     H23321   3.847   6.001  11.387 -0.2295 -4.3503  1.7663
  177MOL0     H23322   3.778   5.776  11.194  0.0542  0.0489  0.0011
  177MOL0     H23323   3.803   5.752  11.368 -1.0188  1.2124  1.1306
  177MOL0     H23324   3.610   5.957  11.242  2.6733 -1.2223 -0.5726
  177MOL0     H23325   3.635   5.914  11.416  1.4832  0.7522 -0.7524
  177MOL0     H23326   3.341   5.586  11.226 -3.2412 -0.7574 -0.1797
  177MOL0     H23327   3.129   5.598  11.243  0.1695 -0.5300  3.8633
  177MOL0     H23328   2.741   5.862  11.165 -1.0897  1.1953 -1.3597
  177MOL0     H23329   2.500   5.860  11.212 -0.0861  0.8476 -0.0354
  177MOL0     H23330   2.318   5.793  11.392 -3.5999 -1.4957 -1.6259
  177MOL0     H23331   2.249   5.912  11.288  2.4075 -0.3017 -0.4325
  177MOL0     H23332   2.116   5.996  11.498  0.6275 -0.3527  1.0403
  177MOL0     H23333   2.239   5.924  11.602  3.8367 -0.3167 -1.4646
  177MOL0     H23334   2.084   5.764  11.623  0.7492 -1.8928 -0.7489
  177MOL0     H23335   2.118   5.692  11.467 -0.2185  0.9446 -1.1783
  177MOL0     H23336   1.923   5.913  11.509  2.5796  1.3773 -1.0262
  177MOL0     H23337   1.965   5.854  11.353  2.9537 -1.5851 -0.7929
  177MOL0     H23338   1.832   5.698  11.585  4.1213 -0.2782  0.8545
  177MOL0     H23339   1.873   5.609  11.440 -1.5772 -0.1293  0.2189
  177MOL0     H23340   1.739   5.735  11.297 -0.2795 -1.9255  0.5036
  177MOL0     H23341   1.722   5.867  11.418 -0.0571 -0.4144  1.3574
  177MOL0     H23342   1.614   5.602  11.488  0.9805  0.4051  0.0030
  177MOL0     H23343   1.569   5.769  11.545 -1.5281 -0.2024 -0.0763
  177MOL0     H23344   1.508   5.677  11.266  0.0262  3.4342 -2.2678
  177MOL0     H23345   1.478   5.833  11.332 -0.9272 -0.2337 -0.0144
  177MOL0     H23346   2.572   6.064  11.584  1.6391 -0.9734  1.0389
  177MOL0     H23347   2.820   6.048  11.532  2.9339 -2.1318 -2.5553
  177MOL0     H23348   3.146   6.029  11.342 -2.2349 -0.6967 -1.8137
  177MOL0     H23349   3.389   6.001  11.340 -0.0004 -0.3713  2.8050
  177MOL0     H23350   5.273   5.644  10.770  1.0084 -2.6996 -0.4445
  177MOL0     H23351   5.485   5.720  10.690  1.3111 -1.4251  0.9160
  177MOL0     H23352   5.928   5.453  10.524 -0.6690  0.1417  1.2173
  177MOL0     H23353   6.133   5.483  10.421 -2.0355 -2.9096 -1.1635
  177MOL0     H23354   6.217   5.677  10.067  3.0082  1.5898 -0.8575
  177MOL0     H23355   6.195   5.537  10.161 -0.7368  0.6591  2.3615
  177MOL0     H23356   6.441   5.607  10.262 -1.7220  0.3006  0.6172
  177MOL0     H23357   6.408   5.507  10.116 -2.2144 -2.1061  1.6308
  177MOL0     H23358   6.442   5.712   9.979  0.5169  0.4960 -0.2615
  177MOL0     H23359   6.583   5.690  10.078  1.0141  1.6974 -0.1360
  177MOL0     H23360   6.348   5.869  10.146 -0.0276 -0.1673 -1.0019
  177MOL0     H23361   6.484   5.849  10.264 -0.9075 -0.8300  0.8160
  177MOL0     H23362   6.636   6.141  10.006  0.8857 -0.8438 -0.0684
  177MOL0     H23363   5.993   5.853  10.250 -2.6399 -1.0019 -2.3604
  177MOL0     H23364   5.774   5.821  10.352  0.6316  1.1178  0.1931
  178MOL0     O23365   8.812   4.942   9.204 -0.1693  0.7756 -0.2855
  178MOL0     C23366   8.766   4.930   9.319  1.3183  0.1924  0.8667
  178MOL0     O23367   8.796   4.834   9.410  1.1215  0.3481 -0.6985
  178MOL0     C23368   8.874   4.729   9.367 -0.3939  0.5710  0.0418
  178MOL0     C23369   9.007   4.739   9.379 -1.0788 -0.0962  1.0637
  178MOL0     C23370   9.092   4.629   9.352 -0.3895  0.5086  1.2822
  178MOL0     C23371   9.043   4.501   9.312  0.6371  0.0439  0.4406
  178MOL0     O23372   9.136   4.401   9.317  0.2232 -0.0714  0.2767
  178MOL0     C23373   9.087   4.269   9.300 -0.0023 -0.4262  0.2604
  178MOL0     C23374   9.193   4.165   9.310  0.0203  0.2091 -1.0634
  178MOL0     C23375   9.128   4.027   9.316  0.8149 -0.1048  0.1092
  178MOL0     C23376   9.225   3.913   9.342  0.6074 -0.5387  0.5704
  178MOL0     C23377   9.151   3.783   9.398  0.4388 -0.1282 -0.3137
  178MOL0     C23378   9.073   3.707   9.293 -0.1985 -0.2450  0.2578
  178MOL0     C23379   8.998   3.586   9.348  1.0357 -1.0651 -0.1226
  178MOL0     C23380   8.903   3.533   9.240  0.3824 -0.3175  0.0237
  178MOL0     N23381   8.783   3.487   9.309 -0.2278  0.6041 -0.4382
  178MOL0     C23382   8.744   3.358   9.316  0.0301  0.6843  0.0575
  178MOL0     C23383   8.613   3.358   9.351  0.2273  0.5582 -0.4769
  178MOL0     C23384   8.545   3.231   9.366  0.5025  0.3755  0.1479
  178MOL0     C23385   8.393   3.245   9.399  0.3330  0.4271  0.1139
  178MOL0     C23386   8.311   3.112   9.395 -0.5949 -0.0299 -0.0660
  178MOL0     C23387   8.174   3.104   9.460  0.9094 -0.6498  0.3692
  178MOL0     O23388   8.101   3.231   9.447 -0.5058  0.1831 -0.2580
  178MOL0     C23389   7.977   3.238   9.505 -0.4367 -0.2267 -0.1977
  178MOL0     C23390   7.938   3.358   9.549  1.0808 -0.7021 -0.1560
  178MOL0     C23391   7.814   3.388   9.596 -0.0815 -1.0205  0.2344
  178MOL0     C23392   7.723   3.287   9.608 -0.2136 -0.1171  0.0503
  178MOL0     C23393   7.590   3.311   9.666 -0.5451 -0.2316 -0.5443
  178MOL0     O23394   7.568   3.440   9.722  0.5439  0.5474  0.5122
  178MOL0     C23395   7.443   3.467   9.765  0.0613  0.1369  0.7804
  178MOL0     C23396   7.318   3.433   9.693 -0.9365 -0.3001  0.4364
  178MOL0     C23397   7.197   3.473   9.750  0.5088 -0.3473 -0.3245
  178MOL0     C23398   7.189   3.539   9.875  0.7913 -0.7213  0.3133
  178MOL0     O23399   7.059   3.572   9.927  0.1575  0.7301 -0.1906
  178MOL0     C23400   7.055   3.657  10.039  0.3592  0.0141  0.4835
  178MOL0     C23401   6.913   3.692  10.080 -1.0546  0.1684  0.6645
  178MOL0     C23402   6.818   3.572  10.078  0.0101 -0.3629 -0.6052
  178MOL0     C23403   6.681   3.629  10.093 -0.2633  0.1446  0.5389
  178MOL0     C23404   6.567   3.534  10.131 -0.5263 -0.2778  0.9434
  178MOL0     C23405   6.427   3.596  10.134  0.0915 -0.5525  0.6446
  178MOL0     C23406   6.385   3.686  10.009  0.4292  0.7901 -1.3626
  178MOL0     C23407   6.386   3.627   9.869 -0.2117 -0.6844  0.4040
  178MOL0    Cl23408   6.237   3.540   9.844 -0.0235  0.1773 -0.0446
  178MOL0     C23409   7.309   3.577   9.941  1.0309 -0.2365  1.1120
  178MOL0     C23410   7.432   3.532   9.884 -0.0261  0.2912 -0.4152
  178MOL0     O23411   7.509   3.221   9.675 -0.0925 -0.0509  0.4522
  178MOL0     C23412   7.759   3.166   9.553  0.3757  0.6294  0.2236
  178MOL0     C23413   7.886   3.136   9.500 -0.2404 -0.3119 -0.5116
  178MOL0     N23414   8.571   3.489   9.376 -0.5254 -0.6494  0.0078
  178MOL0     N23415   8.680   3.567   9.354  0.0758 -0.4767  0.8104
  178MOL0     C23416   8.905   4.487   9.292  0.4869  0.3808  0.9329
  178MOL0     C23417   8.822   4.600   9.328  0.3571  0.3944 -0.2134
  178MOL0     C23418   8.679   5.041   9.366  0.0576  0.5477  0.0721
  178MOL0     C23419   8.685   5.167   9.311 -0.1285 -1.3823 -0.8329
  178MOL0     C23420   8.607   5.267   9.358 -0.6178  0.3665  0.3372
  178MOL0     C23421   8.512   5.246   9.459 -0.0568  0.9890 -0.9479
  178MOL0     O23422   8.425   5.337   9.524 -0.2619 -0.0340  0.1655
  178MOL0     C23423   8.437   5.475   9.477 -0.2668  0.1333  0.9691
  178MOL0     C23424   8.335   5.555   9.558 -1.0249 -0.1872 -0.6599
  178MOL0     C23425   8.307   5.703   9.492  0.0359  0.3633  0.0537
  178MOL0     C23426   8.413   5.815   9.532 -0.2796  0.2309  0.7312
  178MOL0     C23427   8.501   5.851   9.418 -0.0617  0.8926 -0.5946
  178MOL0     C23428   8.577   5.887   9.334 -0.6830 -0.2449 -0.1570
  178MOL0     C23429   8.503   5.121   9.519 -0.1137 -0.4339 -0.6866
  178MOL0     C23430   8.589   5.019   9.475  0.9158 -0.2879  0.1406
  178MOL0     H23431   9.053   4.833   9.408  6.2283 -2.7577  0.4485
  178MOL0     H23432   9.196   4.642   9.380  0.7820 -0.8353 -1.9419
  178MOL0     H23433   9.027   4.253   9.210 -0.7491  1.7707  0.3281
  178MOL0     H23434   9.014   4.242   9.376 -0.9079 -0.7647 -0.6966
  178MOL0     H23435   9.261   4.187   9.393 -0.0704 -1.1269 -0.6141
  178MOL0     H23436   9.257   4.163   9.221  3.0529  3.5987  0.7541
  178MOL0     H23437   9.074   4.008   9.223  0.6674 -0.5009  0.2746
  178MOL0     H23438   9.050   4.022   9.393 -1.9889 -1.8823 -2.6022
  178MOL0     H23439   9.284   3.881   9.256  0.0951 -2.9258  1.0258
  178MOL0     H23440   9.308   3.933   9.410  1.6052 -1.0877 -0.4549
  178MOL0     H23441   9.089   3.805   9.485  0.8053  0.3242 -0.1643
  178MOL0     H23442   9.230   3.723   9.444 -2.1598  0.2180  5.5627
  178MOL0     H23443   9.135   3.659   9.218  1.0411 -1.1701  1.8040
  178MOL0     H23444   8.995   3.762   9.239 -0.2525 -1.1664 -0.6177
  178MOL0     H23445   9.073   3.515   9.385  3.2052  2.3691  2.6783
  178MOL0     H23446   8.939   3.613   9.436  0.4772 -0.7765 -0.5759
  178MOL0     H23447   8.946   3.452   9.180  1.1174  2.1931 -3.1083
  178MOL0     H23448   8.866   3.608   9.169  1.9986  1.4816  1.0100
  178MOL0     H23449   8.797   3.266   9.297 -0.0573  0.7336 -0.4159
  178MOL0     H23450   8.584   3.161   9.440  0.1326  1.2246  1.1649
  178MOL0     H23451   8.536   3.197   9.262 -2.3334  1.9898 -0.2307
  178MOL0     H23452   8.357   3.320   9.328 -1.1930  0.7553  1.1725
  178MOL0     H23453   8.373   3.287   9.498 -3.1867  0.3813 -0.4590
  178MOL0     H23454   8.309   3.084   9.290  0.5483 -1.6040  0.2948
  178MOL0     H23455   8.369   3.037   9.450  0.6697  1.0545  0.1508
  178MOL0     H23456   8.181   3.089   9.568 -3.6711  1.4090  1.1597
  178MOL0     H23457   8.122   3.013   9.429  1.3131 -1.1492  1.1267
  178MOL0     H23458   8.013   3.435   9.538  0.4863 -0.2026 -0.7499
  178MOL0     H23459   7.782   3.488   9.625  0.2065 -0.9806  0.4149
  178MOL0     H23460   7.326   3.376   9.601  1.1125 -2.8603  2.0511
  178MOL0     H23461   7.110   3.434   9.699  0.9141 -2.3776  0.4307
  178MOL0     H23462   7.110   3.746  10.008 -0.0335 -0.6767 -2.4828
  178MOL0     H23463   7.102   3.600  10.120  0.3245 -3.1781 -1.5897
  178MOL0     H23464   6.882   3.779  10.022  1.2224  1.4075  1.1785
  178MOL0     H23465   6.923   3.726  10.183 -3.0046  1.9799  0.3208
  178MOL0     H23466   6.824   3.506  10.165 -2.0789  1.7690  1.3027
  178MOL0     H23467   6.814   3.511   9.988 -2.2558 -1.7629  0.3505
  178MOL0     H23468   6.687   3.696  10.179  1.1226 -0.8863  1.2880
  178MOL0     H23469   6.654   3.670   9.995  4.3260 -0.0840 -1.0763
  178MOL0     H23470   6.606   3.484  10.220  4.0171 -2.8365 -2.0534
  178MOL0     H23471   6.560   3.458  10.053 -2.9745  1.0458 -0.2351
  178MOL0     H23472   6.417   3.657  10.224  2.1406  1.0286 -0.1200
  178MOL0     H23473   6.349   3.519  10.140 -1.2886  0.6360 -0.9365
  178MOL0     H23474   6.283   3.726  10.011 -0.3950 -1.0979 -2.4399
  178MOL0     H23475   6.459   3.766  10.011  1.1313  0.3014  3.0551
  178MOL0     H23476   6.473   3.560   9.865  0.0249 -0.3739  0.2671
  178MOL0     H23477   6.394   3.696   9.785 -3.3737 -0.4702  0.1936
  178MOL0     H23478   7.298   3.632  10.034 -0.4532  2.9502 -0.7625
  178MOL0     H23479   7.524   3.557   9.936 -0.2744 -0.7025  0.5478
  178MOL0     H23480   7.682   3.089   9.557 -1.6887  2.6328  1.1991
  178MOL0     H23481   7.907   3.037   9.461  1.3987  0.1434 -0.8759
  178MOL0     H23482   8.855   4.393   9.268  0.5365  0.3042  1.1322
  178MOL0     H23483   8.716   4.581   9.339 -0.0816  3.3150  1.5231
  178MOL0     H23484   8.757   5.190   9.233 -2.3678 -1.1867 -2.9791
  178MOL0     H23485   8.610   5.359   9.301  1.2837 -2.4237 -4.6382
  178MOL0     H23486   8.405   5.476   9.372 -1.2006 -0.8714  1.2242
  178MOL0     H23487   8.539   5.513   9.477 -0.3038  0.2992 -0.4967
  178MOL0     H23488   8.236   5.511   9.574 -0.4106 -2.6312 -2.8728
  178MOL0     H23489   8.391   5.565   9.651 -1.6145  1.1928 -0.4291
  178MOL0     H23490   8.214   5.742   9.535 -0.2876  2.2947 -2.1916
  178MOL0     H23491   8.279   5.698   9.387  0.4510 -2.1396 -0.0009
  178MOL0     H23492   8.375   5.912   9.565  0.9481  1.5702 -1.4833
  178MOL0     H23493   8.476   5.781   9.615  1.1479  0.1693 -0.3246
  178MOL0     H23494   8.645   5.909   9.255 -3.0429 -0.9456 -2.5457
  178MOL0     H23495   8.429   5.101   9.596  0.0119 -2.3239 -1.0065
  178MOL0     H23496   8.570   4.913   9.491 -0.2558 -0.4833 -2.1178
  179MOL0     O23497   1.428   8.507   0.900 -0.2106  0.1451  0.6451
  179MOL0     C23498   1.456   8.391   0.862  1.4610 -0.3137 -0.5269
  179MOL0     O23499   1.377   8.279   0.873 -0.1095 -0.6915  0.5461
  179MOL0     C23500   1.256   8.276   0.914  0.4054 -0.2713  0.4716
  179MOL0     C23501   1.160   8.370   0.884 -0.3011 -0.0500  0.2685
  179MOL0     C23502   1.035   8.351   0.940  1.2598 -0.3223 -0.6993
  179MOL0     C23503   1.006   8.247   1.034 -0.3086 -0.0880 -0.2759
  179MOL0     O23504   0.883   8.216   1.086 -0.7218 -0.9743 -0.8795
  179MOL0     C23505   0.773   8.277   1.031 -0.0411 -0.4191  0.1154
  179MOL0     C23506   0.656   8.220   1.093  0.0061 -0.4946 -0.2208
  179MOL0     C23507   0.524   8.300   1.062  0.7507  0.2668 -0.8620
  179MOL0     C23508   0.414   8.197   1.097  0.0119 -0.0678  0.7353
  179MOL0     C23509   0.270   8.256   1.106  0.0877  0.3923 -0.7704
  179MOL0     C23510   0.171   8.146   1.050  0.0936  0.5586  0.0394
  179MOL0     C23511   0.032   8.182   1.089  0.4281  0.4523  0.2832
  179MOL0     C23512  -0.068   8.069   1.085 -0.4620  0.1495  0.6352
  179MOL0     N23513  -0.197   8.106   1.134  0.4450 -0.0284 -0.6856
  179MOL0     C23514  -0.272   8.213   1.093  0.4399 -0.2403  0.9731
  179MOL0     C23515  -0.395   8.183   1.132 -0.4382 -0.5058  0.4453
  179MOL0     C23516  -0.519   8.258   1.083  0.6402  0.0267  0.1925
  179MOL0     C23517  -0.519   8.400   1.153  0.5066 -0.4780  0.5508
  179MOL0     C23518  -0.575   8.376   1.299  0.9727 -0.5687 -0.3688
  179MOL0     C23519  -0.724   8.345   1.293  0.1133 -0.7738  0.4338
  179MOL0     O23520  -0.783   8.364   1.423  0.4238 -0.0250 -0.9281
  179MOL0     C23521  -0.917   8.329   1.442 -0.9374  0.3229  0.6899
  179MOL0     C23522  -1.019   8.337   1.348  0.4580 -0.0786  0.8470
  179MOL0     C23523  -1.147   8.305   1.374  0.6600 -0.5533 -0.2253
  179MOL0     C23524  -1.175   8.256   1.510 -1.4062 -0.3169  0.3421
  179MOL0     C23525  -1.304   8.205   1.546 -0.1906 -0.2446 -0.7805
  179MOL0     O23526  -1.399   8.207   1.447 -0.7366 -0.1881  0.0264
  179MOL0     C23527  -1.528   8.169   1.474  0.1291 -0.8027  0.7139
  179MOL0     C23528  -1.592   8.162   1.598 -0.0861  0.2794  0.3262
  179MOL0     C23529  -1.730   8.120   1.606  0.5261 -0.2172  0.2173
  179MOL0     C23530  -1.797   8.076   1.491  0.2164 -0.0953 -0.3511
  179MOL0     O23531  -1.933   8.052   1.483 -0.3749  0.5496 -0.5037
  179MOL0     C23532  -1.981   7.943   1.561 -0.1204  0.4787 -0.2596
  179MOL0     C23533  -2.070   7.991   1.681  1.1827 -0.3377  0.1510
  179MOL0     C23534  -2.172   7.884   1.723  0.4046  0.5800  0.7979
  179MOL0     C23535  -2.284   7.944   1.815 -0.1534 -0.0145 -0.8721
  179MOL0     C23536  -2.363   7.827   1.874 -0.2004  0.2506  0.3322
  179MOL0     C23537  -2.483   7.889   1.944  0.1400  0.0820 -0.0617
  179MOL0     C23538  -2.554   7.783   2.034  0.4445  0.6226  0.5657
  179MOL0     C23539  -2.658   7.842   2.126 -0.4304 -0.0275  0.3346
  179MOL0    Cl23540  -2.783   7.937   2.031 -0.1149  0.0476  0.0459
  179MOL0     C23541  -1.727   8.064   1.370 -0.5381  0.3749  0.3426
  179MOL0     C23542  -1.593   8.106   1.363 -0.6327  0.1050 -0.6117
  179MOL0     O23543  -1.321   8.159   1.661 -0.3369 -0.3888 -0.1912
  179MOL0     C23544  -1.069   8.258   1.602  0.2670 -0.9731  0.0815
  179MOL0     C23545  -0.941   8.296   1.574  1.3227 -0.2857 -0.1428
  179MOL0     N23546  -0.397   8.066   1.212 -0.9227  0.2367 -0.1054
  179MOL0     N23547  -0.271   8.017   1.207  0.6618 -0.0981  0.1035
  179MOL0     C23548   1.110   8.153   1.057 -0.1548 -0.2430 -0.1014
  179MOL0     C23549   1.231   8.167   0.999 -0.1016 -0.7037 -0.2324
  179MOL0     C23550   1.591   8.376   0.809 -0.7128  0.3241 -0.0280
  179MOL0     C23551   1.638   8.246   0.768 -0.3948 -0.6686 -0.3794
  179MOL0     C23552   1.764   8.221   0.729 -0.0800  0.0821  0.7417
  179MOL0     C23553   1.851   8.329   0.720  0.2363  0.0994  0.5550
  179MOL0     O23554   1.974   8.310   0.656 -0.3480  0.3437 -0.3864
  179MOL0     C23555   2.081   8.404   0.673 -0.4595 -0.4446 -0.1233
  179MOL0     C23556   2.126   8.397   0.810 -0.4592  0.2469 -0.0699
  179MOL0     C23557   2.261   8.456   0.839 -0.7030  0.7215 -0.2731
  179MOL0     C23558   2.311   8.406   0.973  0.2653 -0.0369  0.2774
  179MOL0     C23559   2.377   8.278   0.967 -0.4309 -0.3886 -0.2912
  179MOL0     C23560   2.430   8.171   0.983  0.8377  0.2381 -0.0061
  179MOL0     C23561   1.815   8.456   0.766  0.1101  0.5331 -0.4648
  179MOL0     C23562   1.685   8.487   0.806  0.5189  0.6067 -0.5841
  179MOL0     H23563   1.183   8.448   0.812 -3.3945 -0.0882 -0.9033
  179MOL0     H23564   0.950   8.398   0.892  0.7011 -0.5556  0.0375
  179MOL0     H23565   0.772   8.256   0.923  1.1579  0.6199 -0.1206
  179MOL0     H23566   0.785   8.384   1.049 -0.3318 -0.7878  2.9218
  179MOL0     H23567   0.671   8.203   1.200 -0.3913 -0.2695 -0.1284
  179MOL0     H23568   0.641   8.121   1.048 -2.1900 -0.9761  1.4024
  179MOL0     H23569   0.519   8.328   0.957  1.3339  0.4419 -0.8487
  179MOL0     H23570   0.506   8.387   1.125  2.2113 -1.4637  2.1722
  179MOL0     H23571   0.411   8.131   1.009 -0.4747  1.3788 -0.3753
  179MOL0     H23572   0.431   8.140   1.189 -1.4370 -0.2957  0.8898
  179MOL0     H23573   0.263   8.349   1.048  0.2426  0.2382 -1.0349
  179MOL0     H23574   0.245   8.281   1.210  0.7297  1.1016 -0.7773
  179MOL0     H23575   0.210   8.051   1.087 -1.1769 -0.9324 -2.1995
  179MOL0     H23576   0.181   8.130   0.942  2.4252 -2.3637  0.5871
  179MOL0     H23577   0.039   8.228   1.188  0.0913  1.1305  0.0009
  179MOL0     H23578  -0.007   8.256   1.018 -1.2907 -1.8325 -1.3236
  179MOL0     H23579  -0.029   7.989   1.149  1.5439 -1.1033 -1.9913
  179MOL0     H23580  -0.072   8.030   0.983 -3.5556  1.5915  0.0764
  179MOL0     H23581  -0.264   8.290   1.018 -2.0754 -3.1299 -2.6557
  179MOL0     H23582  -0.614   8.205   1.100  1.3425 -0.8259  1.6235
  179MOL0     H23583  -0.498   8.258   0.976  2.6159 -0.9730  0.5426
  179MOL0     H23584  -0.577   8.470   1.092  0.9954  0.6980  1.4107
  179MOL0     H23585  -0.416   8.435   1.160  1.3267 -2.3106 -1.2859
  179MOL0     H23586  -0.524   8.298   1.355  1.4627  1.4762  2.2243
  179MOL0     H23587  -0.556   8.470   1.353  0.3538 -0.8815  0.4197
  179MOL0     H23588  -0.734   8.239   1.268 -1.7780 -0.3656 -0.7575
  179MOL0     H23589  -0.769   8.409   1.215 -0.1196 -0.2315  1.0059
  179MOL0     H23590  -0.997   8.376   1.250 -0.1006 -0.4729  0.5580
  179MOL0     H23591  -1.222   8.310   1.296 -0.8406  1.6605  1.2185
  179MOL0     H23592  -1.544   8.196   1.689 -0.6004 -1.1879  1.1723
  179MOL0     H23593  -1.790   8.124   1.696  1.3190 -1.6126  0.8536
  179MOL0     H23594  -1.901   7.873   1.588 -0.0794 -0.5009 -2.6217
  179MOL0     H23595  -2.057   7.885   1.508 -1.8196  0.8986  1.6194
  179MOL0     H23596  -2.118   8.085   1.652 -0.6478 -2.2937 -4.0617
  179MOL0     H23597  -1.997   8.012   1.760  2.1520 -0.5343 -0.6767
  179MOL0     H23598  -2.126   7.798   1.773 -1.4432 -2.4889 -2.2927
  179MOL0     H23599  -2.220   7.846   1.632  1.3389 -2.0837  1.3403
  179MOL0     H23600  -2.233   8.002   1.892  1.8138 -1.0730 -1.2994
  179MOL0     H23601  -2.349   8.013   1.762 -0.6673 -1.0766 -1.6475
  179MOL0     H23602  -2.297   7.763   1.934  0.3568  0.9550  0.4888
  179MOL0     H23603  -2.410   7.770   1.794 -2.1247  2.6442 -0.3594
  179MOL0     H23604  -2.553   7.947   1.882 -1.0769  1.8357  2.7364
  179MOL0     H23605  -2.439   7.964   2.011  1.9587  0.2969 -1.4282
  179MOL0     H23606  -2.593   7.704   1.970  1.5076  0.5708 -0.0261
  179MOL0     H23607  -2.476   7.745   2.100 -0.7436 -2.1210  0.5149
  179MOL0     H23608  -2.616   7.916   2.194 -2.4559 -1.0907  2.9018
  179MOL0     H23609  -2.708   7.768   2.188 -0.1695 -1.8186 -1.4919
  179MOL0     H23610  -1.779   8.038   1.279 -0.0382 -1.4207  0.5494
  179MOL0     H23611  -1.544   8.101   1.266 -0.0922  1.6756 -0.4317
  179MOL0     H23612  -1.092   8.227   1.704  0.4593 -0.4522  0.2877
  179MOL0     H23613  -0.868   8.306   1.653  1.4264 -0.0305 -0.2659
  179MOL0     H23614   1.090   8.071   1.125  0.7045  0.0956  0.5909
  179MOL0     H23615   1.310   8.097   1.026  0.9093  1.4118  2.8274
  179MOL0     H23616   1.556   8.175   0.782 -1.0843  0.3482  0.9816
  179MOL0     H23617   1.799   8.128   0.686 -1.6605 -0.2100 -0.0016
  179MOL0     H23618   2.056   8.504   0.636 -1.1647  0.4608  2.5009
  179MOL0     H23619   2.166   8.377   0.610  0.1110 -0.3933  0.6117
  179MOL0     H23620   2.051   8.438   0.879  1.2349  1.8445  0.9119
  179MOL0     H23621   2.131   8.288   0.818  1.0799  0.2876 -0.1907
  179MOL0     H23622   2.252   8.564   0.846 -0.3764  0.6368  2.2779
  179MOL0     H23623   2.330   8.434   0.757  0.8606  2.7457  0.4130
  179MOL0     H23624   2.389   8.469   1.016  0.4328  0.5527 -0.8690
  179MOL0     H23625   2.232   8.399   1.049 -0.0585 -0.4798 -0.0891
  179MOL0     H23626   2.481   8.081   1.010  0.1980 -0.3936 -0.8371
  179MOL0     H23627   1.883   8.540   0.765 -0.4870  1.0539  0.8407
  179MOL0     H23628   1.655   8.587   0.836 -0.8454  0.2785 -0.7824
  180MOL0     O23629   3.750  11.249   3.691  0.8900  0.0767  0.5794
  180MOL0     C23630   3.680  11.295   3.596 -1.3784  0.7377  0.4259
  180MOL0     O23631   3.591  11.225   3.522 -0.5936  0.1434 -0.0327
  180MOL0     C23632   3.559  11.097   3.555 -0.1588 -0.5380  0.0135
  180MOL0     C23633   3.420  11.074   3.541 -0.3805 -0.1291 -0.0977
  180MOL0     C23634   3.371  10.947   3.560  0.9955  0.7197  0.2151
  180MOL0     C23635   3.454  10.839   3.581 -0.0565 -0.4667  0.1577
  180MOL0     O23636   3.419  10.709   3.604  0.4193  0.3877  0.5805
  180MOL0     C23637   3.280  10.668   3.580 -0.9886  0.0465  0.1261
  180MOL0     C23638   3.276  10.515   3.569  0.2232  1.2384 -0.7946
  180MOL0     C23639   3.134  10.455   3.579 -0.9122  0.9840 -0.0800
  180MOL0     C23640   3.133  10.309   3.603 -0.6601  0.2371  0.7832
  180MOL0     C23641   2.998  10.251   3.640  0.3392 -0.0446 -0.7777
  180MOL0     C23642   2.929  10.304   3.770 -0.6640 -0.4288 -0.2663
  180MOL0     C23643   2.817  10.210   3.827 -0.5649 -0.6356  0.5544
  180MOL0     C23644   2.687  10.207   3.743 -0.0230 -0.6321 -0.5445
  180MOL0     N23645   2.571  10.167   3.819  0.7705 -0.0997  0.2440
  180MOL0     C23646   2.454  10.249   3.820  0.1652  0.7375 -0.9768
  180MOL0     C23647   2.364  10.168   3.873  0.9228 -0.0544  0.6684
  180MOL0     C23648   2.230  10.220   3.910  0.1661 -0.2912  0.0065
  180MOL0     C23649   2.156  10.125   4.001  0.1503  0.2623  0.9654
  180MOL0     C23650   2.011  10.168   4.048 -0.0555  0.1387  0.2340
  180MOL0     C23651   1.957  10.078   4.164 -1.2973  0.1011  0.9679
  180MOL0     O23652   1.841  10.140   4.203 -0.1816 -0.3768 -0.4063
  180MOL0     C23653   1.760  10.091   4.301  0.4441  0.6439  0.0844
  180MOL0     C23654   1.650  10.178   4.326 -0.3501  0.7109 -0.5921
  180MOL0     C23655   1.572  10.149   4.432 -0.5577 -0.2467 -0.1311
  180MOL0     C23656   1.599  10.040   4.520  0.3352 -0.0787 -0.1918
  180MOL0     C23657   1.495  10.027   4.623  0.4821  0.3296  0.3241
  180MOL0     O23658   1.492   9.907   4.684 -0.4698 -0.4844 -0.3383
  180MOL0     C23659   1.420   9.896   4.797 -0.1416 -0.9074  0.2808
  180MOL0     C23660   1.483   9.899   4.922 -0.8988 -0.3892 -0.1298
  180MOL0     C23661   1.402   9.877   5.040 -0.2982  0.3163  0.4177
  180MOL0     C23662   1.269   9.850   5.026  0.2685  0.0775 -0.0081
  180MOL0     O23663   1.199   9.835   5.144 -0.4190 -0.4744  0.3470
  180MOL0     C23664   1.090   9.748   5.133  0.2903  1.0691 -0.9099
  180MOL0     C23665   1.048   9.734   5.276 -0.1773 -0.1773 -0.3246
  180MOL0     C23666   0.914   9.665   5.301 -1.2657 -0.3946 -0.7206
  180MOL0     C23667   0.783   9.722   5.232 -0.3228 -1.0148 -0.2872
  180MOL0     C23668   0.655   9.650   5.277  0.6765 -0.1194 -0.0916
  180MOL0     C23669   0.536   9.724   5.202 -0.3767  0.1760  0.6174
  180MOL0     C23670   0.414   9.645   5.222 -0.0266  0.7272 -0.0553
  180MOL0     C23671   0.296   9.705   5.169 -0.7433 -0.1965  1.0026
  180MOL0    Cl23672   0.169   9.596   5.185  0.1250  0.0262  0.1474
  180MOL0     C23673   1.208   9.863   4.904  0.5116 -0.4517  0.0729
  180MOL0     C23674   1.284   9.871   4.790  0.6151 -0.5115  1.1852
  180MOL0     O23675   1.428  10.125   4.657  0.7552  0.6398 -0.1586
  180MOL0     C23676   1.714   9.970   4.504 -0.2204  0.5421  0.8630
  180MOL0     C23677   1.792   9.992   4.393 -0.2427 -0.6607 -1.0151
  180MOL0     N23678   2.414  10.044   3.908  0.4785  0.1527 -0.3382
  180MOL0     N23679   2.540  10.046   3.874 -0.3368 -0.4521  0.2536
  180MOL0     C23680   3.590  10.864   3.605  1.0105 -0.1870  0.5478
  180MOL0     C23681   3.642  10.989   3.582 -0.3541  0.0919  0.0516
  180MOL0     C23682   3.709  11.434   3.564  0.1305  0.7687 -0.4228
  180MOL0     C23683   3.610  11.513   3.493 -0.6806  0.1822  0.2569
  180MOL0     C23684   3.640  11.641   3.454  0.5359  1.3459  0.3464
  180MOL0     C23685   3.758  11.699   3.488 -0.2199 -0.7070  0.1609
  180MOL0     O23686   3.776  11.829   3.453  0.2257  0.0305 -0.1452
  180MOL0     C23687   3.907  11.885   3.427  0.2696  0.4158 -0.5321
  180MOL0     C23688   3.976  11.804   3.323  0.1848 -0.9003 -0.3152
  180MOL0     C23689   4.130  11.847   3.332  0.9338 -0.0238 -0.1230
  180MOL0     C23690   4.219  11.755   3.252 -0.0696 -0.3457  0.4041
  180MOL0     C23691   4.359  11.797   3.271  0.2925 -0.0091  0.2855
  180MOL0     C23692   4.473  11.812   3.308  0.5776  0.0964  0.2404
  180MOL0     C23693   3.853  11.626   3.562  0.8813 -0.0495  0.5566
  180MOL0     C23694   3.827  11.499   3.601 -0.1876  0.0795  0.1056
  180MOL0     H23695   3.344  11.150   3.525 -0.5408 -0.3459 -0.3686
  180MOL0     H23696   3.263  10.941   3.568  1.0321  1.6291  2.0858
  180MOL0     H23697   3.241  10.715   3.489  0.7724  1.0640 -0.1437
  180MOL0     H23698   3.229  10.703   3.670  2.1181  0.6816  1.7460
  180MOL0     H23699   3.340  10.458   3.638 -0.3271  2.6568  0.9599
  180MOL0     H23700   3.317  10.482   3.473  1.0478 -2.6390  0.6768
  180MOL0     H23701   3.074  10.478   3.490 -2.4042 -0.4652  0.4911
  180MOL0     H23702   3.079  10.502   3.661 -1.7902 -2.6614  1.6286
  180MOL0     H23703   3.168  10.261   3.511 -0.6150  2.5918 -0.5259
  180MOL0     H23704   3.207  10.281   3.678  2.0035  0.8101 -1.4579
  180MOL0     H23705   2.999  10.145   3.667  0.7131  0.3905  1.0613
  180MOL0     H23706   2.929  10.265   3.555  0.5709  0.0596 -0.9498
  180MOL0     H23707   2.893  10.407   3.761 -0.5571 -0.4058 -0.4428
  180MOL0     H23708   3.006  10.317   3.847 -2.5521 -0.1212  1.6756
  180MOL0     H23709   2.862  10.118   3.866  1.7349 -0.6410 -1.8014
  180MOL0     H23710   2.789  10.253   3.924  1.7154  0.7167  0.6868
  180MOL0     H23711   2.701  10.137   3.661 -0.2271 -0.3212 -0.8469
  180MOL0     H23712   2.672  10.311   3.711 -1.5013 -0.8990 -0.7729
  180MOL0     H23713   2.438  10.350   3.783  1.6459  0.9598 -1.1067
  180MOL0     H23714   2.167  10.226   3.821  0.4783 -0.0600 -0.1983
  180MOL0     H23715   2.236  10.318   3.958 -2.8923 -0.4874  1.0438
  180MOL0     H23716   2.222  10.118   4.088  2.1326  0.2877 -0.4523
  180MOL0     H23717   2.145  10.022   3.964 -4.8914  0.3907  1.4254
  180MOL0     H23718   2.011  10.272   4.083 -2.2251  0.1453  0.3598
  180MOL0     H23719   1.944  10.167   3.961 -0.9846  0.1991  0.9326
  180MOL0     H23720   2.028  10.066   4.247 -0.0725 -0.7099 -0.1412
  180MOL0     H23721   1.934   9.980   4.120 -1.9485  0.4276  0.5755
  180MOL0     H23722   1.625  10.267   4.270 -0.0497  1.0988 -0.1294
  180MOL0     H23723   1.490  10.220   4.439  2.4014  3.6809 -1.5968
  180MOL0     H23724   1.587   9.910   4.948 -0.3888 -1.3921 -1.6174
  180MOL0     H23725   1.439   9.884   5.142 -2.2378  0.5150  1.1580
  180MOL0     H23726   1.116   9.647   5.101 -0.9523  0.9733 -1.6625
  180MOL0     H23727   1.007   9.786   5.073 -0.6573 -0.1664 -0.4044
  180MOL0     H23728   1.044   9.836   5.315 -2.8248 -0.2796 -0.1616
  180MOL0     H23729   1.125   9.679   5.330 -0.8007  0.0557  0.8499
  180MOL0     H23730   0.896   9.650   5.408  0.1809 -2.7402 -0.7308
  180MOL0     H23731   0.922   9.561   5.269 -0.1004 -0.1559 -1.2599
  180MOL0     H23732   0.779   9.830   5.248 -3.2934 -1.4335  2.9123
  180MOL0     H23733   0.791   9.724   5.123  0.1312  1.9976 -0.3093
  180MOL0     H23734   0.634   9.652   5.384  2.6769 -0.7333  0.3438
  180MOL0     H23735   0.643   9.547   5.240 -1.6714  0.1087 -0.1138
  180MOL0     H23736   0.564   9.739   5.097  0.7761  1.5219  1.0909
  180MOL0     H23737   0.518   9.820   5.250 -2.6580 -0.0220  0.3022
  180MOL0     H23738   0.444   9.549   5.180 -0.0924  1.2257 -1.2867
  180MOL0     H23739   0.405   9.622   5.328  1.9596 -1.6939 -0.3142
  180MOL0     H23740   0.314   9.724   5.063 -2.6967 -3.4632 -0.0389
  180MOL0     H23741   0.268   9.796   5.223 -0.4968 -0.1124  0.9886
  180MOL0     H23742   1.101   9.852   4.888  0.6404 -1.7943  0.0269
  180MOL0     H23743   1.228   9.871   4.698 -2.5854 -0.3196  2.9869
  180MOL0     H23744   1.740   9.903   4.585  2.0041  1.0979  0.6619
  180MOL0     H23745   1.882   9.933   4.380 -0.7407 -1.4739 -0.8577
  180MOL0     H23746   3.649  10.781   3.641 -1.5952 -2.4634 -0.0257
  180MOL0     H23747   3.750  11.000   3.578 -0.4042  0.3112 -0.7963
  180MOL0     H23748   3.516  11.476   3.452 -1.0593  1.2368  0.1297
  180MOL0     H23749   3.564  11.695   3.400  0.8209 -0.7586 -2.3650
  180MOL0     H23750   3.968  11.880   3.518  0.6498  2.2526 -0.6455
  180MOL0     H23751   3.904  11.989   3.395 -0.4650 -0.2741 -2.9730
  180MOL0     H23752   3.978  11.696   3.337  2.0026 -0.6390  1.9949
  180MOL0     H23753   3.947  11.825   3.219  0.3379 -0.9930 -0.3775
  180MOL0     H23754   4.163  11.837   3.436 -0.8947  0.8379  0.5878
  180MOL0     H23755   4.144  11.952   3.306  1.1814  0.8370  3.0201
  180MOL0     H23756   4.221  11.653   3.290  1.6030 -2.0312 -3.6063
  180MOL0     H23757   4.190  11.756   3.146  1.3204  0.0115  0.0074
  180MOL0     H23758   4.571  11.840   3.341 -0.0749  1.6818  0.9641
  180MOL0     H23759   3.949  11.667   3.593  1.8844 -1.9492  0.1315
  180MOL0     H23760   3.904  11.440   3.649  1.9174 -0.9264 -4.0193
  181MOL0     O23761   5.861  10.454  11.261 -0.7977 -0.2157  0.2538
  181MOL0     C23762   5.900  10.346  11.219 -0.0849 -0.6887  0.3213
  181MOL0     O23763   5.822  10.256  11.146 -0.5038  0.1148 -0.2709
  181MOL0     C23764   5.682  10.250  11.142  0.5318 -0.0767 -0.4353
  181MOL0     C23765   5.636  10.178  11.031 -0.3028 -0.9102  0.3394
  181MOL0     C23766   5.494  10.166  11.003  0.1225  0.8583  0.0600
  181MOL0     C23767   5.399  10.240  11.082 -0.6199  0.9062 -0.5313
  181MOL0     O23768   5.267  10.214  11.064  0.2360  0.7020  0.0407
  181MOL0     C23769   5.170  10.298  11.122 -0.0689  0.1386 -0.3118
  181MOL0     C23770   5.042  10.251  11.055  0.4545  0.5302 -0.6125
  181MOL0     C23771   4.928  10.320  11.124 -0.0363 -0.4982 -0.2294
  181MOL0     C23772   4.796  10.287  11.052 -0.2103 -0.4229  0.4966
  181MOL0     C23773   4.678  10.363  11.113  0.0433  0.9625 -0.4141
  181MOL0     C23774   4.536  10.323  11.076  0.6622  0.3143 -0.3621
  181MOL0     C23775   4.497  10.194  11.147 -1.1760 -0.2510 -0.7981
  181MOL0     C23776   4.355  10.156  11.118  1.2366  0.0294  0.2001
  181MOL0     N23777   4.309  10.151  10.975 -0.0234 -0.8109  0.7139
  181MOL0     C23778   4.330  10.052  10.888  0.1255  0.1284  0.3837
  181MOL0     C23779   4.271  10.088  10.770 -0.0852 -0.2233  0.0726
  181MOL0     C23780   4.266   9.996  10.654 -0.6433 -0.1382  0.6318
  181MOL0     C23781   4.136   9.918  10.668 -0.2005  0.3286 -0.3005
  181MOL0     C23782   4.124   9.805  10.558  0.0110  0.4767  0.8404
  181MOL0     C23783   4.228   9.696  10.550  0.2011 -0.1423  0.4432
  181MOL0     O23784   4.238   9.647  10.681 -0.3945  0.0967 -0.0399
  181MOL0     C23785   4.359   9.586  10.716  0.2338 -0.2338  0.9431
  181MOL0     C23786   4.413   9.619  10.835  0.0035 -0.0274  0.9315
  181MOL0     C23787   4.537   9.558  10.875  0.0653 -0.2280  1.0300
  181MOL0     C23788   4.606   9.472  10.792  0.0364  0.3352 -0.6380
  181MOL0     C23789   4.742   9.415  10.821  0.3634 -0.9562  0.0761
  181MOL0     O23790   4.815   9.476  10.921 -0.0025 -0.4766  0.6644
  181MOL0     C23791   4.957   9.451  10.927  0.6274 -0.2490 -0.2753
  181MOL0     C23792   5.040   9.427  10.818  0.0695  0.1743 -0.0131
  181MOL0     C23793   5.181   9.398  10.837  0.8247 -0.2747  0.0694
  181MOL0     C23794   5.234   9.401  10.963 -0.2867  0.8207 -0.3897
  181MOL0     O23795   5.368   9.374  10.964  1.1037  0.4084 -0.3478
  181MOL0     C23796   5.450   9.369  11.077 -0.5606 -0.1154  0.0175
  181MOL0     C23797   5.598   9.366  11.036 -0.0466  0.0689 -0.6101
  181MOL0     C23798   5.690   9.372  11.166  0.0188 -0.8731 -0.9988
  181MOL0     C23799   5.840   9.390  11.137  0.1260  0.5409  0.1917
  181MOL0     C23800   5.930   9.439  11.252 -0.1787 -0.6780  0.8168
  181MOL0     C23801   6.077   9.441  11.217 -0.5540  1.1663  0.4842
  181MOL0     C23802   6.169   9.500  11.327  0.4679  1.0615 -0.9912
  181MOL0     C23803   6.312   9.478  11.296  0.2966 -0.0427 -0.1977
  181MOL0    Cl23804   6.429   9.565  11.407 -0.1396 -0.1715  0.0680
  181MOL0     C23805   5.156   9.411  11.077  1.0498  0.5227  0.2712
  181MOL0     C23806   5.015   9.440  11.060 -0.6011 -0.2606  0.7605
  181MOL0     O23807   4.776   9.315  10.761  0.0053 -0.3587  0.1682
  181MOL0     C23808   4.553   9.437  10.671 -0.4603 -0.4032  0.9398
  181MOL0     C23809   4.429   9.493  10.632  0.9671  0.3256 -0.6911
  181MOL0     N23810   4.208  10.209  10.782 -0.1418 -1.1991  0.3959
  181MOL0     N23811   4.236  10.242  10.896  0.4374  0.1889  0.0238
  181MOL0     C23812   5.458  10.318  11.184 -0.3342  0.1128 -0.2201
  181MOL0     C23813   5.593  10.325  11.220  0.1541 -0.4766 -0.6981
  181MOL0     C23814   6.038  10.309  11.255  0.0816  0.0747  1.9479
  181MOL0     C23815   6.092  10.182  11.224  0.5044  0.1498 -0.6465
  181MOL0     C23816   6.230  10.161  11.248 -0.3804  0.5215  0.9965
  181MOL0     C23817   6.317  10.258  11.306  0.1928 -0.1687  0.4432
  181MOL0     O23818   6.447  10.222  11.331  0.2184 -0.0740 -0.2082
  181MOL0     C23819   6.520  10.284  11.437  0.7463  0.1741 -0.8187
  181MOL0     C23820   6.670  10.241  11.443 -0.1629 -0.2257 -0.4904
  181MOL0     C23821   6.743  10.312  11.559  0.6335  0.0058  0.6967
  181MOL0     C23822   6.896  10.311  11.553  0.7290  0.7847 -0.0249
  181MOL0     C23823   6.948  10.364  11.684 -0.1304  0.5114 -0.4077
  181MOL0     C23824   7.004  10.415  11.779 -0.2068 -0.1528  0.0209
  181MOL0     C23825   6.258  10.390  11.336  0.5066 -0.1253 -0.8094
  181MOL0     C23826   6.122  10.407  11.310 -1.0539 -1.2051  0.3094
  181MOL0     H23827   5.709  10.126  10.971  0.0610  0.6803 -0.6660
  181MOL0     H23828   5.469  10.089  10.931  2.6027  1.6535 -1.8200
  181MOL0     H23829   5.183  10.404  11.095 -4.0759  1.0056  0.4111
  181MOL0     H23830   5.194  10.289  11.228  3.7417  2.5842 -0.7430
  181MOL0     H23831   5.040  10.142  11.067 -0.5495  0.7106  1.3231
  181MOL0     H23832   5.034  10.273  10.949 -1.6075  0.4076 -0.5325
  181MOL0     H23833   4.943  10.428  11.122 -3.5592  0.2110  1.9465
  181MOL0     H23834   4.918  10.295  11.230 -2.3389  1.0414 -0.0155
  181MOL0     H23835   4.803  10.315  10.947 -0.3716  0.7941  0.8012
  181MOL0     H23836   4.785  10.178  11.051  2.4402 -0.8005  1.8817
  181MOL0     H23837   4.694  10.467  11.082  0.3196  0.2214 -2.9510
  181MOL0     H23838   4.696  10.356  11.221  0.6809 -1.2219 -0.6193
  181MOL0     H23839   4.523  10.319  10.968 -2.6349 -0.7960 -0.0334
  181MOL0     H23840   4.476  10.407  11.114  2.2269  0.5283  1.8400
  181MOL0     H23841   4.565  10.114  11.117 -0.0257 -0.3874  1.9265
  181MOL0     H23842   4.509  10.205  11.255 -1.9766 -1.5874 -0.5584
  181MOL0     H23843   4.292  10.221  11.179  2.3340  1.0396  0.2954
  181MOL0     H23844   4.340  10.059  11.168 -0.2810 -0.1004 -0.4691
  181MOL0     H23845   4.382   9.960  10.909 -0.2013  0.3121  2.2066
  181MOL0     H23846   4.356   9.934  10.649  0.4806  1.5028 -2.9488
  181MOL0     H23847   4.272  10.063  10.568 -0.6354 -0.6946  0.1896
  181MOL0     H23848   4.050   9.986  10.660  0.5389  1.1639 -1.3912
  181MOL0     H23849   4.141   9.862  10.762 -0.7302  0.8196  0.0274
  181MOL0     H23850   4.024   9.761  10.560  0.9597 -1.8875 -0.0976
  181MOL0     H23851   4.130   9.850  10.458  0.5755 -0.5790  0.3887
  181MOL0     H23852   4.325   9.726  10.509  1.0376  0.3862  2.6571
  181MOL0     H23853   4.183   9.621  10.485 -0.1438  0.8588 -0.5008
  181MOL0     H23854   4.352   9.683  10.898 -0.8101 -0.6801  0.8160
  181MOL0     H23855   4.577   9.595  10.969 -0.9646  2.6210  0.4508
  181MOL0     H23856   4.999   9.436  10.719 -1.9155 -0.8540  0.6489
  181MOL0     H23857   5.249   9.391  10.752  3.7466  2.6943  1.8790
  181MOL0     H23858   5.430   9.293  11.153 -0.3928 -0.2541 -0.0760
  181MOL0     H23859   5.431   9.461  11.134 -0.3007 -0.8176  1.2892
  181MOL0     H23860   5.613   9.458  10.979 -2.9030  0.7304 -0.4133
  181MOL0     H23861   5.620   9.274  10.981 -3.4338 -1.3491  0.1442
  181MOL0     H23862   5.685   9.278  11.222  4.3532 -1.2252 -0.8829
  181MOL0     H23863   5.662   9.455  11.232  1.3505 -0.2501 -1.1873
  181MOL0     H23864   5.880   9.293  11.105  5.3545  2.1703  0.9293
  181MOL0     H23865   5.853   9.461  11.055  0.3709 -3.0714 -3.2267
  181MOL0     H23866   5.910   9.369  11.334  1.1381  0.0888  1.8288
  181MOL0     H23867   5.905   9.543  11.273 -1.3511 -0.8405  0.3124
  181MOL0     H23868   6.089   9.501  11.126 -1.2476  1.1473  0.3810
  181MOL0     H23869   6.107   9.336  11.211  1.2845  1.4172  3.1653
  181MOL0     H23870   6.163   9.609  11.328  2.4126  1.2212 -1.8613
  181MOL0     H23871   6.135   9.462  11.424 -0.9221  2.5965 -0.8294
  181MOL0     H23872   6.329   9.512  11.194 -1.0210 -0.0471 -0.4407
  181MOL0     H23873   6.344   9.374  11.310 -0.0573 -0.6902 -3.3865
  181MOL0     H23874   5.187   9.411  11.182 -2.0718 -0.5902  1.3133
  181MOL0     H23875   4.952   9.472  11.142  0.1456  4.5880 -0.2558
  181MOL0     H23876   4.601   9.359  10.612  2.0342  0.0919  2.1702
  181MOL0     H23877   4.366   9.450  10.555 -1.9762 -0.8149  2.1794
  181MOL0     H23878   5.402  10.381  11.253  1.4558 -0.5868  1.9934
  181MOL0     H23879   5.636  10.375  11.306  0.7543  1.9101 -2.2789
  181MOL0     H23880   6.041  10.100  11.175 -0.9030 -2.4464  4.4432
  181MOL0     H23881   6.271  10.063  11.224 -2.7003 -0.0171 -1.2537
  181MOL0     H23882   6.477  10.266  11.536 -0.9476 -3.2265 -2.0202
  181MOL0     H23883   6.522  10.391  11.414  0.3993  0.0873 -1.2442
  181MOL0     H23884   6.682  10.133  11.438  2.5578  0.0145 -4.6292
  181MOL0     H23885   6.717  10.277  11.350 -0.8072  0.6029 -0.5032
  181MOL0     H23886   6.711  10.264  11.652  0.1883 -3.1551 -0.9563
  181MOL0     H23887   6.723  10.420  11.553  2.5235  0.3335 -0.5778
  181MOL0     H23888   6.915  10.204  11.540  0.1405  0.7415 -0.5889
  181MOL0     H23889   6.947  10.356  11.467  3.1341 -0.5200  0.6347
  181MOL0     H23890   7.029  10.448  11.878  1.7852  1.7740 -1.0412
  181MOL0     H23891   6.299  10.472  11.394  0.6397 -0.3487 -0.5815
  181MOL0     H23892   6.074  10.498  11.342 -0.3518 -1.1980  1.4185
  182MOL0     O23893   9.188   7.084   6.867 -1.0312  0.0983 -0.1441
  182MOL0     C23894   9.264   7.180   6.890  1.7928 -0.0076 -1.3197
  182MOL0     O23895   9.228   7.276   6.976  0.3143  0.1994  0.1167
  182MOL0     C23896   9.115   7.268   7.043  0.0389 -0.2946  0.0917
  182MOL0     C23897   9.126   7.224   7.176  0.6006  0.3372  0.5216
  182MOL0     C23898   9.020   7.213   7.256  0.5195  0.0371  0.6805
  182MOL0     C23899   8.895   7.245   7.210 -0.0695  0.9332 -0.4479
  182MOL0     O23900   8.790   7.230   7.300 -0.3614 -0.4153  0.7219
  182MOL0     C23901   8.653   7.236   7.244  0.8138 -0.2766 -0.3987
  182MOL0     C23902   8.561   7.169   7.355 -0.2520 -0.5119  0.1828
  182MOL0     C23903   8.416   7.134   7.314 -0.8258  0.1868  1.0626
  182MOL0     C23904   8.346   7.226   7.220  1.4124 -0.0731  0.2316
  182MOL0     C23905   8.199   7.193   7.217  0.3765 -0.0079 -0.0862
  182MOL0     C23906   8.124   7.257   7.335 -0.5677 -0.8579 -0.0575
  182MOL0     C23907   7.968   7.232   7.326 -0.0005 -0.1836 -0.6412
  182MOL0     C23908   7.886   7.299   7.432  0.4438 -0.0139  0.2178
  182MOL0     N23909   7.736   7.271   7.413  0.2041 -0.0665  0.2949
  182MOL0     C23910   7.660   7.306   7.308  0.6619 -0.1901  0.2527
  182MOL0     C23911   7.536   7.259   7.336  0.2396 -0.6862 -0.1842
  182MOL0     C23912   7.407   7.281   7.267  1.4300 -0.3277  0.4307
  182MOL0     C23913   7.329   7.408   7.319  0.5300  0.3156 -0.4289
  182MOL0     C23914   7.188   7.420   7.249 -0.1460 -0.3571 -0.4949
  182MOL0     C23915   7.142   7.560   7.230 -0.6197 -0.7073  0.4771
  182MOL0     O23916   7.010   7.570   7.186  0.7276 -0.3938  0.1199
  182MOL0     C23917   6.911   7.501   7.235 -0.5286  0.0460  0.8576
  182MOL0     C23918   6.884   7.502   7.371 -0.0815 -0.0119 -1.1663
  182MOL0     C23919   6.766   7.429   7.417  0.2403  0.1005  0.5287
  182MOL0     C23920   6.680   7.371   7.325 -0.3039 -0.6096 -0.2061
  182MOL0     C23921   6.551   7.313   7.368  0.3319  0.4678  0.1721
  182MOL0     O23922   6.502   7.349   7.497 -0.1518 -0.2393 -0.3057
  182MOL0     C23923   6.406   7.278   7.555 -0.0552  0.3617  1.0217
  182MOL0     C23924   6.283   7.265   7.499  0.7247 -1.4527 -0.3617
  182MOL0     C23925   6.187   7.177   7.564 -0.9943 -1.0500  0.0184
  182MOL0     C23926   6.225   7.100   7.688 -0.8000  1.0882  0.3954
  182MOL0     O23927   6.140   7.023   7.758  0.0651  0.1647 -0.5329
  182MOL0     C23928   6.007   7.015   7.702  0.0157 -0.5369 -0.2887
  182MOL0     C23929   5.932   6.910   7.787  0.5997  0.2270  0.2008
  182MOL0     C23930   5.786   6.909   7.754  0.6068  0.5067  1.4829
  182MOL0     C23931   5.700   6.805   7.826 -0.2291 -0.5368 -0.4261
  182MOL0     C23932   5.708   6.818   7.981  0.7610 -0.1535  0.7726
  182MOL0     C23933   5.618   6.731   8.065  0.3947 -0.4665  0.7181
  182MOL0     C23934   5.690   6.597   8.077  1.0578  0.0542 -0.3512
  182MOL0     C23935   5.594   6.478   8.115  1.5110  0.5219  0.4702
  182MOL0    Cl23936   5.503   6.505   8.270  0.0768  0.6552  0.2231
  182MOL0     C23937   6.357   7.105   7.728  0.1401  0.1061 -0.4758
  182MOL0     C23938   6.439   7.191   7.659  0.3725  0.2857  0.0375
  182MOL0     O23939   6.492   7.244   7.283  0.4513  0.3400 -0.5292
  182MOL0     C23940   6.713   7.368   7.188  0.9710  0.4168 -1.0732
  182MOL0     C23941   6.831   7.425   7.148  0.0715  0.2152  0.7476
  182MOL0     N23942   7.544   7.189   7.458  0.1091 -0.2844  0.3528
  182MOL0     N23943   7.663   7.196   7.499 -0.4069  1.0321 -0.2333
  182MOL0     C23944   8.882   7.277   7.074  0.4171  0.1095 -0.2426
  182MOL0     C23945   8.991   7.294   6.990 -0.3828  0.7497 -0.5205
  182MOL0     C23946   9.398   7.175   6.833 -0.7905 -0.9479  0.2840
  182MOL0     C23947   9.492   7.278   6.865  0.1852  1.1324 -0.2535
  182MOL0     C23948   9.621   7.276   6.805 -0.4792  0.0262 -0.0138
  182MOL0     C23949   9.658   7.172   6.724  0.9177 -0.8486  0.3180
  182MOL0     O23950   9.790   7.170   6.685 -0.3042  0.8472 -0.2396
  182MOL0     C23951   9.845   7.054   6.614  0.2547 -0.9989 -0.4931
  182MOL0     C23952   9.984   7.104   6.571 -0.3756 -0.4939 -0.3065
  182MOL0     C23953  10.060   6.994   6.498 -1.0248  0.2279 -0.4014
  182MOL0     C23954  10.205   7.022   6.458  0.1794 -0.0383  0.1691
  182MOL0     C23955  10.313   7.042   6.559  0.2199  0.4330  0.1508
  182MOL0     C23956  10.386   7.070   6.653 -0.1224  0.3314 -0.5835
  182MOL0     C23957   9.558   7.078   6.689  0.6594  0.0015  0.8277
  182MOL0     C23958   9.432   7.082   6.733  0.0222  0.1895  0.7102
  182MOL0     H23959   9.221   7.202   7.224  1.4877  0.2506 -1.2004
  182MOL0     H23960   9.030   7.177   7.357 -1.8255 -1.2418  0.5103
  182MOL0     H23961   8.636   7.177   7.154 -2.9516  0.5219 -0.3845
  182MOL0     H23962   8.612   7.337   7.231  2.2476  0.4907  0.7247
  182MOL0     H23963   8.547   7.245   7.432 -0.5698  0.0085 -0.3851
  182MOL0     H23964   8.603   7.078   7.400  1.8368  0.7373  0.9283
  182MOL0     H23965   8.352   7.126   7.402 -1.1437 -0.7622  0.7519
  182MOL0     H23966   8.418   7.034   7.271  3.0450  0.0092  1.3006
  182MOL0     H23967   8.364   7.332   7.240 -0.1366  0.4166 -0.7788
  182MOL0     H23968   8.381   7.208   7.118  0.5924  3.6700 -0.8821
  182MOL0     H23969   8.195   7.085   7.204  0.3055  0.2004 -2.1725
  182MOL0     H23970   8.140   7.231   7.133 -1.3033  0.8981  1.4263
  182MOL0     H23971   8.143   7.365   7.337 -0.7323 -0.8346  1.7879
  182MOL0     H23972   8.157   7.215   7.431  1.9858 -2.4276 -1.5078
  182MOL0     H23973   7.928   7.260   7.229  0.0436 -0.4460 -0.7367
  182MOL0     H23974   7.951   7.124   7.331 -0.4992 -0.0514  1.4019
  182MOL0     H23975   7.906   7.406   7.437  0.8778 -0.1538  1.6865
  182MOL0     H23976   7.908   7.258   7.530  0.0500 -1.5313 -0.3035
  182MOL0     H23977   7.687   7.371   7.226  0.2156 -0.8549 -0.4359
  182MOL0     H23978   7.342   7.193   7.267  0.4205  0.2968 -2.4406
  182MOL0     H23979   7.433   7.291   7.161  4.3458  1.1368  1.1615
  182MOL0     H23980   7.390   7.489   7.278  0.6623  0.5434  0.2041
  182MOL0     H23981   7.324   7.409   7.428  0.7824 -6.4018  0.0537
  182MOL0     H23982   7.193   7.367   7.153 -2.9775  0.1403 -0.9972
  182MOL0     H23983   7.120   7.353   7.303 -0.7859  1.3237  0.8859
  182MOL0     H23984   7.206   7.612   7.158 -1.8839  1.9349  1.1043
  182MOL0     H23985   7.151   7.605   7.329 -2.7289 -1.3824  1.0308
  182MOL0     H23986   6.940   7.556   7.446 -0.9139 -0.3994 -0.2427
  182MOL0     H23987   6.748   7.418   7.523 -1.0287 -0.0970  0.3068
  182MOL0     H23988   6.256   7.334   7.420  0.3684 -0.5759  0.5041
  182MOL0     H23989   6.083   7.187   7.535 -0.3108  2.3399 -1.7637
  182MOL0     H23990   6.009   6.981   7.598  2.4024 -0.5863 -0.2699
  182MOL0     H23991   5.958   7.112   7.703 -1.1771 -0.9722 -3.6578
  182MOL0     H23992   5.942   6.934   7.893 -3.1721  1.4541  0.4292
  182MOL0     H23993   5.974   6.810   7.771 -0.7826 -0.4555  0.7255
  182MOL0     H23994   5.765   6.888   7.649 -2.4301 -1.2826  2.3126
  182MOL0     H23995   5.760   7.011   7.781  0.1836  0.7869  0.0823
  182MOL0     H23996   5.597   6.804   7.792  0.4365  1.0464 -2.7053
  182MOL0     H23997   5.732   6.704   7.803  0.7842  0.0075 -1.4989
  182MOL0     H23998   5.685   6.923   8.003 -2.0238 -0.7226  0.9383
  182MOL0     H23999   5.814   6.800   8.004  1.3065  0.6905 -0.9421
  182MOL0     H24000   5.514   6.715   8.036  0.4857 -1.2015  0.7935
  182MOL0     H24001   5.606   6.777   8.164  0.2067 -2.3595  1.6059
  182MOL0     H24002   5.743   6.576   7.983  0.9814 -4.0199  0.3419
  182MOL0     H24003   5.770   6.599   8.152  2.1722 -1.0570 -1.4421
  182MOL0     H24004   5.655   6.389   8.133 -0.7623 -1.5350 -1.2532
  182MOL0     H24005   5.529   6.465   8.027  3.1010 -0.1544 -0.6539
  182MOL0     H24006   6.390   7.050   7.815  1.5891 -0.6217 -1.4539
  182MOL0     H24007   6.538   7.182   7.703  1.0268  2.2250 -0.9213
  182MOL0     H24008   6.634   7.334   7.122  0.8007 -0.6046 -0.3614
  182MOL0     H24009   6.868   7.422   7.046  0.1329  3.2346  0.5916
  182MOL0     H24010   8.783   7.293   7.033 -0.0444 -3.1894 -0.6421
  182MOL0     H24011   8.977   7.333   6.890  1.3928 -0.3520 -1.2543
  182MOL0     H24012   9.463   7.363   6.926  1.9883  2.2411 -0.8539
  182MOL0     H24013   9.693   7.352   6.833 -0.1025 -0.8395  1.4434
  182MOL0     H24014   9.780   7.024   6.532  0.4161 -2.4597 -0.1146
  182MOL0     H24015   9.860   6.965   6.677 -1.0744 -1.6456 -1.0568
  182MOL0     H24016   9.981   7.196   6.513  2.6999 -0.6365 -0.8560
  182MOL0     H24017  10.048   7.137   6.653  0.5509 -1.6634 -0.5366
  182MOL0     H24018   9.998   6.965   6.413 -0.2248 -1.5523 -0.4085
  182MOL0     H24019  10.071   6.906   6.562 -0.5769 -1.1572 -2.2989
  182MOL0     H24020  10.240   6.929   6.411  2.5905 -0.2294  2.1605
  182MOL0     H24021  10.202   7.100   6.382 -1.5505  0.3210  0.5741
  182MOL0     H24022  10.459   7.091   6.729  2.0245 -1.1987 -2.1079
  182MOL0     H24023   9.584   6.995   6.624  0.4115  0.7951 -0.3104
  182MOL0     H24024   9.353   7.010   6.714  0.2567  0.8237 -3.4178
  183MOL0     O24025   0.426   7.446   3.868 -0.6501  0.2528  0.8330
  183MOL0     C24026   0.507   7.436   3.961 -0.5047  0.5607  0.0139
  183MOL0     O24027   0.486   7.372   4.087  0.5741 -0.4762  0.9595
  183MOL0     C24028   0.366   7.305   4.098  0.3005  0.3525 -0.0046
  183MOL0     C24029   0.349   7.164   4.073 -0.6779 -0.3420 -0.0997
  183MOL0     C24030   0.218   7.117   4.094 -0.1599 -0.5548 -0.0481
  183MOL0     C24031   0.114   7.203   4.134  0.5660  0.3708 -1.1767
  183MOL0     O24032  -0.020   7.145   4.125 -1.1356 -0.1215  0.7686
  183MOL0     C24033  -0.129   7.213   4.197  0.7180 -1.0684  0.5232
  183MOL0     C24034  -0.262   7.159   4.158  0.1385  0.1711  0.0700
  183MOL0     C24035  -0.268   6.998   4.175 -0.1194 -0.3891 -0.3297
  183MOL0     C24036  -0.390   6.947   4.107  0.4757  0.0629 -0.6284
  183MOL0     C24037  -0.500   6.893   4.205  0.9875  0.8483  0.1747
  183MOL0     C24038  -0.608   6.809   4.128  1.0261 -0.7231 -0.1245
  183MOL0     C24039  -0.727   6.766   4.215  0.3679 -0.4048  0.1959
  183MOL0     C24040  -0.831   6.696   4.126  0.4006 -0.2077  0.0570
  183MOL0     N24041  -0.937   6.624   4.208  0.3110  0.5017 -0.3213
  183MOL0     C24042  -1.066   6.665   4.242  0.5970  0.4349  0.2468
  183MOL0     C24043  -1.124   6.565   4.316  0.2122 -0.8030 -1.8716
  183MOL0     C24044  -1.260   6.555   4.363 -0.0865 -0.4775  0.4798
  183MOL0     C24045  -1.359   6.527   4.257 -0.4974  0.7915 -0.5503
  183MOL0     C24046  -1.493   6.538   4.324 -0.1866  0.8658  0.3734
  183MOL0     C24047  -1.597   6.514   4.219  0.1163 -0.3213  0.1433
  183MOL0     O24048  -1.717   6.529   4.294  0.2026  0.2310 -0.1973
  183MOL0     C24049  -1.835   6.514   4.240 -0.0211 -0.3815 -1.0600
  183MOL0     C24050  -1.944   6.528   4.334  0.3387 -0.0683  0.1978
  183MOL0     C24051  -2.075   6.498   4.288 -0.3165 -0.1491  0.2133
  183MOL0     C24052  -2.102   6.459   4.153 -0.1827  0.0933 -0.0075
  183MOL0     C24053  -2.236   6.455   4.094  0.7111  0.5924 -0.5600
  183MOL0     O24054  -2.330   6.501   4.176  0.4352 -0.7496  0.1367
  183MOL0     C24055  -2.451   6.470   4.142  0.2141  0.5150  0.4174
  183MOL0     C24056  -2.535   6.407   4.241 -0.1126 -0.7173 -0.6537
  183MOL0     C24057  -2.667   6.391   4.221  0.7538  0.6505 -0.6045
  183MOL0     C24058  -2.729   6.442   4.104  0.0049  0.4514 -0.5974
  183MOL0     O24059  -2.862   6.422   4.103  0.2913  0.4314 -0.5851
  183MOL0     C24060  -2.937   6.484   3.994 -0.5705  0.5961  0.1609
  183MOL0     C24061  -3.086   6.479   4.024 -0.1752 -0.2276 -0.1577
  183MOL0     C24062  -3.149   6.551   3.908  0.3885  0.2101  0.3279
  183MOL0     C24063  -3.307   6.548   3.912  0.6991 -0.7158 -0.2063
  183MOL0     C24064  -3.371   6.624   3.792 -0.5696 -0.2498 -0.5167
  183MOL0     C24065  -3.514   6.577   3.769 -0.0945 -0.4673 -0.6060
  183MOL0     C24066  -3.585   6.657   3.659 -0.6283 -0.5517  0.9292
  183MOL0     C24067  -3.708   6.564   3.613 -0.1356  0.0934  0.0740
  183MOL0    Cl24068  -3.834   6.653   3.515 -0.0598 -0.5970 -0.4335
  183MOL0     C24069  -2.654   6.516   4.015 -0.4855 -0.3142  0.3073
  183MOL0     C24070  -2.520   6.530   4.032  0.2176 -0.5240  0.1863
  183MOL0     O24071  -2.256   6.410   3.982 -0.7348 -0.1541  0.4667
  183MOL0     C24072  -1.988   6.436   4.069  0.7856 -0.4759  0.2217
  183MOL0     C24073  -1.859   6.467   4.112 -0.0262  0.4152  0.1193
  183MOL0     N24074  -1.033   6.462   4.318 -0.6183  0.8416  0.9103
  183MOL0     N24075  -0.927   6.494   4.253  0.0303 -0.2449 -0.0244
  183MOL0     C24076   0.127   7.336   4.152 -0.2684  0.0998  0.7051
  183MOL0     C24077   0.259   7.389   4.142  1.0068 -0.1323  0.5380
  183MOL0     C24078   0.628   7.510   3.931  0.0907  0.2658 -0.6673
  183MOL0     C24079   0.743   7.462   3.997  0.2289  0.4703 -0.3693
  183MOL0     C24080   0.863   7.544   3.975 -0.1743  0.9236 -0.1950
  183MOL0     C24081   0.862   7.654   3.896 -0.3692 -0.2617  0.0649
  183MOL0     O24082   0.975   7.733   3.893  1.0759 -0.3606  0.0356
  183MOL0     C24083   1.016   7.780   3.765  0.1112 -0.0306 -0.5276
  183MOL0     C24084   1.156   7.845   3.779  0.8688 -0.1954 -0.1204
  183MOL0     C24085   1.266   7.759   3.854 -0.0973 -0.2836 -0.6771
  183MOL0     C24086   1.389   7.837   3.845 -0.4720 -0.0339 -0.0020
  183MOL0     C24087   1.376   7.963   3.924  0.3122 -0.1086  0.1490
  183MOL0     C24088   1.366   8.060   3.992  0.1235 -0.3845  0.8635
  183MOL0     C24089   0.743   7.695   3.829 -0.5615  0.4424  0.5475
  183MOL0     C24090   0.628   7.626   3.849  0.4233 -0.0349 -0.0086
  183MOL0     H24091   0.436   7.107   4.043  0.0816  0.1300  1.0916
  183MOL0     H24092   0.193   7.013   4.072  0.7392 -0.7596 -0.1580
  183MOL0     H24093  -0.136   7.321   4.185  4.3051 -0.7716 -0.0943
  183MOL0     H24094  -0.111   7.204   4.304  3.4070  2.0483  0.4746
  183MOL0     H24095  -0.293   7.206   4.064 -1.8941  2.5230  1.7614
  183MOL0     H24096  -0.338   7.199   4.225  0.7701  1.6573 -0.0470
  183MOL0     H24097  -0.279   6.974   4.281 -2.6447 -0.5378 -0.5610
  183MOL0     H24098  -0.183   6.938   4.143 -1.9810 -2.4215 -1.7359
  183MOL0     H24099  -0.421   7.013   4.025  3.0259 -1.0319 -2.6236
  183MOL0     H24100  -0.348   6.865   4.048  0.1072  0.2297 -1.1310
  183MOL0     H24101  -0.557   6.979   4.240 -1.9633 -0.5125 -0.9379
  183MOL0     H24102  -0.451   6.823   4.275  0.3331  1.1217  0.9180
  183MOL0     H24103  -0.560   6.725   4.076  0.8497 -0.0188 -1.4716
  183MOL0     H24104  -0.641   6.883   4.055 -1.2443 -0.4965  1.0717
  183MOL0     H24105  -0.700   6.690   4.288 -3.3656 -5.6511 -3.1688
  183MOL0     H24106  -0.777   6.853   4.259 -1.2023 -1.8451  1.4149
  183MOL0     H24107  -0.778   6.625   4.061  3.0871  1.0228  0.7441
  183MOL0     H24108  -0.878   6.774   4.066 -1.6499 -1.8658 -0.6065
  183MOL0     H24109  -1.127   6.749   4.211 -3.0818 -0.6539  3.6871
  183MOL0     H24110  -1.287   6.649   4.412 -1.5928 -1.9011  2.5410
  183MOL0     H24111  -1.261   6.482   4.445 -0.6028  1.1729  2.0201
  183MOL0     H24112  -1.344   6.427   4.214 -0.5174  0.6454 -0.2243
  183MOL0     H24113  -1.356   6.609   4.185 -3.3554  0.6143 -0.9651
  183MOL0     H24114  -1.502   6.471   4.410 -0.5690  0.6794  0.1903
  183MOL0     H24115  -1.498   6.638   4.366  0.1474  0.6336  0.9968
  183MOL0     H24116  -1.584   6.424   4.159  2.5450 -0.1557  0.3044
  183MOL0     H24117  -1.594   6.594   4.144 -0.6517 -1.1260 -0.7582
  183MOL0     H24118  -1.918   6.547   4.438 -0.6269 -1.9901  0.8467
  183MOL0     H24119  -2.149   6.508   4.366 -0.1868  1.3870  0.1779
  183MOL0     H24120  -2.484   6.380   4.333  0.0349 -2.8185 -1.3062
  183MOL0     H24121  -2.720   6.335   4.297 -0.2455  1.2384 -0.8594
  183MOL0     H24122  -2.914   6.435   3.898  0.8953  0.5084  0.5392
  183MOL0     H24123  -2.899   6.586   3.980  0.0197  0.5867  1.5787
  183MOL0     H24124  -3.107   6.529   4.119  1.5757  0.7028 -0.2149
  183MOL0     H24125  -3.112   6.373   4.034 -1.5897  0.0068 -1.0128
  183MOL0     H24126  -3.120   6.510   3.811  0.1087  1.7978 -0.4711
  183MOL0     H24127  -3.116   6.656   3.906  0.9157  0.0907  1.8462
  183MOL0     H24128  -3.343   6.445   3.911  0.2426 -0.6022  1.3546
  183MOL0     H24129  -3.338   6.596   4.006  2.8804  2.1008 -0.7971
  183MOL0     H24130  -3.312   6.598   3.704 -0.6460 -1.2507 -0.2916
  183MOL0     H24131  -3.371   6.731   3.814 -1.9476 -0.3886  0.2870
  183MOL0     H24132  -3.576   6.600   3.856  1.4628  3.6178 -0.3540
  183MOL0     H24133  -3.521   6.472   3.741  1.1693 -1.3806  2.1062
  183MOL0     H24134  -3.605   6.759   3.692 -3.3341 -1.3146  1.9376
  183MOL0     H24135  -3.522   6.668   3.570  0.8268 -1.2112  1.8404
  183MOL0     H24136  -3.752   6.515   3.700  1.6817  0.8963  1.5172
  183MOL0     H24137  -3.676   6.483   3.547 -1.5059 -1.0148  0.7212
  183MOL0     H24138  -2.697   6.572   3.933  0.1343 -0.3550 -0.0469
  183MOL0     H24139  -2.461   6.589   3.963 -1.9363  1.8287  0.1981
  183MOL0     H24140  -1.994   6.409   3.964  0.9438 -0.7360  0.2807
  183MOL0     H24141  -1.778   6.467   4.040 -0.1072  0.4509  0.0279
  183MOL0     H24142   0.043   7.398   4.181 -0.6599  0.3429 -0.8664
  183MOL0     H24143   0.280   7.493   4.162  1.6798 -0.0869 -0.3452
  183MOL0     H24144   0.745   7.377   4.065  1.3499 -1.5250 -2.7240
  183MOL0     H24145   0.945   7.511   4.039  0.2013 -0.4684 -1.3356
  183MOL0     H24146   0.949   7.859   3.731 -1.5895 -1.3393 -0.3345
  183MOL0     H24147   1.024   7.708   3.682  1.4675  0.0474 -0.4967
  183MOL0     H24148   1.190   7.875   3.680  0.4392 -1.7285 -0.7552
  183MOL0     H24149   1.141   7.935   3.840  1.4637 -1.0915  1.4072
  183MOL0     H24150   1.277   7.657   3.817 -3.1560 -0.8893 -0.1926
  183MOL0     H24151   1.242   7.733   3.957 -1.6255 -0.9128 -1.1631
  183MOL0     H24152   1.466   7.779   3.897 -3.1136 -3.1146  0.8305
  183MOL0     H24153   1.417   7.846   3.740 -0.2540 -0.6842 -0.0017
  183MOL0     H24154   1.362   8.141   4.062  0.3784 -1.1033  1.7207
  183MOL0     H24155   0.745   7.791   3.779 -1.8147  1.0717  1.6531
  183MOL0     H24156   0.537   7.661   3.802  1.2152 -2.5215 -3.8748
  184MOL0     O24157   4.743  10.045   1.558  0.1155 -0.2080  0.2369
  184MOL0     C24158   4.817  10.109   1.638  0.2641 -0.4936  0.6272
  184MOL0     O24159   4.793  10.127   1.767  0.1468  0.2375  0.4293
  184MOL0     C24160   4.689  10.056   1.832  0.2478 -0.0404  0.5238
  184MOL0     C24161   4.668   9.915   1.816 -0.1923 -0.0555  0.0463
  184MOL0     C24162   4.567   9.846   1.897 -0.2185 -0.7283 -0.6922
  184MOL0     C24163   4.476   9.917   1.976 -0.3522  0.6121  0.4313
  184MOL0     O24164   4.390   9.848   2.057  0.6089 -0.2567 -0.4392
  184MOL0     C24165   4.245   9.884   2.083  0.2963  0.7253  0.2206
  184MOL0     C24166   4.195   9.770   2.154  0.2765  0.6383  0.0497
  184MOL0     C24167   4.059   9.787   2.201  0.2891  0.2040 -0.4320
  184MOL0     C24168   3.956   9.819   2.091 -0.8987 -0.0826  0.2459
  184MOL0     C24169   3.829   9.816   2.161  0.8885  0.1596  0.3036
  184MOL0     C24170   3.718   9.881   2.088  0.0534 -0.2246  0.5538
  184MOL0     C24171   3.709   9.838   1.941  1.0116 -0.7751 -0.0490
  184MOL0     C24172   3.581   9.905   1.874 -0.9941  0.8646  0.8427
  184MOL0     N24173   3.594  10.044   1.863 -1.0393  0.2468 -0.6261
  184MOL0     C24174   3.663  10.106   1.766 -0.9908  0.3392  0.5604
  184MOL0     C24175   3.648  10.239   1.787 -0.0681  0.7773 -0.6300
  184MOL0     C24176   3.712  10.348   1.696  0.0207  0.4230  0.3986
  184MOL0     C24177   3.599  10.404   1.614 -0.3338 -0.0422  0.1816
  184MOL0     C24178   3.635  10.534   1.549  0.5922 -0.7512  0.8188
  184MOL0     C24179   3.585  10.551   1.397  0.0493 -1.0990 -0.3606
  184MOL0     O24180   3.450  10.519   1.374  0.2247 -0.3987 -0.4562
  184MOL0     C24181   3.349  10.618   1.387 -0.8016  0.8027  1.4018
  184MOL0     C24182   3.363  10.757   1.404 -0.1544 -0.5497  0.2842
  184MOL0     C24183   3.253  10.847   1.421  0.2360  0.1110  0.0731
  184MOL0     C24184   3.128  10.788   1.439 -0.2836 -0.4071 -0.1446
  184MOL0     C24185   3.001  10.871   1.470 -0.1017  0.5641 -0.0492
  184MOL0     O24186   2.886  10.808   1.512  0.5662 -0.6088 -0.2361
  184MOL0     C24187   2.785  10.887   1.542 -0.1199 -0.8379 -0.5031
  184MOL0     C24188   2.675  10.885   1.460 -1.1833 -0.6172 -0.5593
  184MOL0     C24189   2.568  10.975   1.470 -0.3351  0.0823 -1.2896
  184MOL0     C24190   2.568  11.071   1.572  0.2807  0.3703 -0.1608
  184MOL0     O24191   2.457  11.154   1.576 -0.3856 -0.0186  0.8171
  184MOL0     C24192   2.443  11.246   1.675  0.1222 -1.1543 -1.0040
  184MOL0     C24193   2.292  11.263   1.702 -0.3227 -1.3594  0.1085
  184MOL0     C24194   2.226  11.146   1.772  0.0022 -0.6200  0.3143
  184MOL0     C24195   2.071  11.148   1.760  0.4381 -0.7878  0.6407
  184MOL0     C24196   2.000  11.270   1.814 -0.3312  0.0471  0.1884
  184MOL0     C24197   1.860  11.244   1.873  0.6979  0.7741  0.4573
  184MOL0     C24198   1.756  11.194   1.764  0.3291 -0.2839  0.6856
  184MOL0     C24199   1.625  11.175   1.835  0.0985  0.0864  0.2923
  184MOL0    Cl24200   1.507  11.095   1.723 -0.0065  0.1814  0.1940
  184MOL0     C24201   2.672  11.065   1.668 -0.5218  0.0624 -0.5813
  184MOL0     C24202   2.784  10.981   1.647 -0.0773 -0.9581 -0.1270
  184MOL0     O24203   3.017  10.990   1.468  0.5181 -0.1210 -0.1423
  184MOL0     C24204   3.115  10.653   1.412 -0.4344 -0.3224  0.0596
  184MOL0     C24205   3.223  10.568   1.393  0.2440  0.7211 -0.0981
  184MOL0     N24206   3.554  10.252   1.887  0.4216  0.3228  0.7720
  184MOL0     N24207   3.532  10.136   1.935  0.7622 -0.4799  0.1501
  184MOL0     C24208   4.506  10.057   1.998 -0.4387  0.0406  1.0052
  184MOL0     C24209   4.604  10.124   1.924  0.0267  0.5097  0.9100
  184MOL0     C24210   4.933  10.174   1.583  0.4907 -0.3599 -0.3773
  184MOL0     C24211   5.016  10.263   1.663 -0.8743  0.0500 -0.2652
  184MOL0     C24212   5.135  10.319   1.611 -1.1012 -0.6891  0.6211
  184MOL0     C24213   5.188  10.268   1.495 -0.9907  0.3235  0.6845
  184MOL0     O24214   5.321  10.294   1.469 -0.0263  0.1826 -0.5253
  184MOL0     C24215   5.354  10.340   1.339  0.4493 -0.6579  0.0457
  184MOL0     C24216   5.323  10.488   1.323  0.0909 -0.6936 -0.6258
  184MOL0     C24217   5.198  10.516   1.239  0.1767 -0.4832 -0.0250
  184MOL0     C24218   5.204  10.654   1.170 -0.0947  0.0115  0.4421
  184MOL0     C24219   5.180  10.756   1.271  0.0362  0.4811  0.9074
  184MOL0     C24220   5.149  10.824   1.362 -0.1159  0.4739 -0.3545
  184MOL0     C24221   5.110  10.188   1.407  0.3023  0.3632 -0.6789
  184MOL0     C24222   4.976  10.147   1.449  0.6622  0.4256  0.3981
  184MOL0     H24223   4.724   9.858   1.743 -2.5713 -0.8325 -1.2564
  184MOL0     H24224   4.544   9.741   1.884 -1.6885 -0.2437 -2.4984
  184MOL0     H24225   4.197   9.880   1.985 -0.9191 -0.7200  0.8314
  184MOL0     H24226   4.218   9.977   2.135 -1.2720  0.5058 -0.1435
  184MOL0     H24227   4.265   9.742   2.233 -0.5249 -2.1078 -0.1024
  184MOL0     H24228   4.197   9.686   2.085  0.7199  1.0713 -0.4674
  184MOL0     H24229   4.057   9.875   2.265  0.6513  1.0096 -1.4885
  184MOL0     H24230   4.024   9.707   2.266 -1.0508  1.6310  0.6788
  184MOL0     H24231   3.978   9.914   2.043 -0.2739 -0.7695 -0.8695
  184MOL0     H24232   3.969   9.743   2.013  2.2561 -0.1888  0.7273
  184MOL0     H24233   3.833   9.867   2.258 -2.9516 -1.8781  1.7766
  184MOL0     H24234   3.803   9.714   2.192 -2.3319  0.4094 -1.0979
  184MOL0     H24235   3.731   9.989   2.098 -1.6159  0.0345  0.3300
  184MOL0     H24236   3.620   9.858   2.131  0.1212  0.9099  1.3727
  184MOL0     H24237   3.802   9.867   1.891  0.9135  3.8554  1.9672
  184MOL0     H24238   3.690   9.730   1.932 -1.9789 -0.4339  0.9723
  184MOL0     H24239   3.491   9.883   1.932 -0.5947  0.4013  1.2979
  184MOL0     H24240   3.564   9.855   1.779  0.2303  1.8823  0.0495
  184MOL0     H24241   3.712  10.053   1.685  0.4999  0.8247  1.0985
  184MOL0     H24242   3.778  10.300   1.623 -2.9488 -1.6372 -1.1716
  184MOL0     H24243   3.759  10.429   1.751 -2.1502  3.1887 -1.5078
  184MOL0     H24244   3.499  10.406   1.658 -1.0414  0.1946 -1.3794
  184MOL0     H24245   3.582  10.325   1.541  1.8818 -3.2301  2.8441
  184MOL0     H24246   3.579  10.612   1.601 -0.3237  1.2763 -2.8675
  184MOL0     H24247   3.740  10.561   1.534  0.3843 -0.8382 -1.1386
  184MOL0     H24248   3.655  10.493   1.337  0.7643  1.3242 -2.0158
  184MOL0     H24249   3.615  10.651   1.363  0.8838 -1.4762 -0.7549
  184MOL0     H24250   3.466  10.792   1.397  0.5595 -2.6123 -0.3713
  184MOL0     H24251   3.267  10.952   1.445 -2.6326  0.7402 -0.5825
  184MOL0     H24252   2.681  10.829   1.367  1.7631 -0.6046 -0.4726
  184MOL0     H24253   2.481  10.975   1.405 -1.0109 -0.5193 -0.4208
  184MOL0     H24254   2.488  11.341   1.646 -3.6264  1.7764  1.7600
  184MOL0     H24255   2.488  11.230   1.773 -1.1014  5.6761  1.1871
  184MOL0     H24256   2.247  11.289   1.606  2.2372  0.5878 -0.7050
  184MOL0     H24257   2.269  11.348   1.768  3.2225 -1.3368  1.5654
  184MOL0     H24258   2.257  11.139   1.877  1.6807  3.1168  0.2447
  184MOL0     H24259   2.254  11.068   1.702  2.3320 -0.0287  0.4986
  184MOL0     H24260   2.041  11.130   1.656 -0.9938 -2.9170  1.3617
  184MOL0     H24261   2.033  11.060   1.811  1.3360 -1.2365  0.5620
  184MOL0     H24262   1.999  11.351   1.741 -0.5600  1.5099  1.7686
  184MOL0     H24263   2.057  11.308   1.899  0.8680 -0.2087 -0.4833
  184MOL0     H24264   1.828  11.339   1.916  2.3069  1.9104 -0.7811
  184MOL0     H24265   1.868  11.170   1.954  1.3188  0.7343  0.3598
  184MOL0     H24266   1.728  11.269   1.690  0.7566  0.4993  1.2991
  184MOL0     H24267   1.777  11.102   1.709 -0.1286  0.1610 -0.2430
  184MOL0     H24268   1.585  11.267   1.878  0.9005  0.9576 -0.7477
  184MOL0     H24269   1.651  11.104   1.914 -0.1293 -0.0835  0.2166
  184MOL0     H24270   2.676  11.132   1.754 -3.8814 -0.4627  0.1192
  184MOL0     H24271   2.863  10.993   1.721 -2.3887 -0.1846  2.4093
  184MOL0     H24272   3.018  10.606   1.393 -0.5040  0.8319 -2.9942
  184MOL0     H24273   3.218  10.461   1.377 -0.2463  0.2099  2.7756
  184MOL0     H24274   4.465  10.113   2.082  3.1085 -0.8651  3.5532
  184MOL0     H24275   4.615  10.228   1.953 -3.1966  1.5187 -1.0196
  184MOL0     H24276   4.989  10.303   1.760  1.2282  0.4884  0.1958
  184MOL0     H24277   5.190  10.397   1.662  1.2143 -0.6999 -1.6445
  184MOL0     H24278   5.303  10.280   1.263 -0.2348  2.2271 -1.9315
  184MOL0     H24279   5.462  10.329   1.323  0.3767 -1.5343  0.1292
  184MOL0     H24280   5.312  10.532   1.423  2.9810  0.6312 -0.7883
  184MOL0     H24281   5.413  10.530   1.278  1.1255  0.1194  1.9995
  184MOL0     H24282   5.105  10.507   1.295 -0.4621 -1.8042 -1.2252
  184MOL0     H24283   5.193  10.438   1.162 -2.9094 -2.0199  1.5645
  184MOL0     H24284   5.299  10.678   1.123 -0.4407  0.5758  0.0017
  184MOL0     H24285   5.123  10.657   1.096 -1.0492 -1.9897  1.3302
  184MOL0     H24286   5.146  10.881   1.453 -2.8655 -1.9538  1.2806
  184MOL0     H24287   5.142  10.145   1.313  1.2147  0.7311 -0.5477
  184MOL0     H24288   4.910  10.089   1.385  1.3812  1.8266 -1.6998
  185MOL0     O24289  10.826   1.825   9.394 -0.2812 -0.1109  0.0175
  185MOL0     C24290  10.796   1.706   9.364 -0.5012 -0.4695  0.2671
  185MOL0     O24291  10.733   1.669   9.245 -0.4152 -0.6877 -0.4126
  185MOL0     C24292  10.716   1.761   9.149 -0.7566  0.8935  0.1525
  185MOL0     C24293  10.811   1.765   9.041 -0.2435  0.7697 -0.7803
  185MOL0     C24294  10.789   1.853   8.938  0.7254 -0.6751  0.5115
  185MOL0     C24295  10.691   1.952   8.945 -0.8535 -0.3819  0.3288
  185MOL0     O24296  10.682   2.048   8.854  0.6321  0.8118  0.5595
  185MOL0     C24297  10.751   2.167   8.890 -0.1096 -0.6998  0.7375
  185MOL0     C24298  10.707   2.286   8.806 -0.6619 -1.4565  0.8172
  185MOL0     C24299  10.598   2.358   8.878 -0.3094 -0.2593  0.2120
  185MOL0     C24300  10.552   2.490   8.811  0.4013 -1.3562 -0.4103
  185MOL0     C24301  10.428   2.553   8.892 -0.4041 -0.0732  0.8540
  185MOL0     C24302  10.289   2.480   8.882  0.3229 -1.0990  0.7182
  185MOL0     C24303  10.194   2.558   8.788  0.1194  1.0439  0.2843
  185MOL0     C24304  10.059   2.484   8.788 -0.3009 -0.1119 -0.6648
  185MOL0     N24305   9.946   2.541   8.697  0.0010  0.4134  0.0663
  185MOL0     C24306   9.924   2.502   8.568 -0.3287 -0.4422 -0.7457
  185MOL0     C24307   9.816   2.568   8.533  0.2501  0.1209  0.5255
  185MOL0     C24308   9.740   2.575   8.399 -0.6707 -0.3831  0.1241
  185MOL0     C24309   9.619   2.477   8.395  0.7636 -0.0815 -0.3835
  185MOL0     C24310   9.485   2.545   8.413  0.5635 -0.1223  0.7425
  185MOL0     C24311   9.364   2.444   8.429  0.1558  0.1604 -0.7430
  185MOL0     O24312   9.247   2.500   8.488  0.0320  0.6290 -0.9546
  185MOL0     C24313   9.132   2.420   8.511  0.0311 -0.6083 -0.0781
  185MOL0     C24314   9.107   2.286   8.474  0.3374 -0.1455 -0.5679
  185MOL0     C24315   8.979   2.241   8.482 -0.1081  1.1003  0.0513
  185MOL0     C24316   8.866   2.312   8.529 -0.3062  0.6689 -0.4407
  185MOL0     C24317   8.737   2.242   8.527 -0.4013  0.1675 -0.1925
  185MOL0     O24318   8.725   2.110   8.501  0.1607 -0.3289  0.0932
  185MOL0     C24319   8.594   2.066   8.502 -0.2853  0.2259  0.0097
  185MOL0     C24320   8.508   2.067   8.613 -0.5705 -0.3291 -0.2517
  185MOL0     C24321   8.380   2.025   8.601 -0.2488 -0.4264 -0.4690
  185MOL0     C24322   8.338   1.950   8.491  0.6757 -0.3683 -0.2602
  185MOL0     O24323   8.216   1.891   8.468  0.1562 -0.0191  0.1633
  185MOL0     C24324   8.119   1.891   8.575 -0.6971  1.4954 -0.7344
  185MOL0     C24325   7.980   1.951   8.536  0.1861  0.0690  0.0491
  185MOL0     C24326   7.860   1.887   8.616 -0.4607 -0.0522 -0.4766
  185MOL0     C24327   7.868   1.926   8.765  0.0199  0.8697  0.8312
  185MOL0     C24328   7.740   1.881   8.836  0.3874 -0.2504  0.0565
  185MOL0     C24329   7.744   1.746   8.888  0.2767  0.6716  0.4158
  185MOL0     C24330   7.607   1.705   8.968 -0.1650 -0.2036 -0.2562
  185MOL0     C24331   7.607   1.770   9.111  0.6189  0.3961 -0.0085
  185MOL0    Cl24332   7.508   1.658   9.221  0.0497 -0.4796  0.1952
  185MOL0     C24333   8.423   1.933   8.386  0.3595  0.3575 -0.5119
  185MOL0     C24334   8.551   1.997   8.386 -0.2324  0.1446  0.2780
  185MOL0     O24335   8.646   2.314   8.568  0.3506  0.3968  0.7235
  185MOL0     C24336   8.888   2.446   8.549 -0.4213  0.0522 -1.0161
  185MOL0     C24337   9.024   2.498   8.545  0.4804  0.3108  0.7046
  185MOL0     N24338   9.773   2.639   8.638 -0.3040  0.3796  0.0559
  185MOL0     N24339   9.855   2.633   8.733  0.5627  0.3435  0.0787
  185MOL0     C24340  10.603   1.951   9.048  0.5515 -0.0852 -0.5278
  185MOL0     C24341  10.612   1.853   9.142  0.0350 -0.3634 -0.6610
  185MOL0     C24342  10.841   1.601   9.457 -0.3970  0.0834  0.2354
  185MOL0     C24343  10.781   1.472   9.471  0.2515  0.1814 -0.3698
  185MOL0     C24344  10.828   1.383   9.567 -0.0538 -1.1018  0.2802
  185MOL0     C24345  10.932   1.423   9.651 -0.4351 -0.5825 -0.5393
  185MOL0     O24346  10.964   1.342   9.758  0.1731 -0.0637 -0.0181
  185MOL0     C24347  11.082   1.365   9.836 -1.0795 -0.2437 -0.6336
  185MOL0     C24348  11.134   1.238   9.915  0.5229  0.2211 -0.2498
  185MOL0     C24349  11.018   1.165   9.982  0.7644  0.7252 -0.3399
  185MOL0     C24350  11.064   1.032  10.054  0.1292  1.1013 -1.1798
  185MOL0     C24351  10.963   0.928  10.099 -0.9410  0.1292 -0.6070
  185MOL0     C24352  10.872   0.853  10.139  0.6463 -0.4760  0.2764
  185MOL0     C24353  10.985   1.550   9.636  0.1266  0.2837 -0.0411
  185MOL0     C24354  10.937   1.635   9.550  0.8865  0.1581  0.1035
  185MOL0     H24355  10.879   1.682   9.034 -2.8141 -1.8148  1.9125
  185MOL0     H24356  10.850   1.879   8.851 -1.3674  1.3008 -0.4765
  185MOL0     H24357  10.859   2.160   8.873  0.0866  0.9227  1.1408
  185MOL0     H24358  10.740   2.185   8.997 -0.5632 -2.0198  0.9391
  185MOL0     H24359  10.671   2.258   8.707 -1.2933 -0.7236  0.8309
  185MOL0     H24360  10.782   2.365   8.798 -0.1271 -2.0175  0.0555
  185MOL0     H24361  10.642   2.374   8.977  1.3524  0.3013 -0.5717
  185MOL0     H24362  10.513   2.289   8.882 -1.2979  0.6565 -2.4466
  185MOL0     H24363  10.633   2.563   8.818 -2.1345  2.0761 -3.2053
  185MOL0     H24364  10.529   2.481   8.704 -1.6029  0.4674 -0.2010
  185MOL0     H24365  10.423   2.659   8.864  0.9580 -0.1263  0.3225
  185MOL0     H24366  10.461   2.559   8.996  1.8515 -2.0430  0.3532
  185MOL0     H24367  10.248   2.485   8.983  2.1213  2.9050  1.4458
  185MOL0     H24368  10.295   2.375   8.852 -2.9638 -1.9311  2.5313
  185MOL0     H24369  10.174   2.659   8.824 -3.7290  1.1708 -1.7272
  185MOL0     H24370  10.247   2.551   8.693  1.0451 -0.7364  0.8831
  185MOL0     H24371  10.029   2.488   8.893  1.0641  0.9364 -0.2898
  185MOL0     H24372  10.083   2.378   8.772 -1.4433 -0.3909 -0.6365
  185MOL0     H24373   9.986   2.439   8.504 -0.8785 -0.2797 -1.4570
  185MOL0     H24374   9.807   2.540   8.321 -0.3381 -0.5356  0.4760
  185MOL0     H24375   9.705   2.678   8.382 -0.7228 -0.4220 -0.0035
  185MOL0     H24376   9.615   2.410   8.482 -1.4568  1.8606  1.1360
  185MOL0     H24377   9.623   2.415   8.305  1.8037 -2.6212  1.2818
  185MOL0     H24378   9.505   2.602   8.505  0.0901  1.5147 -0.1366
  185MOL0     H24379   9.461   2.622   8.339 -0.9623 -0.1764  1.1474
  185MOL0     H24380   9.402   2.365   8.495 -0.4255  1.1101  0.7812
  185MOL0     H24381   9.337   2.389   8.338 -1.4102 -0.6629  0.1741
  185MOL0     H24382   9.184   2.217   8.439 -0.1950 -0.3378 -1.4027
  185MOL0     H24383   8.957   2.140   8.450 -0.2591  0.8619  0.9021
  185MOL0     H24384   8.550   2.110   8.703  2.1435  2.0248 -2.4539
  185MOL0     H24385   8.319   2.050   8.688  0.4228 -0.3139 -0.0215
  185MOL0     H24386   8.150   1.934   8.670  1.2300 -2.1164  0.4727
  185MOL0     H24387   8.118   1.784   8.600 -0.6291  1.8384  0.8422
  185MOL0     H24388   7.963   1.943   8.428 -0.7307  0.8549  0.1267
  185MOL0     H24389   7.982   2.060   8.544  0.8782  0.0461  0.2543
  185MOL0     H24390   7.870   1.778   8.607  1.0624  0.1683 -1.7677
  185MOL0     H24391   7.762   1.917   8.576 -0.8117 -1.7431 -0.9798
  185MOL0     H24392   7.952   1.880   8.819 -0.4372 -0.5660  0.3534
  185MOL0     H24393   7.881   2.034   8.772  1.8148  0.6794  0.9113
  185MOL0     H24394   7.655   1.896   8.770 -1.5084 -1.5872  2.0669
  185MOL0     H24395   7.729   1.949   8.921  0.2244 -0.9350  0.5925
  185MOL0     H24396   7.830   1.735   8.954  1.2494 -0.0430 -0.9183
  185MOL0     H24397   7.749   1.683   8.799  0.5569  2.5467 -0.9689
  185MOL0     H24398   7.516   1.719   8.909  1.1562 -2.0221 -2.9192
  185MOL0     H24399   7.625   1.598   8.982  2.8593  0.3584  1.1801
  185MOL0     H24400   7.564   1.871   9.105  1.9729  1.0500  0.7403
  185MOL0     H24401   7.706   1.772   9.158 -0.0478 -0.7945  1.5285
  185MOL0     H24402   8.401   1.890   8.289  1.9838 -1.0996 -0.2848
  185MOL0     H24403   8.612   1.985   8.297 -0.3085 -0.9164  0.3618
  185MOL0     H24404   8.803   2.511   8.563 -0.1103  0.0524  1.2577
  185MOL0     H24405   9.042   2.604   8.559  0.1577  0.8512 -2.2497
  185MOL0     H24406  10.521   2.020   9.029  0.0560 -1.2708 -3.0367
  185MOL0     H24407  10.540   1.851   9.223  1.1940 -1.1557  0.3848
  185MOL0     H24408  10.704   1.424   9.413 -0.8063  0.2412  0.9370
  185MOL0     H24409  10.799   1.279   9.577  1.1598 -1.5915 -1.0088
  185MOL0     H24410  11.081   1.461   9.889  0.4647 -1.1438  1.1303
  185MOL0     H24411  11.160   1.381   9.761  1.0078 -1.5836  1.1278
  185MOL0     H24412  11.172   1.160   9.848 -2.3104 -3.6934  2.2745
  185MOL0     H24413  11.206   1.257   9.995 -0.3218 -0.0119  0.5779
  185MOL0     H24414  10.922   1.153   9.932  0.8005  3.7255 -1.3317
  185MOL0     H24415  10.998   1.231  10.068  2.4649 -1.8599  2.2498
  185MOL0     H24416  11.134   0.986   9.985  0.2709  2.4442 -1.9658
  185MOL0     H24417  11.121   1.065  10.142 -1.6035 -0.4387  0.6284
  185MOL0     H24418  10.792   0.784  10.151  0.2553 -0.3568 -1.3509
  185MOL0     H24419  11.062   1.591   9.701 -1.2091  0.1945  1.6694
  185MOL0     H24420  10.976   1.736   9.548 -2.4713  1.5848 -0.5052
  186MOL0     O24421   6.605   3.363   1.291  0.2926  0.0396 -0.1903
  186MOL0     C24422   6.687   3.281   1.251 -0.8994 -0.4640 -0.1410
  186MOL0     O24423   6.660   3.142   1.225  0.0827 -0.8575  0.4587
  186MOL0     C24424   6.531   3.092   1.227 -0.6119  1.1991  0.3639
  186MOL0     C24425   6.492   2.993   1.139 -0.8410  0.2440 -0.4020
  186MOL0     C24426   6.373   2.914   1.139 -0.4670  0.3893  0.5324
  186MOL0     C24427   6.285   2.956   1.236 -0.0134  0.1570  0.5383
  186MOL0     O24428   6.172   2.879   1.233 -0.4830  0.0195 -0.0195
  186MOL0     C24429   6.042   2.948   1.242 -0.8759  0.1625 -0.0954
  186MOL0     C24430   5.922   2.861   1.216 -0.1454  0.3949  0.8750
  186MOL0     C24431   5.791   2.932   1.237 -0.2560 -0.7365  0.2212
  186MOL0     C24432   5.670   2.833   1.206 -0.2668 -0.5138  1.1311
  186MOL0     C24433   5.542   2.860   1.290 -0.6097 -0.7629  0.1202
  186MOL0     C24434   5.416   2.815   1.227  0.0413 -0.2797  0.1498
  186MOL0     C24435   5.296   2.833   1.322  0.5326  0.3772 -0.1324
  186MOL0     C24436   5.171   2.850   1.240  1.1348 -0.1635 -0.5961
  186MOL0     N24437   5.048   2.824   1.324 -0.3612  0.1821  0.2939
  186MOL0     C24438   5.008   2.883   1.439  0.0842  0.4431 -0.0309
  186MOL0     C24439   4.898   2.803   1.472  0.1098  0.0711  0.3140
  186MOL0     C24440   4.805   2.804   1.601  0.0739 -0.1605  0.4142
  186MOL0     C24441   4.673   2.727   1.569 -0.6167  0.0094 -0.1060
  186MOL0     C24442   4.553   2.750   1.666  0.5288 -0.0925  0.0149
  186MOL0     C24443   4.565   2.639   1.772 -0.1618 -0.1641  0.6065
  186MOL0     O24444   4.541   2.504   1.707 -0.2698 -0.8045  0.0758
  186MOL0     C24445   4.402   2.482   1.690 -0.2152  0.5400  0.1665
  186MOL0     C24446   4.327   2.403   1.785 -0.3443  0.0014 -0.5845
  186MOL0     C24447   4.191   2.398   1.771  0.7709 -1.1114  0.2599
  186MOL0     C24448   4.125   2.458   1.658 -0.6518  0.4881 -0.0221
  186MOL0     C24449   3.982   2.451   1.648 -0.0460 -0.1957  0.4836
  186MOL0     O24450   3.912   2.434   1.761  0.5709  0.1858 -0.2072
  186MOL0     C24451   3.773   2.425   1.762 -0.0872 -0.5259  0.8777
  186MOL0     C24452   3.728   2.309   1.822 -0.2997 -0.0221  0.3652
  186MOL0     C24453   3.589   2.290   1.833 -0.0420 -0.2711 -0.4330
  186MOL0     C24454   3.498   2.394   1.790 -0.1069 -0.4909  0.5954
  186MOL0     O24455   3.366   2.360   1.789  0.3143  0.1751  0.1091
  186MOL0     C24456   3.274   2.462   1.737 -0.6445 -0.3620  0.9468
  186MOL0     C24457   3.128   2.425   1.764 -0.0830  0.6644  0.3019
  186MOL0     C24458   3.028   2.478   1.654  0.3831 -0.0361 -0.1577
  186MOL0     C24459   2.885   2.440   1.692  0.3110 -0.5816 -0.4193
  186MOL0     C24460   2.782   2.508   1.609 -0.1397  0.1633 -0.6399
  186MOL0     C24461   2.642   2.482   1.672  0.1150  0.3480 -0.0690
  186MOL0     C24462   2.547   2.552   1.579  0.4097 -0.1835 -0.8780
  186MOL0     C24463   2.418   2.585   1.653  0.5558 -0.3494  0.6894
  186MOL0    Cl24464   2.297   2.616   1.527 -0.3194 -0.0962  0.3968
  186MOL0     C24465   3.551   2.517   1.737 -0.0155 -0.0620  0.1938
  186MOL0     C24466   3.695   2.527   1.720 -0.7529 -0.8113  0.7429
  186MOL0     O24467   3.931   2.467   1.536 -0.4675  0.1877 -0.5208
  186MOL0     C24468   4.202   2.521   1.564 -0.8200  0.0780 -0.1557
  186MOL0     C24469   4.338   2.526   1.566 -0.1443  0.0983 -0.5053
  186MOL0     N24470   4.877   2.706   1.371  0.5191  0.9667  0.0115
  186MOL0     N24471   4.968   2.724   1.283 -1.0042 -0.2420 -0.2500
  186MOL0     C24472   6.309   3.063   1.315  0.0467  0.1600 -0.5881
  186MOL0     C24473   6.441   3.127   1.318  0.5150  0.4451 -0.2672
  186MOL0     C24474   6.831   3.314   1.253  0.0882 -1.1279 -0.2236
  186MOL0     C24475   6.933   3.232   1.215 -0.4361  0.3626 -0.0594
  186MOL0     C24476   7.064   3.276   1.228 -0.5487  0.1870  0.4029
  186MOL0     C24477   7.091   3.399   1.280 -0.9961  0.3510 -0.3915
  186MOL0     O24478   7.215   3.450   1.297 -0.1687 -0.0234  0.4865
  186MOL0     C24479   7.326   3.363   1.328  0.9765  0.2965 -0.5026
  186MOL0     C24480   7.421   3.410   1.435  0.0434 -0.4446  0.3004
  186MOL0     C24481   7.372   3.494   1.556  0.0777 -0.0435 -1.4101
  186MOL0     C24482   7.272   3.433   1.649 -0.6133  0.2834  0.3300
  186MOL0     C24483   7.196   3.539   1.721 -0.0444  0.3768 -0.0746
  186MOL0     C24484   7.141   3.624   1.787  0.4933  0.0454 -0.6426
  186MOL0     C24485   6.985   3.476   1.321  0.2841 -0.4976 -0.1671
  186MOL0     C24486   6.857   3.440   1.305  0.3575 -0.1230 -0.2509
  186MOL0     H24487   6.566   2.956   1.069 -3.9667 -3.6882 -2.0218
  186MOL0     H24488   6.352   2.830   1.073  2.4205 -0.7040  0.8630
  186MOL0     H24489   6.049   3.035   1.177 -0.8479 -1.6480 -2.6880
  186MOL0     H24490   6.034   2.982   1.346  0.9125  3.6163 -0.9443
  186MOL0     H24491   5.923   2.777   1.286 -0.1891  0.9412  1.5485
  186MOL0     H24492   5.928   2.827   1.112  0.8818  1.4366  0.5657
  186MOL0     H24493   5.795   3.023   1.177  0.3479 -1.0419 -0.2148
  186MOL0     H24494   5.794   2.954   1.344 -0.1942  1.5983 -0.2184
  186MOL0     H24495   5.649   2.827   1.099  2.6390 -2.0685  0.5147
  186MOL0     H24496   5.707   2.731   1.224 -0.5211 -1.1861 -1.7234
  186MOL0     H24497   5.540   2.965   1.320 -2.1123 -1.6527  3.5933
  186MOL0     H24498   5.550   2.814   1.389  1.0527 -2.2113 -0.6129
  186MOL0     H24499   5.431   2.711   1.195 -0.4124 -0.3546  0.1726
  186MOL0     H24500   5.393   2.872   1.137 -0.6021  0.1972  0.6115
  186MOL0     H24501   5.288   2.747   1.389 -0.2468  1.0013  0.5949
  186MOL0     H24502   5.324   2.921   1.380 -1.5816  0.7565  0.4042
  186MOL0     H24503   5.184   2.767   1.170  0.6002 -1.1083  0.3848
  186MOL0     H24504   5.164   2.945   1.187 -0.5482 -0.1939 -0.4886
  186MOL0     H24505   5.056   2.964   1.492  5.0662 -1.5043 -0.9390
  186MOL0     H24506   4.782   2.907   1.627  0.2566  0.1920 -0.7556
  186MOL0     H24507   4.849   2.749   1.685  1.8919 -0.5559 -0.7438
  186MOL0     H24508   4.705   2.622   1.568 -0.2865  0.1110 -0.6400
  186MOL0     H24509   4.638   2.754   1.469 -0.8397 -0.4074 -0.1447
  186MOL0     H24510   4.563   2.848   1.712 -3.2527  0.1606  0.6327
  186MOL0     H24511   4.454   2.736   1.621 -0.3254 -1.3877  2.1111
  186MOL0     H24512   4.488   2.666   1.845  0.8649  0.7978  1.3754
  186MOL0     H24513   4.662   2.642   1.823  0.1892  0.2834 -0.0666
  186MOL0     H24514   4.359   2.360   1.879 -0.1945 -0.8006 -0.9882
  186MOL0     H24515   4.132   2.367   1.857  0.3183  1.8444  1.1526
  186MOL0     H24516   3.807   2.241   1.850  0.8142  0.5785 -1.1718
  186MOL0     H24517   3.553   2.194   1.868 -0.1951 -0.1933 -0.3757
  186MOL0     H24518   3.299   2.496   1.637  2.2447  2.2854  2.4041
  186MOL0     H24519   3.288   2.561   1.781  0.4105  1.5421 -3.2462
  186MOL0     H24520   3.080   2.454   1.858 -1.0948 -0.3050  0.1097
  186MOL0     H24521   3.122   2.316   1.776 -1.1069  0.7363  0.6009
  186MOL0     H24522   3.047   2.427   1.559  2.2856 -0.4237  0.4032
  186MOL0     H24523   3.038   2.587   1.654 -0.0499  0.0170 -1.2227
  186MOL0     H24524   2.880   2.331   1.696  0.9512 -0.5804  1.1554
  186MOL0     H24525   2.867   2.466   1.796 -2.4422 -0.7982 -0.7769
  186MOL0     H24526   2.781   2.471   1.507  0.6172  1.6146 -1.1989
  186MOL0     H24527   2.801   2.616   1.606 -0.1580  0.1372 -2.3773
  186MOL0     H24528   2.629   2.503   1.778 -0.0559 -0.9209  0.1800
  186MOL0     H24529   2.625   2.374   1.663 -1.3968  0.5181  0.4237
  186MOL0     H24530   2.586   2.648   1.547  0.2872 -0.0056 -0.4973
  186MOL0     H24531   2.518   2.487   1.496  1.8615  1.2105 -2.5306
  186MOL0     H24532   2.438   2.670   1.719  2.3336  0.8442 -1.2353
  186MOL0     H24533   2.393   2.494   1.708  0.1551 -1.6078 -1.4232
  186MOL0     H24534   3.485   2.601   1.719 -0.4772  0.0482  2.1893
  186MOL0     H24535   3.750   2.607   1.672 -1.1699 -0.8889  0.1260
  186MOL0     H24536   4.150   2.558   1.476 -2.1488  0.1727  0.6401
  186MOL0     H24537   4.405   2.559   1.487  2.8307  2.5317  2.6982
  186MOL0     H24538   6.232   3.087   1.388 -0.7381 -3.1399 -0.1830
  186MOL0     H24539   6.450   3.204   1.394  0.4255  0.8831 -0.6909
  186MOL0     H24540   6.913   3.138   1.166  1.2520 -0.0358 -0.0632
  186MOL0     H24541   7.149   3.214   1.202 -2.4239 -0.9395 -3.9519
  186MOL0     H24542   7.391   3.343   1.243  1.8634 -2.4281  0.7192
  186MOL0     H24543   7.275   3.275   1.368 -1.6019  1.2701 -1.4320
  186MOL0     H24544   7.473   3.322   1.474 -0.2289 -2.0272 -2.5656
  186MOL0     H24545   7.489   3.471   1.375 -3.1795  3.6064  0.3556
  186MOL0     H24546   7.323   3.582   1.513 -1.6390  1.1960  2.6425
  186MOL0     H24547   7.458   3.519   1.619 -1.6739  1.4825  0.4983
  186MOL0     H24548   7.198   3.372   1.596 -0.8556  0.3409  0.6022
  186MOL0     H24549   7.315   3.367   1.725 -2.0503 -0.0427  0.8832
  186MOL0     H24550   7.083   3.697   1.840 -3.0409 -3.4684  0.8378
  186MOL0     H24551   7.005   3.577   1.356  0.0925 -1.4730  3.0974
  186MOL0     H24552   6.782   3.501   1.354  2.1527  2.2044 -0.2496
  187MOL0     O24553   5.507   2.772   9.956 -0.0399 -0.5412 -0.1095
  187MOL0     C24554   5.527   2.844   9.854 -1.2753  0.8094  0.5509
  187MOL0     O24555   5.456   2.840   9.732  0.0386  0.6438 -0.4195
  187MOL0     C24556   5.354   2.743   9.722  0.2164 -0.4518 -0.3520
  187MOL0     C24557   5.239   2.785   9.650 -0.7491 -0.1797 -0.8620
  187MOL0     C24558   5.122   2.707   9.635  0.5132 -0.6053  0.2504
  187MOL0     C24559   5.113   2.578   9.674 -1.0028  0.0814 -0.5592
  187MOL0     O24560   5.011   2.490   9.657  0.0615 -0.4824 -0.2909
  187MOL0     C24561   4.877   2.544   9.668  0.8686 -0.0374 -0.1141
  187MOL0     C24562   4.777   2.424   9.652  0.3937 -0.0482  0.6536
  187MOL0     C24563   4.628   2.465   9.630 -0.4091  0.2890 -0.4155
  187MOL0     C24564   4.599   2.568   9.515  0.1851  0.0277 -0.0337
  187MOL0     C24565   4.625   2.524   9.368 -0.1453 -0.1993 -0.4854
  187MOL0     C24566   4.536   2.409   9.332 -0.3732  0.7869 -0.6406
  187MOL0     C24567   4.553   2.381   9.178 -0.1947 -0.8880 -0.7915
  187MOL0     C24568   4.691   2.343   9.135  0.7914  0.3662 -0.6857
  187MOL0     N24569   4.681   2.310   8.989 -0.8359  0.8078 -0.5234
  187MOL0     C24570   4.607   2.385   8.896 -1.1890  0.4638 -0.2164
  187MOL0     C24571   4.612   2.311   8.787  0.7828 -1.3545  0.8682
  187MOL0     C24572   4.527   2.369   8.673 -0.1065  0.4710  0.3555
  187MOL0     C24573   4.418   2.276   8.617 -0.2547  0.1889  0.6480
  187MOL0     C24574   4.360   2.334   8.481 -0.5220 -0.5121  0.7630
  187MOL0     C24575   4.279   2.456   8.498  0.0744  0.0866 -0.6279
  187MOL0     O24576   4.186   2.470   8.384  0.5666  0.6617 -0.5416
  187MOL0     C24577   4.084   2.561   8.390  0.1336 -0.9730 -0.0916
  187MOL0     C24578   4.052   2.634   8.504  0.6052 -0.1839 -0.0205
  187MOL0     C24579   3.937   2.720   8.508 -0.3040  1.2780 -0.7157
  187MOL0     C24580   3.857   2.731   8.393 -0.1073  0.4014  0.3631
  187MOL0     C24581   3.733   2.808   8.406 -0.3546 -0.0385 -0.0050
  187MOL0     O24582   3.638   2.790   8.306 -0.3196 -0.0053 -0.4374
  187MOL0     C24583   3.554   2.905   8.304  0.1564 -0.1878 -0.3735
  187MOL0     C24584   3.572   3.003   8.210 -0.7636  0.5157  0.7105
  187MOL0     C24585   3.479   3.111   8.197  0.0970 -0.2069 -0.3559
  187MOL0     C24586   3.371   3.121   8.282 -0.3763 -0.3678 -0.4170
  187MOL0     O24587   3.275   3.221   8.271  0.2571  1.0485 -0.1518
  187MOL0     C24588   3.290   3.337   8.199  1.3454  0.1774 -0.3410
  187MOL0     C24589   3.166   3.360   8.109 -0.3329  0.5046 -0.4210
  187MOL0     C24590   3.171   3.495   8.041  0.8434 -0.0994  0.0144
  187MOL0     C24591   3.053   3.518   7.936  0.1394 -0.6092 -0.6078
  187MOL0     C24592   3.072   3.644   7.850 -0.2883  0.6478  0.7151
  187MOL0     C24593   2.952   3.680   7.765  0.2172  0.7657  0.3674
  187MOL0     C24594   2.892   3.565   7.685  0.0890  0.3993 -0.7037
  187MOL0     C24595   2.755   3.596   7.635  0.2852  0.0941 -0.5594
  187MOL0    Cl24596   2.637   3.643   7.763  0.3423  0.0675 -0.4515
  187MOL0     C24597   3.346   3.018   8.368  0.7684 -0.7441  0.0570
  187MOL0     C24598   3.442   2.914   8.383  0.0299 -0.0191  0.6975
  187MOL0     O24599   3.720   2.886   8.500 -0.1242  0.5633  0.1543
  187MOL0     C24600   3.901   2.670   8.275 -0.8073  0.3333  0.8974
  187MOL0     C24601   4.004   2.574   8.279 -0.9464 -0.2017  0.1276
  187MOL0     N24602   4.678   2.193   8.809 -0.6008 -0.3673  0.2037
  187MOL0     N24603   4.727   2.199   8.925  0.9337  0.1459  0.1990
  187MOL0     C24604   5.222   2.526   9.752  0.4898  0.0150  0.3607
  187MOL0     C24605   5.340   2.610   9.777 -0.3047  0.1057 -0.1443
  187MOL0     C24606   5.640   2.935   9.858  0.5960 -0.0106  0.3925
  187MOL0     C24607   5.704   2.987   9.974 -0.6107 -0.6468 -0.2143
  187MOL0     C24608   5.813   3.074   9.978  0.7623  0.5302  0.4787
  187MOL0     C24609   5.849   3.129   9.857 -1.1314  0.0350 -0.0127
  187MOL0     O24610   5.930   3.242   9.848 -0.0970 -0.4399  0.2055
  187MOL0     C24611   6.007   3.288   9.963 -0.0129 -0.3263 -0.0134
  187MOL0     C24612   6.123   3.196   9.970  0.0886  0.5660  0.7134
  187MOL0     C24613   6.180   3.183   9.825 -0.3359  0.4854 -0.6587
  187MOL0     C24614   6.322   3.156   9.809  0.0329 -0.1043 -0.0442
  187MOL0     C24615   6.359   3.151   9.673 -0.4982  0.6575  0.5292
  187MOL0     C24616   6.386   3.131   9.555 -0.6542 -0.3671 -0.5328
  187MOL0     C24617   5.791   3.088   9.737 -0.2332  0.0577 -0.0948
  187MOL0     C24618   5.689   2.988   9.740  0.2290 -0.3598  0.6033
  187MOL0     H24619   5.257   2.886   9.614  0.3128 -1.0662 -2.9939
  187MOL0     H24620   5.043   2.749   9.574  1.4680  3.0630  1.3069
  187MOL0     H24621   4.836   2.619   9.599 -0.7819 -1.2115 -0.4822
  187MOL0     H24622   4.866   2.592   9.765  0.8763  1.3189 -0.7639
  187MOL0     H24623   4.783   2.368   9.746  0.4317 -1.4096 -0.1355
  187MOL0     H24624   4.801   2.365   9.564 -1.3584 -0.0702  0.1569
  187MOL0     H24625   4.613   2.523   9.721 -0.4521  0.8423 -0.7666
  187MOL0     H24626   4.567   2.376   9.616 -0.5598  0.0876  1.3865
  187MOL0     H24627   4.497   2.603   9.532 -0.4546 -0.7669 -1.9379
  187MOL0     H24628   4.666   2.653   9.526  2.3082 -1.2803 -1.9999
  187MOL0     H24629   4.730   2.495   9.360 -0.1071 -0.1427 -0.2328
  187MOL0     H24630   4.612   2.609   9.301 -0.1379  1.0037  0.9798
  187MOL0     H24631   4.439   2.456   9.352 -0.8764  0.4960 -2.2278
  187MOL0     H24632   4.561   2.326   9.399  1.0239  0.7118 -1.2408
  187MOL0     H24633   4.486   2.305   9.136 -1.6582  0.7258 -1.4964
  187MOL0     H24634   4.531   2.470   9.119  3.1672  0.5306 -0.1532
  187MOL0     H24635   4.718   2.261   9.202 -0.6234  1.5633  1.4497
  187MOL0     H24636   4.765   2.422   9.151 -0.4853  1.2742  1.0953
  187MOL0     H24637   4.564   2.483   8.907 -2.3944  0.3363 -2.9928
  187MOL0     H24638   4.602   2.378   8.594  0.4834  2.5752  1.1114
  187MOL0     H24639   4.476   2.461   8.703  0.1347  0.7962 -0.2216
  187MOL0     H24640   4.342   2.277   8.696  0.3913  3.0118  1.3414
  187MOL0     H24641   4.459   2.176   8.602 -1.2013  0.0279 -1.0700
  187MOL0     H24642   4.451   2.361   8.426 -0.9482  1.1272  0.8147
  187MOL0     H24643   4.298   2.250   8.447  0.1849 -1.7778  2.4441
  187MOL0     H24644   4.345   2.542   8.488 -0.2394  0.6060  1.2575
  187MOL0     H24645   4.232   2.468   8.597  1.9943 -1.3581  0.5122
  187MOL0     H24646   4.094   2.631   8.604 -1.2458  0.1690  0.8145
  187MOL0     H24647   3.926   2.795   8.585  1.8608 -0.0344  0.9994
  187MOL0     H24648   3.660   2.997   8.146 -0.6927  0.4607  0.8124
  187MOL0     H24649   3.509   3.188   8.128 -0.1023  0.2536  0.0616
  187MOL0     H24650   3.374   3.343   8.130  2.1724  0.1942  0.6389
  187MOL0     H24651   3.295   3.419   8.271 -1.4727 -0.7181  1.0226
  187MOL0     H24652   3.069   3.331   8.150 -0.7168  1.7031 -0.4264
  187MOL0     H24653   3.181   3.284   8.032  0.4215 -2.0687  2.0918
  187MOL0     H24654   3.270   3.500   7.996  2.1025 -2.9207  2.1421
  187MOL0     H24655   3.178   3.572   8.119 -0.8388 -0.6980  0.8096
  187MOL0     H24656   3.058   3.433   7.868  2.7105 -2.2764  1.4597
  187MOL0     H24657   2.956   3.516   7.986 -0.5765  2.8850 -1.5754
  187MOL0     H24658   3.168   3.626   7.801  1.0133 -0.3609  3.4423
  187MOL0     H24659   3.087   3.735   7.910 -1.2684 -0.7821  3.2993
  187MOL0     H24660   2.971   3.773   7.711  2.4458 -0.8258 -1.7922
  187MOL0     H24661   2.870   3.703   7.834  0.1170  2.1927 -0.2054
  187MOL0     H24662   2.963   3.541   7.605  0.9051  4.6405 -1.5210
  187MOL0     H24663   2.882   3.482   7.755 -0.2348  1.1444  0.1414
  187MOL0     H24664   2.713   3.509   7.585 -0.5639  0.5514 -0.6736
  187MOL0     H24665   2.767   3.676   7.561  0.3805  0.8475  0.2469
  187MOL0     H24666   3.253   3.015   8.424  0.4581  2.7185 -0.0082
  187MOL0     H24667   3.422   2.831   8.450 -2.9972  0.5027  0.6011
  187MOL0     H24668   3.859   2.672   8.174  0.2934  2.1853  0.4351
  187MOL0     H24669   4.031   2.515   8.192 -2.9010 -2.4294  0.9320
  187MOL0     H24670   5.218   2.428   9.798 -1.0668 -0.3153 -0.4007
  187MOL0     H24671   5.421   2.563   9.833 -1.2660 -1.9150 -0.3588
  187MOL0     H24672   5.665   2.950  10.068  1.1197  0.5513  1.0290
  187MOL0     H24673   5.859   3.094  10.074 -0.9229  2.6840  0.9092
  187MOL0     H24674   5.945   3.293  10.053 -0.4030  0.8298 -0.3258
  187MOL0     H24675   6.029   3.394   9.943 -0.8805  0.2525  1.8605
  187MOL0     H24676   6.200   3.245  10.030 -2.1391  5.4706  0.0076
  187MOL0     H24677   6.107   3.093  10.003  1.6359  0.9295  2.8201
  187MOL0     H24678   6.163   3.278   9.773  0.3666  0.2669 -1.2890
  187MOL0     H24679   6.127   3.098   9.781 -1.7972 -0.2142  2.2042
  187MOL0     H24680   6.394   3.225   9.853 -0.6842  1.7206 -1.5358
  187MOL0     H24681   6.342   3.063   9.863  1.8851 -0.1170 -0.6782
  187MOL0     H24682   6.421   3.121   9.454  0.4002  0.1532 -0.2311
  187MOL0     H24683   5.817   3.104   9.633  2.1997 -1.4671  0.1838
  187MOL0     H24684   5.644   2.971   9.643  2.5292 -0.0434 -0.5864
  188MOL0     O24685   2.805   2.564   2.847 -0.0995  0.2226 -0.3909
  188MOL0     C24686   2.790   2.501   2.952  1.0581  1.3569  0.0173
  188MOL0     O24687   2.883   2.422   3.011 -0.0076  0.0231  0.3463
  188MOL0     C24688   3.003   2.407   2.937 -0.3881  0.3967  0.0571
  188MOL0     C24689   3.007   2.333   2.818 -0.2599 -0.6739 -0.6390
  188MOL0     C24690   3.114   2.326   2.739 -0.8454 -0.5063 -0.5345
  188MOL0     C24691   3.232   2.397   2.765 -0.3101 -0.4221  0.2796
  188MOL0     O24692   3.346   2.401   2.699 -0.0841 -0.8966  0.5245
  188MOL0     C24693   3.348   2.349   2.566  0.0192  0.2080  0.0679
  188MOL0     C24694   3.481   2.372   2.495  0.0924  0.7255 -0.8107
  188MOL0     C24695   3.598   2.274   2.535 -0.4029  0.1446  0.8329
  188MOL0     C24696   3.713   2.290   2.438 -0.1050  0.2297 -0.3245
  188MOL0     C24697   3.819   2.188   2.460  0.7913  1.3529 -0.1600
  188MOL0     C24698   3.940   2.217   2.368 -0.1880  0.3832 -0.2826
  188MOL0     C24699   4.040   2.110   2.395  0.1307 -0.2261 -0.1210
  188MOL0     C24700   4.157   2.126   2.289 -0.1668 -1.0484  0.4042
  188MOL0     N24701   4.111   2.101   2.150  0.5699 -0.3896  0.3611
  188MOL0     C24702   4.060   1.983   2.102  0.6293 -0.3868  0.1222
  188MOL0     C24703   4.023   2.001   1.976 -0.3706 -0.0504  0.5072
  188MOL0     C24704   3.951   1.904   1.882  0.8888  0.5105 -0.0508
  188MOL0     C24705   3.821   1.967   1.838 -0.5462  0.3028  0.3333
  188MOL0     C24706   3.722   1.864   1.786  0.4590 -0.3143 -0.3902
  188MOL0     C24707   3.615   1.929   1.714 -0.8705  0.9131 -0.1554
  188MOL0     O24708   3.520   1.829   1.680  0.2561  0.5463  0.2501
  188MOL0     C24709   3.384   1.864   1.674  0.3539  0.3065  0.2332
  188MOL0     C24710   3.288   1.763   1.680  0.3971 -0.4784 -0.4613
  188MOL0     C24711   3.150   1.799   1.651  0.1832  1.3170 -0.1189
  188MOL0     C24712   3.102   1.925   1.623 -0.7715 -0.0142 -0.6589
  188MOL0     C24713   2.959   1.953   1.609  0.7270  0.2867  0.1612
  188MOL0     O24714   2.899   2.086   1.607 -0.7695 -0.1676  0.3115
  188MOL0     C24715   2.770   2.088   1.633 -0.2022 -0.5509 -0.2396
  188MOL0     C24716   2.685   2.094   1.521  1.0366  0.4826  0.2569
  188MOL0     C24717   2.546   2.119   1.547  0.5384  0.1760  0.2659
  188MOL0     C24718   2.494   2.131   1.677  0.0452 -0.5806  0.4112
  188MOL0     O24719   2.352   2.157   1.685 -0.0112 -0.5092 -0.1556
  188MOL0     C24720   2.288   2.186   1.808 -0.2257 -0.4561  0.7150
  188MOL0     C24721   2.253   2.061   1.882 -0.2698 -0.3767 -0.0147
  188MOL0     C24722   2.170   1.961   1.802  0.3054 -0.3145  0.5072
  188MOL0     C24723   2.102   1.853   1.887  0.0515 -0.0657  0.3109
  188MOL0     C24724   2.009   1.748   1.816 -0.7680  0.7148 -1.7252
  188MOL0     C24725   1.855   1.771   1.832  0.0179  0.0192  0.3901
  188MOL0     C24726   1.833   1.911   1.770 -0.2129 -0.6810  0.3734
  188MOL0     C24727   1.854   1.906   1.617  0.1219  0.4364 -0.2919
  188MOL0    Cl24728   1.746   1.783   1.527 -0.7740  0.6619 -0.1789
  188MOL0     C24729   2.585   2.122   1.784 -0.0782  0.7413 -0.6335
  188MOL0     C24730   2.719   2.091   1.767 -0.6607 -0.2466 -0.3321
  188MOL0     O24731   2.890   1.849   1.578  0.1618  0.6073  0.4569
  188MOL0     C24732   3.202   2.026   1.619 -0.8601 -0.2099  0.5173
  188MOL0     C24733   3.339   1.990   1.639 -0.2899 -0.5205 -0.1590
  188MOL0     N24734   4.065   2.138   1.939  0.2917  0.2696 -0.0846
  188MOL0     N24735   4.107   2.195   2.050  0.0029  0.4400 -0.1925
  188MOL0     C24736   3.238   2.465   2.885  0.3567  0.5464  0.0495
  188MOL0     C24737   3.123   2.468   2.969 -0.3967  0.1940 -0.6478
  188MOL0     C24738   2.661   2.497   3.031 -0.3203 -0.5472 -0.8687
  188MOL0     C24739   2.658   2.464   3.163  0.1216 -0.2585 -0.9157
  188MOL0     C24740   2.532   2.465   3.233 -0.6175 -0.3878 -0.8544
  188MOL0     C24741   2.412   2.496   3.171 -0.2886  0.2894  0.4599
  188MOL0     O24742   2.292   2.492   3.240 -0.7086 -0.5520  0.6243
  188MOL0     C24743   2.284   2.447   3.377  0.0894  0.0679  0.1101
  188MOL0     C24744   2.139   2.404   3.414  0.4828  0.4054 -0.0393
  188MOL0     C24745   2.031   2.508   3.426  0.2396 -0.4502 -0.4191
  188MOL0     C24746   1.898   2.452   3.456 -0.3017 -0.1582 -0.1942
  188MOL0     C24747   1.853   2.366   3.343  0.0059  0.0270 -0.9422
  188MOL0     C24748   1.810   2.289   3.263 -0.0877 -0.0668  0.0276
  188MOL0     C24749   2.419   2.538   3.034  0.1524 -0.1423  0.0844
  188MOL0     C24750   2.541   2.529   2.968 -0.6883 -0.3802  0.1282
  188MOL0     H24751   2.923   2.289   2.765 -1.7322  0.7109  0.4214
  188MOL0     H24752   3.113   2.261   2.652 -1.2693 -2.7198  1.0518
  188MOL0     H24753   3.267   2.401   2.513  0.6605 -0.1991 -1.3500
  188MOL0     H24754   3.335   2.241   2.571 -0.2523  0.2970  2.7283
  188MOL0     H24755   3.517   2.475   2.494 -0.8266  1.0867 -3.2354
  188MOL0     H24756   3.467   2.358   2.388 -1.4766 -2.5643 -0.3132
  188MOL0     H24757   3.552   2.176   2.540  1.7034 -0.8595  1.8352
  188MOL0     H24758   3.635   2.296   2.636  1.4297  3.0210 -0.3065
  188MOL0     H24759   3.672   2.287   2.336  2.7853  2.3428 -1.6817
  188MOL0     H24760   3.757   2.389   2.442 -2.3753  1.2825  0.1917
  188MOL0     H24761   3.767   2.093   2.443  0.4614  1.1721  1.6665
  188MOL0     H24762   3.863   2.186   2.560  0.2709 -1.8242  0.1374
  188MOL0     H24763   3.968   2.317   2.401  1.1891 -1.1143  3.6009
  188MOL0     H24764   3.919   2.194   2.263  1.5092  0.9879 -0.7828
  188MOL0     H24765   4.103   2.115   2.484  0.9129 -0.8673 -0.6251
  188MOL0     H24766   3.999   2.008   2.393  0.7930 -0.7094  3.5128
  188MOL0     H24767   4.235   2.054   2.315  0.9024  0.7079  2.3471
  188MOL0     H24768   4.207   2.223   2.299  0.1106 -0.7479 -2.8579
  188MOL0     H24769   4.046   1.893   2.161  1.5320 -0.0510  0.8782
  188MOL0     H24770   3.929   1.813   1.938  3.9419  0.2776  0.9333
  188MOL0     H24771   4.013   1.870   1.798  3.2084  1.8283  1.0505
  188MOL0     H24772   3.841   2.041   1.760  0.1678  3.3922  3.2039
  188MOL0     H24773   3.773   2.012   1.926  2.3310  1.3765  1.4993
  188MOL0     H24774   3.777   1.787   1.730 -1.7519 -2.9233  0.7883
  188MOL0     H24775   3.668   1.809   1.863  0.5962 -1.4263 -1.0618
  188MOL0     H24776   3.669   1.971   1.629 -0.5135  1.1336  0.1819
  188MOL0     H24777   3.570   2.010   1.772  0.6455  1.4365  0.3133
  188MOL0     H24778   3.307   1.659   1.704 -2.3349 -0.7073  1.1776
  188MOL0     H24779   3.082   1.715   1.655  2.0663 -0.2756  0.0130
  188MOL0     H24780   2.718   2.092   1.418  1.1013 -0.9951  0.2902
  188MOL0     H24781   2.474   2.141   1.468  0.9619 -0.3943 -0.2927
  188MOL0     H24782   2.193   2.234   1.783 -0.6026 -1.0342  1.0278
  188MOL0     H24783   2.342   2.256   1.873  0.1735  2.2555 -2.2644
  188MOL0     H24784   2.188   2.088   1.966  0.3423 -3.0819  1.4483
  188MOL0     H24785   2.333   2.007   1.933 -0.0866 -0.0131  0.0788
  188MOL0     H24786   2.240   1.900   1.744  0.8716  0.6762  0.1321
  188MOL0     H24787   2.109   2.018   1.732  2.6299  0.3364 -1.0718
  188MOL0     H24788   2.183   1.809   1.946 -0.6386 -0.4359  1.0211
  188MOL0     H24789   2.045   1.895   1.971 -0.2305  0.8658 -0.3313
  188MOL0     H24790   2.032   1.653   1.864 -1.1843  0.2077 -2.5204
  188MOL0     H24791   2.048   1.751   1.714  0.5797 -0.5701 -1.2741
  188MOL0     H24792   1.813   1.762   1.933 -0.6753  0.7770  0.1793
  188MOL0     H24793   1.799   1.701   1.769  1.8883  0.3346 -1.7432
  188MOL0     H24794   1.727   1.929   1.790 -1.0188 -2.1161 -2.0333
  188MOL0     H24795   1.896   1.987   1.815  0.4785 -0.1292 -1.4269
  188MOL0     H24796   1.958   1.877   1.601 -0.0495 -1.0113  0.9160
  188MOL0     H24797   1.838   2.006   1.577 -1.2151  0.7572  0.9386
  188MOL0     H24798   2.545   2.125   1.884  1.6589  1.8894  0.0763
  188MOL0     H24799   2.788   2.108   1.849  0.2633 -2.7820 -0.4776
  188MOL0     H24800   3.171   2.128   1.605  1.1503  0.3279 -0.4840
  188MOL0     H24801   3.419   2.063   1.633 -0.1904 -0.7131 -1.2918
  188MOL0     H24802   3.325   2.523   2.915  0.1285  2.2107 -2.2356
  188MOL0     H24803   3.127   2.508   3.069  0.0909 -2.0798  0.3007
  188MOL0     H24804   2.742   2.438   3.227 -1.3801 -1.4407  0.6861
  188MOL0     H24805   2.545   2.454   3.340 -1.3566  0.3584 -0.6790
  188MOL0     H24806   2.304   2.537   3.437 -0.2334  0.3707 -0.2320
  188MOL0     H24807   2.353   2.369   3.411 -0.9468 -0.4169  1.1615
  188MOL0     H24808   2.117   2.337   3.331 -1.8632 -0.3256  1.0773
  188MOL0     H24809   2.128   2.358   3.513  0.4880  1.7050  0.5938
  188MOL0     H24810   2.011   2.551   3.328  0.0848 -0.5235 -0.4197
  188MOL0     H24811   2.059   2.596   3.485 -0.4908  0.3543 -1.2487
  188MOL0     H24812   1.912   2.378   3.535 -2.0573 -0.8164 -0.4415
  188MOL0     H24813   1.816   2.519   3.483 -1.2952 -0.5007 -2.1452
  188MOL0     H24814   1.769   2.211   3.202 -0.5608 -1.7105  2.3104
  188MOL0     H24815   2.335   2.556   2.968  0.8277  1.4656 -0.3989
  188MOL0     H24816   2.556   2.540   2.861  1.0421 -1.4210  0.2245
  189MOL0     O24817   5.375   9.333   7.940  0.3428 -1.4324  0.8779
  189MOL0     C24818   5.356   9.400   7.838 -0.1314 -0.9798 -0.4688
  189MOL0     O24819   5.454   9.454   7.758 -0.4923  0.1966 -0.2320
  189MOL0     C24820   5.588   9.428   7.782  0.1167 -0.5315  0.6231
  189MOL0     C24821   5.673   9.407   7.673 -1.1390 -0.6039 -0.0209
  189MOL0     C24822   5.808   9.386   7.678 -0.1306  0.1236  0.1855
  189MOL0     C24823   5.875   9.395   7.805 -0.1910  0.0811 -0.5647
  189MOL0     O24824   6.008   9.374   7.831 -0.3283 -1.0447  0.3042
  189MOL0     C24825   6.080   9.330   7.716 -0.5935 -0.6716 -0.7624
  189MOL0     C24826   6.237   9.322   7.743  1.1244 -0.1810  0.6426
  189MOL0     C24827   6.267   9.229   7.851  0.4366 -0.1415  0.3354
  189MOL0     C24828   6.418   9.193   7.827  0.6581 -1.1282 -0.2800
  189MOL0     C24829   6.473   9.110   7.937 -0.9756  0.2147 -0.3389
  189MOL0     C24830   6.420   8.965   7.939  0.1231  0.5583  0.3574
  189MOL0     C24831   6.443   8.897   8.072  0.1041  0.6731 -0.4744
  189MOL0     C24832   6.374   8.759   8.075  0.1832 -0.2847 -0.1675
  189MOL0     N24833   6.230   8.774   8.074  0.3132  0.4435  0.1052
  189MOL0     C24834   6.126   8.695   8.018  0.4814 -0.0180 -0.1989
  189MOL0     C24835   6.011   8.750   8.076 -0.3994  0.8848  0.8186
  189MOL0     C24836   5.871   8.700   8.042  0.5753 -0.0639 -0.1196
  189MOL0     C24837   5.766   8.795   8.111 -0.5769  0.8660  0.3866
  189MOL0     C24838   5.618   8.758   8.091 -0.0758  0.3751 -0.3133
  189MOL0     C24839   5.566   8.761   7.948  0.6213 -0.9213 -0.6127
  189MOL0     O24840   5.428   8.726   7.940  0.2181  0.9520 -0.3807
  189MOL0     C24841   5.333   8.815   7.991 -0.4674  0.5083 -0.5617
  189MOL0     C24842   5.358   8.936   8.045 -0.2595 -0.1162  0.2847
  189MOL0     C24843   5.251   9.023   8.082 -0.3077  0.1228  0.4853
  189MOL0     C24844   5.120   8.978   8.062 -0.8691  0.6409 -0.1324
  189MOL0     C24845   5.007   9.063   8.098 -1.3442 -0.5934  0.3794
  189MOL0     O24846   4.896   8.990   8.118  0.5623 -0.8745  0.0167
  189MOL0     C24847   4.776   9.040   8.096 -0.2222 -0.4690  0.0335
  189MOL0     C24848   4.758   9.144   8.003  0.1347  0.6831 -1.1134
  189MOL0     C24849   4.630   9.184   7.967 -0.2073  0.8997 -0.2264
  189MOL0     C24850   4.519   9.134   8.027 -0.2843 -0.7899 -1.1143
  189MOL0     O24851   4.392   9.176   7.984  0.1169  0.5600  0.8407
  189MOL0     C24852   4.333   9.273   8.065 -0.2078  0.1151 -0.3427
  189MOL0     C24853   4.195   9.302   7.995  0.2281  0.1197 -0.2531
  189MOL0     C24854   4.083   9.208   8.021  0.6598 -0.2939  0.1654
  189MOL0     C24855   4.101   9.073   7.941 -0.0299 -0.4236 -0.4562
  189MOL0     C24856   3.999   8.960   7.970 -0.2367  0.0392  0.8861
  189MOL0     C24857   4.044   8.869   8.085 -0.5034 -0.2170  0.1975
  189MOL0     C24858   3.915   8.798   8.130 -0.4067  0.0299 -0.9651
  189MOL0     C24859   3.936   8.684   8.232  0.0900  0.3711  0.3174
  189MOL0    Cl24860   3.785   8.591   8.267  0.3996  0.2380 -0.0921
  189MOL0     C24861   4.530   9.046   8.129 -0.7840 -0.7813 -0.5261
  189MOL0     C24862   4.661   8.990   8.161 -0.2298 -0.1236  0.4786
  189MOL0     O24863   5.025   9.182   8.101  0.0877 -0.6059  0.0386
  189MOL0     C24864   5.095   8.849   8.009 -0.0269  0.4627  0.9625
  189MOL0     C24865   5.204   8.771   7.970 -0.1720 -0.4147  0.3541
  189MOL0     N24866   6.050   8.853   8.159 -1.0766  0.0651 -0.3521
  189MOL0     N24867   6.174   8.868   8.157 -0.2045  0.0476 -0.1475
  189MOL0     C24868   5.790   9.423   7.922  0.8627  0.1863 -0.4780
  189MOL0     C24869   5.645   9.440   7.911  0.2012 -0.7305  0.0727
  189MOL0     C24870   5.217   9.442   7.791  0.3164 -0.1083 -0.2699
  189MOL0     C24871   5.185   9.490   7.664 -0.9791  0.2692 -0.1912
  189MOL0     C24872   5.055   9.523   7.623 -0.4934 -0.2024 -0.5185
  189MOL0     C24873   4.953   9.526   7.723 -0.5399  0.2754 -0.1588
  189MOL0     O24874   4.822   9.581   7.704  0.2626  0.3470 -0.3121
  189MOL0     C24875   4.777   9.603   7.571  0.4934  0.4042  0.2238
  189MOL0     C24876   4.628   9.643   7.584  0.6570 -0.6385  0.1590
  189MOL0     C24877   4.552   9.665   7.450 -0.3602 -0.3785 -0.1473
  189MOL0     C24878   4.399   9.652   7.466 -0.2456  0.1085 -0.2236
  189MOL0     C24879   4.324   9.686   7.347 -0.1024  0.2860  1.0621
  189MOL0     C24880   4.247   9.713   7.254 -0.7816 -0.5488 -0.7328
  189MOL0     C24881   4.982   9.479   7.851  0.5627 -0.2547 -0.2490
  189MOL0     C24882   5.111   9.434   7.888 -1.0007 -0.2062 -0.2182
  189MOL0     H24883   5.633   9.404   7.572  0.1846  3.2888 -0.8634
  189MOL0     H24884   5.858   9.349   7.589  0.6416 -2.0868  1.4237
  189MOL0     H24885   6.064   9.386   7.624 -1.7921 -1.0323 -0.7900
  189MOL0     H24886   6.049   9.229   7.687 -4.0593  0.0752 -0.1811
  189MOL0     H24887   6.273   9.422   7.766 -0.1905  0.2031  1.1025
  189MOL0     H24888   6.273   9.279   7.649 -1.2203 -2.0483  0.5144
  189MOL0     H24889   6.212   9.135   7.840  1.4877 -0.6180 -1.1067
  189MOL0     H24890   6.253   9.268   7.953  0.3683 -0.2994  0.3858
  189MOL0     H24891   6.438   9.141   7.733  1.5814  0.3280 -0.9393
  189MOL0     H24892   6.476   9.285   7.821  3.5766 -2.5775  2.8931
  189MOL0     H24893   6.468   9.156   8.036 -0.2873  0.6052 -0.4741
  189MOL0     H24894   6.579   9.098   7.912 -0.8417 -0.5497  0.5148
  189MOL0     H24895   6.464   8.905   7.858  0.6417  1.0158  0.2937
  189MOL0     H24896   6.315   8.954   7.912  0.0469  0.9016  0.5138
  189MOL0     H24897   6.550   8.898   8.094 -0.3042 -0.8893  1.8989
  189MOL0     H24898   6.411   8.962   8.154 -0.4688  0.9563 -0.9151
  189MOL0     H24899   6.396   8.707   8.169 -0.5522  0.9486  0.7141
  189MOL0     H24900   6.398   8.699   7.987 -2.7696  3.2183 -3.7850
  189MOL0     H24901   6.139   8.611   7.949  0.5210 -1.6660  1.7277
  189MOL0     H24902   5.842   8.603   8.084 -0.8468 -0.1198 -1.1447
  189MOL0     H24903   5.848   8.707   7.935 -0.5676  1.4067  0.1883
  189MOL0     H24904   5.773   8.898   8.076 -2.6226 -0.0726 -3.3348
  189MOL0     H24905   5.795   8.780   8.215  2.2019  0.1555 -0.3879
  189MOL0     H24906   5.605   8.655   8.125  3.7591 -0.8351 -2.0734
  189MOL0     H24907   5.553   8.817   8.157 -2.0959 -1.8023 -0.2042
  189MOL0     H24908   5.626   8.692   7.888  2.5062  0.9064 -0.9721
  189MOL0     H24909   5.582   8.860   7.903  0.8861 -0.6828 -0.0088
  189MOL0     H24910   5.457   8.978   8.063 -0.7868  2.0949 -1.4742
  189MOL0     H24911   5.261   9.122   8.126 -0.5784  0.0541  0.7041
  189MOL0     H24912   4.840   9.180   7.942  3.3370  0.2687  2.6289
  189MOL0     H24913   4.629   9.261   7.891 -2.1363  2.2816  1.0994
  189MOL0     H24914   4.399   9.360   8.055  3.3311 -2.5412 -2.6358
  189MOL0     H24915   4.322   9.247   8.171  0.6043 -2.0779 -0.7470
  189MOL0     H24916   4.217   9.300   7.888  0.3584 -1.4574 -0.2136
  189MOL0     H24917   4.169   9.404   8.027  1.2896  1.4048 -3.1281
  189MOL0     H24918   3.988   9.252   7.990  1.3840 -0.1520 -2.0862
  189MOL0     H24919   4.068   9.188   8.127 -1.6778  3.1039  0.6427
  189MOL0     H24920   4.105   9.100   7.835  0.8730  2.1490  0.1577
  189MOL0     H24921   4.201   9.036   7.966  0.7099  1.7608  0.0516
  189MOL0     H24922   3.993   8.904   7.876 -0.1177  0.7477  0.4467
  189MOL0     H24923   3.906   9.012   7.993  0.6771  1.2044  2.0897
  189MOL0     H24924   4.080   8.925   8.171 -0.2636 -1.4447  0.9214
  189MOL0     H24925   4.121   8.798   8.054 -0.9203 -0.1103 -1.1404
  189MOL0     H24926   3.866   8.879   8.185 -1.2392 -0.3280 -1.1759
  189MOL0     H24927   3.861   8.762   8.042 -0.1888 -1.3491 -0.5536
  189MOL0     H24928   3.988   8.711   8.324  2.1092  0.0119 -0.6697
  189MOL0     H24929   4.001   8.610   8.185  0.5802  0.7786  0.3496
  189MOL0     H24930   4.446   9.024   8.195 -0.3546  1.5355  0.9480
  189MOL0     H24931   4.678   8.921   8.242 -0.7750  0.9356  1.5385
  189MOL0     H24932   4.999   8.800   7.994  0.9353 -0.8158 -1.8007
  189MOL0     H24933   5.190   8.672   7.929 -0.8703  0.3157 -1.2488
  189MOL0     H24934   5.845   9.429   8.015  3.2597 -1.3313 -1.6908
  189MOL0     H24935   5.586   9.460   8.000  0.3861 -0.9937  0.2598
  189MOL0     H24936   5.264   9.484   7.590 -2.4398  2.3921 -2.0674
  189MOL0     H24937   5.031   9.548   7.520 -2.6579  0.5960  0.1137
  189MOL0     H24938   4.787   9.512   7.512 -2.4995  0.5848 -0.7187
  189MOL0     H24939   4.833   9.688   7.532  1.2563 -0.1338  0.1125
  189MOL0     H24940   4.563   9.569   7.631 -2.3194  2.6295  1.6602
  189MOL0     H24941   4.623   9.737   7.640 -1.5080 -2.3346  3.1061
  189MOL0     H24942   4.590   9.589   7.380 -0.5908 -2.1926  1.6091
  189MOL0     H24943   4.575   9.764   7.410  2.5740 -0.5516  0.9032
  189MOL0     H24944   4.380   9.554   7.512  1.8091 -0.6922 -0.9469
  189MOL0     H24945   4.366   9.730   7.536 -1.5873 -0.5941 -0.0438
  189MOL0     H24946   4.173   9.732   7.180 -1.9775  0.8876  0.7555
  189MOL0     H24947   4.907   9.476   7.930  1.7805 -0.2718  0.9467
  189MOL0     H24948   5.122   9.392   7.988 -1.6781  0.2285  0.0463
  190MOL0     O24949   3.099   7.424   5.662  1.1471  0.4495 -0.3961
  190MOL0     C24950   3.004   7.341   5.676  0.3429  0.7960  0.4851
  190MOL0     O24951   3.012   7.224   5.735 -0.1545  1.3490  0.8826
  190MOL0     C24952   3.123   7.185   5.812  0.1902  0.6977  1.1018
  190MOL0     C24953   3.188   7.274   5.893 -1.0888 -0.2099 -0.2652
  190MOL0     C24954   3.313   7.229   5.943 -0.2478 -1.1562  1.3904
  190MOL0     C24955   3.377   7.107   5.916 -0.2427  0.1744 -0.5770
  190MOL0     O24956   3.503   7.078   5.971  0.3331  0.6151  0.6956
  190MOL0     C24957   3.612   7.157   5.918  0.2209 -0.2596  0.5737
  190MOL0     C24958   3.748   7.094   5.937  0.4723  0.1924 -0.2095
  190MOL0     C24959   3.783   7.068   6.089  1.0408  0.2057  0.2278
  190MOL0     C24960   3.925   7.003   6.110 -0.1202 -1.0637  0.8748
  190MOL0     C24961   3.969   7.027   6.257  0.0656  0.8250  0.0440
  190MOL0     C24962   4.076   6.932   6.310  0.8459  0.2531 -0.3284
  190MOL0     C24963   4.201   6.938   6.225 -0.2912 -0.5800 -0.6909
  190MOL0     C24964   4.282   6.806   6.231  0.1227  0.6357 -0.1318
  190MOL0     N24965   4.227   6.697   6.145  0.0946  0.6248 -0.4857
  190MOL0     C24966   4.130   6.607   6.177  0.3552  0.1296 -0.0541
  190MOL0     C24967   4.121   6.526   6.068 -0.4886 -0.3605 -0.0019
  190MOL0     C24968   4.031   6.414   6.047  0.0990 -1.0127  0.2718
  190MOL0     C24969   4.081   6.281   6.106  0.0701  0.4047  0.2580
  190MOL0     C24970   4.024   6.159   6.031 -0.5654  0.0553  0.7521
  190MOL0     C24971   3.878   6.138   6.053  0.5157  0.3033 -0.4411
  190MOL0     O24972   3.802   6.227   5.974  0.3896  0.0871 -0.6359
  190MOL0     C24973   3.664   6.218   5.978  0.4625 -0.2454  0.1709
  190MOL0     C24974   3.595   6.128   5.889 -0.7609 -0.4367  0.1807
  190MOL0     C24975   3.457   6.116   5.891  0.7404  0.2303  0.0670
  190MOL0     C24976   3.377   6.188   5.978 -0.4110 -0.3692  0.3031
  190MOL0     C24977   3.236   6.159   5.972  0.1019  0.1067  0.0980
  190MOL0     O24978   3.180   6.115   5.849 -0.5413 -0.3506 -0.2763
  190MOL0     C24979   3.047   6.094   5.857  0.5195 -0.1132  0.5046
  190MOL0     C24980   2.967   6.152   5.761 -0.0975 -0.2330  0.3463
  190MOL0     C24981   2.829   6.124   5.753  0.2498  0.2438  0.4863
  190MOL0     C24982   2.774   6.034   5.842  0.9584  0.4330 -0.6752
  190MOL0     O24983   2.644   5.999   5.822  0.5674 -0.7829 -0.0903
  190MOL0     C24984   2.550   5.963   5.928 -0.1508  0.4831 -0.1211
  190MOL0     C24985   2.414   5.969   5.854 -0.0607 -0.0776  0.7703
  190MOL0     C24986   2.375   5.841   5.770 -0.7936  0.5705 -0.1758
  190MOL0     C24987   2.246   5.858   5.686  0.5265 -0.2283 -1.1522
  190MOL0     C24988   2.222   5.732   5.606 -0.6164  1.2720  0.2487
  190MOL0     C24989   2.106   5.730   5.510  0.4488 -0.4413  0.1007
  190MOL0     C24990   2.073   5.592   5.461  0.3189  0.0444 -0.2489
  190MOL0     C24991   1.941   5.579   5.394 -0.0073  0.5596 -0.3026
  190MOL0    Cl24992   1.937   5.656   5.229 -0.0700  0.1760 -0.0044
  190MOL0     C24993   2.849   5.984   5.940  0.2954  0.5613  0.1080
  190MOL0     C24994   2.986   6.005   5.948 -0.8072 -0.5546 -0.3325
  190MOL0     O24995   3.177   6.196   6.070 -0.1719  0.5841 -0.1130
  190MOL0     C24996   3.451   6.261   6.072 -0.3669  0.1902  0.9684
  190MOL0     C24997   3.587   6.288   6.065 -0.3355  0.0804 -0.2877
  190MOL0     N24998   4.212   6.567   5.971  0.4188 -0.1729 -0.0607
  190MOL0     N24999   4.263   6.674   6.017 -0.7478  0.7041 -0.0086
  190MOL0     C25000   3.314   7.021   5.833 -0.0352 -0.1226 -0.0349
  190MOL0     C25001   3.195   7.071   5.774 -0.7824  0.1276 -0.5243
  190MOL0     C25002   2.873   7.372   5.616  0.6589  0.2827  0.1567
  190MOL0     C25003   2.765   7.290   5.652 -0.5776 -0.1873  0.9769
  190MOL0     C25004   2.633   7.316   5.603 -0.1897 -0.7039 -0.1491
  190MOL0     C25005   2.607   7.410   5.505 -0.6840  0.7409 -0.4359
  190MOL0     O25006   2.488   7.432   5.440 -0.4640  0.0716  0.5069
  190MOL0     C25007   2.478   7.387   5.306 -0.4016  1.1841  0.1461
  190MOL0     C25008   2.409   7.245   5.314 -0.1171 -0.2779 -0.0040
  190MOL0     C25009   2.276   7.265   5.375  0.3222  0.2922 -0.0485
  190MOL0     C25010   2.190   7.138   5.375  0.4618 -0.2450 -0.5734
  190MOL0     C25011   2.040   7.155   5.397 -1.0268  0.4797  0.5311
  190MOL0     C25012   1.917   7.155   5.408 -0.2873 -0.2671  0.5603
  190MOL0     C25013   2.713   7.497   5.482 -0.2169 -0.4628 -0.6763
  190MOL0     C25014   2.846   7.482   5.536  0.7709  0.2203  0.4627
  190MOL0     H25015   3.162   7.375   5.923 -2.8558 -1.4647  3.0838
  190MOL0     H25016   3.356   7.301   6.013 -0.0027  0.2879 -0.1615
  190MOL0     H25017   3.623   7.256   5.963 -1.3218 -0.2869  1.0791
  190MOL0     H25018   3.585   7.167   5.812  0.0748 -2.0349  0.4100
  190MOL0     H25019   3.814   7.177   5.909 -1.3049  2.6652  2.3624
  190MOL0     H25020   3.754   7.004   5.876  0.1529  0.6170 -0.8750
  190MOL0     H25021   3.708   7.001   6.131  1.1173  0.6721  1.1167
  190MOL0     H25022   3.787   7.166   6.136  2.2657  0.1498  0.2781
  190MOL0     H25023   3.919   6.896   6.088 -0.5401 -0.6966 -0.9614
  190MOL0     H25024   3.998   7.050   6.043 -0.1984  0.6455  1.9205
  190MOL0     H25025   3.882   7.011   6.322 -0.7172  0.5301 -1.0573
  190MOL0     H25026   4.010   7.127   6.274  1.4321 -0.0682  2.4772
  190MOL0     H25027   4.028   6.834   6.301 -0.6602  0.7141  1.8224
  190MOL0     H25028   4.101   6.944   6.416 -0.5566 -0.1162  0.0687
  190MOL0     H25029   4.186   6.970   6.122 -0.0761  3.2958  0.3013
  190MOL0     H25030   4.255   7.013   6.285 -0.9918  0.2597 -1.0880
  190MOL0     H25031   4.284   6.779   6.337 -2.0657 -0.4567 -0.2938
  190MOL0     H25032   4.384   6.816   6.195  0.5366  0.7011  1.0151
  190MOL0     H25033   4.078   6.591   6.271 -0.3228  0.7122 -0.3236
  190MOL0     H25034   3.998   6.393   5.945  1.2292 -2.0603  0.0965
  190MOL0     H25035   3.937   6.442   6.094 -0.1076 -2.3850  0.7263
  190MOL0     H25036   4.066   6.272   6.214 -0.5333  1.1559  0.2440
  190MOL0     H25037   4.189   6.280   6.090  0.0399  0.4032  0.0483
  190MOL0     H25038   4.044   6.173   5.924  3.1232 -0.5520  1.2080
  190MOL0     H25039   4.080   6.068   6.053  0.3525  0.4669  0.2112
  190MOL0     H25040   3.854   6.149   6.159  2.6148 -0.2303  0.1461
  190MOL0     H25041   3.860   6.040   6.008 -1.3734  0.9507 -1.1800
  190MOL0     H25042   3.667   6.071   5.831  2.4938  1.6894  1.8129
  190MOL0     H25043   3.414   6.053   5.814 -0.5786 -0.0615  1.0186
  190MOL0     H25044   3.010   6.223   5.691 -0.6062  2.1399  2.3245
  190MOL0     H25045   2.759   6.179   5.692  2.1802  1.5196 -0.6652
  190MOL0     H25046   2.543   6.035   6.010  0.5474  1.3859 -0.8377
  190MOL0     H25047   2.567   5.861   5.964 -0.7604  1.0213  1.7888
  190MOL0     H25048   2.413   6.059   5.792 -1.7472  0.3107  1.3127
  190MOL0     H25049   2.334   5.988   5.927 -0.7205  2.9525 -0.5875
  190MOL0     H25050   2.357   5.757   5.837 -2.7712  0.5632 -0.6502
  190MOL0     H25051   2.451   5.829   5.693 -0.6156  1.2196 -0.1098
  190MOL0     H25052   2.161   5.881   5.751  1.8488  1.4711  0.0533
  190MOL0     H25053   2.251   5.944   5.618  1.3784  1.2571  0.7223
  190MOL0     H25054   2.213   5.646   5.674 -1.6990  1.0970 -0.0993
  190MOL0     H25055   2.310   5.714   5.544 -0.6964  0.6105  0.3162
  190MOL0     H25056   2.133   5.794   5.426  3.0392  1.8649  2.4686
  190MOL0     H25057   2.023   5.768   5.571  0.2449  0.0709 -0.4798
  190MOL0     H25058   2.145   5.560   5.386 -1.3032  0.0471 -1.8917
  190MOL0     H25059   2.067   5.522   5.545 -0.5145  1.6670  1.1104
  190MOL0     H25060   1.867   5.627   5.459  0.2908  0.0490  0.4309
  190MOL0     H25061   1.904   5.477   5.382  0.3565  0.1730  1.4960
  190MOL0     H25062   2.813   5.896   5.994  2.1250 -0.9833 -1.0597
  190MOL0     H25063   3.045   5.956   6.025 -0.1366  0.0281 -0.4679
  190MOL0     H25064   3.394   6.312   6.149 -0.6310  1.3469  0.0303
  190MOL0     H25065   3.644   6.347   6.136 -0.6017  0.5730 -0.4811
  190MOL0     H25066   3.373   6.932   5.814  0.5328 -0.0181  1.1972
  190MOL0     H25067   3.147   7.009   5.698 -2.7910  2.2702 -1.1294
  190MOL0     H25068   2.785   7.195   5.701 -0.8579 -1.2074 -0.8072
  190MOL0     H25069   2.551   7.255   5.639 -2.1215  1.9223  0.1568
  190MOL0     H25070   2.575   7.365   5.260 -0.4768  1.5977 -0.2273
  190MOL0     H25071   2.414   7.451   5.244 -1.1606  1.4277  1.1629
  190MOL0     H25072   2.395   7.210   5.211 -0.2389  0.3946 -0.2195
  190MOL0     H25073   2.479   7.178   5.365  2.5047  0.3097 -2.5278
  190MOL0     H25074   2.228   7.346   5.320 -0.4244 -1.2986 -1.8307
  190MOL0     H25075   2.287   7.289   5.482  0.2519  1.8854 -0.3807
  190MOL0     H25076   2.191   7.098   5.273 -0.8172 -0.3319 -0.5692
  190MOL0     H25077   2.223   7.062   5.447 -0.5104 -0.0303  0.1202
  190MOL0     H25078   1.811   7.165   5.407 -0.0930  3.4836 -1.4127
  190MOL0     H25079   2.685   7.576   5.413  0.6007 -0.6483 -1.2385
  190MOL0     H25080   2.927   7.550   5.516  1.0961 -1.1311 -3.9258
  191MOL0     O25081   1.943   0.602   0.383 -0.5693  0.2581  0.0777
  191MOL0     C25082   1.950   0.516   0.296  0.0101 -0.7329 -0.4458
  191MOL0     O25083   1.843   0.469   0.228 -0.5294 -0.2006  0.2660
  191MOL0     C25084   1.715   0.485   0.269 -0.8048 -1.0020 -0.6754
  191MOL0     C25085   1.678   0.417   0.380 -0.1386  0.1067 -0.1706
  191MOL0     C25086   1.545   0.413   0.418 -0.2190 -0.6242 -0.3486
  191MOL0     C25087   1.448   0.489   0.348  0.6049 -0.0218  0.0129
  191MOL0     O25088   1.315   0.482   0.388  1.1532 -0.1268 -0.0182
  191MOL0     C25089   1.234   0.598   0.361  0.1738  0.2186  0.4274
  191MOL0     C25090   1.111   0.594   0.433  0.4086  0.3891  0.2462
  191MOL0     C25091   1.028   0.717   0.401  0.1318  0.3881 -0.0598
  191MOL0     C25092   0.882   0.695   0.445 -0.1124  0.0137 -0.1663
  191MOL0     C25093   0.795   0.816   0.425  0.6135 -0.0664 -0.5846
  191MOL0     C25094   0.655   0.784   0.489 -0.3934  1.0597  0.1861
  191MOL0     C25095   0.549   0.889   0.444  0.8600 -0.0799 -0.2947
  191MOL0     C25096   0.419   0.849   0.512 -0.7988  0.1848  0.2591
  191MOL0     N25097   0.308   0.935   0.469 -0.5626 -0.3121  0.1706
  191MOL0     C25098   0.244   1.023   0.551  0.0969 -0.6021  0.7483
  191MOL0     C25099   0.187   1.106   0.457  0.8649  0.2717 -0.1768
  191MOL0     C25100   0.114   1.231   0.486  0.0789  0.1041  0.5143
  191MOL0     C25101  -0.028   1.211   0.522 -1.2025 -0.2716  0.4734
  191MOL0     C25102  -0.125   1.331   0.489 -0.3447 -0.1539 -0.2316
  191MOL0     C25103  -0.273   1.303   0.524 -0.2160 -0.0014 -0.7180
  191MOL0     O25104  -0.273   1.303   0.664 -0.2776 -0.4763  0.4875
  191MOL0     C25105  -0.334   1.191   0.715  0.9529  0.2515 -0.2692
  191MOL0     C25106  -0.296   1.058   0.684  0.1921  0.1692 -0.2030
  191MOL0     C25107  -0.374   0.950   0.725 -0.0553 -0.1856 -1.0925
  191MOL0     C25108  -0.497   0.968   0.778 -0.3828 -0.0717 -0.1523
  191MOL0     C25109  -0.581   0.850   0.807 -0.0293 -0.5483  0.6196
  191MOL0     O25110  -0.669   0.874   0.912  0.4841 -0.1065  0.1955
  191MOL0     C25111  -0.732   0.760   0.955  0.3291  0.2708  0.7917
  191MOL0     C25112  -0.693   0.683   1.065  0.1064 -0.0009 -0.0980
  191MOL0     C25113  -0.769   0.571   1.113 -0.5117 -0.9892  0.7881
  191MOL0     C25114  -0.876   0.527   1.042  0.2304  0.0016 -0.6779
  191MOL0     O25115  -0.955   0.418   1.074 -0.0265  0.0069  0.3870
  191MOL0     C25116  -0.971   0.376   1.213 -0.2575  0.1958 -0.2903
  191MOL0     C25117  -1.054   0.248   1.212 -0.6894 -0.6048 -0.1771
  191MOL0     C25118  -1.193   0.263   1.153  0.1925  0.3476 -0.3487
  191MOL0     C25119  -1.282   0.137   1.172 -0.4785  0.4250 -0.3021
  191MOL0     C25120  -1.431   0.160   1.127  0.2393  0.5138  1.0882
  191MOL0     C25121  -1.518   0.040   1.182  0.0467 -0.1915 -0.0931
  191MOL0     C25122  -1.653   0.027   1.118 -0.2393  0.1137 -0.1536
  191MOL0     C25123  -1.643  -0.024   0.971  0.1894  0.0123 -0.3323
  191MOL0    Cl25124  -1.794  -0.119   0.922  0.4432 -0.4364 -0.1495
  191MOL0     C25125  -0.913   0.596   0.931 -0.0628 -0.3798  0.5779
  191MOL0     C25126  -0.844   0.716   0.901  0.5053 -0.1220 -0.6692
  191MOL0     O25127  -0.582   0.758   0.735 -0.1272 -0.7616  0.4514
  191MOL0     C25128  -0.538   1.101   0.814 -0.1819 -0.4068 -0.0728
  191MOL0     C25129  -0.458   1.212   0.777  0.7560  0.4318  1.1461
  191MOL0     N25130   0.193   1.059   0.328 -0.5021 -0.0979  0.9572
  191MOL0     N25131   0.277   0.951   0.340 -0.3859 -0.1140  0.1840
  191MOL0     C25132   1.493   0.565   0.238  0.2239  0.0770 -0.8373
  191MOL0     C25133   1.622   0.560   0.198 -0.6782  0.2024 -0.9927
  191MOL0     C25134   2.091   0.467   0.272 -0.8584  0.5469  0.4603
  191MOL0     C25135   2.206   0.523   0.342 -0.2754  1.0825 -0.1555
  191MOL0     C25136   2.335   0.491   0.314 -1.1010 -0.7366 -0.0656
  191MOL0     C25137   2.365   0.399   0.222  0.1343 -0.7117  0.1858
  191MOL0     O25138   2.494   0.375   0.187  0.0174  0.6964 -0.2715
  191MOL0     C25139   2.537   0.274   0.082 -0.9347  0.7480  0.0486
  191MOL0     C25140   2.519   0.321  -0.059 -0.1549  0.5310  0.1707
  191MOL0     C25141   2.640   0.406  -0.108  0.1696  0.5796 -0.0289
  191MOL0     C25142   2.598   0.473  -0.242  1.0549 -0.6020  0.4153
  191MOL0     C25143   2.602   0.360  -0.341  0.4759  0.5893  0.1480
  191MOL0     C25144   2.584   0.265  -0.426 -0.4573  0.1099 -0.2856
  191MOL0     C25145   2.253   0.334   0.156 -0.3737 -0.6983  0.2434
  191MOL0     C25146   2.118   0.369   0.176  0.0010  0.5943  0.4896
  191MOL0     H25147   1.752   0.360   0.436 -1.1201 -0.3729  0.6785
  191MOL0     H25148   1.517   0.361   0.509 -0.6176 -0.0354 -0.1241
  191MOL0     H25149   1.212   0.609   0.254  0.6058  0.4891  0.3613
  191MOL0     H25150   1.290   0.686   0.395 -1.0469  0.9646  0.5783
  191MOL0     H25151   1.121   0.598   0.542 -2.4154  1.4246  0.5553
  191MOL0     H25152   1.059   0.503   0.403 -0.4460  0.6105  1.0037
  191MOL0     H25153   1.035   0.754   0.299  0.8670 -0.1661 -0.2154
  191MOL0     H25154   1.074   0.796   0.461  1.3435  1.0065 -1.7327
  191MOL0     H25155   0.838   0.617   0.382 -0.3313 -0.9469  1.1390
  191MOL0     H25156   0.872   0.649   0.544 -2.0157 -2.4732 -1.3966
  191MOL0     H25157   0.786   0.840   0.319  3.5179  1.6114 -0.5725
  191MOL0     H25158   0.843   0.908   0.459 -1.2617  1.3412 -1.5317
  191MOL0     H25159   0.657   0.789   0.598  0.2108  1.0893  0.1779
  191MOL0     H25160   0.624   0.683   0.459  3.3611 -1.0913  2.6463
  191MOL0     H25161   0.592   0.987   0.464  2.9598 -1.0377  0.2212
  191MOL0     H25162   0.529   0.877   0.337 -0.4163  0.6356 -0.1516
  191MOL0     H25163   0.433   0.859   0.620 -0.4669  4.3398 -0.0259
  191MOL0     H25164   0.403   0.748   0.473 -3.8344  1.3169 -1.7901
  191MOL0     H25165   0.249   1.035   0.659  0.6609 -3.6953  1.1521
  191MOL0     H25166   0.111   1.293   0.396  1.7183  0.9627  1.0221
  191MOL0     H25167   0.168   1.281   0.567 -1.9484  1.9051  0.8586
  191MOL0     H25168  -0.027   1.209   0.631  1.5989  2.2134  0.6318
  191MOL0     H25169  -0.058   1.119   0.472 -1.5413  0.2252 -0.2593
  191MOL0     H25170  -0.093   1.428   0.529  1.0116  0.0490 -1.7398
  191MOL0     H25171  -0.126   1.349   0.381 -0.2302  0.9052 -0.0723
  191MOL0     H25172  -0.302   1.207   0.480 -0.7174  0.4907 -1.4915
  191MOL0     H25173  -0.336   1.380   0.478  0.0561  1.7486  1.6578
  191MOL0     H25174  -0.204   1.028   0.634 -0.0451 -2.0437  0.5469
  191MOL0     H25175  -0.339   0.850   0.704 -0.0608 -0.0778 -1.6144
  191MOL0     H25176  -0.599   0.706   1.115  0.4789 -2.5425  0.4803
  191MOL0     H25177  -0.725   0.519   1.197 -0.5445  0.5183  1.7685
  191MOL0     H25178  -1.033   0.446   1.270  1.4351 -0.1994  2.1942
  191MOL0     H25179  -0.875   0.357   1.260 -1.1633 -2.4706  0.6769
  191MOL0     H25180  -1.075   0.218   1.315  0.4343  0.5357  0.4108
  191MOL0     H25181  -1.011   0.165   1.155 -0.5419  0.2299 -1.3248
  191MOL0     H25182  -1.189   0.281   1.045  2.3630  0.6579 -0.2670
  191MOL0     H25183  -1.237   0.356   1.191 -1.0696  0.3966 -1.8208
  191MOL0     H25184  -1.236   0.054   1.118  1.0792  0.2572  1.2077
  191MOL0     H25185  -1.291   0.108   1.276  0.6689 -5.5177 -1.5088
  191MOL0     H25186  -1.438   0.152   1.018 -1.1138 -1.1597  1.2466
  191MOL0     H25187  -1.472   0.257   1.157 -0.8405  1.4567 -2.8285
  191MOL0     H25188  -1.533   0.064   1.287  1.0651  0.4533 -0.0901
  191MOL0     H25189  -1.470  -0.059   1.179  1.8803  0.6212  1.1677
  191MOL0     H25190  -1.700  -0.046   1.185  0.7800  0.1002  0.5643
  191MOL0     H25191  -1.710   0.120   1.130 -0.3562 -0.0731  0.8690
  191MOL0     H25192  -1.557  -0.092   0.969  2.6396  2.7065  2.1730
  191MOL0     H25193  -1.609   0.056   0.905  4.0803 -3.8174 -3.5699
  191MOL0     H25194  -0.996   0.564   0.871  1.1115 -1.0053 -0.7716
  191MOL0     H25195  -0.866   0.782   0.817  0.7041  1.1810  0.2742
  191MOL0     H25196  -0.630   1.125   0.867 -2.5924 -2.5498 -2.9159
  191MOL0     H25197  -0.486   1.315   0.800  1.4024  1.1717 -1.1448
  191MOL0     H25198   1.423   0.633   0.193 -0.1059  0.5647  0.3677
  191MOL0     H25199   1.654   0.619   0.114 -2.8002  2.1151 -0.5419
  191MOL0     H25200   2.180   0.598   0.416 -0.9516  1.4019 -0.6924
  191MOL0     H25201   2.415   0.544   0.363 -1.8779 -1.0645  1.6188
  191MOL0     H25202   2.477   0.183   0.075  0.4565 -0.0646 -2.8826
  191MOL0     H25203   2.638   0.252   0.116 -0.8335  1.1794  0.0300
  191MOL0     H25204   2.519   0.233  -0.123 -0.3374  0.3768  0.3857
  191MOL0     H25205   2.424   0.375  -0.062  1.2870  3.2302 -1.8315
  191MOL0     H25206   2.735   0.351  -0.109 -0.4067 -0.4759  1.0556
  191MOL0     H25207   2.658   0.485  -0.036 -0.5347  1.4590 -0.7945
  191MOL0     H25208   2.503   0.525  -0.230  1.7315  0.4380  1.4304
  191MOL0     H25209   2.671   0.548  -0.275 -1.5084  1.5278 -0.7260
  191MOL0     H25210   2.606   0.182  -0.490  0.6923 -1.1763  1.6639
  191MOL0     H25211   2.276   0.265   0.075 -2.0813 -0.8112 -0.1714
  191MOL0     H25212   2.039   0.330   0.112 -0.7596 -0.2312  1.8680
  192MOL0     O25213   6.228   2.557   7.072  0.2493 -0.5841  0.1449
  192MOL0     C25214   6.324   2.485   7.070  0.1216 -0.9368  0.1130
  192MOL0     O25215   6.328   2.367   7.007 -0.0668 -0.9704  0.2659
  192MOL0     C25216   6.222   2.334   6.923 -1.3250  0.2597 -0.0116
  192MOL0     C25217   6.116   2.262   6.977 -0.0215  0.3099 -0.2365
  192MOL0     C25218   6.018   2.212   6.882 -0.7513  0.1528 -0.5298
  192MOL0     C25219   6.015   2.255   6.750 -0.4022  0.8314 -0.0049
  192MOL0     O25220   5.921   2.235   6.651 -0.0168  0.2668 -0.5747
  192MOL0     C25221   5.825   2.134   6.658  0.2879  1.0285 -0.0705
  192MOL0     C25222   5.765   2.127   6.521 -0.3755 -0.9425  1.1112
  192MOL0     C25223   5.670   2.008   6.518  0.7483 -0.0036 -0.2203
  192MOL0     C25224   5.596   2.019   6.378 -0.2419 -0.3535  0.6766
  192MOL0     C25225   5.449   2.042   6.392 -0.3103 -0.4001  0.3658
  192MOL0     C25226   5.376   2.058   6.260  0.3270 -0.4679 -0.8451
  192MOL0     C25227   5.224   2.075   6.286  0.4819  0.0478  0.1462
  192MOL0     C25228   5.162   2.122   6.154 -0.1989 -0.1560 -0.0913
  192MOL0     N25229   5.019   2.127   6.168  1.1439  0.6046 -0.2961
  192MOL0     C25230   4.949   2.191   6.266  1.7038  0.1845  0.2988
  192MOL0     C25231   4.823   2.151   6.249  0.0315 -0.1123  0.6088
  192MOL0     C25232   4.713   2.199   6.338 -0.4284  0.2113  0.4139
  192MOL0     C25233   4.617   2.072   6.361  0.0203 -0.4114 -1.1344
  192MOL0     C25234   4.496   2.129   6.444  0.2213  0.7956 -0.0249
  192MOL0     C25235   4.367   2.044   6.441  0.0526 -0.2474  0.1086
  192MOL0     O25236   4.265   2.126   6.501  0.4506 -0.1929 -0.0188
  192MOL0     C25237   4.148   2.062   6.544 -1.2102 -0.2341 -0.5937
  192MOL0     C25238   4.050   2.152   6.591 -0.6609  0.1020 -0.2539
  192MOL0     C25239   3.927   2.100   6.634 -0.4154  0.3678 -0.0172
  192MOL0     C25240   3.896   1.959   6.624 -0.7894 -0.7775  0.2814
  192MOL0     C25241   3.773   1.905   6.692 -0.0614 -0.3336  0.8843
  192MOL0     O25242   3.693   1.986   6.753 -0.2621  0.4652  0.0906
  192MOL0     C25243   3.562   1.941   6.775 -0.6196 -0.5010 -0.3383
  192MOL0     C25244   3.467   1.929   6.674  0.4832 -0.1128  0.3406
  192MOL0     C25245   3.338   1.900   6.699  0.5714 -0.9152  0.5324
  192MOL0     C25246   3.297   1.870   6.831 -0.3028 -0.2145 -0.4497
  192MOL0     O25247   3.174   1.834   6.879  0.8611 -0.3331  0.2278
  192MOL0     C25248   3.090   1.787   6.773  0.4209 -0.0601  0.0397
  192MOL0     C25249   3.115   1.633   6.756 -0.5850  0.7147 -0.1851
  192MOL0     C25250   2.999   1.571   6.667  0.6187  0.0092  0.3535
  192MOL0     C25251   3.010   1.418   6.657 -0.6230 -0.3893 -0.8726
  192MOL0     C25252   2.890   1.357   6.582 -0.2595  0.2332 -0.2672
  192MOL0     C25253   2.884   1.202   6.583  0.8638  0.1083  0.9142
  192MOL0     C25254   2.754   1.144   6.517  0.9068 -0.0615  0.0597
  192MOL0     C25255   2.760   1.001   6.549 -0.0450 -0.2510  0.5023
  192MOL0    Cl25256   2.595   0.934   6.524  0.3032  0.4855 -0.6285
  192MOL0     C25257   3.395   1.873   6.931 -0.1270  0.0488  0.7897
  192MOL0     C25258   3.524   1.917   6.906  0.5672  0.6930 -0.5688
  192MOL0     O25259   3.767   1.782   6.695 -0.2007  0.2148 -0.3689
  192MOL0     C25260   3.998   1.875   6.575  0.4282  0.0716 -0.6053
  192MOL0     C25261   4.125   1.925   6.559 -0.7301 -0.5965 -0.2684
  192MOL0     N25262   4.811   2.081   6.134  0.9953 -0.0440  0.4291
  192MOL0     N25263   4.930   2.067   6.088  0.5689  0.7929  0.1063
  192MOL0     C25264   6.126   2.330   6.703 -0.1299  0.2318 -0.4624
  192MOL0     C25265   6.229   2.364   6.786 -0.5209  0.1449  0.9828
  192MOL0     C25266   6.444   2.527   7.143 -0.8738 -0.0218 -0.5978
  192MOL0     C25267   6.567   2.460   7.116  0.1080 -0.6432  0.2759
  192MOL0     C25268   6.688   2.504   7.170 -0.2798 -0.7763 -0.1757
  192MOL0     C25269   6.687   2.612   7.258  0.3185  0.1140 -0.4474
  192MOL0     O25270   6.807   2.660   7.298 -0.6250 -0.6883  0.3895
  192MOL0     C25271   6.823   2.762   7.401  0.0110 -0.3762 -0.4772
  192MOL0     C25272   6.787   2.719   7.543 -0.4877 -0.0863 -0.1096
  192MOL0     C25273   6.810   2.838   7.648  1.0618  0.0441  1.0994
  192MOL0     C25274   6.701   2.847   7.752 -0.3157 -0.2899  0.4169
  192MOL0     C25275   6.696   2.727   7.839  0.2562 -0.0011  0.9065
  192MOL0     C25276   6.679   2.617   7.895 -0.5920  0.4863  0.5762
  192MOL0     C25277   6.568   2.677   7.289 -0.3401  0.1466 -0.8300
  192MOL0     C25278   6.447   2.637   7.231  0.1147  0.7393 -0.0496
  192MOL0     H25279   6.111   2.229   7.080  2.2721  3.5271  1.0645
  192MOL0     H25280   5.944   2.142   6.920  0.0017  0.3174  1.3842
  192MOL0     H25281   5.743   2.160   6.726 -1.4117 -1.9874 -0.8114
  192MOL0     H25282   5.866   2.040   6.696  0.0157  0.7098 -0.5608
  192MOL0     H25283   5.847   2.115   6.450 -0.0259 -0.3088  1.4055
  192MOL0     H25284   5.705   2.213   6.490 -0.3713 -0.6016  2.0072
  192MOL0     H25285   5.602   1.990   6.602  2.0317 -0.2362  0.8074
  192MOL0     H25286   5.726   1.914   6.513 -0.2326 -0.6844  1.0377
  192MOL0     H25287   5.625   2.105   6.317 -2.6596 -0.6251 -0.9936
  192MOL0     H25288   5.626   1.931   6.321  0.0946  0.2359 -0.0760
  192MOL0     H25289   5.439   2.136   6.448 -1.2547 -1.3679  1.9209
  192MOL0     H25290   5.407   1.960   6.452  0.2812 -0.9889 -0.0182
  192MOL0     H25291   5.385   1.972   6.193 -3.0203 -1.0652 -0.6819
  192MOL0     H25292   5.424   2.139   6.204  1.2113 -1.3284 -1.3600
  192MOL0     H25293   5.190   1.977   6.319 -0.4563 -0.0100 -0.9553
  192MOL0     H25294   5.193   2.144   6.365 -0.8488  0.6234 -0.8528
  192MOL0     H25295   5.190   2.058   6.070  1.9649  0.1175  0.3800
  192MOL0     H25296   5.203   2.222   6.139  2.0869 -0.6505  2.1822
  192MOL0     H25297   4.987   2.256   6.345  1.0995 -1.2513  1.8261
  192MOL0     H25298   4.663   2.280   6.284 -0.9640 -1.0270 -1.0373
  192MOL0     H25299   4.757   2.223   6.435 -0.6709 -3.6956  1.6625
  192MOL0     H25300   4.680   1.998   6.412 -0.3283 -0.5168 -0.8519
  192MOL0     H25301   4.580   2.032   6.267 -3.4301 -2.0795  0.7471
  192MOL0     H25302   4.520   2.153   6.548 -2.0573  3.4717 -0.0035
  192MOL0     H25303   4.473   2.225   6.397 -0.8007  0.9166  0.7063
  192MOL0     H25304   4.387   1.955   6.502 -2.7053  0.6193  2.4589
  192MOL0     H25305   4.337   2.012   6.341 -5.1411 -3.4060  2.3042
  192MOL0     H25306   4.063   2.260   6.592  0.0267  0.0189  0.3953
  192MOL0     H25307   3.857   2.162   6.690  0.0141  0.4350  0.4521
  192MOL0     H25308   3.520   1.944   6.580  2.1093 -2.9635  0.6705
  192MOL0     H25309   3.263   1.891   6.621  0.4656 -0.9197  0.6336
  192MOL0     H25310   3.082   1.847   6.681  0.9436  1.6474  1.0500
  192MOL0     H25311   2.987   1.795   6.806  0.6165 -0.8056  0.8575
  192MOL0     H25312   3.112   1.597   6.860  0.3466  1.6612  0.1862
  192MOL0     H25313   3.213   1.613   6.712 -0.2625  1.3296  0.2438
  192MOL0     H25314   3.003   1.627   6.572 -0.7115  0.9206  0.7984
  192MOL0     H25315   2.903   1.604   6.707  2.1696  2.1696  2.6308
  192MOL0     H25316   3.101   1.381   6.609 -0.4548  0.1162 -0.9589
  192MOL0     H25317   3.008   1.383   6.760 -0.6881 -1.7043 -1.2977
  192MOL0     H25318   2.886   1.399   6.481 -0.7158  1.6061  0.2977
  192MOL0     H25319   2.798   1.386   6.635  1.2981 -2.2063  4.3559
  192MOL0     H25320   2.879   1.190   6.692 -1.5088 -1.0423  0.7533
  192MOL0     H25321   2.974   1.156   6.543  0.2511 -0.7219  0.4464
  192MOL0     H25322   2.663   1.185   6.563  2.3596  1.1738  1.9523
  192MOL0     H25323   2.743   1.146   6.408  1.0045 -2.8838 -0.0733
  192MOL0     H25324   2.787   0.988   6.654 -2.9464 -1.5919  1.1865
  192MOL0     H25325   2.828   0.953   6.478 -1.6849 -1.8360 -0.0793
  192MOL0     H25326   3.368   1.850   7.033 -3.6411  3.2984  0.8270
  192MOL0     H25327   3.586   1.921   6.994 -1.5500 -3.7558  1.4456
  192MOL0     H25328   3.986   1.767   6.578  0.6771  0.0309  2.5300
  192MOL0     H25329   4.204   1.857   6.531 -0.8240 -0.8531  0.0890
  192MOL0     H25330   6.113   2.367   6.601 -0.4345  0.7388 -0.2432
  192MOL0     H25331   6.317   2.412   6.744 -1.5422  1.4793  0.2854
  192MOL0     H25332   6.576   2.371   7.054 -1.0359 -0.6466  0.0999
  192MOL0     H25333   6.778   2.455   7.136  1.3041  2.1049 -0.4498
  192MOL0     H25334   6.769   2.855   7.380 -0.8256 -0.1885  2.1833
  192MOL0     H25335   6.930   2.786   7.405 -0.3313  1.2216  0.2254
  192MOL0     H25336   6.682   2.687   7.547  0.2703 -2.6762  1.3030
  192MOL0     H25337   6.846   2.632   7.573  2.1991  1.4891 -0.4630
  192MOL0     H25338   6.794   2.929   7.589 -2.8531 -1.3768 -0.3672
  192MOL0     H25339   6.910   2.842   7.693  1.9016  0.1400 -0.6647
  192MOL0     H25340   6.708   2.935   7.817  2.4350  1.2608 -1.8037
  192MOL0     H25341   6.612   2.859   7.690 -0.2567 -1.8012 -0.0128
  192MOL0     H25342   6.658   2.522   7.939 -2.8687  0.0093 -1.3262
  192MOL0     H25343   6.569   2.769   7.348  0.3040 -0.4067  0.0595
  192MOL0     H25344   6.353   2.685   7.258 -0.8284 -0.3736 -1.2291
  193MOL0     O25345   4.718   1.284   9.214  0.2937 -0.3597 -0.7430
  193MOL0     C25346   4.782   1.266   9.321  0.1405 -0.7026  0.2032
  193MOL0     O25347   4.768   1.334   9.439  0.0935 -0.6609  0.3310
  193MOL0     C25348   4.660   1.417   9.457  0.1219  0.2082 -0.7922
  193MOL0     C25349   4.632   1.536   9.386 -0.8737 -0.3407 -0.1319
  193MOL0     C25350   4.521   1.605   9.407 -0.2708  0.0836 -0.7132
  193MOL0     C25351   4.445   1.569   9.520  0.2472 -0.7108  0.1760
  193MOL0     O25352   4.347   1.661   9.562 -0.0286  0.4424  0.5948
  193MOL0     C25353   4.365   1.698   9.703 -0.7141  0.5175 -0.1116
  193MOL0     C25354   4.307   1.828   9.720  0.1674 -0.0252 -0.0610
  193MOL0     C25355   4.358   1.927   9.615 -0.5947 -0.2561  0.0890
  193MOL0     C25356   4.339   2.076   9.646 -0.8142  0.4966  0.5942
  193MOL0     C25357   4.315   2.168   9.524 -0.5553 -0.1120 -0.2422
  193MOL0     C25358   4.182   2.164   9.459  0.2297 -0.2357 -0.0786
  193MOL0     C25359   4.184   2.262   9.342 -0.4733 -1.6481 -0.8547
  193MOL0     C25360   4.039   2.252   9.291 -0.0502  0.3322  0.1421
  193MOL0     N25361   3.989   2.348   9.194 -0.8000  0.4194  0.1587
  193MOL0     C25362   4.020   2.352   9.061  0.6172 -0.2581  0.0599
  193MOL0     C25363   3.944   2.448   9.005 -0.0043 -0.1791 -0.1882
  193MOL0     C25364   3.955   2.515   8.875  0.1044 -0.5947  0.2768
  193MOL0     C25365   3.838   2.483   8.769 -0.5575 -0.6830 -0.4280
  193MOL0     C25366   3.731   2.598   8.795  0.6832 -0.2356 -0.4661
  193MOL0     C25367   3.608   2.567   8.709  0.7557 -0.0454 -0.4133
  193MOL0     O25368   3.500   2.658   8.738 -0.5904 -0.0059  0.8942
  193MOL0     C25369   3.382   2.643   8.673 -0.1741 -0.0384 -0.3084
  193MOL0     C25370   3.341   2.534   8.601 -0.6528 -0.3780 -0.3710
  193MOL0     C25371   3.219   2.534   8.535  0.3773 -0.5211  0.0860
  193MOL0     C25372   3.126   2.637   8.550 -0.3819  0.3727 -0.6449
  193MOL0     C25373   3.006   2.632   8.467  0.6867  0.6584 -0.1430
  193MOL0     O25374   2.949   2.750   8.443  0.0197 -0.5215  0.2632
  193MOL0     C25375   2.813   2.764   8.434 -0.6383 -0.1586  0.1858
  193MOL0     C25376   2.748   2.835   8.537 -0.0468 -0.6195  0.0270
  193MOL0     C25377   2.615   2.854   8.537  0.8018  0.1654  0.3779
  193MOL0     C25378   2.534   2.798   8.445 -0.4443  0.4025  0.4227
  193MOL0     O25379   2.404   2.830   8.433 -0.2023  0.1531  0.2108
  193MOL0     C25380   2.380   2.950   8.355 -0.2076  0.2324 -0.5021
  193MOL0     C25381   2.234   2.961   8.307  0.1333  1.1823 -0.2224
  193MOL0     C25382   2.202   3.047   8.188  1.2136  0.7432  0.7083
  193MOL0     C25383   2.106   2.989   8.097 -0.2940  0.5519 -0.9421
  193MOL0     C25384   1.972   2.974   8.157  0.0488  0.0844 -0.3610
  193MOL0     C25385   1.865   2.909   8.060  0.2911  0.3617 -0.2887
  193MOL0     C25386   1.724   2.900   8.125  0.4159  0.0875 -0.2685
  193MOL0     C25387   1.625   2.819   8.048 -0.4912  0.4863 -0.2583
  193MOL0    Cl25388   1.662   2.648   8.068  0.1268 -0.1120  0.2300
  193MOL0     C25389   2.587   2.719   8.344 -0.3349 -0.3567 -0.1486
  193MOL0     C25390   2.730   2.699   8.334  0.6464 -0.6343 -0.1118
  193MOL0     O25391   2.966   2.531   8.413 -0.0501  0.8734  0.2660
  193MOL0     C25392   3.159   2.746   8.636  0.0812 -0.3827 -0.3247
  193MOL0     C25393   3.286   2.751   8.688  0.0187  1.3285 -0.5845
  193MOL0     N25394   3.876   2.505   9.112  1.4198 -0.4011  0.9625
  193MOL0     N25395   3.913   2.448   9.218  0.9748  0.3798 -0.0734
  193MOL0     C25396   4.472   1.452   9.598  0.2770 -0.4268  0.6867
  193MOL0     C25397   4.580   1.378   9.565  0.5537 -0.4656 -0.0682
  193MOL0     C25398   4.894   1.164   9.320  0.6098 -0.4003 -0.1975
  193MOL0     C25399   4.967   1.141   9.440 -0.3226 -0.4918 -0.7558
  193MOL0     C25400   5.069   1.054   9.440  0.8396  0.3486 -0.2678
  193MOL0     C25401   5.098   0.978   9.325 -0.7822 -0.2614  1.0070
  193MOL0     O25402   5.191   0.872   9.328 -0.0658  0.7648 -0.6756
  193MOL0     C25403   5.172   0.790   9.442  0.0794  0.6080  0.1087
  193MOL0     C25404   5.248   0.664   9.420 -1.3541  0.3152 -0.3429
  193MOL0     C25405   5.302   0.589   9.542 -0.1995 -0.2916 -0.4144
  193MOL0     C25406   5.420   0.675   9.587  0.9692 -1.0737 -0.3234
  193MOL0     C25407   5.449   0.672   9.734  0.1030  0.3115  0.5932
  193MOL0     C25408   5.492   0.678   9.848 -0.9851  0.8880  0.3856
  193MOL0     C25409   5.024   1.001   9.206  0.8342 -0.6253  0.6323
  193MOL0     C25410   4.918   1.091   9.204  0.5674 -0.6883 -0.5959
  193MOL0     H25411   4.693   1.578   9.307  0.1056 -0.3579  0.5953
  193MOL0     H25412   4.476   1.686   9.350 -0.9928  2.3881  2.8118
  193MOL0     H25413   4.471   1.702   9.729 -1.0715 -2.8333  2.4809
  193MOL0     H25414   4.321   1.623   9.769 -0.9780  1.3340  0.6639
  193MOL0     H25415   4.332   1.875   9.816  1.2182  1.5866 -1.0808
  193MOL0     H25416   4.198   1.819   9.726  0.2470 -0.4402  1.1082
  193MOL0     H25417   4.317   1.896   9.518  1.9825 -2.3285 -0.4527
  193MOL0     H25418   4.466   1.907   9.613 -0.6018 -0.5102  1.4728
  193MOL0     H25419   4.252   2.075   9.713 -0.7153  2.2412  0.8058
  193MOL0     H25420   4.425   2.108   9.706 -0.8853  5.1807 -1.4260
  193MOL0     H25421   4.384   2.140   9.445 -2.9356  1.4826 -3.0748
  193MOL0     H25422   4.338   2.274   9.544 -1.8049  0.6932 -2.6809
  193MOL0     H25423   4.109   2.184   9.538  1.2997  0.4095  0.7835
  193MOL0     H25424   4.161   2.065   9.418 -0.5444 -0.0605 -0.1189
  193MOL0     H25425   4.197   2.363   9.382 -2.2904 -2.3535  1.7852
  193MOL0     H25426   4.262   2.230   9.272  0.8832  0.0242 -0.1844
  193MOL0     H25427   3.976   2.274   9.378 -3.6431  0.1250 -2.2028
  193MOL0     H25428   4.018   2.152   9.253  1.9332 -0.6413  1.4032
  193MOL0     H25429   4.073   2.285   8.994 -0.5413  0.6157 -1.8447
  193MOL0     H25430   4.051   2.475   8.842  1.2723  0.2743  2.4411
  193MOL0     H25431   3.965   2.621   8.898 -0.9352 -0.9540  2.7412
  193MOL0     H25432   3.806   2.380   8.786  1.8300 -1.3882  0.1716
  193MOL0     H25433   3.879   2.494   8.667  2.2483  2.7131  0.8395
  193MOL0     H25434   3.720   2.611   8.903  3.0211 -1.4427 -0.0068
  193MOL0     H25435   3.770   2.693   8.757  0.4178 -0.7882 -2.2074
  193MOL0     H25436   3.580   2.464   8.729  1.3774  0.0475  1.0186
  193MOL0     H25437   3.637   2.570   8.603  3.3587  0.5953  0.2488
  193MOL0     H25438   3.412   2.453   8.592 -0.8712 -0.6555  0.3226
  193MOL0     H25439   3.208   2.450   8.466 -0.4435  0.8155 -1.4709
  193MOL0     H25440   2.815   2.880   8.609 -1.3002 -0.0752  0.8875
  193MOL0     H25441   2.554   2.916   8.601 -0.1626 -0.7501  0.3720
  193MOL0     H25442   2.453   2.951   8.273 -0.3365  2.0402 -0.6432
  193MOL0     H25443   2.404   3.047   8.401  1.0073  1.6614 -3.8263
  193MOL0     H25444   2.169   2.993   8.390  1.8348  1.6829  0.9734
  193MOL0     H25445   2.201   2.861   8.277 -1.8521  2.0998 -1.2406
  193MOL0     H25446   2.287   3.083   8.128 -0.3611  4.4550  0.4669
  193MOL0     H25447   2.162   3.142   8.221 -0.4221  1.3089 -2.4906
  193MOL0     H25448   2.096   3.044   8.003 -4.6534  1.6593 -0.0382
  193MOL0     H25449   2.133   2.893   8.052  0.6911  1.2186 -1.8037
  193MOL0     H25450   1.942   3.070   8.201  0.9071 -1.5851  4.4297
  193MOL0     H25451   1.980   2.917   8.249  2.4818  1.3659  0.2900
  193MOL0     H25452   1.906   2.814   8.026 -3.3947 -1.5389  0.0929
  193MOL0     H25453   1.855   2.970   7.970  1.0353  0.5001 -0.2825
  193MOL0     H25454   1.727   2.869   8.230  0.6474  2.7030  0.5752
  193MOL0     H25455   1.689   3.004   8.118  2.8539  1.1388  1.8063
  193MOL0     H25456   1.629   2.855   7.945  0.4406  3.9074  0.8268
  193MOL0     H25457   1.526   2.838   8.089 -1.1364 -2.5994 -0.1514
  193MOL0     H25458   2.527   2.679   8.263  1.9878 -1.3139 -1.4851
  193MOL0     H25459   2.772   2.640   8.253 -2.3364  0.7811 -2.9167
  193MOL0     H25460   3.091   2.831   8.632 -0.0526 -0.5513 -2.8388
  193MOL0     H25461   3.321   2.841   8.736  0.4570 -0.2118  2.1689
  193MOL0     H25462   4.404   1.427   9.678 -2.3565 -2.7686 -2.0471
  193MOL0     H25463   4.611   1.287   9.616 -1.3340  0.2964  2.6633
  193MOL0     H25464   4.959   1.207   9.526  0.4581 -0.3492 -0.7823
  193MOL0     H25465   5.144   1.055   9.519  2.9165  1.5140 -2.1059
  193MOL0     H25466   5.066   0.763   9.445  0.5392 -2.0465 -3.0430
  193MOL0     H25467   5.203   0.844   9.533 -0.9768  1.4837 -0.0282
  193MOL0     H25468   5.183   0.594   9.366 -1.8848 -1.8665  2.8654
  193MOL0     H25469   5.341   0.680   9.364  2.3168 -2.7470  4.1419
  193MOL0     H25470   5.337   0.490   9.511  0.4243  0.0963 -0.9850
  193MOL0     H25471   5.222   0.585   9.617 -0.8595  0.1122 -1.0812
  193MOL0     H25472   5.516   0.643   9.547  1.0924  1.2689 -2.1602
  193MOL0     H25473   5.398   0.779   9.558  2.9581 -0.5809 -0.2201
  193MOL0     H25474   5.541   0.695   9.942  0.3581  0.1764 -0.1482
  193MOL0     H25475   5.048   0.953   9.111  1.3828 -0.6804  0.7968
  193MOL0     H25476   4.860   1.106   9.113 -0.4024  2.7381  0.4528
  194MOL0     O25477   3.147   7.914  10.480  0.4187 -0.7677  0.3627
  194MOL0     C25478   3.072   7.831  10.532 -0.2784 -0.0393 -0.5242
  194MOL0     O25479   3.095   7.778  10.662 -0.0984  0.4872  0.5554
  194MOL0     C25480   3.220   7.774  10.719 -0.0736  0.3270 -0.6785
  194MOL0     C25481   3.342   7.769  10.654  0.4825 -0.1984 -0.8518
  194MOL0     C25482   3.464   7.761  10.733  0.1848  0.4810  0.9252
  194MOL0     C25483   3.463   7.765  10.872  0.2880 -0.2158  0.6914
  194MOL0     O25484   3.585   7.767  10.931  0.4779  0.3319 -0.3857
  194MOL0     C25485   3.577   7.785  11.075 -0.1532  0.6707  0.4092
  194MOL0     C25486   3.713   7.727  11.128  0.5885 -0.2194  0.0269
  194MOL0     C25487   3.828   7.804  11.086 -0.0885 -0.2333 -0.5781
  194MOL0     C25488   3.962   7.752  11.145 -0.4442  0.1248  0.0751
  194MOL0     C25489   4.082   7.808  11.066 -0.2606 -1.0641 -0.5961
  194MOL0     C25490   4.211   7.761  11.125 -0.4252  0.4137 -1.1330
  194MOL0     C25491   4.338   7.806  11.050 -0.5506  0.8321 -0.2384
  194MOL0     C25492   4.450   7.705  11.092 -0.3001 -0.5882  0.1995
  194MOL0     N25493   4.580   7.744  11.019 -0.4142  0.8325 -0.0165
  194MOL0     C25494   4.683   7.824  11.058 -0.3960  1.2193  0.1512
  194MOL0     C25495   4.790   7.800  10.972  0.7999  1.2892  1.0720
  194MOL0     C25496   4.927   7.852  10.972 -0.0302 -0.2826 -0.7460
  194MOL0     C25497   4.933   7.987  10.897  1.1697  0.9870 -0.2697
  194MOL0     C25498   5.038   8.072  10.958 -0.2779  0.4447 -0.1321
  194MOL0     C25499   5.026   8.208  10.886 -0.6501  1.0335 -0.4887
  194MOL0     O25500   5.147   8.283  10.875  0.1980  0.2578 -0.1182
  194MOL0     C25501   5.233   8.288  10.978 -0.2376  1.2006  0.4429
  194MOL0     C25502   5.195   8.324  11.111 -0.0191 -0.4229 -0.0846
  194MOL0     C25503   5.293   8.329  11.214 -0.1379 -0.0580 -0.4731
  194MOL0     C25504   5.429   8.296  11.190 -0.0018 -0.3106  0.2306
  194MOL0     C25505   5.536   8.294  11.285  0.7408 -0.0010 -0.2191
  194MOL0     O25506   5.633   8.193  11.266 -0.1011 -0.1602 -0.6571
  194MOL0     C25507   5.741   8.170  11.348 -0.1043 -0.0049 -0.4646
  194MOL0     C25508   5.797   8.258  11.436  0.2196  0.0410  0.0899
  194MOL0     C25509   5.907   8.221  11.505  0.0333 -0.0443  0.2517
  194MOL0     C25510   5.954   8.087  11.507  0.2138 -0.3911 -0.6144
  194MOL0     O25511   6.045   8.052  11.609 -0.4217 -0.5724 -0.0097
  194MOL0     C25512   6.173   8.113  11.585 -0.1398  1.4578  0.9870
  194MOL0     C25513   6.277   8.000  11.569 -0.4550  0.8553 -0.3547
  194MOL0     C25514   6.423   8.037  11.589  0.2854  0.2461 -0.0980
  194MOL0     C25515   6.447   8.047  11.736 -1.2548 -0.8245 -0.5728
  194MOL0     C25516   6.588   8.109  11.761  0.2816  0.1723 -0.3868
  194MOL0     C25517   6.709   8.040  11.701  0.1616  0.3715 -0.2990
  194MOL0     C25518   6.730   7.898  11.756  0.3845  0.3333 -0.2447
  194MOL0     C25519   6.847   7.846  11.682  0.1132  0.1236  1.0092
  194MOL0    Cl25520   6.852   7.862  11.501 -0.3740 -0.5188 -0.6252
  194MOL0     C25521   5.899   7.988  11.420 -0.5140 -0.6836 -0.1319
  194MOL0     C25522   5.792   8.041  11.342  0.6740  0.7542 -0.2536
  194MOL0     O25523   5.531   8.369  11.376 -0.6355 -0.0026 -0.1013
  194MOL0     C25524   5.466   8.269  11.058  0.8666  0.5406  0.8380
  194MOL0     C25525   5.367   8.262  10.953 -1.3531  0.2962 -0.0679
  194MOL0     N25526   4.752   7.692  10.888 -0.2981  0.3363  0.6186
  194MOL0     N25527   4.636   7.658  10.928  0.5194  0.2310 -0.1773
  194MOL0     C25528   3.332   7.773  10.933  0.6487  0.3696  0.5888
  194MOL0     C25529   3.217   7.772  10.859 -0.2375  0.0299 -0.2499
  194MOL0     C25530   2.945   7.804  10.457  0.8445  0.5452  0.0565
  194MOL0     C25531   2.852   7.719  10.511  0.2183 -1.5211  0.0393
  194MOL0     C25532   2.734   7.690  10.448 -0.5723  0.0684  0.9614
  194MOL0     C25533   2.701   7.747  10.321 -0.3214 -0.4349 -0.0846
  194MOL0     O25534   2.577   7.725  10.268  0.2167 -0.1486 -1.1641
  194MOL0     C25535   2.545   7.776  10.136  0.5542  0.7454  0.7149
  194MOL0     C25536   2.472   7.908  10.146  0.1836  1.3356  0.5543
  194MOL0     C25537   2.447   7.962  10.002 -0.1527  0.4586  0.9823
  194MOL0     C25538   2.353   8.084   9.986 -0.7746  0.3855  0.8461
  194MOL0     C25539   2.228   8.037  10.041 -0.1109 -0.9333  0.2869
  194MOL0     C25540   2.118   8.007  10.084  0.3530 -0.3451 -0.6106
  194MOL0     C25541   2.796   7.829  10.259  0.1332  0.0716 -0.0489
  194MOL0     C25542   2.917   7.853  10.326 -0.0253 -0.0419  0.1785
  194MOL0     H25543   3.340   7.775  10.545 -3.6979  2.3345 -0.8676
  194MOL0     H25544   3.562   7.766  10.686 -0.7549 -2.3294 -1.6958
  194MOL0     H25545   3.497   7.722  11.112 -1.8301  1.6859 -1.3007
  194MOL0     H25546   3.559   7.888  11.107 -0.9088  0.2891  1.2529
  194MOL0     H25547   3.723   7.622  11.102 -0.4695 -0.3230  0.0025
  194MOL0     H25548   3.712   7.735  11.237 -1.5021  0.5324 -0.0011
  194MOL0     H25549   3.821   7.909  11.118  1.9167 -0.7347  1.8227
  194MOL0     H25550   3.838   7.803  10.977 -0.4911  1.8009 -0.6820
  194MOL0     H25551   3.981   7.772  11.250  1.0814 -3.7017  0.6879
  194MOL0     H25552   3.972   7.643  11.140 -0.8027 -0.0213  1.8633
  194MOL0     H25553   4.069   7.917  11.074  1.6795 -0.9056  1.5103
  194MOL0     H25554   4.075   7.785  10.960 -0.4744 -0.6283 -0.6821
  194MOL0     H25555   4.202   7.653  11.119 -3.1248  0.2318  2.5992
  194MOL0     H25556   4.222   7.798  11.227  0.6866  0.5197 -1.2762
  194MOL0     H25557   4.317   7.784  10.945 -0.2918  0.6312 -0.2497
  194MOL0     H25558   4.358   7.912  11.066  1.4338  0.6143 -0.9799
  194MOL0     H25559   4.430   7.602  11.061  0.8131 -1.0576  0.9982
  194MOL0     H25560   4.468   7.708  11.199 -3.3784 -1.0376  0.8268
  194MOL0     H25561   4.672   7.885  11.147 -1.1526  1.7706 -0.3048
  194MOL0     H25562   4.998   7.787  10.920  0.1461  0.3961 -1.3782
  194MOL0     H25563   4.958   7.871  11.075 -0.4957  1.0095 -0.8241
  194MOL0     H25564   4.836   8.036  10.910  1.0358  1.0162 -1.2829
  194MOL0     H25565   4.947   7.973  10.789  1.0939  1.4493 -0.3408
  194MOL0     H25566   5.026   8.095  11.064  1.3013 -1.7125  0.5806
  194MOL0     H25567   5.135   8.026  10.939 -0.7912 -0.4352 -0.6942
  194MOL0     H25568   4.939   8.267  10.916 -0.0447  3.6599 -3.4012
  194MOL0     H25569   4.996   8.183  10.784  0.2622  1.7645 -0.9487
  194MOL0     H25570   5.089   8.348  11.120  0.0080 -0.2742 -0.1560
  194MOL0     H25571   5.265   8.365  11.313  1.7298  1.4037 -0.4052
  194MOL0     H25572   5.756   8.358  11.448  0.2077  0.0234  0.2001
  194MOL0     H25573   5.944   8.303  11.566 -0.3130  0.7422 -0.5925
  194MOL0     H25574   6.193   8.189  11.662 -1.2033  3.0593 -0.2530
  194MOL0     H25575   6.175   8.166  11.490 -3.1164 -0.4746 -0.2908
  194MOL0     H25576   6.279   7.960  11.467  3.8463 -3.1478  0.8886
  194MOL0     H25577   6.250   7.915  11.633  0.5829  0.4305 -0.4514
  194MOL0     H25578   6.453   8.121  11.526 -1.2856  1.7884  1.0844
  194MOL0     H25579   6.483   7.953  11.554 -0.2432 -1.5878  3.0243
  194MOL0     H25580   6.375   8.117  11.780  0.1996  3.4411 -4.2367
  194MOL0     H25581   6.440   7.949  11.784 -0.9527  0.6425  2.7488
  194MOL0     H25582   6.609   8.124  11.867 -0.5574  1.3055 -0.3615
  194MOL0     H25583   6.594   8.208  11.715  1.6766  0.6718  0.7733
  194MOL0     H25584   6.805   8.089  11.717  1.6731 -1.8318 -2.0097
  194MOL0     H25585   6.698   8.029  11.592 -0.4966  0.6452 -0.2629
  194MOL0     H25586   6.749   7.900  11.863 -0.7763  0.3539 -0.0250
  194MOL0     H25587   6.639   7.846  11.724 -0.5274  1.6741  0.0802
  194MOL0     H25588   6.848   7.737  11.689 -2.1183 -0.2133 -2.0330
  194MOL0     H25589   6.939   7.890  11.721  1.5577 -0.1850 -1.8392
  194MOL0     H25590   5.931   7.884  11.416 -0.0559 -0.5040 -2.0277
  194MOL0     H25591   5.742   7.990  11.260 -3.7077  1.2858  1.7972
  194MOL0     H25592   5.568   8.242  11.031  0.5646  0.0726  0.1288
  194MOL0     H25593   5.392   8.228  10.853 -0.9517 -0.0417  0.1459
  194MOL0     H25594   3.317   7.792  11.039 -0.6812 -5.0554  1.6613
  194MOL0     H25595   3.120   7.780  10.906  0.3526 -0.2356  1.0593
  194MOL0     H25596   2.862   7.659  10.601 -0.6252 -1.8952 -0.1028
  194MOL0     H25597   2.682   7.608  10.494 -1.3570 -0.0477 -0.0802
  194MOL0     H25598   2.473   7.710  10.087  0.7147  0.8567  0.3313
  194MOL0     H25599   2.632   7.778  10.069 -0.0485  0.5274 -0.0826
  194MOL0     H25600   2.379   7.882  10.197 -1.6119  0.8806 -2.7055
  194MOL0     H25601   2.541   7.979  10.192  1.1000 -0.4715  2.0751
  194MOL0     H25602   2.427   7.888   9.924  2.4251  0.4441  0.2257
  194MOL0     H25603   2.546   7.994   9.968 -0.6708 -0.6649 -1.8459
  194MOL0     H25604   2.398   8.167  10.042  3.2343 -2.4603  2.3161
  194MOL0     H25605   2.339   8.115   9.882  1.4923  1.4011  0.7883
  194MOL0     H25606   2.021   7.992  10.129  0.5924 -0.7546 -0.2274
  194MOL0     H25607   2.773   7.865  10.159 -2.2289 -2.2486 -0.4563
  194MOL0     H25608   2.989   7.921  10.282 -0.3027 -0.0117 -0.2325
  195MOL0     O25609   6.007   7.176   9.251 -0.7448  0.3630  0.2846
  195MOL0     C25610   6.014   7.073   9.173  0.0853  0.1800 -0.7392
  195MOL0     O25611   6.134   7.032   9.109  0.9669 -0.3395  0.4515
  195MOL0     C25612   6.260   7.080   9.144  0.6339 -0.4688  0.1055
  195MOL0     C25613   6.367   7.042   9.065  0.3306  0.0490 -0.0812
  195MOL0     C25614   6.495   7.067   9.099 -0.8677  0.1340  0.5967
  195MOL0     C25615   6.521   7.132   9.215 -0.2179  0.0940 -0.1639
  195MOL0     O25616   6.645   7.173   9.256  0.5395 -0.9630  0.3621
  195MOL0     C25617   6.756   7.081   9.258 -0.6010  0.5184  0.5796
  195MOL0     C25618   6.821   7.089   9.394  0.4621 -0.4596 -0.0509
  195MOL0     C25619   6.952   7.007   9.408 -0.7375 -0.4992 -0.6697
  195MOL0     C25620   7.020   7.038   9.540 -0.0541  1.1762 -0.1488
  195MOL0     C25621   7.177   7.023   9.535 -0.2997 -0.7709  0.1708
  195MOL0     C25622   7.227   7.142   9.444 -0.3270  0.1454 -1.4514
  195MOL0     C25623   7.308   7.246   9.525 -0.7309 -0.8803  0.4434
  195MOL0     C25624   7.338   7.382   9.441  0.5826 -0.1516 -0.2610
  195MOL0     N25625   7.210   7.458   9.430  0.2562 -0.2464  0.2530
  195MOL0     C25626   7.121   7.425   9.331  0.2921 -0.8524  0.8364
  195MOL0     C25627   7.011   7.511   9.350 -0.4685 -0.3340  0.3946
  195MOL0     C25628   6.895   7.520   9.246  0.2808  1.0608 -0.1076
  195MOL0     C25629   6.824   7.659   9.240  0.0522  0.0689 -0.2831
  195MOL0     C25630   6.689   7.663   9.164 -0.7758 -0.9624  1.0672
  195MOL0     C25631   6.616   7.804   9.169  0.7612  0.1971  0.1029
  195MOL0     O25632   6.525   7.808   9.054  0.4664 -0.1924  0.6520
  195MOL0     C25633   6.405   7.879   9.068 -0.2375 -0.2790  0.3893
  195MOL0     C25634   6.387   7.976   8.970 -0.1054  0.0647  0.5307
  195MOL0     C25635   6.265   8.048   8.967 -0.4447  0.0156  0.4193
  195MOL0     C25636   6.165   8.010   9.055 -0.1623  0.1691  0.1714
  195MOL0     C25637   6.026   8.064   9.037 -0.1401  1.0631 -1.0157
  195MOL0     O25638   5.916   8.001   9.091 -0.1480  0.0336  0.0311
  195MOL0     C25639   5.792   8.065   9.094 -0.1720  0.1336 -0.4303
  195MOL0     C25640   5.743   8.140   8.993  0.0519 -0.3597 -0.3838
  195MOL0     C25641   5.609   8.199   9.003 -0.8161  0.2053 -0.7254
  195MOL0     C25642   5.534   8.193   9.120 -1.1550  0.8039 -0.0804
  195MOL0     O25643   5.411   8.256   9.127 -0.2331  0.0883 -0.2343
  195MOL0     C25644   5.329   8.252   9.002  0.8091  0.3966 -0.4272
  195MOL0     C25645   5.181   8.302   9.010  0.0433 -0.2366 -0.2628
  195MOL0     C25646   5.090   8.233   8.908  0.7636 -0.2272 -0.0781
  195MOL0     C25647   4.943   8.221   8.963  0.1682 -0.0942 -0.1518
  195MOL0     C25648   4.854   8.116   8.883 -0.0221 -0.4467 -0.1236
  195MOL0     C25649   4.850   7.978   8.942  0.9147 -0.4077 -0.1094
  195MOL0     C25650   4.740   7.885   8.879  0.2866 -0.5025  0.1938
  195MOL0     C25651   4.795   7.788   8.781  0.6747  0.3240  0.3253
  195MOL0    Cl25652   4.648   7.719   8.727  0.1202  0.0664 -0.2934
  195MOL0     C25653   5.594   8.120   9.227  0.4477 -0.3694 -0.4362
  195MOL0     C25654   5.717   8.054   9.213 -0.1676  0.4141 -0.0135
  195MOL0     O25655   6.027   8.170   8.973  0.4324 -0.1914 -0.4333
  195MOL0     C25656   6.191   7.910   9.150  0.5459 -0.6150 -0.2775
  195MOL0     C25657   6.311   7.835   9.153  0.2983 -0.0945 -0.4453
  195MOL0     N25658   7.043   7.588   9.460  0.0077 -0.2506  0.3491
  195MOL0     N25659   7.156   7.555   9.507 -0.2963  0.2915 -0.5416
  195MOL0     C25660   6.419   7.161   9.304  0.0522  0.1714 -0.2908
  195MOL0     C25661   6.289   7.133   9.271  0.5239 -0.2301  0.0099
  195MOL0     C25662   5.884   6.985   9.155  0.3656  0.0004 -0.3478
  195MOL0     C25663   5.881   6.868   9.066  0.2264  0.6642 -0.5490
  195MOL0     C25664   5.752   6.816   9.031  0.3835 -0.1612 -0.0083
  195MOL0     C25665   5.637   6.863   9.088  0.3049 -0.2383  1.0473
  195MOL0     O25666   5.504   6.832   9.059  0.1896  0.2766  0.5274
  195MOL0     C25667   5.485   6.698   9.002 -0.4167  0.1146 -0.3998
  195MOL0     C25668   5.448   6.703   8.854 -0.3535  0.7714  0.5830
  195MOL0     C25669   5.477   6.574   8.776 -0.4276 -0.3058  0.5287
  195MOL0     C25670   5.438   6.586   8.622  0.1928 -0.5265  0.7847
  195MOL0     C25671   5.302   6.568   8.599 -0.2909 -0.2554 -0.4430
  195MOL0     C25672   5.186   6.540   8.579  0.6073  0.5474 -0.0980
  195MOL0     C25673   5.650   6.966   9.182 -0.2800 -0.5808 -1.0514
  195MOL0     C25674   5.769   7.021   9.221  0.1142 -0.2626 -1.1276
  195MOL0     H25675   6.352   6.986   8.973 -0.2938 -2.2472  1.3428
  195MOL0     H25676   6.578   7.034   9.038 -0.9448 -2.4437  1.7706
  195MOL0     H25677   6.822   7.106   9.175 -0.9851 -0.9151 -0.2053
  195MOL0     H25678   6.716   6.982   9.234 -1.3719  0.4802  1.9454
  195MOL0     H25679   6.752   7.063   9.474 -0.8006 -0.0830 -0.9936
  195MOL0     H25680   6.849   7.193   9.411  1.7970 -0.9042  0.6759
  195MOL0     H25681   7.015   7.031   9.322  1.6423 -1.9230  0.5875
  195MOL0     H25682   6.918   6.904   9.397 -0.6024 -0.4775 -1.3756
  195MOL0     H25683   6.989   7.136   9.577  2.8464  1.4478  1.9336
  195MOL0     H25684   6.981   6.969   9.614 -0.2392  1.2964 -0.1341
  195MOL0     H25685   7.211   6.925   9.498  0.5819  0.3332 -2.1399
  195MOL0     H25686   7.225   7.026   9.633 -0.3974 -1.4540  0.2489
  195MOL0     H25687   7.137   7.192   9.405 -0.9509 -0.6908 -1.1214
  195MOL0     H25688   7.284   7.096   9.363  1.0440 -0.5232 -0.1446
  195MOL0     H25689   7.250   7.279   9.611  1.4464  1.6147  1.0829
  195MOL0     H25690   7.390   7.192   9.573 -1.4755 -0.6024  2.0895
  195MOL0     H25691   7.386   7.361   9.345 -2.3801 -1.1188 -1.6552
  195MOL0     H25692   7.409   7.423   9.513 -0.5092 -4.1480  3.5916
  195MOL0     H25693   7.142   7.353   9.252 -2.7702 -1.0847  0.0924
  195MOL0     H25694   6.824   7.438   9.259 -1.6975  1.7549 -4.7289
  195MOL0     H25695   6.944   7.508   9.148 -1.9872 -3.0116 -0.9975
  195MOL0     H25696   6.888   7.729   9.185  0.5889 -2.2236 -2.8551
  195MOL0     H25697   6.815   7.695   9.342 -1.0445  1.0205 -0.6962
  195MOL0     H25698   6.696   7.645   9.056 -0.6001  2.0061  0.5086
  195MOL0     H25699   6.627   7.579   9.197 -0.5582 -2.2484 -1.4718
  195MOL0     H25700   6.689   7.885   9.172  0.0917  0.7593  2.1034
  195MOL0     H25701   6.556   7.807   9.260 -2.0431 -1.4543 -1.5698
  195MOL0     H25702   6.456   7.999   8.890 -1.4406 -3.2893 -1.7978
  195MOL0     H25703   6.277   8.136   8.905  0.1311  0.1830  0.7606
  195MOL0     H25704   5.800   8.156   8.902  1.9650  0.7224  0.9294
  195MOL0     H25705   5.572   8.255   8.917 -0.0435  0.5286 -0.8494
  195MOL0     H25706   5.338   8.148   8.969  1.9666 -0.0162  1.0552
  195MOL0     H25707   5.379   8.310   8.924  2.4216  1.0648  1.0253
  195MOL0     H25708   5.172   8.411   9.001 -0.4577 -0.3786 -1.6828
  195MOL0     H25709   5.151   8.276   9.112 -1.5437 -3.1407 -1.3469
  195MOL0     H25710   5.134   8.136   8.883  0.5338 -0.1982 -0.6087
  195MOL0     H25711   5.100   8.285   8.813  1.9400 -1.5911 -0.7384
  195MOL0     H25712   4.936   8.215   9.072 -1.6478  2.9449  0.0169
  195MOL0     H25713   4.917   8.326   8.951  2.4305  0.8467  2.3029
  195MOL0     H25714   4.890   8.128   8.781 -2.7285  1.4288 -0.9698
  195MOL0     H25715   4.750   8.150   8.884 -1.3090 -3.9178 -0.8524
  195MOL0     H25716   4.816   7.987   9.045 -1.1672 -3.7574 -0.3455
  195MOL0     H25717   4.950   7.934   8.939  1.0325 -0.4798  2.7045
  195MOL0     H25718   4.702   7.824   8.961 -0.0994  2.7943  2.6345
  195MOL0     H25719   4.661   7.949   8.838 -0.8700 -3.4594 -2.6559
  195MOL0     H25720   4.869   7.720   8.822  0.5908  0.1054  0.1206
  195MOL0     H25721   4.848   7.841   8.702  1.6816 -1.6891 -0.4359
  195MOL0     H25722   5.539   8.126   9.320  4.3782  1.3383  2.0510
  195MOL0     H25723   5.769   8.012   9.298 -0.3501  0.2882  0.0365
  195MOL0     H25724   6.109   7.880   9.214 -0.3688  0.9390 -0.6477
  195MOL0     H25725   6.336   7.752   9.219  2.1528  0.5973 -0.2120
  195MOL0     H25726   6.449   7.210   9.396  3.0085 -1.4869 -0.2438
  195MOL0     H25727   6.217   7.145   9.352  1.9454 -2.4585  1.7294
  195MOL0     H25728   5.975   6.829   9.027 -0.6124 -0.9282 -1.0510
  195MOL0     H25729   5.741   6.739   8.956  1.0737  0.4282 -0.7284
  195MOL0     H25730   5.401   6.655   9.056  2.0258 -1.4528  2.4287
  195MOL0     H25731   5.564   6.628   9.031 -2.2948 -2.4144 -1.0774
  195MOL0     H25732   5.343   6.732   8.845  0.1026  1.7761 -2.6918
  195MOL0     H25733   5.498   6.792   8.814 -1.0813  1.4691  1.1936
  195MOL0     H25734   5.426   6.485   8.813 -1.1115 -0.0812  0.1568
  195MOL0     H25735   5.584   6.550   8.775  0.1915  2.1444  1.2459
  195MOL0     H25736   5.474   6.685   8.591  0.7491 -1.1111 -0.4802
  195MOL0     H25737   5.496   6.509   8.572 -0.8002 -0.9480  0.2595
  195MOL0     H25738   5.083   6.514   8.571  1.1574 -2.5252  1.4833
  195MOL0     H25739   5.561   6.999   9.234 -0.5874 -2.3878 -0.3325
  195MOL0     H25740   5.766   7.102   9.293 -0.4813  0.8473 -2.3528
  196MOL0     O25741   5.322   1.062   6.840 -0.2366  0.3893 -0.5006
  196MOL0     C25742   5.254   1.161   6.804 -0.4700  0.5100 -0.5591
  196MOL0     O25743   5.307   1.278   6.764 -0.1403  0.2511  0.0480
  196MOL0     C25744   5.440   1.301   6.781 -0.2870 -0.1669  0.1731
  196MOL0     C25745   5.525   1.312   6.672  0.1553 -0.0557  0.4362
  196MOL0     C25746   5.664   1.343   6.691  1.3587  0.1203 -0.2621
  196MOL0     C25747   5.714   1.348   6.820 -1.2618  0.2785  0.1528
  196MOL0     O25748   5.843   1.392   6.834 -0.5732  0.4314  0.2676
  196MOL0     C25749   5.920   1.317   6.938  0.4726 -0.9258  0.5807
  196MOL0     C25750   6.048   1.399   6.977  0.2258  0.1636  0.4296
  196MOL0     C25751   6.161   1.380   6.875 -0.0811 -0.4116  0.2802
  196MOL0     C25752   6.250   1.504   6.864  0.0803 -0.1929  0.0694
  196MOL0     C25753   6.369   1.478   6.767 -0.8177 -1.2439 -0.2105
  196MOL0     C25754   6.484   1.384   6.813 -0.0870  0.3645  0.0112
  196MOL0     C25755   6.602   1.378   6.712 -0.1562  0.1167 -0.6277
  196MOL0     C25756   6.670   1.514   6.691 -0.2571  0.2773 -1.2085
  196MOL0     N25757   6.816   1.520   6.728 -0.6862 -1.1089  0.9853
  196MOL0     C25758   6.869   1.600   6.835 -0.0173  0.3950  0.0089
  196MOL0     C25759   7.003   1.577   6.822 -0.2075 -0.5647  0.0016
  196MOL0     C25760   7.120   1.626   6.899 -0.2466 -0.2177 -0.2618
  196MOL0     C25761   7.161   1.773   6.865 -0.4229 -0.7354 -0.3963
  196MOL0     C25762   7.217   1.764   6.715  0.0123  0.6354  0.0218
  196MOL0     C25763   7.294   1.892   6.692  0.7208 -0.1902  0.4254
  196MOL0     O25764   7.209   2.001   6.707  0.5773  0.1775  0.5252
  196MOL0     C25765   7.114   2.020   6.604  0.5793 -0.1914 -0.2082
  196MOL0     C25766   7.165   2.075   6.487 -0.1216 -0.0355 -0.2417
  196MOL0     C25767   7.079   2.099   6.382  0.5366  0.8677  0.6796
  196MOL0     C25768   6.940   2.074   6.388 -0.2459 -0.3191 -0.2241
  196MOL0     C25769   6.857   2.088   6.264 -0.6073 -0.6765 -0.4084
  196MOL0     O25770   6.726   2.088   6.285 -0.4421 -0.2110 -1.0911
  196MOL0     C25771   6.639   2.072   6.181  0.0191 -0.0313 -0.3537
  196MOL0     C25772   6.634   2.149   6.059  1.3437 -0.3001 -0.6362
  196MOL0     C25773   6.524   2.142   5.973 -0.9303  0.1117 -0.2428
  196MOL0     C25774   6.411   2.049   6.006  0.2188  0.0687  0.5685
  196MOL0     O25775   6.309   2.016   5.911  0.0691  0.1710  0.4048
  196MOL0     C25776   6.177   2.062   5.943 -0.3495  0.1987  0.1843
  196MOL0     C25777   6.104   2.118   5.823 -0.2540  0.0395  0.0288
  196MOL0     C25778   6.115   2.025   5.703  0.1406  0.0442 -0.2254
  196MOL0     C25779   6.006   2.072   5.598  0.0644 -0.0216  0.4827
  196MOL0     C25780   5.865   2.000   5.623 -0.0978  0.6883  0.2955
  196MOL0     C25781   5.752   2.071   5.540 -0.9713 -0.1250  0.5425
  196MOL0     C25782   5.619   1.987   5.524  0.2374 -0.6547  0.0456
  196MOL0     C25783   5.504   2.064   5.449 -0.3708  0.0216 -0.0698
  196MOL0    Cl25784   5.506   2.241   5.490 -0.4994  0.0113 -0.4722
  196MOL0     C25785   6.410   1.983   6.123 -0.2601 -0.4480  0.6042
  196MOL0     C25786   6.528   1.995   6.209  0.6007  0.4583  0.5097
  196MOL0     O25787   6.912   2.095   6.157  0.1991  0.4364  0.0209
  196MOL0     C25788   6.891   2.026   6.512  0.3022  0.6686  1.1809
  196MOL0     C25789   6.977   1.990   6.620  0.3066 -0.0551  0.6807
  196MOL0     N25790   7.026   1.494   6.714  0.3237  0.0551  0.0703
  196MOL0     N25791   6.916   1.466   6.659 -0.3229  0.6146  0.4433
  196MOL0     C25792   5.630   1.334   6.928  0.5627  0.2446  0.0679
  196MOL0     C25793   5.492   1.318   6.908  0.3585  0.7221 -0.4652
  196MOL0     C25794   5.108   1.157   6.801 -0.2874  0.1729 -0.4356
  196MOL0     C25795   5.046   1.029   6.800  0.2282  0.0492  1.1120
  196MOL0     C25796   4.908   1.021   6.779 -0.6741 -0.0618  0.2949
  196MOL0     C25797   4.833   1.138   6.789  0.8860 -0.1221  0.3037
  196MOL0     O25798   4.695   1.139   6.792  0.1551  0.4032  0.3275
  196MOL0     C25799   4.629   1.044   6.863  0.4065 -0.2281  0.4559
  196MOL0     C25800   4.474   1.073   6.857 -0.8890  0.4136 -0.1021
  196MOL0     C25801   4.429   1.204   6.917 -0.9498 -0.0606 -0.9549
  196MOL0     C25802   4.469   1.226   7.067  0.2035  0.7366  0.5842
  196MOL0     C25803   4.427   1.113   7.158  0.2740 -0.0734  0.5024
  196MOL0     C25804   4.391   1.025   7.235 -0.1101  0.2978  0.4092
  196MOL0     C25805   4.892   1.260   6.799  0.6721  0.1360  0.1886
  196MOL0     C25806   5.032   1.276   6.809 -0.2351 -0.0559  1.1241
  196MOL0     H25807   5.477   1.304   6.575 -1.0875 -1.2149  1.1117
  196MOL0     H25808   5.735   1.353   6.609  1.4926 -3.0940 -0.6581
  196MOL0     H25809   5.938   1.218   6.895  2.2696  0.1221 -1.2675
  196MOL0     H25810   5.863   1.316   7.031 -1.2866  2.0793 -0.3345
  196MOL0     H25811   6.079   1.383   7.081 -0.0734 -0.2277  0.4641
  196MOL0     H25812   6.012   1.502   6.979 -1.8467 -0.5164  0.7948
  196MOL0     H25813   6.126   1.359   6.773 -1.3541 -2.2368  1.0488
  196MOL0     H25814   6.221   1.297   6.912 -0.4071 -1.7757 -2.0428
  196MOL0     H25815   6.189   1.592   6.842  1.9282  1.7067  2.0446
  196MOL0     H25816   6.304   1.518   6.958 -0.8245  0.9430  0.4375
  196MOL0     H25817   6.417   1.576   6.759 -1.8023 -0.7086  0.2127
  196MOL0     H25818   6.330   1.451   6.668 -0.2991  0.6884 -0.9901
  196MOL0     H25819   6.446   1.281   6.808 -0.0986  0.3776 -0.1709
  196MOL0     H25820   6.504   1.415   6.916 -1.5653 -0.2534  0.5196
  196MOL0     H25821   6.675   1.308   6.753 -1.3242 -1.1892 -0.7143
  196MOL0     H25822   6.561   1.346   6.617 -0.0348  0.4725 -0.8016
  196MOL0     H25823   6.623   1.577   6.767  0.3347  0.1822 -0.7586
  196MOL0     H25824   6.652   1.547   6.588  1.8576 -2.8007 -2.7275
  196MOL0     H25825   6.825   1.663   6.911 -0.3318 -0.4553  0.5524
  196MOL0     H25826   7.206   1.559   6.884 -1.6354 -1.7508 -1.7484
  196MOL0     H25827   7.087   1.639   7.002  0.1999  0.4881 -0.1958
  196MOL0     H25828   7.234   1.802   6.941 -0.9129 -2.3968  0.7505
  196MOL0     H25829   7.075   1.841   6.857  1.0969  1.1715 -1.5903
  196MOL0     H25830   7.280   1.674   6.705  0.5063  0.8459  1.0997
  196MOL0     H25831   7.137   1.750   6.642 -0.3563  0.1514  0.5101
  196MOL0     H25832   7.341   1.890   6.594  1.0764  1.8427  0.5224
  196MOL0     H25833   7.377   1.899   6.763 -1.0661  2.8050  2.4549
  196MOL0     H25834   7.269   2.092   6.463 -0.0023 -1.6320 -0.9487
  196MOL0     H25835   7.124   2.130   6.289  0.4571 -2.7990 -0.7346
  196MOL0     H25836   6.715   2.215   6.031  1.3690 -0.4133 -0.8272
  196MOL0     H25837   6.503   2.203   5.886 -0.4765 -0.3271 -0.6640
  196MOL0     H25838   6.162   2.142   6.017 -2.1239  1.0155 -1.0124
  196MOL0     H25839   6.119   1.974   5.974 -1.0573 -0.0789 -1.7986
  196MOL0     H25840   6.151   2.209   5.785  2.2241 -1.8843 -1.8546
  196MOL0     H25841   5.999   2.128   5.854 -1.4267 -5.0047 -1.2660
  196MOL0     H25842   6.104   1.919   5.732 -0.8082  0.5243  1.3207
  196MOL0     H25843   6.214   2.022   5.657  0.3000 -3.4442  0.0758
  196MOL0     H25844   5.992   2.180   5.607  2.6418  0.4934 -0.8106
  196MOL0     H25845   6.049   2.057   5.498  0.8437  2.3885  0.3973
  196MOL0     H25846   5.836   1.991   5.728 -1.1707 -0.0165 -0.0377
  196MOL0     H25847   5.878   1.894   5.600  2.8039  1.0949 -0.3420
  196MOL0     H25848   5.776   2.087   5.435 -2.1165 -4.1181 -0.4972
  196MOL0     H25849   5.740   2.168   5.591  0.2533  0.0005  0.6112
  196MOL0     H25850   5.632   1.894   5.467 -0.1027  1.3242 -3.5277
  196MOL0     H25851   5.576   1.971   5.624 -5.8782  0.6205 -1.9480
  196MOL0     H25852   5.408   2.018   5.475  0.1802 -0.6081  0.9062
  196MOL0     H25853   5.536   2.049   5.346 -0.8515  1.9927 -0.5469
  196MOL0     H25854   6.332   1.913   6.151 -2.8158  2.7990  2.2232
  196MOL0     H25855   6.514   1.934   6.298 -4.4225  0.1472 -0.1741
  196MOL0     H25856   6.787   2.001   6.532  0.2169 -1.4363 -1.3447
  196MOL0     H25857   6.950   1.931   6.708  1.7998 -1.1283  0.4748
  196MOL0     H25858   5.658   1.332   7.033 -1.5683 -5.1928  0.8724
  196MOL0     H25859   5.428   1.300   6.994 -2.3021  0.1870 -2.4176
  196MOL0     H25860   5.108   0.941   6.800  2.8004  1.7361  0.6095
  196MOL0     H25861   4.866   0.921   6.791 -2.1430  0.6795  1.6207
  196MOL0     H25862   4.671   1.042   6.964  0.9566  0.5560  0.2579
  196MOL0     H25863   4.652   0.944   6.825  1.2824  0.1746 -0.1025
  196MOL0     H25864   4.438   1.069   6.754 -0.9518  1.2533 -0.1253
  196MOL0     H25865   4.431   0.986   6.906  1.1909 -0.4636  0.2596
  196MOL0     H25866   4.320   1.202   6.907 -0.7708 -1.5054 -3.3297
  196MOL0     H25867   4.474   1.278   6.850 -0.9090  0.0678 -0.7877
  196MOL0     H25868   4.577   1.234   7.082  0.6703 -0.4484 -1.6222
  196MOL0     H25869   4.426   1.315   7.112  2.4651  1.7842  0.8172
  196MOL0     H25870   4.363   0.941   7.295  2.4425  1.5743  3.6648
  196MOL0     H25871   4.831   1.349   6.812  1.3153  0.5040  0.7421
  196MOL0     H25872   5.074   1.375   6.822 -1.4919  0.6237  0.2574
  197MOL0     O25873   6.833  10.854   6.245  0.1154 -0.5381 -0.5440
  197MOL0     C25874   6.917  10.864   6.163  0.4949  0.0768 -2.2148
  197MOL0     O25875   6.925  10.968   6.078  0.7123 -0.0592  0.5382
  197MOL0     C25876   6.834  11.065   6.067  0.4020 -0.2256 -0.5042
  197MOL0     C25877   6.871  11.169   5.987  0.1239 -0.1069  0.0232
  197MOL0     C25878   6.789  11.281   5.964  0.1096 -0.3928 -0.2562
  197MOL0     C25879   6.666  11.292   6.023  0.0261 -0.2571 -0.1959
  197MOL0     O25880   6.603  11.410   6.018  0.8922  0.5923 -0.2784
  197MOL0     C25881   6.476  11.395   5.951 -0.7113  0.1060  0.5663
  197MOL0     C25882   6.449  11.526   5.880 -0.3931 -1.4734 -0.1630
  197MOL0     C25883   6.323  11.534   5.801  1.0133 -0.5987  0.7819
  197MOL0     C25884   6.193  11.477   5.870 -0.0564 -0.8743 -0.1173
  197MOL0     C25885   6.075  11.511   5.778  0.6136 -0.7186 -0.2150
  197MOL0     C25886   5.952  11.447   5.843  0.0295 -0.1703 -0.9436
  197MOL0     C25887   5.828  11.503   5.770  0.2602  0.4455  0.1334
  197MOL0     C25888   5.691  11.485   5.833 -1.0365  0.3060  0.0114
  197MOL0     N25889   5.675  11.347   5.881  0.7183  0.3668  0.0147
  197MOL0     C25890   5.659  11.312   6.017  0.9105 -0.0321  0.1580
  197MOL0     C25891   5.628  11.172   6.014 -0.0187  0.4033  0.4120
  197MOL0     C25892   5.597  11.092   6.139  0.7265  0.1385  0.4690
  197MOL0     C25893   5.448  11.076   6.164  0.7453  0.2271 -0.0362
  197MOL0     C25894   5.380  10.960   6.098  0.5271 -0.5979  0.2558
  197MOL0     C25895   5.224  10.986   6.096 -0.2265 -0.2558  0.1282
  197MOL0     O25896   5.182  11.016   6.231  0.7261  0.2848  0.3634
  197MOL0     C25897   5.049  11.050   6.246 -0.1417  0.2990  0.1796
  197MOL0     C25898   5.022  11.143   6.346 -0.0692  0.8708 -0.0673
  197MOL0     C25899   4.894  11.196   6.365 -0.1170 -0.3269  0.4349
  197MOL0     C25900   4.783  11.140   6.297 -0.9864  0.3589 -0.9940
  197MOL0     C25901   4.640  11.177   6.308  0.0543 -0.6171 -0.3517
  197MOL0     O25902   4.551  11.126   6.216 -0.5693  0.2821  0.3323
  197MOL0     C25903   4.415  11.153   6.237 -0.3536  0.6498  0.1278
  197MOL0     C25904   4.320  11.045   6.249  0.4102 -0.3763  0.1676
  197MOL0     C25905   4.181  11.063   6.250 -0.4258  0.7047 -0.4919
  197MOL0     C25906   4.130  11.190   6.253  0.3537 -0.8156  0.0148
  197MOL0     O25907   3.999  11.222   6.279  0.1038  0.4911  0.2454
  197MOL0     C25908   3.903  11.132   6.328  0.1154 -0.2067  0.4819
  197MOL0     C25909   3.828  11.053   6.226 -0.6365  0.5840 -0.7713
  197MOL0     C25910   3.700  11.133   6.198  0.0616  0.3039  0.0339
  197MOL0     C25911   3.722  11.271   6.121  0.1235 -0.1899  1.0776
  197MOL0     C25912   3.582  11.333   6.132 -0.8857  0.4412 -0.3438
  197MOL0     C25913   3.474  11.272   6.049 -0.6722 -0.3233  0.0499
  197MOL0     C25914   3.340  11.353   6.080 -0.2091  0.5929  0.6292
  197MOL0     C25915   3.224  11.307   5.998 -0.5048  0.0532  0.4936
  197MOL0    Cl25916   3.068  11.346   6.077  0.0117  0.3146 -0.5636
  197MOL0     C25917   4.221  11.299   6.235  0.7035 -0.1437  0.0066
  197MOL0     C25918   4.364  11.280   6.227  0.2477  0.4591 -1.2576
  197MOL0     O25919   4.613  11.248   6.408  0.5855 -0.1782  0.0223
  197MOL0     C25920   4.816  11.058   6.191  0.2268 -0.9124  0.4600
  197MOL0     C25921   4.945  11.020   6.163  0.3093  0.7052  0.0188
  197MOL0     N25922   5.640  11.132   5.882  0.1588  0.0201  0.2122
  197MOL0     N25923   5.679  11.231   5.814 -0.1158 -0.4185  0.7983
  197MOL0     C25924   6.626  11.191   6.112 -0.5592 -0.3534 -0.4494
  197MOL0     C25925   6.703  11.073   6.129 -0.4139 -0.1473  1.2085
  197MOL0     C25926   7.037  10.775   6.181 -0.1965 -0.6431  0.8395
  197MOL0     C25927   7.023  10.651   6.250  0.1825 -0.8449  1.0808
  197MOL0     C25928   7.118  10.553   6.242  0.0246 -0.2491  0.0334
  197MOL0     C25929   7.233  10.583   6.180 -0.4141  0.2636  0.7978
  197MOL0     O25930   7.328  10.488   6.175 -0.0601  0.3375  0.2923
  197MOL0     C25931   7.453  10.519   6.105 -0.8179 -0.1743 -0.4394
  197MOL0     C25932   7.546  10.400   6.144 -0.2606  0.1181  1.4118
  197MOL0     C25933   7.538  10.378   6.294 -0.4209 -0.2349  0.3081
  197MOL0     C25934   7.666  10.351   6.369  0.5727  0.3535 -0.8432
  197MOL0     C25935   7.727  10.219   6.347  0.3175  0.7051 -0.0702
  197MOL0     C25936   7.770  10.115   6.309  0.7922  0.3349 -0.5218
  197MOL0     C25937   7.252  10.709   6.128  0.8546 -0.4083 -0.2285
  197MOL0     C25938   7.156  10.815   6.121 -0.8603  0.6880  0.1969
  197MOL0     H25939   6.970  11.184   5.946 -0.4965  0.8018 -1.2065
  197MOL0     H25940   6.828  11.344   5.886 -1.8503 -1.7087 -2.4474
  197MOL0     H25941   6.402  11.378   6.030 -0.8957 -2.3565 -0.0364
  197MOL0     H25942   6.480  11.310   5.882 -0.4950 -0.5589  1.3785
  197MOL0     H25943   6.533  11.561   5.819 -0.7540  0.0401  0.1701
  197MOL0     H25944   6.443  11.594   5.965  0.7358 -3.3636  1.5451
  197MOL0     H25945   6.344  11.488   5.705 -0.0669 -1.1759  0.8005
  197MOL0     H25946   6.314  11.639   5.772  2.5604  0.0626  2.5234
  197MOL0     H25947   6.214  11.372   5.894  0.1588 -0.1937  3.1825
  197MOL0     H25948   6.188  11.536   5.962  0.1844  1.3481 -1.4643
  197MOL0     H25949   6.084  11.468   5.678 -2.9117  0.4384 -1.1898
  197MOL0     H25950   6.060  11.619   5.769 -2.7054 -1.1187 -0.9617
  197MOL0     H25951   5.960  11.467   5.950 -1.4241 -0.7587 -0.7008
  197MOL0     H25952   5.951  11.338   5.831 -2.7952 -0.5065  1.2349
  197MOL0     H25953   5.841  11.610   5.756 -2.3932  0.9065  0.6678
  197MOL0     H25954   5.816  11.461   5.670  1.2375 -2.4080  1.0907
  197MOL0     H25955   5.615  11.498   5.755  1.1676  2.7604 -1.8903
  197MOL0     H25956   5.673  11.559   5.912 -2.1570 -1.5560  1.5924
  197MOL0     H25957   5.665  11.382   6.100  1.2792  3.3619 -2.5236
  197MOL0     H25958   5.649  11.138   6.224 -0.8071 -0.9726  2.0500
  197MOL0     H25959   5.632  10.990   6.121  0.7943  0.6832 -3.4517
  197MOL0     H25960   5.404  11.171   6.132  0.8322  0.6412  1.0219
  197MOL0     H25961   5.433  11.074   6.273  0.4978  1.1949 -0.0417
  197MOL0     H25962   5.412  10.958   5.993 -0.1172  1.3160 -0.0084
  197MOL0     H25963   5.391  10.870   6.159 -1.4090 -1.1340 -0.1275
  197MOL0     H25964   5.184  10.890   6.063 -0.1766 -0.0022 -0.6746
  197MOL0     H25965   5.189  11.074   6.042  0.4004  0.9106  1.5456
  197MOL0     H25966   5.099  11.182   6.411  0.8790 -1.0555  0.0400
  197MOL0     H25967   4.887  11.274   6.440  3.4084 -1.0908  1.7728
  197MOL0     H25968   4.346  10.940   6.238  0.1863 -0.3159 -1.0519
  197MOL0     H25969   4.120  10.976   6.271  0.7267  0.3229  1.5874
  197MOL0     H25970   3.835  11.186   6.393 -0.4484 -1.3413  0.8661
  197MOL0     H25971   3.945  11.065   6.403 -1.8497 -1.7728  0.2885
  197MOL0     H25972   3.813  10.949   6.258  4.2945 -0.1932 -0.2211
  197MOL0     H25973   3.887  11.057   6.134 -0.5092  1.3979 -0.6630
  197MOL0     H25974   3.654  11.158   6.294 -2.7232 -0.4812 -0.9977
  197MOL0     H25975   3.623  11.077   6.144 -1.5463  2.4139 -0.0013
  197MOL0     H25976   3.799  11.337   6.162 -0.6609  2.3455 -1.2942
  197MOL0     H25977   3.743  11.257   6.015 -0.5813  2.2512  0.5601
  197MOL0     H25978   3.601  11.433   6.092 -0.4948  0.4489 -0.1481
  197MOL0     H25979   3.548  11.341   6.236  0.8398 -3.4606  0.7015
  197MOL0     H25980   3.459  11.166   6.073 -0.5383 -0.5885 -0.9739
  197MOL0     H25981   3.500  11.278   5.943 -0.7194 -1.0716 -0.0129
  197MOL0     H25982   3.311  11.342   6.185 -1.9528 -1.9032 -0.0017
  197MOL0     H25983   3.361  11.459   6.064 -0.1768  0.4075 -0.6023
  197MOL0     H25984   3.241  11.199   5.989  1.3577  0.3483  0.2327
  197MOL0     H25985   3.229  11.352   5.898  1.6022 -0.4914  0.3249
  197MOL0     H25986   4.181  11.396   6.209  1.6442 -0.0895 -1.3702
  197MOL0     H25987   4.430  11.362   6.204  2.7680 -1.3395 -0.9120
  197MOL0     H25988   4.740  11.024   6.122  0.1575  2.0588 -1.0818
  197MOL0     H25989   4.947  10.961   6.073 -1.5267 -0.8442  0.9425
  197MOL0     H25990   6.528  11.189   6.158 -0.4742 -0.0334 -0.2502
  197MOL0     H25991   6.660  11.001   6.197  0.0965 -0.3028  1.3729
  197MOL0     H25992   6.934  10.624   6.306 -0.9524 -1.2418 -0.8249
  197MOL0     H25993   7.093  10.457   6.285  2.0000 -0.0670  1.7263
  197MOL0     H25994   7.502  10.604   6.154  0.8335  0.5398 -3.1162
  197MOL0     H25995   7.440  10.545   6.000  1.6541  0.2002 -0.6937
  197MOL0     H25996   7.515  10.300   6.111 -0.4462  0.9331 -1.1203
  197MOL0     H25997   7.647  10.411   6.104 -1.6242 -0.0099 -2.4992
  197MOL0     H25998   7.459  10.305   6.315  1.3670 -2.8695 -1.5970
  197MOL0     H25999   7.501  10.470   6.341 -1.3236 -0.5184  0.1721
  197MOL0     H26000   7.744  10.426   6.355  2.2462 -1.4950 -1.8987
  197MOL0     H26001   7.636  10.353   6.474  3.6186 -0.5386  0.1206
  197MOL0     H26002   7.830  10.035   6.269  0.3223 -1.1852  1.6283
  197MOL0     H26003   7.343  10.737   6.075 -0.1887  0.6381 -1.5510
  197MOL0     H26004   7.183  10.907   6.071 -3.5416  0.8245 -1.1783
  198MOL0     O26005   3.408   3.959  10.551 -0.6737  0.3009  0.1826
  198MOL0     C26006   3.460   4.072  10.578 -0.7027  0.1062  0.0783
  198MOL0     O26007   3.385   4.186  10.589  0.3191  0.3123  0.0819
  198MOL0     C26008   3.245   4.167  10.585 -0.5132  0.5790 -0.6307
  198MOL0     C26009   3.163   4.095  10.677 -0.0229  0.9729 -0.2822
  198MOL0     C26010   3.030   4.078  10.654  0.4992  0.5407 -0.6760
  198MOL0     C26011   2.965   4.151  10.557 -0.2676  0.1174 -0.2489
  198MOL0     O26012   2.827   4.152  10.540  0.2409  0.2698  0.0162
  198MOL0     C26013   2.748   4.215  10.637 -1.5307  0.4844 -0.0245
  198MOL0     C26014   2.619   4.265  10.576  0.2759  0.2687 -1.0118
  198MOL0     C26015   2.527   4.152  10.524 -0.6874  0.5072 -0.8015
  198MOL0     C26016   2.381   4.174  10.511  0.1513 -0.3402  0.7900
  198MOL0     C26017   2.323   4.065  10.427  0.0172  0.5055  0.6024
  198MOL0     C26018   2.170   4.079  10.405 -0.0330  0.0841 -0.4148
  198MOL0     C26019   2.117   3.997  10.286 -0.2035 -0.2477  0.5525
  198MOL0     C26020   1.970   4.008  10.269  0.4690 -0.8967  0.8552
  198MOL0     N26021   1.913   3.940  10.154 -0.9098  0.2177  0.5522
  198MOL0     C26022   1.808   3.981  10.074  0.0681  0.6478 -0.2574
  198MOL0     C26023   1.776   3.872   9.995 -1.4453  0.5662 -0.0036
  198MOL0     C26024   1.656   3.831   9.913  0.2727 -0.7507 -0.5127
  198MOL0     C26025   1.581   3.708   9.956  1.0082 -0.8327 -0.3938
  198MOL0     C26026   1.463   3.733  10.059  0.2097  0.6795 -0.2052
  198MOL0     C26027   1.330   3.771  10.000  0.2349 -0.6774  0.3440
  198MOL0     O26028   1.229   3.775  10.099 -0.0678 -0.0870  0.4893
  198MOL0     C26029   1.102   3.775  10.059  1.3040 -0.9977 -0.0569
  198MOL0     C26030   1.056   3.844   9.946  0.6804  0.5489  0.1426
  198MOL0     C26031   0.922   3.832   9.907  0.4685 -0.2973 -0.3991
  198MOL0     C26032   0.834   3.750   9.983 -0.4012  0.0387  0.3985
  198MOL0     C26033   0.702   3.727   9.927  0.1832 -0.2880 -0.1610
  198MOL0     O26034   0.643   3.611   9.971 -0.0265  0.4708 -0.6807
  198MOL0     C26035   0.523   3.556   9.934 -0.1919 -1.0819  0.3257
  198MOL0     C26036   0.474   3.566   9.807  0.2798  0.1933  0.2560
  198MOL0     C26037   0.344   3.509   9.774 -0.1303  0.1329  0.7108
  198MOL0     C26038   0.280   3.442   9.879  0.3625  0.6095 -0.1392
  198MOL0     O26039   0.145   3.407   9.864  0.7662  0.6004  0.3335
  198MOL0     C26040   0.093   3.347   9.744 -0.6123  0.4163  0.5532
  198MOL0     C26041  -0.058   3.312   9.748  0.0125 -0.9299  0.9646
  198MOL0     C26042  -0.144   3.443   9.733 -0.5496  0.6204  0.1267
  198MOL0     C26043  -0.296   3.399   9.736 -0.5097  1.0904  0.2050
  198MOL0     C26044  -0.386   3.528   9.759 -0.4088 -0.1969  0.7530
  198MOL0     C26045  -0.534   3.489   9.770  0.5765 -0.7607  0.1279
  198MOL0     C26046  -0.626   3.611   9.807  0.2886 -0.0176  0.3206
  198MOL0     C26047  -0.755   3.565   9.873  0.6983 -0.5095 -0.3839
  198MOL0    Cl26048  -0.889   3.676   9.835  0.4817  0.4254 -0.0424
  198MOL0     C26049   0.335   3.419  10.006  0.8009 -1.4546 -0.0310
  198MOL0     C26050   0.457   3.478  10.025 -0.1739  0.0487  0.1091
  198MOL0     O26051   0.649   3.810   9.858  0.6017 -0.0724  0.3873
  198MOL0     C26052   0.886   3.681  10.095  0.2857 -0.0098 -1.0084
  198MOL0     C26053   1.019   3.693  10.129  0.0994 -0.6033 -0.8672
  198MOL0     N26054   1.874   3.777  10.019 -0.4378 -0.4066  0.2898
  198MOL0     N26055   1.955   3.818  10.109 -0.1171  0.1398 -0.2546
  198MOL0     C26056   3.038   4.218  10.463  0.1548  0.2985 -0.0185
  198MOL0     C26057   3.180   4.222  10.473  0.4348 -0.1384 -1.0414
  198MOL0     C26058   3.606   4.070  10.620  0.3459 -0.2551  0.5326
  198MOL0     C26059   3.671   4.191  10.657 -0.1864  0.9891 -0.1543
  198MOL0     C26060   3.806   4.192  10.682 -0.4506  0.9026 -1.4141
  198MOL0     C26061   3.891   4.082  10.653  0.0315 -0.4841 -0.2237
  198MOL0     O26062   4.022   4.077  10.681 -0.4661 -0.2765 -0.2735
  198MOL0     C26063   4.114   4.181  10.666  0.2377 -0.7059 -0.0910
  198MOL0     C26064   4.255   4.128  10.706  0.6122 -0.4806  0.4590
  198MOL0     C26065   4.291   4.105  10.855  0.2342 -0.2428  0.9131
  198MOL0     C26066   4.437   4.075  10.845  0.6317 -0.2002 -0.4745
  198MOL0     C26067   4.491   4.050  10.978 -0.2441 -0.2620  0.3936
  198MOL0     C26068   4.540   4.021  11.084 -0.3083 -0.3384  0.4268
  198MOL0     C26069   3.827   3.967  10.615  0.2827  1.0446 -0.1467
  198MOL0     C26070   3.685   3.960  10.593 -1.7605  0.9978  0.3220
  198MOL0     H26071   3.211   4.048  10.762  1.1631  1.7185 -0.5213
  198MOL0     H26072   2.967   4.025  10.724  0.4673  4.7356  2.8642
  198MOL0     H26073   2.799   4.304  10.675  0.6948 -1.2624  1.3349
  198MOL0     H26074   2.726   4.153  10.724  1.4614  2.7330  2.5874
  198MOL0     H26075   2.634   4.344  10.501  0.1309  2.6193  1.3145
  198MOL0     H26076   2.580   4.322  10.661 -0.7949  0.1125 -1.3842
  198MOL0     H26077   2.538   4.068  10.594 -2.0723  0.0376 -1.1273
  198MOL0     H26078   2.562   4.119  10.426  1.3773 -2.2560  0.7238
  198MOL0     H26079   2.333   4.168  10.609  0.6411 -1.4791  0.9804
  198MOL0     H26080   2.365   4.274  10.470  0.0280  0.2830  2.3097
  198MOL0     H26081   2.341   3.969  10.475 -0.1604  0.8335  1.3528
  198MOL0     H26082   2.375   4.065  10.331 -3.1408 -0.1448 -1.2810
  198MOL0     H26083   2.163   4.186  10.384  0.5161  0.1922 -0.0625
  198MOL0     H26084   2.122   4.063  10.502 -1.2643  2.5057 -0.5346
  198MOL0     H26085   2.165   4.031  10.193  2.1679 -2.1182  0.9887
  198MOL0     H26086   2.131   3.889  10.298 -2.2970 -0.4675  1.3362
  198MOL0     H26087   1.939   4.112  10.251  2.0080 -0.5513  0.0222
  198MOL0     H26088   1.924   3.967  10.359  0.8659  1.2855  2.1447
  198MOL0     H26089   1.750   4.069  10.101  0.6106  0.4821  1.6591
  198MOL0     H26090   1.692   3.788   9.819  1.2620 -0.0428 -0.4799
  198MOL0     H26091   1.597   3.922   9.897  2.3533  0.5105 -1.3726
  198MOL0     H26092   1.649   3.640  10.007  0.5756 -1.7174 -0.9758
  198MOL0     H26093   1.551   3.644   9.872 -0.2742  0.9178 -1.3515
  198MOL0     H26094   1.440   3.638  10.108 -2.7536  2.3762  1.9955
  198MOL0     H26095   1.484   3.802  10.141  0.4421 -1.4771  1.6478
  198MOL0     H26096   1.311   3.705   9.915  0.1902  0.9049 -0.9329
  198MOL0     H26097   1.335   3.869   9.951 -2.5715  0.3619  1.8979
  198MOL0     H26098   1.122   3.888   9.871  0.7158 -1.7353 -1.2332
  198MOL0     H26099   0.886   3.873   9.813  3.0779 -0.7666 -1.6987
  198MOL0     H26100   0.542   3.612   9.736  0.0795  2.4303  1.3961
  198MOL0     H26101   0.303   3.513   9.674  0.1848 -2.3753  0.4054
  198MOL0     H26102   0.156   3.259   9.732 -0.8285  0.3791 -0.3242
  198MOL0     H26103   0.113   3.408   9.655 -2.5020 -0.0363 -0.2292
  198MOL0     H26104  -0.080   3.261   9.843 -2.3795  0.2278  1.1201
  198MOL0     H26105  -0.081   3.249   9.662 -1.4036 -0.6312  1.0869
  198MOL0     H26106  -0.122   3.492   9.638 -1.1879 -0.8842 -0.8337
  198MOL0     H26107  -0.119   3.518   9.808  2.3664 -0.2261  0.1361
  198MOL0     H26108  -0.321   3.348   9.642  0.0705 -0.5523  0.9185
  198MOL0     H26109  -0.308   3.333   9.822 -2.3317 -0.4748 -1.1530
  198MOL0     H26110  -0.360   3.596   9.678  0.0271 -2.2934 -0.9580
  198MOL0     H26111  -0.366   3.577   9.855 -0.4787  0.0265  0.6537
  198MOL0     H26112  -0.531   3.415   9.851 -0.3518 -1.2741 -0.2832
  198MOL0     H26113  -0.566   3.445   9.675  1.1530  0.5239 -0.6860
  198MOL0     H26114  -0.579   3.676   9.881  4.0356  1.9307 -3.3444
  198MOL0     H26115  -0.657   3.665   9.718  2.0183 -1.8837 -1.5287
  198MOL0     H26116  -0.745   3.552   9.981  1.4975  1.1221 -0.2271
  198MOL0     H26117  -0.785   3.470   9.828 -2.6748  0.1466  0.2580
  198MOL0     H26118   0.274   3.378  10.086  0.1254 -1.0316 -0.3201
  198MOL0     H26119   0.502   3.483  10.124  2.2212 -1.7454 -0.7835
  198MOL0     H26120   0.828   3.613  10.157  1.8132 -0.8314 -0.4068
  198MOL0     H26121   1.048   3.644  10.221 -1.4156 -0.7347 -0.4312
  198MOL0     H26122   2.987   4.277  10.387 -0.1216 -0.3059 -0.3051
  198MOL0     H26123   3.231   4.278  10.394 -0.4495  0.1746 -1.4050
  198MOL0     H26124   3.613   4.280  10.681  1.1422  1.9918 -0.5343
  198MOL0     H26125   3.849   4.278  10.733  1.6057 -0.6839 -0.2767
  198MOL0     H26126   4.088   4.254  10.742  1.7674 -1.0639  0.8079
  198MOL0     H26127   4.116   4.223  10.565 -3.1376  0.7662  0.3348
  198MOL0     H26128   4.259   4.033  10.652  0.7973 -1.1229  1.5949
  198MOL0     H26129   4.319   4.202  10.657 -2.1432  1.3216 -0.6787
  198MOL0     H26130   4.247   4.007  10.877 -0.0399 -0.7648 -1.6157
  198MOL0     H26131   4.253   4.187  10.916  0.6488 -0.8625  2.0334
  198MOL0     H26132   4.450   3.984  10.786  1.8746 -0.3021 -0.0763
  198MOL0     H26133   4.493   4.154  10.795  0.1338  0.0740 -0.6002
  198MOL0     H26134   4.596   3.995  11.171  2.5196  2.9673 -0.1704
  198MOL0     H26135   3.884   3.875  10.611  0.7768  0.6883  5.7875
  198MOL0     H26136   3.637   3.877  10.542  0.0590  0.0177  0.1238
  199MOL0     O26137   2.050   9.114  10.023 -0.4655  0.4771  0.0336
  199MOL0     C26138   2.136   9.042   9.970 -0.9739 -0.5456 -0.0889
  199MOL0     O26139   2.111   8.936   9.892 -0.2149  0.3975 -0.2264
  199MOL0     C26140   1.987   8.892   9.865 -0.1833 -0.5604 -0.8411
  199MOL0     C26141   1.931   8.890   9.743  0.3499  0.5540 -0.2070
  199MOL0     C26142   1.810   8.817   9.721 -0.7832 -0.0007  0.3496
  199MOL0     C26143   1.735   8.770   9.827 -0.6653 -0.0631 -0.2573
  199MOL0     O26144   1.614   8.717   9.797  0.7675 -0.0561 -0.1368
  199MOL0     C26145   1.526   8.671   9.901  0.0455  0.8164  0.0921
  199MOL0     C26146   1.404   8.618   9.826 -0.1784  1.2957 -0.5376
  199MOL0     C26147   1.307   8.537   9.906  0.8754  0.4992 -0.0405
  199MOL0     C26148   1.229   8.600  10.015 -0.5445 -0.4900 -0.2523
  199MOL0     C26149   1.091   8.534  10.039 -0.7827 -0.4558  0.1021
  199MOL0     C26150   1.014   8.631  10.132 -0.1494 -0.1317 -0.5641
  199MOL0     C26151   0.879   8.581  10.161 -0.0763 -0.5060 -0.2759
  199MOL0     C26152   0.777   8.589  10.048 -0.4930  0.6854  0.4238
  199MOL0     N26153   0.643   8.621  10.096 -0.2609 -0.4178  0.4332
  199MOL0     C26154   0.603   8.745  10.145 -0.6914  0.6330  0.4220
  199MOL0     C26155   0.483   8.727  10.211  0.4405  0.4548  0.5802
  199MOL0     C26156   0.414   8.839  10.291 -0.5687 -0.1374 -0.0068
  199MOL0     C26157   0.278   8.792  10.347  0.9301 -0.4170 -0.2157
  199MOL0     C26158   0.165   8.792  10.243  0.4507 -0.1215  0.5859
  199MOL0     C26159   0.025   8.795  10.300  0.5341  0.4321  0.0000
  199MOL0     O26160   0.005   8.926  10.357 -0.1709 -0.9720  0.1018
  199MOL0     C26161  -0.120   8.959  10.400  0.0410 -0.4727  0.3691
  199MOL0     C26162  -0.226   8.861  10.419  0.0459  0.2271  0.8213
  199MOL0     C26163  -0.355   8.906  10.451 -0.5668  0.9898 -0.1641
  199MOL0     C26164  -0.378   9.043  10.485  0.2993  0.3251 -1.3401
  199MOL0     C26165  -0.508   9.091  10.536 -0.3717 -0.4478 -1.0149
  199MOL0     O26166  -0.602   8.998  10.516  0.1944  0.3914  0.3182
  199MOL0     C26167  -0.740   9.013  10.548 -0.6837 -0.1137  0.1268
  199MOL0     C26168  -0.821   9.128  10.528  0.4230 -0.7995  0.8282
  199MOL0     C26169  -0.963   9.122  10.519 -0.5983 -0.3891  0.9458
  199MOL0     C26170  -1.028   9.001  10.542  0.3648  0.2432  0.2800
  199MOL0     O26171  -1.166   8.990  10.523 -0.1433  0.4402  0.4048
  199MOL0     C26172  -1.234   8.867  10.565 -0.4293 -0.6379 -0.1808
  199MOL0     C26173  -1.378   8.901  10.560  0.1004 -0.8291 -0.3549
  199MOL0     C26174  -1.467   8.784  10.594 -0.2750 -0.3969 -0.3324
  199MOL0     C26175  -1.612   8.833  10.623 -0.1319  0.5963 -0.0609
  199MOL0     C26176  -1.636   8.930  10.742  0.4721 -0.0383  0.3639
  199MOL0     C26177  -1.787   8.968  10.752  0.1534  0.3119  0.3181
  199MOL0     C26178  -1.868   8.862  10.810  0.1092 -0.0091 -0.6550
  199MOL0     C26179  -1.996   8.928  10.876 -0.2098  0.0564  1.0656
  199MOL0    Cl26180  -2.083   9.006  10.736 -0.4189 -0.2352  0.1564
  199MOL0     C26181  -0.948   8.888  10.568 -0.6961 -0.4073 -0.3223
  199MOL0     C26182  -0.809   8.892  10.566 -0.2218  1.2747  0.4332
  199MOL0     O26183  -0.519   9.212  10.560 -0.3679  0.5255 -0.4928
  199MOL0     C26184  -0.261   9.129  10.486  0.5642 -0.2505  0.0812
  199MOL0     C26185  -0.129   9.086  10.449 -0.8786  0.3128  0.0491
  199MOL0     N26186   0.454   8.592  10.206  0.6284  0.7863  0.1692
  199MOL0     N26187   0.551   8.532  10.146 -0.4270 -0.4447  0.0602
  199MOL0     C26188   1.800   8.765   9.950  0.0864 -0.0767 -0.0414
  199MOL0     C26189   1.918   8.825   9.976  0.4505 -0.0345  0.6503
  199MOL0     C26190   2.281   9.071  10.005 -0.4067  0.8298 -0.2841
  199MOL0     C26191   2.381   9.060   9.906 -0.1812  0.8519 -0.1630
  199MOL0     C26192   2.519   9.085   9.941 -0.4257  0.3283  1.6062
  199MOL0     C26193   2.549   9.123  10.070  0.7543 -0.6190  0.1267
  199MOL0     O26194   2.679   9.153  10.111 -0.1114  0.3806 -0.2664
  199MOL0     C26195   2.776   9.051  10.093  0.9316 -0.2420 -0.0775
  199MOL0     C26196   2.888   9.070  10.186 -0.5039 -1.2640 -0.3480
  199MOL0     C26197   2.991   8.963  10.186  0.5101  0.5411 -0.1319
  199MOL0     C26198   3.106   9.002  10.287  1.1501  0.5455  0.6593
  199MOL0     C26199   3.159   9.134  10.266 -0.1403  0.1451  0.1777
  199MOL0     C26200   3.207   9.240  10.255 -0.2620 -0.1037 -0.0077
  199MOL0     C26201   2.444   9.132  10.165 -0.2313 -0.4702 -0.0248
  199MOL0     C26202   2.310   9.120  10.135  0.2420 -0.5262  0.1547
  199MOL0     H26203   1.983   8.929   9.656 -0.4444  0.9889 -0.5044
  199MOL0     H26204   1.762   8.823   9.624 -0.0094  0.0860 -0.0370
  199MOL0     H26205   1.479   8.742   9.970 -3.3247 -2.1672  1.1638
  199MOL0     H26206   1.561   8.588   9.964 -0.6299 -0.4920 -1.2040
  199MOL0     H26207   1.450   8.549   9.756  2.1467 -0.8477  2.7928
  199MOL0     H26208   1.357   8.695   9.765  1.9397  1.1398 -2.4682
  199MOL0     H26209   1.364   8.453   9.946 -2.0166 -2.1876 -1.1042
  199MOL0     H26210   1.236   8.497   9.833  1.1801 -1.0253  0.4601
  199MOL0     H26211   1.286   8.590  10.108 -1.0090 -0.0176  0.0949
  199MOL0     H26212   1.212   8.702   9.978  0.8174 -0.2452 -0.2556
  199MOL0     H26213   1.113   8.436  10.084  3.9523 -0.8542 -2.3928
  199MOL0     H26214   1.033   8.504   9.952  1.1738 -0.0288 -1.4155
  199MOL0     H26215   1.018   8.734  10.095 -1.2659 -0.2158 -0.9493
  199MOL0     H26216   1.069   8.624  10.226 -0.0493 -0.0622 -0.6168
  199MOL0     H26217   0.889   8.482  10.206  0.5553  0.9357  3.0072
  199MOL0     H26218   0.846   8.643  10.244 -0.3897 -0.8059 -0.1725
  199MOL0     H26219   0.781   8.492   9.997 -0.2052  1.8278 -1.8379
  199MOL0     H26220   0.810   8.663   9.974  0.0913 -0.7052 -0.7663
  199MOL0     H26221   0.651   8.841  10.135 -0.4447  0.2644 -2.7414
  199MOL0     H26222   0.406   8.928  10.228  2.1706 -0.7787 -1.4278
  199MOL0     H26223   0.479   8.868  10.374  1.6835  0.7006 -1.9514
  199MOL0     H26224   0.259   8.859  10.432  2.8413 -1.1699  0.8687
  199MOL0     H26225   0.286   8.691  10.388 -1.5369 -1.9248 -3.1184
  199MOL0     H26226   0.171   8.881  10.178  0.8576 -0.7174 -0.2158
  199MOL0     H26227   0.174   8.710  10.171 -0.5484  1.0133 -0.9023
  199MOL0     H26228   0.015   8.720  10.379  1.8839  3.3818  3.2321
  199MOL0     H26229  -0.044   8.773  10.217 -0.1387  1.8156  0.1669
  199MOL0     H26230  -0.208   8.756  10.400 -0.6289  0.2679 -0.1163
  199MOL0     H26231  -0.436   8.833  10.453  0.2603  0.0478  0.0578
  199MOL0     H26232  -0.772   9.218  10.494 -2.1032 -0.5102 -2.5339
  199MOL0     H26233  -1.028   9.208  10.504 -0.9314 -1.0021 -1.5094
  199MOL0     H26234  -1.213   8.850  10.671  0.0718 -1.3116 -0.3856
  199MOL0     H26235  -1.214   8.782  10.500  0.6851  0.4427 -1.2931
  199MOL0     H26236  -1.409   8.928  10.459  0.4479 -0.2812 -0.3174
  199MOL0     H26237  -1.398   8.989  10.621 -0.4464 -1.3404  0.2219
  199MOL0     H26238  -1.426   8.716  10.669  2.0464 -2.3503 -3.1445
  199MOL0     H26239  -1.481   8.709  10.515 -1.7398 -0.8010  0.2875
  199MOL0     H26240  -1.648   8.884  10.533 -2.2842 -1.7096 -0.6251
  199MOL0     H26241  -1.682   8.752  10.644  1.7738 -0.4761  2.7144
  199MOL0     H26242  -1.575   9.021  10.737  0.0243  0.2057 -1.1327
  199MOL0     H26243  -1.607   8.875  10.832  1.0830 -1.4740 -0.6635
  199MOL0     H26244  -1.828   8.992  10.653  0.2176  0.5836  0.3591
  199MOL0     H26245  -1.797   9.056  10.816  1.5622  0.0335  0.9504
  199MOL0     H26246  -1.887   8.785  10.735 -1.1145  1.9559 -2.4631
  199MOL0     H26247  -1.821   8.815  10.897 -3.2809 -0.0228  1.3544
  199MOL0     H26248  -1.961   9.008  10.941  2.0872 -0.6378  0.7584
  199MOL0     H26249  -2.058   8.848  10.917  1.2017 -1.4926  0.2778
  199MOL0     H26250  -1.003   8.797  10.591  0.3254 -0.7699  0.8269
  199MOL0     H26251  -0.743   8.807  10.578 -0.3925  0.6174 -2.4082
  199MOL0     H26252  -0.279   9.234  10.510  0.8348  0.3431 -2.0689
  199MOL0     H26253  -0.041   9.148  10.462  0.1232 -1.4207  2.0626
  199MOL0     H26254   1.744   8.720  10.032  0.0338  1.3517  0.7339
  199MOL0     H26255   1.963   8.850  10.071 -0.0244  0.8791  0.6407
  199MOL0     H26256   2.359   9.025   9.805  3.5276 -3.6174  0.2235
  199MOL0     H26257   2.587   9.079   9.857 -0.5074  0.2435  1.5462
  199MOL0     H26258   2.812   9.048   9.990  1.3992 -2.4109  0.1051
  199MOL0     H26259   2.728   8.955  10.116 -3.4063  1.4826 -1.0641
  199MOL0     H26260   2.937   9.165  10.164  3.5063 -3.2221 -0.9061
  199MOL0     H26261   2.848   9.070  10.288  0.5333 -2.6293  0.1006
  199MOL0     H26262   3.027   8.943  10.085 -2.2514  0.1431 -1.1207
  199MOL0     H26263   2.949   8.865  10.210  1.5078  0.0690 -0.2704
  199MOL0     H26264   3.064   9.004  10.387  0.5625 -0.1947  0.4392
  199MOL0     H26265   3.185   8.926  10.278 -0.0459 -0.5526 -1.6730
  199MOL0     H26266   3.243   9.339  10.236  0.1478  0.1085  1.7699
  199MOL0     H26267   2.473   9.143  10.269 -0.9083  1.4556  0.0013
  199MOL0     H26268   2.236   9.129  10.214  1.1948  1.0375  0.9136
  200MOL0     O26269   5.353   6.170   6.197 -0.2590  0.0271 -0.5315
  200MOL0     C26270   5.365   6.165   6.321 -0.6268  0.0302 -0.1998
  200MOL0     O26271   5.468   6.219   6.394 -0.0530  0.4885 -0.4176
  200MOL0     C26272   5.562   6.295   6.334  0.4450 -0.4402 -0.5620
  200MOL0     C26273   5.581   6.421   6.387  0.3386 -0.2266 -0.2453
  200MOL0     C26274   5.653   6.518   6.316 -0.1948 -0.1052  0.7032
  200MOL0     C26275   5.720   6.481   6.196  0.8502 -0.8417 -1.0783
  200MOL0     O26276   5.795   6.573   6.123 -0.5044 -0.1621  0.5316
  200MOL0     C26277   5.879   6.657   6.192 -0.0374 -0.0038  0.0679
  200MOL0     C26278   6.014   6.628   6.154  0.5951 -0.2774 -0.9150
  200MOL0     C26279   6.035   6.658   6.001 -0.5420 -0.7745 -0.2444
  200MOL0     C26280   6.186   6.671   5.968 -0.2634  0.0206 -0.2384
  200MOL0     C26281   6.198   6.744   5.831  0.0370  0.9165  0.0085
  200MOL0     C26282   6.132   6.666   5.715 -0.0672  0.4335  0.4702
  200MOL0     C26283   6.181   6.719   5.575 -0.1712  0.4195 -0.4120
  200MOL0     C26284   6.149   6.866   5.549  0.1230  0.9439 -0.1699
  200MOL0     N26285   6.007   6.875   5.544  0.4339  0.2321 -0.7119
  200MOL0     C26286   5.933   6.943   5.642 -0.4232 -0.2858  0.7438
  200MOL0     C26287   5.809   6.957   5.586 -0.6336 -0.5624  1.1221
  200MOL0     C26288   5.683   7.005   5.649 -0.6242 -0.9265 -0.1553
  200MOL0     C26289   5.620   6.893   5.741 -1.1494  0.4356  0.1866
  200MOL0     C26290   5.677   6.899   5.884 -0.0513 -0.3745 -0.4175
  200MOL0     C26291   5.598   6.806   5.978 -0.5397 -0.3632 -0.5783
  200MOL0     O26292   5.470   6.863   6.000 -0.0315 -0.5984  0.1444
  200MOL0     C26293   5.368   6.795   6.068 -0.5857  0.0882 -0.4878
  200MOL0     C26294   5.371   6.676   6.143  0.4754 -0.3772 -0.6707
  200MOL0     C26295   5.256   6.636   6.205 -0.3237 -0.3035  0.0174
  200MOL0     C26296   5.129   6.692   6.177 -0.0654  0.8016 -0.4531
  200MOL0     C26297   5.005   6.627   6.241  0.5673 -0.2250 -0.0800
  200MOL0     O26298   4.884   6.656   6.173 -0.1553  0.1102 -0.1388
  200MOL0     C26299   4.767   6.605   6.223  1.3646  0.5774  0.2073
  200MOL0     C26300   4.726   6.620   6.362 -0.2392  0.8518 -0.3132
  200MOL0     C26301   4.603   6.568   6.412  0.1182  0.8332  0.9725
  200MOL0     C26302   4.508   6.505   6.329 -0.8904  0.4183  0.1827
  200MOL0     O26303   4.394   6.441   6.368 -0.1833  0.5020 -0.7893
  200MOL0     C26304   4.385   6.386   6.500  0.4500  0.8670 -0.5999
  200MOL0     C26305   4.270   6.453   6.588 -0.1190 -0.1749  0.7513
  200MOL0     C26306   4.136   6.438   6.525 -0.3946 -0.1902  0.2934
  200MOL0     C26307   4.043   6.546   6.591 -0.1340 -0.3439  0.2534
  200MOL0     C26308   3.890   6.531   6.575  0.1277  0.3691  0.6869
  200MOL0     C26309   3.816   6.633   6.675 -0.3144  0.9709 -0.7669
  200MOL0     C26310   3.671   6.660   6.631 -0.7245 -0.2405 -0.9033
  200MOL0     C26311   3.612   6.763   6.721  1.0140 -0.3451  0.1057
  200MOL0    Cl26312   3.454   6.807   6.652  0.1171 -0.5712  0.1503
  200MOL0     C26313   4.548   6.488   6.191  0.1605 -0.4385  0.2920
  200MOL0     C26314   4.670   6.539   6.143 -0.1175  0.0848 -0.8289
  200MOL0     O26315   5.023   6.568   6.343  0.5834  0.0626 -0.8843
  200MOL0     C26316   5.122   6.796   6.078  0.1723 -0.1334 -0.0513
  200MOL0     C26317   5.241   6.843   6.030 -1.2026 -0.4406  1.1747
  200MOL0     N26318   5.817   6.886   5.468 -0.1523  0.6714 -0.7983
  200MOL0     N26319   5.931   6.838   5.445 -0.5533 -0.3428  0.2482
  200MOL0     C26320   5.690   6.353   6.145 -0.6931  0.0295 -0.0192
  200MOL0     C26321   5.625   6.262   6.212 -0.1206 -1.0500 -0.2081
  200MOL0     C26322   5.260   6.095   6.398 -0.3919  0.8627  0.1007
  200MOL0     C26323   5.132   6.091   6.345  0.1657 -0.0807 -0.8965
  200MOL0     C26324   5.034   6.021   6.408  0.2458 -0.4215  0.2511
  200MOL0     C26325   5.067   5.964   6.533  0.8897  0.1107  0.4151
  200MOL0     O26326   4.980   5.876   6.597 -0.3353 -0.8519 -0.0480
  200MOL0     C26327   4.869   5.813   6.538 -0.6991  0.7564 -0.0687
  200MOL0     C26328   4.738   5.880   6.583  0.1292  0.2945 -0.8351
  200MOL0     C26329   4.603   5.808   6.555 -0.4117 -0.2588 -0.5283
  200MOL0     C26330   4.619   5.652   6.567 -0.0774  0.5956  0.2027
  200MOL0     C26331   4.664   5.615   6.700  1.0065  0.2596  0.2346
  200MOL0     C26332   4.694   5.594   6.813 -0.8737 -0.9690 -0.6744
  200MOL0     C26333   5.201   5.968   6.587 -0.1567 -0.4926  0.4750
  200MOL0     C26334   5.298   6.029   6.509  0.3697  0.0489 -0.5763
  200MOL0     H26335   5.529   6.439   6.481  1.8257 -0.3456  0.6259
  200MOL0     H26336   5.663   6.619   6.354 -2.1307  0.1202  0.7200
  200MOL0     H26337   5.880   6.661   6.302 -3.0105 -2.2173  0.2918
  200MOL0     H26338   5.863   6.762   6.165 -1.3195 -0.1492  0.1998
  200MOL0     H26339   6.039   6.526   6.184  1.8314 -0.6396 -2.9256
  200MOL0     H26340   6.064   6.706   6.212 -0.3098  0.6737 -1.3853
  200MOL0     H26341   6.001   6.757   5.968  0.3497 -1.5482 -3.9609
  200MOL0     H26342   5.984   6.586   5.938  0.2696  0.3598 -2.3083
  200MOL0     H26343   6.233   6.735   6.043  1.4544 -1.9939  0.5032
  200MOL0     H26344   6.248   6.581   5.972  0.9208  0.8564  1.0262
  200MOL0     H26345   6.301   6.761   5.799  0.8144 -2.8554 -0.0209
  200MOL0     H26346   6.147   6.840   5.837 -0.7110  0.5396 -0.2257
  200MOL0     H26347   6.023   6.668   5.725 -0.0723 -0.1900  0.5508
  200MOL0     H26348   6.151   6.559   5.716 -1.8108  0.0934  0.5187
  200MOL0     H26349   6.289   6.703   5.562  0.1672  0.8732  1.5578
  200MOL0     H26350   6.126   6.659   5.501  0.9231  1.4426 -2.1323
  200MOL0     H26351   6.192   6.887   5.451  0.8460 -1.2601 -0.3723
  200MOL0     H26352   6.197   6.930   5.624 -0.7597  0.2195  1.0417
  200MOL0     H26353   5.968   6.970   5.741  3.6184 -1.0255 -0.2834
  200MOL0     H26354   5.610   7.031   5.572  0.0413  0.2601 -0.4099
  200MOL0     H26355   5.706   7.098   5.701  0.1280 -0.8591 -0.5922
  200MOL0     H26356   5.632   6.791   5.705  2.1316  0.4314  1.0265
  200MOL0     H26357   5.512   6.909   5.749 -1.4417 -1.9855  2.1346
  200MOL0     H26358   5.784   6.878   5.896 -0.4104 -2.0593  0.0774
  200MOL0     H26359   5.662   7.001   5.921  3.4140  0.4302 -0.8679
  200MOL0     H26360   5.656   6.793   6.070 -1.2290 -1.9823 -0.3329
  200MOL0     H26361   5.578   6.713   5.924 -0.3051 -0.9154  0.2659
  200MOL0     H26362   5.463   6.624   6.168  0.2772  0.2665  1.5881
  200MOL0     H26363   5.267   6.557   6.278  0.9470 -2.4319 -2.3441
  200MOL0     H26364   4.798   6.665   6.430  0.6349  0.1326 -0.7545
  200MOL0     H26365   4.590   6.577   6.519  0.1482  1.0983  0.9552
  200MOL0     H26366   4.476   6.395   6.559  0.3897  0.4384 -0.4332
  200MOL0     H26367   4.355   6.281   6.486  0.1819  0.6997  1.0737
  200MOL0     H26368   4.280   6.560   6.607  1.3472 -0.6046  2.7265
  200MOL0     H26369   4.274   6.412   6.690  1.1818  3.7636  2.4650
  200MOL0     H26370   4.095   6.337   6.541 -0.1876 -1.0176 -3.5789
  200MOL0     H26371   4.142   6.443   6.416  1.4724 -1.2118  0.3068
  200MOL0     H26372   4.062   6.556   6.699 -0.5639  0.3121  0.2735
  200MOL0     H26373   4.078   6.642   6.552 -1.1763 -0.9740 -2.4447
  200MOL0     H26374   3.857   6.430   6.600 -0.7357  0.4704  0.0067
  200MOL0     H26375   3.860   6.544   6.470 -1.1009  1.0069  1.0973
  200MOL0     H26376   3.868   6.730   6.672  2.9602 -0.3542  3.4587
  200MOL0     H26377   3.823   6.591   6.775  3.1587 -0.0012 -1.2864
  200MOL0     H26378   3.663   6.698   6.528  1.1993 -0.0099 -1.0070
  200MOL0     H26379   3.615   6.567   6.640  2.4754 -2.1661  0.9101
  200MOL0     H26380   3.681   6.847   6.736  1.8895 -1.2952  1.6010
  200MOL0     H26381   3.597   6.716   6.818  0.4934 -0.3049  0.0473
  200MOL0     H26382   4.478   6.449   6.117  0.2735 -0.0640 -0.0113
  200MOL0     H26383   4.697   6.517   6.040 -0.8595  0.6466 -1.1578
  200MOL0     H26384   5.026   6.828   6.039 -0.6778 -3.8042 -1.3956
  200MOL0     H26385   5.238   6.926   5.960 -2.8684 -0.4804  1.1640
  200MOL0     H26386   5.716   6.323   6.044 -4.2474  1.3880 -1.4997
  200MOL0     H26387   5.608   6.164   6.168 -1.9200 -1.1972  0.7191
  200MOL0     H26388   5.116   6.155   6.259  0.5920  0.6563 -0.4422
  200MOL0     H26389   4.934   6.006   6.366  0.4953  2.1407 -1.5023
  200MOL0     H26390   4.875   5.710   6.574  1.2112  0.7201 -0.3550
  200MOL0     H26391   4.867   5.803   6.429 -3.2801 -0.2840  0.0097
  200MOL0     H26392   4.749   5.880   6.691 -0.7621  0.6357 -0.7384
  200MOL0     H26393   4.734   5.984   6.548  0.3195  0.9740  1.0420
  200MOL0     H26394   4.569   5.826   6.453 -0.0551 -2.2574 -1.0455
  200MOL0     H26395   4.522   5.841   6.622 -0.7070 -0.0069 -1.0061
  200MOL0     H26396   4.520   5.608   6.552  1.0957 -2.7461  1.3852
  200MOL0     H26397   4.683   5.616   6.486 -1.0887 -0.1279 -0.2943
  200MOL0     H26398   4.738   5.571   6.908 -1.6050  0.6381  0.1070
  200MOL0     H26399   5.230   5.921   6.681  0.4789  2.0143  1.6456
  200MOL0     H26400   5.400   6.029   6.546  1.0119  0.3252 -2.2505
  201MOL0     O26401   0.798   5.578   2.617  0.1379  0.4172  0.7186
  201MOL0     C26402   0.858   5.682   2.579 -0.0178 -0.1289  0.0187
  201MOL0     O26403   0.801   5.807   2.554 -0.6289 -0.1298 -0.0048
  201MOL0     C26404   0.663   5.833   2.536  0.1218 -0.3899 -0.3692
  201MOL0     C26405   0.563   5.759   2.597 -0.1999  0.0977  0.0396
  201MOL0     C26406   0.430   5.809   2.603  0.8443  0.3056  0.7710
  201MOL0     C26407   0.397   5.926   2.529 -0.1004  0.6797  0.1563
  201MOL0     O26408   0.271   5.960   2.496 -0.0613 -0.3187 -0.6242
  201MOL0     C26409   0.165   5.912   2.574  0.2210  0.1923 -0.4405
  201MOL0     C26410   0.046   5.989   2.531  0.1626  0.4608  0.3437
  201MOL0     C26411  -0.073   5.906   2.569  0.5823 -1.1380  0.3357
  201MOL0     C26412  -0.202   5.957   2.501 -0.5938  0.2881  0.3248
  201MOL0     C26413  -0.327   5.870   2.531  0.5646  0.2986  0.3215
  201MOL0     C26414  -0.355   5.863   2.682  0.4621 -0.7681 -0.2731
  201MOL0     C26415  -0.475   5.770   2.704 -0.2584  0.3114  0.1241
  201MOL0     C26416  -0.533   5.787   2.848 -0.2064 -0.6333  0.2634
  201MOL0     N26417  -0.668   5.736   2.853  0.0608 -0.5071 -0.3626
  201MOL0     C26418  -0.780   5.809   2.822 -0.6216 -0.4820 -0.0550
  201MOL0     C26419  -0.875   5.720   2.849 -0.1902  0.3335  0.4057
  201MOL0     C26420  -1.022   5.763   2.875 -1.2310  0.6312  0.4742
  201MOL0     C26421  -1.052   5.850   2.996 -0.9344 -0.5063 -0.3088
  201MOL0     C26422  -1.001   5.800   3.135 -0.0877 -0.2133 -0.4920
  201MOL0     C26423  -0.851   5.795   3.158 -0.0024  0.2775 -1.0557
  201MOL0     O26424  -0.787   5.920   3.142  0.4653 -0.4822  0.2360
  201MOL0     C26425  -0.655   5.941   3.162  0.9772 -0.2152 -0.3421
  201MOL0     C26426  -0.604   6.068   3.143  0.4309  0.3863  0.3742
  201MOL0     C26427  -0.464   6.093   3.144  0.0027 -0.2342  0.6904
  201MOL0     C26428  -0.376   5.995   3.184  0.9248  0.4796  0.7236
  201MOL0     C26429  -0.232   6.023   3.176  0.1739 -0.6336  0.6517
  201MOL0     O26430  -0.150   5.913   3.140 -0.3573  0.1271 -0.2614
  201MOL0     C26431  -0.014   5.928   3.115  0.4957 -0.7156 -0.2386
  201MOL0     C26432   0.061   5.834   3.040 -0.5295 -0.2538  1.1797
  201MOL0     C26433   0.200   5.847   3.010 -0.5749  0.0473 -0.2566
  201MOL0     C26434   0.271   5.944   3.072  0.5299 -0.8062  0.7076
  201MOL0     O26435   0.397   5.976   3.058  0.0031 -0.4025 -0.0501
  201MOL0     C26436   0.479   5.865   3.011 -0.3804  0.0725  0.4469
  201MOL0     C26437   0.620   5.930   2.988  0.3500 -0.1312  0.0603
  201MOL0     C26438   0.729   5.829   2.958  0.6538  0.3557  1.0313
  201MOL0     C26439   0.859   5.892   2.925  0.3101 -1.2381  0.5546
  201MOL0     C26440   0.975   5.792   2.909 -1.1342 -0.0409  0.5282
  201MOL0     C26441   1.100   5.858   2.845 -0.2725  0.1475  0.0810
  201MOL0     C26442   1.182   5.945   2.941 -0.1181 -0.1884 -0.1413
  201MOL0     C26443   1.311   5.992   2.878 -0.2814 -0.7121 -0.6120
  201MOL0    Cl26444   1.392   6.135   2.962 -0.0834 -0.2067 -0.2372
  201MOL0     C26445   0.200   6.032   3.154 -0.6329 -0.3366 -0.2504
  201MOL0     C26446   0.064   6.034   3.171 -0.1170 -0.1773  0.7530
  201MOL0     O26447  -0.202   6.142   3.171  0.4266  0.8315 -0.3078
  201MOL0     C26448  -0.429   5.869   3.199 -0.4327  0.4360 -0.1674
  201MOL0     C26449  -0.566   5.839   3.191  0.7486 -0.2673  0.7815
  201MOL0     N26450  -0.825   5.594   2.872 -0.0885 -0.6607 -0.2513
  201MOL0     N26451  -0.701   5.610   2.879 -0.6029  0.2182  0.2691
  201MOL0     C26452   0.499   5.985   2.448  0.1045  0.0713  0.2962
  201MOL0     C26453   0.629   5.940   2.454 -0.5484  0.1012  0.5057
  201MOL0     C26454   1.006   5.680   2.569  0.5329  0.2784  0.8846
  201MOL0     C26455   1.078   5.579   2.633 -0.1947  0.2406  0.1058
  201MOL0     C26456   1.219   5.569   2.620  0.3716  0.2791  0.2195
  201MOL0     C26457   1.286   5.664   2.548  0.1503  0.3708 -0.3061
  201MOL0     O26458   1.420   5.646   2.548  0.1210  0.3701  0.4813
  201MOL0     C26459   1.496   5.732   2.473 -0.6428  0.0565  0.0009
  201MOL0     C26460   1.643   5.736   2.515 -0.5127  0.2482  0.0222
  201MOL0     C26461   1.727   5.788   2.402  0.6259  0.1101  0.0860
  201MOL0     C26462   1.873   5.791   2.444 -0.7043  0.4873  0.0872
  201MOL0     C26463   1.903   5.886   2.556 -0.9711 -0.3097  1.2429
  201MOL0     C26464   1.935   5.965   2.636  0.0914 -0.0408 -0.2284
  201MOL0     C26465   1.214   5.773   2.492  0.6330  0.1255 -0.2558
  201MOL0     C26466   1.073   5.777   2.496  0.0394 -0.3770  1.0647
  201MOL0     H26467   0.588   5.671   2.655 -2.9713 -1.1303 -0.4815
  201MOL0     H26468   0.357   5.753   2.660  0.3332  2.2401  2.0800
  201MOL0     H26469   0.177   5.920   2.683  0.3190 -0.3956 -0.4045
  201MOL0     H26470   0.152   5.808   2.544  2.7730 -0.1509 -0.5846
  201MOL0     H26471   0.048   5.995   2.422  2.5742  1.4464  0.4014
  201MOL0     H26472   0.035   6.086   2.580  2.6332  1.8636 -1.6573
  201MOL0     H26473  -0.081   5.905   2.678 -2.5209 -1.0371  0.1863
  201MOL0     H26474  -0.064   5.804   2.530 -2.0165 -1.4791  0.4920
  201MOL0     H26475  -0.217   6.059   2.539  1.9313  0.0591  2.1325
  201MOL0     H26476  -0.195   5.959   2.391 -2.5234 -1.6142  0.1085
  201MOL0     H26477  -0.309   5.769   2.494  0.1149  0.5670 -0.6904
  201MOL0     H26478  -0.411   5.908   2.472  0.7482 -0.8555 -0.7172
  201MOL0     H26479  -0.382   5.963   2.717  0.6116 -0.8031 -0.0639
  201MOL0     H26480  -0.270   5.821   2.735 -0.9799 -2.4509  0.8177
  201MOL0     H26481  -0.548   5.785   2.623  1.1011 -2.2837 -1.7021
  201MOL0     H26482  -0.444   5.666   2.691 -1.7515 -0.5145  2.4128
  201MOL0     H26483  -0.526   5.895   2.868  0.6296 -0.1727 -2.2194
  201MOL0     H26484  -0.468   5.732   2.915 -0.5229 -2.9591 -1.2377
  201MOL0     H26485  -0.782   5.917   2.811 -0.3945 -0.2869  1.6083
  201MOL0     H26486  -1.079   5.671   2.890 -2.8151  1.6243  0.8207
  201MOL0     H26487  -1.056   5.805   2.779  1.7962 -0.8567 -1.3767
  201MOL0     H26488  -1.160   5.858   3.007 -0.9753 -1.6105  0.2889
  201MOL0     H26489  -1.011   5.949   2.973  0.7141 -1.3391 -1.1507
  201MOL0     H26490  -1.052   5.864   3.208  1.5149  1.6995 -0.9754
  201MOL0     H26491  -1.037   5.698   3.152  2.7103 -1.0587  1.0300
  201MOL0     H26492  -0.815   5.712   3.097 -2.2820 -0.4078 -1.5450
  201MOL0     H26493  -0.839   5.769   3.264  0.3659 -0.1244 -1.1942
  201MOL0     H26494  -0.669   6.150   3.112  1.0418  0.5297 -0.5519
  201MOL0     H26495  -0.429   6.195   3.130 -1.5208  0.2010 -0.1248
  201MOL0     H26496   0.014   5.750   2.990  2.5312  0.1527 -2.9806
  201MOL0     H26497   0.237   5.763   2.953  0.3585  0.8247 -0.8281
  201MOL0     H26498   0.460   5.814   2.916  0.1458 -1.4286  1.1048
  201MOL0     H26499   0.482   5.782   3.083 -0.1933 -1.2638 -1.0362
  201MOL0     H26500   0.651   5.999   3.067  1.1949 -0.4912  0.0508
  201MOL0     H26501   0.614   5.990   2.897 -0.4056 -0.6905 -0.2685
  201MOL0     H26502   0.691   5.778   2.869 -0.0865  0.0247  1.5303
  201MOL0     H26503   0.732   5.757   3.039  0.0815 -0.2451  0.5249
  201MOL0     H26504   0.851   5.947   2.831  2.0553  2.6598  2.4492
  201MOL0     H26505   0.877   5.978   2.990 -0.6958  3.2418 -4.4663
  201MOL0     H26506   0.948   5.704   2.850 -0.7615  0.0511  0.2174
  201MOL0     H26507   1.012   5.765   3.008  0.4952  1.8145  0.4909
  201MOL0     H26508   1.057   5.920   2.766  0.6359  2.0027  0.9882
  201MOL0     H26509   1.159   5.780   2.796 -1.3502  0.5797 -2.0116
  201MOL0     H26510   1.122   6.033   2.965 -2.1064 -1.5107 -0.0300
  201MOL0     H26511   1.204   5.895   3.036  1.0231 -1.4562 -1.0421
  201MOL0     H26512   1.283   6.022   2.776 -0.6882  0.2917 -0.2145
  201MOL0     H26513   1.375   5.904   2.866  0.1540 -0.4117 -0.5189
  201MOL0     H26514   0.245   6.122   3.194  2.2988 -0.6248 -2.5130
  201MOL0     H26515   0.027   6.105   3.245  4.4947  1.0904  2.1638
  201MOL0     H26516  -0.350   5.794   3.201  0.1049  0.9953  0.2184
  201MOL0     H26517  -0.599   5.737   3.209  0.4519 -0.2450  0.3502
  201MOL0     H26518   0.471   6.075   2.393 -1.7811 -0.9975 -0.5868
  201MOL0     H26519   0.715   5.985   2.406 -0.7899 -1.6468 -1.7444
  201MOL0     H26520   1.025   5.511   2.698  1.1049 -1.8734 -0.9182
  201MOL0     H26521   1.273   5.484   2.663  2.1354  1.4507  0.4258
  201MOL0     H26522   1.462   5.836   2.468 -1.5708 -0.2762 -1.9016
  201MOL0     H26523   1.484   5.708   2.366  0.2677 -3.2867  0.5278
  201MOL0     H26524   1.651   5.796   2.606  0.7192  1.5851 -0.9388
  201MOL0     H26525   1.679   5.638   2.549 -0.3855  0.7679  1.4598
  201MOL0     H26526   1.690   5.887   2.377 -1.5321 -0.8361 -0.7179
  201MOL0     H26527   1.700   5.729   2.314  0.1231 -2.5394  1.8936
  201MOL0     H26528   1.906   5.689   2.468 -0.4028 -0.0733 -2.3681
  201MOL0     H26529   1.930   5.822   2.356 -1.5796 -0.7899 -0.9776
  201MOL0     H26530   1.963   6.040   2.708  0.1807 -0.9762  0.7292
  201MOL0     H26531   1.262   5.865   2.461 -2.5809  2.4165  0.9932
  201MOL0     H26532   1.010   5.854   2.453 -0.4716  0.2534  2.8601
  202MOL0     O26533   7.406  10.652   3.650  0.6466  0.1659 -0.3627
  202MOL0     C26534   7.307  10.729   3.660  0.1966  0.5095  0.3503
  202MOL0     O26535   7.317  10.858   3.701 -0.2995  0.3042  0.2222
  202MOL0     C26536   7.431  10.887   3.774 -0.4259 -0.3386  0.4737
  202MOL0     C26537   7.541  10.953   3.711  0.1976  0.5942 -0.5450
  202MOL0     C26538   7.648  10.993   3.791 -0.3829  0.3046 -0.1270
  202MOL0     C26539   7.653  10.972   3.930 -0.3904  0.4215 -0.3838
  202MOL0     O26540   7.774  11.000   3.990 -0.5019 -0.0551  0.0578
  202MOL0     C26541   7.793  11.000   4.130  0.2089 -0.3764  0.5347
  202MOL0     C26542   7.733  11.116   4.202  0.2293 -0.2691  0.2854
  202MOL0     C26543   7.818  11.246   4.170 -0.1817  0.5996 -0.9944
  202MOL0     C26544   7.747  11.364   4.222 -0.5436  0.3889  0.0702
  202MOL0     C26545   7.844  11.477   4.242 -0.4208 -1.0909 -0.7736
  202MOL0     C26546   7.777  11.612   4.199 -0.0467  0.1713  0.5644
  202MOL0     C26547   7.873  11.730   4.230 -1.0284  0.3593 -0.1680
  202MOL0     C26548   7.834  11.862   4.159 -0.4815 -0.0842 -0.3869
  202MOL0     N26549   7.819  11.847   4.018 -0.0330  0.0488 -0.1493
  202MOL0     C26550   7.922  11.831   3.930 -0.5583 -0.7965  0.4306
  202MOL0     C26551   7.855  11.822   3.807  0.2269  0.0551 -0.8152
  202MOL0     C26552   7.926  11.811   3.674  0.3631 -1.1414 -0.7328
  202MOL0     C26553   7.970  11.675   3.642 -0.3327  0.7858 -0.0726
  202MOL0     C26554   8.006  11.661   3.490 -1.0648 -0.6200 -0.3992
  202MOL0     C26555   8.101  11.543   3.465 -0.3813 -0.9204  0.2100
  202MOL0     O26556   8.124  11.552   3.326  0.1183 -0.2094  0.4237
  202MOL0     C26557   8.053  11.465   3.237 -0.0222 -0.3461  0.1904
  202MOL0     C26558   7.935  11.394   3.266  0.4163 -0.1497  0.1898
  202MOL0     C26559   7.862  11.332   3.160 -0.3207 -0.0992 -0.3123
  202MOL0     C26560   7.904  11.331   3.029 -0.3372  0.0128 -0.5013
  202MOL0     C26561   7.832  11.270   2.915  0.3072 -0.0646 -0.4674
  202MOL0     O26562   7.719  11.200   2.944 -0.4482 -0.1969  0.0507
  202MOL0     C26563   7.646  11.149   2.833 -0.9171  0.1693 -0.4177
  202MOL0     C26564   7.526  11.204   2.792  0.4043  0.0741  0.5744
  202MOL0     C26565   7.451  11.151   2.683  0.2668 -0.4269  0.0037
  202MOL0     C26566   7.494  11.023   2.635 -0.4800 -0.6684  0.1630
  202MOL0     O26567   7.406  10.959   2.559 -0.5592  0.1534 -0.2297
  202MOL0     C26568   7.404  10.816   2.564 -0.0970  0.3017  0.6456
  202MOL0     C26569   7.290  10.766   2.468  0.3001 -0.1643  0.2196
  202MOL0     C26570   7.301  10.609   2.468  0.1941 -0.2945 -0.4174
  202MOL0     C26571   7.179  10.553   2.386 -0.0708  0.3708 -0.4992
  202MOL0     C26572   7.168  10.400   2.379 -0.8891  0.6819  0.1335
  202MOL0     C26573   7.060  10.343   2.285  0.0503 -0.0601  0.1227
  202MOL0     C26574   6.919  10.365   2.338  0.4980 -0.5501  0.5431
  202MOL0     C26575   6.808  10.278   2.275 -0.1088  0.0496 -0.5219
  202MOL0    Cl26576   6.799  10.286   2.095 -0.1347  0.1402 -0.6781
  202MOL0     C26577   7.604  10.967   2.690 -0.4657  0.2497 -0.3552
  202MOL0     C26578   7.689  11.027   2.785  0.1289 -0.0255  0.2518
  202MOL0     O26579   7.885  11.279   2.806 -0.3828 -0.3067  0.4453
  202MOL0     C26580   8.029  11.398   3.002  0.0403 -0.0986 -0.8779
  202MOL0     C26581   8.098  11.463   3.105 -0.1601 -0.2342  0.7492
  202MOL0     N26582   7.720  11.828   3.826  0.3081  0.7479  0.2551
  202MOL0     N26583   7.697  11.846   3.951  0.3279 -0.8647 -0.2360
  202MOL0     C26584   7.546  10.894   3.987 -0.4305 -0.4630 -0.1837
  202MOL0     C26585   7.431  10.865   3.911  0.2703 -0.0360 -0.0847
  202MOL0     C26586   7.175  10.670   3.635 -0.5513 -0.1658  0.1000
  202MOL0     C26587   7.167  10.543   3.567  0.2874  0.4551  0.1218
  202MOL0     C26588   7.041  10.489   3.552  0.4554  0.2067 -0.3783
  202MOL0     C26589   6.922  10.543   3.601 -0.3082 -0.1908 -0.0499
  202MOL0     O26590   6.806  10.468   3.575  0.2308  0.3369  0.1240
  202MOL0     C26591   6.683  10.530   3.562  0.3667 -0.3194 -0.6865
  202MOL0     C26592   6.577  10.461   3.648 -0.5548 -0.2684 -0.1498
  202MOL0     C26593   6.450  10.527   3.627  0.3983  0.4621  0.2124
  202MOL0     C26594   6.330  10.422   3.644  0.0904  0.4650  0.3331
  202MOL0     C26595   6.306  10.332   3.532  0.2837 -0.6480  0.4039
  202MOL0     C26596   6.270  10.273   3.440  1.4482 -0.2446 -0.8905
  202MOL0     C26597   6.933  10.664   3.670  0.7644 -0.2220 -0.1585
  202MOL0     C26598   7.059  10.723   3.690  0.7843  0.5850  0.0205
  202MOL0     H26599   7.538  10.977   3.605 -0.8346  3.9354  0.1160
  202MOL0     H26600   7.728  11.044   3.739  0.1569  0.2406  0.6311
  202MOL0     H26601   7.901  11.002   4.144  0.6511  0.3395 -2.2937
  202MOL0     H26602   7.753  10.908   4.173 -1.4288 -0.2837 -0.6824
  202MOL0     H26603   7.725  11.094   4.309 -0.7714  0.4829  0.3754
  202MOL0     H26604   7.632  11.121   4.160 -0.1515 -1.9025  0.9053
  202MOL0     H26605   7.840  11.245   4.062 -1.6022  0.1917 -1.3044
  202MOL0     H26606   7.919  11.224   4.205  0.6128 -2.1084 -4.3670
  202MOL0     H26607   7.659  11.386   4.160 -1.3249 -1.6642  0.3496
  202MOL0     H26608   7.706  11.332   4.318  0.9119  0.9517  0.9140
  202MOL0     H26609   7.931  11.464   4.177  1.4675 -0.9577  1.5575
  202MOL0     H26610   7.882  11.486   4.345 -2.9017  0.4040  0.0955
  202MOL0     H26611   7.691  11.638   4.262  1.0638  1.2452  1.6873
  202MOL0     H26612   7.755  11.609   4.092 -0.6131 -1.2037  0.6962
  202MOL0     H26613   7.881  11.729   4.339  1.9567  0.5122 -0.2938
  202MOL0     H26614   7.970  11.699   4.189 -1.0382  0.1589 -0.0424
  202MOL0     H26615   7.908  11.941   4.173  0.1135 -0.0594 -3.0616
  202MOL0     H26616   7.735  11.899   4.187 -0.9178  0.1727 -2.1376
  202MOL0     H26617   8.027  11.852   3.951 -0.0923  0.3655 -2.5041
  202MOL0     H26618   8.016  11.873   3.672  0.2800 -1.0362 -1.7099
  202MOL0     H26619   7.853  11.844   3.600  2.0735  3.7455 -0.5702
  202MOL0     H26620   7.888  11.604   3.655  1.8385 -2.1919 -1.5834
  202MOL0     H26621   8.053  11.644   3.705 -2.1629 -3.6221  0.5520
  202MOL0     H26622   7.913  11.628   3.444 -0.4558 -1.9288 -0.7287
  202MOL0     H26623   8.048  11.747   3.437  1.4120 -0.5343  1.4999
  202MOL0     H26624   8.058  11.449   3.500 -1.8099 -0.1498  0.5901
  202MOL0     H26625   8.194  11.548   3.522  0.1961 -2.9734 -0.4653
  202MOL0     H26626   7.891  11.398   3.365 -0.6350 -0.4272 -0.2442
  202MOL0     H26627   7.776  11.269   3.180  0.3834 -0.2733  2.8271
  202MOL0     H26628   7.487  11.282   2.858 -0.5177 -0.4246  0.6336
  202MOL0     H26629   7.356  11.190   2.649 -1.2676 -2.9544  1.1158
  202MOL0     H26630   7.369  10.779   2.660 -1.3989 -0.3120 -0.0402
  202MOL0     H26631   7.498  10.768   2.537 -2.0197 -1.8576 -3.0942
  202MOL0     H26632   7.318  10.814   2.374  2.8622  3.2781  2.5034
  202MOL0     H26633   7.185  10.790   2.489 -0.9453 -2.8418 -2.2816
  202MOL0     H26634   7.297  10.572   2.571  0.1664  4.8170  1.7219
  202MOL0     H26635   7.392  10.576   2.417  0.4108 -2.1564  1.0824
  202MOL0     H26636   7.082  10.589   2.421 -1.5714 -0.6606 -3.3151
  202MOL0     H26637   7.192  10.594   2.286 -2.2632 -1.0510 -1.4128
  202MOL0     H26638   7.158  10.346   2.473 -3.0892  0.1202 -0.3643
  202MOL0     H26639   7.261  10.358   2.341 -0.7972 -1.6210  2.5943
  202MOL0     H26640   7.082  10.236   2.287 -0.3593 -0.2050 -1.4762
  202MOL0     H26641   7.070  10.382   2.183  2.6445  1.0208  0.7045
  202MOL0     H26642   6.922  10.347   2.446 -1.9622 -0.6730  0.6549
  202MOL0     H26643   6.887  10.467   2.316 -1.5035 -1.5376 -1.6303
  202MOL0     H26644   6.710  10.307   2.314 -1.0263 -1.1706 -1.8251
  202MOL0     H26645   6.829  10.174   2.301  1.8983  0.5758  0.1082
  202MOL0     H26646   7.650  10.874   2.658  1.6998  0.7948  0.9511
  202MOL0     H26647   7.781  10.972   2.804  0.6592  0.2643 -1.3706
  202MOL0     H26648   8.065  11.405   2.900  0.5651 -1.3267 -0.7941
  202MOL0     H26649   8.188  11.515   3.075  0.1939 -0.5028  1.3476
  202MOL0     H26650   7.549  10.858   4.089  1.1195  0.0672 -0.0125
  202MOL0     H26651   7.352  10.801   3.949 -0.7642 -0.4348 -2.6632
  202MOL0     H26652   7.256  10.500   3.523  0.9031  1.2502  0.5734
  202MOL0     H26653   7.027  10.399   3.493 -1.6440 -0.7359  1.4254
  202MOL0     H26654   6.665  10.513   3.456  2.3814  3.0855 -1.7314
  202MOL0     H26655   6.684  10.638   3.581 -0.9731 -0.8678  3.8747
  202MOL0     H26656   6.570  10.358   3.612 -2.5084  0.9194 -3.7160
  202MOL0     H26657   6.599  10.462   3.755 -0.9061 -0.4899 -0.0730
  202MOL0     H26658   6.449  10.574   3.528 -0.5075 -3.2449 -1.7219
  202MOL0     H26659   6.444  10.590   3.717 -1.4207 -1.1908  1.3293
  202MOL0     H26660   6.339  10.360   3.733 -0.8981 -2.2510 -1.3251
  202MOL0     H26661   6.247  10.493   3.656  0.3331  1.0187 -1.0518
  202MOL0     H26662   6.225  10.221   3.357 -1.2487  2.4342 -1.2710
  202MOL0     H26663   6.847  10.723   3.701 -0.0975  0.4090 -3.3502
  202MOL0     H26664   7.072  10.824   3.730 -0.3589 -0.0086  2.0176
  203MOL0     O26665   6.680   7.807   6.645 -0.4647  0.4456  0.1978
  203MOL0     C26666   6.655   7.774   6.532  0.8145  0.0249 -0.0609
  203MOL0     O26667   6.742   7.718   6.438  0.0813  0.2823  0.4158
  203MOL0     C26668   6.881   7.698   6.473  1.6029  0.0769 -0.2831
  203MOL0     C26669   6.957   7.794   6.548 -0.6817 -0.2355 -0.7743
  203MOL0     C26670   7.095   7.780   6.558  0.0350  0.3307  0.0949
  203MOL0     C26671   7.163   7.667   6.526  0.9873  0.6169  0.5343
  203MOL0     O26672   7.294   7.635   6.551 -0.4238 -0.6275 -0.0891
  203MOL0     C26673   7.376   7.746   6.579  0.8957 -0.3384 -0.5478
  203MOL0     C26674   7.526   7.708   6.561 -0.2282  0.6361  0.4270
  203MOL0     C26675   7.614   7.791   6.655 -0.2628 -0.9624 -0.3198
  203MOL0     C26676   7.765   7.740   6.650  0.4676  0.0420 -0.1940
  203MOL0     C26677   7.854   7.820   6.739  0.7096  0.5310  0.2708
  203MOL0     C26678   7.886   7.961   6.682  0.1532 -0.2619 -0.1664
  203MOL0     C26679   7.967   8.048   6.774  0.3171 -0.9302 -0.5563
  203MOL0     C26680   8.105   8.094   6.726  0.5803 -0.3982  0.2194
  203MOL0     N26681   8.192   7.974   6.717  0.0211 -0.2910  0.1486
  203MOL0     C26682   8.275   7.926   6.816 -0.0559  0.0573 -0.6100
  203MOL0     C26683   8.295   7.803   6.776  0.0323  0.5807  0.0452
  203MOL0     C26684   8.359   7.699   6.854  0.0792 -0.1946 -0.7258
  203MOL0     C26685   8.265   7.590   6.915 -0.2754  0.0333 -0.0603
  203MOL0     C26686   8.174   7.512   6.821 -0.2691  0.7154  0.0208
  203MOL0     C26687   8.121   7.389   6.892  0.2752  0.2653 -0.4057
  203MOL0     O26688   8.050   7.432   7.015 -0.2430  0.1013 -0.2862
  203MOL0     C26689   7.915   7.443   6.995  0.1368 -0.3635  0.5081
  203MOL0     C26690   7.839   7.334   6.960  0.6663  0.6573 -1.1756
  203MOL0     C26691   7.698   7.346   6.925 -0.6542  0.6615 -0.1953
  203MOL0     C26692   7.637   7.472   6.930  0.0181  0.9768  0.2703
  203MOL0     C26693   7.488   7.501   6.894  0.0285  0.1982 -0.3187
  203MOL0     O26694   7.406   7.384   6.889  0.1306  0.4980 -0.4500
  203MOL0     C26695   7.266   7.383   6.860 -1.3759 -0.1084 -0.9635
  203MOL0     C26696   7.202   7.265   6.897  0.8439 -0.1490 -0.1393
  203MOL0     C26697   7.059   7.252   6.879  1.0980 -0.6837  0.6794
  203MOL0     C26698   6.990   7.353   6.806  0.1995 -0.2399  0.1782
  203MOL0     O26699   6.856   7.332   6.779 -0.0205 -0.2837  0.2780
  203MOL0     C26700   6.766   7.437   6.737 -0.2696 -0.1769  0.3410
  203MOL0     C26701   6.630   7.387   6.696  0.6098 -0.3062  0.3306
  203MOL0     C26702   6.638   7.336   6.556 -0.9488  0.1395 -0.7161
  203MOL0     C26703   6.501   7.293   6.512 -0.0762  0.3651  0.1263
  203MOL0     C26704   6.442   7.403   6.422  0.2481 -0.7939 -0.3910
  203MOL0     C26705   6.297   7.375   6.394  0.1788  0.8806 -0.5904
  203MOL0     C26706   6.213   7.493   6.343  0.0578 -0.3649 -0.3727
  203MOL0     C26707   6.068   7.442   6.310  0.3367 -1.0102 -0.2138
  203MOL0    Cl26708   5.988   7.413   6.467  0.1131  0.0239 -0.1162
  203MOL0     C26709   7.057   7.471   6.782 -0.2986 -0.5293  0.8515
  203MOL0     C26710   7.185   7.491   6.821 -0.5408  1.1164  0.9968
  203MOL0     O26711   7.450   7.614   6.887 -0.3266 -0.1025  0.2808
  203MOL0     C26712   7.717   7.584   6.965 -0.0731 -0.1308 -0.5144
  203MOL0     C26713   7.852   7.565   6.994 -0.2139 -0.0257  0.4852
  203MOL0     N26714   8.244   7.780   6.646  0.1660 -0.8918 -0.7827
  203MOL0     N26715   8.179   7.882   6.620  0.3196  0.5295  1.1143
  203MOL0     C26716   7.085   7.564   6.457  0.6798  0.2471 -0.0267
  203MOL0     C26717   6.950   7.586   6.427  0.4243  0.3477 -0.3367
  203MOL0     C26718   6.521   7.817   6.479  0.0162  0.4579 -0.5988
  203MOL0     C26719   6.417   7.834   6.570  0.3482 -0.5544 -0.2276
  203MOL0     C26720   6.290   7.872   6.531 -0.2267 -0.6075  0.2693
  203MOL0     C26721   6.253   7.876   6.388 -0.1524 -0.4087  0.6745
  203MOL0     O26722   6.130   7.908   6.348  0.4219  0.0407  1.3147
  203MOL0     C26723   6.077   7.866   6.220 -0.4837  0.6002 -0.1452
  203MOL0     C26724   5.921   7.881   6.213 -0.4583  0.1708  0.4307
  203MOL0     C26725   5.854   7.778   6.313  0.1677 -0.2924 -0.2484
  203MOL0     C26726   5.706   7.825   6.334 -0.4064  0.3217  0.3187
  203MOL0     C26727   5.611   7.767   6.236 -0.2913  0.0355  0.3795
  203MOL0     C26728   5.541   7.728   6.145  0.9532  0.5115  0.3320
  203MOL0     C26729   6.354   7.841   6.296 -0.4837  0.2146  0.4732
  203MOL0     C26730   6.487   7.817   6.340 -0.2110  0.3076 -0.9714
  203MOL0     H26731   6.914   7.878   6.601  3.2435  0.1183  2.3208
  203MOL0     H26732   7.149   7.856   6.613 -2.7975  1.4929  1.5054
  203MOL0     H26733   7.355   7.795   6.675 -3.3404 -1.2952 -0.7961
  203MOL0     H26734   7.370   7.825   6.503 -3.4483 -0.4175 -0.5087
  203MOL0     H26735   7.545   7.721   6.454 -0.0863 -2.0967  0.0479
  203MOL0     H26736   7.536   7.602   6.585 -4.1717  0.5108  2.2870
  203MOL0     H26737   7.582   7.785   6.759  1.4368  1.9810  0.4968
  203MOL0     H26738   7.605   7.899   6.639 -2.7195 -0.9110  1.0037
  203MOL0     H26739   7.770   7.637   6.686 -0.1321 -0.0711 -0.4291
  203MOL0     H26740   7.812   7.745   6.551  5.1265 -0.2931  1.7292
  203MOL0     H26741   7.945   7.759   6.749 -0.4097 -1.4574 -0.9354
  203MOL0     H26742   7.807   7.834   6.836 -1.6849  1.6053 -0.9694
  203MOL0     H26743   7.796   8.012   6.646  0.5370 -0.4199 -1.3957
  203MOL0     H26744   7.937   7.948   6.586 -3.0906 -3.2759 -1.7171
  203MOL0     H26745   7.904   8.135   6.797  0.2844 -1.0912 -0.0315
  203MOL0     H26746   7.989   7.991   6.864  1.0473 -0.9925 -0.7717
  203MOL0     H26747   8.138   8.163   6.804 -2.4108  0.0401  1.2403
  203MOL0     H26748   8.103   8.151   6.633 -1.9286  0.2495  0.5856
  203MOL0     H26749   8.312   7.975   6.905 -1.0413  1.4687 -0.9492
  203MOL0     H26750   8.414   7.738   6.941  0.0110 -1.5412 -0.0404
  203MOL0     H26751   8.437   7.654   6.792 -0.0531 -0.8955 -0.4028
  203MOL0     H26752   8.201   7.641   6.988 -0.2368  0.1811 -0.1284
  203MOL0     H26753   8.327   7.528   6.980  0.5892  1.0470  0.1041
  203MOL0     H26754   8.098   7.581   6.784  0.2989  1.8081  0.8369
  203MOL0     H26755   8.230   7.461   6.741 -1.1094 -0.2129  0.0035
  203MOL0     H26756   8.199   7.322   6.931 -0.3379 -0.3776 -0.2624
  203MOL0     H26757   8.054   7.330   6.828  0.2457  0.5984 -0.6875
  203MOL0     H26758   7.884   7.235   6.960  0.2197  0.4497 -1.3745
  203MOL0     H26759   7.634   7.266   6.890  1.1363 -2.1849  2.4881
  203MOL0     H26760   7.258   7.182   6.937 -0.2374 -1.9843 -2.2147
  203MOL0     H26761   6.997   7.171   6.916 -2.8700  1.2730 -1.1015
  203MOL0     H26762   6.809   7.494   6.655 -0.1716 -1.2523 -0.3750
  203MOL0     H26763   6.758   7.515   6.814 -2.6090  0.5729 -0.5808
  203MOL0     H26764   6.552   7.464   6.704 -0.0233 -1.0379  1.6317
  203MOL0     H26765   6.599   7.311   6.769  0.4357 -3.8725 -3.1200
  203MOL0     H26766   6.691   7.240   6.560 -0.7391  0.2954  1.1073
  203MOL0     H26767   6.683   7.401   6.481  2.4225 -0.5578  0.5154
  203MOL0     H26768   6.509   7.199   6.457 -0.8967 -1.8725  3.5253
  203MOL0     H26769   6.437   7.271   6.598  0.8830 -0.3730  0.6623
  203MOL0     H26770   6.499   7.399   6.329 -1.7998 -1.3064 -1.6884
  203MOL0     H26771   6.453   7.504   6.461  0.2486  0.1787 -2.7615
  203MOL0     H26772   6.247   7.342   6.485  0.8988  0.4379 -0.3514
  203MOL0     H26773   6.285   7.296   6.319 -1.4293 -0.2224  0.7590
  203MOL0     H26774   6.211   7.576   6.413  0.9752  0.5166 -1.3594
  203MOL0     H26775   6.255   7.536   6.251 -1.4068 -2.2607 -2.0287
  203MOL0     H26776   6.076   7.346   6.259 -2.4882 -1.8971  0.7836
  203MOL0     H26777   6.005   7.504   6.245 -0.5658 -0.3057  1.2604
  203MOL0     H26778   7.003   7.560   6.751 -2.3392 -1.5505  1.2780
  203MOL0     H26779   7.231   7.587   6.798  2.0257 -0.6346 -2.1014
  203MOL0     H26780   7.678   7.685   6.975 -1.9422 -0.9870  1.8209
  203MOL0     H26781   7.917   7.651   7.010 -1.6019  1.5974 -1.9460
  203MOL0     H26782   7.128   7.470   6.425 -0.4540  0.2195 -1.5847
  203MOL0     H26783   6.910   7.503   6.371  2.6212 -0.7599 -0.3766
  203MOL0     H26784   6.444   7.834   6.675 -0.6107  0.2491  0.0379
  203MOL0     H26785   6.211   7.907   6.597  0.3516  2.5054 -0.5474
  203MOL0     H26786   6.100   7.761   6.199 -2.1851  0.5471 -2.0391
  203MOL0     H26787   6.116   7.916   6.131  1.5020 -1.1568 -0.3334
  203MOL0     H26788   5.900   7.986   6.239  0.6613  0.6491 -0.4851
  203MOL0     H26789   5.882   7.864   6.112 -2.5910  2.0269  0.8432
  203MOL0     H26790   5.897   7.786   6.413 -0.8595 -0.5459  0.2256
  203MOL0     H26791   5.874   7.676   6.278 -1.1248 -1.3272  1.8441
  203MOL0     H26792   5.677   7.790   6.434  0.8650 -3.0023 -0.3238
  203MOL0     H26793   5.708   7.934   6.334  3.1842  0.3752  0.6110
  203MOL0     H26794   5.482   7.677   6.071 -1.2669  1.5656  1.2897
  203MOL0     H26795   6.342   7.830   6.188 -0.2044 -2.2112  0.6293
  203MOL0     H26796   6.549   7.793   6.254 -2.5290  2.1680 -3.3240
  204MOL0     O26797   2.656   2.243   2.863 -0.2114  0.4426  0.7095
  204MOL0     C26798   2.591   2.140   2.833 -0.1234 -0.4655 -0.2688
  204MOL0     O26799   2.634   2.036   2.757 -0.0188 -0.1216 -0.1610
  204MOL0     C26800   2.769   2.039   2.726  0.0868  0.0613  0.0955
  204MOL0     C26801   2.826   2.081   2.601 -0.3901  1.1226  0.9989
  204MOL0     C26802   2.966   2.074   2.568  0.4369  0.5563  0.3450
  204MOL0     C26803   3.051   2.014   2.662  0.1235  0.0673 -0.3446
  204MOL0     O26804   3.189   1.998   2.638  0.2149 -0.1116  0.0491
  204MOL0     C26805   3.271   1.959   2.745 -0.4416  0.4097  0.2729
  204MOL0     C26806   3.393   1.905   2.665  0.0980 -0.3653 -0.4330
  204MOL0     C26807   3.504   1.860   2.766  0.6404  0.0305  1.1320
  204MOL0     C26808   3.628   1.831   2.682 -1.2258 -0.7866  1.0678
  204MOL0     C26809   3.750   1.782   2.766  0.2418 -0.5581  0.2456
  204MOL0     C26810   3.880   1.760   2.686 -0.7906  0.7661 -0.9247
  204MOL0     C26811   3.986   1.700   2.786 -0.4972 -0.0571 -0.1114
  204MOL0     C26812   4.126   1.760   2.778 -0.4187 -1.0869  0.4540
  204MOL0     N26813   4.174   1.757   2.634  0.0903 -0.4600 -0.1316
  204MOL0     C26814   4.217   1.643   2.566 -0.2328 -0.0716 -0.1966
  204MOL0     C26815   4.202   1.676   2.438  0.0654  0.8736  0.3629
  204MOL0     C26816   4.221   1.579   2.325  1.0265  1.0633  0.3419
  204MOL0     C26817   4.341   1.489   2.338  0.1603  0.0111 -0.0268
  204MOL0     C26818   4.357   1.403   2.203  0.8093 -0.0072 -0.1273
  204MOL0     C26819   4.375   1.255   2.241 -0.4043 -0.3317 -0.3046
  204MOL0     O26820   4.272   1.191   2.313 -0.6738  0.1631  0.4700
  204MOL0     C26821   4.147   1.176   2.260  0.2751  1.1919  1.0598
  204MOL0     C26822   4.124   1.142   2.127 -0.0068 -0.0537 -0.3323
  204MOL0     C26823   3.994   1.134   2.072 -0.2074 -0.6136  0.1231
  204MOL0     C26824   3.885   1.170   2.145 -0.4259  0.8272  0.5380
  204MOL0     C26825   3.753   1.159   2.087  0.1201  0.2787  1.2168
  204MOL0     O26826   3.650   1.193   2.182  0.3587  0.3924 -0.3384
  204MOL0     C26827   3.518   1.215   2.154  0.0767  0.4698  0.0973
  204MOL0     C26828   3.431   1.229   2.263  0.2164  0.4721 -1.0946
  204MOL0     C26829   3.294   1.255   2.250  0.1506 -0.3110  0.1217
  204MOL0     C26830   3.245   1.273   2.115  0.6340 -0.2973 -0.4470
  204MOL0     O26831   3.106   1.285   2.084 -0.6744  0.7921 -0.4649
  204MOL0     C26832   3.019   1.330   2.195 -0.3555 -0.6504 -0.3449
  204MOL0     C26833   2.961   1.194   2.250 -0.7488  0.6576  0.2252
  204MOL0     C26834   2.926   1.201   2.400  0.4143 -0.9959 -0.0522
  204MOL0     C26835   2.860   1.067   2.425  0.7414 -0.5433 -0.8689
  204MOL0     C26836   2.836   1.068   2.571 -0.0558 -0.4091 -0.0778
  204MOL0     C26837   2.771   0.939   2.608  0.0216  0.1275 -0.6261
  204MOL0     C26838   2.789   0.920   2.758 -0.1965 -0.3918  0.3389
  204MOL0     C26839   2.923   0.854   2.768  0.0829  0.3994  0.4264
  204MOL0    Cl26840   2.937   0.788   2.940  0.0232 -0.0610  0.1234
  204MOL0     C26841   3.332   1.258   2.003  0.5660 -0.2904  0.4079
  204MOL0     C26842   3.469   1.229   2.023  0.6521 -0.3380  0.8678
  204MOL0     O26843   3.741   1.139   1.965 -0.1907 -0.2000  0.0796
  204MOL0     C26844   3.903   1.206   2.284  0.2985 -0.7226 -0.5130
  204MOL0     C26845   4.034   1.216   2.341 -0.3074  0.7456  0.5075
  204MOL0     N26846   4.192   1.820   2.424  0.3179 -0.0606 -0.0154
  204MOL0     N26847   4.181   1.864   2.546  0.5038  0.6435 -0.4608
  204MOL0     C26848   2.994   1.979   2.790 -0.4565  0.4029  0.2938
  204MOL0     C26849   2.856   1.974   2.812 -0.3831 -0.4968 -0.7847
  204MOL0     C26850   2.443   2.129   2.874 -0.8928 -0.4791  0.6736
  204MOL0     C26851   2.357   2.050   2.802  0.9627 -0.8169  0.9517
  204MOL0     C26852   2.222   2.070   2.839  0.9673 -0.1601  0.5545
  204MOL0     C26853   2.175   2.142   2.949 -0.3318  0.7137 -0.4137
  204MOL0     O26854   2.037   2.145   2.976  0.0408 -0.4322  0.0914
  204MOL0     C26855   1.956   2.027   2.971 -0.6358  0.3346 -0.3498
  204MOL0     C26856   1.961   1.946   3.100 -0.0835 -0.5626  0.8509
  204MOL0     C26857   1.899   1.800   3.083 -0.5007  0.8442  0.7141
  204MOL0     C26858   1.751   1.797   3.045 -0.1393  0.1681 -0.0834
  204MOL0     C26859   1.657   1.856   3.142  0.2756 -0.1118  0.4170
  204MOL0     C26860   1.585   1.921   3.206  0.1521  0.9364  0.2988
  204MOL0     C26861   2.269   2.222   3.015 -0.1947  0.4499  0.0177
  204MOL0     C26862   2.400   2.206   2.978  0.7377  0.2722 -0.3864
  204MOL0     H26863   2.763   2.108   2.517 -0.6110 -0.8535  0.4859
  204MOL0     H26864   3.000   2.112   2.472  0.8481  2.2751  1.1297
  204MOL0     H26865   3.236   1.877   2.809  2.3222  0.2903  1.7829
  204MOL0     H26866   3.298   2.035   2.818 -0.3984 -0.0238  0.7117
  204MOL0     H26867   3.425   1.989   2.602  1.5529  0.6369  1.5398
  204MOL0     H26868   3.342   1.824   2.612 -3.1347 -0.9084  3.0787
  204MOL0     H26869   3.473   1.764   2.809  3.3602 -1.0081  0.9921
  204MOL0     H26870   3.534   1.933   2.842  3.6017 -1.7094  1.7870
  204MOL0     H26871   3.617   1.764   2.597  0.5369  2.3234 -1.8666
  204MOL0     H26872   3.663   1.930   2.650 -2.7008  1.0370  4.5075
  204MOL0     H26873   3.721   1.691   2.820  0.6336 -2.8451 -3.0826
  204MOL0     H26874   3.764   1.867   2.833 -0.7058  1.2389 -1.7214
  204MOL0     H26875   3.908   1.862   2.659 -1.1732  0.8008 -1.2040
  204MOL0     H26876   3.874   1.695   2.598  0.2572  0.9398 -1.1417
  204MOL0     H26877   3.948   1.716   2.887 -2.9074 -0.5962 -0.8565
  204MOL0     H26878   3.996   1.593   2.769 -0.5317 -0.0192 -0.3813
  204MOL0     H26879   4.200   1.708   2.838  2.0061 -1.1768 -2.3575
  204MOL0     H26880   4.110   1.860   2.821 -0.9402 -1.1640  0.4486
  204MOL0     H26881   4.233   1.547   2.614 -4.7320 -0.8083  0.2669
  204MOL0     H26882   4.233   1.645   2.238  1.3868  0.1388 -0.3237
  204MOL0     H26883   4.133   1.517   2.307 -0.2672  2.7249  0.7156
  204MOL0     H26884   4.336   1.420   2.422 -1.4998 -1.7036 -1.4462
  204MOL0     H26885   4.430   1.553   2.342  1.2818 -1.2744 -2.2945
  204MOL0     H26886   4.266   1.410   2.144  0.5978 -1.0788  0.0439
  204MOL0     H26887   4.443   1.430   2.141 -0.4066 -5.6608 -5.1370
  204MOL0     H26888   4.471   1.244   2.292  0.0218 -0.3299 -1.0985
  204MOL0     H26889   4.383   1.213   2.141 -2.3581 -0.4002 -0.4683
  204MOL0     H26890   4.206   1.125   2.058 -1.1477 -1.4735 -1.4011
  204MOL0     H26891   3.973   1.115   1.968 -2.4135  3.8916 -0.4997
  204MOL0     H26892   3.484   1.212   2.356  0.1957  1.8436 -0.8145
  204MOL0     H26893   3.242   1.253   2.345  2.9218 -0.2685  1.7332
  204MOL0     H26894   2.941   1.397   2.157  0.7924  3.1733  3.2863
  204MOL0     H26895   3.068   1.386   2.275  1.2984 -2.0085 -0.3580
  204MOL0     H26896   3.033   1.114   2.233 -0.0809  1.6214 -1.9223
  204MOL0     H26897   2.878   1.171   2.182  0.1393  0.4862 -0.8461
  204MOL0     H26898   2.855   1.283   2.409  0.7978 -0.3433 -2.3729
  204MOL0     H26899   3.005   1.229   2.470 -1.2152  0.4736  1.2924
  204MOL0     H26900   2.769   1.060   2.366 -0.5128  2.5550  0.4925
  204MOL0     H26901   2.930   0.989   2.395  1.3349 -0.8296  1.0725
  204MOL0     H26902   2.759   1.140   2.600 -0.5363 -0.4342 -1.2575
  204MOL0     H26903   2.925   1.097   2.628  0.3112 -2.3180  0.3799
  204MOL0     H26904   2.807   0.852   2.551 -1.6325 -2.2960  1.7338
  204MOL0     H26905   2.663   0.934   2.591 -0.3247  1.2042  1.0302
  204MOL0     H26906   2.774   1.009   2.820 -0.6455  1.1889 -1.8911
  204MOL0     H26907   2.714   0.849   2.793 -2.7273  1.7141 -0.4420
  204MOL0     H26908   2.999   0.925   2.733 -0.6621  1.3410  0.6963
  204MOL0     H26909   2.925   0.769   2.698 -1.4592  0.2988  0.4739
  204MOL0     H26910   3.285   1.269   1.906  1.3720 -1.2135 -0.0922
  204MOL0     H26911   3.540   1.230   1.941  1.6159 -1.2383  1.6547
  204MOL0     H26912   3.818   1.237   2.343 -0.4546 -1.4427 -1.1925
  204MOL0     H26913   4.064   1.256   2.438  2.6135 -3.4521  1.6026
  204MOL0     H26914   3.048   1.928   2.869 -0.6903  0.2390  0.3504
  204MOL0     H26915   2.818   1.930   2.904 -1.3348 -1.6211 -1.6843
  204MOL0     H26916   2.379   1.984   2.718  3.8111  1.7545 -0.5244
  204MOL0     H26917   2.139   2.041   2.776 -0.5684  0.7593  2.0762
  204MOL0     H26918   1.994   1.958   2.895  5.2401  1.4282  1.1398
  204MOL0     H26919   1.854   2.059   2.950 -0.3951  3.3790  2.3489
  204MOL0     H26920   2.066   1.937   3.130  0.2946 -1.0532 -0.5398
  204MOL0     H26921   1.909   2.004   3.177 -1.9691  0.3465 -1.0037
  204MOL0     H26922   1.915   1.751   3.180  0.4872 -2.4783 -0.9770
  204MOL0     H26923   1.946   1.745   3.001 -1.8220  1.6294 -0.6345
  204MOL0     H26924   1.743   1.828   2.940 -1.6816  1.7486  0.4591
  204MOL0     H26925   1.721   1.692   3.048  2.9344 -0.8756  3.8131
  204MOL0     H26926   1.529   1.978   3.278  0.0542 -0.3575  1.2888
  204MOL0     H26927   2.224   2.275   3.098  0.3461 -1.8629  1.8935
  204MOL0     H26928   2.472   2.255   3.042  0.0674  0.9544 -0.1488
  205MOL0     O26929   3.788   3.269   7.402  0.5388  0.5140 -0.6065
  205MOL0     C26930   3.863   3.198   7.469  0.0049 -0.0831 -0.4267
  205MOL0     O26931   3.825   3.103   7.560  0.7868  0.0816  0.3544
  205MOL0     C26932   3.688   3.086   7.577  0.2887  0.3479 -0.0442
  205MOL0     C26933   3.596   3.050   7.468 -0.8275  0.6765 -0.2965
  205MOL0     C26934   3.458   3.054   7.495 -0.0011  0.4424  0.3703
  205MOL0     C26935   3.412   3.091   7.632  0.5986 -0.0338 -0.4920
  205MOL0     O26936   3.280   3.095   7.664  0.4406  0.2295  0.1316
  205MOL0     C26937   3.226   3.130   7.787  0.4591  0.5216 -0.5531
  205MOL0     C26938   3.083   3.060   7.789  0.1230  0.3637 -1.0672
  205MOL0     C26939   2.990   3.100   7.687  0.5079 -0.6504  0.2476
  205MOL0     C26940   2.848   3.040   7.717 -0.4639  0.1603 -0.0030
  205MOL0     C26941   2.752   3.051   7.592  0.2438 -0.0705 -0.4179
  205MOL0     C26942   2.719   3.203   7.558 -0.2286 -0.4613 -0.2834
  205MOL0     C26943   2.616   3.203   7.448  0.1098 -1.1473  0.0531
  205MOL0     C26944   2.576   3.355   7.399  0.4779 -0.0898  0.3934
  205MOL0     N26945   2.484   3.423   7.490  0.6256  0.7048 -0.3981
  205MOL0     C26946   2.397   3.524   7.461 -0.3914  0.4930 -0.2114
  205MOL0     C26947   2.320   3.544   7.572  0.3085 -0.1708  0.4858
  205MOL0     C26948   2.213   3.648   7.587  0.4770  0.2269  0.3254
  205MOL0     C26949   2.070   3.608   7.549 -0.2247 -0.2916 -0.0136
  205MOL0     C26950   2.000   3.524   7.654 -0.0843  0.4705 -0.1900
  205MOL0     C26951   1.866   3.481   7.595  0.6426 -0.3864 -0.3967
  205MOL0     O26952   1.791   3.600   7.565 -0.5163 -0.3331  0.3135
  205MOL0     C26953   1.676   3.583   7.501  0.2398 -0.0078  0.0141
  205MOL0     C26954   1.617   3.467   7.461  0.2740  0.7379  0.2960
  205MOL0     C26955   1.490   3.466   7.397 -0.3212  0.3523 -0.4424
  205MOL0     C26956   1.427   3.594   7.379 -0.5984  0.0420 -1.2719
  205MOL0     C26957   1.289   3.612   7.325 -0.0937 -0.3841  0.3252
  205MOL0     O26958   1.249   3.737   7.287  0.1685  0.2016 -0.7244
  205MOL0     C26959   1.141   3.746   7.207  0.0156 -0.2288 -0.3283
  205MOL0     C26960   1.015   3.731   7.276 -0.4023 -0.0745  0.1764
  205MOL0     C26961   0.897   3.765   7.217  0.2254 -0.4182  0.6621
  205MOL0     C26962   0.900   3.807   7.084  0.2231  0.7356 -0.5153
  205MOL0     O26963   0.786   3.841   7.019  0.1432 -0.8620 -0.0233
  205MOL0     C26964   0.685   3.896   7.095  0.7253 -0.5994  0.1298
  205MOL0     C26965   0.591   3.987   7.018  0.4013 -0.1702  0.5550
  205MOL0     C26966   0.463   3.926   6.947 -0.1833 -0.4994  0.2103
  205MOL0     C26967   0.356   4.035   6.910  0.4399 -0.3863 -0.6317
  205MOL0     C26968   0.262   4.090   7.027  0.2594  0.4536  0.0937
  205MOL0     C26969   0.166   4.193   6.975 -0.1905  0.1647 -0.6937
  205MOL0     C26970   0.023   4.190   7.047 -0.8500  0.0831  0.2099
  205MOL0     C26971  -0.079   4.296   6.992  0.1614 -0.0112 -0.0044
  205MOL0    Cl26972  -0.140   4.256   6.822 -0.1495 -0.2102  0.4626
  205MOL0     C26973   1.021   3.823   7.013  0.0845  0.3633  0.6059
  205MOL0     C26974   1.142   3.792   7.082  0.3659  0.0811  0.1218
  205MOL0     O26975   1.227   3.510   7.315  0.7090  0.1355 -0.0251
  205MOL0     C26976   1.493   3.711   7.428  0.9843  0.2765  0.1339
  205MOL0     C26977   1.618   3.710   7.471 -0.1472  0.9045  0.1735
  205MOL0     N26978   2.373   3.471   7.678 -0.2003  0.4453  0.0435
  205MOL0     N26979   2.463   3.393   7.627 -0.5589  0.4286 -0.3726
  205MOL0     C26980   3.513   3.125   7.734  0.5727 -0.1062 -0.2691
  205MOL0     C26981   3.645   3.115   7.702  0.8711  0.3856  0.3864
  205MOL0     C26982   4.004   3.207   7.446 -0.7153 -0.8367  0.4719
  205MOL0     C26983   4.093   3.169   7.552  0.0753 -0.2981  0.0701
  205MOL0     C26984   4.232   3.177   7.534 -1.0781 -0.2400 -0.3499
  205MOL0     C26985   4.289   3.212   7.413  0.7499  0.7641  0.4289
  205MOL0     O26986   4.424   3.189   7.390  0.8954 -0.5729  0.1222
  205MOL0     C26987   4.458   3.135   7.260  1.2315 -0.5780  0.3684
  205MOL0     C26988   4.598   3.079   7.270 -0.8071 -0.3459 -0.6462
  205MOL0     C26989   4.715   3.182   7.287  1.5548  0.8555  0.4831
  205MOL0     C26990   4.841   3.112   7.323 -0.0743 -0.0247 -1.0300
  205MOL0     C26991   4.892   3.013   7.228  0.6961  0.0573 -0.4143
  205MOL0     C26992   4.933   2.938   7.149 -0.7584  0.7017  0.0039
  205MOL0     C26993   4.200   3.242   7.299 -0.1191 -1.1031 -0.3000
  205MOL0     C26994   4.063   3.241   7.323 -0.4247  0.0098  0.1520
  205MOL0     H26995   3.632   3.042   7.366  2.1462  2.0266  0.5312
  205MOL0     H26996   3.392   3.036   7.410  0.0543  0.5724  0.2987
  205MOL0     H26997   3.224   3.239   7.799  1.2179  0.3984  0.8556
  205MOL0     H26998   3.287   3.079   7.862  1.2890  1.8629 -0.2831
  205MOL0     H26999   3.054   3.081   7.892  0.4556 -0.9631 -0.6855
  205MOL0     H27000   3.090   2.951   7.781 -0.8027  0.1241  0.8729
  205MOL0     H27001   3.034   3.071   7.592  1.6923  4.2535 -0.9863
  205MOL0     H27002   2.982   3.209   7.684  1.1910 -0.6196 -2.4716
  205MOL0     H27003   2.872   2.935   7.735  1.1376  0.9500  3.3145
  205MOL0     H27004   2.798   3.093   7.799  2.2347 -0.5432  2.2586
  205MOL0     H27005   2.656   3.005   7.620  1.3389 -1.1971  1.7382
  205MOL0     H27006   2.793   3.003   7.503  0.6763 -0.5668  0.0449
  205MOL0     H27007   2.801   3.265   7.520 -1.2002  0.2751 -1.2580
  205MOL0     H27008   2.683   3.256   7.647  0.7779  2.8536 -1.6874
  205MOL0     H27009   2.655   3.148   7.362 -1.8904 -0.6527 -1.2326
  205MOL0     H27010   2.520   3.160   7.474 -1.1065  0.8656 -0.8499
  205MOL0     H27011   2.533   3.335   7.300  1.2671 -1.0968  0.2352
  205MOL0     H27012   2.670   3.408   7.382  1.2571 -2.1951 -2.8086
  205MOL0     H27013   2.380   3.567   7.363  0.3650 -0.4359 -0.7711
  205MOL0     H27014   2.236   3.728   7.515  1.9863  0.7429  1.3417
  205MOL0     H27015   2.212   3.699   7.683  0.8372  1.3695 -0.2618
  205MOL0     H27016   2.076   3.546   7.458  2.9337 -1.3504  0.7771
  205MOL0     H27017   2.007   3.696   7.533 -1.5076 -0.9786  1.0547
  205MOL0     H27018   2.061   3.445   7.699 -0.8050  0.0502  0.0486
  205MOL0     H27019   1.974   3.599   7.729  1.6560  1.5190 -0.5673
  205MOL0     H27020   1.814   3.429   7.676  0.1548  1.2110  0.3618
  205MOL0     H27021   1.884   3.424   7.504  1.4808  3.0919 -2.6220
  205MOL0     H27022   1.666   3.370   7.456 -2.7505 -0.8881 -2.6827
  205MOL0     H27023   1.446   3.372   7.367 -1.2729  0.7204 -0.2517
  205MOL0     H27024   1.024   3.706   7.382  1.2950  0.8668  0.3012
  205MOL0     H27025   0.804   3.744   7.269 -0.1399 -1.1261 -0.2426
  205MOL0     H27026   0.731   3.961   7.169 -3.5875  1.4016  1.3801
  205MOL0     H27027   0.630   3.818   7.150  2.6556 -0.9001  1.7355
  205MOL0     H27028   0.650   4.042   6.944  0.4569  0.3644  0.9977
  205MOL0     H27029   0.554   4.060   7.090  0.9852  1.4081 -0.6903
  205MOL0     H27030   0.420   3.856   7.020  0.8128 -0.8105  0.5094
  205MOL0     H27031   0.497   3.861   6.866  1.7219 -1.2383  1.5258
  205MOL0     H27032   0.394   4.123   6.857 -2.3740  1.2126 -0.2202
  205MOL0     H27033   0.288   3.993   6.835 -0.5249 -1.2386  0.6768
  205MOL0     H27034   0.326   4.127   7.108 -2.3040 -0.1738  2.5663
  205MOL0     H27035   0.206   4.009   7.075 -0.0796  0.6020 -0.0547
  205MOL0     H27036   0.164   4.181   6.866  0.3720  0.3154 -0.7213
  205MOL0     H27037   0.208   4.293   6.988  1.4940 -0.5450 -0.4671
  205MOL0     H27038  -0.019   4.091   7.027 -0.5072 -0.1923  0.8037
  205MOL0     H27039   0.044   4.195   7.155  0.6122  3.1632 -0.1137
  205MOL0     H27040  -0.031   4.394   6.981  0.0055 -0.1471 -2.3720
  205MOL0     H27041  -0.157   4.308   7.068 -0.1235  2.8439 -0.6245
  205MOL0     H27042   1.007   3.877   6.919 -1.4158 -0.8268  0.1043
  205MOL0     H27043   1.232   3.817   7.026  0.4143 -0.7820 -0.1934
  205MOL0     H27044   1.442   3.807   7.429  2.3704  1.0568  2.3297
  205MOL0     H27045   1.666   3.805   7.493 -0.6471  1.2104 -0.0404
  205MOL0     H27046   3.474   3.157   7.830 -0.2515  1.1842 -0.9963
  205MOL0     H27047   3.722   3.135   7.775  0.1696 -0.4772  1.3872
  205MOL0     H27048   4.068   3.115   7.643  3.2548 -0.2186  1.1000
  205MOL0     H27049   4.296   3.153   7.619 -1.2472  0.6336  0.0291
  205MOL0     H27050   4.454   3.221   7.192  0.7076 -1.5660 -0.8904
  205MOL0     H27051   4.398   3.049   7.231  1.5228 -1.4883  2.3106
  205MOL0     H27052   4.597   3.016   7.359 -1.6341  0.8644  0.2390
  205MOL0     H27053   4.622   3.020   7.182 -0.7947  0.1142 -0.9565
  205MOL0     H27054   4.689   3.260   7.360  0.3247  0.1011  0.8780
  205MOL0     H27055   4.729   3.233   7.192  3.7729  1.5619  1.1204
  205MOL0     H27056   4.917   3.189   7.334 -1.1723  0.8637  0.9715
  205MOL0     H27057   4.821   3.068   7.421 -0.0194 -1.3490 -1.5960
  205MOL0     H27058   4.962   2.861   7.081  0.8848 -0.9592  2.4341
  205MOL0     H27059   4.237   3.256   7.198 -2.3718 -1.5431 -1.2377
  205MOL0     H27060   3.999   3.272   7.241  0.4374 -0.1191 -0.5952
  206MOL0     O27061  10.246  11.123   1.107  0.0851 -0.7930  0.2549
  206MOL0     C27062  10.332  11.178   1.048 -0.3228 -0.5175 -0.0795
  206MOL0     O27063  10.323  11.242   0.925  0.6401 -0.2449 -0.4657
  206MOL0     C27064  10.198  11.261   0.876 -0.5851  0.0458  0.1317
  206MOL0     C27065  10.166  11.393   0.843  0.2517  0.0569  0.2879
  206MOL0     C27066  10.051  11.429   0.775 -0.2024 -0.4188  0.1269
  206MOL0     C27067   9.949  11.330   0.735  0.4257 -0.3236 -0.2308
  206MOL0     O27068   9.837  11.365   0.668 -0.0529 -0.1707  0.3483
  206MOL0     C27069   9.774  11.274   0.588  0.1347 -0.1875  0.0521
  206MOL0     C27070   9.648  11.317   0.513  0.1511 -0.6076  0.6553
  206MOL0     C27071   9.554  11.407   0.601 -1.0392  0.0662  0.2355
  206MOL0     C27072   9.418  11.449   0.534  0.6033  0.8805 -0.4566
  206MOL0     C27073   9.346  11.555   0.627 -0.4053 -0.5939  0.4608
  206MOL0     C27074   9.194  11.570   0.597  0.2261 -0.2060 -0.1716
  206MOL0     C27075   9.134  11.690   0.676 -0.6080 -0.2932  0.7383
  206MOL0     C27076   8.983  11.720   0.648 -0.2721 -0.3981 -0.4738
  206MOL0     N27077   8.900  11.613   0.700  0.5912  0.1079  0.4379
  206MOL0     C27078   8.847  11.595   0.825 -0.4086 -0.0117  0.6930
  206MOL0     C27079   8.762  11.491   0.810 -0.0022 -0.6979  0.5772
  206MOL0     C27080   8.682  11.433   0.919  0.1275 -1.3498  0.3970
  206MOL0     C27081   8.537  11.419   0.886  0.0689 -0.3934 -0.1051
  206MOL0     C27082   8.456  11.527   0.958 -0.7694  0.4521 -0.0182
  206MOL0     C27083   8.309  11.519   0.933 -0.2894  0.9074 -0.9180
  206MOL0     O27084   8.261  11.629   1.009 -0.8016  0.4663  0.5983
  206MOL0     C27085   8.124  11.659   0.996 -0.7971 -0.1578 -0.1672
  206MOL0     C27086   8.079  11.778   1.040  0.2108  0.3021 -0.0247
  206MOL0     C27087   7.943  11.812   1.045  0.0859 -0.0424  0.1186
  206MOL0     C27088   7.848  11.718   1.010  0.2140  0.1469  0.3190
  206MOL0     C27089   7.709  11.741   0.994  0.1131  0.0746 -0.2238
  206MOL0     O27090   7.667  11.689   0.869  0.8487  0.0122 -0.2152
  206MOL0     C27091   7.531  11.660   0.869 -0.2224 -0.1632  0.4246
  206MOL0     C27092   7.464  11.583   0.967  0.3244 -0.2794  0.3763
  206MOL0     C27093   7.328  11.581   0.950 -0.3280 -0.1815 -0.7594
  206MOL0     C27094   7.262  11.638   0.848  0.2022  0.4576  0.1768
  206MOL0     O27095   7.125  11.629   0.832  0.3200 -0.0345 -0.8307
  206MOL0     C27096   7.039  11.549   0.915  0.9230 -0.3417 -0.1515
  206MOL0     C27097   6.891  11.588   0.884  0.2516 -0.2168  0.1444
  206MOL0     C27098   6.840  11.545   0.739  0.3530  0.0443 -0.2735
  206MOL0     C27099   6.692  11.583   0.731  0.3805  0.3424  0.3202
  206MOL0     C27100   6.642  11.725   0.703  0.0520  0.0398  0.7569
  206MOL0     C27101   6.496  11.733   0.738 -0.8421  1.0125  0.3339
  206MOL0     C27102   6.440  11.872   0.719  0.0978 -0.3212 -0.9683
  206MOL0     C27103   6.357  11.903   0.604  0.1197 -0.0133 -0.4156
  206MOL0    Cl27104   6.308  12.073   0.604 -0.4455  0.0276  0.2012
  206MOL0     C27105   7.333  11.713   0.750  1.2421  0.0345  1.1025
  206MOL0     C27106   7.463  11.730   0.765 -0.2215  0.5300  0.1133
  206MOL0     O27107   7.637  11.799   1.077 -0.6241 -0.2710  0.4901
  206MOL0     C27108   7.889  11.596   0.962 -0.7819  0.1667  0.9560
  206MOL0     C27109   8.025  11.564   0.951 -0.6840  0.8493  0.3420
  206MOL0     N27110   8.770  11.441   0.679  0.4311  0.4396 -0.4697
  206MOL0     N27111   8.858  11.512   0.619  0.0789 -0.2710  0.3113
  206MOL0     C27112   9.984  11.205   0.790  0.3270  0.3145  0.9264
  206MOL0     C27113  10.103  11.164   0.846  0.5327  0.8074  0.1628
  206MOL0     C27114  10.476  11.136   1.083  0.1926  0.0811 -0.2710
  206MOL0     C27115  10.508  11.012   1.135 -0.1169 -0.3943  0.0916
  206MOL0     C27116  10.636  10.959   1.139  0.0911 -0.5684  0.0985
  206MOL0     C27117  10.740  11.039   1.089 -0.1778 -0.6022 -0.5114
  206MOL0     O27118  10.869  10.998   1.095  0.3363  0.5587  1.1816
  206MOL0     C27119  10.921  10.950   0.969  0.4590 -0.8403  0.7833
  206MOL0     C27120  10.899  10.807   0.937 -0.1116 -0.1636  0.3807
  206MOL0     C27121  10.987  10.711   1.019  0.1211  0.8104 -0.3619
  206MOL0     C27122  11.128  10.694   0.976 -0.9145 -0.6220  0.1828
  206MOL0     C27123  11.191  10.588   1.055 -0.2759  0.3966 -0.7499
  206MOL0     C27124  11.255  10.505   1.117 -0.3161  0.5086  0.6558
  206MOL0     C27125  10.708  11.167   1.041 -0.1867  0.4775 -0.4505
  206MOL0     C27126  10.581  11.215   1.031 -0.2116  0.2077 -0.5211
  206MOL0     H27127  10.232  11.476   0.869  3.3355 -0.8723 -3.6537
  206MOL0     H27128  10.033  11.529   0.737 -0.3652 -0.9762 -1.3150
  206MOL0     H27129   9.752  11.186   0.650  1.8078 -0.0129  0.9250
  206MOL0     H27130   9.845  11.242   0.512 -1.7318 -3.5314 -0.5234
  206MOL0     H27131   9.585  11.236   0.475 -0.5019 -0.2150  0.8884
  206MOL0     H27132   9.676  11.375   0.424  0.8228 -2.1642 -0.1822
  206MOL0     H27133   9.619  11.491   0.629  2.0557 -2.2417  0.4424
  206MOL0     H27134   9.533  11.356   0.695  0.1152  1.1538  1.1230
  206MOL0     H27135   9.440  11.499   0.438 -3.2758  1.9894 -0.9527
  206MOL0     H27136   9.355  11.360   0.535 -0.8197  1.8567  1.6360
  206MOL0     H27137   9.397  11.650   0.609 -1.9059 -0.3082 -3.2813
  206MOL0     H27138   9.360  11.531   0.733  1.1342  0.4746  0.5239
  206MOL0     H27139   9.140  11.477   0.616 -0.2274 -0.3866 -2.1785
  206MOL0     H27140   9.188  11.584   0.489  2.2721  1.0833 -0.1740
  206MOL0     H27141   9.153  11.665   0.781  2.5617 -0.3470  0.2630
  206MOL0     H27142   9.188  11.782   0.649 -1.0233  0.3638  2.0598
  206MOL0     H27143   8.958  11.724   0.541 -1.8157 -0.5930 -0.1459
  206MOL0     H27144   8.949  11.817   0.684  1.1012 -0.9595  2.5910
  206MOL0     H27145   8.863  11.661   0.909 -0.6425  2.1301 -0.8442
  206MOL0     H27146   8.699  11.489   1.011 -0.5426 -0.2189 -0.1532
  206MOL0     H27147   8.724  11.333   0.933  0.4806 -1.8679 -3.2930
  206MOL0     H27148   8.500  11.320   0.916 -0.5224 -0.8355 -2.1061
  206MOL0     H27149   8.513  11.436   0.780 -0.2939 -3.6538 -0.6674
  206MOL0     H27150   8.466  11.514   1.066 -2.7926 -0.4356  0.0944
  206MOL0     H27151   8.508  11.616   0.921  0.5328 -1.7400 -4.1387
  206MOL0     H27152   8.272  11.423   0.969  1.0569  0.1604 -1.4483
  206MOL0     H27153   8.287  11.532   0.827 -1.2774 -0.7001 -0.9450
  206MOL0     H27154   8.152  11.843   1.086  0.1469  2.1340 -2.3489
  206MOL0     H27155   7.912  11.911   1.077 -2.7743 -0.5979 -0.6588
  206MOL0     H27156   7.516  11.539   1.052 -0.1924 -3.1159 -0.6589
  206MOL0     H27157   7.273  11.526   1.025 -2.8079  1.1319 -1.4744
  206MOL0     H27158   7.057  11.576   1.019  0.2057  0.9072 -0.3356
  206MOL0     H27159   7.045  11.440   0.904 -1.4053 -0.6287  0.7583
  206MOL0     H27160   6.879  11.694   0.907  2.0879  0.0041  0.2589
  206MOL0     H27161   6.823  11.539   0.954 -1.9312 -0.2055 -1.8325
  206MOL0     H27162   6.845  11.436   0.732 -0.7633 -0.1999  2.0477
  206MOL0     H27163   6.897  11.598   0.661 -0.3958  3.6083  1.3907
  206MOL0     H27164   6.652  11.518   0.653  2.8804 -2.2736  1.0379
  206MOL0     H27165   6.654  11.558   0.830  1.6215  3.1402  1.6297
  206MOL0     H27166   6.676  11.755   0.604  2.5143 -5.0565 -0.2936
  206MOL0     H27167   6.687  11.799   0.770 -1.2555  1.9988 -0.4202
  206MOL0     H27168   6.480  11.691   0.837  0.6950  0.6821  0.4637
  206MOL0     H27169   6.439  11.668   0.670  1.8993 -1.2876  0.0550
  206MOL0     H27170   6.374  11.888   0.805 -0.2300 -3.1528 -0.5982
  206MOL0     H27171   6.525  11.941   0.726 -0.3206  0.1389 -0.3991
  206MOL0     H27172   6.265  11.844   0.608  0.4301 -0.4581  0.7099
  206MOL0     H27173   6.404  11.883   0.507 -1.9250 -1.5634 -1.1597
  206MOL0     H27174   7.281  11.755   0.665 -0.2497 -2.9607  0.3912
  206MOL0     H27175   7.519  11.785   0.691  0.8425 -1.7634 -0.8922
  206MOL0     H27176   7.826  11.516   0.924  0.2041 -0.8757  1.4512
  206MOL0     H27177   8.055  11.467   0.914 -2.2188 -0.2640  1.8665
  206MOL0     H27178   9.910  11.127   0.773 -0.9290  1.8348 -1.0673
  206MOL0     H27179  10.122  11.058   0.860 -0.3878  0.6552  0.3286
  206MOL0     H27180  10.417  10.957   1.155  0.2952 -1.0051  0.3506
  206MOL0     H27181  10.655  10.860   1.178  0.9329 -1.3209 -2.0561
  206MOL0     H27182  11.028  10.974   0.964  0.6200 -1.7996 -1.5401
  206MOL0     H27183  10.882  11.023   0.897  0.6386  0.8764  2.3339
  206MOL0     H27184  10.790  10.800   0.936 -0.3215  1.5917 -2.2961
  206MOL0     H27185  10.920  10.798   0.830 -0.0285 -0.8943  0.4596
  206MOL0     H27186  10.940  10.614   1.006 -0.4778  0.9489  0.6581
  206MOL0     H27187  10.971  10.732   1.125  0.3959  1.5821 -0.4586
  206MOL0     H27188  11.130  10.663   0.871 -1.3884  0.5827 -0.1972
  206MOL0     H27189  11.179  10.789   0.994 -1.7244 -0.4264  1.5756
  206MOL0     H27190  11.306  10.419   1.157  0.4643  1.6217  2.1713
  206MOL0     H27191  10.784  11.235   1.002  2.3909 -1.7913  0.3464
  206MOL0     H27192  10.571  11.317   0.997  3.7222  1.0439  0.2903
  207MOL0     O27193   1.722   9.511   2.652  0.4965  0.7380  0.8995
  207MOL0     C27194   1.699   9.429   2.738  0.2001 -0.0890 -0.3208
  207MOL0     O27195   1.598   9.440   2.823 -0.1030 -0.6535  0.0200
  207MOL0     C27196   1.544   9.575   2.853 -0.2130  0.4131 -0.2391
  207MOL0     C27197   1.627   9.690   2.874  0.1702  0.4911 -0.3817
  207MOL0     C27198   1.573   9.813   2.905  0.5358 -0.4048  0.0999
  207MOL0     C27199   1.435   9.838   2.919  0.1190  0.1728  0.7712
  207MOL0     O27200   1.384   9.951   2.969 -0.2127 -1.0887  0.2676
  207MOL0     C27201   1.403  10.071   2.895  0.0336  0.1766  0.0510
  207MOL0     C27202   1.355  10.059   2.747  0.5111 -0.0878  0.0526
  207MOL0     C27203   1.355  10.189   2.674  0.4350 -0.1449 -0.4102
  207MOL0     C27204   1.261  10.194   2.549 -0.6234  0.6192  0.2017
  207MOL0     C27205   1.306  10.300   2.453  0.4761  0.1655 -0.6604
  207MOL0     C27206   1.231  10.292   2.327  0.0188  0.4165  0.6525
  207MOL0     C27207   1.076  10.303   2.338 -0.0991 -0.0904  0.5435
  207MOL0     C27208   1.008  10.359   2.220  0.4412  0.0666  0.3240
  207MOL0     N27209   0.862  10.362   2.239 -0.2102 -0.0947 -0.1492
  207MOL0     C27210   0.779  10.269   2.179 -0.0987  0.8535  0.7289
  207MOL0     C27211   0.659  10.292   2.241 -0.4433 -0.8827 -0.6409
  207MOL0     C27212   0.525  10.250   2.196  0.0136 -0.5326 -0.6945
  207MOL0     C27213   0.426  10.371   2.171  0.0455 -0.1175 -0.3202
  207MOL0     C27214   0.287  10.318   2.157 -0.2194 -0.5303  0.4218
  207MOL0     C27215   0.193  10.424   2.101  1.2238 -0.1193  0.1437
  207MOL0     O27216   0.137  10.527   2.187 -0.0114  0.1427  0.8774
  207MOL0     C27217   0.003  10.563   2.173 -0.6667 -0.8084 -0.5061
  207MOL0     C27218  -0.052  10.630   2.291  0.2436  0.0585 -0.1201
  207MOL0     C27219  -0.184  10.682   2.295 -0.8831  0.5419  0.3023
  207MOL0     C27220  -0.270  10.668   2.186  0.3594  0.1640  0.0542
  207MOL0     C27221  -0.406  10.729   2.189 -0.3839 -1.2381 -1.9533
  207MOL0     O27222  -0.480  10.724   2.072 -0.0840  0.4270  0.3679
  207MOL0     C27223  -0.605  10.765   2.053  0.7049 -0.1667 -0.0813
  207MOL0     C27224  -0.641  10.805   1.929 -0.0732  0.4115  0.2161
  207MOL0     C27225  -0.773  10.852   1.898 -0.8378  0.4562 -0.1742
  207MOL0     C27226  -0.866  10.855   1.998  0.2288  0.3187  0.2335
  207MOL0     O27227  -1.000  10.896   1.979 -0.4508  0.1690  0.7835
  207MOL0     C27228  -1.061  10.905   1.844  0.0317 -1.0035 -0.1588
  207MOL0     C27229  -1.195  10.973   1.852  0.4602 -0.3304 -0.5666
  207MOL0     C27230  -1.261  10.966   1.714  0.4247 -0.6066  0.5029
  207MOL0     C27231  -1.406  11.009   1.733  0.8907 -0.6586  0.0250
  207MOL0     C27232  -1.486  11.043   1.605 -1.1372  0.3742  0.5950
  207MOL0     C27233  -1.561  11.174   1.625 -0.1070 -0.4923 -0.3173
  207MOL0     C27234  -1.687  11.158   1.723  0.7179  0.0175 -0.8487
  207MOL0     C27235  -1.785  11.274   1.735 -0.0424 -0.1787 -0.1915
  207MOL0    Cl27236  -1.878  11.278   1.587 -0.0502 -0.3076  0.1292
  207MOL0     C27237  -0.833  10.805   2.125 -0.1848  0.1365 -0.6167
  207MOL0     C27238  -0.708  10.764   2.157 -0.0407  0.1794  0.1506
  207MOL0     O27239  -0.441  10.795   2.289 -0.5810  0.0397 -0.1855
  207MOL0     C27240  -0.212  10.613   2.070 -0.3770 -0.1149  0.4513
  207MOL0     C27241  -0.082  10.559   2.060 -0.9417  0.1978 -0.6882
  207MOL0     N27242   0.674  10.399   2.332 -0.3457  0.2643 -0.6341
  207MOL0     N27243   0.795  10.438   2.337  0.3309  0.2869  0.1452
  207MOL0     C27244   1.356   9.723   2.900  0.1787  0.6168  0.6902
  207MOL0     C27245   1.410   9.597   2.859 -0.2524 -0.0669  0.7476
  207MOL0     C27246   1.784   9.302   2.756  0.7244 -0.8306 -0.6460
  207MOL0     C27247   1.753   9.218   2.858 -0.2056  1.2016 -0.0149
  207MOL0     C27248   1.840   9.104   2.872 -0.0315 -0.3387 -0.9977
  207MOL0     C27249   1.947   9.075   2.782  0.0295 -0.1399  0.4004
  207MOL0     O27250   2.020   8.961   2.802  0.3626 -0.3990  0.1938
  207MOL0     C27251   2.135   8.936   2.717  0.2190  1.0253 -1.0239
  207MOL0     C27252   2.226   8.821   2.778  0.3184 -0.5363  0.2610
  207MOL0     C27253   2.283   8.855   2.913  0.2350 -0.1438 -0.6274
  207MOL0     C27254   2.395   8.764   2.954 -0.3573 -0.6712  0.4381
  207MOL0     C27255   2.513   8.798   2.872 -0.4300  0.0883  0.5493
  207MOL0     C27256   2.621   8.829   2.822 -0.0837  0.0683  0.3264
  207MOL0     C27257   1.961   9.159   2.669  0.4306  0.5288  0.3243
  207MOL0     C27258   1.874   9.267   2.658 -0.2076  0.2496 -0.5828
  207MOL0     H27259   1.735   9.684   2.864  0.0015 -0.5356 -1.7835
  207MOL0     H27260   1.653   9.883   2.923  0.3386 -0.4490  1.2393
  207MOL0     H27261   1.507  10.096   2.914 -0.4612  1.4436  1.2321
  207MOL0     H27262   1.351  10.153   2.946  1.1187  1.4996 -0.9350
  207MOL0     H27263   1.254  10.017   2.756 -0.2121  1.1019 -1.9390
  207MOL0     H27264   1.408   9.983   2.689 -1.2826  0.6130 -2.6960
  207MOL0     H27265   1.458  10.212   2.645  0.2324  0.4445 -0.6644
  207MOL0     H27266   1.325  10.273   2.737  0.9810  0.8883 -1.4895
  207MOL0     H27267   1.272  10.097   2.500  1.1473  1.0626 -0.3442
  207MOL0     H27268   1.158  10.201   2.587 -0.4610 -0.6397  0.9247
  207MOL0     H27269   1.412  10.297   2.426  0.4478  1.5519 -0.9981
  207MOL0     H27270   1.281  10.400   2.487  0.2480 -0.4590  1.1036
  207MOL0     H27271   1.248  10.202   2.268  2.3765 -0.0266  1.8902
  207MOL0     H27272   1.257  10.378   2.264 -2.9884  1.0241  0.0747
  207MOL0     H27273   1.030  10.206   2.358 -4.6092  1.3669 -1.3913
  207MOL0     H27274   1.053  10.373   2.419 -0.4230  2.0227 -1.2617
  207MOL0     H27275   1.037  10.294   2.137  0.7348 -0.4951  0.8584
  207MOL0     H27276   1.042  10.461   2.197 -1.3498  0.3878 -1.0657
  207MOL0     H27277   0.798  10.206   2.092  0.9414  0.2047  1.4053
  207MOL0     H27278   0.487  10.181   2.273  2.5955 -1.0451  0.2268
  207MOL0     H27279   0.539  10.211   2.095  1.0242  0.9739 -1.1660
  207MOL0     H27280   0.456  10.428   2.083  2.5043  0.1515  0.6264
  207MOL0     H27281   0.431  10.437   2.257 -0.2461  0.8941 -1.0630
  207MOL0     H27282   0.303  10.239   2.083  0.7721 -0.5035  0.5960
  207MOL0     H27283   0.236  10.273   2.242 -0.4906  1.0242  1.1147
  207MOL0     H27284   0.115  10.363   2.055  1.5860  0.1334 -0.8505
  207MOL0     H27285   0.237  10.463   2.009  2.8698  0.0508  0.9700
  207MOL0     H27286   0.013  10.638   2.377 -0.2515 -0.9000  0.3641
  207MOL0     H27287  -0.214  10.741   2.381  1.0705  1.7492  0.2219
  207MOL0     H27288  -0.561  10.815   1.857  1.8478  3.1189  2.4801
  207MOL0     H27289  -0.796  10.890   1.799 -3.1787 -2.0166 -0.7253
  207MOL0     H27290  -1.071  10.805   1.800 -0.7427 -1.4298  0.9524
  207MOL0     H27291  -0.997  10.965   1.778  1.3617 -0.7000  1.3609
  207MOL0     H27292  -1.179  11.077   1.881  1.7058 -0.9817  1.2246
  207MOL0     H27293  -1.258  10.918   1.923 -2.5045  0.0940 -2.6902
  207MOL0     H27294  -1.247  10.873   1.658 -0.9402  1.4716 -3.7969
  207MOL0     H27295  -1.224  11.040   1.642 -1.6501  0.0789  0.0472
  207MOL0     H27296  -1.461  10.932   1.789  0.4306  0.4919  1.1957
  207MOL0     H27297  -1.407  11.102   1.790  1.1359 -0.9572  0.5280
  207MOL0     H27298  -1.550  10.956   1.584  1.0766 -1.3627  0.6692
  207MOL0     H27299  -1.422  11.060   1.517 -1.4331  2.1762  0.6853
  207MOL0     H27300  -1.599  11.205   1.527 -0.1368  1.1934  0.2077
  207MOL0     H27301  -1.507  11.262   1.661 -0.2185 -1.2944  1.9851
  207MOL0     H27302  -1.731  11.063   1.689  0.2183 -0.4589  1.0266
  207MOL0     H27303  -1.639  11.144   1.820  3.3137 -0.3080 -2.0920
  207MOL0     H27304  -1.741  11.373   1.752 -0.2732 -0.3930  1.9201
  207MOL0     H27305  -1.843  11.263   1.827  0.5470  1.5368  0.4291
  207MOL0     H27306  -0.918  10.796   2.192 -0.8918  0.1566 -1.4882
  207MOL0     H27307  -0.684  10.729   2.258 -4.0096 -0.2030  1.1148
  207MOL0     H27308  -0.273  10.622   1.981  0.3537  2.3179  0.1177
  207MOL0     H27309  -0.045  10.524   1.964  2.1600  0.9103  0.1303
  207MOL0     H27310   1.249   9.719   2.883  0.0172 -0.8839  1.8141
  207MOL0     H27311   1.339   9.521   2.828  0.2472 -0.3588  0.3128
  207MOL0     H27312   1.675   9.247   2.927 -0.7266  0.1057 -0.1226
  207MOL0     H27313   1.824   9.025   2.945 -0.2613 -0.9725 -1.7183
  207MOL0     H27314   2.201   9.022   2.700  1.6392 -0.4011 -3.0648
  207MOL0     H27315   2.115   8.904   2.615 -2.9766  3.1063 -1.2027
  207MOL0     H27316   2.163   8.732   2.771 -4.2121  2.2865  1.3291
  207MOL0     H27317   2.313   8.801   2.714  1.3665 -1.2720  1.8311
  207MOL0     H27318   2.198   8.858   2.983  1.6217 -2.3770  1.3032
  207MOL0     H27319   2.321   8.958   2.913 -0.9157  0.3280  0.7652
  207MOL0     H27320   2.420   8.771   3.060  0.6488  0.8868  0.1248
  207MOL0     H27321   2.361   8.660   2.941 -1.2776 -0.1592 -1.7430
  207MOL0     H27322   2.712   8.852   2.770  0.5470 -0.1986  1.2901
  207MOL0     H27323   2.027   9.144   2.585 -1.2078 -0.3444 -0.8639
  207MOL0     H27324   1.894   9.331   2.573  1.0629  0.6949  0.0288
  208MOL0     O27325   1.172   5.183   0.274 -0.1291  0.8887 -0.1349
  208MOL0     C27326   1.196   5.069   0.254 -0.5900 -0.0328 -0.8564
  208MOL0     O27327   1.117   4.971   0.197 -0.9004  0.2741 -0.2614
  208MOL0     C27328   1.006   5.028   0.134  0.0250 -0.3227 -0.7620
  208MOL0     C27329   0.893   5.057   0.209 -0.1916  0.0046  0.4377
  208MOL0     C27330   0.778   5.114   0.150  0.7768  0.8308 -0.1942
  208MOL0     C27331   0.774   5.129   0.010 -1.3889 -0.0306  0.0807
  208MOL0     O27332   0.659   5.171  -0.064  0.1587  0.0614  0.4302
  208MOL0     C27333   0.547   5.236  -0.005 -0.9041 -0.5532 -0.5649
  208MOL0     C27334   0.434   5.151   0.058  0.3787  0.4862  0.8012
  208MOL0     C27335   0.337   5.246   0.129 -0.8603  0.2880 -0.5197
  208MOL0     C27336   0.194   5.201   0.162 -0.0626  0.2536 -0.5045
  208MOL0     C27337   0.124   5.263   0.279  0.1904  0.3146  0.3706
  208MOL0     C27338   0.122   5.422   0.271  0.2960  0.5292  0.3229
  208MOL0     C27339   0.053   5.478   0.393 -0.2888 -0.6504 -0.3458
  208MOL0     C27340   0.029   5.630   0.393  0.1860 -0.6303  0.7114
  208MOL0     N27341   0.141   5.706   0.448 -0.7766  0.3409  0.0459
  208MOL0     C27342   0.275   5.714   0.408 -0.1246  1.0097 -0.2694
  208MOL0     C27343   0.336   5.780   0.504 -0.5776 -0.2272 -0.4677
  208MOL0     C27344   0.485   5.824   0.505  0.2263  0.4706  0.1453
  208MOL0     C27345   0.502   5.957   0.442  0.4246 -0.6236  0.2376
  208MOL0     C27346   0.600   6.058   0.515 -0.1459  0.4292  0.2647
  208MOL0     C27347   0.731   6.001   0.564  0.0071  0.7995 -0.7365
  208MOL0     O27348   0.814   6.108   0.612  0.5331 -0.3587  0.2351
  208MOL0     C27349   0.957   6.105   0.624  0.3049 -0.2482 -0.8590
  208MOL0     C27350   1.031   5.994   0.578 -0.2298  0.2892  0.2871
  208MOL0     C27351   1.164   5.996   0.599 -0.3098  0.1083  0.0240
  208MOL0     C27352   1.232   6.112   0.659 -0.0308 -1.1919  0.6578
  208MOL0     C27353   1.387   6.107   0.681 -0.5415  0.3394  0.9135
  208MOL0     O27354   1.437   5.979   0.663 -0.0224 -0.3857  0.7981
  208MOL0     C27355   1.579   5.954   0.673 -0.5889 -0.4996  0.3955
  208MOL0     C27356   1.662   5.999   0.777 -0.0267 -0.5865 -0.8598
  208MOL0     C27357   1.795   5.966   0.776 -0.5270 -0.1715  0.2747
  208MOL0     C27358   1.844   5.880   0.679 -0.8309 -0.0315  0.5133
  208MOL0     O27359   1.969   5.819   0.676  0.2180 -0.1389 -0.3671
  208MOL0     C27360   2.080   5.905   0.720  0.3943 -0.4693 -0.0722
  208MOL0     C27361   2.202   5.875   0.639  0.6180 -0.3443 -0.3760
  208MOL0     C27362   2.322   5.937   0.705  0.8968  0.7947  0.3665
  208MOL0     C27363   2.450   5.928   0.616 -0.2251 -0.3688 -0.1641
  208MOL0     C27364   2.593   5.889   0.676  0.2119 -0.1143  0.2562
  208MOL0     C27365   2.685   6.005   0.629 -1.0404  0.2877  0.3507
  208MOL0     C27366   2.831   6.003   0.678  0.7416  0.6122  0.2335
  208MOL0     C27367   2.910   6.110   0.604 -0.0738  0.1383  0.9404
  208MOL0    Cl27368   3.089   6.073   0.609  0.0286  0.1574  0.1745
  208MOL0     C27369   1.764   5.832   0.580  0.2806  0.6103 -0.3300
  208MOL0     C27370   1.631   5.877   0.571 -0.4246  0.0021 -0.2566
  208MOL0     O27371   1.441   6.201   0.730  0.1708 -0.3722  0.9325
  208MOL0     C27372   1.155   6.221   0.694 -0.7135 -0.1264  0.0857
  208MOL0     C27373   1.015   6.208   0.695 -0.1819 -0.0418 -0.3078
  208MOL0     N27374   0.238   5.822   0.596  0.2642 -0.0174  0.5845
  208MOL0     N27375   0.133   5.762   0.568  0.4833  0.6721 -0.2128
  208MOL0     C27376   0.896   5.105  -0.063 -0.0993  0.1090  0.4136
  208MOL0     C27377   1.001   5.047  -0.007  0.9175 -0.4296 -0.1896
  208MOL0     C27378   1.334   5.019   0.282  0.7951  0.9549 -0.1032
  208MOL0     C27379   1.423   5.094   0.360 -0.6500  0.1572 -0.3365
  208MOL0     C27380   1.553   5.052   0.386  0.1901 -0.3608  0.1535
  208MOL0     C27381   1.608   4.938   0.327  0.2873 -0.4552 -0.1542
  208MOL0     O27382   1.746   4.919   0.361 -0.3168  0.6526  0.5538
  208MOL0     C27383   1.804   4.788   0.333  1.0816  0.2032  0.3996
  208MOL0     C27384   1.946   4.786   0.379  0.3382  0.5353 -0.6691
  208MOL0     C27385   1.956   4.800   0.530  0.2578 -0.7279 -0.7954
  208MOL0     C27386   2.111   4.807   0.562  0.5376  0.5915  0.3787
  208MOL0     C27387   2.146   4.948   0.588 -0.1938  0.2375  0.0532
  208MOL0     C27388   2.167   5.065   0.606 -0.4309  0.2658  0.3866
  208MOL0     C27389   1.520   4.859   0.255  0.0845 -0.7671 -0.2899
  208MOL0     C27390   1.387   4.906   0.227 -0.3913  0.0719  0.0361
  208MOL0     H27391   0.903   5.033   0.315 -2.1213  0.0052  0.6478
  208MOL0     H27392   0.690   5.149   0.204  1.9925 -0.3315  2.7385
  208MOL0     H27393   0.501   5.288  -0.089  0.0262 -1.2335 -1.5116
  208MOL0     H27394   0.590   5.311   0.062  2.7230 -2.4035 -0.6241
  208MOL0     H27395   0.469   5.071   0.124 -0.9869 -1.5984 -0.8673
  208MOL0     H27396   0.380   5.098  -0.020 -1.7141 -1.4880  3.3783
  208MOL0     H27397   0.337   5.336   0.067  1.5761 -1.1334 -2.8402
  208MOL0     H27398   0.388   5.268   0.223 -0.0191  0.3324 -0.9751
  208MOL0     H27399   0.135   5.217   0.072 -1.6411 -0.5373  0.3371
  208MOL0     H27400   0.193   5.092   0.173  0.9693  0.4053  1.7180
  208MOL0     H27401   0.170   5.231   0.373  1.9420 -0.8055 -0.7942
  208MOL0     H27402   0.024   5.219   0.276 -0.1453  1.0870 -0.3080
  208MOL0     H27403   0.081   5.453   0.175  0.3766  0.9215  0.4143
  208MOL0     H27404   0.223   5.464   0.275  0.1459  1.4066 -2.6179
  208MOL0     H27405  -0.041   5.425   0.413  0.4509 -2.2896 -1.0552
  208MOL0     H27406   0.116   5.457   0.481  0.2073  1.4976 -0.1319
  208MOL0     H27407  -0.054   5.660   0.458  1.0423  1.8357  0.7554
  208MOL0     H27408   0.016   5.660   0.289  3.4496 -2.6156 -0.4063
  208MOL0     H27409   0.331   5.657   0.335  0.1439  0.7989  0.0992
  208MOL0     H27410   0.542   5.760   0.438  0.6737 -0.6068  1.5038
  208MOL0     H27411   0.527   5.815   0.606  1.9821 -1.3598 -0.6993
  208MOL0     H27412   0.405   6.008   0.440  1.1134  0.8357 -3.1240
  208MOL0     H27413   0.534   5.955   0.337  0.3607 -0.8495  0.2220
  208MOL0     H27414   0.628   6.144   0.454 -0.5114 -0.4966 -1.2566
  208MOL0     H27415   0.539   6.104   0.593 -1.4030  0.4348 -0.7012
  208MOL0     H27416   0.780   5.953   0.479  2.9517  0.1756  1.1490
  208MOL0     H27417   0.722   5.923   0.641 -1.6548 -0.2786 -1.9401
  208MOL0     H27418   0.983   5.904   0.539  1.3603  0.0393 -1.2589
  208MOL0     H27419   1.228   5.911   0.578 -0.4966  0.4492 -2.0904
  208MOL0     H27420   1.622   6.069   0.850  3.7418  0.2492  0.6249
  208MOL0     H27421   1.866   6.001   0.849  0.7569  3.8953 -2.5415
  208MOL0     H27422   2.098   5.895   0.827 -0.3914  2.4444  0.4063
  208MOL0     H27423   2.056   6.010   0.706  1.2393 -0.4701 -1.8270
  208MOL0     H27424   2.193   5.906   0.535  0.0785 -1.0255 -0.5427
  208MOL0     H27425   2.224   5.768   0.644 -0.7685 -0.6039  0.7712
  208MOL0     H27426   2.342   5.874   0.792 -2.6237 -1.2620 -0.1230
  208MOL0     H27427   2.289   6.037   0.736  1.7556  0.7713  1.4309
  208MOL0     H27428   2.430   5.869   0.527 -1.3771  0.5116 -0.5076
  208MOL0     H27429   2.452   6.024   0.564 -2.2373 -0.6916 -0.8952
  208MOL0     H27430   2.619   5.791   0.633 -0.7806 -0.2930  0.0123
  208MOL0     H27431   2.593   5.871   0.784  0.0841  2.8855  0.8201
  208MOL0     H27432   2.643   6.098   0.668 -0.0157  1.0661 -0.3452
  208MOL0     H27433   2.689   6.020   0.521  2.1438 -2.5469 -0.0945
  208MOL0     H27434   2.837   6.025   0.785  0.6997 -2.2178  0.8943
  208MOL0     H27435   2.872   5.903   0.662 -0.3510  0.5158 -2.4578
  208MOL0     H27436   2.886   6.210   0.640 -1.9995  0.5642 -1.3132
  208MOL0     H27437   2.871   6.112   0.502 -1.4070  2.1538  1.4508
  208MOL0     H27438   1.800   5.763   0.505 -0.5851  0.0718 -0.2671
  208MOL0     H27439   1.573   5.857   0.483  0.7265 -0.5497 -0.9097
  208MOL0     H27440   1.202   6.298   0.755  0.3053 -0.0859 -0.7288
  208MOL0     H27441   0.949   6.287   0.727 -0.2407 -0.5577  0.8912
  208MOL0     H27442   0.896   5.128  -0.170  0.2401  0.0679  0.4065
  208MOL0     H27443   1.090   5.012  -0.058  1.9524  1.1566  0.4356
  208MOL0     H27444   1.374   5.176   0.412  2.2023  2.4502 -0.9970
  208MOL0     H27445   1.614   5.123   0.441 -1.2306  1.1204 -0.1053
  208MOL0     H27446   1.795   4.774   0.225  0.2483  0.9273  0.3660
  208MOL0     H27447   1.733   4.717   0.377 -2.6942  0.7021 -4.0538
  208MOL0     H27448   1.978   4.687   0.344 -0.4325  0.2283 -0.5106
  208MOL0     H27449   1.993   4.861   0.315  0.7564  0.1911 -0.7764
  208MOL0     H27450   1.913   4.714   0.582  0.5140  0.1099  0.8494
  208MOL0     H27451   1.905   4.885   0.575  0.1181 -2.6023  2.9650
  208MOL0     H27452   2.127   4.734   0.641 -0.4027 -0.0945 -0.0448
  208MOL0     H27453   2.174   4.772   0.479  2.0628  2.5165  0.6478
  208MOL0     H27454   2.205   5.165   0.616  0.3389  0.3093 -2.1953
  208MOL0     H27455   1.570   4.778   0.205  0.3651 -1.9430  1.7905
  208MOL0     H27456   1.331   4.845   0.157  1.4707 -0.5576 -0.9706
  209MOL0     O27457   6.930   3.875   7.830  0.0318  0.1607 -0.8895
  209MOL0     C27458   6.919   3.878   7.952 -0.6457  0.3207 -0.5337
  209MOL0     O27459   6.981   3.965   8.031 -0.0578 -0.9526 -0.1677
  209MOL0     C27460   7.081   4.048   7.977  0.7618 -1.3482 -0.1633
  209MOL0     C27461   7.046   4.177   7.923  0.3598  0.0156 -0.4641
  209MOL0     C27462   7.147   4.266   7.888  0.6690 -0.1742  0.1009
  209MOL0     C27463   7.280   4.220   7.888  0.1004 -0.3392  0.1064
  209MOL0     O27464   7.380   4.300   7.857 -0.1130  0.2697  0.1273
  209MOL0     C27465   7.427   4.303   7.722  0.7698 -0.6065 -0.7796
  209MOL0     C27466   7.539   4.211   7.690  0.3133  0.1901 -0.2332
  209MOL0     C27467   7.671   4.236   7.745 -0.3291  0.4812 -0.1948
  209MOL0     C27468   7.762   4.117   7.726 -0.0205 -0.3535  0.4334
  209MOL0     C27469   7.905   4.147   7.790  0.4154  0.3045  0.1237
  209MOL0     C27470   8.010   4.238   7.715 -0.1547  0.5450 -0.2608
  209MOL0     C27471   8.139   4.227   7.795 -0.0692 -0.6039 -0.6025
  209MOL0     C27472   8.246   4.295   7.721 -0.4356 -0.7440  1.3654
  209MOL0     N27473   8.369   4.209   7.703 -0.2476 -0.4027 -0.2804
  209MOL0     C27474   8.376   4.096   7.631  0.2820  0.4539  0.0634
  209MOL0     C27475   8.491   4.046   7.668 -0.6816  1.0419  0.5703
  209MOL0     C27476   8.541   3.912   7.616 -0.4635 -0.2578  0.3123
  209MOL0     C27477   8.511   3.792   7.706  0.0057 -0.4199  1.0926
  209MOL0     C27478   8.348   3.774   7.695  0.7010  0.6514  0.7541
  209MOL0     C27479   8.306   3.620   7.697 -0.1687  0.3269  0.2438
  209MOL0     O27480   8.176   3.612   7.740 -0.4285  0.3646 -1.0030
  209MOL0     C27481   8.144   3.602   7.883  0.0582  0.1516 -0.7544
  209MOL0     C27482   8.237   3.621   7.995 -0.3693 -0.2010  0.0613
  209MOL0     C27483   8.180   3.629   8.123 -0.2455 -0.2223 -0.9946
  209MOL0     C27484   8.039   3.606   8.145  0.5250  0.8144 -0.6740
  209MOL0     C27485   7.978   3.599   8.279  0.1927 -0.3965  0.4951
  209MOL0     O27486   7.840   3.597   8.278 -0.0692  0.0720 -0.1445
  209MOL0     C27487   7.756   3.600   8.390  0.4849  0.5146  0.7103
  209MOL0     C27488   7.792   3.631   8.522 -0.0401  0.1272  1.1093
  209MOL0     C27489   7.706   3.601   8.630  0.0631 -0.3783  0.3498
  209MOL0     C27490   7.573   3.553   8.604 -0.4343 -0.5187  0.8658
  209MOL0     O27491   7.473   3.530   8.697  0.3598  0.3139 -0.0224
  209MOL0     C27492   7.480   3.607   8.821  0.1034  0.1789 -0.1206
  209MOL0     C27493   7.354   3.654   8.881 -0.3591  0.1094 -0.7131
  209MOL0     C27494   7.378   3.713   9.017 -0.6000 -0.8561  0.3725
  209MOL0     C27495   7.247   3.733   9.080  0.6213 -0.2298 -0.0864
  209MOL0     C27496   7.244   3.820   9.203  0.0657  0.1051  0.1946
  209MOL0     C27497   7.107   3.862   9.226  0.2215  0.2540  0.0862
  209MOL0     C27498   7.009   3.752   9.269  0.5351 -0.1003  0.0373
  209MOL0     C27499   6.881   3.818   9.330 -0.1981 -0.2153  0.4234
  209MOL0    Cl27500   6.757   3.850   9.201 -0.1680  0.2153 -0.5395
  209MOL0     C27501   7.532   3.537   8.474 -0.2775 -0.8056  0.1350
  209MOL0     C27502   7.622   3.557   8.366 -0.5639  0.4827 -0.8926
  209MOL0     O27503   8.053   3.607   8.381 -0.3437  0.0126 -0.2357
  209MOL0     C27504   7.959   3.592   8.034  0.3962 -0.5179  0.1153
  209MOL0     C27505   8.011   3.591   7.906  0.3163  0.0775  0.2410
  209MOL0     N27506   8.563   4.130   7.752  0.1057 -0.1481  0.3329
  209MOL0     N27507   8.480   4.228   7.780 -0.1882 -0.0430  0.4072
  209MOL0     C27508   7.313   4.094   7.940  0.4284 -0.6506  0.5793
  209MOL0     C27509   7.214   4.018   7.990  0.2109  1.1233 -0.6908
  209MOL0     C27510   6.831   3.780   8.018  0.2064 -0.2105 -0.5898
  209MOL0     C27511   6.815   3.754   8.151 -0.0902 -0.5301 -0.7707
  209MOL0     C27512   6.731   3.657   8.213  0.5556  0.3159  1.4492
  209MOL0     C27513   6.637   3.592   8.124  0.4057 -0.3638 -0.1226
  209MOL0     O27514   6.562   3.489   8.183 -0.3528 -0.5859 -0.0156
  209MOL0     C27515   6.430   3.487   8.136 -0.3889  0.0399 -0.3006
  209MOL0     C27516   6.328   3.443   8.248  0.7148  0.4416 -0.4726
  209MOL0     C27517   6.377   3.304   8.294 -0.1187  0.2652 -0.3667
  209MOL0     C27518   6.340   3.267   8.435 -0.4765  0.5556 -0.1857
  209MOL0     C27519   6.207   3.213   8.435 -0.0245  0.4450 -0.2812
  209MOL0     C27520   6.096   3.155   8.438 -0.1203  0.2611 -0.5101
  209MOL0     C27521   6.642   3.621   7.984 -0.5844 -0.9499  0.9524
  209MOL0     C27522   6.732   3.722   7.932 -0.8073 -1.0349 -0.0596
  209MOL0     H27523   6.942   4.198   7.945  0.8175  0.1467  1.7997
  209MOL0     H27524   7.124   4.371   7.872  1.5883  0.3176  1.7136
  209MOL0     H27525   7.465   4.401   7.693  1.1625 -0.9216 -1.3606
  209MOL0     H27526   7.348   4.276   7.651 -2.1036 -1.1282  2.3464
  209MOL0     H27527   7.555   4.202   7.582  1.0816 -0.7854 -0.0548
  209MOL0     H27528   7.513   4.111   7.727 -1.3902  0.4618 -0.6033
  209MOL0     H27529   7.665   4.242   7.854  1.5256 -0.5143  0.0062
  209MOL0     H27530   7.710   4.333   7.712 -1.0221  0.9733  0.3773
  209MOL0     H27531   7.731   4.016   7.756 -0.4360 -1.0681 -2.1204
  209MOL0     H27532   7.776   4.107   7.618 -1.3156 -2.2280  0.3868
  209MOL0     H27533   7.952   4.048   7.801  0.5177  0.2968 -0.3630
  209MOL0     H27534   7.892   4.199   7.885 -1.8531  1.1098 -0.5808
  209MOL0     H27535   7.991   4.346   7.718 -0.1920  0.5905 -1.5631
  209MOL0     H27536   8.015   4.199   7.613  1.0546 -0.0180 -0.0039
  209MOL0     H27537   8.128   4.274   7.894  1.8342  2.9064 -1.8664
  209MOL0     H27538   8.156   4.120   7.781 -1.0788 -0.3608 -5.7701
  209MOL0     H27539   8.277   4.378   7.785  0.8681 -1.3688  1.5745
  209MOL0     H27540   8.212   4.319   7.620 -1.7371 -2.2120  1.4089
  209MOL0     H27541   8.298   4.059   7.565  1.0842 -2.6117  0.6824
  209MOL0     H27542   8.650   3.920   7.617  0.0231 -4.0168 -2.5395
  209MOL0     H27543   8.526   3.904   7.508 -0.9459  2.6793  0.0619
  209MOL0     H27544   8.550   3.807   7.807  2.1636 -2.2955  0.6363
  209MOL0     H27545   8.566   3.705   7.668 -2.1526 -1.2633 -0.3157
  209MOL0     H27546   8.307   3.816   7.787  0.5654  3.0392 -0.3046
  209MOL0     H27547   8.303   3.818   7.605 -0.2995 -1.6091  0.0661
  209MOL0     H27548   8.377   3.563   7.759 -0.6402  0.6693  1.1200
  209MOL0     H27549   8.323   3.576   7.599 -0.3092 -0.6527  0.6450
  209MOL0     H27550   8.345   3.628   7.979 -0.5021  1.7090 -0.1945
  209MOL0     H27551   8.242   3.641   8.211 -0.8010  1.8725 -0.8480
  209MOL0     H27552   7.889   3.669   8.549  0.9367 -0.4923 -1.2697
  209MOL0     H27553   7.728   3.607   8.736  1.9635 -1.7618  0.0910
  209MOL0     H27554   7.539   3.696   8.799 -1.1194  0.4459 -2.7146
  209MOL0     H27555   7.541   3.555   8.896 -2.5091 -0.5502  1.6502
  209MOL0     H27556   7.281   3.573   8.886  1.0008 -1.0942  1.2577
  209MOL0     H27557   7.316   3.740   8.827  1.8198  1.3901 -0.3222
  209MOL0     H27558   7.441   3.801   9.007  0.0107 -1.3888 -0.6841
  209MOL0     H27559   7.434   3.656   9.092  0.9509  0.8445  0.5737
  209MOL0     H27560   7.183   3.773   9.001  0.6435  1.0270  0.5058
  209MOL0     H27561   7.205   3.635   9.105 -1.7988  0.1549 -2.1926
  209MOL0     H27562   7.292   3.914   9.176 -0.4382  0.3407  0.1086
  209MOL0     H27563   7.283   3.766   9.290 -0.4515 -1.4476 -0.4969
  209MOL0     H27564   7.064   3.911   9.138  1.4795  1.7688  0.2639
  209MOL0     H27565   7.122   3.938   9.303  0.8659  0.8514 -0.6055
  209MOL0     H27566   6.980   3.693   9.181 -3.8075 -0.2025  1.3060
  209MOL0     H27567   7.052   3.681   9.341  2.0992  0.6348 -0.1129
  209MOL0     H27568   6.895   3.905   9.396 -1.0196 -0.4297  0.8938
  209MOL0     H27569   6.845   3.735   9.392  0.1676  0.7856  2.0493
  209MOL0     H27570   7.432   3.498   8.462 -0.4258 -1.0403  1.9422
  209MOL0     H27571   7.584   3.538   8.266 -0.5264 -1.3463 -0.5890
  209MOL0     H27572   7.851   3.600   8.041  0.5149  0.2611  1.5357
  209MOL0     H27573   7.944   3.593   7.820  0.5254 -2.9304 -0.1046
  209MOL0     H27574   7.412   4.049   7.945  0.0793 -1.6343 -0.7831
  209MOL0     H27575   7.232   3.923   8.040  3.5758  1.4237 -1.1239
  209MOL0     H27576   6.882   3.811   8.215  1.2590 -2.0987 -0.7235
  209MOL0     H27577   6.721   3.637   8.319  1.0796  2.5803  1.9770
  209MOL0     H27578   6.421   3.413   8.056 -0.9876  0.4174 -0.5991
  209MOL0     H27579   6.398   3.581   8.089 -1.2511 -0.6539 -1.1450
  209MOL0     H27580   6.341   3.522   8.323  2.4172  1.2735 -1.5975
  209MOL0     H27581   6.225   3.439   8.212  1.3353 -2.0908 -2.1662
  209MOL0     H27582   6.485   3.292   8.288 -0.2334 -0.2869 -1.8992
  209MOL0     H27583   6.328   3.226   8.234 -1.9548 -2.2505  3.9225
  209MOL0     H27584   6.401   3.190   8.483 -0.8676 -0.1023 -0.7344
  209MOL0     H27585   6.358   3.351   8.503  4.3612 -0.5339  0.2427
  209MOL0     H27586   6.000   3.107   8.440 -1.5796  2.9674  2.2631
  209MOL0     H27587   6.575   3.575   7.913  0.9993 -0.6792 -0.7920
  209MOL0     H27588   6.724   3.741   7.825 -1.0757 -3.1784 -0.4578
  210MOL0     O27589   8.198   9.456   3.924  0.1748  0.5624  0.4902
  210MOL0     C27590   8.208   9.370   4.010 -0.1075 -0.2552 -0.0312
  210MOL0     O27591   8.094   9.302   4.053 -0.1101  0.6116 -0.2668
  210MOL0     C27592   7.974   9.369   4.074 -0.9999 -0.4278  0.8716
  210MOL0     C27593   7.957   9.512   4.086 -1.2458  0.0700  0.6138
  210MOL0     C27594   7.825   9.556   4.105  1.2292  0.4677  0.7245
  210MOL0     C27595   7.712   9.470   4.097  0.4896  0.1813 -0.2685
  210MOL0     O27596   7.580   9.525   4.094  0.0560  0.1106 -0.4260
  210MOL0     C27597   7.464   9.440   4.124 -0.0300 -0.1324  0.0793
  210MOL0     C27598   7.347   9.531   4.158  0.5480 -0.0109  0.0221
  210MOL0     C27599   7.219   9.453   4.148  0.7769 -0.3722  0.6501
  210MOL0     C27600   7.102   9.543   4.198  0.0993 -1.1964 -0.5096
  210MOL0     C27601   6.977   9.464   4.156  0.2334  1.1440 -0.0366
  210MOL0     C27602   6.852   9.538   4.201  0.0202  0.0495 -0.6364
  210MOL0     C27603   6.724   9.478   4.139  0.7779 -0.6544  0.2008
  210MOL0     C27604   6.584   9.522   4.185 -0.7554  0.0178 -0.4619
  210MOL0     N27605   6.478   9.435   4.122 -0.1513  1.0191  0.1894
  210MOL0     C27606   6.397   9.364   4.200 -0.1939 -0.7517  0.0172
  210MOL0     C27607   6.330   9.286   4.110 -0.3847  0.0172 -0.0409
  210MOL0     C27608   6.245   9.173   4.145  0.2490  0.7079  0.5280
  210MOL0     C27609   6.106   9.231   4.170 -0.3022  0.9025 -0.5103
  210MOL0     C27610   6.007   9.119   4.165 -0.8445  0.7718 -0.5367
  210MOL0     C27611   5.862   9.161   4.135 -0.1723  0.1416  0.6797
  210MOL0     O27612   5.788   9.047   4.118  0.6303  0.4106  0.2055
  210MOL0     C27613   5.650   9.056   4.136  1.2422  0.1783 -0.2649
  210MOL0     C27614   5.581   9.178   4.128  0.4372 -0.0891  0.4063
  210MOL0     C27615   5.445   9.180   4.166 -0.7549 -0.0203 -0.0935
  210MOL0     C27616   5.377   9.062   4.203 -0.3605 -0.4446 -0.5462
  210MOL0     C27617   5.238   9.061   4.254  0.3134  0.7215 -0.9300
  210MOL0     O27618   5.197   8.942   4.314 -0.1661 -0.5538 -0.1139
  210MOL0     C27619   5.070   8.938   4.364  0.1234  0.4324  0.1553
  210MOL0     C27620   4.957   8.976   4.299 -0.5070 -0.9549  0.6328
  210MOL0     C27621   4.832   8.959   4.364 -0.0958  0.3178 -0.3470
  210MOL0     C27622   4.824   8.896   4.486  0.1964  0.0282  0.2347
  210MOL0     O27623   4.704   8.857   4.541  0.1170 -0.1694  0.1720
  210MOL0     C27624   4.614   8.965   4.556  0.3942  0.6186 -0.2053
  210MOL0     C27625   4.548   8.975   4.700 -0.2531  0.1307  0.5598
  210MOL0     C27626   4.414   8.901   4.706 -0.1565 -0.4586 -0.2598
  210MOL0     C27627   4.372   8.888   4.851  0.2975 -0.5097 -0.6356
  210MOL0     C27628   4.244   8.793   4.862 -0.0398 -0.1020 -0.5678
  210MOL0     C27629   4.134   8.867   4.933  0.1438 -0.3072  1.1462
  210MOL0     C27630   4.025   8.768   4.991 -0.4644 -0.7497  0.0775
  210MOL0     C27631   3.947   8.831   5.101 -0.4791  0.2119 -0.6538
  210MOL0    Cl27632   3.852   8.976   5.045  0.0045 -0.0239  0.2549
  210MOL0     C27633   4.946   8.864   4.551  0.7683  0.1642  0.6076
  210MOL0     C27634   5.067   8.878   4.493  0.5862  0.2983 -0.2079
  210MOL0     O27635   5.162   9.158   4.245  0.0416  0.2441  0.0190
  210MOL0     C27636   5.448   8.944   4.196 -1.1771  0.3115 -0.7616
  210MOL0     C27637   5.582   8.941   4.157  0.0812  0.2516 -0.1821
  210MOL0     N27638   6.366   9.324   3.979 -0.3414 -0.5877  0.2173
  210MOL0     N27639   6.440   9.423   3.990 -0.5544 -0.4264  0.2572
  210MOL0     C27640   7.733   9.330   4.093 -0.5506 -0.2942 -0.6654
  210MOL0     C27641   7.860   9.282   4.080 -0.3615  0.2415  0.0692
  210MOL0     C27642   8.350   9.319   4.043  0.8595  0.6979 -0.3299
  210MOL0     C27643   8.462   9.377   3.976 -0.6281  0.3525 -0.4604
  210MOL0     C27644   8.590   9.334   4.021 -0.6130 -1.0739 -0.3531
  210MOL0     C27645   8.610   9.244   4.120  1.1755 -0.1786 -0.2094
  210MOL0     O27646   8.742   9.226   4.149 -0.3044 -0.5591 -0.0786
  210MOL0     C27647   8.778   9.139   4.246 -0.5125 -0.2276 -1.0645
  210MOL0     C27648   8.927   9.108   4.237  0.1851  0.2790  0.2822
  210MOL0     C27649   8.989   9.039   4.368  0.6398 -0.0723  0.0871
  210MOL0     C27650   8.932   8.905   4.379 -0.2923  0.0800  0.0148
  210MOL0     C27651   8.987   8.827   4.488 -0.2402 -0.0279  0.1271
  210MOL0     C27652   9.040   8.757   4.566 -0.4686 -0.4417  0.4542
  210MOL0     C27653   8.495   9.194   4.186  0.3704 -0.3156 -0.3301
  210MOL0     C27654   8.366   9.220   4.139  0.2371 -0.0416  0.2480
  210MOL0     H27655   8.024   9.596   4.074 -0.6538 -0.6227 -1.2848
  210MOL0     H27656   7.812   9.664   4.101 -0.4447  0.2586 -0.4896
  210MOL0     H27657   7.492   9.368   4.200  0.3607  1.7096  1.7593
  210MOL0     H27658   7.450   9.400   4.023 -1.1819  3.1212 -1.2169
  210MOL0     H27659   7.340   9.622   4.096  0.3575  1.5871  2.2634
  210MOL0     H27660   7.356   9.572   4.259  0.5743  0.8762 -0.3256
  210MOL0     H27661   7.217   9.368   4.218  0.0011 -0.8772  0.0365
  210MOL0     H27662   7.198   9.410   4.050  1.7345  2.4051 -0.8716
  210MOL0     H27663   7.094   9.573   4.303 -1.8830  0.4682 -1.0727
  210MOL0     H27664   7.104   9.642   4.152  0.3646  0.2308  2.3529
  210MOL0     H27665   6.972   9.360   4.192 -3.4934  0.3429 -2.3270
  210MOL0     H27666   6.982   9.453   4.047 -3.2768  1.8538 -0.3987
  210MOL0     H27667   6.861   9.639   4.160 -0.9540  0.2573 -0.3633
  210MOL0     H27668   6.847   9.542   4.310  0.9752 -1.1820 -0.5215
  210MOL0     H27669   6.719   9.492   4.031 -0.9596  0.3418  0.3676
  210MOL0     H27670   6.729   9.369   4.148 -2.2268 -0.8782  0.2521
  210MOL0     H27671   6.576   9.627   4.156 -1.6366  0.3356  0.8493
  210MOL0     H27672   6.576   9.509   4.293 -3.0347 -2.2542 -0.7958
  210MOL0     H27673   6.392   9.356   4.308  2.2509  0.2502  0.2649
  210MOL0     H27674   6.284   9.132   4.238 -1.0655 -0.1742  0.7162
  210MOL0     H27675   6.233   9.100   4.065 -0.7405 -1.3390  2.4591
  210MOL0     H27676   6.082   9.293   4.083 -3.8229  1.2495  0.5432
  210MOL0     H27677   6.100   9.281   4.268 -1.9703 -0.3141  0.0609
  210MOL0     H27678   6.027   9.049   4.084 -3.3748 -0.3127 -0.3097
  210MOL0     H27679   6.020   9.063   4.258  5.0473  0.9077 -0.8837
  210MOL0     H27680   5.854   9.229   4.050  0.6566 -0.0479  0.4397
  210MOL0     H27681   5.822   9.211   4.224 -0.2096  0.9123  0.2362
  210MOL0     H27682   5.627   9.274   4.104  2.6597 -0.9450  1.0454
  210MOL0     H27683   5.402   9.279   4.173  0.6285  0.5542  1.0227
  210MOL0     H27684   4.965   9.028   4.204  0.9873 -1.1979  0.6040
  210MOL0     H27685   4.747   8.991   4.304  1.1562  1.9659 -1.3355
  210MOL0     H27686   4.539   8.954   4.477  2.1274  0.2225 -1.8646
  210MOL0     H27687   4.665   9.061   4.546  1.7934 -0.1759 -0.9397
  210MOL0     H27688   4.532   9.080   4.723  2.5200  1.2048 -1.7862
  210MOL0     H27689   4.608   8.927   4.777  1.1385 -3.3840 -2.4141
  210MOL0     H27690   4.427   8.808   4.650 -3.9390 -1.4528  0.2587
  210MOL0     H27691   4.341   8.955   4.645 -0.3313 -0.0940  0.2583
  210MOL0     H27692   4.448   8.842   4.915 -1.0934 -1.8698  0.0922
  210MOL0     H27693   4.347   8.983   4.900 -1.5821  0.2070 -2.7919
  210MOL0     H27694   4.276   8.703   4.916  1.5176  1.0789  0.5692
  210MOL0     H27695   4.207   8.752   4.768 -1.1816 -0.6897  0.1149
  210MOL0     H27696   4.092   8.949   4.873  1.1698 -1.9996 -2.1340
  210MOL0     H27697   4.177   8.921   5.018  0.0266 -1.2125  1.7860
  210MOL0     H27698   3.961   8.737   4.908 -0.7274 -1.4791  0.5436
  210MOL0     H27699   4.077   8.684   5.037 -0.0777  0.1386  1.3112
  210MOL0     H27700   4.013   8.860   5.182 -1.9988 -1.3267  1.2248
  210MOL0     H27701   3.889   8.749   5.143  2.5124 -0.9590  1.4897
  210MOL0     H27702   4.940   8.789   4.630 -0.0920 -0.5927 -0.1480
  210MOL0     H27703   5.160   8.853   4.542 -0.6706  0.4747  2.4190
  210MOL0     H27704   5.391   8.853   4.211 -0.7918 -0.5257 -3.6868
  210MOL0     H27705   5.640   8.850   4.144  0.5779  0.8536 -2.8311
  210MOL0     H27706   7.647   9.267   4.072 -4.0752  3.5814  0.7487
  210MOL0     H27707   7.879   9.178   4.056  1.4291  0.7498 -0.9043
  210MOL0     H27708   8.445   9.455   3.903 -0.0737 -0.9709 -2.0490
  210MOL0     H27709   8.682   9.375   3.981 -0.6719  0.7219  1.2151
  210MOL0     H27710   8.716   9.049   4.235  3.4699 -3.0371 -2.7189
  210MOL0     H27711   8.768   9.191   4.342  0.1819 -0.0951 -1.0624
  210MOL0     H27712   8.952   9.052   4.147  2.2672  2.3302 -0.5212
  210MOL0     H27713   8.985   9.200   4.224 -0.6389  0.6419 -0.9984
  210MOL0     H27714   8.966   9.107   4.451 -0.7289  1.5827 -1.5683
  210MOL0     H27715   9.098   9.031   4.369  0.7916  0.5922  3.6476
  210MOL0     H27716   8.823   8.901   4.382 -0.2926 -0.1435 -0.2839
  210MOL0     H27717   8.957   8.848   4.289 -0.9762 -0.0151 -0.1189
  210MOL0     H27718   9.100   8.691   4.625  0.7574  2.5930  2.9238
  210MOL0     H27719   8.500   9.126   4.271  3.0013 -0.7460 -0.7224
  210MOL0     H27720   8.281   9.173   4.188  0.6449 -0.3046  0.7224
  211MOL0     O27721   0.959  10.628   6.923  0.0964  0.5969 -0.2273
  211MOL0     C27722   1.011  10.722   6.862 -0.9815  0.1309 -0.0002
  211MOL0     O27723   0.948  10.843   6.830  0.8264 -0.2860 -0.1840
  211MOL0     C27724   0.813  10.856   6.864 -0.3353 -0.4819 -0.6363
  211MOL0     C27725   0.775  10.976   6.932 -0.5070 -0.7838 -0.6585
  211MOL0     C27726   0.642  11.013   6.956  0.0996  0.5751  0.4485
  211MOL0     C27727   0.542  10.948   6.893  0.2646  0.9484 -0.2103
  211MOL0     O27728   0.415  10.995   6.920 -1.1808 -0.0579  0.3915
  211MOL0     C27729   0.304  10.918   6.865 -0.8875  0.5521  0.3072
  211MOL0     C27730   0.176  10.972   6.913 -0.0996 -0.2753 -0.6044
  211MOL0     C27731   0.145  11.115   6.871  0.3056  0.4522  0.3441
  211MOL0     C27732   0.003  11.158   6.899 -0.1011  0.8207 -0.9181
  211MOL0     C27733  -0.009  11.291   6.834  0.1774 -0.0797  0.8629
  211MOL0     C27734  -0.144  11.359   6.848  0.0859 -0.8010 -0.4174
  211MOL0     C27735  -0.142  11.511   6.794 -0.0485  0.5446 -0.3229
  211MOL0     C27736  -0.280  11.576   6.816  0.5612  0.8398 -0.3540
  211MOL0     N27737  -0.326  11.603   6.957 -0.1660 -0.1931 -0.2003
  211MOL0     C27738  -0.438  11.673   6.998  0.5649 -0.1375 -0.6137
  211MOL0     C27739  -0.416  11.691   7.132  0.0126 -0.3604  1.0165
  211MOL0     C27740  -0.509  11.770   7.220 -0.6676 -0.4239 -0.2871
  211MOL0     C27741  -0.649  11.710   7.233 -0.4409 -0.5345 -0.4909
  211MOL0     C27742  -0.737  11.800   7.329 -0.2035  0.5577  0.1456
  211MOL0     C27743  -0.877  11.776   7.302  0.7907 -0.0187 -0.7460
  211MOL0     O27744  -0.964  11.834   7.407 -0.3170 -0.5588  0.5442
  211MOL0     C27745  -1.105  11.839   7.400  0.7414 -0.1181 -0.6132
  211MOL0     C27746  -1.176  11.787   7.291  0.7780  0.2903 -0.2000
  211MOL0     C27747  -1.315  11.803   7.279  0.3471 -0.2581 -0.4377
  211MOL0     C27748  -1.385  11.861   7.379 -0.4259  0.1746  0.1893
  211MOL0     C27749  -1.536  11.882   7.365 -0.1737  0.3930 -0.0462
  211MOL0     O27750  -1.592  11.844   7.248 -0.2326  1.3197 -0.1722
  211MOL0     C27751  -1.715  11.880   7.216  1.0165 -0.4896 -0.2365
  211MOL0     C27752  -1.803  11.983   7.269  0.8567  0.2504  0.0752
  211MOL0     C27753  -1.928  12.005   7.215  0.0855  0.6316  0.0321
  211MOL0     C27754  -1.977  11.934   7.100 -0.4297 -0.2321 -0.1477
  211MOL0     O27755  -2.103  11.934   7.044 -0.4313  0.4750  0.0596
  211MOL0     C27756  -2.214  12.010   7.106  0.3161  1.0499  0.8762
  211MOL0     C27757  -2.306  12.009   6.989 -0.0143  0.1882  0.1408
  211MOL0     C27758  -2.431  12.102   7.011 -0.0038  0.8155  0.2803
  211MOL0     C27759  -2.506  12.115   6.882 -0.6955  0.8624 -0.5295
  211MOL0     C27760  -2.605  12.227   6.876  0.7566 -0.5463 -0.1134
  211MOL0     C27761  -2.548  12.368   6.867  0.1321  0.5607  0.3035
  211MOL0     C27762  -2.452  12.407   6.765 -0.0143 -0.7223  0.7509
  211MOL0     C27763  -2.384  12.552   6.783  0.3870  0.0298 -0.2357
  211MOL0    Cl27764  -2.310  12.577   6.626 -0.0052  0.4490 -0.1015
  211MOL0     C27765  -1.887  11.845   7.040 -1.1967  0.0472  0.2953
  211MOL0     C27766  -1.757  11.822   7.096 -0.7800 -0.2960  0.6941
  211MOL0     O27767  -1.588  11.936   7.462  0.6095  0.2190 -0.0406
  211MOL0     C27768  -1.314  11.904   7.504  0.1888 -0.6409  0.6694
  211MOL0     C27769  -1.177  11.901   7.501 -0.6704  0.6521  0.0562
  211MOL0     N27770  -0.299  11.639   7.170 -0.1454  0.2304  1.2807
  211MOL0     N27771  -0.255  11.567   7.064  0.4332 -0.4069 -0.3979
  211MOL0     C27772   0.573  10.824   6.821 -0.6250 -0.0150  0.5142
  211MOL0     C27773   0.711  10.783   6.812 -0.6695 -0.0249  0.6241
  211MOL0     C27774   1.148  10.709   6.813 -0.2593  0.0589 -0.3706
  211MOL0     C27775   1.211  10.802   6.737  0.4846  1.0376  0.0958
  211MOL0     C27776   1.336  10.778   6.684 -1.1048 -0.2409 -0.4177
  211MOL0     C27777   1.408  10.661   6.698 -0.0695 -0.6424  0.3814
  211MOL0     O27778   1.531  10.647   6.639  0.6065  0.1063  0.6352
  211MOL0     C27779   1.571  10.513   6.604 -1.0342 -0.8057  0.7580
  211MOL0     C27780   1.708  10.508   6.537 -0.5895  0.0718 -0.6043
  211MOL0     C27781   1.695  10.552   6.389 -0.6009 -0.9983  1.1222
  211MOL0     C27782   1.841  10.580   6.325 -0.3284  0.0315  0.8056
  211MOL0     C27783   1.895  10.462   6.255  0.1611  0.9735  0.0762
  211MOL0     C27784   1.942  10.366   6.201 -0.5410 -0.9583 -0.5658
  211MOL0     C27785   1.356  10.570   6.784  1.4717 -0.1300 -0.4632
  211MOL0     C27786   1.226  10.588   6.839  1.0152 -0.6883 -0.4166
  211MOL0     H27787   0.848  11.052   6.958 -0.4979 -1.4859  1.6515
  211MOL0     H27788   0.617  11.108   7.002  1.2690  0.4481  1.3875
  211MOL0     H27789   0.313  10.813   6.892  1.9650  0.7742  0.5630
  211MOL0     H27790   0.296  10.930   6.756 -0.6681 -1.5395  0.0339
  211MOL0     H27791   0.174  10.966   7.022  3.5164  1.0074 -0.3396
  211MOL0     H27792   0.114  10.895   6.866 -1.0512 -0.0162  0.1892
  211MOL0     H27793   0.158  11.116   6.762 -3.0925  0.4445 -0.1610
  211MOL0     H27794   0.213  11.192   6.908 -0.9303  1.0221  1.4929
  211MOL0     H27795  -0.070  11.089   6.856  0.1646  1.9438 -3.3805
  211MOL0     H27796  -0.019  11.156   7.006 -0.5398 -1.6170 -0.9979
  211MOL0     H27797   0.014  11.280   6.728 -0.0052 -1.7459  0.9625
  211MOL0     H27798   0.072  11.344   6.886 -0.1882  0.1329  1.2236
  211MOL0     H27799  -0.173  11.366   6.953  1.3148 -1.1188 -0.0380
  211MOL0     H27800  -0.219  11.300   6.795  1.4307 -0.7130 -2.5715
  211MOL0     H27801  -0.066  11.560   6.855  0.0318 -1.0693  0.9407
  211MOL0     H27802  -0.122  11.505   6.686 -2.4989  2.2421 -0.9658
  211MOL0     H27803  -0.366  11.522   6.775  0.5569 -0.1182  0.8276
  211MOL0     H27804  -0.284  11.668   6.759 -0.3541 -0.9194 -3.3548
  211MOL0     H27805  -0.519  11.709   6.935 -2.5585 -2.5829  1.6911
  211MOL0     H27806  -0.521  11.867   7.173  0.6364 -0.4638 -0.7234
  211MOL0     H27807  -0.453  11.773   7.314  2.4030 -5.0880 -1.6339
  211MOL0     H27808  -0.641  11.608   7.271 -1.7572  0.0044  1.4177
  211MOL0     H27809  -0.698  11.722   7.136  2.1899  1.2538 -1.7401
  211MOL0     H27810  -0.709  11.774   7.432  1.2471  1.2809 -0.0316
  211MOL0     H27811  -0.723  11.908   7.317 -0.5051  0.6627  0.7111
  211MOL0     H27812  -0.903  11.669   7.305  0.2656  0.0964  2.2549
  211MOL0     H27813  -0.903  11.822   7.207 -1.8354  0.1386 -0.0426
  211MOL0     H27814  -1.112  11.735   7.219  1.5941 -1.1595  1.5012
  211MOL0     H27815  -1.370  11.760   7.196  0.5523 -2.2233  0.3841
  211MOL0     H27816  -1.773  12.041   7.355  1.0040 -0.3737  0.4538
  211MOL0     H27817  -1.991  12.078   7.263 -1.6475 -1.0025  0.3533
  211MOL0     H27818  -2.182  12.113   7.125  1.1752  0.8030  0.8122
  211MOL0     H27819  -2.261  11.955   7.189 -1.5057  0.0077 -0.7594
  211MOL0     H27820  -2.338  11.905   6.980  1.7954 -0.4949  1.1083
  211MOL0     H27821  -2.247  12.038   6.902  0.2389 -2.2399 -0.5752
  211MOL0     H27822  -2.400  12.199   7.052 -0.8232  0.5171  1.6858
  211MOL0     H27823  -2.496  12.066   7.092  0.6924 -0.4364  0.2965
  211MOL0     H27824  -2.424  12.120   6.810  1.6877 -2.6131  1.6104
  211MOL0     H27825  -2.568  12.025   6.873  1.4045 -0.7367  0.0988
  211MOL0     H27826  -2.669  12.225   6.965  3.0327  0.5709  1.6825
  211MOL0     H27827  -2.663  12.203   6.787 -3.0618  2.3356  1.3353
  211MOL0     H27828  -2.506  12.385   6.967 -1.6019 -0.7261  1.3022
  211MOL0     H27829  -2.644  12.420   6.857 -2.1403 -3.4668 -0.9586
  211MOL0     H27830  -2.372  12.334   6.750 -0.5139 -0.9961 -0.8654
  211MOL0     H27831  -2.503  12.406   6.668  2.2778 -0.8102 -0.5268
  211MOL0     H27832  -2.314  12.565   6.866 -1.3371  1.4335  1.0847
  211MOL0     H27833  -2.466  12.623   6.795 -2.0716 -2.1292 -2.7589
  211MOL0     H27834  -1.911  11.783   6.954 -0.9301 -1.5955  1.3532
  211MOL0     H27835  -1.684  11.761   7.044 -0.2826  0.9292 -0.1039
  211MOL0     H27836  -1.372  11.945   7.585 -1.0024 -2.0380  0.5734
  211MOL0     H27837  -1.124  11.930   7.592  0.5029 -1.6300  0.1845
  211MOL0     H27838   0.498  10.765   6.770 -1.9795  1.5571  0.6060
  211MOL0     H27839   0.736  10.693   6.755 -1.4164  1.4213 -2.1609
  211MOL0     H27840   1.163  10.896   6.710  0.5102  2.2394  3.7362
  211MOL0     H27841   1.382  10.842   6.609 -3.1770  1.4725 -0.3306
  211MOL0     H27842   1.502  10.467   6.532  1.6712 -1.2723 -1.7071
  211MOL0     H27843   1.577  10.460   6.700  1.1109  3.0043  2.9684
  211MOL0     H27844   1.769  10.582   6.590 -1.2027  0.7421 -0.8251
  211MOL0     H27845   1.751  10.408   6.553 -0.1896  0.5368  1.6649
  211MOL0     H27846   1.628  10.637   6.377  1.3514  0.2167 -2.3475
  211MOL0     H27847   1.643  10.474   6.332 -1.2880 -0.4201  0.9491
  211MOL0     H27848   1.829  10.659   6.251  0.5627  0.1227  0.7466
  211MOL0     H27849   1.922  10.598   6.396 -1.7433  0.7646  2.3168
  211MOL0     H27850   1.988  10.286   6.148  0.1939 -0.1612 -1.1518
  211MOL0     H27851   1.389  10.469   6.807  0.5144 -0.2956  0.2970
  211MOL0     H27852   1.192  10.515   6.912  1.5226 -1.1441 -0.6219
  212MOL0     O27853   2.625   8.578   1.955 -0.8373 -0.0917 -0.4955
  212MOL0     C27854   2.567   8.482   2.005 -0.3329 -0.4870 -0.0035
  212MOL0     O27855   2.621   8.407   2.102 -0.2482  0.3811 -0.1682
  212MOL0     C27856   2.752   8.427   2.143  0.1642  0.3452 -0.1478
  212MOL0     C27857   2.862   8.367   2.071  0.5396  0.7064 -0.5409
  212MOL0     C27858   2.990   8.368   2.111  0.2167  0.2179  0.1304
  212MOL0     C27859   3.019   8.415   2.240 -0.3822  0.0040 -0.4739
  212MOL0     O27860   3.151   8.410   2.296  1.0199 -0.1546  0.0378
  212MOL0     C27861   3.262   8.424   2.209  0.1009 -0.2177  0.6988
  212MOL0     C27862   3.383   8.397   2.297  0.6724  0.6086  0.6532
  212MOL0     C27863   3.503   8.343   2.216 -0.3227 -0.2799  0.5834
  212MOL0     C27864   3.625   8.333   2.310 -0.8584  0.4346  0.3930
  212MOL0     C27865   3.736   8.268   2.233  0.2955 -0.3393  0.3428
  212MOL0     C27866   3.843   8.240   2.338 -0.2286  0.5039 -0.4775
  212MOL0     C27867   3.969   8.193   2.267 -0.1776 -0.2224  1.0574
  212MOL0     C27868   4.097   8.249   2.341 -0.9149  1.4043 -0.7879
  212MOL0     N27869   4.211   8.224   2.255 -0.2690 -0.4742  0.4623
  212MOL0     C27870   4.316   8.148   2.293 -0.6282 -0.4475 -0.2234
  212MOL0     C27871   4.419   8.191   2.210 -0.3963  0.6074  0.0881
  212MOL0     C27872   4.560   8.151   2.242 -0.2648  0.0897 -0.5146
  212MOL0     C27873   4.573   7.998   2.243 -0.1620  0.0936 -0.4140
  212MOL0     C27874   4.549   7.932   2.106  0.5324  0.1565 -0.7790
  212MOL0     C27875   4.546   7.775   2.129  0.2683  0.1089 -0.1550
  212MOL0     O27876   4.501   7.702   2.010 -0.1994  0.1381  0.5111
  212MOL0     C27877   4.365   7.717   1.987 -0.5427  0.0734 -0.7971
  212MOL0     C27878   4.310   7.751   1.860  0.7411 -0.3820  0.1205
  212MOL0     C27879   4.169   7.752   1.849 -0.4804  0.4344  0.4561
  212MOL0     C27880   4.082   7.716   1.952  0.1815 -0.2299  0.4691
  212MOL0     C27881   3.935   7.729   1.925 -0.4526 -0.4031  0.7225
  212MOL0     O27882   3.858   7.767   2.033  0.5627  1.0553 -0.5786
  212MOL0     C27883   3.722   7.738   2.020  0.3536  0.8254  0.0253
  212MOL0     C27884   3.639   7.808   2.107 -1.0826  0.3188 -0.3040
  212MOL0     C27885   3.504   7.787   2.135 -0.1001  0.6224  0.5675
  212MOL0     C27886   3.450   7.696   2.049 -0.2157  0.3964 -0.1116
  212MOL0     O27887   3.318   7.650   2.059 -0.2665 -0.4745  0.1706
  212MOL0     C27888   3.240   7.673   2.178  0.0879 -1.1153  0.2716
  212MOL0     C27889   3.099   7.611   2.151  0.4613 -1.1667 -0.0826
  212MOL0     C27890   3.006   7.645   2.269  0.2814 -0.2520 -0.5684
  212MOL0     C27891   2.874   7.589   2.225  0.2385 -1.5376 -0.6847
  212MOL0     C27892   2.775   7.606   2.345 -1.5876 -0.9359  0.1217
  212MOL0     C27893   2.651   7.537   2.305 -0.6900  0.5628  0.1534
  212MOL0     C27894   2.547   7.550   2.419 -0.5591 -0.2860  0.0530
  212MOL0     C27895   2.404   7.571   2.358 -0.8396  0.8718  0.4091
  212MOL0    Cl27896   2.303   7.652   2.476 -0.3107 -0.0845  0.0871
  212MOL0     C27897   3.525   7.630   1.956  0.4239  0.0950  0.0146
  212MOL0     C27898   3.665   7.645   1.942 -0.1482 -0.1326  0.0764
  212MOL0     O27899   3.898   7.715   1.813 -0.0216  0.2991 -1.3164
  212MOL0     C27900   4.140   7.676   2.074  0.0326 -0.6854  0.6550
  212MOL0     C27901   4.278   7.689   2.087 -0.5399  0.8324  0.0514
  212MOL0     N27902   4.374   8.284   2.122 -0.1183 -0.2367  0.0101
  212MOL0     N27903   4.253   8.306   2.154  0.5001  0.9552  0.9192
  212MOL0     C27904   2.922   8.472   2.324  0.1607 -0.4388  0.1172
  212MOL0     C27905   2.785   8.479   2.268 -0.8799  0.6920  0.0437
  212MOL0     C27906   2.431   8.442   1.952 -0.6608 -1.0901 -0.5587
  212MOL0     C27907   2.348   8.525   1.874 -0.1952 -0.5672  0.4776
  212MOL0     C27908   2.219   8.487   1.844  0.6757  1.3383  0.0554
  212MOL0     C27909   2.176   8.352   1.867 -0.5929  0.1369  1.1094
  212MOL0     O27910   2.056   8.321   1.824  0.3227 -0.9045 -0.1542
  212MOL0     C27911   2.021   8.188   1.776  0.8915 -1.0070  0.4789
  212MOL0     C27912   1.934   8.212   1.657 -0.5086 -0.1699 -0.1526
  212MOL0     C27913   2.003   8.283   1.545 -0.3422 -0.3498  0.1649
  212MOL0     C27914   1.991   8.437   1.535  0.4838  0.7973 -0.3084
  212MOL0     C27915   2.084   8.507   1.451  0.7211  0.7707  0.9609
  212MOL0     C27916   2.151   8.559   1.364 -0.6581 -0.7638 -0.9723
  212MOL0     C27917   2.271   8.263   1.924  0.7122  1.0605  0.4342
  212MOL0     C27918   2.390   8.309   1.972 -0.6795 -0.3958  0.5000
  212MOL0     H27919   2.835   8.325   1.974 -0.9290  0.9742 -0.2698
  212MOL0     H27920   3.069   8.323   2.052 -0.7236  0.8135 -1.6612
  212MOL0     H27921   3.267   8.528   2.177  0.0371 -0.4064  0.0439
  212MOL0     H27922   3.259   8.354   2.124 -0.5099  1.6103 -0.8661
  212MOL0     H27923   3.341   8.327   2.370 -0.9683  0.6310 -0.2274
  212MOL0     H27924   3.418   8.488   2.346  0.9580 -0.0218  1.6460
  212MOL0     H27925   3.534   8.410   2.136  1.6769  1.3421  2.6002
  212MOL0     H27926   3.482   8.242   2.179 -0.8756  0.9389 -2.8047
  212MOL0     H27927   3.652   8.434   2.341 -1.4433  0.8230 -0.3156
  212MOL0     H27928   3.605   8.275   2.400  0.9307 -0.1411  0.4499
  212MOL0     H27929   3.766   8.336   2.152  0.9650  1.8981  2.3660
  212MOL0     H27930   3.699   8.174   2.190  0.4144 -1.0133  1.6584
  212MOL0     H27931   3.808   8.155   2.398  3.1022 -1.4267 -1.0132
  212MOL0     H27932   3.849   8.325   2.407 -2.3556  1.9457 -1.9358
  212MOL0     H27933   3.967   8.085   2.253  3.1647 -0.5996  2.4554
  212MOL0     H27934   3.974   8.230   2.164 -0.3167  3.9895  2.3453
  212MOL0     H27935   4.105   8.199   2.437 -0.9363  2.4231 -0.2453
  212MOL0     H27936   4.080   8.354   2.367 -0.9318  0.8259  1.7896
  212MOL0     H27937   4.314   8.085   2.382 -4.3851  0.6699  0.6644
  212MOL0     H27938   4.598   8.173   2.342 -0.7143 -2.5729  0.3247
  212MOL0     H27939   4.612   8.191   2.154  0.0686 -3.4812 -2.1234
  212MOL0     H27940   4.518   7.954   2.327 -1.7653 -2.2658 -2.5434
  212MOL0     H27941   4.677   7.971   2.260 -0.5013  0.3291  2.5679
  212MOL0     H27942   4.452   7.956   2.062 -1.3008 -2.1562  1.7010
  212MOL0     H27943   4.633   7.958   2.040  1.6671 -0.1347  0.5095
  212MOL0     H27944   4.480   7.770   2.216 -0.1624  2.9623 -0.2152
  212MOL0     H27945   4.647   7.736   2.145  1.4013  2.8814 -0.0647
  212MOL0     H27946   4.371   7.773   1.773 -2.9060  2.2680 -2.0304
  212MOL0     H27947   4.122   7.781   1.755 -1.2360  1.0285  1.0007
  212MOL0     H27948   3.685   7.884   2.169 -0.0594 -3.0898  3.5083
  212MOL0     H27949   3.444   7.845   2.204  2.2138  0.5721  2.7525
  212MOL0     H27950   3.235   7.782   2.186 -0.3644 -0.8529 -2.6445
  212MOL0     H27951   3.278   7.625   2.269  0.4089  0.8016  1.2015
  212MOL0     H27952   3.105   7.504   2.132 -2.0431 -0.9382 -3.1991
  212MOL0     H27953   3.066   7.644   2.052  3.7923 -0.3697 -1.0378
  212MOL0     H27954   3.002   7.753   2.284  2.3340 -0.5030  2.8163
  212MOL0     H27955   3.035   7.607   2.368 -0.9221  0.4907  0.0891
  212MOL0     H27956   2.839   7.650   2.141  0.2444  0.9863  1.0381
  212MOL0     H27957   2.874   7.485   2.192 -4.2867 -1.3169 -2.1892
  212MOL0     H27958   2.764   7.714   2.357 -0.2018 -0.5425 -1.6870
  212MOL0     H27959   2.816   7.578   2.442 -2.0488  3.7160  1.9394
  212MOL0     H27960   2.667   7.431   2.283 -2.3181  0.7463 -2.3744
  212MOL0     H27961   2.603   7.568   2.211 -0.1057 -0.1484 -0.3922
  212MOL0     H27962   2.552   7.460   2.481  3.5023  0.8072  1.6208
  212MOL0     H27963   2.575   7.635   2.482 -2.2490 -1.6403  2.8044
  212MOL0     H27964   2.365   7.478   2.318 -2.6335  1.1088  1.4935
  212MOL0     H27965   2.425   7.640   2.275  2.4824 -0.4602 -0.0158
  212MOL0     H27966   3.482   7.551   1.895 -0.6945 -0.1968  1.1478
  212MOL0     H27967   3.715   7.577   1.874 -3.1264 -0.7384 -1.6861
  212MOL0     H27968   4.076   7.650   2.158 -1.5971  2.3977  0.5351
  212MOL0     H27969   4.310   7.657   2.186  1.0121  0.1275 -0.6612
  212MOL0     H27970   2.946   8.501   2.426  2.0968  3.3144 -1.1958
  212MOL0     H27971   2.707   8.509   2.338 -0.6349  0.2601  0.5089
  212MOL0     H27972   2.383   8.622   1.840 -2.2593  1.1097  2.8055
  212MOL0     H27973   2.160   8.553   1.782  1.0365  0.4650 -1.2690
  212MOL0     H27974   1.954   8.149   1.853 -2.9368 -0.0284 -2.1068
  212MOL0     H27975   2.111   8.127   1.757  1.8641 -0.0839  1.9035
  212MOL0     H27976   1.918   8.110   1.621  0.9958 -0.1472 -0.9670
  212MOL0     H27977   1.837   8.248   1.693 -0.1830 -1.5133  2.2426
  212MOL0     H27978   1.971   8.251   1.446 -0.5869 -0.3271  0.2378
  212MOL0     H27979   2.108   8.252   1.550  0.0552  0.4760 -1.8781
  212MOL0     H27980   1.894   8.453   1.487  0.9617 -2.3398 -2.6555
  212MOL0     H27981   1.989   8.491   1.630 -2.5703  3.4844 -1.6963
  212MOL0     H27982   2.218   8.605   1.295  0.7775  2.4732  2.2462
  212MOL0     H27983   2.234   8.162   1.938 -0.7121  1.2962 -1.2524
  212MOL0     H27984   2.458   8.248   2.031  1.0458  1.7987  0.9092
  213MOL0     O27985   5.454   8.919   8.677 -0.6225 -0.8338  0.1342
  213MOL0     C27986   5.504   8.927   8.567  0.8247  0.2528  0.2009
  213MOL0     O27987   5.441   8.930   8.446 -1.1918 -0.3532 -0.1248
  213MOL0     C27988   5.302   8.940   8.451  0.3699 -0.3623  0.5011
  213MOL0     C27989   5.216   8.850   8.381  0.6182 -0.1787 -0.4274
  213MOL0     C27990   5.071   8.852   8.392 -0.7928  0.1269 -0.6946
  213MOL0     C27991   5.007   8.962   8.461  0.9632 -0.3646  0.2814
  213MOL0     O27992   4.869   8.947   8.491 -0.7244 -0.9724  0.2000
  213MOL0     C27993   4.794   9.064   8.492 -0.1869  0.0652  0.1315
  213MOL0     C27994   4.703   9.073   8.622 -0.9046  0.2366 -0.4340
  213MOL0     C27995   4.567   9.012   8.597  0.7550 -0.3277  0.3138
  213MOL0     C27996   4.496   8.963   8.715 -1.2251  0.1644 -0.8385
  213MOL0     C27997   4.352   8.941   8.688 -0.2521  0.4984 -0.0449
  213MOL0     C27998   4.268   9.074   8.700 -0.0172  0.6131  0.4656
  213MOL0     C27999   4.125   9.063   8.651  0.2577 -0.1143 -0.7459
  213MOL0     C28000   4.118   9.061   8.501  0.3514 -0.2255  0.5086
  213MOL0     N28001   3.974   9.064   8.454 -1.0805 -0.0111  0.0624
  213MOL0     C28002   3.873   8.998   8.527  0.3473 -0.2921 -0.2299
  213MOL0     C28003   3.763   9.042   8.469  0.9035  0.8555  0.1681
  213MOL0     C28004   3.619   9.013   8.500 -0.3147 -1.0476 -0.0849
  213MOL0     C28005   3.554   8.925   8.397  0.6173  0.3893  0.1307
  213MOL0     C28006   3.444   8.825   8.453  0.5624  0.3547  0.2140
  213MOL0     C28007   3.376   8.749   8.333 -0.6264 -0.2991 -0.2746
  213MOL0     O28008   3.280   8.670   8.396  0.5598 -0.2312 -0.0956
  213MOL0     C28009   3.182   8.609   8.319  0.5834 -0.0022 -0.3527
  213MOL0     C28010   3.189   8.554   8.187 -0.1117 -0.4021  0.4606
  213MOL0     C28011   3.076   8.498   8.126  0.3223  0.7987 -0.3570
  213MOL0     C28012   2.953   8.491   8.194 -0.2634 -0.6902  0.6389
  213MOL0     C28013   2.844   8.419   8.144 -1.2844 -0.5794  1.0192
  213MOL0     O28014   2.730   8.424   8.219  0.3993 -0.0902  0.3824
  213MOL0     C28015   2.617   8.363   8.179  0.0163  0.1872  0.7938
  213MOL0     C28016   2.525   8.424   8.085 -0.8492  1.1420  0.0191
  213MOL0     C28017   2.418   8.357   8.036  0.3888 -0.1214 -0.5394
  213MOL0     C28018   2.376   8.239   8.091 -0.1921 -0.3195 -0.6197
  213MOL0     O28019   2.252   8.184   8.052 -0.8619  0.2915  0.0416
  213MOL0     C28020   2.242   8.045   8.014 -0.8594  1.0499 -0.0345
  213MOL0     C28021   2.113   8.023   7.951 -0.0434  0.4360  0.2558
  213MOL0     C28022   2.006   7.979   8.056 -0.2780  0.2052 -0.2780
  213MOL0     C28023   2.029   7.834   8.111  0.5695 -0.1034 -0.1318
  213MOL0     C28024   1.904   7.787   8.191 -0.7931  0.9541 -0.5896
  213MOL0     C28025   1.891   7.857   8.328 -0.6353 -0.1357  0.2407
  213MOL0     C28026   1.804   7.764   8.416 -0.1590  0.0811 -0.1919
  213MOL0     C28027   1.756   7.844   8.534  1.0025  0.1987 -0.2949
  213MOL0    Cl28028   1.878   7.862   8.661 -0.0703  0.1486 -0.3019
  213MOL0     C28029   2.463   8.176   8.184 -0.2749  0.1038  0.5176
  213MOL0     C28030   2.581   8.236   8.229 -0.7524 -0.1902  0.5833
  213MOL0     O28031   2.853   8.384   8.022 -0.0620 -0.4752 -0.5647
  213MOL0     C28032   2.945   8.543   8.324  0.5881  0.3122 -0.2827
  213MOL0     C28033   3.057   8.601   8.386 -0.2030 -0.2287 -0.4015
  213MOL0     N28034   3.791   9.132   8.367  0.4529 -1.6699  0.7929
  213MOL0     N28035   3.924   9.140   8.358  0.2546 -0.4430 -0.4495
  213MOL0     C28036   5.093   9.057   8.530 -0.4432 -0.3952  0.7787
  213MOL0     C28037   5.236   9.040   8.525  0.0777  0.3025  0.1561
  213MOL0     C28038   5.652   8.956   8.569 -0.2065  0.5027 -0.4177
  213MOL0     C28039   5.717   8.998   8.687 -1.3298 -0.4805 -0.3985
  213MOL0     C28040   5.856   9.008   8.696 -0.1258 -0.4995  0.7700
  213MOL0     C28041   5.939   8.990   8.579 -0.0373 -0.0203 -0.4598
  213MOL0     O28042   6.073   8.995   8.597  0.2205 -0.4858  0.0618
  213MOL0     C28043   6.132   9.050   8.481 -0.5415  0.4846  0.4202
  213MOL0     C28044   6.271   9.104   8.492  0.0287 -0.7657  1.1726
  213MOL0     C28045   6.391   9.013   8.499  1.6736  0.0471 -0.8609
  213MOL0     C28046   6.513   9.090   8.460 -0.2140  0.1598 -0.1558
  213MOL0     C28047   6.632   9.008   8.490 -0.5120 -0.5783 -1.4244
  213MOL0     C28048   6.725   8.954   8.535  0.2302  1.2451  0.3219
  213MOL0     C28049   5.863   8.958   8.463  0.3397  0.4182 -0.5759
  213MOL0     C28050   5.722   8.943   8.452 -0.7317  0.3317  0.9636
  213MOL0     H28051   5.273   8.767   8.340 -1.9799 -1.6135 -1.3535
  213MOL0     H28052   5.009   8.771   8.357 -1.1867  0.8448 -1.7001
  213MOL0     H28053   4.729   9.063   8.404 -1.7878  2.3559  1.1882
  213MOL0     H28054   4.849   9.157   8.473  0.3450 -0.1931  0.3942
  213MOL0     H28055   4.694   9.177   8.655 -0.6056  0.4175 -0.9217
  213MOL0     H28056   4.753   9.010   8.696 -2.4514 -0.4291  0.1056
  213MOL0     H28057   4.573   8.935   8.520  2.5159  2.4921 -2.6256
  213MOL0     H28058   4.511   9.092   8.547 -2.3830 -3.1077 -0.9404
  213MOL0     H28059   4.547   8.869   8.738  2.8695  2.3078 -0.2899
  213MOL0     H28060   4.515   9.025   8.802  1.1792 -1.0207 -0.4360
  213MOL0     H28061   4.323   8.868   8.765  3.2202 -0.5957  0.3961
  213MOL0     H28062   4.343   8.900   8.587 -2.0330  1.8357 -0.4843
  213MOL0     H28063   4.308   9.149   8.631  0.6460 -0.5556 -0.4763
  213MOL0     H28064   4.281   9.101   8.805  0.3782 -0.6959  0.7737
  213MOL0     H28065   4.088   8.977   8.708  0.7136  0.2775  0.1795
  213MOL0     H28066   4.064   9.145   8.689 -1.6645 -1.8555  0.1519
  213MOL0     H28067   4.166   8.970   8.464  2.6074  1.6939 -1.5923
  213MOL0     H28068   4.173   9.146   8.459  0.7111 -0.3690  0.6918
  213MOL0     H28069   3.883   8.941   8.619  0.3259 -2.0498 -1.2787
  213MOL0     H28070   3.577   9.114   8.511  1.4231 -0.1282 -1.2811
  213MOL0     H28071   3.614   8.974   8.602  1.7227  0.7153  0.7852
  213MOL0     H28072   3.629   8.860   8.350  0.0724 -1.3018  1.4806
  213MOL0     H28073   3.513   8.988   8.317  0.5685  0.2351  0.0331
  213MOL0     H28074   3.476   8.747   8.522  0.1402 -1.0691 -1.1418
  213MOL0     H28075   3.369   8.877   8.514 -1.1862  0.9457 -2.2861
  213MOL0     H28076   3.455   8.688   8.288 -1.4953 -1.7479  0.0978
  213MOL0     H28077   3.327   8.812   8.259  0.3502 -2.8231 -3.2568
  213MOL0     H28078   3.284   8.548   8.133 -0.2568  1.1352 -0.0031
  213MOL0     H28079   3.076   8.448   8.030  1.8592 -0.2352  0.1301
  213MOL0     H28080   2.541   8.525   8.049  0.1865  0.9924  0.0376
  213MOL0     H28081   2.354   8.389   7.954 -0.2147 -1.1572 -0.4867
  213MOL0     H28082   2.265   7.977   8.097 -2.1521 -0.4817 -0.8985
  213MOL0     H28083   2.318   8.023   7.939  0.8117 -0.8096  2.0549
  213MOL0     H28084   2.129   7.943   7.878  2.6429 -0.3994  1.6426
  213MOL0     H28085   2.080   8.108   7.890  1.2289  2.1883  1.8872
  213MOL0     H28086   1.905   7.993   8.016 -1.2420  3.0088  2.7338
  213MOL0     H28087   2.018   8.048   8.140  1.9170 -1.5085  0.9007
  213MOL0     H28088   2.038   7.749   8.042 -0.2636 -0.1776 -0.1644
  213MOL0     H28089   2.121   7.834   8.170  0.1306 -1.8822  0.6279
  213MOL0     H28090   1.932   7.683   8.212  2.0043  1.6664 -0.4224
  213MOL0     H28091   1.807   7.784   8.140 -1.4436 -1.2822  0.6409
  213MOL0     H28092   1.837   7.950   8.306  0.0241 -0.1903 -1.7496
  213MOL0     H28093   1.987   7.868   8.381 -1.3082 -0.2518  1.5293
  213MOL0     H28094   1.712   7.741   8.361 -0.5199 -2.4775  1.2890
  213MOL0     H28095   1.861   7.674   8.440  0.4602  0.9564  1.8149
  213MOL0     H28096   1.674   7.788   8.578  1.4053 -1.0422 -1.0627
  213MOL0     H28097   1.703   7.937   8.512  1.3715  1.4228  3.3024
  213MOL0     H28098   2.423   8.084   8.225 -0.2082 -0.1157  0.0993
  213MOL0     H28099   2.656   8.191   8.294  1.5303  1.1333 -0.9713
  213MOL0     H28100   2.854   8.526   8.381 -1.7513  0.4794 -3.6378
  213MOL0     H28101   3.050   8.647   8.484 -3.5230 -3.1100  0.9589
  213MOL0     H28102   5.054   9.134   8.596  3.8509  0.4010  2.6835
  213MOL0     H28103   5.307   9.106   8.573 -2.5020 -0.1280  5.2032
  213MOL0     H28104   5.657   9.009   8.777 -0.7223 -0.2430 -0.0169
  213MOL0     H28105   5.914   9.032   8.785 -1.2942  3.9053  0.5799
  213MOL0     H28106   6.079   9.132   8.432 -1.3820 -0.6236 -0.5899
  213MOL0     H28107   6.137   8.975   8.402  0.5014 -0.4361  1.3236
  213MOL0     H28108   6.274   9.161   8.399 -2.9307 -2.7876 -0.3209
  213MOL0     H28109   6.274   9.169   8.581  0.8170  2.0354 -0.7653
  213MOL0     H28110   6.377   8.927   8.432 -2.3585  0.3380 -0.6697
  213MOL0     H28111   6.386   8.981   8.603 -1.8047  0.4048 -0.7980
  213MOL0     H28112   6.516   9.110   8.353 -2.0794  0.0382 -0.2621
  213MOL0     H28113   6.509   9.187   8.510 -1.3715  1.5626 -2.7832
  213MOL0     H28114   6.804   8.905   8.588  1.0806  0.0522 -1.8896
  213MOL0     H28115   5.920   8.962   8.371  1.7656  0.1771  0.2697
  213MOL0     H28116   5.678   8.929   8.354  2.4184  2.0717 -0.8606
  214MOL0     O28117   1.576   0.822   2.228  0.1142  0.2449 -0.0142
  214MOL0     C28118   1.611   0.816   2.112 -0.5491  0.0832  0.0074
  214MOL0     O28119   1.529   0.820   2.005  0.4820 -0.0230  0.7109
  214MOL0     C28120   1.392   0.838   2.021  0.3895 -0.9045  0.0531
  214MOL0     C28121   1.291   0.748   1.997 -0.3350  0.3466 -0.0263
  214MOL0     C28122   1.155   0.769   2.011  0.1582  0.1844 -0.6871
  214MOL0     C28123   1.118   0.886   2.086 -0.4323 -0.9320  0.0316
  214MOL0     O28124   0.993   0.934   2.118  0.3194  0.0422  0.0624
  214MOL0     C28125   0.886   0.876   2.047  0.2429  0.2482  0.1094
  214MOL0     C28126   0.753   0.928   2.104 -0.2668 -0.0688  0.8058
  214MOL0     C28127   0.749   1.078   2.078  0.5898  0.3556  0.7407
  214MOL0     C28128   0.605   1.127   2.124 -0.8651 -0.3107  0.4579
  214MOL0     C28129   0.492   1.102   2.024 -0.6409 -0.0629  0.1284
  214MOL0     C28130   0.366   1.181   2.052  0.2696 -0.1920  0.3352
  214MOL0     C28131   0.285   1.101   2.152  0.5141 -0.6671 -0.5438
  214MOL0     C28132   0.187   1.013   2.080 -0.2375  0.2817  0.4280
  214MOL0     N28133   0.087   0.955   2.166  0.2264 -0.7202  0.5020
  214MOL0     C28134  -0.044   0.972   2.150 -0.1137 -0.2462 -0.1026
  214MOL0     C28135  -0.101   0.911   2.253  0.3670  0.6267 -0.3312
  214MOL0     C28136  -0.258   0.914   2.275 -0.2945  0.1436  0.1763
  214MOL0     C28137  -0.315   0.767   2.259 -0.2676  0.6641 -0.9718
  214MOL0     C28138  -0.466   0.765   2.221  0.2393 -0.9370  0.5220
  214MOL0     C28139  -0.546   0.823   2.340  0.3352  0.0818  0.9437
  214MOL0     O28140  -0.615   0.711   2.405  0.0389  0.2801  0.0675
  214MOL0     C28141  -0.749   0.716   2.414  0.3997  0.0952 -0.7864
  214MOL0     C28142  -0.809   0.678   2.542 -0.4827 -0.2256  0.0183
  214MOL0     C28143  -0.943   0.684   2.557  0.4710  1.4470  0.0287
  214MOL0     C28144  -1.029   0.720   2.446  0.4802  0.3873  0.1333
  214MOL0     C28145  -1.175   0.738   2.481 -0.4473  0.2684  0.0776
  214MOL0     O28146  -1.214   0.677   2.605  0.0922 -0.4288 -0.5825
  214MOL0     C28147  -1.344   0.679   2.648 -0.1220  0.3784 -0.3223
  214MOL0     C28148  -1.379   0.696   2.784 -0.1539  0.2439 -0.3764
  214MOL0     C28149  -1.513   0.684   2.825 -0.1235 -0.0799  0.4007
  214MOL0     C28150  -1.613   0.648   2.726  0.0266  0.1718 -0.0704
  214MOL0     O28151  -1.754   0.636   2.752  0.7831  0.5124 -0.3189
  214MOL0     C28152  -1.792   0.575   2.879 -0.1838  0.4465 -0.5586
  214MOL0     C28153  -1.940   0.543   2.876 -0.4254 -0.5588  0.5720
  214MOL0     C28154  -2.027   0.668   2.849 -0.1254  0.0814  0.1142
  214MOL0     C28155  -2.171   0.624   2.842  0.2534  0.0741  0.6139
  214MOL0     C28156  -2.264   0.751   2.826  0.0142  0.3566 -0.7650
  214MOL0     C28157  -2.406   0.709   2.807  0.1895  0.5486  0.5376
  214MOL0     C28158  -2.506   0.823   2.771  0.5221 -0.1677 -0.1362
  214MOL0     C28159  -2.496   0.950   2.853 -0.4320 -0.2154 -0.3329
  214MOL0    Cl28160  -2.358   1.049   2.786  0.0049  0.1796  0.2669
  214MOL0     C28161  -1.572   0.627   2.595 -0.2134  0.0152  0.7393
  214MOL0     C28162  -1.443   0.636   2.553  0.3211 -0.4719 -0.8093
  214MOL0     O28163  -1.249   0.796   2.403 -0.1161  0.3488 -0.0777
  214MOL0     C28164  -0.973   0.738   2.317  0.0490  0.4910 -0.4469
  214MOL0     C28165  -0.831   0.743   2.305 -0.0677  0.2798 -0.7299
  214MOL0     N28166  -0.006   0.845   2.321  0.4714  0.0401 -1.1813
  214MOL0     N28167   0.109   0.881   2.272  0.0315 -0.6262 -0.1996
  214MOL0     C28168   1.221   0.975   2.124  0.6116 -0.4374  0.2787
  214MOL0     C28169   1.354   0.954   2.087  0.5370 -0.0884  0.8120
  214MOL0     C28170   1.765   0.810   2.095  0.9971  0.2804  0.1022
  214MOL0     C28171   1.812   0.818   1.965  0.3337  0.1202 -0.0496
  214MOL0     C28172   1.946   0.796   1.940 -0.2954  0.1563 -0.1453
  214MOL0     C28173   2.047   0.792   2.044 -0.2429  0.5408  0.4334
  214MOL0     O28174   2.179   0.782   2.022 -0.2729 -0.3197  1.3217
  214MOL0     C28175   2.228   0.779   1.889 -0.3439  0.6495  0.2425
  214MOL0     C28176   2.382   0.790   1.908  0.1051  0.8904  0.4808
  214MOL0     C28177   2.464   0.658   1.938 -0.1146  0.6541 -0.3857
  214MOL0     C28178   2.468   0.550   1.828 -0.0435 -0.5580 -0.3656
  214MOL0     C28179   2.527   0.603   1.703  0.1664  0.0553  0.1209
  214MOL0     C28180   2.581   0.648   1.606  0.9211  0.9610  0.8775
  214MOL0     C28181   2.000   0.779   2.179 -0.6407 -0.5475 -0.1756
  214MOL0     C28182   1.858   0.793   2.203  0.2561  0.9701  0.7370
  214MOL0     H28183   1.332   0.663   1.943  1.1864  1.0762 -0.0793
  214MOL0     H28184   1.089   0.690   1.978  1.2554 -0.8878 -0.4043
  214MOL0     H28185   0.883   0.767   2.060 -2.2900 -0.1413 -2.6867
  214MOL0     H28186   0.894   0.894   1.939  0.4852  3.4717  0.5809
  214MOL0     H28187   0.756   0.908   2.212  3.5311 -1.0228  0.6587
  214MOL0     H28188   0.669   0.879   2.054  1.2960 -2.0247 -0.0194
  214MOL0     H28189   0.769   1.100   1.973  1.2706  0.2168  0.8422
  214MOL0     H28190   0.823   1.130   2.138  1.1379  2.9855 -1.9581
  214MOL0     H28191   0.573   1.067   2.210  0.2486  0.0745  1.1564
  214MOL0     H28192   0.616   1.232   2.152  0.8625 -1.3750  4.4831
  214MOL0     H28193   0.471   0.996   2.003  0.2234 -1.1418  3.9861
  214MOL0     H28194   0.528   1.148   1.932 -0.9272  0.5026  0.2946
  214MOL0     H28195   0.301   1.212   1.970 -0.3224  0.5859  1.0660
  214MOL0     H28196   0.382   1.278   2.102 -0.2097  0.8890 -1.5356
  214MOL0     H28197   0.357   1.054   2.219  1.5415  1.6612  0.1056
  214MOL0     H28198   0.232   1.179   2.207 -0.5166 -1.5617 -0.2423
  214MOL0     H28199   0.247   0.930   2.042 -0.2351  0.8673 -0.9041
  214MOL0     H28200   0.154   1.052   1.983  2.1101 -3.2259 -2.0006
  214MOL0     H28201  -0.094   1.038   2.080 -0.4994 -0.7634 -0.3087
  214MOL0     H28202  -0.312   0.956   2.189 -0.4292  1.7716  1.0339
  214MOL0     H28203  -0.291   0.965   2.366 -0.1267 -1.6676  1.2938
  214MOL0     H28204  -0.312   0.711   2.353 -2.0854 -2.2430 -2.4900
  214MOL0     H28205  -0.251   0.701   2.200 -0.3644 -1.2250  0.8897
  214MOL0     H28206  -0.478   0.823   2.129  2.7333 -0.8744  0.1712
  214MOL0     H28207  -0.495   0.663   2.195  0.4774 -0.9951  0.4848
  214MOL0     H28208  -0.618   0.897   2.303  0.2676 -1.4456 -2.3257
  214MOL0     H28209  -0.485   0.876   2.414 -0.2737  0.5611  1.1128
  214MOL0     H28210  -0.739   0.664   2.624  0.5374 -0.1899 -0.8273
  214MOL0     H28211  -0.974   0.667   2.660  2.6982 -0.0929  0.5253
  214MOL0     H28212  -1.306   0.728   2.858  0.4915 -0.0231 -0.8937
  214MOL0     H28213  -1.527   0.709   2.930 -1.8971 -1.3015  0.5102
  214MOL0     H28214  -1.772   0.643   2.962 -0.7297 -0.1752  0.0880
  214MOL0     H28215  -1.731   0.485   2.895 -0.6396  0.1988 -0.2085
  214MOL0     H28216  -1.960   0.516   2.980  1.1209  1.3998  1.4430
  214MOL0     H28217  -1.952   0.465   2.801  2.0500 -1.5470  1.1026
  214MOL0     H28218  -2.000   0.712   2.753  1.1842  1.4868  1.0781
  214MOL0     H28219  -2.021   0.738   2.933 -0.9767  1.5484 -0.9885
  214MOL0     H28220  -2.176   0.549   2.762  0.4240  0.3486  0.3418
  214MOL0     H28221  -2.200   0.581   2.938 -0.7987 -0.0463  0.2559
  214MOL0     H28222  -2.228   0.817   2.747  1.3063  1.6533  0.8311
  214MOL0     H28223  -2.274   0.794   2.926 -1.1591 -1.5376 -0.0040
  214MOL0     H28224  -2.447   0.662   2.896 -0.2177  0.0567  0.0900
  214MOL0     H28225  -2.407   0.632   2.729 -0.1486  3.9557 -3.1502
  214MOL0     H28226  -2.506   0.857   2.667  0.3423  2.7807  0.7342
  214MOL0     H28227  -2.602   0.771   2.775  1.2347 -1.4132  2.0210
  214MOL0     H28228  -2.472   0.930   2.957  0.5494  0.6577 -0.3799
  214MOL0     H28229  -2.594   0.999   2.852 -0.0243  0.6169 -0.2199
  214MOL0     H28230  -1.650   0.608   2.522 -0.2960  3.8170 -0.3505
  214MOL0     H28231  -1.415   0.611   2.451  0.9671  0.2364 -0.8203
  214MOL0     H28232  -1.039   0.732   2.231 -0.5395  0.0175  0.0301
  214MOL0     H28233  -0.783   0.763   2.209 -0.8889  3.2246 -0.6199
  214MOL0     H28234   1.195   1.068   2.174  1.1975 -0.3858  0.5059
  214MOL0     H28235   1.430   1.023   2.122 -0.7739  2.2306 -0.6306
  214MOL0     H28236   1.744   0.830   1.881 -0.8664 -0.9334  0.7357
  214MOL0     H28237   1.974   0.797   1.835  1.5284  0.0925  0.3149
  214MOL0     H28238   2.185   0.866   1.839  2.1375  1.2510 -0.9855
  214MOL0     H28239   2.205   0.695   1.822  0.0080  1.4515 -0.9114
  214MOL0     H28240   2.431   0.841   1.824 -1.2651  0.4774 -0.6040
  214MOL0     H28241   2.401   0.851   1.997 -1.5064  1.5453  0.4054
  214MOL0     H28242   2.425   0.595   2.019  1.0045 -1.0534 -1.0922
  214MOL0     H28243   2.565   0.686   1.970  0.4648 -2.0507  0.4581
  214MOL0     H28244   2.514   0.460   1.870 -0.7017 -0.1042  1.4031
  214MOL0     H28245   2.362   0.530   1.813 -0.0729  0.3410 -1.4065
  214MOL0     H28246   2.616   0.696   1.517 -2.5002  1.1455 -0.5157
  214MOL0     H28247   2.064   0.786   2.267 -1.5079  0.1468  0.4240
  214MOL0     H28248   1.812   0.784   2.301  0.1467  0.4811  0.6464
  215MOL0     O28249   7.528   3.754   9.471 -0.6233  0.4868  0.1230
  215MOL0     C28250   7.518   3.863   9.527 -0.3888 -0.3305  0.1303
  215MOL0     O28251   7.620   3.948   9.554  0.1850  0.2689 -0.0637
  215MOL0     C28252   7.733   3.924   9.480 -0.0392  0.1814 -0.0979
  215MOL0     C28253   7.771   3.980   9.363  0.3374  0.5896 -0.8673
  215MOL0     C28254   7.886   3.940   9.297  0.0594 -0.3980  1.1348
  215MOL0     C28255   7.974   3.848   9.354  0.5108 -0.1145 -1.1632
  215MOL0     O28256   8.088   3.802   9.296 -0.7118 -0.5663 -0.0353
  215MOL0     C28257   8.204   3.805   9.373 -0.9304  0.1926  0.2740
  215MOL0     C28258   8.307   3.824   9.271 -0.4267 -0.3515  0.1399
  215MOL0     C28259   8.335   3.710   9.180  0.8618 -0.5564  0.7043
  215MOL0     C28260   8.443   3.737   9.078 -0.1186 -0.0369  0.4583
  215MOL0     C28261   8.478   3.603   9.020  0.5796  0.4804  0.8921
  215MOL0     C28262   8.369   3.555   8.925 -0.5065 -0.4224  0.6926
  215MOL0     C28263   8.409   3.432   8.838  1.0525  0.9097 -0.4792
  215MOL0     C28264   8.504   3.462   8.731 -0.1471  0.1718  0.7693
  215MOL0     N28265   8.508   3.354   8.635 -0.0418  0.2965 -0.2957
  215MOL0     C28266   8.513   3.218   8.670  0.2511  0.4100 -0.6633
  215MOL0     C28267   8.516   3.157   8.544 -0.0453 -0.3928  0.1324
  215MOL0     C28268   8.520   3.005   8.537 -0.9633 -0.4666  0.2481
  215MOL0     C28269   8.383   2.937   8.543 -0.0572 -0.4346  0.0027
  215MOL0     C28270   8.302   2.980   8.419  0.3518  0.2737  0.2450
  215MOL0     C28271   8.170   2.895   8.398 -0.8183 -0.5285  0.4885
  215MOL0     O28272   8.079   2.906   8.509 -0.8923 -0.2496 -0.0955
  215MOL0     C28273   7.955   2.852   8.499 -0.1268  0.6534  0.7582
  215MOL0     C28274   7.921   2.766   8.389  0.7489 -0.1968 -0.3626
  215MOL0     C28275   7.789   2.704   8.385  0.1561 -0.1881 -0.5653
  215MOL0     C28276   7.704   2.724   8.499  0.2735 -0.0558  0.0280
  215MOL0     C28277   7.577   2.646   8.507 -0.4054  0.7461  0.8513
  215MOL0     O28278   7.510   2.666   8.617 -1.0774 -0.2177 -0.0173
  215MOL0     C28279   7.397   2.608   8.654 -0.7911 -0.1419 -0.2541
  215MOL0     C28280   7.308   2.675   8.740  0.2634 -0.1947  0.0671
  215MOL0     C28281   7.178   2.615   8.772  0.0499 -0.3460 -0.4263
  215MOL0     C28282   7.144   2.482   8.728 -0.3535 -0.2126  0.3134
  215MOL0     O28283   7.034   2.407   8.762 -0.1122  0.4521  0.1750
  215MOL0     C28284   6.958   2.436   8.873  0.3550 -0.7208  0.2957
  215MOL0     C28285   6.844   2.337   8.912  0.3351 -0.1986 -0.4485
  215MOL0     C28286   6.879   2.189   8.895 -0.5060  0.2852  0.0284
  215MOL0     C28287   6.757   2.101   8.935  0.0055  0.5376 -0.1810
  215MOL0     C28288   6.788   1.951   8.921  0.4208 -0.0677  1.2035
  215MOL0     C28289   6.789   1.896   8.782 -0.1250 -0.4625 -0.8781
  215MOL0     C28290   6.668   1.933   8.690  0.0989 -0.4651 -0.7837
  215MOL0     C28291   6.543   1.850   8.722 -0.0364 -0.3107 -0.1737
  215MOL0    Cl28292   6.404   1.935   8.638  0.0306 -0.4099 -0.3068
  215MOL0     C28293   7.239   2.417   8.655 -0.9771  0.1407  0.6006
  215MOL0     C28294   7.349   2.482   8.605  0.4797  0.9171  0.1277
  215MOL0     O28295   7.550   2.563   8.420  0.7066 -0.1142  1.1384
  215MOL0     C28296   7.747   2.808   8.606  0.2183 -0.3755  0.5100
  215MOL0     C28297   7.873   2.871   8.604 -0.3641 -0.9414  0.0343
  215MOL0     N28298   8.520   3.255   8.445  0.7953  0.3484 -0.7670
  215MOL0     N28299   8.505   3.366   8.501 -0.2604 -0.2714  0.6568
  215MOL0     C28300   7.933   3.791   9.472 -0.8205 -0.3496  0.0439
  215MOL0     C28301   7.817   3.837   9.544  0.5617  0.3351  0.7337
  215MOL0     C28302   7.386   3.898   9.573  0.7594 -0.2834  1.2483
  215MOL0     C28303   7.365   4.036   9.592 -0.3408  0.4636 -0.6534
  215MOL0     C28304   7.247   4.084   9.660 -0.8492  0.2068  0.1578
  215MOL0     C28305   7.144   3.990   9.680 -0.7405  0.6379  0.3077
  215MOL0     O28306   7.027   4.034   9.731 -0.6438 -0.0522  0.3501
  215MOL0     C28307   6.908   3.969   9.707 -0.5109  0.8035 -0.0949
  215MOL0     C28308   6.789   4.064   9.716  0.1319  0.1396  0.2375
  215MOL0     C28309   6.665   4.014   9.628  0.1779  0.0044 -0.6338
  215MOL0     C28310   6.567   3.916   9.696 -0.4547  0.2403  0.1123
  215MOL0     C28311   6.643   3.788   9.708 -0.2448 -0.2668  1.1415
  215MOL0     C28312   6.707   3.687   9.707 -0.2894  0.4353  0.2190
  215MOL0     C28313   7.157   3.857   9.646 -0.6710 -0.1564 -0.4093
  215MOL0     C28314   7.281   3.809   9.606  0.4199  0.1025 -0.5625
  215MOL0     H28315   7.704   4.057   9.325  1.3922  1.3651 -1.2018
  215MOL0     H28316   7.905   3.989   9.202 -0.8817  0.4506  1.3645
  215MOL0     H28317   8.226   3.717   9.434  1.0797  0.3220 -0.1915
  215MOL0     H28318   8.217   3.887   9.444  4.4200  1.2651 -1.4437
  215MOL0     H28319   8.398   3.849   9.326 -0.1764  0.5110 -0.6483
  215MOL0     H28320   8.281   3.915   9.215 -2.1432 -0.5869  0.4858
  215MOL0     H28321   8.236   3.699   9.134 -0.7403 -0.9255  3.9404
  215MOL0     H28322   8.363   3.624   9.242  3.8092  0.0908  0.4103
  215MOL0     H28323   8.409   3.796   8.993 -0.7868 -3.7396 -2.0533
  215MOL0     H28324   8.534   3.777   9.123  0.6732 -2.2581  0.9620
  215MOL0     H28325   8.510   3.535   9.099 -1.0730 -1.5772 -0.1000
  215MOL0     H28326   8.568   3.609   8.957 -0.4491 -0.7541 -0.7856
  215MOL0     H28327   8.336   3.632   8.854  1.5466 -1.3243 -1.3334
  215MOL0     H28328   8.285   3.523   8.988 -1.0752 -1.4621 -0.5688
  215MOL0     H28329   8.435   3.351   8.907  1.3730  1.1066 -0.3631
  215MOL0     H28330   8.313   3.416   8.789 -0.2404  0.4949  1.9927
  215MOL0     H28331   8.608   3.476   8.763  1.1471 -2.6686 -1.6553
  215MOL0     H28332   8.486   3.554   8.674  1.6995  0.1204  0.0244
  215MOL0     H28333   8.511   3.167   8.766 -2.3475 -0.7274 -1.2338
  215MOL0     H28334   8.567   2.980   8.632 -0.6325 -2.2860 -0.3541
  215MOL0     H28335   8.589   2.967   8.461 -1.6586 -1.4149  0.0681
  215MOL0     H28336   8.325   2.971   8.629  0.3390 -0.1655  0.1639
  215MOL0     H28337   8.391   2.829   8.559 -0.6889 -0.2535  1.7423
  215MOL0     H28338   8.279   3.087   8.423  2.2782  0.7136  2.3219
  215MOL0     H28339   8.362   2.964   8.328 -1.2548 -1.4728 -0.5651
  215MOL0     H28340   8.215   2.796   8.391  1.7921  0.6002 -0.3550
  215MOL0     H28341   8.122   2.912   8.301 -0.4210  2.1896  0.6660
  215MOL0     H28342   7.992   2.748   8.309  2.6541  1.1108  0.9206
  215MOL0     H28343   7.753   2.650   8.298 -0.6364 -2.6250  1.1873
  215MOL0     H28344   7.337   2.771   8.781  0.8404 -0.2010 -0.3116
  215MOL0     H28345   7.108   2.667   8.837 -0.9001 -2.4936  0.3570
  215MOL0     H28346   6.908   2.530   8.848  0.9132 -0.2440  0.9323
  215MOL0     H28347   7.028   2.449   8.957  0.1838  2.1227  0.0965
  215MOL0     H28348   6.759   2.356   8.846  0.2469 -1.1872 -0.6351
  215MOL0     H28349   6.823   2.354   9.018  0.5506  0.3929 -0.4937
  215MOL0     H28350   6.974   2.163   8.944 -1.5603  0.3796  2.2222
  215MOL0     H28351   6.915   2.175   8.793  2.4240  3.2558  0.4401
  215MOL0     H28352   6.723   2.126   9.036 -1.4546 -2.3148  0.1481
  215MOL0     H28353   6.670   2.129   8.876  0.4810  1.1337 -0.6107
  215MOL0     H28354   6.711   1.900   8.980  0.1192  1.1643  1.9125
  215MOL0     H28355   6.884   1.915   8.959  0.5466  0.3282  1.2706
  215MOL0     H28356   6.796   1.788   8.797 -0.4031 -0.1655  1.8133
  215MOL0     H28357   6.878   1.936   8.732 -0.0229 -1.4944 -1.5568
  215MOL0     H28358   6.639   2.038   8.686 -1.7541 -0.9514 -0.8185
  215MOL0     H28359   6.695   1.908   8.587  3.5041  2.7905 -0.8811
  215MOL0     H28360   6.536   1.854   8.831  2.8191 -0.0773  0.0897
  215MOL0     H28361   6.560   1.748   8.684  0.4423  0.4641 -2.1634
  215MOL0     H28362   7.213   2.318   8.617 -1.9996 -0.0448  1.6865
  215MOL0     H28363   7.415   2.425   8.541  0.6746  0.6665  0.5448
  215MOL0     H28364   7.675   2.816   8.687 -1.0857 -0.9887 -0.5393
  215MOL0     H28365   7.887   2.951   8.676  1.4983  0.0572 -1.3489
  215MOL0     H28366   7.990   3.714   9.524 -3.5033 -1.9285  0.8336
  215MOL0     H28367   7.786   3.795   9.639 -2.2206  1.0499  0.2159
  215MOL0     H28368   7.447   4.106   9.578 -0.4875  0.6043 -0.8035
  215MOL0     H28369   7.251   4.187   9.694 -0.5589  0.3257 -0.2291
  215MOL0     H28370   6.900   3.893   9.786 -0.4058  0.3821 -0.4817
  215MOL0     H28371   6.923   3.924   9.608 -2.4224 -2.7468  1.0410
  215MOL0     H28372   6.756   4.071   9.820 -0.8622 -1.3226  0.0473
  215MOL0     H28373   6.824   4.161   9.680 -2.8915  0.7399 -1.4334
  215MOL0     H28374   6.710   3.971   9.538 -2.0423  0.1383 -1.8962
  215MOL0     H28375   6.620   4.107   9.593 -0.8158 -0.2074  0.0460
  215MOL0     H28376   6.530   3.954   9.792 -0.6811  2.0532 -0.6569
  215MOL0     H28377   6.481   3.902   9.630  0.1441  2.3909 -1.2365
  215MOL0     H28378   6.743   3.587   9.718 -3.0112 -1.4270 -4.8855
  215MOL0     H28379   7.077   3.789   9.673  0.3084 -1.1076  0.1512
  215MOL0     H28380   7.303   3.703   9.600  2.8357  0.2732  2.5712
  216MOL0     O28381   1.269  10.458   4.851 -0.0769 -0.5952 -0.0420
  216MOL0     C28382   1.301  10.576   4.823 -0.7268 -0.3041 -0.6480
  216MOL0     O28383   1.264  10.686   4.890  0.0167 -0.5980  0.4537
  216MOL0     C28384   1.139  10.671   4.950 -0.4425  0.3510 -0.0910
  216MOL0     C28385   1.025  10.689   4.882  0.2970  0.4893 -0.6756
  216MOL0     C28386   0.899  10.682   4.940 -0.1827 -0.0836 -0.5163
  216MOL0     C28387   0.887  10.641   5.077  0.3519  0.7384 -0.0286
  216MOL0     O28388   0.767  10.647   5.136  0.2754  0.2604  0.6795
  216MOL0     C28389   0.753  10.674   5.277 -0.0673 -0.3897  0.5082
  216MOL0     C28390   0.608  10.699   5.304  0.9386  1.0000  0.1236
  216MOL0     C28391   0.576  10.729   5.446  0.5524 -1.1606  0.6584
  216MOL0     C28392   0.423  10.721   5.466  0.6728  0.7796 -0.6585
  216MOL0     C28393   0.369  10.783   5.599  0.9236 -0.6230 -0.7664
  216MOL0     C28394   0.239  10.712   5.647 -0.3945 -0.3587 -0.2936
  216MOL0     C28395   0.196  10.748   5.786  0.9470 -0.7708 -0.4797
  216MOL0     C28396   0.069  10.671   5.832  0.5104 -0.4020  0.0066
  216MOL0     N28397   0.003  10.754   5.929  0.3535  0.5845 -0.2199
  216MOL0     C28398  -0.132  10.786   5.925 -0.3438 -0.4308 -0.1301
  216MOL0     C28399  -0.154  10.855   6.044 -0.0225  0.5997 -0.3032
  216MOL0     C28400  -0.278  10.914   6.092 -0.1919  0.0314  1.2095
  216MOL0     C28401  -0.385  10.811   6.129  0.1739  0.1068 -0.3131
  216MOL0     C28402  -0.493  10.886   6.203  0.2992 -0.1847  0.6633
  216MOL0     C28403  -0.571  10.981   6.107  0.3707  0.0993  0.9686
  216MOL0     O28404  -0.683  11.020   6.176  0.4292 -0.6914  0.2524
  216MOL0     C28405  -0.793  11.088   6.122 -0.6182 -0.0992 -0.3184
  216MOL0     C28406  -0.788  11.146   6.004  0.4005 -0.8379  1.1196
  216MOL0     C28407  -0.896  11.217   5.955 -0.6979 -0.5089  0.1591
  216MOL0     C28408  -1.009  11.229   6.030  0.8145  0.1362  0.0544
  216MOL0     C28409  -1.134  11.294   5.985 -0.6225 -0.2896  0.4132
  216MOL0     O28410  -1.144  11.314   5.853 -0.3127 -0.2558 -0.2886
  216MOL0     C28411  -1.262  11.348   5.793 -0.4976 -0.1689  0.7742
  216MOL0     C28412  -1.360  11.443   5.847  0.1673 -0.1887 -0.3007
  216MOL0     C28413  -1.460  11.482   5.760  0.5962  0.2056 -0.7464
  216MOL0     C28414  -1.486  11.425   5.637 -0.8856 -0.9607  0.5297
  216MOL0     O28415  -1.592  11.468   5.558  0.4203  0.1334  0.0252
  216MOL0     C28416  -1.676  11.374   5.487  0.5723 -0.2196 -0.0924
  216MOL0     C28417  -1.802  11.449   5.427 -0.1191 -0.2212 -0.5648
  216MOL0     C28418  -1.892  11.362   5.345  0.0645 -0.3535 -0.1787
  216MOL0     C28419  -1.988  11.448   5.262  0.1513 -0.0815 -0.3985
  216MOL0     C28420  -2.113  11.369   5.223  0.7382 -0.0342 -0.4063
  216MOL0     C28421  -2.087  11.257   5.132  0.6591  0.3651 -0.1305
  216MOL0     C28422  -2.207  11.161   5.108 -0.1890 -0.3640 -1.1730
  216MOL0     C28423  -2.331  11.229   5.051  0.5595 -0.2007 -0.3163
  216MOL0    Cl28424  -2.451  11.122   4.982 -0.1180  0.3993 -0.1005
  216MOL0     C28425  -1.394  11.329   5.582  1.2137 -0.0994 -0.1979
  216MOL0     C28426  -1.288  11.290   5.662  0.0821  0.2199 -0.9503
  216MOL0     O28427  -1.220  11.330   6.066  0.3906 -0.8444  0.3958
  216MOL0     C28428  -1.006  11.182   6.162  0.2508 -0.0199 -0.4172
  216MOL0     C28429  -0.897  11.108   6.208  0.0803  0.5462  0.4448
  216MOL0     N28430  -0.031  10.880   6.102 -0.9481  0.1395 -0.8596
  216MOL0     N28431   0.063  10.821   6.030  0.2142 -0.1435 -0.5724
  216MOL0     C28432   1.009  10.625   5.144 -0.7062  0.7685 -0.1268
  216MOL0     C28433   1.124  10.625   5.078 -0.4247 -0.8048  0.1086
  216MOL0     C28434   1.414  10.600   4.728  1.0268  0.3563 -0.1572
  216MOL0     C28435   1.471  10.491   4.658  0.3869  0.6489  0.6102
  216MOL0     C28436   1.553  10.521   4.547 -0.4372 -0.7131 -0.3834
  216MOL0     C28437   1.596  10.644   4.517  1.0853 -0.2308 -0.0867
  216MOL0     O28438   1.675  10.674   4.410  0.6751  0.2159 -0.3034
  216MOL0     C28439   1.810  10.692   4.447 -0.5060  0.2683 -0.0859
  216MOL0     C28440   1.873  10.571   4.507 -0.0621  0.7989 -0.5987
  216MOL0     C28441   1.897  10.440   4.420 -0.3265 -0.5254  0.1150
  216MOL0     C28442   2.026  10.439   4.343  1.1947  0.1732 -0.3289
  216MOL0     C28443   2.049  10.550   4.250 -0.2925 -0.2969  0.3211
  216MOL0     C28444   2.060  10.637   4.163  0.2104 -0.5328 -0.2989
  216MOL0     C28445   1.555  10.752   4.597 -0.1670  0.0877 -0.2263
  216MOL0     C28446   1.449  10.732   4.686 -0.2668  0.7835  0.2999
  216MOL0     H28447   1.033  10.711   4.776  3.5394  1.5965 -0.3215
  216MOL0     H28448   0.808  10.690   4.882 -0.6973 -0.8840  0.1617
  216MOL0     H28449   0.808  10.766   5.301  0.2416 -0.6151  0.6669
  216MOL0     H28450   0.790  10.595   5.343 -3.3682 -1.0065  1.8082
  216MOL0     H28451   0.552  10.609   5.278  0.3333  1.3794  0.0892
  216MOL0     H28452   0.581  10.785   5.241 -0.4081  0.1432 -0.5144
  216MOL0     H28453   0.609  10.834   5.452 -1.0235 -0.7095  2.2941
  216MOL0     H28454   0.632  10.669   5.518  0.6173 -1.7477  0.1242
  216MOL0     H28455   0.365  10.757   5.381  1.8421  2.1557 -0.9139
  216MOL0     H28456   0.403  10.614   5.461  3.4415  0.0565  1.4128
  216MOL0     H28457   0.341  10.888   5.587  1.3839 -0.1571  1.7898
  216MOL0     H28458   0.448  10.779   5.675 -1.4298 -1.9704  1.7726
  216MOL0     H28459   0.258  10.604   5.648  0.8217 -0.1467  0.8122
  216MOL0     H28460   0.162  10.735   5.573  0.0760  1.2465 -0.3177
  216MOL0     H28461   0.273  10.703   5.850  0.6248 -1.2856 -0.4491
  216MOL0     H28462   0.191  10.855   5.806  0.1801 -0.3085 -2.8963
  216MOL0     H28463   0.092  10.573   5.873  2.6101  0.5661  1.3204
  216MOL0     H28464   0.016  10.666   5.736 -2.7678  0.2998  1.6538
  216MOL0     H28465  -0.204  10.761   5.847 -1.2115 -0.8737  0.7954
  216MOL0     H28466  -0.315  10.980   6.013  3.8752  0.4891 -0.5963
  216MOL0     H28467  -0.246  10.974   6.177  2.9907 -0.7999  0.7301
  216MOL0     H28468  -0.341  10.747   6.206  0.3937 -1.2115 -1.4995
  216MOL0     H28469  -0.430  10.752   6.049  0.6286 -1.0379  0.2488
  216MOL0     H28470  -0.553  10.806   6.248  0.0958 -0.1787  0.4104
  216MOL0     H28471  -0.460  10.954   6.282 -0.3359  2.3938 -1.1803
  216MOL0     H28472  -0.593  10.939   6.008  1.0577  1.3677  0.2565
  216MOL0     H28473  -0.511  11.071   6.092  1.8421 -1.3964 -4.4634
  216MOL0     H28474  -0.696  11.151   5.947 -1.2880  0.5097 -1.7358
  216MOL0     H28475  -0.887  11.266   5.859 -0.6916  0.8418  0.8158
  216MOL0     H28476  -1.354  11.495   5.942 -0.2888 -1.2087  0.3006
  216MOL0     H28477  -1.528  11.559   5.795 -1.8204 -0.9230 -2.6606
  216MOL0     H28478  -1.710  11.288   5.545 -2.6637  0.8083 -0.2494
  216MOL0     H28479  -1.610  11.343   5.405  0.3836 -1.6864  0.2888
  216MOL0     H28480  -1.756  11.525   5.364  2.4469  0.0646  1.4700
  216MOL0     H28481  -1.856  11.501   5.507  0.9038  0.4366 -0.2749
  216MOL0     H28482  -1.950  11.299   5.413  0.0680 -2.1611 -1.7549
  216MOL0     H28483  -1.830  11.302   5.278  0.8339  0.8865 -0.5952
  216MOL0     H28484  -2.015  11.533   5.326  1.3965 -0.1422  0.2425
  216MOL0     H28485  -1.944  11.481   5.167 -2.3730 -0.3525 -1.7429
  216MOL0     H28486  -2.173  11.446   5.173  0.4181  0.4299  0.6582
  216MOL0     H28487  -2.162  11.332   5.313 -0.4890  0.1577 -0.9704
  216MOL0     H28488  -2.000  11.207   5.176  0.1417  0.7050  1.3310
  216MOL0     H28489  -2.067  11.304   5.035 -0.8549  1.3747  0.0212
  216MOL0     H28490  -2.189  11.083   5.034 -2.1586  3.0743 -5.7179
  216MOL0     H28491  -2.240  11.117   5.203 -0.0772  0.6880 -0.6328
  216MOL0     H28492  -2.297  11.289   4.966 -0.4127  1.3262  0.3120
  216MOL0     H28493  -2.364  11.297   5.131  4.3506  0.9373  0.4948
  216MOL0     H28494  -1.408  11.288   5.482 -2.4202  0.2070  0.0334
  216MOL0     H28495  -1.214  11.219   5.626  0.3230 -1.0066  1.7481
  216MOL0     H28496  -1.094  11.192   6.225  3.3234  1.4992  4.1014
  216MOL0     H28497  -0.893  11.063   6.307  1.0733 -0.0335  0.1564
  216MOL0     H28498   1.002  10.598   5.248 -1.1394 -1.9955 -0.7971
  216MOL0     H28499   1.208  10.594   5.140  0.1008 -0.0905 -0.2188
  216MOL0     H28500   1.458  10.385   4.677 -0.9808  0.1474 -2.5284
  216MOL0     H28501   1.589  10.431   4.499 -1.1775  0.3415 -3.1261
  216MOL0     H28502   1.821  10.776   4.516  0.0167  0.7542 -0.7577
  216MOL0     H28503   1.858  10.726   4.355 -1.5743  1.6782 -0.1648
  216MOL0     H28504   1.974  10.593   4.542  0.1203  0.5113 -0.9403
  216MOL0     H28505   1.815  10.532   4.591  3.7475 -1.3629  1.2812
  216MOL0     H28506   1.817  10.425   4.347 -0.1646 -1.8491  0.1726
  216MOL0     H28507   1.897  10.355   4.489  2.5180 -1.3976 -0.8074
  216MOL0     H28508   2.102  10.443   4.422  1.3725 -0.0900 -0.4868
  216MOL0     H28509   2.039  10.343   4.292  5.1874 -0.1089  0.8352
  216MOL0     H28510   2.076  10.705   4.082 -1.0109 -1.2644 -1.1792
  216MOL0     H28511   1.581  10.857   4.587 -2.0293  0.6965  0.8965
  216MOL0     H28512   1.411  10.827   4.722  1.2468  2.1024 -1.4200
  217MOL0     O28513   0.640   0.173   3.404 -0.6063  0.2526  0.7060
  217MOL0     C28514   0.705   0.174   3.511 -0.0368 -0.5220  0.6452
  217MOL0     O28515   0.656   0.136   3.628  0.7371  0.0317 -0.3078
  217MOL0     C28516   0.523   0.107   3.655 -0.2360  0.6538 -0.9239
  217MOL0     C28517   0.487   0.131   3.793  0.2356  0.3363 -0.4534
  217MOL0     C28518   0.350   0.123   3.831 -0.0445 -1.4686  0.6209
  217MOL0     C28519   0.256   0.078   3.734  0.4200 -0.4494 -0.9296
  217MOL0     O28520   0.122   0.064   3.771  1.0817  0.4382 -0.3104
  217MOL0     C28521   0.085   0.063   3.910  0.1388  0.2141  0.8278
  217MOL0     C28522  -0.068   0.045   3.922  1.0976  0.5126 -0.5867
  217MOL0     C28523  -0.147   0.171   3.906 -0.9284  0.9541 -0.2146
  217MOL0     C28524  -0.286   0.134   3.875 -0.4516  0.1743 -0.2728
  217MOL0     C28525  -0.352   0.019   3.962 -0.3887  0.0696 -0.0351
  217MOL0     C28526  -0.341   0.066   4.105  0.7458 -0.2630 -0.2556
  217MOL0     C28527  -0.438   0.004   4.198 -0.4468  0.2223 -0.7627
  217MOL0     C28528  -0.584   0.038   4.187 -0.4507 -0.3446  0.3093
  217MOL0     N28529  -0.664  -0.055   4.260  0.3507 -0.4718 -0.1513
  217MOL0     C28530  -0.702  -0.026   4.391  0.1556 -0.1947  0.7655
  217MOL0     C28531  -0.793  -0.125   4.419  0.5992  0.2740  0.4342
  217MOL0     C28532  -0.855  -0.142   4.549 -0.0895  1.3029 -0.5230
  217MOL0     C28533  -1.010  -0.146   4.543 -0.8816 -0.5013  1.6481
  217MOL0     C28534  -1.068  -0.135   4.685 -0.1962  0.7484  0.4941
  217MOL0     C28535  -1.221  -0.157   4.672 -0.1358 -0.1166  0.2994
  217MOL0     O28536  -1.270  -0.199   4.797 -0.0256  0.4735  0.3611
  217MOL0     C28537  -1.367  -0.295   4.800 -0.6702 -0.2965 -0.3884
  217MOL0     C28538  -1.461  -0.304   4.699 -0.1574 -0.0485  0.5615
  217MOL0     C28539  -1.558  -0.408   4.694  0.5692  0.3100 -0.5572
  217MOL0     C28540  -1.562  -0.499   4.800  0.5484  0.0703  0.4349
  217MOL0     C28541  -1.673  -0.599   4.805 -0.0007 -0.3846 -0.7723
  217MOL0     O28542  -1.717  -0.652   4.689  0.1353  0.4100  0.2305
  217MOL0     C28543  -1.849  -0.705   4.669  0.1311  0.1814 -0.5000
  217MOL0     C28544  -1.951  -0.721   4.767  0.3469 -0.1330 -0.1469
  217MOL0     C28545  -2.080  -0.762   4.733  0.3388 -0.2073 -0.8117
  217MOL0     C28546  -2.111  -0.800   4.595  0.0801 -0.3056 -1.2462
  217MOL0     O28547  -2.242  -0.833   4.569 -0.2429 -0.1860 -0.0530
  217MOL0     C28548  -2.263  -0.903   4.438 -0.1935  0.6291 -0.0932
  217MOL0     C28549  -2.406  -0.962   4.433  0.3075 -0.5029  0.5777
  217MOL0     C28550  -2.416  -1.098   4.517  0.4833  0.2747 -0.9398
  217MOL0     C28551  -2.550  -1.170   4.500  1.0509  0.5035  0.7218
  217MOL0     C28552  -2.571  -1.281   4.600 -0.4024 -0.3607  0.0746
  217MOL0     C28553  -2.707  -1.349   4.588 -0.2191 -0.2184 -0.7777
  217MOL0     C28554  -2.720  -1.436   4.712  0.4226 -0.6032 -0.1524
  217MOL0     C28555  -2.863  -1.483   4.719 -0.3278  0.5145  0.1218
  217MOL0    Cl28556  -2.972  -1.349   4.713 -0.2606  0.4069 -0.1803
  217MOL0     C28557  -2.006  -0.787   4.503  0.0201  0.2188 -0.0018
  217MOL0     C28558  -1.876  -0.732   4.537  0.1163  0.2341 -0.1640
  217MOL0     O28559  -1.708  -0.638   4.913 -0.2124  0.5602 -0.4684
  217MOL0     C28560  -1.459  -0.500   4.898  0.0828  0.0143  1.0192
  217MOL0     C28561  -1.370  -0.392   4.901 -0.6683 -0.2271 -0.4319
  217MOL0     N28562  -0.816  -0.207   4.308 -0.3352  0.1629  0.4220
  217MOL0     N28563  -0.736  -0.161   4.217 -0.1404  0.0857  0.4601
  217MOL0     C28564   0.300   0.048   3.604 -0.3485  0.2657 -1.3288
  217MOL0     C28565   0.433   0.064   3.573 -0.6763  1.0454  0.9036
  217MOL0     C28566   0.848   0.197   3.509 -0.9670 -0.6230 -0.0746
  217MOL0     C28567   0.947   0.122   3.582  0.2914 -0.5915  0.7728
  217MOL0     C28568   1.088   0.158   3.566 -0.8520  0.6537 -0.5354
  217MOL0     C28569   1.123   0.262   3.488 -0.3074  0.5914  0.2750
  217MOL0     O28570   1.263   0.293   3.477  0.1350 -0.0406 -0.5343
  217MOL0     C28571   1.345   0.187   3.417  0.1484  0.7728 -0.6358
  217MOL0     C28572   1.308   0.108   3.281 -0.6564 -0.2716  0.1745
  217MOL0     C28573   1.184   0.029   3.237 -0.6375 -0.0023  0.5187
  217MOL0     C28574   1.150  -0.096   3.314  0.9783  0.7329 -0.0781
  217MOL0     C28575   1.249  -0.200   3.310  0.2898 -0.2807 -0.8668
  217MOL0     C28576   1.340  -0.283   3.295  0.5718  1.0772 -0.5670
  217MOL0     C28577   1.032   0.327   3.407  0.3524  1.1308 -0.2738
  217MOL0     C28578   0.897   0.298   3.422  0.8898  0.1876 -0.5218
  217MOL0     H28579   0.565   0.176   3.853 -0.4908 -0.6184  1.2734
  217MOL0     H28580   0.337   0.129   3.938  3.0583 -1.6007  1.0972
  217MOL0     H28581   0.112   0.156   3.960  1.2900 -0.3114  1.2106
  217MOL0     H28582   0.141  -0.018   3.955 -0.2202  0.7051  2.1903
  217MOL0     H28583  -0.081  -0.012   4.015  4.2938 -0.3773 -0.5731
  217MOL0     H28584  -0.104  -0.030   3.851 -0.8735 -0.9736  1.8177
  217MOL0     H28585  -0.108   0.230   3.822 -0.1634 -1.4891 -1.6884
  217MOL0     H28586  -0.138   0.237   3.993  1.9339 -1.0879  1.2379
  217MOL0     H28587  -0.351   0.222   3.881 -0.2498  0.3060 -0.0345
  217MOL0     H28588  -0.279   0.102   3.770  3.8036 -1.1467  0.2203
  217MOL0     H28589  -0.296  -0.076   3.960 -1.9268 -0.8869  0.6328
  217MOL0     H28590  -0.451  -0.009   3.925 -0.6395  0.3208  0.4424
  217MOL0     H28591  -0.358   0.174   4.106  0.8621 -0.2435  0.6608
  217MOL0     H28592  -0.247   0.039   4.155 -0.0550 -0.9471  0.9210
  217MOL0     H28593  -0.438  -0.104   4.184 -3.7877  0.5194 -4.7812
  217MOL0     H28594  -0.413   0.019   4.304  0.4615  0.3575 -0.9924
  217MOL0     H28595  -0.609   0.029   4.081  4.8227 -0.5698 -1.2149
  217MOL0     H28596  -0.594   0.140   4.227  1.4194  0.0594 -0.1275
  217MOL0     H28597  -0.664   0.055   4.453  0.0174  1.5618 -1.3546
  217MOL0     H28598  -0.830  -0.056   4.611 -1.7089  0.0526  2.0259
  217MOL0     H28599  -0.834  -0.235   4.602 -4.3563 -0.6638 -1.8161
  217MOL0     H28600  -1.038  -0.233   4.483 -0.9595  0.7802 -0.2644
  217MOL0     H28601  -1.049  -0.062   4.484  1.8067 -1.2701 -1.5006
  217MOL0     H28602  -1.019  -0.201   4.757 -1.4150 -0.8612 -0.0881
  217MOL0     H28603  -1.049  -0.035   4.726  2.2250 -0.4011  2.4343
  217MOL0     H28604  -1.262  -0.220   4.593 -2.2609  0.5563  0.7980
  217MOL0     H28605  -1.273  -0.061   4.660  0.3512  0.3107  1.4972
  217MOL0     H28606  -1.483  -0.220   4.635 -1.8967  0.7517  2.1152
  217MOL0     H28607  -1.629  -0.432   4.616 -2.2835  2.2231  1.2480
  217MOL0     H28608  -1.931  -0.716   4.873 -1.2746  1.4180  0.1287
  217MOL0     H28609  -2.166  -0.772   4.799 -0.1189 -0.3327 -1.4149
  217MOL0     H28610  -2.194  -0.988   4.439 -2.5100 -1.4501 -2.3615
  217MOL0     H28611  -2.245  -0.833   4.356  0.9287  0.1137 -0.3017
  217MOL0     H28612  -2.440  -0.994   4.334  0.5650 -0.0706  0.3476
  217MOL0     H28613  -2.467  -0.875   4.461 -3.3323 -2.0371 -1.8769
  217MOL0     H28614  -2.413  -1.073   4.623  1.9155 -2.2327 -0.2981
  217MOL0     H28615  -2.347  -1.181   4.498  1.1165  0.8414 -1.1717
  217MOL0     H28616  -2.612  -1.085   4.532  1.9435  0.6031  2.2379
  217MOL0     H28617  -2.583  -1.195   4.399 -0.3231  2.3797  0.6333
  217MOL0     H28618  -2.568  -1.242   4.702 -3.2922 -1.0553  0.5134
  217MOL0     H28619  -2.479  -1.341   4.598  2.0755  3.0863  1.5814
  217MOL0     H28620  -2.716  -1.398   4.491  0.5513  3.5847 -2.9803
  217MOL0     H28621  -2.780  -1.271   4.612  0.2548 -0.0069  0.0273
  217MOL0     H28622  -2.654  -1.519   4.686 -2.0010 -2.1536 -1.6282
  217MOL0     H28623  -2.691  -1.371   4.795  1.2344  1.2948 -1.8138
  217MOL0     H28624  -2.878  -1.547   4.807  0.7479 -2.8049 -1.9417
  217MOL0     H28625  -2.892  -1.551   4.639  1.0026  1.0864 -0.8744
  217MOL0     H28626  -2.014  -0.798   4.395  1.4618  1.3390 -0.2546
  217MOL0     H28627  -1.789  -0.736   4.471  3.0614  0.8254  3.3619
  217MOL0     H28628  -1.484  -0.567   4.980  2.2863 -3.3052 -0.8102
  217MOL0     H28629  -1.288  -0.398   4.971  0.6167 -1.4877 -1.9470
  217MOL0     H28630   0.217   0.026   3.538 -1.5144 -1.5650  0.6066
  217MOL0     H28631   0.454   0.052   3.467 -0.8424 -2.7730  1.1336
  217MOL0     H28632   0.922   0.040   3.650 -0.0591 -3.1139 -2.1744
  217MOL0     H28633   1.166   0.116   3.629 -2.0527  1.4998  1.6155
  217MOL0     H28634   1.358   0.112   3.495  1.1311  3.1973  1.6771
  217MOL0     H28635   1.446   0.222   3.393 -0.6966  1.7677 -3.2075
  217MOL0     H28636   1.316   0.183   3.202  1.8592  0.4847  1.0435
  217MOL0     H28637   1.390   0.037   3.266  0.0854  0.6409 -0.2236
  217MOL0     H28638   1.182   0.000   3.131 -0.3737  0.7449  0.3028
  217MOL0     H28639   1.104   0.102   3.246 -0.0779  0.5879  0.8148
  217MOL0     H28640   1.134  -0.064   3.417 -0.2599 -0.6471  0.1788
  217MOL0     H28641   1.054  -0.129   3.273  1.1300  0.5748 -0.3056
  217MOL0     H28642   1.414  -0.360   3.292 -0.0186  0.4632  0.2048
  217MOL0     H28643   1.061   0.399   3.331  1.8451  3.7381  2.5283
  217MOL0     H28644   0.826   0.361   3.369 -0.3012 -0.8052 -0.1747
  218MOL0     O28645   0.803   3.538   0.054 -0.4464 -0.4259  0.3622
  218MOL0     C28646   0.876   3.568   0.146 -0.2686  0.1901 -0.2959
  218MOL0     O28647   0.835   3.584   0.277 -0.0471 -0.3960 -0.2172
  218MOL0     C28648   0.705   3.532   0.312  0.0008 -0.7197 -0.3504
  218MOL0     C28649   0.667   3.397   0.317  0.9909  0.2343  0.6960
  218MOL0     C28650   0.543   3.364   0.355 -0.0360  0.7876 -0.8482
  218MOL0     C28651   0.438   3.453   0.385 -1.0282 -0.1997 -0.7216
  218MOL0     O28652   0.311   3.423   0.422 -0.2158  0.1563 -0.3977
  218MOL0     C28653   0.294   3.293   0.479  0.1335  0.3145  0.4982
  218MOL0     C28654   0.169   3.297   0.569  0.1648 -0.4930  0.4789
  218MOL0     C28655   0.039   3.336   0.490  0.6370  0.1805  0.1327
  218MOL0     C28656  -0.076   3.321   0.581  0.0537 -0.1031  0.0967
  218MOL0     C28657  -0.210   3.373   0.516  0.0182  0.1748 -0.4317
  218MOL0     C28658  -0.322   3.394   0.616  0.0114  0.1115  0.2424
  218MOL0     C28659  -0.289   3.499   0.722 -0.8316 -0.9790  0.5326
  218MOL0     C28660  -0.390   3.613   0.713  1.0397  0.0112  0.0131
  218MOL0     N28661  -0.524   3.576   0.768  0.0007  0.9965  0.4763
  218MOL0     C28662  -0.594   3.653   0.850 -0.7907 -0.5497 -0.3693
  218MOL0     C28663  -0.715   3.590   0.880  0.8100 -0.3663 -0.3385
  218MOL0     C28664  -0.810   3.631   0.986 -0.9395  0.5691 -0.0381
  218MOL0     C28665  -0.857   3.771   0.975  0.4084  0.5200  0.6479
  218MOL0     C28666  -0.986   3.796   1.052  0.0010  0.2904 -0.2997
  218MOL0     C28667  -1.114   3.829   0.977  0.1004  0.5186 -0.3269
  218MOL0     O28668  -1.229   3.836   1.061 -0.1406 -0.2597 -0.0014
  218MOL0     C28669  -1.357   3.842   1.011  0.1346 -0.1489  0.2083
  218MOL0     C28670  -1.458   3.826   1.113 -0.2153  0.0178  0.9625
  218MOL0     C28671  -1.590   3.846   1.079 -0.2038 -0.2847 -0.2630
  218MOL0     C28672  -1.632   3.902   0.954  0.3020  0.0227  0.3022
  218MOL0     C28673  -1.773   3.943   0.923  0.9831  0.6974 -0.3569
  218MOL0     O28674  -1.791   4.012   0.804 -1.0872 -0.1061 -0.4298
  218MOL0     C28675  -1.907   4.001   0.742  0.0535  0.4289 -0.5395
  218MOL0     C28676  -2.003   4.102   0.753  0.5693  0.4749  0.2712
  218MOL0     C28677  -2.135   4.094   0.699 -0.0874 -0.2233  0.1939
  218MOL0     C28678  -2.171   3.982   0.629 -0.3129  1.1385  1.1618
  218MOL0     O28679  -2.300   3.987   0.572 -0.5241 -0.2045  0.2753
  218MOL0     C28680  -2.356   3.865   0.529 -1.0836  0.0063  0.3052
  218MOL0     C28681  -2.493   3.879   0.470 -0.7102  0.3930 -0.6423
  218MOL0     C28682  -2.552   3.735   0.425 -0.5306 -0.3781  0.1312
  218MOL0     C28683  -2.703   3.747   0.379  0.2226  0.2691  0.0987
  218MOL0     C28684  -2.792   3.748   0.507 -0.7237 -0.7197  0.0152
  218MOL0     C28685  -2.930   3.791   0.479 -0.6510 -0.3085  0.0860
  218MOL0     C28686  -3.013   3.807   0.611  0.8182  0.2153  0.2059
  218MOL0     C28687  -3.159   3.825   0.551 -1.3460  0.3439 -0.0186
  218MOL0    Cl28688  -3.270   3.811   0.684 -0.2200  0.0418 -0.2518
  218MOL0     C28689  -2.074   3.884   0.614  0.0193 -0.0533 -0.8204
  218MOL0     C28690  -1.942   3.887   0.669  0.5235 -0.9014 -0.3335
  218MOL0     O28691  -1.863   3.920   1.001  0.3267  0.0882  0.6189
  218MOL0     C28692  -1.523   3.924   0.864  0.7190 -0.7904  0.3514
  218MOL0     C28693  -1.388   3.900   0.888 -0.1405 -0.3170  0.4643
  218MOL0     N28694  -0.717   3.471   0.811 -0.3442  0.4206  0.2165
  218MOL0     N28695  -0.601   3.459   0.748 -0.2309 -0.9043 -0.0842
  218MOL0     C28696   0.486   3.582   0.407  0.4251 -0.8830  0.4000
  218MOL0     C28697   0.608   3.622   0.360  0.0894 -0.2198  0.2146
  218MOL0     C28698   1.021   3.578   0.122  0.2282  0.1149 -0.0919
  218MOL0     C28699   1.074   3.593  -0.005  0.1531 -0.5096  0.1754
  218MOL0     C28700   1.209   3.623  -0.021 -0.5348  0.1826 -0.0935
  218MOL0     C28701   1.286   3.648   0.097 -0.4051  0.5144 -0.1765
  218MOL0     O28702   1.426   3.666   0.096 -0.2918  1.1470  0.4299
  218MOL0     C28703   1.498   3.568   0.025  0.4688 -0.2014  0.0057
  218MOL0     C28704   1.637   3.564   0.073 -0.0173  0.4453 -0.1028
  218MOL0     C28705   1.668   3.472   0.190  0.2337  0.3726  0.0467
  218MOL0     C28706   1.808   3.424   0.186  0.2151  0.4643  0.4567
  218MOL0     C28707   1.830   3.320   0.086 -0.5336 -0.4768  0.9320
  218MOL0     C28708   1.840   3.237  -0.007  0.1540 -0.2461  0.2581
  218MOL0     C28709   1.225   3.632   0.221 -0.1411 -0.1502  0.0268
  218MOL0     C28710   1.095   3.593   0.239  0.4340 -0.5563  1.0975
  218MOL0     H28711   0.740   3.327   0.278 -1.8927 -0.9409 -3.1171
  218MOL0     H28712   0.523   3.258   0.364  0.5778  0.4758 -2.7604
  218MOL0     H28713   0.377   3.277   0.550  1.6679  4.0330 -0.2480
  218MOL0     H28714   0.294   3.214   0.403  2.0537 -0.8692  1.6164
  218MOL0     H28715   0.181   3.376   0.644 -1.6967 -1.1709  1.5696
  218MOL0     H28716   0.154   3.206   0.627  0.1280  0.6800  2.4041
  218MOL0     H28717   0.027   3.266   0.407  1.0317  1.3163 -0.9032
  218MOL0     H28718   0.049   3.438   0.452  2.0924 -0.5438 -1.5831
  218MOL0     H28719  -0.077   3.213   0.601 -0.4268  0.1367  1.4956
  218MOL0     H28720  -0.052   3.375   0.673 -0.6717  0.1756  0.1310
  218MOL0     H28721  -0.237   3.304   0.436 -0.7896 -0.3908  0.3116
  218MOL0     H28722  -0.195   3.473   0.474  1.7772  0.3693  0.5751
  218MOL0     H28723  -0.347   3.298   0.662 -0.5908 -1.5327 -3.1645
  218MOL0     H28724  -0.413   3.422   0.561  0.7873  0.8709 -0.6845
  218MOL0     H28725  -0.289   3.457   0.823 -2.7588 -2.4136 -0.0136
  218MOL0     H28726  -0.192   3.548   0.713 -1.9155  0.8896 -3.0419
  218MOL0     H28727  -0.404   3.653   0.612  1.7772  0.8834  0.2447
  218MOL0     H28728  -0.348   3.693   0.774 -0.3051 -0.5539  1.7652
  218MOL0     H28729  -0.555   3.748   0.884 -1.7031 -0.6652  1.1052
  218MOL0     H28730  -0.766   3.613   1.085  0.7924 -1.1958 -1.0429
  218MOL0     H28731  -0.899   3.568   0.975  0.0697 -0.7275 -1.1717
  218MOL0     H28732  -0.888   3.793   0.872 -0.3822 -1.8661  0.3095
  218MOL0     H28733  -0.779   3.840   1.007  0.1366  0.2752  1.8625
  218MOL0     H28734  -0.999   3.714   1.124  1.4521 -0.9977 -1.4079
  218MOL0     H28735  -0.973   3.883   1.116 -0.9238  0.0671  0.2073
  218MOL0     H28736  -1.130   3.744   0.910 -0.7439  1.2987 -1.1413
  218MOL0     H28737  -1.099   3.920   0.919  2.5975 -0.2756 -1.0815
  218MOL0     H28738  -1.421   3.783   1.205  0.3760 -2.1474 -0.2019
  218MOL0     H28739  -1.658   3.822   1.160 -0.9895  1.4902 -0.3475
  218MOL0     H28740  -1.973   4.183   0.819  1.2660  0.4329  0.0135
  218MOL0     H28741  -2.214   4.165   0.716  0.1016 -0.3887  1.9176
  218MOL0     H28742  -2.362   3.806   0.621 -3.1738 -0.6981 -0.2222
  218MOL0     H28743  -2.286   3.818   0.458 -3.6149  0.8223 -2.9582
  218MOL0     H28744  -2.486   3.954   0.390  0.2819  1.6420  0.5692
  218MOL0     H28745  -2.548   3.932   0.548  0.9844  1.0246  0.1860
  218MOL0     H28746  -2.554   3.660   0.504 -1.6521 -0.3676  0.1379
  218MOL0     H28747  -2.499   3.696   0.338 -3.0620 -5.2270  0.3857
  218MOL0     H28748  -2.716   3.843   0.328 -3.4557 -0.7065 -1.1393
  218MOL0     H28749  -2.728   3.671   0.304 -0.4439  2.5781 -2.1893
  218MOL0     H28750  -2.752   3.814   0.585 -2.6841  0.0840  0.4015
  218MOL0     H28751  -2.793   3.650   0.556 -1.4845 -0.7726 -0.0926
  218MOL0     H28752  -2.969   3.718   0.407 -0.8980 -0.1708  0.0786
  218MOL0     H28753  -2.921   3.887   0.429 -1.7537 -0.2642 -0.0594
  218MOL0     H28754  -2.998   3.714   0.668 -1.6378  0.2180  0.9951
  218MOL0     H28755  -2.976   3.894   0.666  2.5440  0.8931 -1.9043
  218MOL0     H28756  -3.177   3.757   0.466  0.1535 -0.9543  0.6511
  218MOL0     H28757  -3.162   3.929   0.517  2.4143  0.1111 -1.5542
  218MOL0     H28758  -2.104   3.788   0.572  1.0938 -1.0719  0.6388
  218MOL0     H28759  -1.878   3.803   0.643 -1.3036 -1.7020 -2.4772
  218MOL0     H28760  -1.550   3.976   0.772 -1.5515 -0.8729  0.9145
  218MOL0     H28761  -1.312   3.900   0.811 -0.3616 -0.7033  0.2424
  218MOL0     H28762   0.420   3.657   0.449  1.4105 -1.1107  2.4832
  218MOL0     H28763   0.629   3.729   0.359 -0.8194  0.1220 -4.1730
  218MOL0     H28764   1.013   3.582  -0.094 -1.5968 -2.8606  1.5470
  218MOL0     H28765   1.252   3.645  -0.118  0.8805  1.5943  0.8053
  218MOL0     H28766   1.492   3.594  -0.081  1.4212  2.9319  0.5995
  218MOL0     H28767   1.459   3.468   0.044  0.0184  0.5606  3.8728
  218MOL0     H28768   1.692   3.523  -0.012  0.5188 -2.0314  1.3244
  218MOL0     H28769   1.666   3.665   0.104  1.3471 -0.6293  2.4336
  218MOL0     H28770   1.589   3.397   0.197  1.5942 -1.1463 -0.1287
  218MOL0     H28771   1.663   3.527   0.284  1.8979 -0.4395  0.6611
  218MOL0     H28772   1.875   3.504   0.154  1.5563  0.3455  2.7400
  218MOL0     H28773   1.844   3.393   0.285  0.8837 -0.8102 -0.1579
  218MOL0     H28774   1.857   3.176  -0.093 -2.7897  1.0705 -1.4152
  218MOL0     H28775   1.298   3.639   0.301  1.4177  2.4758 -1.4616
  218MOL0     H28776   1.047   3.611   0.335 -1.4093  3.3874 -0.3523
  219MOL0     O28777   6.726   8.100   8.491  0.1530 -0.8453 -0.2429
  219MOL0     C28778   6.741   7.979   8.479  0.2893 -0.8481  0.4111
  219MOL0     O28779   6.640   7.882   8.492  0.6206 -0.2581  0.4999
  219MOL0     C28780   6.518   7.921   8.524 -0.1335  1.0454  0.3056
  219MOL0     C28781   6.440   8.011   8.443  0.2113  1.0968  1.2843
  219MOL0     C28782   6.313   8.052   8.468  0.2137 -0.1546 -0.3328
  219MOL0     C28783   6.257   8.006   8.587 -0.1447 -0.0550  0.3554
  219MOL0     O28784   6.141   8.037   8.645  0.1949  0.7300 -0.4900
  219MOL0     C28785   6.031   8.069   8.565 -0.1178  0.0067  0.2426
  219MOL0     C28786   5.906   8.063   8.646  0.3596  0.2534  0.1366
  219MOL0     C28787   5.783   8.045   8.559 -0.5042 -0.9694 -0.3921
  219MOL0     C28788   5.662   8.034   8.647 -0.3303 -0.4090  0.0784
  219MOL0     C28789   5.543   8.018   8.554  0.2556 -0.1138 -0.5368
  219MOL0     C28790   5.426   7.981   8.647  0.3599  1.0859 -0.2126
  219MOL0     C28791   5.299   7.963   8.569  0.6917 -0.6445 -0.2439
  219MOL0     C28792   5.293   7.842   8.479  0.1238  0.6470 -0.8962
  219MOL0     N28793   5.158   7.838   8.411 -0.2773 -0.4664 -0.1537
  219MOL0     C28794   5.058   7.751   8.452  0.7043  0.1125  0.1319
  219MOL0     C28795   4.985   7.734   8.340 -0.5908  0.0830 -0.2133
  219MOL0     C28796   4.868   7.644   8.329 -0.3614  0.3722  0.0493
  219MOL0     C28797   4.905   7.500   8.295  0.4606  0.3692  0.4635
  219MOL0     C28798   4.792   7.400   8.307  0.1505 -0.0886 -0.2427
  219MOL0     C28799   4.835   7.263   8.251  0.1195 -0.5117  0.6637
  219MOL0     O28800   4.793   7.153   8.337  0.3302 -0.3290  0.3482
  219MOL0     C28801   4.678   7.090   8.306 -1.4443  1.5162  0.0975
  219MOL0     C28802   4.588   7.136   8.216  0.7360  0.3869  0.1330
  219MOL0     C28803   4.468   7.065   8.188  0.2864  0.0936 -0.0730
  219MOL0     C28804   4.442   6.945   8.250  0.0597 -0.2163 -0.0053
  219MOL0     C28805   4.326   6.861   8.220 -0.0114  0.7236  0.5821
  219MOL0     O28806   4.336   6.729   8.258 -0.5319  0.6969 -0.7285
  219MOL0     C28807   4.250   6.633   8.194 -0.6376  0.7325 -0.1157
  219MOL0     C28808   4.126   6.608   8.243  0.2636  0.7788 -0.0446
  219MOL0     C28809   4.059   6.497   8.189  0.5701  0.5198 -0.3030
  219MOL0     C28810   4.114   6.410   8.099 -0.7133  0.2246  1.2282
  219MOL0     O28811   4.047   6.300   8.037 -0.3630 -0.5604 -0.0673
  219MOL0     C28812   3.907   6.280   8.065  0.3524 -0.0746 -0.0889
  219MOL0     C28813   3.842   6.165   7.986 -0.0390 -0.6691 -0.3173
  219MOL0     C28814   3.697   6.159   8.033 -0.1596 -0.3570 -0.4517
  219MOL0     C28815   3.606   6.091   7.927  0.3081  0.1150  0.6693
  219MOL0     C28816   3.638   5.944   7.892 -0.4241  0.2023  0.9535
  219MOL0     C28817   3.588   5.893   7.751 -0.2288  0.0467 -0.0658
  219MOL0     C28818   3.622   5.747   7.720  0.3695  0.0629 -0.1907
  219MOL0     C28819   3.533   5.639   7.790 -0.3307 -0.4601  0.3371
  219MOL0    Cl28820   3.355   5.663   7.744 -0.4194 -0.2702 -0.2535
  219MOL0     C28821   4.240   6.445   8.059  0.4358 -0.7562  0.8021
  219MOL0     C28822   4.311   6.554   8.093 -0.5512  0.4824 -0.2490
  219MOL0     O28823   4.225   6.909   8.171 -0.0786  0.1732  1.2945
  219MOL0     C28824   4.541   6.890   8.330  0.1819  0.0088 -0.9807
  219MOL0     C28825   4.647   6.966   8.361  0.2730 -0.0734  0.3525
  219MOL0     N28826   5.037   7.824   8.246  0.0528  0.0433 -0.0292
  219MOL0     N28827   5.139   7.886   8.296  0.6279 -0.5355  0.4597
  219MOL0     C28828   6.326   7.911   8.665 -0.0066  0.0122 -0.5227
  219MOL0     C28829   6.459   7.866   8.633  0.8940  0.0435 -0.7714
  219MOL0     C28830   6.882   7.924   8.462  0.7825 -0.4927  0.7927
  219MOL0     C28831   6.908   7.788   8.451  0.8048 -0.3346 -1.0767
  219MOL0     C28832   7.034   7.740   8.466  0.2474  0.4699  0.6151
  219MOL0     C28833   7.142   7.832   8.461 -0.2749 -0.2994 -0.2447
  219MOL0     O28834   7.271   7.785   8.467 -0.0892 -0.7223  0.8487
  219MOL0     C28835   7.295   7.658   8.399  0.1200  0.2314 -0.4059
  219MOL0     C28836   7.442   7.637   8.368  0.2104  0.0477 -0.0918
  219MOL0     C28837   7.482   7.748   8.268  0.7017 -0.3775 -0.5886
  219MOL0     C28838   7.627   7.738   8.220  0.1074 -0.3988  0.5846
  219MOL0     C28839   7.648   7.876   8.165  0.3026  0.0694 -0.6849
  219MOL0     C28840   7.654   7.996   8.132  0.1886 -0.1682 -0.5207
  219MOL0     C28841   7.124   7.968   8.456 -0.4884 -0.5788 -0.1851
  219MOL0     C28842   6.994   8.019   8.459  0.3536  0.6908  0.1568
  219MOL0     H28843   6.483   8.052   8.352 -2.5323  0.1805 -0.5533
  219MOL0     H28844   6.257   8.122   8.408  0.4659  0.7975  0.5151
  219MOL0     H28845   6.016   8.005   8.478 -1.4783  0.7608 -0.1050
  219MOL0     H28846   6.036   8.176   8.542 -0.4240  0.5743  2.5275
  219MOL0     H28847   5.903   8.158   8.701  0.1597  0.9835 -1.1143
  219MOL0     H28848   5.918   7.982   8.719  3.8702 -0.8939 -1.4997
  219MOL0     H28849   5.800   7.955   8.499  2.9105 -0.1454 -0.8823
  219MOL0     H28850   5.770   8.135   8.497  1.1100 -1.1105 -0.9822
  219MOL0     H28851   5.678   7.937   8.695 -2.6381 -0.8314  0.1258
  219MOL0     H28852   5.665   8.116   8.720  2.1439 -1.5566  1.3800
  219MOL0     H28853   5.559   7.932   8.489  0.5459  1.0146 -1.9933
  219MOL0     H28854   5.539   8.104   8.487  0.7751 -1.7079 -2.7214
  219MOL0     H28855   5.409   8.054   8.726 -0.9030 -0.1017  0.6552
  219MOL0     H28856   5.449   7.889   8.701 -0.2622  1.6677  1.0866
  219MOL0     H28857   5.214   7.959   8.638 -1.2847  2.8083 -2.2527
  219MOL0     H28858   5.279   8.048   8.505  3.5737 -0.0173 -0.4614
  219MOL0     H28859   5.304   7.757   8.547 -1.8544  1.6815  0.8426
  219MOL0     H28860   5.378   7.855   8.411  1.2061  1.5424  0.5789
  219MOL0     H28861   5.039   7.693   8.541  0.7837 -1.2867 -0.7341
  219MOL0     H28862   4.801   7.676   8.249 -1.1251 -4.3639 -1.5274
  219MOL0     H28863   4.808   7.634   8.420  0.3255 -1.0633  0.3792
  219MOL0     H28864   4.990   7.456   8.348 -0.1547 -1.0243  0.3220
  219MOL0     H28865   4.933   7.507   8.189  0.7101  1.2335  0.5726
  219MOL0     H28866   4.768   7.396   8.413 -0.8131 -1.8477 -0.4944
  219MOL0     H28867   4.700   7.442   8.265 -0.1426  1.6132  1.9439
  219MOL0     H28868   4.944   7.255   8.253  0.3620  1.7656  2.8678
  219MOL0     H28869   4.813   7.250   8.145  1.1442 -1.5689  0.5586
  219MOL0     H28870   4.587   7.232   8.166  1.9973  0.3249 -0.0640
  219MOL0     H28871   4.384   7.107   8.134 -0.3046 -0.4068  0.4340
  219MOL0     H28872   4.083   6.661   8.327  1.0421 -0.9096  1.4792
  219MOL0     H28873   3.969   6.475   8.244  0.7183 -0.0681 -0.2957
  219MOL0     H28874   3.850   6.373   8.051 -1.2273 -1.1185 -0.8013
  219MOL0     H28875   3.899   6.257   8.172  2.0715  2.9412  0.8099
  219MOL0     H28876   3.891   6.067   7.989  0.7760 -0.2728 -0.4981
  219MOL0     H28877   3.836   6.204   7.884 -1.9810 -1.9089 -0.7396
  219MOL0     H28878   3.652   6.259   8.045 -1.8849 -1.2242  0.7584
  219MOL0     H28879   3.695   6.110   8.131 -0.8545 -1.3118 -0.9289
  219MOL0     H28880   3.502   6.093   7.959 -0.4265 -1.6323 -1.3836
  219MOL0     H28881   3.618   6.143   7.832  1.5053  1.3965  1.4898
  219MOL0     H28882   3.584   5.878   7.961  1.1337 -2.7056 -0.4441
  219MOL0     H28883   3.745   5.924   7.889 -0.3973  0.1688 -3.2713
  219MOL0     H28884   3.635   5.962   7.680  1.0836  0.2737  0.9893
  219MOL0     H28885   3.480   5.904   7.755 -0.1666  0.8866 -0.5280
  219MOL0     H28886   3.612   5.741   7.612 -2.1428  0.7130 -0.0587
  219MOL0     H28887   3.721   5.724   7.759 -0.4845 -2.7294  0.5833
  219MOL0     H28888   3.544   5.655   7.897  0.4040  0.0075  0.2038
  219MOL0     H28889   3.561   5.537   7.763 -3.0003 -1.2715  0.4201
  219MOL0     H28890   4.280   6.378   7.984 -1.8482 -1.4645  0.1365
  219MOL0     H28891   4.409   6.579   8.055 -0.2171 -0.1092  0.2038
  219MOL0     H28892   4.534   6.790   8.371 -1.6952  0.7969  0.7819
  219MOL0     H28893   4.719   6.923   8.430 -1.2137 -0.4903  1.6825
  219MOL0     H28894   6.272   7.862   8.745 -1.2520  3.3228  0.8204
  219MOL0     H28895   6.511   7.789   8.689  0.2685 -1.0074 -1.6020
  219MOL0     H28896   6.827   7.716   8.450  0.3949  0.0289  1.1389
  219MOL0     H28897   7.042   7.633   8.478 -0.1794 -0.3521 -4.3247
  219MOL0     H28898   7.236   7.665   8.307 -0.6279  0.1435  0.0560
  219MOL0     H28899   7.264   7.581   8.470  0.1487  0.3629 -0.2516
  219MOL0     H28900   7.493   7.643   8.464  0.4153 -0.6484 -0.1466
  219MOL0     H28901   7.459   7.536   8.329 -1.9649 -0.8822  1.2171
  219MOL0     H28902   7.461   7.847   8.309 -0.9132 -0.3121 -1.5010
  219MOL0     H28903   7.420   7.740   8.179 -0.8519  2.5660  0.1016
  219MOL0     H28904   7.684   7.712   8.309 -2.4344 -0.7695  2.1843
  219MOL0     H28905   7.630   7.668   8.136  1.4628  1.5282 -1.0670
  219MOL0     H28906   7.652   8.100   8.108 -1.0785  0.0639  0.4806
  219MOL0     H28907   7.211   8.030   8.436 -1.2071 -0.0527 -1.9055
  219MOL0     H28908   6.983   8.127   8.456  1.7648  0.8440 -0.3122
  220MOL0     O28909   0.890  10.639   4.176  0.0051  0.1188  0.0450
  220MOL0     C28910   0.901  10.587   4.065 -0.3515 -0.7504 -0.4476
  220MOL0     O28911   0.824  10.487   4.005  0.0961  0.0022 -0.7267
  220MOL0     C28912   0.718  10.440   4.073  0.2727 -0.0881  0.2137
  220MOL0     C28913   0.712  10.316   4.152 -0.2062  0.7606 -0.6410
  220MOL0     C28914   0.597  10.268   4.220 -0.7695 -0.1605 -0.9371
  220MOL0     C28915   0.485  10.342   4.205 -0.0948 -0.2662 -0.0370
  220MOL0     O28916   0.378  10.293   4.276  0.6113 -0.3981 -0.3960
  220MOL0     C28917   0.286  10.384   4.341 -0.0625 -1.2293  0.2321
  220MOL0     C28918   0.197  10.302   4.438 -0.1840  0.1054 -0.3079
  220MOL0     C28919   0.057  10.282   4.394  0.9225 -0.1302  0.4244
  220MOL0     C28920  -0.018  10.188   4.481 -0.7873  0.4054 -0.0972
  220MOL0     C28921  -0.166  10.161   4.454  0.0031 -0.3490  0.8305
  220MOL0     C28922  -0.265  10.273   4.478 -0.4361  0.2199 -0.6103
  220MOL0     C28923  -0.400  10.263   4.405 -1.0969 -0.2213  0.4163
  220MOL0     C28924  -0.504  10.176   4.471  0.6134  0.3341 -0.2850
  220MOL0     N28925  -0.627  10.166   4.390 -0.0957 -0.4393 -0.1297
  220MOL0     C28926  -0.751  10.222   4.430 -0.1575 -0.5330 -0.1027
  220MOL0     C28927  -0.835  10.213   4.323 -0.7065  0.5822  0.0677
  220MOL0     C28928  -0.979  10.238   4.304  0.2891  1.0164 -0.3811
  220MOL0     C28929  -0.991  10.370   4.228  0.1586 -0.7904  0.8859
  220MOL0     C28930  -1.134  10.433   4.202  0.0937  0.5328  0.0625
  220MOL0     C28931  -1.198  10.377   4.071  0.2339  1.0740  0.7583
  220MOL0     O28932  -1.254  10.242   4.112 -0.3476  0.2428  0.1369
  220MOL0     C28933  -1.388  10.240   4.137 -0.2087 -0.5982 -0.4559
  220MOL0     C28934  -1.425  10.206   4.262 -0.7116 -0.1361  0.2535
  220MOL0     C28935  -1.560  10.216   4.311  0.1553  0.5337  0.1480
  220MOL0     C28936  -1.662  10.251   4.216  0.8924  0.9885 -0.4211
  220MOL0     C28937  -1.811  10.233   4.252  0.3659  0.4819  0.1592
  220MOL0     O28938  -1.891  10.238   4.142  0.4072 -0.5304 -0.3162
  220MOL0     C28939  -2.013  10.176   4.153  0.4392  0.9533  0.2389
  220MOL0     C28940  -2.033  10.049   4.214 -0.2446 -0.5612 -0.1423
  220MOL0     C28941  -2.162   9.992   4.217 -0.4363 -0.1719 -1.5149
  220MOL0     C28942  -2.277  10.063   4.179 -0.1219 -0.4272  0.6159
  220MOL0     O28943  -2.406  10.026   4.201 -0.8817 -0.3332  0.7174
  220MOL0     C28944  -2.477   9.996   4.080 -0.0690 -0.1473  1.0173
  220MOL0     C28945  -2.613   9.938   4.127  0.2562 -0.3275 -0.3395
  220MOL0     C28946  -2.708   9.908   4.010 -1.0310 -0.3329  0.8507
  220MOL0     C28947  -2.858   9.879   4.050 -0.5781  0.1466  0.1854
  220MOL0     C28948  -2.879   9.801   4.185  0.6549  0.5668 -0.2690
  220MOL0     C28949  -3.025   9.799   4.235 -0.7468 -1.2354 -0.6931
  220MOL0     C28950  -3.024   9.716   4.359  0.1291 -0.0389  0.2805
  220MOL0     C28951  -3.151   9.636   4.375 -0.3202  0.1495  0.6620
  220MOL0    Cl28952  -3.299   9.732   4.374  0.3753 -0.0961  0.3361
  220MOL0     C28953  -2.261  10.200   4.129 -0.3415  0.4372 -0.7739
  220MOL0     C28954  -2.129  10.245   4.110  0.6303 -0.0979 -0.0446
  220MOL0     O28955  -1.849  10.233   4.369 -0.1326 -0.1387  0.2630
  220MOL0     C28956  -1.618  10.278   4.083  0.0559  0.2896  0.2389
  220MOL0     C28957  -1.485  10.270   4.046  0.1848  0.2140 -0.0214
  220MOL0     N28958  -0.763  10.142   4.225 -0.0735  0.0598  0.5809
  220MOL0     N28959  -0.640  10.124   4.260  0.3476  1.1789  0.3529
  220MOL0     C28960   0.487  10.468   4.133  0.9342 -0.8139  0.1353
  220MOL0     C28961   0.598  10.511   4.062  0.2203  0.3698 -0.0292
  220MOL0     C28962   1.000  10.648   3.979 -0.1724 -0.5568  0.6383
  220MOL0     C28963   0.978  10.784   3.963 -0.3648 -0.4248  0.0500
  220MOL0     C28964   1.066  10.859   3.887  0.6171  0.0660  0.6803
  220MOL0     C28965   1.171  10.793   3.816  0.7559 -0.1832 -0.7760
  220MOL0     O28966   1.245  10.865   3.731  0.0553 -0.6269  0.4392
  220MOL0     C28967   1.387  10.879   3.767  0.4265 -0.2971 -0.3680
  220MOL0     C28968   1.409  10.985   3.877  0.2998  1.1266 -0.2604
  220MOL0     C28969   1.361  11.132   3.837 -0.7137  0.8920 -0.4231
  220MOL0     C28970   1.444  11.216   3.730 -0.2042 -0.2139  0.8836
  220MOL0     C28971   1.588  11.188   3.750 -0.2359  0.5716 -0.5535
  220MOL0     C28972   1.701  11.167   3.786  0.2095 -0.3891  0.4934
  220MOL0     C28973   1.188  10.652   3.822 -0.9506 -0.2009 -0.8942
  220MOL0     C28974   1.107  10.577   3.911 -0.3217  0.0190  0.1222
  220MOL0     H28975   0.798  10.251   4.153 -2.8529 -3.0474 -0.6047
  220MOL0     H28976   0.587  10.176   4.276 -1.2886 -1.0159 -2.3663
  220MOL0     H28977   0.226  10.429   4.261 -0.7097 -2.6973 -0.1418
  220MOL0     H28978   0.343  10.460   4.395 -0.2813  0.2511 -1.5227
  220MOL0     H28979   0.200  10.348   4.537  0.2389  1.4748 -0.9261
  220MOL0     H28980   0.243  10.204   4.450  0.3200  0.6656  4.3849
  220MOL0     H28981   0.043  10.237   4.295 -0.4017 -0.0166  0.5451
  220MOL0     H28982   0.002  10.377   4.398 -0.0070 -0.5873 -0.7945
  220MOL0     H28983   0.030  10.090   4.472  0.3543  1.0547 -1.6444
  220MOL0     H28984  -0.014  10.229   4.583 -1.8497 -0.2013  0.1938
  220MOL0     H28985  -0.200  10.074   4.510  0.5153  0.0705  1.8253
  220MOL0     H28986  -0.181  10.139   4.348  2.3970 -0.5326  0.4547
  220MOL0     H28987  -0.217  10.368   4.450  0.4637 -0.3013 -0.8965
  220MOL0     H28988  -0.283  10.265   4.586  1.4789  0.1167 -0.2618
  220MOL0     H28989  -0.437  10.365   4.396 -1.6648 -0.3684  0.9911
  220MOL0     H28990  -0.381  10.230   4.303 -2.6454 -1.4166  0.4874
  220MOL0     H28991  -0.536  10.214   4.569 -1.3195  3.7185 -2.0363
  220MOL0     H28992  -0.460  10.077   4.482  0.5310  0.2743 -0.5048
  220MOL0     H28993  -0.783  10.249   4.530  1.4708  0.3751  0.2086
  220MOL0     H28994  -1.025  10.246   4.403  2.5334  1.0843  0.7064
  220MOL0     H28995  -1.034  10.163   4.246 -1.5365 -0.9408  3.4342
  220MOL0     H28996  -0.941  10.358   4.132  2.4611  0.9608  1.7722
  220MOL0     H28997  -0.939  10.449   4.284 -4.3002  1.5031  2.3341
  220MOL0     H28998  -1.208  10.437   4.282 -1.5673 -1.1994 -1.2813
  220MOL0     H28999  -1.121  10.537   4.171 -5.0602  1.5376  0.4797
  220MOL0     H29000  -1.136  10.368   3.982 -0.5073 -1.8345  0.4441
  220MOL0     H29001  -1.282  10.439   4.039 -1.4569 -1.2686  0.4736
  220MOL0     H29002  -1.342  10.173   4.323 -0.3897  1.5198  0.7751
  220MOL0     H29003  -1.602  10.189   4.407 -0.7749 -4.5252 -1.3763
  220MOL0     H29004  -1.939  10.005   4.246  0.3178  0.2722 -0.6157
  220MOL0     H29005  -2.164   9.896   4.268  4.2600 -0.2765 -1.0613
  220MOL0     H29006  -2.418   9.916   4.034 -1.0181 -0.0116 -0.5100
  220MOL0     H29007  -2.491  10.071   4.002 -2.6273 -0.5713  0.9876
  220MOL0     H29008  -2.665  10.018   4.180  1.8636  1.6401 -1.5886
  220MOL0     H29009  -2.607   9.854   4.197 -1.8339  0.0787  0.4150
  220MOL0     H29010  -2.686   9.811   3.963 -0.1827  0.2799 -0.0537
  220MOL0     H29011  -2.695   9.990   3.939  0.1315 -0.7425  0.5657
  220MOL0     H29012  -2.899   9.978   4.073 -1.4531 -0.3012  0.6138
  220MOL0     H29013  -2.905   9.823   3.969  3.2098  1.8542 -3.5729
  220MOL0     H29014  -2.820   9.833   4.271  2.7623 -1.5689 -0.8052
  220MOL0     H29015  -2.847   9.697   4.172 -0.8660 -0.1831  1.5100
  220MOL0     H29016  -3.096   9.758   4.163 -0.4134  1.5865 -2.8077
  220MOL0     H29017  -3.067   9.897   4.262 -0.9302 -1.4187 -0.3092
  220MOL0     H29018  -2.949   9.639   4.376 -1.2342 -1.4775  0.0560
  220MOL0     H29019  -3.012   9.784   4.444 -0.4241  0.0559  0.2889
  220MOL0     H29020  -3.156   9.592   4.475  0.6253  2.1094  1.6311
  220MOL0     H29021  -3.162   9.553   4.305 -1.0924 -0.2515  1.2457
  220MOL0     H29022  -2.340  10.260   4.086 -0.4756  0.6730 -0.2116
  220MOL0     H29023  -2.105  10.340   4.063  0.1137 -1.0371 -2.3718
  220MOL0     H29024  -1.691  10.279   4.002 -3.3353 -0.1864  3.0384
  220MOL0     H29025  -1.453  10.300   3.947  3.1773  0.1814  0.8535
  220MOL0     H29026   0.399  10.530   4.145  2.6022  1.9531 -0.8030
  220MOL0     H29027   0.590  10.598   3.998 -1.7641 -1.0352 -1.8376
  220MOL0     H29028   0.891  10.831   4.007  0.2924  0.5990  0.2739
  220MOL0     H29029   1.054  10.967   3.886  0.3356  0.0358 -0.7215
  220MOL0     H29030   1.432  10.906   3.671 -0.1896 -2.1074 -1.2212
  220MOL0     H29031   1.428  10.782   3.798 -1.9804 -0.6102  2.2256
  220MOL0     H29032   1.352  10.965   3.968 -1.5289 -0.6035 -1.6892
  220MOL0     H29033   1.514  10.976   3.906 -0.2724 -3.6267  1.1771
  220MOL0     H29034   1.370  11.189   3.929 -2.5642  1.7062 -0.7093
  220MOL0     H29035   1.254  11.131   3.813 -0.1111 -0.7031 -3.6264
  220MOL0     H29036   1.413  11.173   3.635  0.7005 -0.9364  0.8977
  220MOL0     H29037   1.414  11.321   3.737  0.1839 -0.0431  0.0381
  220MOL0     H29038   1.802  11.136   3.808  0.9750  1.4474 -0.2406
  220MOL0     H29039   1.262  10.596   3.765 -1.0545 -2.6445  1.1704
  220MOL0     H29040   1.130  10.473   3.932  0.6052 -0.4784 -2.9349
  221MOL0     O29041   1.689   7.838   3.445 -0.8367  0.0667  0.5579
  221MOL0     C29042   1.638   7.769   3.532 -0.0452  0.0217  1.5981
  221MOL0     O29043   1.670   7.770   3.662 -0.4254  0.2997 -0.2724
  221MOL0     C29044   1.780   7.841   3.717 -0.2773  0.0861  0.1526
  221MOL0     C29045   1.766   7.899   3.840 -0.0121  0.1293 -0.0917
  221MOL0     C29046   1.877   7.953   3.903 -0.1826 -0.0445 -0.7270
  221MOL0     C29047   2.000   7.964   3.837 -0.2585  0.1439 -0.8121
  221MOL0     O29048   2.115   8.012   3.886 -0.0464 -0.4963  0.6136
  221MOL0     C29049   2.100   8.112   3.991 -0.1002 -0.5288  0.0033
  221MOL0     C29050   2.234   8.153   4.047 -0.0267  0.0744  0.1893
  221MOL0     C29051   2.288   8.043   4.138 -1.0090 -1.0043  0.3573
  221MOL0     C29052   2.425   8.074   4.174 -0.7124 -0.7628  0.8006
  221MOL0     C29053   2.486   7.989   4.288 -0.1253 -0.4345 -0.3794
  221MOL0     C29054   2.629   8.042   4.299 -0.1052  0.4598 -0.3191
  221MOL0     C29055   2.711   7.976   4.406  0.0178  0.3757 -0.2804
  221MOL0     C29056   2.694   7.821   4.418 -0.1464  0.0809  0.2026
  221MOL0     N29057   2.806   7.755   4.485 -0.0400  0.3966 -0.1834
  221MOL0     C29058   2.791   7.671   4.587  0.4586  0.2948  0.0404
  221MOL0     C29059   2.909   7.607   4.597 -0.3537  0.1908 -0.2068
  221MOL0     C29060   2.936   7.483   4.676  0.4794 -0.3646  0.1997
  221MOL0     C29061   2.877   7.495   4.818 -0.0550 -0.1921  0.2532
  221MOL0     C29062   2.954   7.391   4.910  0.5429 -0.2929  0.0635
  221MOL0     C29063   2.889   7.377   5.055  0.2230  0.5800 -0.1008
  221MOL0     O29064   2.930   7.481   5.146  0.1986 -0.0709  0.1645
  221MOL0     C29065   3.062   7.496   5.178  0.0979  0.3846  0.4042
  221MOL0     C29066   3.168   7.399   5.151 -0.1512  0.0225 -0.5309
  221MOL0     C29067   3.296   7.443   5.174 -0.9460  0.4654  0.4650
  221MOL0     C29068   3.335   7.566   5.221  0.5768  0.5240 -0.0027
  221MOL0     C29069   3.474   7.611   5.235 -0.5129  0.1305  0.1958
  221MOL0     O29070   3.572   7.525   5.208 -0.3920  0.8799  0.3397
  221MOL0     C29071   3.701   7.575   5.216  0.4920  0.6433  0.1730
  221MOL0     C29072   3.751   7.667   5.118  0.8780 -0.5232 -0.4198
  221MOL0     C29073   3.876   7.728   5.150  0.6243 -0.3229  0.6776
  221MOL0     C29074   3.944   7.700   5.268  0.2605 -0.2639 -0.6710
  221MOL0     O29075   4.056   7.769   5.321  0.2424  0.1252 -0.0136
  221MOL0     C29076   4.161   7.806   5.225 -0.0633  0.3469  0.0096
  221MOL0     C29077   4.293   7.825   5.293 -0.4478 -0.2941 -0.4734
  221MOL0     C29078   4.387   7.911   5.202 -0.8544 -0.1618  0.1420
  221MOL0     C29079   4.530   7.878   5.255 -0.0735 -1.6668  0.4918
  221MOL0     C29080   4.639   7.973   5.207 -0.6988  1.0249 -1.3634
  221MOL0     C29081   4.625   8.128   5.243  0.0938  0.1173  0.0806
  221MOL0     C29082   4.705   8.221   5.161 -0.6855 -0.8652  0.2859
  221MOL0     C29083   4.862   8.219   5.174 -0.1827 -0.2988 -0.0699
  221MOL0    Cl29084   4.941   8.317   5.053 -0.1707 -0.1773  0.4634
  221MOL0     C29085   3.897   7.597   5.356  0.9015 -0.2363  0.2019
  221MOL0     C29086   3.775   7.535   5.325  0.5515 -0.1558  0.1925
  221MOL0     O29087   3.495   7.726   5.272 -0.3791  0.0446 -0.8928
  221MOL0     C29088   3.228   7.648   5.255  0.3539  0.0347  0.3747
  221MOL0     C29089   3.093   7.618   5.229 -0.7675 -0.4469 -0.6399
  221MOL0     N29090   2.994   7.674   4.516 -0.5427 -0.1560  0.0771
  221MOL0     N29091   2.927   7.756   4.444  0.3332 -0.7084  0.3157
  221MOL0     C29092   2.014   7.915   3.715 -0.3626  0.4659  0.5500
  221MOL0     C29093   1.904   7.849   3.655 -0.3444  0.7690  0.2626
  221MOL0     C29094   1.535   7.665   3.490  0.0265  0.5536 -0.2201
  221MOL0     C29095   1.423   7.683   3.402  0.0001 -0.7620 -0.1907
  221MOL0     C29096   1.326   7.584   3.383 -0.0058 -0.0782  0.1355
  221MOL0     C29097   1.327   7.466   3.451  0.2397 -0.6321  0.8477
  221MOL0     O29098   1.217   7.381   3.436  0.2277 -0.6495  0.0230
  221MOL0     C29099   1.147   7.349   3.557 -1.4186  0.0949 -0.4702
  221MOL0     C29100   1.038   7.444   3.574  0.3128  0.6037  0.8571
  221MOL0     C29101   0.930   7.415   3.464 -1.2008 -0.7133 -0.9796
  221MOL0     C29102   0.789   7.490   3.489 -0.9763  0.0574  0.1712
  221MOL0     C29103   0.801   7.636   3.462  0.3415 -0.1509  0.2609
  221MOL0     C29104   0.812   7.754   3.431  0.0492  0.0035 -0.9326
  221MOL0     C29105   1.430   7.438   3.533 -0.1409  0.1162  0.6090
  221MOL0     C29106   1.534   7.539   3.553  0.5397 -0.3181 -0.4372
  221MOL0     H29107   1.669   7.876   3.882  0.9467 -1.9047  1.1711
  221MOL0     H29108   1.858   8.000   3.999 -0.7777 -1.3332 -0.1883
  221MOL0     H29109   2.037   8.070   4.070 -2.5345  0.3398 -1.3551
  221MOL0     H29110   2.043   8.198   3.953 -2.6847 -0.6676  3.0594
  221MOL0     H29111   2.226   8.241   4.112 -0.2257  0.3930 -0.2569
  221MOL0     H29112   2.299   8.178   3.962  0.7390 -0.0793  0.7162
  221MOL0     H29113   2.287   7.954   4.074 -0.0827  0.7639 -2.2907
  221MOL0     H29114   2.230   8.010   4.224  0.1924 -1.1521  1.1295
  221MOL0     H29115   2.498   8.066   4.092  1.8292 -1.4568  2.9997
  221MOL0     H29116   2.423   8.179   4.206 -1.9757 -1.4985  3.3165
  221MOL0     H29117   2.486   7.884   4.256  0.8537 -0.5072 -0.1915
  221MOL0     H29118   2.444   8.006   4.387 -0.0485 -0.1006 -0.4033
  221MOL0     H29119   2.624   8.151   4.309 -1.8894  0.4815 -1.0923
  221MOL0     H29120   2.686   8.027   4.207 -0.2496 -1.1944 -0.1544
  221MOL0     H29121   2.811   7.992   4.363  0.4234 -2.7331 -0.7920
  221MOL0     H29122   2.705   8.006   4.511  1.8878  1.1401 -0.3541
  221MOL0     H29123   2.685   7.787   4.315 -0.6696  1.4109 -0.2164
  221MOL0     H29124   2.600   7.802   4.471  0.7160 -0.9302  1.4265
  221MOL0     H29125   2.706   7.636   4.644  0.2623 -0.3168 -0.6159
  221MOL0     H29126   3.042   7.455   4.674  0.5289 -0.1660 -0.0519
  221MOL0     H29127   2.884   7.398   4.631 -1.1202 -0.2600  1.7384
  221MOL0     H29128   2.768   7.487   4.812 -0.0055 -0.3314 -0.8550
  221MOL0     H29129   2.895   7.598   4.849  0.6176  0.7497 -2.8559
  221MOL0     H29130   2.954   7.291   4.866 -1.0590 -0.9194  1.3930
  221MOL0     H29131   3.060   7.413   4.922  0.9364 -2.1093  0.1716
  221MOL0     H29132   2.912   7.276   5.090 -2.5234 -0.2436 -0.3969
  221MOL0     H29133   2.780   7.382   5.047  0.1525  2.2851  1.2771
  221MOL0     H29134   3.147   7.299   5.114 -0.4030  0.4283 -1.5473
  221MOL0     H29135   3.380   7.381   5.144 -1.4570  0.5934 -1.3557
  221MOL0     H29136   3.693   7.701   5.033  1.7887  1.9961 -0.1088
  221MOL0     H29137   3.915   7.807   5.088  2.6932  1.1487  3.5959
  221MOL0     H29138   4.130   7.899   5.177 -0.0669 -0.4517 -1.5827
  221MOL0     H29139   4.176   7.728   5.150  1.2007  1.7111 -1.2267
  221MOL0     H29140   4.345   7.731   5.312 -3.1839 -1.3810  2.6148
  221MOL0     H29141   4.281   7.869   5.393 -1.8196  0.7427 -1.0587
  221MOL0     H29142   4.364   8.017   5.216  1.5034  0.8241 -2.4602
  221MOL0     H29143   4.384   7.892   5.095  0.2220  0.8322 -0.0899
  221MOL0     H29144   4.535   7.887   5.364 -0.9950 -0.0401  0.4302
  221MOL0     H29145   4.550   7.775   5.224 -1.1857 -1.3221 -1.5793
  221MOL0     H29146   4.648   7.953   5.100 -2.6789  1.1392 -1.5932
  221MOL0     H29147   4.732   7.938   5.252 -0.4270  1.8414 -1.2859
  221MOL0     H29148   4.635   8.152   5.349  0.2382  1.4591 -0.2161
  221MOL0     H29149   4.523   8.163   5.223 -0.0104 -0.2253  0.0158
  221MOL0     H29150   4.691   8.191   5.057 -0.4904 -0.5888  0.1786
  221MOL0     H29151   4.673   8.326   5.167  0.6755 -0.3075 -1.4589
  221MOL0     H29152   4.906   8.120   5.161  4.1043  1.1402  1.5386
  221MOL0     H29153   4.884   8.256   5.275  2.2823 -1.0673 -0.2642
  221MOL0     H29154   3.943   7.563   5.447 -1.4850 -2.0750  0.8331
  221MOL0     H29155   3.737   7.468   5.402 -0.4855 -0.7827 -0.8280
  221MOL0     H29156   3.255   7.744   5.298  3.3811 -0.7933  0.5582
  221MOL0     H29157   3.019   7.692   5.257 -0.4430 -0.1501 -0.5551
  221MOL0     H29158   2.109   7.902   3.664 -0.5124 -1.7119  0.7522
  221MOL0     H29159   1.924   7.810   3.556  0.1477 -0.7412  0.9289
  221MOL0     H29160   1.400   7.777   3.352  1.9906 -1.3606 -2.3599
  221MOL0     H29161   1.241   7.613   3.321 -0.2976  1.3446  1.1387
  221MOL0     H29162   1.216   7.355   3.641 -2.3137  0.4907  0.2520
  221MOL0     H29163   1.115   7.244   3.554  1.3592 -0.8983  1.1670
  221MOL0     H29164   0.987   7.424   3.669 -1.1525  0.7309  0.1381
  221MOL0     H29165   1.067   7.549   3.565  2.3943 -0.0781 -5.0725
  221MOL0     H29166   0.913   7.307   3.466  0.8150 -1.1296  3.3461
  221MOL0     H29167   0.965   7.451   3.367 -0.9792  0.5403 -0.4437
  221MOL0     H29168   0.703   7.446   3.437 -0.1664 -0.3081 -0.8962
  221MOL0     H29169   0.768   7.476   3.596  0.3971 -2.5542  0.1875
  221MOL0     H29170   0.840   7.855   3.407  2.3533 -0.4366 -0.3524
  221MOL0     H29171   1.430   7.342   3.583 -2.8906  0.4527  1.4517
  221MOL0     H29172   1.616   7.521   3.622 -0.0807  1.7264  0.9203
  222MOL0     O29173   9.176   3.490   3.725 -0.4109  0.1629  0.0432
  222MOL0     C29174   9.187   3.477   3.850 -0.7170  0.1457  0.0353
  222MOL0     O29175   9.085   3.484   3.939 -0.2748  0.0029  0.6446
  222MOL0     C29176   8.953   3.526   3.908 -0.0010  0.2082  0.3076
  222MOL0     C29177   8.880   3.499   3.782  0.9044 -1.2525  0.3993
  222MOL0     C29178   8.756   3.552   3.764  0.2814 -0.5402  0.1623
  222MOL0     C29179   8.680   3.600   3.871 -0.3552  0.4935 -0.8833
  222MOL0     O29180   8.554   3.635   3.838 -0.3434  0.0673  0.0393
  222MOL0     C29181   8.452   3.635   3.944 -0.4986  0.4029  1.2054
  222MOL0     C29182   8.404   3.781   3.981 -0.1982 -0.0912  0.0302
  222MOL0     C29183   8.295   3.850   3.900  0.1378 -1.3243  0.4753
  222MOL0     C29184   8.224   3.967   3.969  0.2412  0.4001 -0.1426
  222MOL0     C29185   8.111   4.028   3.888 -0.6320 -0.7672 -0.3282
  222MOL0     C29186   7.977   3.935   3.898  0.9298  0.3235 -0.6910
  222MOL0     C29187   7.902   3.937   3.762  0.0401 -0.4269  0.1200
  222MOL0     C29188   7.866   4.084   3.714  0.0194  0.8466 -0.1702
  222MOL0     N29189   7.763   4.141   3.796  0.2083 -0.5390  0.1735
  222MOL0     C29190   7.633   4.096   3.813  0.2729  0.4436  0.8574
  222MOL0     C29191   7.566   4.191   3.878 -0.0711 -0.0330  0.2822
  222MOL0     C29192   7.426   4.195   3.926  0.3839 -0.4275  0.9026
  222MOL0     C29193   7.335   4.225   3.800  0.5261  0.1013 -0.2731
  222MOL0     C29194   7.196   4.263   3.840 -1.0750 -0.4273 -0.1811
  222MOL0     C29195   7.121   4.144   3.905  0.3675  0.0411 -0.4687
  222MOL0     O29196   6.992   4.182   3.948  0.3349  0.2064  0.0136
  222MOL0     C29197   6.892   4.200   3.863  0.1484  0.0789 -0.1138
  222MOL0     C29198   6.890   4.168   3.728  0.7593  0.0237  0.7045
  222MOL0     C29199   6.765   4.170   3.660 -1.4555  0.1856 -0.7177
  222MOL0     C29200   6.647   4.214   3.720 -0.3821 -0.3819 -0.3649
  222MOL0     C29201   6.513   4.211   3.655  0.5522 -0.1234 -0.0785
  222MOL0     O29202   6.408   4.248   3.737  0.4665  0.1652  0.2403
  222MOL0     C29203   6.275   4.219   3.704  0.0385 -0.4777 -0.2398
  222MOL0     C29204   6.231   4.244   3.576 -0.3957 -0.2546 -0.5539
  222MOL0     C29205   6.105   4.219   3.539  0.8271 -0.1582  0.4701
  222MOL0     C29206   6.015   4.169   3.637  0.5821 -0.4200  0.1488
  222MOL0     O29207   5.889   4.116   3.607 -0.3350  0.2247  0.7093
  222MOL0     C29208   5.830   4.113   3.475 -0.3287 -0.5362  0.0115
  222MOL0     C29209   5.695   4.052   3.493 -0.5335 -0.7375  0.3257
  222MOL0     C29210   5.701   3.901   3.467  0.1835 -0.1547 -0.2222
  222MOL0     C29211   5.598   3.851   3.375 -0.0757  0.1053 -0.4176
  222MOL0     C29212   5.607   3.690   3.385 -0.7158 -0.3276 -0.0333
  222MOL0     C29213   5.506   3.620   3.297  0.1771 -0.4400  0.5417
  222MOL0     C29214   5.361   3.629   3.354 -0.0401  0.5422  0.8679
  222MOL0     C29215   5.248   3.577   3.252 -0.1913  0.1001  0.7757
  222MOL0    Cl29216   5.098   3.575   3.340 -0.9185  0.0969 -0.5352
  222MOL0     C29217   6.049   4.152   3.764 -0.4287  0.7214  0.2315
  222MOL0     C29218   6.183   4.171   3.798  0.1128  0.1256 -0.0769
  222MOL0     O29219   6.510   4.166   3.541  0.4680 -0.2085 -0.1722
  222MOL0     C29220   6.651   4.240   3.860 -0.3960  0.9543  0.0183
  222MOL0     C29221   6.770   4.228   3.927  0.6187  0.6655 -0.4701
  222MOL0     N29222   7.657   4.298   3.912 -0.0956  0.3695  0.5646
  222MOL0     N29223   7.775   4.261   3.859  0.4378  0.9762  0.4478
  222MOL0     C29224   8.744   3.613   3.995  0.8763  0.0017 -0.3151
  222MOL0     C29225   8.875   3.574   4.012  0.1854  0.8391 -0.4022
  222MOL0     C29226   9.312   3.445   3.910  0.0381  0.5191 -0.3601
  222MOL0     C29227   9.332   3.453   4.053  0.0467 -0.3673  0.4259
  222MOL0     C29228   9.455   3.422   4.107 -0.0162  0.5540 -0.7378
  222MOL0     C29229   9.563   3.391   4.034 -0.6858 -0.2117 -0.3995
  222MOL0     O29230   9.686   3.362   4.093 -0.1732 -0.5895  0.0077
  222MOL0     C29231   9.813   3.384   4.029 -0.0133  0.0459  0.0102
  222MOL0     C29232   9.903   3.256   4.022  0.9393  0.2992 -0.0206
  222MOL0     C29233  10.049   3.288   3.984  0.1022  0.6976  0.9269
  222MOL0     C29234  10.133   3.186   3.922  0.4143  0.0638  0.9728
  222MOL0     C29235  10.267   3.237   3.892 -0.6228  0.3125  0.0831
  222MOL0     C29236  10.378   3.260   3.850 -0.1274 -0.3720  0.1244
  222MOL0     C29237   9.545   3.385   3.899 -0.4037 -0.7310  0.0300
  222MOL0     C29238   9.427   3.408   3.837 -0.8696 -0.0744  0.0157
  222MOL0     H29239   8.915   3.451   3.691  0.3266 -2.2788  0.7074
  222MOL0     H29240   8.718   3.519   3.668  2.0372  2.2693 -1.6310
  222MOL0     H29241   8.473   3.577   4.034  1.1130 -2.2091 -0.7096
  222MOL0     H29242   8.376   3.575   3.893  0.8712 -0.6047  0.2669
  222MOL0     H29243   8.494   3.843   3.993  0.7764 -1.5357  0.4914
  222MOL0     H29244   8.370   3.769   4.084 -0.5074  0.1552 -0.0420
  222MOL0     H29245   8.221   3.773   3.881 -2.0668  0.1153  2.6753
  222MOL0     H29246   8.344   3.890   3.811  0.6979 -1.0454  0.8990
  222MOL0     H29247   8.185   3.927   4.064 -4.5838 -4.9187 -3.6419
  222MOL0     H29248   8.296   4.048   3.980  1.3725 -0.8410  2.8387
  222MOL0     H29249   8.144   4.046   3.785  0.8356 -1.1383  0.0506
  222MOL0     H29250   8.090   4.126   3.931  1.5215 -0.2415 -0.3711
  222MOL0     H29251   7.905   3.962   3.977  1.5101  0.8748 -0.3378
  222MOL0     H29252   8.012   3.835   3.923  2.3117  0.7860 -0.6764
  222MOL0     H29253   7.965   3.898   3.681  0.6476  0.1253  0.3168
  222MOL0     H29254   7.808   3.883   3.770 -0.5677  0.4443 -0.7750
  222MOL0     H29255   7.828   4.073   3.612 -1.3633 -0.4073  0.4250
  222MOL0     H29256   7.955   4.147   3.709  1.1974 -0.7227  0.0603
  222MOL0     H29257   7.596   4.002   3.774  1.3042  0.4181 -0.1261
  222MOL0     H29258   7.411   4.288   3.981 -2.2694  1.1193 -2.1162
  222MOL0     H29259   7.406   4.101   3.979 -0.1119  0.2581  1.9518
  222MOL0     H29260   7.334   4.142   3.729 -0.6825  0.6239 -0.9000
  222MOL0     H29261   7.384   4.308   3.749  0.1715  0.9408  0.7242
  222MOL0     H29262   7.206   4.343   3.914 -0.5057 -0.5932 -0.0797
  222MOL0     H29263   7.152   4.320   3.758 -0.8040  0.4422  0.2622
  222MOL0     H29264   7.176   4.104   3.990  1.0596  0.7266 -0.5856
  222MOL0     H29265   7.118   4.060   3.834  0.5833  1.7945 -2.6608
  222MOL0     H29266   6.974   4.127   3.673 -1.1144 -1.6249 -1.1261
  222MOL0     H29267   6.767   4.148   3.553 -0.3378  3.0495 -1.3805
  222MOL0     H29268   6.288   4.293   3.496 -1.0727  0.4252 -0.6293
  222MOL0     H29269   6.079   4.238   3.435  0.0836  3.7346  1.1972
  222MOL0     H29270   5.899   4.069   3.402  2.9058  0.7759  2.0319
  222MOL0     H29271   5.808   4.215   3.442 -1.2374 -1.1945 -1.4832
  222MOL0     H29272   5.638   4.100   3.412 -0.8004  1.3337  1.6692
  222MOL0     H29273   5.640   4.081   3.582 -4.0354  1.6548 -2.3233
  222MOL0     H29274   5.698   3.851   3.565 -1.5604 -0.7763 -0.5675
  222MOL0     H29275   5.798   3.875   3.423  0.9630  1.0081  0.7365
  222MOL0     H29276   5.497   3.888   3.394  0.6556  1.7515  0.4380
  222MOL0     H29277   5.612   3.881   3.271 -0.5139  3.3520  0.3651
  222MOL0     H29278   5.607   3.658   3.489  1.5036 -2.0080 -0.4796
  222MOL0     H29279   5.704   3.655   3.348 -1.2836  0.1049 -2.0909
  222MOL0     H29280   5.512   3.511   3.293  0.0788 -0.5055 -3.9443
  222MOL0     H29281   5.527   3.669   3.201  2.3984  2.4881  2.3756
  222MOL0     H29282   5.349   3.563   3.440 -0.7568 -1.2082 -0.5203
  222MOL0     H29283   5.340   3.732   3.384  2.0795  1.0967  0.5746
  222MOL0     H29284   5.278   3.476   3.222  1.5957  0.6052  0.7406
  222MOL0     H29285   5.242   3.640   3.162 -1.3078 -2.4555 -1.0654
  222MOL0     H29286   5.996   4.092   3.837  0.0632  0.8413  0.6986
  222MOL0     H29287   6.227   4.160   3.897 -0.8055 -0.9424  0.2339
  222MOL0     H29288   6.560   4.267   3.914 -1.3990  2.9481 -2.4909
  222MOL0     H29289   6.774   4.250   4.033  2.3301  1.6581 -0.6949
  222MOL0     H29290   8.698   3.644   4.088 -1.1703 -2.7292 -0.2869
  222MOL0     H29291   8.930   3.595   4.103 -1.0238 -1.7988  1.0675
  222MOL0     H29292   9.249   3.480   4.118  1.5787 -0.1946  2.3792
  222MOL0     H29293   9.462   3.418   4.215 -2.9290  0.0418 -0.4779
  222MOL0     H29294   9.870   3.461   4.083  2.7944 -1.8249 -0.0550
  222MOL0     H29295   9.798   3.427   3.929 -1.3470 -0.7626 -0.1551
  222MOL0     H29296   9.904   3.215   4.124  3.3908  2.3730  0.9086
  222MOL0     H29297   9.860   3.181   3.955 -3.6196  1.7201  0.9709
  222MOL0     H29298  10.094   3.327   4.075  0.8188  2.8030 -0.2436
  222MOL0     H29299  10.033   3.375   3.919  1.0842  0.4533  0.3368
  222MOL0     H29300  10.159   3.101   3.986  4.0048  1.2553  1.3024
  222MOL0     H29301  10.092   3.157   3.824 -3.3649  3.2147  1.3610
  222MOL0     H29302  10.482   3.274   3.828  0.0374 -2.0789 -0.3215
  222MOL0     H29303   9.625   3.352   3.834 -0.6535 -3.5147  0.9965
  222MOL0     H29304   9.412   3.392   3.730  1.6880 -1.5749 -0.2066
  223MOL0     O29305   2.741   6.242   7.052  0.8321 -0.2522  0.1127
  223MOL0     C29306   2.830   6.329   7.068  0.1890  1.2179 -0.2368
  223MOL0     O29307   2.835   6.444   6.996 -0.1713  0.4687  0.3067
  223MOL0     C29308   2.736   6.488   6.908 -1.2647 -0.7082  0.0558
  223MOL0     C29309   2.600   6.494   6.953 -0.1204 -0.5391 -0.6338
  223MOL0     C29310   2.517   6.551   6.859 -0.3062 -0.6508 -0.4207
  223MOL0     C29311   2.558   6.597   6.735  0.2035  0.8564  0.2329
  223MOL0     O29312   2.465   6.641   6.642  0.0478  0.0835  0.0412
  223MOL0     C29313   2.363   6.543   6.603  1.0678 -0.5107  0.3887
  223MOL0     C29314   2.230   6.611   6.633  0.8299  0.4611  0.4638
  223MOL0     C29315   2.121   6.531   6.545  0.5289  0.5012 -0.6064
  223MOL0     C29316   1.987   6.587   6.580 -0.2737 -0.3131  0.9778
  223MOL0     C29317   1.872   6.531   6.497 -0.3135  0.4936 -1.0190
  223MOL0     C29318   1.838   6.601   6.370 -0.6476  0.5252 -0.2508
  223MOL0     C29319   1.728   6.522   6.299 -0.4008  0.4900 -0.4295
  223MOL0     C29320   1.585   6.532   6.361  0.6936 -0.2470  0.0144
  223MOL0     N29321   1.538   6.661   6.379 -0.0273 -0.5301  0.2069
  223MOL0     C29322   1.480   6.748   6.291  0.5515 -0.7099 -0.0907
  223MOL0     C29323   1.465   6.862   6.354 -0.1902 -0.2932 -1.3458
  223MOL0     C29324   1.391   6.985   6.314  0.4390 -0.1698  0.0400
  223MOL0     C29325   1.473   7.125   6.305  0.1611  0.2848 -0.4988
  223MOL0     C29326   1.404   7.231   6.228  0.2852 -0.8674 -0.3932
  223MOL0     C29327   1.414   7.378   6.283 -0.2748  0.5971 -0.0585
  223MOL0     O29328   1.304   7.465   6.255 -0.5499 -0.2702 -0.1931
  223MOL0     C29329   1.189   7.468   6.329  0.4139  0.8148 -0.1742
  223MOL0     C29330   1.159   7.379   6.431 -0.0289 -0.4472 -0.4605
  223MOL0     C29331   1.045   7.388   6.505  0.2739 -0.0693 -0.4958
  223MOL0     C29332   0.945   7.477   6.472  1.0916 -0.4331 -0.8474
  223MOL0     C29333   0.807   7.487   6.541 -1.2440  0.0251  0.1594
  223MOL0     O29334   0.721   7.581   6.502  0.2754 -0.0470 -0.0308
  223MOL0     C29335   0.619   7.617   6.578  0.1291 -0.5190 -0.4434
  223MOL0     C29336   0.492   7.640   6.515 -0.1805  0.1633 -0.5423
  223MOL0     C29337   0.382   7.691   6.587 -1.1463  0.0701  0.0189
  223MOL0     C29338   0.400   7.714   6.729 -1.0473  0.8339  0.0792
  223MOL0     O29339   0.312   7.765   6.820  0.2309 -0.0702  0.8650
  223MOL0     C29340   0.172   7.748   6.777 -1.0276  0.1034 -0.0498
  223MOL0     C29341   0.148   7.603   6.801 -0.9029  0.3431 -0.0316
  223MOL0     C29342  -0.003   7.571   6.772  0.0619  0.6174  0.7225
  223MOL0     C29343  -0.041   7.428   6.816 -1.2237  0.0574  0.5648
  223MOL0     C29344  -0.190   7.385   6.821 -0.2461 -0.8896  0.4609
  223MOL0     C29345  -0.196   7.232   6.836 -1.1530 -0.1134  0.2166
  223MOL0     C29346  -0.342   7.181   6.816  0.4055 -0.0286  0.8728
  223MOL0     C29347  -0.440   7.206   6.937 -0.1097 -0.1834  0.8528
  223MOL0    Cl29348  -0.608   7.176   6.887  0.5467  0.1177  0.2585
  223MOL0     C29349   0.525   7.685   6.787 -0.2123  0.6761 -0.3566
  223MOL0     C29350   0.635   7.650   6.714 -0.1884  0.3176  0.4711
  223MOL0     O29351   0.786   7.408   6.629 -0.1526 -0.0868  0.0522
  223MOL0     C29352   0.967   7.554   6.357  0.4448  1.2221  0.3304
  223MOL0     C29353   1.087   7.549   6.292 -0.1133 -0.1329 -0.4238
  223MOL0     N29354   1.497   6.844   6.487 -0.4605 -0.3267 -0.6184
  223MOL0     N29355   1.546   6.723   6.501 -0.4570 -0.1176  0.2455
  223MOL0     C29356   2.694   6.585   6.702 -0.1003 -0.9454  0.2195
  223MOL0     C29357   2.787   6.530   6.787  0.4798  0.7192  0.3054
  223MOL0     C29358   2.914   6.320   7.182 -0.1123 -0.1342 -0.8360
  223MOL0     C29359   2.994   6.429   7.216  0.5530 -0.0872 -0.2412
  223MOL0     C29360   3.063   6.425   7.331  0.1132 -0.0130 -0.5870
  223MOL0     C29361   3.063   6.323   7.419 -0.0987 -0.5214 -0.3131
  223MOL0     O29362   3.150   6.345   7.522 -0.1311  0.2124 -0.0560
  223MOL0     C29363   3.156   6.244   7.629 -0.2959  0.9219  0.7773
  223MOL0     C29364   3.285   6.154   7.619 -0.4192 -0.5723 -0.5710
  223MOL0     C29365   3.415   6.234   7.667  0.2309  0.2820 -0.6604
  223MOL0     C29366   3.454   6.348   7.576  0.2590 -0.9158 -0.4094
  223MOL0     C29367   3.580   6.415   7.622  0.5159  0.1745  0.1921
  223MOL0     C29368   3.675   6.485   7.643 -0.1312  0.7735 -0.2221
  223MOL0     C29369   2.976   6.220   7.395  0.9448  0.4404  0.3309
  223MOL0     C29370   2.902   6.215   7.277  0.1056  0.4355  0.2745
  223MOL0     H29371   2.567   6.474   7.054  2.4005  0.2711  0.4092
  223MOL0     H29372   2.417   6.556   6.900  0.8999 -1.3115  2.9293
  223MOL0     H29373   2.385   6.450   6.657  1.0034 -0.6274  0.2144
  223MOL0     H29374   2.386   6.520   6.499 -1.3697 -1.5986  0.0152
  223MOL0     H29375   2.248   6.713   6.600  0.6276  1.1821  2.4696
  223MOL0     H29376   2.195   6.607   6.737 -1.8158 -2.1301 -0.3673
  223MOL0     H29377   2.111   6.423   6.561 -3.0626  0.3396 -2.8883
  223MOL0     H29378   2.137   6.530   6.437 -1.1944 -1.8490 -0.9346
  223MOL0     H29379   1.978   6.570   6.687  0.6501 -0.9450  0.9719
  223MOL0     H29380   1.991   6.696   6.569 -0.1930 -0.5826 -4.3261
  223MOL0     H29381   1.777   6.535   6.552 -2.3533 -0.0964 -4.2685
  223MOL0     H29382   1.898   6.426   6.482  0.1519  0.3062  0.8452
  223MOL0     H29383   1.928   6.620   6.311  1.0268 -1.0787  1.6504
  223MOL0     H29384   1.810   6.704   6.396 -0.2706  0.6483 -0.3220
  223MOL0     H29385   1.716   6.540   6.192  2.8525 -0.7235 -1.1097
  223MOL0     H29386   1.752   6.415   6.307 -1.0971  0.4408  1.9467
  223MOL0     H29387   1.583   6.489   6.461 -1.3216 -2.9685 -1.0905
  223MOL0     H29388   1.506   6.486   6.300 -0.2515  3.2681 -1.7213
  223MOL0     H29389   1.468   6.731   6.184  2.2807  0.9777 -0.6292
  223MOL0     H29390   1.302   7.011   6.372 -0.0092  1.0934 -1.1419
  223MOL0     H29391   1.352   6.967   6.213 -1.2205 -2.2555  0.9968
  223MOL0     H29392   1.578   7.127   6.275 -0.0512  0.7515 -1.2677
  223MOL0     H29393   1.483   7.161   6.407  2.1522 -1.0487 -0.1600
  223MOL0     H29394   1.454   7.247   6.132  0.1298 -0.4562 -0.4092
  223MOL0     H29395   1.300   7.200   6.216 -0.5346  2.1784 -2.1883
  223MOL0     H29396   1.502   7.423   6.236 -0.1036  1.2803  0.8798
  223MOL0     H29397   1.442   7.374   6.389  0.2821  0.8086 -0.1956
  223MOL0     H29398   1.223   7.302   6.473 -1.4610 -1.1042  0.6075
  223MOL0     H29399   1.024   7.326   6.591  1.2938  0.6999  0.3333
  223MOL0     H29400   0.466   7.621   6.411 -1.7892 -2.0678  0.1886
  223MOL0     H29401   0.291   7.719   6.534 -0.4513 -1.2020 -1.9546
  223MOL0     H29402   0.145   7.773   6.674 -0.3979 -1.9635 -0.7473
  223MOL0     H29403   0.122   7.814   6.850 -2.8342  0.2250 -1.3282
  223MOL0     H29404   0.177   7.579   6.904 -1.3662  1.3500  0.3463
  223MOL0     H29405   0.199   7.538   6.730 -3.1215 -0.8587 -0.6448
  223MOL0     H29406  -0.015   7.569   6.664  3.6785  2.3886  0.1198
  223MOL0     H29407  -0.069   7.647   6.815 -0.6716  0.8445 -0.7755
  223MOL0     H29408   0.005   7.355   6.749  1.5149 -2.4753  4.8087
  223MOL0     H29409   0.008   7.427   6.913 -1.3649  0.3231  0.6421
  223MOL0     H29410  -0.241   7.410   6.728 -0.9481  1.6914  1.4514
  223MOL0     H29411  -0.238   7.437   6.905 -1.2253 -2.0632  0.6661
  223MOL0     H29412  -0.164   7.218   6.939  2.8477  3.0038 -0.3394
  223MOL0     H29413  -0.128   7.180   6.767 -0.9412  2.1588 -1.4027
  223MOL0     H29414  -0.387   7.221   6.725 -0.6741  0.3161  1.5392
  223MOL0     H29415  -0.337   7.073   6.798 -0.0065  0.4178 -2.6084
  223MOL0     H29416  -0.435   7.306   6.982  0.9710 -0.7451  2.0536
  223MOL0     H29417  -0.414   7.137   7.019 -1.2682  1.0111  2.2818
  223MOL0     H29418   0.544   7.706   6.892  1.5182 -1.3032 -0.2058
  223MOL0     H29419   0.729   7.634   6.767  0.3069  2.2548  0.2587
  223MOL0     H29420   0.889   7.623   6.326 -0.1351  0.8554  0.9491
  223MOL0     H29421   1.093   7.594   6.193 -0.2186 -2.9524 -1.8150
  223MOL0     H29422   2.708   6.624   6.601 -1.2930 -0.5585  0.1886
  223MOL0     H29423   2.890   6.505   6.769  0.0624  0.2350 -1.5612
  223MOL0     H29424   3.001   6.519   7.156  1.1541 -0.2666 -0.4435
  223MOL0     H29425   3.125   6.511   7.356 -1.6360  0.3763  3.1048
  223MOL0     H29426   3.065   6.185   7.643  1.0228 -0.5742  3.8253
  223MOL0     H29427   3.163   6.293   7.726  4.1876  3.4839 -0.5709
  223MOL0     H29428   3.266   6.070   7.686 -2.5198  0.2442 -0.0781
  223MOL0     H29429   3.300   6.110   7.520 -1.1857  0.0225 -0.9601
  223MOL0     H29430   3.496   6.162   7.676  1.1339  1.4309  0.9547
  223MOL0     H29431   3.408   6.275   7.768 -0.9233  0.9463 -0.9889
  223MOL0     H29432   3.475   6.303   7.478  2.1834 -1.8660  0.3977
  223MOL0     H29433   3.385   6.433   7.583  3.3827  1.6637  1.9974
  223MOL0     H29434   3.766   6.540   7.642 -1.4509  3.0797 -0.8382
  223MOL0     H29435   2.947   6.136   7.457 -2.6030  1.2926  0.0234
  223MOL0     H29436   2.840   6.127   7.269 -1.1414  1.4023 -1.1696
  224MOL0     O29437   4.223   4.792   1.043  0.6554  0.1418 -0.0190
  224MOL0     C29438   4.242   4.903   0.992  0.6687  0.5975 -0.8145
  224MOL0     O29439   4.153   4.970   0.911 -0.5157 -0.6563 -1.3565
  224MOL0     C29440   4.026   4.923   0.888 -0.6086  0.3659 -0.5831
  224MOL0     C29441   3.913   4.986   0.947 -0.0890 -0.8841  0.7087
  224MOL0     C29442   3.781   4.933   0.936  0.4875  0.2719  0.6735
  224MOL0     C29443   3.762   4.825   0.852  0.1323 -0.6194  0.6643
  224MOL0     O29444   3.635   4.775   0.828 -0.1885  0.1634  0.4780
  224MOL0     C29445   3.586   4.753   0.693  0.1052  0.6430 -0.1146
  224MOL0     C29446   3.433   4.750   0.705  0.2930 -0.1009 -1.0098
  224MOL0     C29447   3.373   4.898   0.740  0.3707 -0.1470  0.9154
  224MOL0     C29448   3.225   4.900   0.753 -0.0637  0.0067  0.2883
  224MOL0     C29449   3.168   5.036   0.819  0.1353  0.5913  0.9764
  224MOL0     C29450   3.012   5.044   0.783  0.4165  0.8142 -0.3783
  224MOL0     C29451   2.936   4.947   0.879  0.0836 -0.2293  0.1529
  224MOL0     C29452   2.794   4.915   0.828  0.0846  0.1562  0.4651
  224MOL0     N29453   2.710   4.842   0.919 -0.2674  0.4736 -0.5375
  224MOL0     C29454   2.582   4.885   0.953  0.3173  0.3916  0.0728
  224MOL0     C29455   2.504   4.775   0.971  0.0587  0.1506 -0.4144
  224MOL0     C29456   2.364   4.768   1.019 -0.6534  0.2211 -1.2574
  224MOL0     C29457   2.264   4.832   0.930  0.1179  0.1825  0.5320
  224MOL0     C29458   2.132   4.840   1.008 -0.6462  0.3215  0.7740
  224MOL0     C29459   2.012   4.859   0.917  0.4645 -0.3819  0.6323
  224MOL0     O29460   1.902   4.900   1.001 -0.4983  0.1777 -0.1931
  224MOL0     C29461   1.791   4.965   0.950  0.0260  0.8173 -0.8001
  224MOL0     C29462   1.687   4.975   1.042 -0.4879 -0.1297 -0.2032
  224MOL0     C29463   1.572   5.040   1.003 -0.3010 -0.5894 -0.4126
  224MOL0     C29464   1.555   5.098   0.873 -0.3718  0.2808 -0.2353
  224MOL0     C29465   1.429   5.174   0.836 -1.3365  0.4342 -0.5533
  224MOL0     O29466   1.342   5.192   0.936  0.2184 -0.0779 -0.1882
  224MOL0     C29467   1.261   5.301   0.909 -0.1543  0.3794 -0.6824
  224MOL0     C29468   1.150   5.276   0.822  0.0278 -0.6537  0.1421
  224MOL0     C29469   1.057   5.374   0.799  1.7903  0.8058 -0.2185
  224MOL0     C29470   1.068   5.503   0.853 -0.3674  0.8991 -0.5656
  224MOL0     O29471   0.970   5.598   0.842 -0.5906  0.1313  0.5363
  224MOL0     C29472   0.910   5.646   0.951 -0.0309  0.0925 -0.7493
  224MOL0     C29473   0.796   5.737   0.896 -0.0290 -0.3812  0.8282
  224MOL0     C29474   0.692   5.770   0.996 -0.3549 -0.2405  0.6332
  224MOL0     C29475   0.570   5.847   0.960 -0.5794 -0.1449  0.2210
  224MOL0     C29476   0.480   5.853   1.075 -0.0988  0.7862 -0.5117
  224MOL0     C29477   0.354   5.937   1.048  0.1925 -0.5318 -0.4438
  224MOL0     C29478   0.272   5.879   0.922 -1.1417 -0.2103 -0.7178
  224MOL0     C29479   0.160   5.974   0.887  0.5943 -0.2479  0.3807
  224MOL0    Cl29480   0.244   6.094   0.778  0.7355 -0.1725  0.2359
  224MOL0     C29481   1.174   5.524   0.939 -0.1697  0.0166  0.8868
  224MOL0     C29482   1.275   5.429   0.963  0.6133 -0.9227  0.4615
  224MOL0     O29483   1.428   5.221   0.725  0.3462  0.1503 -0.0431
  224MOL0     C29484   1.656   5.086   0.788 -1.2467 -0.1864  0.7702
  224MOL0     C29485   1.773   5.014   0.821  0.1619 -0.8665 -0.1057
  224MOL0     N29486   2.595   4.671   0.964 -0.5549  0.4592 -0.6675
  224MOL0     N29487   2.719   4.707   0.942  0.3414 -0.7580 -0.2043
  224MOL0     C29488   3.873   4.773   0.785 -0.3431  0.4889 -0.9072
  224MOL0     C29489   4.002   4.819   0.803  0.2463  0.3617 -0.0443
  224MOL0     C29490   4.363   4.967   1.026  0.1487  0.0596  0.1077
  224MOL0     C29491   4.397   5.082   0.964  0.1305  0.3155  0.1452
  224MOL0     C29492   4.523   5.144   0.980  0.7199  0.2748 -0.1309
  224MOL0     C29493   4.611   5.099   1.084 -0.1433 -0.5731 -0.2320
  224MOL0     O29494   4.732   5.154   1.113 -0.5162 -0.1418  0.1998
  224MOL0     C29495   4.798   5.248   1.021  0.8873  0.4405 -0.1329
  224MOL0     C29496   4.949   5.230   1.027 -0.2107 -0.2626 -0.1398
  224MOL0     C29497   5.006   5.281   1.162 -0.1018  0.9684 -0.3660
  224MOL0     C29498   5.158   5.317   1.135  0.5723 -0.7872 -0.2540
  224MOL0     C29499   5.237   5.289   1.257  0.1752  0.2425 -0.5034
  224MOL0     C29500   5.295   5.267   1.360  0.6245  0.2554  0.2361
  224MOL0     C29501   4.560   4.993   1.164 -0.7554  0.0704  0.1331
  224MOL0     C29502   4.445   4.922   1.132  0.5505 -0.9100 -0.0800
  224MOL0     H29503   3.925   5.071   1.013  0.5737  0.5999 -1.2142
  224MOL0     H29504   3.700   4.980   0.991  1.9902  3.1133  0.6270
  224MOL0     H29505   3.618   4.659   0.645 -0.2248 -1.0174  2.6827
  224MOL0     H29506   3.618   4.838   0.633  2.5787 -0.1583 -0.0665
  224MOL0     H29507   3.407   4.679   0.785 -0.9932 -0.2888 -1.5800
  224MOL0     H29508   3.385   4.705   0.618 -0.2779 -2.0991  0.2603
  224MOL0     H29509   3.404   4.971   0.664  0.5445 -0.4295  0.7099
  224MOL0     H29510   3.408   4.930   0.838 -0.2251  1.3228  0.6709
  224MOL0     H29511   3.187   4.886   0.652  2.5183 -0.1112 -0.7487
  224MOL0     H29512   3.188   4.818   0.815 -2.6057  0.3786 -0.6542
  224MOL0     H29513   3.215   5.125   0.777 -2.3062  3.1300  3.2043
  224MOL0     H29514   3.195   5.035   0.925  2.2437  0.1441  0.4860
  224MOL0     H29515   2.991   5.031   0.677  1.6308  1.3643 -0.6932
  224MOL0     H29516   2.974   5.144   0.805 -0.6886  0.8342 -2.1917
  224MOL0     H29517   3.000   4.858   0.884  2.0197  0.9684 -1.5511
  224MOL0     H29518   2.928   4.983   0.982  0.6924 -2.2228  0.9476
  224MOL0     H29519   2.798   4.857   0.735 -0.1079  1.0325 -0.1029
  224MOL0     H29520   2.751   5.015   0.826  0.2000  0.2020  0.1947
  224MOL0     H29521   2.551   4.986   0.975 -2.8672 -0.3639 -0.3218
  224MOL0     H29522   2.354   4.815   1.117  1.4842 -1.6978 -0.0066
  224MOL0     H29523   2.346   4.660   1.025  0.7518 -0.0687 -1.8724
  224MOL0     H29524   2.247   4.784   0.834 -2.3460  0.0443  0.9774
  224MOL0     H29525   2.310   4.930   0.913  0.5500 -0.0335  0.4465
  224MOL0     H29526   2.129   4.744   1.059  0.2139 -0.1869 -0.0903
  224MOL0     H29527   2.136   4.917   1.085  1.4503  2.6528 -1.4716
  224MOL0     H29528   1.999   4.776   0.846  2.7434  0.9671 -1.4911
  224MOL0     H29529   2.030   4.948   0.856  0.1084 -0.8284 -0.1477
  224MOL0     H29530   1.696   4.922   1.137 -0.4093  0.5978  0.2065
  224MOL0     H29531   1.485   5.051   1.066 -0.9756 -1.3728 -1.1886
  224MOL0     H29532   1.139   5.177   0.778 -2.9661 -0.6310  0.6360
  224MOL0     H29533   0.968   5.352   0.740  1.0320 -0.5009  1.3158
  224MOL0     H29534   0.976   5.701   1.019 -0.7387  0.9520 -0.7495
  224MOL0     H29535   0.860   5.565   1.006  1.3515 -0.4019 -0.1657
  224MOL0     H29536   0.744   5.675   0.823 -0.5823  0.1835  0.7404
  224MOL0     H29537   0.838   5.830   0.853  5.6076 -3.4721 -1.5192
  224MOL0     H29538   0.743   5.808   1.085 -0.7344 -1.0926  1.2281
  224MOL0     H29539   0.656   5.669   1.020  0.2764 -0.3324  1.2283
  224MOL0     H29540   0.601   5.951   0.946  0.7856 -0.7022 -1.0779
  224MOL0     H29541   0.525   5.803   0.871 -1.3136 -0.6664  0.8294
  224MOL0     H29542   0.533   5.912   1.150 -0.0522  2.0033 -1.4676
  224MOL0     H29543   0.452   5.753   1.108 -2.4830  1.5918  0.1411
  224MOL0     H29544   0.391   6.038   1.028  1.6964 -1.1154 -0.7652
  224MOL0     H29545   0.288   5.944   1.135 -1.4561  0.0030 -1.6963
  224MOL0     H29546   0.333   5.877   0.832 -0.3264  1.6731 -0.2386
  224MOL0     H29547   0.226   5.783   0.948 -1.7568  1.2065  4.6210
  224MOL0     H29548   0.118   6.022   0.976  0.5930 -0.6763  0.6116
  224MOL0     H29549   0.083   5.917   0.834  1.2856 -1.5683  0.7439
  224MOL0     H29550   1.192   5.619   0.987  1.1182 -0.5839  1.6302
  224MOL0     H29551   1.367   5.442   1.020  0.4884 -0.6578  0.6053
  224MOL0     H29552   1.652   5.130   0.688  3.1592  1.3208  1.0451
  224MOL0     H29553   1.855   5.003   0.750  0.6204  1.0712  0.0653
  224MOL0     H29554   3.854   4.695   0.712 -0.6593  0.0402 -0.3610
  224MOL0     H29555   4.075   4.762   0.746 -1.7662  0.4094 -2.8776
  224MOL0     H29556   4.341   5.126   0.882  0.2351  0.1621 -0.0087
  224MOL0     H29557   4.538   5.240   0.931 -1.2645  0.9586  0.5023
  224MOL0     H29558   4.770   5.350   1.049  2.6106  0.2917  2.5192
  224MOL0     H29559   4.762   5.216   0.923  0.2077 -0.8578  0.5092
  224MOL0     H29560   4.969   5.125   1.007 -1.4820 -0.2753 -1.5887
  224MOL0     H29561   4.996   5.287   0.946  0.3843  0.0949  0.4471
  224MOL0     H29562   4.992   5.204   1.238  0.1222  2.0342  0.7936
  224MOL0     H29563   4.965   5.377   1.196  0.1350  0.6248  0.9275
  224MOL0     H29564   5.198   5.263   1.049 -1.9482 -2.7111 -0.3230
  224MOL0     H29565   5.175   5.425   1.127  0.4318 -0.7507 -0.0681
  224MOL0     H29566   5.353   5.248   1.448  0.8032  2.9812  0.7862
  224MOL0     H29567   4.615   4.955   1.249 -0.0244  0.6098 -0.0825
  224MOL0     H29568   4.410   4.845   1.200  1.0724  1.7289  3.4694
  225MOL0     O29569   3.353   9.064   1.863 -0.2509  0.4123  0.5312
  225MOL0     C29570   3.383   8.994   1.764  1.2227 -0.3383 -1.1460
  225MOL0     O29571   3.296   8.970   1.661 -0.8454 -0.3699  0.1350
  225MOL0     C29572   3.184   9.047   1.624  0.9264  0.3176 -0.0583
  225MOL0     C29573   3.062   8.986   1.605  1.0165 -0.1421 -0.3352
  225MOL0     C29574   2.941   9.062   1.569  0.4640  1.0620  0.2619
  225MOL0     C29575   2.959   9.200   1.553  0.5896 -0.7101 -0.4799
  225MOL0     O29576   2.862   9.292   1.517  0.0866  0.2252 -0.2054
  225MOL0     C29577   2.738   9.284   1.588 -0.7713 -0.4822  1.0779
  225MOL0     C29578   2.626   9.348   1.500 -0.0630 -0.9421  0.3137
  225MOL0     C29579   2.623   9.274   1.363 -0.0405 -0.0283  0.1117
  225MOL0     C29580   2.517   9.322   1.269  0.2898 -0.4800 -0.2155
  225MOL0     C29581   2.494   9.229   1.156 -0.7873  0.2189  0.2082
  225MOL0     C29582   2.379   9.280   1.064  0.1717 -0.2125  0.0389
  225MOL0     C29583   2.382   9.185   0.940  0.7721  0.3905 -0.0612
  225MOL0     C29584   2.297   9.229   0.811  0.3034  0.1023 -0.0449
  225MOL0     N29585   2.151   9.191   0.835 -0.0233  1.5546  0.1829
  225MOL0     C29586   2.069   9.135   0.733  0.6852  0.1666  0.1705
  225MOL0     C29587   1.942   9.181   0.775 -1.0423 -0.4561 -0.1160
  225MOL0     C29588   1.816   9.173   0.692 -0.2115  0.0175 -0.1309
  225MOL0     C29589   1.711   9.077   0.726  0.0978  0.3331  0.1080
  225MOL0     C29590   1.647   9.097   0.860  0.1653  0.3746 -0.3558
  225MOL0     C29591   1.491   9.102   0.858  0.2124 -0.0133  0.4745
  225MOL0     O29592   1.455   8.970   0.821 -0.6527 -0.8710  0.7577
  225MOL0     C29593   1.325   8.935   0.830  0.2000  0.2023 -0.1831
  225MOL0     C29594   1.210   9.015   0.847  0.0978  0.3215  0.3968
  225MOL0     C29595   1.082   8.965   0.845  0.7101  0.2569  0.6346
  225MOL0     C29596   1.061   8.827   0.824 -0.0849  0.2478 -0.8879
  225MOL0     C29597   0.925   8.773   0.835 -0.0662 -0.5049  0.6429
  225MOL0     O29598   0.824   8.856   0.813  0.3383  1.1095  0.6765
  225MOL0     C29599   0.694   8.814   0.832  0.5747 -0.3636  0.2551
  225MOL0     C29600   0.604   8.860   0.737  0.3645  0.3900  0.9883
  225MOL0     C29601   0.469   8.825   0.746  0.0602  0.1957  0.7764
  225MOL0     C29602   0.414   8.757   0.851 -0.4924  0.1918  0.2788
  225MOL0     O29603   0.278   8.759   0.866  1.2560 -0.0842 -0.7192
  225MOL0     C29604   0.213   8.664   0.778 -0.4059  0.5645 -0.4294
  225MOL0     C29605   0.061   8.674   0.790 -0.6326 -0.5908 -0.8084
  225MOL0     C29606   0.020   8.827   0.765  0.7509  0.2215 -0.5928
  225MOL0     C29607  -0.120   8.847   0.708  0.5600 -0.7838  0.4964
  225MOL0     C29608  -0.232   8.810   0.812 -0.4610  0.2830 -0.0430
  225MOL0     C29609  -0.372   8.832   0.750 -0.0997  0.0394  0.5043
  225MOL0     C29610  -0.490   8.836   0.850  0.2453 -0.1806 -0.1406
  225MOL0     C29611  -0.515   8.704   0.936  1.0342  0.3044  0.2695
  225MOL0    Cl29612  -0.476   8.561   0.839  0.0136  0.0269 -0.7943
  225MOL0     C29613   0.505   8.701   0.937  0.6834  0.3967 -0.1713
  225MOL0     C29614   0.644   8.727   0.928 -0.4504  0.2016  0.1506
  225MOL0     O29615   0.917   8.646   0.850 -0.8532 -0.2135 -0.3691
  225MOL0     C29616   1.174   8.749   0.793 -0.4334  0.7380  0.2522
  225MOL0     C29617   1.308   8.798   0.806 -0.5674  0.7857  0.1230
  225MOL0     N29618   1.957   9.243   0.907 -0.3279  0.1550  0.5829
  225MOL0     N29619   2.078   9.236   0.939 -0.4929  0.6739 -0.1647
  225MOL0     C29620   3.081   9.256   1.571  0.5223 -0.3999 -0.6270
  225MOL0     C29621   3.200   9.185   1.607 -0.4024  0.5018 -0.8949
  225MOL0     C29622   3.518   8.927   1.756 -0.1585 -0.1477 -0.1637
  225MOL0     C29623   3.545   8.855   1.640  0.0417  1.1793 -0.5407
  225MOL0     C29624   3.672   8.789   1.630 -0.0514 -0.1366  0.0950
  225MOL0     C29625   3.770   8.822   1.723  0.5649  0.5062 -0.1217
  225MOL0     O29626   3.903   8.782   1.705  0.1302 -0.3253 -0.8738
  225MOL0     C29627   3.951   8.768   1.569  0.5232 -0.2582 -0.4583
  225MOL0     C29628   4.102   8.727   1.560  1.2937 -0.5642  0.3225
  225MOL0     C29629   4.161   8.761   1.420 -0.6007 -0.7483 -0.4566
  225MOL0     C29630   4.315   8.731   1.399 -0.2056 -0.4231 -0.1978
  225MOL0     C29631   4.365   8.768   1.266 -0.2489  0.1192 -0.7167
  225MOL0     C29632   4.393   8.797   1.153 -0.2445  0.7711 -0.5323
  225MOL0     C29633   3.743   8.900   1.828  0.5504 -0.4476 -0.3351
  225MOL0     C29634   3.615   8.950   1.853  0.5176 -0.3824  0.0105
  225MOL0     H29635   3.042   8.886   1.644 -1.1168  0.2150 -0.3492
  225MOL0     H29636   2.844   9.013   1.563  0.8206  0.3207  0.4180
  225MOL0     H29637   2.748   9.356   1.670 -1.0036 -1.3632  1.9002
  225MOL0     H29638   2.717   9.182   1.622  0.4591 -1.8459 -1.8862
  225MOL0     H29639   2.654   9.452   1.479 -2.3113 -0.3047  0.1562
  225MOL0     H29640   2.537   9.354   1.563  1.4008  2.4808  2.3088
  225MOL0     H29641   2.606   9.174   1.405  1.2774  0.3144  1.5406
  225MOL0     H29642   2.722   9.282   1.318  0.7654  1.0446  1.9790
  225MOL0     H29643   2.424   9.342   1.323  0.1330  1.6765 -1.1741
  225MOL0     H29644   2.556   9.407   1.212 -0.4376  0.8935  1.2683
  225MOL0     H29645   2.462   9.134   1.199 -1.4389  0.2284 -0.2446
  225MOL0     H29646   2.586   9.208   1.101 -0.8080 -0.2510  0.3484
  225MOL0     H29647   2.404   9.377   1.020  1.0595 -0.9460 -1.1296
  225MOL0     H29648   2.285   9.288   1.119  0.0625  1.4314 -0.3319
  225MOL0     H29649   2.487   9.172   0.914  0.9038 -0.6004  0.9069
  225MOL0     H29650   2.348   9.089   0.981  1.4449 -0.5102 -1.5406
  225MOL0     H29651   2.327   9.185   0.715 -0.0081 -1.3078  0.4823
  225MOL0     H29652   2.301   9.338   0.808 -0.6971  0.3019  2.6857
  225MOL0     H29653   2.095   9.091   0.636  0.7320  0.8176 -0.1149
  225MOL0     H29654   1.835   9.133   0.592 -0.4980 -1.9887  0.5840
  225MOL0     H29655   1.775   9.270   0.663 -0.4892 -0.8246 -2.9183
  225MOL0     H29656   1.748   8.974   0.723 -2.1630 -0.5750  1.0993
  225MOL0     H29657   1.639   9.074   0.644  1.6568 -3.7757 -1.3562
  225MOL0     H29658   1.673   9.009   0.919 -2.1631  0.3542  0.7824
  225MOL0     H29659   1.691   9.189   0.899 -0.7492 -0.0075  1.7580
  225MOL0     H29660   1.454   9.175   0.785  4.3120  2.2932  0.4043
  225MOL0     H29661   1.449   9.130   0.956 -2.7453  0.4636 -0.8164
  225MOL0     H29662   1.227   9.121   0.863 -0.7843  0.3396  1.2789
  225MOL0     H29663   1.003   9.038   0.856 -0.2096 -0.5869 -0.1670
  225MOL0     H29664   0.636   8.917   0.651 -0.6142 -1.2218 -0.4862
  225MOL0     H29665   0.395   8.872   0.682 -0.0484  1.9081  2.0932
  225MOL0     H29666   0.237   8.561   0.805  1.0741  1.1479  0.6316
  225MOL0     H29667   0.238   8.674   0.672  3.1648 -0.1993  0.2013
  225MOL0     H29668   0.024   8.647   0.890 -5.3107 -1.5372 -2.5313
  225MOL0     H29669   0.006   8.607   0.724 -1.3195  0.9728 -1.8928
  225MOL0     H29670   0.098   8.866   0.698  4.0045  0.2538  2.9117
  225MOL0     H29671   0.027   8.884   0.858 -2.6639 -0.0627 -0.0293
  225MOL0     H29672  -0.126   8.952   0.680  2.7473 -0.4920  0.9784
  225MOL0     H29673  -0.132   8.789   0.616 -0.1491 -0.1059  0.1446
  225MOL0     H29674  -0.213   8.879   0.894 -1.2263 -1.1199  1.3874
  225MOL0     H29675  -0.218   8.708   0.849  0.2391  0.1224 -0.7141
  225MOL0     H29676  -0.397   8.767   0.665  0.6188  2.4731 -1.7229
  225MOL0     H29677  -0.367   8.927   0.695  2.4857  0.4504  1.3416
  225MOL0     H29678  -0.483   8.919   0.922 -0.1575 -0.1174 -0.1729
  225MOL0     H29679  -0.582   8.856   0.794 -1.6088 -0.3563  2.6168
  225MOL0     H29680  -0.622   8.699   0.953  1.1852  1.7114  1.8936
  225MOL0     H29681  -0.456   8.715   1.027 -1.8935 -1.0876  2.4705
  225MOL0     H29682   0.459   8.657   1.025 -1.7939  2.1430 -0.5038
  225MOL0     H29683   0.720   8.680   0.990  0.0140 -1.8875 -1.8724
  225MOL0     H29684   1.156   8.643   0.775 -0.3470  0.9307 -1.0212
  225MOL0     H29685   1.390   8.730   0.789 -0.8431  0.4494  0.1405
  225MOL0     H29686   3.085   9.364   1.568 -0.0227 -0.2884  1.3108
  225MOL0     H29687   3.296   9.234   1.620 -2.0204  3.5383  0.8481
  225MOL0     H29688   3.464   8.829   1.572  0.3686 -0.3606 -0.3806
  225MOL0     H29689   3.696   8.737   1.538 -2.4435  0.9145 -1.2366
  225MOL0     H29690   3.929   8.868   1.530 -0.7280 -1.1054 -2.0280
  225MOL0     H29691   3.891   8.690   1.523  1.2915 -1.2570  0.1901
  225MOL0     H29692   4.165   8.769   1.639 -1.4534  1.5206  1.5611
  225MOL0     H29693   4.092   8.621   1.585 -2.0043 -0.7087 -1.1099
  225MOL0     H29694   4.133   8.865   1.405  1.6067 -0.1140 -0.5651
  225MOL0     H29695   4.102   8.711   1.343 -2.3316 -0.1196  0.4106
  225MOL0     H29696   4.379   8.775   1.476  1.3109 -1.2606 -0.9307
  225MOL0     H29697   4.331   8.623   1.404  4.6099  0.0989  4.5105
  225MOL0     H29698   4.426   8.833   1.058 -0.3753  2.5821  0.0557
  225MOL0     H29699   3.820   8.918   1.903  0.5674 -1.7993 -0.0146
  225MOL0     H29700   3.589   9.011   1.939 -0.7087  0.3719 -0.8664
  226MOL0     O29701   1.637  10.929   6.526 -0.0502 -0.4516  0.0907
  226MOL0     C29702   1.684  11.037   6.479  0.0968 -0.0134 -0.5366
  226MOL0     O29703   1.604  11.148   6.459  0.9243  0.0742  0.1729
  226MOL0     C29704   1.465  11.130   6.482  0.6979 -1.2517  0.9194
  226MOL0     C29705   1.384  11.100   6.372 -0.6366 -0.5970  0.5393
  226MOL0     C29706   1.243  11.069   6.381  0.0066 -0.3267  0.3880
  226MOL0     C29707   1.181  11.082   6.505 -0.4848 -0.6163 -0.2823
  226MOL0     O29708   1.046  11.056   6.529 -0.1374  0.0603 -0.2218
  226MOL0     C29709   0.972  10.961   6.451 -0.6632 -0.1136 -0.0529
  226MOL0     C29710   0.832  10.960   6.515 -1.1241 -0.0948 -0.0581
  226MOL0     C29711   0.762  11.090   6.477  0.7044 -0.1806 -0.3443
  226MOL0     C29712   0.616  11.096   6.540 -0.7654 -0.4686  0.0757
  226MOL0     C29713   0.597  11.243   6.560 -0.2766  0.5067 -0.5223
  226MOL0     C29714   0.456  11.275   6.614 -0.6416  0.8131 -0.4103
  226MOL0     C29715   0.453  11.398   6.695  0.2217  0.5600 -1.0490
  226MOL0     C29716   0.308  11.439   6.731 -0.9785 -0.7359 -0.3829
  226MOL0     N29717   0.305  11.551   6.831 -0.3750 -0.0772 -0.6316
  226MOL0     C29718   0.239  11.567   6.949  0.6798  0.6163 -0.6516
  226MOL0     C29719   0.274  11.688   6.992 -1.0230  0.6801 -0.0638
  226MOL0     C29720   0.232  11.743   7.126 -0.4960  0.0656 -0.0071
  226MOL0     C29721   0.084  11.785   7.135  0.9903  0.0057  0.6712
  226MOL0     C29722   0.048  11.917   7.069 -0.2155 -0.3746  0.9988
  226MOL0     C29723  -0.088  11.963   7.122 -0.4629 -0.1430 -0.0427
  226MOL0     O29724  -0.135  12.079   7.041 -0.3612  0.2549  0.2852
  226MOL0     C29725  -0.269  12.111   7.069  0.0383  0.0808 -0.9976
  226MOL0     C29726  -0.353  12.076   7.184 -0.8078  0.4784 -0.1852
  226MOL0     C29727  -0.488  12.110   7.185  0.1760  0.3045 -0.1399
  226MOL0     C29728  -0.546  12.190   7.087 -0.7832  0.0348 -0.6994
  226MOL0     C29729  -0.684  12.237   7.106  0.0724 -0.1188  0.1126
  226MOL0     O29730  -0.733  12.230   7.236  0.1011 -0.6942 -0.3247
  226MOL0     C29731  -0.868  12.274   7.255 -0.5708  0.3617  0.5247
  226MOL0     C29732  -0.953  12.178   7.293  0.6318 -0.1995  0.1545
  226MOL0     C29733  -1.091  12.203   7.311 -0.0685 -0.2771 -0.3987
  226MOL0     C29734  -1.148  12.327   7.288 -0.3796 -0.5841 -0.0364
  226MOL0     O29735  -1.281  12.358   7.294  0.0726  0.1961  0.0397
  226MOL0     C29736  -1.379  12.249   7.282 -0.2400  0.7850  0.9635
  226MOL0     C29737  -1.522  12.293   7.249 -0.4172  0.2456  0.5164
  226MOL0     C29738  -1.534  12.392   7.132  0.3542  0.3729 -0.3301
  226MOL0     C29739  -1.670  12.465   7.135 -0.3587 -0.6781  0.1751
  226MOL0     C29740  -1.774  12.399   7.036  0.8144  0.1073  0.1229
  226MOL0     C29741  -1.893  12.490   7.013 -0.1613 -0.1375  0.0561
  226MOL0     C29742  -1.969  12.418   6.907  0.0634 -0.4079 -0.0446
  226MOL0     C29743  -2.065  12.298   6.946 -0.8443  0.2636  0.7823
  226MOL0    Cl29744  -2.199  12.375   7.050 -0.1726  0.3543 -0.4715
  226MOL0     C29745  -1.055  12.423   7.244  0.0412  0.3222  0.8177
  226MOL0     C29746  -0.921  12.407   7.220 -0.1695 -0.4404 -0.2657
  226MOL0     O29747  -0.744  12.266   7.004  0.3867 -0.5461 -0.3621
  226MOL0     C29748  -0.466  12.231   6.980  0.4590  0.3232 -0.0340
  226MOL0     C29749  -0.328  12.187   6.976  0.3785  0.6801  0.3553
  226MOL0     N29750   0.363  11.746   6.903 -0.3738 -0.2564  0.1616
  226MOL0     N29751   0.372  11.661   6.799 -0.0223  0.1329 -0.8028
  226MOL0     C29752   1.261  11.139   6.614 -0.1594 -0.0501  0.2945
  226MOL0     C29753   1.401  11.155   6.604 -0.4175 -0.0381  0.0720
  226MOL0     C29754   1.829  11.053   6.445  0.0489 -0.1340  0.2410
  226MOL0     C29755   1.922  10.950   6.460  0.2761  1.0630  0.2668
  226MOL0     C29756   2.054  10.966   6.438 -0.0587 -0.2612  0.7813
  226MOL0     C29757   2.103  11.092   6.416 -0.0878 -0.6151  0.2808
  226MOL0     O29758   2.239  11.102   6.401  0.4618 -0.1832 -0.3484
  226MOL0     C29759   2.290  11.185   6.298  0.4330  0.2845  0.1595
  226MOL0     C29760   2.319  11.325   6.337 -0.0013  0.8582  0.1000
  226MOL0     C29761   2.354  11.418   6.216  0.3657 -0.4410 -1.0890
  226MOL0     C29762   2.469  11.375   6.129  0.5629  0.8419  0.0264
  226MOL0     C29763   2.581  11.325   6.208  0.7772  0.0855  0.2818
  226MOL0     C29764   2.667  11.290   6.281 -0.2128 -0.5405 -0.1670
  226MOL0     C29765   2.015  11.200   6.397 -0.0391 -0.8359 -0.0672
  226MOL0     C29766   1.881  11.179   6.419  0.3479 -0.0313 -0.1148
  226MOL0     H29767   1.433  11.094   6.276 -0.4894 -2.0765  0.6970
  226MOL0     H29768   1.185  11.034   6.296 -0.5997  1.8916 -0.1765
  226MOL0     H29769   1.012  10.861   6.474 -0.7777 -0.0184  0.5831
  226MOL0     H29770   0.977  10.980   6.344  0.3264  0.9139  0.1574
  226MOL0     H29771   0.854  10.966   6.622  3.0251  2.4188 -0.8388
  226MOL0     H29772   0.768  10.876   6.487 -1.2553  0.0962 -0.3270
  226MOL0     H29773   0.753  11.112   6.370 -1.6465 -1.2035 -0.4193
  226MOL0     H29774   0.816  11.175   6.519 -1.9558 -0.0342  3.2615
  226MOL0     H29775   0.549  11.036   6.476 -0.4107 -2.9149  1.8609
  226MOL0     H29776   0.621  11.047   6.638 -0.3878 -1.7053 -0.5337
  226MOL0     H29777   0.612  11.304   6.470 -0.8477  1.6240  0.1251
  226MOL0     H29778   0.664  11.282   6.638 -0.1997  2.2024 -1.3942
  226MOL0     H29779   0.424  11.183   6.665 -1.2782 -0.0727 -2.2970
  226MOL0     H29780   0.385  11.273   6.531 -2.1420 -2.4906  0.7566
  226MOL0     H29781   0.504  11.379   6.790 -0.8240 -0.7781 -0.7065
  226MOL0     H29782   0.504  11.476   6.639 -1.4039  0.2013 -3.1679
  226MOL0     H29783   0.258  11.350   6.771 -1.8341  0.1331  0.5239
  226MOL0     H29784   0.255  11.464   6.639 -0.7213 -1.1301 -0.6456
  226MOL0     H29785   0.164  11.501   6.991 -2.4881  1.9135 -3.8023
  226MOL0     H29786   0.300  11.825   7.148  0.2223 -0.3025 -0.8211
  226MOL0     H29787   0.249  11.673   7.208  1.0671  0.5539  0.1242
  226MOL0     H29788   0.035  11.791   7.233 -4.8737 -1.3412 -1.7027
  226MOL0     H29789   0.021  11.709   7.086  0.2305  0.2856  1.1937
  226MOL0     H29790   0.128  11.989   7.090 -0.8661  1.2354 -1.5782
  226MOL0     H29791   0.023  11.922   6.963  2.1065  4.6336  0.3861
  226MOL0     H29792  -0.079  11.987   7.228  0.7343  2.1592 -0.5797
  226MOL0     H29793  -0.164  11.885   7.113 -0.1494 -0.5113  0.5229
  226MOL0     H29794  -0.308  12.022   7.267 -0.4819  0.4904 -0.3569
  226MOL0     H29795  -0.553  12.087   7.270 -0.7524 -0.0423 -0.9243
  226MOL0     H29796  -0.909  12.080   7.310  1.7285  0.3518  0.5728
  226MOL0     H29797  -1.155  12.131   7.360 -1.5933  1.2148 -0.1092
  226MOL0     H29798  -1.370  12.193   7.376 -1.2535 -1.7857 -0.3610
  226MOL0     H29799  -1.347  12.179   7.204 -1.5156 -0.2364  1.3338
  226MOL0     H29800  -1.553  12.342   7.342  0.0857 -0.8993  1.3132
  226MOL0     H29801  -1.588  12.208   7.230 -2.0248  1.0933  2.0409
  226MOL0     H29802  -1.517  12.341   7.036 -0.0656  0.9752 -0.7247
  226MOL0     H29803  -1.447  12.458   7.144  1.7005 -1.3474 -0.1118
  226MOL0     H29804  -1.713  12.467   7.236  1.1153 -4.1152  1.0114
  226MOL0     H29805  -1.655  12.567   7.097 -0.8828 -0.3779  0.7438
  226MOL0     H29806  -1.810  12.297   7.054 -3.0483  0.4573 -3.8406
  226MOL0     H29807  -1.722  12.405   6.939  1.7171 -0.3326  0.5637
  226MOL0     H29808  -1.860  12.586   6.971  0.4543 -1.1780 -1.9823
  226MOL0     H29809  -1.959  12.499   7.099 -0.7290 -1.6636 -0.1869
  226MOL0     H29810  -2.022  12.500   6.858  3.6221  1.2620 -1.5258
  226MOL0     H29811  -1.906  12.381   6.825 -1.0939 -2.4723 -0.0704
  226MOL0     H29812  -2.004  12.237   7.013 -0.3572 -0.5093 -0.3278
  226MOL0     H29813  -2.098  12.230   6.867  1.2032 -0.6385  0.6138
  226MOL0     H29814  -1.097  12.519   7.216  0.9787  0.5135 -0.0004
  226MOL0     H29815  -0.859  12.493   7.194  1.6084 -1.3009  0.9159
  226MOL0     H29816  -0.506  12.306   6.912 -2.9568 -0.2492  1.1460
  226MOL0     H29817  -0.262  12.230   6.900 -0.0270 -1.2223 -1.1533
  226MOL0     H29818   1.218  11.138   6.713 -3.5965 -3.1001 -1.0006
  226MOL0     H29819   1.458  11.170   6.696 -0.1590 -1.0312  0.0938
  226MOL0     H29820   1.888  10.850   6.485  1.1371  0.4920 -0.7641
  226MOL0     H29821   2.121  10.881   6.428  1.2918  0.5726  2.3010
  226MOL0     H29822   2.213  11.200   6.221  1.3340  0.7877 -0.6647
  226MOL0     H29823   2.374  11.134   6.250  0.0805 -2.4813  2.2494
  226MOL0     H29824   2.228  11.371   6.377  0.1163  1.4524 -0.2994
  226MOL0     H29825   2.396  11.328   6.415  2.0496 -1.4595 -1.6819
  226MOL0     H29826   2.389  11.511   6.263 -0.3186 -1.7417  2.2849
  226MOL0     H29827   2.267  11.438   6.152  0.9953  0.2657 -1.7509
  226MOL0     H29828   2.432  11.300   6.059  0.4137  0.3220  0.6511
  226MOL0     H29829   2.505  11.455   6.063  1.7836  2.2111  2.2189
  226MOL0     H29830   2.739  11.240   6.343 -0.6288 -1.4966 -0.4449
  226MOL0     H29831   2.038  11.303   6.373 -4.2274  0.0947 -0.7747
  226MOL0     H29832   1.820  11.269   6.424  3.5110  2.3628 -1.1624
  227MOL0     O29833   7.412   3.243   5.057 -0.3419 -0.4304  0.1924
  227MOL0     C29834   7.472   3.350   5.052 -0.2400 -0.1963  0.3653
  227MOL0     O29835   7.416   3.464   5.067  0.2029  0.0644 -0.2857
  227MOL0     C29836   7.284   3.470   5.086  0.7753 -0.4763 -0.0103
  227MOL0     C29837   7.221   3.574   5.009 -0.2182 -0.3332 -0.4094
  227MOL0     C29838   7.082   3.594   5.014 -0.1797  1.1066  0.7213
  227MOL0     C29839   7.006   3.500   5.085 -0.4306 -0.7644 -1.4276
  227MOL0     O29840   6.871   3.480   5.070 -0.4721 -0.2928  0.6175
  227MOL0     C29841   6.794   3.560   4.977 -0.4915 -0.2905 -0.5319
  227MOL0     C29842   6.693   3.461   4.914 -0.0070  0.0761 -0.3201
  227MOL0     C29843   6.598   3.524   4.817 -0.4358  1.1224 -0.0810
  227MOL0     C29844   6.488   3.424   4.776 -0.1160 -0.3530  0.2160
  227MOL0     C29845   6.371   3.501   4.714  0.1386  0.2126 -0.1174
  227MOL0     C29846   6.263   3.414   4.680 -1.2510  0.2956  0.3937
  227MOL0     C29847   6.137   3.467   4.621 -0.6623  0.2402  0.1255
  227MOL0     C29848   6.145   3.508   4.475  0.2025  0.4997 -0.5358
  227MOL0     N29849   6.013   3.565   4.438  0.0659 -0.4225  0.4455
  227MOL0     C29850   5.904   3.506   4.368 -0.4559  0.5199  0.5151
  227MOL0     C29851   5.818   3.609   4.336  0.7049 -0.0328 -0.3639
  227MOL0     C29852   5.699   3.597   4.251  0.0130  0.0318  0.0557
  227MOL0     C29853   5.592   3.699   4.310 -0.1837  0.6142  0.1308
  227MOL0     C29854   5.483   3.715   4.208  0.2512 -0.4697  0.4463
  227MOL0     C29855   5.407   3.847   4.242  0.6512  0.0794  0.7284
  227MOL0     O29856   5.345   3.906   4.126 -0.4212  0.0038 -0.2248
  227MOL0     C29857   5.212   3.898   4.106 -0.1297  0.2525  0.4015
  227MOL0     C29858   5.134   3.785   4.152 -0.3270 -0.1472  0.9971
  227MOL0     C29859   4.999   3.791   4.150  0.3701 -0.7028 -0.0792
  227MOL0     C29860   4.930   3.894   4.086 -0.7751  0.2837 -0.6533
  227MOL0     C29861   4.783   3.879   4.069  0.1614  0.0701 -0.5714
  227MOL0     O29862   4.717   3.785   4.142 -0.0835 -0.2202  0.8347
  227MOL0     C29863   4.597   3.739   4.110  0.1749  0.1426  0.7349
  227MOL0     C29864   4.502   3.726   4.216 -0.5083  0.1770 -0.3299
  227MOL0     C29865   4.371   3.677   4.192 -0.4145 -0.4697 -0.0888
  227MOL0     C29866   4.331   3.644   4.062 -0.0254 -0.4437  0.0507
  227MOL0     O29867   4.197   3.632   4.036  1.1751  0.0660 -0.4578
  227MOL0     C29868   4.102   3.690   4.137  0.1344 -0.6467 -0.1026
  227MOL0     C29869   3.965   3.714   4.083 -0.6240 -0.4110  0.0082
  227MOL0     C29870   3.970   3.841   3.994  0.1793 -1.4094 -0.4135
  227MOL0     C29871   3.867   3.833   3.887 -0.0938  0.1805  0.1172
  227MOL0     C29872   3.852   3.963   3.801 -0.3926  0.4927 -0.6638
  227MOL0     C29873   3.790   4.085   3.873 -0.1295 -0.3932  0.9719
  227MOL0     C29874   3.780   4.210   3.783  0.3822 -0.4550  0.1722
  227MOL0     C29875   3.627   4.241   3.770 -0.1661  0.7718 -0.1851
  227MOL0    Cl29876   3.539   4.280   3.924 -0.1632 -0.0986 -0.1229
  227MOL0     C29877   4.419   3.655   3.955 -0.8260 -0.3731 -0.3897
  227MOL0     C29878   4.555   3.707   3.976 -0.6087  0.9056  0.0658
  227MOL0     O29879   4.738   3.939   3.972 -0.0192  0.2901  0.4620
  227MOL0     C29880   5.004   4.004   4.039  0.2257 -0.5678  0.4998
  227MOL0     C29881   5.143   4.008   4.053 -0.0900 -0.2443 -0.0308
  227MOL0     N29882   5.871   3.725   4.392 -0.1371  0.8159 -0.0565
  227MOL0     N29883   5.981   3.699   4.450  0.3673 -0.1361 -0.0957
  227MOL0     C29884   7.071   3.401   5.163 -0.9513  0.4955  0.3340
  227MOL0     C29885   7.205   3.382   5.170  0.3899  0.3402 -0.8594
  227MOL0     C29886   7.616   3.346   5.039  0.8931  0.4182 -0.5479
  227MOL0     C29887   7.691   3.226   5.038  0.4321  1.2289  0.2776
  227MOL0     C29888   7.832   3.228   5.031  0.3988 -0.1643 -0.2010
  227MOL0     C29889   7.905   3.346   5.029  0.2631 -0.3560 -0.3166
  227MOL0     O29890   8.045   3.329   5.032  0.2355  0.0080 -0.9615
  227MOL0     C29891   8.125   3.444   5.015 -0.1694 -0.0002  0.4987
  227MOL0     C29892   8.273   3.390   5.010  0.4849  0.6932  0.3556
  227MOL0     C29893   8.311   3.275   4.908  0.4615  0.2034 -0.3572
  227MOL0     C29894   8.449   3.299   4.853  0.8137  0.1076  0.3814
  227MOL0     C29895   8.570   3.276   4.940 -0.7178 -0.2690  0.6593
  227MOL0     C29896   8.663   3.244   5.019  0.2929  0.9129 -0.5175
  227MOL0     C29897   7.832   3.462   5.042 -0.7097 -0.0828  0.1962
  227MOL0     C29898   7.697   3.463   5.039 -0.0260 -0.8723 -1.0568
  227MOL0     H29899   7.281   3.644   4.953  0.2852  0.6915  1.3185
  227MOL0     H29900   7.041   3.676   4.957  1.8206  1.0581 -0.9074
  227MOL0     H29901   6.853   3.606   4.897 -4.1566  0.7556 -2.8967
  227MOL0     H29902   6.735   3.623   5.044 -1.0441 -2.3127  1.0113
  227MOL0     H29903   6.629   3.435   4.998  2.3451  0.9427  1.8935
  227MOL0     H29904   6.741   3.372   4.873  0.9608  0.5075 -0.1705
  227MOL0     H29905   6.654   3.554   4.728  0.3005  0.7860  0.2603
  227MOL0     H29906   6.548   3.601   4.876 -0.9664  0.1088  0.8258
  227MOL0     H29907   6.528   3.349   4.707  1.3825  2.4176 -2.1906
  227MOL0     H29908   6.459   3.363   4.862  3.3197 -1.2076  0.9177
  227MOL0     H29909   6.406   3.557   4.627 -1.3264 -0.2133 -1.0084
  227MOL0     H29910   6.337   3.585   4.776  0.8514 -0.0140  0.5996
  227MOL0     H29911   6.243   3.352   4.768 -1.1622 -1.2573 -0.6209
  227MOL0     H29912   6.305   3.349   4.602 -0.0656  1.1904  0.2445
  227MOL0     H29913   6.059   3.395   4.648 -0.4317 -0.2914 -0.6113
  227MOL0     H29914   6.112   3.556   4.680 -0.4339 -0.1703  0.8569
  227MOL0     H29915   6.173   3.419   4.417  2.0786 -0.2601  1.4152
  227MOL0     H29916   6.214   3.592   4.466 -0.3045  0.9506 -0.2795
  227MOL0     H29917   5.890   3.400   4.350  0.2064  0.1279  2.1380
  227MOL0     H29918   5.661   3.496   4.271 -0.0918  0.2678  1.1078
  227MOL0     H29919   5.717   3.609   4.144  3.4342 -0.0542  0.5264
  227MOL0     H29920   5.632   3.800   4.320 -0.4235  0.9234 -1.7266
  227MOL0     H29921   5.543   3.674   4.405  1.2901 -1.0866  0.5056
  227MOL0     H29922   5.525   3.729   4.108  0.6535  1.3132  0.8286
  227MOL0     H29923   5.423   3.624   4.208  0.8497 -0.9830 -2.4795
  227MOL0     H29924   5.469   3.927   4.283 -1.1803  0.8719  2.0663
  227MOL0     H29925   5.334   3.820   4.318  1.9214 -2.8728  1.0056
  227MOL0     H29926   5.163   3.690   4.196 -0.4075 -0.6072  0.0719
  227MOL0     H29927   4.946   3.706   4.191  1.8568 -1.1671  0.9906
  227MOL0     H29928   4.527   3.763   4.314  2.8547  2.3391 -1.8127
  227MOL0     H29929   4.314   3.669   4.284  2.3775 -1.8580  1.6429
  227MOL0     H29930   4.139   3.785   4.177  1.1613 -1.5559  1.2144
  227MOL0     H29931   4.097   3.617   4.219  1.1705  0.8050  1.3372
  227MOL0     H29932   3.901   3.726   4.170 -1.0537  1.0831 -0.4886
  227MOL0     H29933   3.936   3.626   4.024 -0.0741 -0.9206  0.4864
  227MOL0     H29934   4.068   3.862   3.951  1.3512 -2.1341  1.7013
  227MOL0     H29935   3.948   3.923   4.062  2.7077 -0.5731 -0.4831
  227MOL0     H29936   3.898   3.747   3.827  1.5510 -0.7815  2.2126
  227MOL0     H29937   3.769   3.811   3.931 -0.2657 -2.7086 -1.4784
  227MOL0     H29938   3.802   3.939   3.706  2.1892  0.6255 -2.1528
  227MOL0     H29939   3.952   3.995   3.771  0.9081 -0.1616  2.5997
  227MOL0     H29940   3.865   4.104   3.951  0.2962 -3.4919  1.4387
  227MOL0     H29941   3.695   4.051   3.914  0.8456 -4.2822  0.3402
  227MOL0     H29942   3.838   4.293   3.824 -0.6128  0.0132  0.6782
  227MOL0     H29943   3.819   4.187   3.683  0.3481 -2.1575  0.5207
  227MOL0     H29944   3.585   4.158   3.713  0.2166  1.7006 -1.8990
  227MOL0     H29945   3.616   4.329   3.707  0.6921 -1.0936 -3.1260
  227MOL0     H29946   4.382   3.624   3.858 -2.0508 -0.6707  0.1456
  227MOL0     H29947   4.620   3.707   3.889  3.3910  3.1817  2.7775
  227MOL0     H29948   4.943   4.092   4.018  3.6642  2.2978  1.5121
  227MOL0     H29949   5.192   4.101   4.027 -2.7905  1.4812  0.7554
  227MOL0     H29950   7.000   3.348   5.227 -0.0220 -0.0716  0.9147
  227MOL0     H29951   7.253   3.316   5.242  0.3972  0.2477 -0.9496
  227MOL0     H29952   7.632   3.135   5.038 -0.2807  1.6868  0.0703
  227MOL0     H29953   7.887   3.135   5.021 -0.8505 -0.8001 -1.3481
  227MOL0     H29954   8.104   3.513   5.097  0.2179  2.1769 -1.1477
  227MOL0     H29955   8.089   3.481   4.919 -1.1980 -4.0181 -0.8751
  227MOL0     H29956   8.328   3.478   4.974  0.5510  1.0083  1.2007
  227MOL0     H29957   8.314   3.372   5.109 -2.7200  0.9671  1.8753
  227MOL0     H29958   8.240   3.267   4.825  0.2692 -1.3890 -0.0672
  227MOL0     H29959   8.312   3.178   4.959 -0.1631  0.3166 -0.1287
  227MOL0     H29960   8.465   3.219   4.779 -0.3705  0.1661  0.0413
  227MOL0     H29961   8.451   3.391   4.794  0.9842 -0.3324 -0.3188
  227MOL0     H29962   8.738   3.226   5.093 -0.9442  0.9638  0.8182
  227MOL0     H29963   7.876   3.561   5.048 -0.5756  0.1610 -3.0764
  227MOL0     H29964   7.652   3.560   5.057  0.3811 -0.6940 -0.9997
  228MOL0     O29965  11.259  10.510   5.497 -0.5595  0.7149  0.0180
  228MOL0     C29966  11.243  10.388   5.470  0.8529  0.2135 -0.6448
  228MOL0     O29967  11.130  10.314   5.504  0.1683 -0.4629  0.8766
  228MOL0     C29968  11.052  10.346   5.613 -0.2487 -0.1425 -0.8978
  228MOL0     C29969  11.108  10.415   5.720  0.5244 -0.5011  1.4082
  228MOL0     C29970  11.020  10.450   5.820 -0.3724 -1.2653 -0.2484
  228MOL0     C29971  10.886  10.424   5.821  0.1574  0.1313  0.0654
  228MOL0     O29972  10.819  10.453   5.932 -0.7812 -0.6842  0.6844
  228MOL0     C29973  10.684  10.497   5.901 -0.3166  0.3139  0.0719
  228MOL0     C29974  10.632  10.534   6.040  0.4842 -0.6750 -0.5988
  228MOL0     C29975  10.486  10.578   6.034 -0.1533 -0.5119 -0.5407
  228MOL0     C29976  10.421  10.610   6.176 -0.4247  0.3578  0.3721
  228MOL0     C29977  10.268  10.625   6.168  0.0222 -0.3872  0.0179
  228MOL0     C29978  10.198  10.492   6.125  0.3251 -0.6719  0.0028
  228MOL0     C29979  10.045  10.505   6.119 -0.5229  0.1563 -0.1804
  228MOL0     C29980   9.985  10.562   6.247 -0.2707 -0.4711  0.2543
  228MOL0     N29981   9.842  10.554   6.249 -0.6804  0.9857 -0.1215
  228MOL0     C29982   9.766  10.649   6.184  0.3910  0.0737  0.7238
  228MOL0     C29983   9.636  10.598   6.194 -0.3209 -0.1616 -0.1559
  228MOL0     C29984   9.519  10.654   6.128 -1.0193 -0.1029 -0.7113
  228MOL0     C29985   9.464  10.767   6.221 -0.1530  0.4940 -0.2179
  228MOL0     C29986   9.327  10.814   6.163 -0.6099 -0.1178  0.8472
  228MOL0     C29987   9.326  10.850   6.012 -0.7291  1.0154 -0.1534
  228MOL0     O29988   9.205  10.918   5.991 -0.0880  0.1095 -0.0313
  228MOL0     C29989   9.097  10.843   5.958  0.2983 -0.9992 -0.4677
  228MOL0     C29990   8.986  10.917   5.926 -0.5226 -0.5950 -0.0421
  228MOL0     C29991   8.873  10.857   5.884  0.2981  0.8885 -0.1780
  228MOL0     C29992   8.861  10.715   5.874  0.5097  0.4665 -0.5649
  228MOL0     C29993   8.723  10.645   5.847 -0.6807  0.3608  0.2079
  228MOL0     O29994   8.618  10.730   5.837 -0.0374  0.3391  0.6471
  228MOL0     C29995   8.507  10.679   5.764 -0.3298 -0.6605 -0.3069
  228MOL0     C29996   8.382  10.737   5.789 -1.0036 -0.0885 -0.6908
  228MOL0     C29997   8.272  10.723   5.691  0.1465  0.4449 -0.2194
  228MOL0     C29998   8.290  10.643   5.581 -0.1109  0.9261 -0.3046
  228MOL0     O29999   8.201  10.632   5.475  0.0300  0.2251 -1.2002
  228MOL0     C30000   8.125  10.504   5.470 -0.3553  0.3161  0.0134
  228MOL0     C30001   8.039  10.522   5.342  0.5960 -0.7832  0.3311
  228MOL0     C30002   7.947  10.400   5.331 -0.1147  0.1647 -0.0350
  228MOL0     C30003   7.834  10.431   5.230  0.5112 -0.4308 -0.9415
  228MOL0     C30004   7.878  10.478   5.097  1.4381  0.0469  0.1195
  228MOL0     C30005   7.773  10.484   4.982  0.4634  0.8810 -0.9392
  228MOL0     C30006   7.749  10.338   4.927  0.0377  0.5949 -0.1480
  228MOL0     C30007   7.608  10.328   4.890  0.9021 -0.2462 -0.4838
  228MOL0    Cl30008   7.511  10.313   5.045 -0.5971 -0.1249 -0.2471
  228MOL0     C30009   8.395  10.556   5.580 -0.6541 -0.5362  0.4779
  228MOL0     C30010   8.511  10.583   5.659 -0.7958 -0.7342  0.5819
  228MOL0     O30011   8.722  10.526   5.859  0.3554 -0.1180  0.0063
  228MOL0     C30012   8.974  10.636   5.916  0.0230  0.6806  0.1804
  228MOL0     C30013   9.094  10.703   5.950  0.0428  0.7266 -0.0520
  228MOL0     N30014   9.636  10.478   6.272 -0.7395 -0.8290  0.3183
  228MOL0     N30015   9.764  10.463   6.302 -0.0971 -0.5982  0.1865
  228MOL0     C30016  10.835  10.346   5.712  0.4524  0.0344 -0.2029
  228MOL0     C30017  10.916  10.311   5.606 -0.0347 -0.6381 -0.6178
  228MOL0     C30018  11.347  10.317   5.394  0.4371  0.4278  1.2776
  228MOL0     C30019  11.332  10.183   5.368 -0.5983  0.0929  0.4609
  228MOL0     C30020  11.434  10.117   5.292  0.6423 -0.3578 -1.0571
  228MOL0     C30021  11.552  10.179   5.243  0.5002  0.2940  0.7866
  228MOL0     O30022  11.625  10.087   5.162 -0.0953 -0.4457 -0.3204
  228MOL0     C30023  11.738  10.163   5.105  0.2592  0.2195  0.2597
  228MOL0     C30024  11.838  10.050   5.061 -1.1439 -0.5068 -0.2195
  228MOL0     C30025  11.952  10.118   4.985  0.0417 -0.2713 -0.5811
  228MOL0     C30026  12.062  10.012   4.971  0.2952 -1.1596 -0.2915
  228MOL0     C30027  12.171  10.093   4.914  0.0529 -0.1809 -0.0416
  228MOL0     C30028  12.268  10.127   4.854  0.1237 -1.1678 -0.2186
  228MOL0     C30029  11.562  10.320   5.267  0.2994  0.3478  0.9846
  228MOL0     C30030  11.462  10.386   5.349 -0.6087  0.3217 -0.1681
  228MOL0     H30031  11.215  10.420   5.731  0.6445 -0.7454  0.3787
  228MOL0     H30032  11.064  10.506   5.902 -0.0215  1.7810 -2.3577
  228MOL0     H30033  10.617  10.419   5.863 -1.5450  0.5673  1.6229
  228MOL0     H30034  10.681  10.587   5.838 -1.6406  2.1638  2.5803
  228MOL0     H30035  10.689  10.616   6.084 -2.7682  0.7575  1.3193
  228MOL0     H30036  10.639  10.450   6.110  1.5552  0.5058  0.7519
  228MOL0     H30037  10.427  10.495   5.995 -2.9064  1.1378 -0.1776
  228MOL0     H30038  10.473  10.663   5.967 -0.1571  0.6206  0.8295
  228MOL0     H30039  10.439  10.530   6.248  1.2759  0.8722  0.5609
  228MOL0     H30040  10.464  10.701   6.220  0.7316  0.5243 -1.0328
  228MOL0     H30041  10.246  10.698   6.090 -3.0050  0.1785  1.2516
  228MOL0     H30042  10.231  10.651   6.268 -0.3777 -0.9561  0.0229
  228MOL0     H30043  10.228  10.406   6.185 -1.1013 -0.3438  1.2513
  228MOL0     H30044  10.233  10.456   6.027 -2.1027 -0.3648 -1.0711
  228MOL0     H30045  10.020  10.570   6.035  1.7450  1.2239 -0.1109
  228MOL0     H30046  10.002  10.405   6.104  0.0018 -0.0819 -0.1571
  228MOL0     H30047  10.015  10.668   6.249  0.2946 -0.6369  1.4527
  228MOL0     H30048  10.020  10.510   6.336 -3.7996 -0.4466  1.8251
  228MOL0     H30049   9.799  10.735   6.128  0.0009 -0.3675 -0.2007
  228MOL0     H30050   9.434  10.588   6.112 -3.2869  2.3718  0.2212
  228MOL0     H30051   9.551  10.690   6.030  2.3519 -2.0963 -0.4823
  228MOL0     H30052   9.537  10.849   6.223 -1.6060  1.8269  0.0814
  228MOL0     H30053   9.437  10.733   6.321 -0.6257  0.0885 -0.4788
  228MOL0     H30054   9.252  10.733   6.168  0.5652 -1.5231 -2.0567
  228MOL0     H30055   9.293  10.904   6.215  0.0864  2.8369 -3.3145
  228MOL0     H30056   9.335  10.764   5.945  2.0992  0.9621  0.1696
  228MOL0     H30057   9.415  10.912   6.001  0.0178  0.0760  0.3954
  228MOL0     H30058   8.979  11.025   5.919  0.1177 -0.4680  0.9646
  228MOL0     H30059   8.789  10.913   5.845  0.0000  0.3372 -0.3438
  228MOL0     H30060   8.373  10.795   5.881 -1.7930  0.7782 -1.2978
  228MOL0     H30061   8.182  10.778   5.717 -1.6069 -2.3230  0.0639
  228MOL0     H30062   8.064  10.485   5.559  2.7612 -4.1125  1.5597
  228MOL0     H30063   8.199  10.425   5.456 -1.3623 -1.0352  1.8401
  228MOL0     H30064   8.098  10.546   5.253 -0.2375 -2.3350 -0.6867
  228MOL0     H30065   7.981  10.612   5.362  2.1869  0.1220  1.0619
  228MOL0     H30066   7.911  10.376   5.431  3.8871  2.7206  2.3114
  228MOL0     H30067   8.004  10.314   5.294 -0.4247 -1.8822  3.8110
  228MOL0     H30068   7.791  10.332   5.211 -1.1724  0.2381 -0.7940
  228MOL0     H30069   7.762  10.499   5.277  1.7652 -1.2147  2.3593
  228MOL0     H30070   7.955  10.410   5.059 -1.3518 -2.4057 -1.5799
  228MOL0     H30071   7.917  10.580   5.103 -0.4280  0.8627 -0.7642
  228MOL0     H30072   7.809  10.541   4.896  1.3137  1.8714  0.0409
  228MOL0     H30073   7.682  10.534   5.016  0.2482 -0.0376 -0.0929
  228MOL0     H30074   7.815  10.318   4.842 -0.4236 -1.5582 -0.0495
  228MOL0     H30075   7.760  10.264   5.007  1.1839  3.7333  2.8860
  228MOL0     H30076   7.587  10.243   4.824 -0.3870  0.2012 -0.6901
  228MOL0     H30077   7.591  10.417   4.828 -0.6534  0.7993  1.3344
  228MOL0     H30078   8.403  10.493   5.492  0.4889  1.9260 -1.3021
  228MOL0     H30079   8.605  10.534   5.635 -0.0842  1.7450 -2.3569
  228MOL0     H30080   8.984  10.529   5.908  1.1823  0.8253 -0.4648
  228MOL0     H30081   9.183  10.650   5.982  3.4330  4.5263 -2.1809
  228MOL0     H30082  10.730  10.317   5.717  0.9095 -1.5281  1.2006
  228MOL0     H30083  10.872  10.247   5.531  0.3562 -0.3966 -1.0634
  228MOL0     H30084  11.255  10.116   5.405  0.0810  1.1679  4.3739
  228MOL0     H30085  11.426  10.012   5.264 -2.3354 -0.8475  1.1001
  228MOL0     H30086  11.795  10.221   5.178  0.2179  1.1105 -0.3879
  228MOL0     H30087  11.702  10.222   5.020  1.9452  0.6307 -0.2067
  228MOL0     H30088  11.885  10.014   5.153  4.5637  0.9737 -2.1554
  228MOL0     H30089  11.783   9.979   4.999  0.3863 -2.3921  0.4720
  228MOL0     H30090  11.986  10.212   5.029 -1.2926  0.0326 -0.1612
  228MOL0     H30091  11.901  10.138   4.890 -2.0539 -0.5735  0.4251
  228MOL0     H30092  12.096   9.971   5.066  0.3113  1.5605  0.9585
  228MOL0     H30093  12.031   9.934   4.900 -0.7984 -2.2122  1.2916
  228MOL0     H30094  12.362  10.150   4.809 -0.1715  3.5695  1.0529
  228MOL0     H30095  11.640  10.379   5.221 -0.6115 -0.5262 -1.8758
  228MOL0     H30096  11.467  10.492   5.374  1.0632 -0.1560  1.7004
  229MOL0     O30097   3.009   7.577   0.046  0.7009 -0.2011 -0.0566
  229MOL0     C30098   3.060   7.473   0.020  0.1031  0.6267 -0.6736
  229MOL0     O30099   2.996   7.355   0.014  0.1615  0.3552 -0.0322
  229MOL0     C30100   2.860   7.351   0.042  0.0461  0.0059  0.2591
  229MOL0     C30101   2.767   7.285  -0.039  0.4468  0.0472 -0.2185
  229MOL0     C30102   2.631   7.286  -0.014 -0.5133 -0.4350  0.4620
  229MOL0     C30103   2.578   7.347   0.102 -0.3223  0.4732 -0.1726
  229MOL0     O30104   2.444   7.349   0.148 -0.2907  0.5634  0.1828
  229MOL0     C30105   2.345   7.280   0.072 -0.1685 -0.0545  0.3252
  229MOL0     C30106   2.216   7.280   0.145  0.6508 -0.2221 -0.2398
  229MOL0     C30107   2.084   7.240   0.065 -0.3270 -0.3944  0.7406
  229MOL0     C30108   1.958   7.271   0.157  0.6059 -0.3730  0.1726
  229MOL0     C30109   1.821   7.261   0.090  0.6326  0.5056  0.4728
  229MOL0     C30110   1.788   7.360  -0.025 -0.3158 -0.3781 -0.5471
  229MOL0     C30111   1.646   7.338  -0.080  0.3182 -0.0643  0.1851
  229MOL0     C30112   1.612   7.423  -0.208 -0.7187 -0.1167 -0.7952
  229MOL0     N30113   1.492   7.360  -0.270  1.5156  0.4056 -0.1936
  229MOL0     C30114   1.482   7.257  -0.358  0.3714  0.4579 -0.1992
  229MOL0     C30115   1.354   7.262  -0.397  0.4664  0.3130  0.9398
  229MOL0     C30116   1.304   7.159  -0.500  0.3460 -0.9336 -0.6681
  229MOL0     C30117   1.157   7.184  -0.536 -0.4260 -0.4262 -0.1363
  229MOL0     C30118   1.052   7.091  -0.486 -0.6417  0.1043 -0.1778
  229MOL0     C30119   1.057   6.955  -0.568  0.6391 -0.0860  0.5560
  229MOL0     O30120   0.974   6.972  -0.688 -0.0973  0.4457 -0.4722
  229MOL0     C30121   0.835   6.968  -0.671  0.2720  0.9228  0.6574
  229MOL0     C30122   0.761   7.094  -0.672 -0.1984  0.7511  1.0837
  229MOL0     C30123   0.623   7.089  -0.664  0.7032 -0.7915  0.3574
  229MOL0     C30124   0.549   6.970  -0.658  0.4894 -0.1641 -0.1822
  229MOL0     C30125   0.397   6.976  -0.644 -0.0351 -0.4718 -0.3252
  229MOL0     O30126   0.343   6.878  -0.571  0.0315 -0.8252  0.2587
  229MOL0     C30127   0.214   6.888  -0.536  0.2083 -0.3084 -0.3073
  229MOL0     C30128   0.134   6.781  -0.558 -0.3888 -0.3360  0.1937
  229MOL0     C30129  -0.003   6.795  -0.536 -0.0306 -0.0619 -0.2708
  229MOL0     C30130  -0.064   6.908  -0.481 -0.6283 -0.7234 -0.5258
  229MOL0     O30131  -0.200   6.902  -0.450  0.4805 -0.3983 -0.2977
  229MOL0     C30132  -0.285   6.814  -0.528 -0.2033  0.6488  0.1249
  229MOL0     C30133  -0.428   6.867  -0.508  0.0590 -0.5759 -0.2467
  229MOL0     C30134  -0.537   6.759  -0.534 -0.9292  0.2611 -0.4141
  229MOL0     C30135  -0.679   6.817  -0.519 -0.3163  0.7472  0.4580
  229MOL0     C30136  -0.780   6.698  -0.506 -0.4882 -0.6815 -0.4573
  229MOL0     C30137  -0.928   6.754  -0.478  0.0177 -0.4083 -0.1807
  229MOL0     C30138  -1.015   6.663  -0.400 -0.1326 -0.1898 -0.2206
  229MOL0     C30139  -1.158   6.713  -0.383 -0.1016 -0.2492  0.2104
  229MOL0    Cl30140  -1.232   6.732  -0.539  0.2446  0.1312  0.0749
  229MOL0     C30141   0.023   7.009  -0.436 -0.1049 -0.3656  0.4548
  229MOL0     C30142   0.160   7.005  -0.475 -0.2394  0.6864  0.8624
  229MOL0     O30143   0.342   7.076  -0.684  0.3329  0.0395 -0.0668
  229MOL0     C30144   0.625   6.848  -0.649  0.1024  0.5645  0.6256
  229MOL0     C30145   0.767   6.848  -0.653 -0.4119  0.3406 -0.4585
  229MOL0     N30146   1.280   7.357  -0.333 -0.1823 -0.0578  0.2660
  229MOL0     N30147   1.365   7.412  -0.254 -0.4544  0.8924  0.8223
  229MOL0     C30148   2.671   7.406   0.186  0.4492 -0.5674 -0.3838
  229MOL0     C30149   2.803   7.405   0.164  0.0194 -0.0903  0.1330
  229MOL0     C30150   3.212   7.471   0.001 -0.1280  0.3987  0.4747
  229MOL0     C30151   3.302   7.541   0.082 -0.4532  0.1435 -0.9282
  229MOL0     C30152   3.441   7.521   0.079  0.2108 -1.2303 -0.0901
  229MOL0     C30153   3.492   7.436  -0.022 -0.0916 -0.8973  0.4934
  229MOL0     O30154   3.623   7.400  -0.013 -0.4358  0.1670 -0.1036
  229MOL0     C30155   3.692   7.315  -0.103 -0.0077  0.1793 -0.0734
  229MOL0     C30156   3.830   7.331  -0.074 -0.1916 -0.3888  0.2061
  229MOL0     C30157   3.894   7.239  -0.178  0.4778 -0.1539  0.0197
  229MOL0     C30158   4.044   7.227  -0.154  0.4992 -0.4139  0.3098
  229MOL0     C30159   4.105   7.342  -0.227 -0.1697  0.1548  0.1112
  229MOL0     C30160   4.153   7.437  -0.292 -0.4619 -0.3461 -0.5089
  229MOL0     C30161   3.401   7.380  -0.116 -0.4476 -0.8086  0.0690
  229MOL0     C30162   3.267   7.386  -0.101 -0.4263 -0.0854 -0.1249
  229MOL0     H30163   2.805   7.246  -0.133  0.0533 -1.4404  0.2114
  229MOL0     H30164   2.572   7.239  -0.091  0.2237  1.3010 -1.2299
  229MOL0     H30165   2.384   7.179   0.054 -0.9060  0.0433 -2.2715
  229MOL0     H30166   2.334   7.333  -0.023 -2.2818 -2.6284 -1.0076
  229MOL0     H30167   2.204   7.376   0.197 -0.3707 -1.9203  2.8802
  229MOL0     H30168   2.226   7.213   0.231 -0.6260 -1.6722 -1.1864
  229MOL0     H30169   2.077   7.135   0.037 -1.1578 -0.0710 -0.3268
  229MOL0     H30170   2.092   7.299  -0.027 -3.1065 -0.0717  0.6160
  229MOL0     H30171   1.967   7.205   0.243  0.1644 -0.0166  0.4974
  229MOL0     H30172   1.976   7.374   0.191 -1.1810  0.6386 -1.7401
  229MOL0     H30173   1.739   7.265   0.162 -0.0073 -1.8776 -0.0357
  229MOL0     H30174   1.812   7.161   0.048  0.1513  1.2923 -1.4013
  229MOL0     H30175   1.870   7.367  -0.097 -0.7319 -2.0730 -1.2460
  229MOL0     H30176   1.788   7.462   0.013  2.0889 -0.8673  0.9691
  229MOL0     H30177   1.637   7.232  -0.104 -0.5450  0.2352 -0.9220
  229MOL0     H30178   1.577   7.353   0.003  1.6494  0.7895  1.1769
  229MOL0     H30179   1.688   7.410  -0.286  0.2911  0.3522  0.0803
  229MOL0     H30180   1.606   7.528  -0.178  3.9655 -0.0377  0.6627
  229MOL0     H30181   1.563   7.189  -0.381  2.1065  2.2772  0.2374
  229MOL0     H30182   1.316   7.059  -0.458 -0.8992  0.2568  2.8690
  229MOL0     H30183   1.355   7.157  -0.597 -2.6533  1.1317 -2.4700
  229MOL0     H30184   1.149   7.187  -0.646 -2.1044  0.0094 -0.0416
  229MOL0     H30185   1.131   7.283  -0.497 -0.4596 -0.9364  1.1721
  229MOL0     H30186   1.060   7.067  -0.379 -2.7905  0.5435  0.1339
  229MOL0     H30187   0.948   7.124  -0.488 -0.4288  1.1079  2.1282
  229MOL0     H30188   1.008   6.876  -0.511 -1.2424  0.8501  0.3432
  229MOL0     H30189   1.156   6.917  -0.596  0.0150 -0.9395 -0.5852
  229MOL0     H30190   0.814   7.189  -0.670  1.9506 -0.3097 -0.8506
  229MOL0     H30191   0.571   7.183  -0.648  0.6960 -0.4259 -1.5562
  229MOL0     H30192   0.185   6.693  -0.598 -0.8301 -0.1355 -0.8650
  229MOL0     H30193  -0.064   6.712  -0.568  0.2440 -0.8865  1.2643
  229MOL0     H30194  -0.280   6.709  -0.496 -1.7592 -0.5012 -2.9792
  229MOL0     H30195  -0.253   6.812  -0.632  3.2537  3.9077  0.9242
  229MOL0     H30196  -0.446   6.940  -0.588 -0.4076 -0.6312 -0.1968
  229MOL0     H30197  -0.426   6.905  -0.406  3.6241 -1.3327  0.0864
  229MOL0     H30198  -0.523   6.675  -0.465  2.5752 -2.0591 -3.5585
  229MOL0     H30199  -0.529   6.719  -0.635  1.0024 -0.1378 -0.1477
  229MOL0     H30200  -0.685   6.888  -0.436  0.2765  1.4190 -0.0661
  229MOL0     H30201  -0.711   6.877  -0.605  1.5326  2.2004  0.7397
  229MOL0     H30202  -0.751   6.638  -0.418 -1.6731  0.1605  0.5401
  229MOL0     H30203  -0.786   6.637  -0.596 -1.7601 -1.3124  0.0336
  229MOL0     H30204  -0.977   6.767  -0.575 -1.1330 -1.5001  0.2315
  229MOL0     H30205  -0.923   6.855  -0.435  0.8340 -1.1602  1.5602
  229MOL0     H30206  -1.024   6.568  -0.454 -0.4527  0.1322 -0.7405
  229MOL0     H30207  -0.978   6.638  -0.301 -0.8167  0.6906  0.2717
  229MOL0     H30208  -1.137   6.806  -0.331  1.2439 -0.5826  0.3033
  229MOL0     H30209  -1.225   6.645  -0.330 -2.2948 -1.4050 -3.6026
  229MOL0     H30210  -0.008   7.094  -0.377  1.3321 -0.1424  0.9251
  229MOL0     H30211   0.216   7.097  -0.463  0.6114  0.5225 -1.3488
  229MOL0     H30212   0.572   6.754  -0.638  1.3808 -0.2541 -0.0034
  229MOL0     H30213   0.810   6.748  -0.648  0.2771  0.6600  0.3904
  229MOL0     H30214   2.641   7.459   0.276 -2.2857 -4.0000  0.9924
  229MOL0     H30215   2.861   7.470   0.228 -0.3753  1.0436 -0.6415
  229MOL0     H30216   3.259   7.590   0.169  0.9865 -0.8516  0.4126
  229MOL0     H30217   3.510   7.574   0.144  1.2824 -1.7813 -0.7270
  229MOL0     H30218   3.645   7.339  -0.199 -3.5116 -1.2664  1.1027
  229MOL0     H30219   3.661   7.213  -0.077 -0.8566  0.9583  2.2029
  229MOL0     H30220   3.865   7.434  -0.086 -0.5266 -0.1644  1.0754
  229MOL0     H30221   3.849   7.296   0.028 -1.3093 -2.8472 -0.3710
  229MOL0     H30222   3.879   7.283  -0.277  0.0197 -1.7144 -0.6446
  229MOL0     H30223   3.856   7.136  -0.182  0.3235 -0.1245  0.5920
  229MOL0     H30224   4.064   7.217  -0.047 -0.2467 -2.4232  0.2932
  229MOL0     H30225   4.077   7.134  -0.201  0.0674 -0.4117 -0.0002
  229MOL0     H30226   4.191   7.530  -0.330  0.6817 -0.6528 -0.1592
  229MOL0     H30227   3.438   7.320  -0.199  0.6499  0.6745 -0.5597
  229MOL0     H30228   3.201   7.339  -0.173  0.1479  0.3355 -0.9590
  230MOL0     O30229   9.744   6.353   6.196  0.1264  1.4311 -0.4009
  230MOL0     C30230   9.717   6.231   6.219 -0.0221 -0.7683 -0.4612
  230MOL0     O30231   9.593   6.170   6.199 -0.5882  0.1792  0.6394
  230MOL0     C30232   9.484   6.254   6.219 -0.1094 -0.2187 -0.0193
  230MOL0     C30233   9.374   6.234   6.138 -0.6957  1.1876  0.2987
  230MOL0     C30234   9.252   6.302   6.162  0.0208  0.0088  0.5661
  230MOL0     C30235   9.245   6.393   6.267 -0.0446 -0.0526 -0.7806
  230MOL0     O30236   9.131   6.469   6.278 -0.4451 -0.5219 -0.0813
  230MOL0     C30237   9.110   6.545   6.397 -0.2708 -0.3115  0.0544
  230MOL0     C30238   8.979   6.620   6.391  0.3583 -0.4830  0.6210
  230MOL0     C30239   8.992   6.718   6.509  0.4894  0.2729 -0.0319
  230MOL0     C30240   8.921   6.852   6.480 -0.2875 -0.0100  0.5071
  230MOL0     C30241   8.921   6.943   6.604  0.0505  0.3718 -0.3286
  230MOL0     C30242   8.829   7.057   6.575  0.3026 -0.2855  0.7618
  230MOL0     C30243   8.831   7.154   6.699 -0.6582 -0.4625  0.0197
  230MOL0     C30244   8.780   7.297   6.672  0.8764  0.1953  0.3973
  230MOL0     N30245   8.630   7.294   6.675 -0.0781  0.4938  0.7153
  230MOL0     C30246   8.553   7.247   6.572 -0.4691  0.0239  0.5093
  230MOL0     C30247   8.423   7.251   6.611 -0.8535  0.2035  0.1224
  230MOL0     C30248   8.306   7.235   6.527  0.0382 -0.0904  0.2781
  230MOL0     C30249   8.247   7.099   6.551 -0.5297 -0.4129  0.2250
  230MOL0     C30250   8.140   7.074   6.442 -0.2965  0.6705 -0.5622
  230MOL0     C30251   8.043   6.961   6.493  0.0866  0.4440 -0.0818
  230MOL0     O30252   7.960   7.023   6.593 -0.6087  0.2040  0.6241
  230MOL0     C30253   7.830   7.051   6.570  0.3809  0.8326 -0.8924
  230MOL0     C30254   7.742   6.968   6.486  0.5858 -0.5821 -0.6336
  230MOL0     C30255   7.610   7.018   6.447 -0.0584 -0.0094  0.5203
  230MOL0     C30256   7.557   7.130   6.508  0.3767 -0.6419 -0.1140
  230MOL0     C30257   7.430   7.180   6.478 -0.2349  0.2824  0.7061
  230MOL0     O30258   7.349   7.082   6.417  0.5270  0.2482 -0.7154
  230MOL0     C30259   7.229   7.123   6.372 -0.4398  0.3060 -0.4266
  230MOL0     C30260   7.217   7.141   6.232  0.0775 -0.6276 -0.3868
  230MOL0     C30261   7.093   7.184   6.193 -0.3551  0.2806  0.5229
  230MOL0     C30262   6.991   7.225   6.278  0.7710 -0.0340 -0.2880
  230MOL0     O30263   6.869   7.276   6.234 -0.1461  0.5436 -0.3221
  230MOL0     C30264   6.874   7.359   6.118  0.4226 -0.0925  0.4577
  230MOL0     C30265   6.738   7.433   6.111  0.5021  0.5143  0.2990
  230MOL0     C30266   6.676   7.457   5.972 -0.2500 -0.7620  0.1337
  230MOL0     C30267   6.565   7.558   5.962 -0.0705 -0.2738 -0.4494
  230MOL0     C30268   6.508   7.560   5.824 -0.0128 -0.2059 -0.5735
  230MOL0     C30269   6.427   7.688   5.809 -0.0890  0.0100  0.1535
  230MOL0     C30270   6.303   7.706   5.908  0.1457 -0.0441  0.1427
  230MOL0     C30271   6.178   7.646   5.850 -0.0272  0.2253 -0.0289
  230MOL0    Cl30272   6.039   7.658   5.953 -0.1848 -0.0109 -0.0274
  230MOL0     C30273   7.010   7.198   6.415  0.4408 -0.7160 -0.7558
  230MOL0     C30274   7.131   7.155   6.461 -0.0172  0.2305  0.2782
  230MOL0     O30275   7.399   7.300   6.482 -0.4836  0.4615  0.8129
  230MOL0     C30276   7.631   7.191   6.606  0.0059 -0.4438  0.2139
  230MOL0     C30277   7.763   7.156   6.634  0.2319 -0.1062  0.5574
  230MOL0     N30278   8.417   7.295   6.741  0.3340 -1.0258 -0.2713
  230MOL0     N30279   8.547   7.317   6.782 -0.2331 -0.1737  0.4737
  230MOL0     C30280   9.353   6.411   6.350  0.5692  0.2234  0.1795
  230MOL0     C30281   9.468   6.335   6.333  0.0607  0.7039 -0.6642
  230MOL0     C30282   9.839   6.149   6.259 -0.2200  0.4854  0.9531
  230MOL0     C30283   9.831   6.026   6.334 -0.3790 -0.2102 -0.1811
  230MOL0     C30284   9.932   5.936   6.351 -0.7040 -0.0203  0.0171
  230MOL0     C30285  10.063   5.971   6.300  0.3897 -0.8074 -0.0133
  230MOL0     O30286  10.177   5.890   6.319 -0.4277  0.0231  0.5002
  230MOL0     C30287  10.160   5.751   6.337  0.3283 -0.7130 -0.2322
  230MOL0     C30288  10.284   5.673   6.329  1.3412  0.8195  0.1403
  230MOL0     C30289  10.254   5.519   6.292  0.8485  0.3518 -0.6871
  230MOL0     C30290  10.383   5.434   6.317  0.4780 -0.0122 -0.5483
  230MOL0     C30291  10.475   5.468   6.212 -0.1315 -0.6128 -0.8740
  230MOL0     C30292  10.528   5.514   6.110  0.1031  0.4670  0.4239
  230MOL0     C30293  10.082   6.086   6.240  0.7169 -0.0671 -0.3883
  230MOL0     C30294   9.970   6.175   6.213  0.0534 -0.5719 -0.1928
  230MOL0     H30295   9.377   6.156   6.062 -0.9029 -0.6018  2.0408
  230MOL0     H30296   9.167   6.278   6.100  0.1844  1.0270 -0.0825
  230MOL0     H30297   9.190   6.618   6.413 -1.9541  1.2848  1.8166
  230MOL0     H30298   9.112   6.482   6.486  0.1293 -0.0170  0.2546
  230MOL0     H30299   8.892   6.554   6.402 -0.8580  0.1124 -3.5863
  230MOL0     H30300   8.974   6.666   6.292 -0.3297 -2.8656 -0.5179
  230MOL0     H30301   9.096   6.739   6.535 -0.3960  1.8284  2.7812
  230MOL0     H30302   8.948   6.671   6.598  1.3922  1.0789  0.8727
  230MOL0     H30303   8.971   6.899   6.394  0.0845 -0.1698  0.6353
  230MOL0     H30304   8.818   6.842   6.446  0.2879 -1.2947 -0.9848
  230MOL0     H30305   9.018   6.988   6.628  1.2532 -1.0707 -2.2411
  230MOL0     H30306   8.891   6.890   6.695  1.8360  2.0974  1.3427
  230MOL0     H30307   8.726   7.038   6.544  0.4014 -0.7326  0.7066
  230MOL0     H30308   8.867   7.126   6.499  0.6626  0.8121  1.9109
  230MOL0     H30309   8.782   7.109   6.786 -0.8667 -2.4793 -1.0795
  230MOL0     H30310   8.938   7.167   6.717 -0.5776  0.8989 -1.2663
  230MOL0     H30311   8.811   7.325   6.571 -1.1855  1.2234  0.0011
  230MOL0     H30312   8.829   7.372   6.736  2.1489  1.5002 -1.9745
  230MOL0     H30313   8.594   7.225   6.474  3.6009 -0.7536  2.1839
  230MOL0     H30314   8.330   7.263   6.424  0.0885  0.6288  0.4746
  230MOL0     H30315   8.237   7.315   6.557  1.4466  0.8574  1.1294
  230MOL0     H30316   8.198   7.103   6.648 -1.9972 -0.2746 -0.4949
  230MOL0     H30317   8.315   7.014   6.537 -0.0772  0.2694 -2.1840
  230MOL0     H30318   8.097   7.170   6.415  2.8655  2.2036 -0.6000
  230MOL0     H30319   8.189   7.035   6.352  1.1517 -2.0651  1.2538
  230MOL0     H30320   8.108   6.884   6.537 -1.4989 -1.8470 -1.5341
  230MOL0     H30321   7.991   6.911   6.412 -1.2419 -1.5269  1.8608
  230MOL0     H30322   7.778   6.871   6.452 -1.5937 -2.2189  1.4122
  230MOL0     H30323   7.545   6.964   6.379  1.0888 -1.2525  0.3889
  230MOL0     H30324   7.296   7.101   6.169  0.2913 -1.9319  0.6483
  230MOL0     H30325   7.090   7.208   6.088  0.1357 -2.3486 -0.1675
  230MOL0     H30326   6.893   7.303   6.026 -0.1074  1.0370 -0.3537
  230MOL0     H30327   6.968   7.415   6.120  0.5261 -0.2844  2.0638
  230MOL0     H30328   6.753   7.530   6.161 -2.3416  0.6889  1.0339
  230MOL0     H30329   6.661   7.378   6.166 -0.5695 -1.2485 -2.7614
  230MOL0     H30330   6.630   7.366   5.933 -2.2767  1.2032 -2.5575
  230MOL0     H30331   6.752   7.490   5.900  0.0080  0.6822  1.0320
  230MOL0     H30332   6.487   7.533   6.035  0.7637  0.2404  0.6644
  230MOL0     H30333   6.602   7.658   5.984  0.7001 -0.0160 -2.6836
  230MOL0     H30334   6.451   7.469   5.802 -0.6738  0.1151 -0.2134
  230MOL0     H30335   6.586   7.571   5.748 -0.6654 -1.2491 -1.4153
  230MOL0     H30336   6.403   7.708   5.705 -1.5552  0.2098  0.5072
  230MOL0     H30337   6.490   7.769   5.846 -0.5092 -0.8628  3.0441
  230MOL0     H30338   6.314   7.664   6.008 -1.3538  0.9598  0.7580
  230MOL0     H30339   6.297   7.814   5.921 -0.9661 -0.3944  3.2603
  230MOL0     H30340   6.202   7.540   5.839 -0.3650  0.2503 -1.0788
  230MOL0     H30341   6.149   7.689   5.754  2.7111  1.8008 -0.2295
  230MOL0     H30342   6.940   7.234   6.490  2.3038  1.7904 -0.0783
  230MOL0     H30343   7.149   7.134   6.566  2.2806 -0.8890 -0.2674
  230MOL0     H30344   7.611   7.285   6.657  1.5837  2.1807 -3.5833
  230MOL0     H30345   7.825   7.220   6.695 -0.0400 -0.4368  1.1849
  230MOL0     H30346   9.355   6.479   6.435  1.0727 -0.1320  0.4613
  230MOL0     H30347   9.541   6.332   6.413 -2.6605 -0.4350  1.9487
  230MOL0     H30348   9.736   5.992   6.372 -1.5807  2.1267 -0.9081
  230MOL0     H30349   9.919   5.845   6.409  0.1221 -3.1738 -4.2796
  230MOL0     H30350  10.091   5.720   6.258 -0.6656  0.7528  0.0227
  230MOL0     H30351  10.113   5.741   6.435  0.5001  1.8177  0.1761
  230MOL0     H30352  10.349   5.717   6.252 -2.2735  3.6020 -1.5940
  230MOL0     H30353  10.338   5.682   6.424 -0.5210 -0.0296  1.3271
  230MOL0     H30354  10.233   5.514   6.184  0.3485 -0.4030 -0.5603
  230MOL0     H30355  10.169   5.479   6.347  0.6622 -3.5304 -3.3801
  230MOL0     H30356  10.429   5.462   6.412 -2.8763  0.1931  1.1576
  230MOL0     H30357  10.360   5.327   6.323  0.6051  0.0350  1.7465
  230MOL0     H30358  10.561   5.544   6.013  2.1112 -3.8173 -0.4373
  230MOL0     H30359  10.186   6.111   6.226  0.6222 -0.2626 -1.5231
  230MOL0     H30360   9.991   6.266   6.157  3.8031 -2.2176 -1.7707
  231MOL0     O30361   6.934   3.417   4.212  0.0866  0.2836  0.0720
  231MOL0     C30362   6.980   3.523   4.245 -0.0908  0.1541 -0.0807
  231MOL0     O30363   6.915   3.641   4.234 -0.0490  0.3512  0.2622
  231MOL0     C30364   6.775   3.632   4.231  0.2798  0.1480  0.4757
  231MOL0     C30365   6.699   3.661   4.352  0.1220  0.8080  0.4989
  231MOL0     C30366   6.556   3.681   4.344 -0.4788 -0.6669 -0.7064
  231MOL0     C30367   6.493   3.655   4.222  0.4023  0.1748 -0.1269
  231MOL0     O30368   6.356   3.656   4.218  1.0492 -0.3296  0.4483
  231MOL0     C30369   6.310   3.789   4.200 -0.5211 -0.8386  0.0071
  231MOL0     C30370   6.170   3.795   4.136 -0.5010  1.0343 -0.2808
  231MOL0     C30371   6.098   3.923   4.153  0.4995 -0.0847  0.1710
  231MOL0     C30372   5.967   3.913   4.075  0.8269 -0.1799  0.5508
  231MOL0     C30373   5.883   4.031   4.111  0.0827 -0.5196  0.1378
  231MOL0     C30374   5.739   4.035   4.057 -1.0633 -1.0694  0.5502
  231MOL0     C30375   5.690   4.186   4.078  0.0733  0.5910 -0.2416
  231MOL0     C30376   5.541   4.220   4.054  0.5497 -0.8929  0.2532
  231MOL0     N30377   5.494   4.190   3.925 -0.2404  0.1192  0.5237
  231MOL0     C30378   5.466   4.069   3.866  0.9515  0.1350  1.1562
  231MOL0     C30379   5.429   4.089   3.739 -0.6030 -0.4801  0.3056
  231MOL0     C30380   5.379   4.004   3.631 -0.1711 -0.1590  0.5527
  231MOL0     C30381   5.233   3.968   3.656 -0.5371 -0.2372  0.2827
  231MOL0     C30382   5.147   4.090   3.631 -0.7343  0.3500 -0.8615
  231MOL0     C30383   5.004   4.056   3.670 -0.1880  0.1275  1.0144
  231MOL0     O30384   4.963   3.954   3.579 -0.3031  0.2572 -0.5229
  231MOL0     C30385   4.831   3.917   3.573  1.2552  0.3231  0.0075
  231MOL0     C30386   4.724   3.969   3.653  1.0295 -0.8401  0.2898
  231MOL0     C30387   4.593   3.932   3.619  0.6629  0.3606  0.1714
  231MOL0     C30388   4.566   3.843   3.514  0.8237  0.2503 -0.5595
  231MOL0     C30389   4.425   3.807   3.475  0.1239 -0.0242 -0.8487
  231MOL0     O30390   4.329   3.870   3.562  0.4332  0.0053  1.1881
  231MOL0     C30391   4.210   3.818   3.547 -0.6301 -0.0947 -0.3075
  231MOL0     C30392   4.111   3.887   3.474 -0.4184 -0.2743 -0.7845
  231MOL0     C30393   3.985   3.831   3.471 -0.4721  0.1334  0.1802
  231MOL0     C30394   3.953   3.708   3.525 -0.5617  1.6453  0.0414
  231MOL0     O30395   3.822   3.672   3.510 -0.0924 -0.1853  0.1072
  231MOL0     C30396   3.762   3.578   3.599  0.3441 -0.1927  1.2137
  231MOL0     C30397   3.612   3.574   3.570  0.1578  0.5156  0.3184
  231MOL0     C30398   3.545   3.696   3.646  1.3280 -0.5689 -0.4807
  231MOL0     C30399   3.387   3.691   3.649 -0.1124  1.0171  0.0848
  231MOL0     C30400   3.330   3.828   3.670 -0.4954 -0.4075 -0.1173
  231MOL0     C30401   3.354   3.866   3.817 -0.0159 -0.4787 -0.3002
  231MOL0     C30402   3.295   4.007   3.856 -0.0822 -0.9336  0.5933
  231MOL0     C30403   3.299   4.033   4.006  0.7129  0.1433 -1.7011
  231MOL0    Cl30404   3.172   3.931   4.103 -0.0736  0.0484  0.2443
  231MOL0     C30405   4.049   3.637   3.601 -0.2571  0.3151 -0.3142
  231MOL0     C30406   4.178   3.699   3.614  0.2657 -0.8478  0.0510
  231MOL0     O30407   4.400   3.733   3.377 -0.8081  0.0343 -1.1149
  231MOL0     C30408   4.676   3.790   3.439  0.4819 -1.3719  1.7868
  231MOL0     C30409   4.805   3.829   3.471  0.2546  0.4106  1.1278
  231MOL0     N30410   5.442   4.221   3.717 -0.2213  0.3764 -0.7057
  231MOL0     N30411   5.490   4.281   3.830  0.2441 -0.2350 -0.0071
  231MOL0     C30412   6.571   3.637   4.108  0.5551  0.5363 -0.0979
  231MOL0     C30413   6.704   3.624   4.112 -0.4138 -0.2107  0.5731
  231MOL0     C30414   7.115   3.517   4.291 -0.1179  0.5906 -0.0261
  231MOL0     C30415   7.169   3.396   4.346  1.0592  0.1415  0.8579
  231MOL0     C30416   7.298   3.386   4.393  0.4377 -0.2671 -0.3264
  231MOL0     C30417   7.379   3.496   4.376 -0.4851  0.0727 -0.1858
  231MOL0     O30418   7.510   3.491   4.421  0.8195 -0.0894  0.2181
  231MOL0     C30419   7.531   3.559   4.553  0.0294  0.6351  0.5850
  231MOL0     C30420   7.646   3.489   4.635 -0.1007 -0.3134 -0.0777
  231MOL0     C30421   7.781   3.468   4.562  0.5253  0.1845  1.1448
  231MOL0     C30422   7.879   3.416   4.659  0.1420 -0.4528  0.8667
  231MOL0     C30423   8.004   3.365   4.605 -0.1836 -1.3752 -0.5011
  231MOL0     C30424   8.118   3.349   4.566  0.9676 -0.5438 -0.1288
  231MOL0     C30425   7.333   3.614   4.319  0.2240  0.3876 -0.3451
  231MOL0     C30426   7.202   3.625   4.281  0.7697 -0.2368  0.4095
  231MOL0     H30427   6.758   3.666   4.442  0.1076 -1.0289  0.6340
  231MOL0     H30428   6.499   3.694   4.436 -0.8228 -1.8187 -0.7324
  231MOL0     H30429   6.379   3.853   4.144 -0.6658  0.0377  0.8036
  231MOL0     H30430   6.306   3.827   4.303  0.6846  3.6012 -1.3611
  231MOL0     H30431   6.114   3.711   4.178  1.6243 -0.0721  0.5346
  231MOL0     H30432   6.178   3.770   4.030 -3.5821 -0.3264 -0.2989
  231MOL0     H30433   6.166   4.002   4.119 -0.3394  0.4193 -0.3855
  231MOL0     H30434   6.081   3.936   4.260 -0.5331 -0.0843  0.0168
  231MOL0     H30435   5.985   3.912   3.967 -1.9689 -1.3604  0.0167
  231MOL0     H30436   5.911   3.821   4.094 -0.2154 -1.1124 -5.2903
  231MOL0     H30437   5.925   4.118   4.060 -3.6817  0.0492 -2.4524
  231MOL0     H30438   5.880   4.039   4.220  0.5566 -1.5309  0.2406
  231MOL0     H30439   5.668   3.960   4.092 -0.7927 -1.0843  1.0755
  231MOL0     H30440   5.757   4.021   3.950 -0.5952 -1.3707  0.6652
  231MOL0     H30441   5.723   4.213   4.179  0.8711  0.1796 -0.3855
  231MOL0     H30442   5.755   4.235   4.005 -0.0372 -3.1846 -3.1548
  231MOL0     H30443   5.517   4.324   4.077 -1.0820 -1.0252 -0.7058
  231MOL0     H30444   5.477   4.166   4.125 -0.4643  1.6829  1.4417
  231MOL0     H30445   5.470   3.969   3.909  1.1685 -0.2034  0.3755
  231MOL0     H30446   5.445   3.917   3.642  0.8431  0.2287 -1.7960
  231MOL0     H30447   5.393   4.045   3.530  1.8417 -3.0263 -0.4872
  231MOL0     H30448   5.230   3.928   3.758  0.0093  1.6187  1.0696
  231MOL0     H30449   5.203   3.887   3.589 -1.5150  0.5039 -0.1982
  231MOL0     H30450   5.170   4.179   3.689 -0.0996  0.5886 -1.4639
  231MOL0     H30451   5.160   4.096   3.522 -2.0019 -1.6347 -1.1874
  231MOL0     H30452   4.932   4.137   3.683 -2.6907 -2.0569  1.7403
  231MOL0     H30453   5.003   4.007   3.768  1.4988  2.7229  2.4344
  231MOL0     H30454   4.737   4.046   3.729  2.9336  2.0557 -2.6585
  231MOL0     H30455   4.518   3.981   3.680  1.5542  0.1604  1.4681
  231MOL0     H30456   4.129   3.982   3.425 -3.3855 -0.9097 -3.4384
  231MOL0     H30457   3.903   3.885   3.426 -1.5319 -0.3099  1.5020
  231MOL0     H30458   3.789   3.607   3.701  2.7165 -0.0822  0.6142
  231MOL0     H30459   3.804   3.478   3.585  0.9651 -0.3292  3.5863
  231MOL0     H30460   3.571   3.480   3.608  1.3208  0.0246  0.4071
  231MOL0     H30461   3.597   3.581   3.462  0.0441 -0.3189  0.2700
  231MOL0     H30462   3.575   3.795   3.613 -2.1532  1.3120  1.4655
  231MOL0     H30463   3.575   3.691   3.751 -1.8213 -1.2536  0.5026
  231MOL0     H30464   3.349   3.663   3.551  0.0462 -0.7750  0.4937
  231MOL0     H30465   3.355   3.614   3.721 -1.2998  0.5480 -0.9144
  231MOL0     H30466   3.222   3.823   3.654 -0.6684  0.2461  0.7210
  231MOL0     H30467   3.366   3.904   3.599  0.4037  1.1802  1.9332
  231MOL0     H30468   3.462   3.870   3.834 -0.0838  1.2405 -0.0427
  231MOL0     H30469   3.314   3.787   3.881  0.7796 -0.3873  0.3247
  231MOL0     H30470   3.359   4.076   3.801  2.5690 -3.8682 -0.2695
  231MOL0     H30471   3.190   4.007   3.826 -0.4889  0.6867  1.8256
  231MOL0     H30472   3.253   4.132   4.015 -1.3162 -0.6494 -2.8660
  231MOL0     H30473   3.399   4.020   4.049  0.8655  1.8650 -1.4587
  231MOL0     H30474   4.021   3.543   3.646  1.9779  0.0994  0.7660
  231MOL0     H30475   4.256   3.651   3.671 -0.4053 -0.0461  1.7220
  231MOL0     H30476   4.666   3.713   3.362  1.8764  1.1986 -1.1892
  231MOL0     H30477   4.891   3.787   3.419 -0.9291 -0.0337 -0.5442
  231MOL0     H30478   6.515   3.642   4.015 -2.9060  0.0502  1.8344
  231MOL0     H30479   6.759   3.614   4.019 -2.6053 -0.8288 -0.7350
  231MOL0     H30480   7.110   3.305   4.337  0.9144  0.2822  0.3339
  231MOL0     H30481   7.327   3.288   4.430 -1.9440 -0.7196  0.4908
  231MOL0     H30482   7.439   3.548   4.611 -1.0998 -1.9288 -1.5000
  231MOL0     H30483   7.562   3.663   4.538 -0.1353  0.3934 -1.6655
  231MOL0     H30484   7.657   3.539   4.732  0.1160 -1.2100  0.3748
  231MOL0     H30485   7.607   3.389   4.656 -0.6445  0.1146  1.0385
  231MOL0     H30486   7.821   3.565   4.531  3.6490  0.2313  4.6800
  231MOL0     H30487   7.763   3.397   4.480 -0.3018  0.4453  1.0912
  231MOL0     H30488   7.896   3.501   4.726  1.0185 -0.7542  1.0490
  231MOL0     H30489   7.838   3.332   4.716  0.0963 -1.6222 -0.7998
  231MOL0     H30490   8.217   3.321   4.538  0.6683 -1.1362 -0.6126
  231MOL0     H30491   7.401   3.695   4.297  0.9663 -0.0850  0.1795
  231MOL0     H30492   7.161   3.717   4.241 -4.6065 -2.7471 -0.8465
  232MOL0     O30493   2.355   3.660  10.445 -0.1239  0.5631  0.5241
  232MOL0     C30494   2.419   3.605  10.355  0.2228 -0.3529  0.1580
  232MOL0     O30495   2.376   3.504  10.284  0.2007  0.8227  0.0239
  232MOL0     C30496   2.241   3.464  10.301  0.1679 -0.3089 -0.6564
  232MOL0     C30497   2.192   3.357  10.380  0.5017 -0.1683  0.8730
  232MOL0     C30498   2.057   3.335  10.389 -0.3758 -0.8896 -0.2702
  232MOL0     C30499   1.960   3.418  10.330 -0.9647  0.2939  0.2764
  232MOL0     O30500   1.825   3.393  10.342  0.1966 -0.1209 -0.6114
  232MOL0     C30501   1.793   3.257  10.297 -0.6681 -0.7797  0.1519
  232MOL0     C30502   1.652   3.237  10.261 -0.5824  0.4400  0.9685
  232MOL0     C30503   1.565   3.233  10.387  0.3760 -0.2794  0.1209
  232MOL0     C30504   1.417   3.235  10.356  0.5350  1.0496  0.0849
  232MOL0     C30505   1.332   3.210  10.487 -0.2130 -1.3608  1.0359
  232MOL0     C30506   1.210   3.299  10.490  0.0304  1.1129 -0.6178
  232MOL0     C30507   1.137   3.265  10.623 -0.7889 -0.5283 -0.0441
  232MOL0     C30508   1.008   3.345  10.624  0.6266 -0.8122 -0.2147
  232MOL0     N30509   0.947   3.356  10.756 -0.7151  0.3268  0.3012
  232MOL0     C30510   0.827   3.418  10.788  0.6203  0.2725  0.0337
  232MOL0     C30511   0.822   3.405  10.923 -0.2324  0.6610 -0.4889
  232MOL0     C30512   0.713   3.447  11.016  0.0475  0.0780 -0.0621
  232MOL0     C30513   0.587   3.366  10.993  0.2494  0.2756 -0.2002
  232MOL0     C30514   0.481   3.447  11.051  0.8077  0.1773  0.9113
  232MOL0     C30515   0.333   3.388  11.025 -0.5580  0.0383 -0.8404
  232MOL0     O30516   0.282   3.431  10.897  0.1390  0.3266 -0.6682
  232MOL0     C30517   0.144   3.462  10.903  0.0331  0.5675  0.2677
  232MOL0     C30518   0.049   3.394  10.983  0.7637 -0.8481 -0.2663
  232MOL0     C30519  -0.089   3.416  10.972 -0.1962 -0.3464 -0.9056
  232MOL0     C30520  -0.125   3.504  10.866  0.9630 -0.4421  0.4494
  232MOL0     C30521  -0.275   3.520  10.827  0.0696 -0.7158 -0.7968
  232MOL0     O30522  -0.366   3.452  10.892 -0.5428 -0.4954  0.4510
  232MOL0     C30523  -0.500   3.458  10.875 -0.5162  0.7382 -0.6266
  232MOL0     C30524  -0.562   3.444  11.004 -0.3930  0.1145 -0.2925
  232MOL0     C30525  -0.698   3.469  11.013  0.6208  0.6223 -0.7282
  232MOL0     C30526  -0.775   3.490  10.899 -0.3447  0.2324 -0.1951
  232MOL0     O30527  -0.909   3.514  10.922 -0.0712  0.6319  0.5263
  232MOL0     C30528  -0.975   3.606  10.823  0.1653 -0.4290 -0.0020
  232MOL0     C30529  -1.092   3.678  10.886 -0.4750 -0.0960  0.1724
  232MOL0     C30530  -1.184   3.742  10.780  0.2308  0.1595  0.1137
  232MOL0     C30531  -1.285   3.844  10.828  0.1565  0.2853 -0.2950
  232MOL0     C30532  -1.381   3.896  10.724  0.2147  0.1199 -0.3454
  232MOL0     C30533  -1.480   4.007  10.778 -0.0261 -0.0303  0.1832
  232MOL0     C30534  -1.410   4.136  10.818  0.0262 -0.9125  0.6147
  232MOL0     C30535  -1.505   4.238  10.896  1.1397 -0.7470  0.4167
  232MOL0    Cl30536  -1.621   4.331  10.784 -0.1026  0.3048  0.2741
  232MOL0     C30537  -0.715   3.467  10.776  0.1854 -0.5814  0.0910
  232MOL0     C30538  -0.583   3.470  10.757 -0.4005 -0.3857  0.2003
  232MOL0     O30539  -0.303   3.600  10.738 -0.1138  0.2917  0.3223
  232MOL0     C30540  -0.034   3.576  10.789 -0.1248  0.1996  0.5906
  232MOL0     C30541   0.097   3.556  10.809 -0.4090 -0.7640  0.1019
  232MOL0     N30542   0.933   3.350  10.968 -0.4910 -0.0441 -1.4541
  232MOL0     N30543   1.004   3.322  10.869 -0.1896  0.0080  0.0632
  232MOL0     C30544   2.003   3.523  10.256 -0.1429  0.7058  0.9932
  232MOL0     C30545   2.139   3.545  10.238 -0.1543  0.9719  0.2802
  232MOL0     C30546   2.556   3.648  10.315  0.6038  0.2185  0.3771
  232MOL0     C30547   2.624   3.576  10.216 -0.1978  0.1286 -0.6681
  232MOL0     C30548   2.747   3.627  10.171  0.7267 -0.7332 -0.6862
  232MOL0     C30549   2.809   3.739  10.231 -0.1872  0.9269  0.1952
  232MOL0     O30550   2.939   3.788  10.198 -0.4502  1.2642 -0.2109
  232MOL0     C30551   3.005   3.880  10.285 -0.0281  0.4213 -0.4314
  232MOL0     C30552   3.118   3.929  10.194  0.2160  0.1013  0.4518
  232MOL0     C30553   3.056   4.031  10.093  0.2000  0.6915 -0.2573
  232MOL0     C30554   3.144   4.082   9.983 -0.4594 -0.1635 -0.1455
  232MOL0     C30555   3.276   4.113  10.031  0.2429  0.1713 -0.1283
  232MOL0     C30556   3.381   4.160  10.070  0.0288  0.3712 -0.0189
  232MOL0     C30557   2.749   3.792  10.343 -0.2368 -0.2774 -0.2657
  232MOL0     C30558   2.618   3.757  10.388 -0.1325  0.2600  0.7912
  232MOL0     H30559   2.257   3.293  10.439  3.2150 -0.1526 -1.8744
  232MOL0     H30560   2.023   3.272  10.470 -1.1995  1.8653  1.6581
  232MOL0     H30561   1.819   3.187  10.378 -2.1760  1.0616  2.3565
  232MOL0     H30562   1.843   3.222  10.206 -4.6080 -0.9803 -2.1332
  232MOL0     H30563   1.632   3.149  10.198  2.9400 -0.9454  1.5380
  232MOL0     H30564   1.620   3.323  10.203  1.9611  1.1501  0.4797
  232MOL0     H30565   1.598   3.323  10.439 -2.8574  1.2692 -0.2950
  232MOL0     H30566   1.592   3.144  10.445  0.7322 -1.2647 -1.4914
  232MOL0     H30567   1.377   3.328  10.315  1.0044  1.9190  1.5352
  232MOL0     H30568   1.399   3.159  10.279 -1.1323  2.5396 -1.0746
  232MOL0     H30569   1.399   3.232  10.571 -0.1675  0.5687  0.5310
  232MOL0     H30570   1.303   3.104  10.488 -1.7773 -0.9848 -0.4574
  232MOL0     H30571   1.155   3.255  10.406 -0.3522  0.6895 -0.1573
  232MOL0     H30572   1.222   3.405  10.467 -1.7153  1.0875 -1.8459
  232MOL0     H30573   1.120   3.157  10.633 -2.6875 -0.4443 -1.7165
  232MOL0     H30574   1.193   3.296  10.711 -1.1910 -2.4721  0.9633
  232MOL0     H30575   0.944   3.290  10.554 -0.2546  1.1759 -1.0494
  232MOL0     H30576   1.033   3.439  10.574  3.6829 -3.3560 -4.1631
  232MOL0     H30577   0.747   3.459  10.727  0.0055 -0.3019  0.4514
  232MOL0     H30578   0.708   3.553  10.988 -0.6483  0.3101  0.9037
  232MOL0     H30579   0.734   3.436  11.122  0.3975  1.4688  0.0427
  232MOL0     H30580   0.584   3.268  11.042 -0.2450 -0.4564 -1.6462
  232MOL0     H30581   0.568   3.365  10.886 -1.5253 -0.8192  0.0825
  232MOL0     H30582   0.496   3.456  11.159  2.5096 -1.6146  0.8885
  232MOL0     H30583   0.491   3.542  10.998  0.3703 -0.5888 -0.6051
  232MOL0     H30584   0.271   3.418  11.110 -0.0969  1.8132 -1.0879
  232MOL0     H30585   0.346   3.279  11.035  1.6042  0.3485  0.3876
  232MOL0     H30586   0.078   3.324  11.061  0.9324  1.2255  1.6515
  232MOL0     H30587  -0.159   3.381  11.047  0.2111  1.1041  0.1971
  232MOL0     H30588  -0.498   3.430  11.090 -0.2447 -0.0372 -0.4292
  232MOL0     H30589  -0.744   3.471  11.111 -0.7876  1.1133 -1.3738
  232MOL0     H30590  -1.003   3.543  10.738  3.1092 -1.0427 -0.6530
  232MOL0     H30591  -0.898   3.673  10.781 -2.0537  1.2247 -1.6754
  232MOL0     H30592  -1.043   3.757  10.943  0.3982  0.2740 -1.0451
  232MOL0     H30593  -1.143   3.608  10.954 -0.5685  0.3865  0.6005
  232MOL0     H30594  -1.232   3.656  10.731  0.5491  0.6910 -1.1707
  232MOL0     H30595  -1.121   3.793  10.707  2.3533  0.3515  1.9836
  232MOL0     H30596  -1.336   3.794  10.911  0.2243  0.4971 -0.1224
  232MOL0     H30597  -1.223   3.923  10.873  1.7590 -1.4585  0.7428
  232MOL0     H30598  -1.436   3.812  10.681  1.1219  0.4344 -2.2052
  232MOL0     H30599  -1.335   3.946  10.638  0.2143  1.8472  0.6139
  232MOL0     H30600  -1.532   3.976  10.869  0.9823  0.1541  0.8329
  232MOL0     H30601  -1.557   4.018  10.701  0.8247  0.8219 -0.5757
  232MOL0     H30602  -1.320   4.117  10.877  1.2835  0.8297 -0.6333
  232MOL0     H30603  -1.365   4.184  10.731 -0.0930  0.7419  1.4360
  232MOL0     H30604  -1.448   4.318  10.944 -0.8556  3.0510 -2.9196
  232MOL0     H30605  -1.574   4.188  10.964 -2.4527  0.1199 -2.2749
  232MOL0     H30606  -0.792   3.468  10.700  1.4295  0.2753 -1.2021
  232MOL0     H30607  -0.540   3.501  10.662 -1.4128 -0.3017 -0.2476
  232MOL0     H30608  -0.064   3.643  10.709  1.5794  0.8400  0.4591
  232MOL0     H30609   0.170   3.591  10.736 -0.6379 -1.2918 -0.3885
  232MOL0     H30610   1.942   3.601  10.211  0.1103  0.7652  0.7529
  232MOL0     H30611   2.172   3.630  10.179 -3.4834  2.0528 -0.2882
  232MOL0     H30612   2.583   3.484  10.176 -0.3988 -1.1951  2.3343
  232MOL0     H30613   2.800   3.573  10.094  0.3325  0.5820 -1.9270
  232MOL0     H30614   3.044   3.833  10.376  3.6778 -0.1447 -2.1691
  232MOL0     H30615   2.938   3.963  10.311  2.3117  2.1120  0.5510
  232MOL0     H30616   3.198   3.984  10.246 -0.2162  0.3019  0.9120
  232MOL0     H30617   3.159   3.840  10.146 -2.2366 -0.9550  0.1921
  232MOL0     H30618   3.021   4.113  10.156  1.1426 -1.2648  3.0537
  232MOL0     H30619   2.968   3.988  10.044  0.6170  1.3624 -1.6702
  232MOL0     H30620   3.156   4.019   9.894  0.0431 -0.3388  0.0413
  232MOL0     H30621   3.095   4.175   9.953  0.6680 -0.0742 -1.8231
  232MOL0     H30622   3.465   4.215  10.107 -0.2610 -0.2241  1.6004
  232MOL0     H30623   2.788   3.875  10.401  0.0193 -0.6397  0.0786
  232MOL0     H30624   2.573   3.806  10.474 -2.5120 -1.0333  0.3750
  233MOL0     O30625   3.235   8.818   2.206 -0.4381 -0.0803  0.9709
  233MOL0     C30626   3.269   8.783   2.094 -0.2765  0.1214  0.1461
  233MOL0     O30627   3.195   8.793   1.975 -0.5950  0.1110  0.1268
  233MOL0     C30628   3.061   8.837   1.985 -0.2858  0.5244 -0.6332
  233MOL0     C30629   2.966   8.759   2.053 -0.4733  1.1299 -0.1984
  233MOL0     C30630   2.836   8.800   2.064  0.1391  0.0383  0.6845
  233MOL0     C30631   2.792   8.924   2.011 -0.6883 -0.9287 -0.3293
  233MOL0     O30632   2.662   8.976   2.027  0.5162  0.1278 -0.7210
  233MOL0     C30633   2.567   8.892   2.107 -0.4457  0.1988 -0.7986
  233MOL0     C30634   2.419   8.938   2.094 -0.8056 -0.6749  0.0176
  233MOL0     C30635   2.324   8.849   2.169  0.2365 -0.7160  0.3127
  233MOL0     C30636   2.181   8.895   2.154 -0.6126 -1.0185 -0.2327
  233MOL0     C30637   2.099   8.851   2.277  0.2773 -0.4542  0.2916
  233MOL0     C30638   1.954   8.884   2.249 -1.3549 -0.0960  0.8194
  233MOL0     C30639   1.861   8.866   2.378  0.3085 -0.8220  0.3009
  233MOL0     C30640   1.710   8.844   2.355  0.6529 -0.5099 -0.1408
  233MOL0     N30641   1.645   8.954   2.268 -0.1312  0.3796  0.3862
  233MOL0     C30642   1.618   9.081   2.298 -0.0779  0.7058  0.2036
  233MOL0     C30643   1.567   9.132   2.182 -0.2479 -0.2127 -0.6770
  233MOL0     C30644   1.544   9.272   2.137  1.2477 -0.4292 -0.2172
  233MOL0     C30645   1.398   9.323   2.119  0.5542  0.1268  0.7428
  233MOL0     C30646   1.306   9.235   2.043  0.7542  0.2569  0.3058
  233MOL0     C30647   1.160   9.279   2.027 -0.2651 -0.9529  0.2430
  233MOL0     O30648   1.110   9.359   2.128 -0.9595 -0.7654 -0.1233
  233MOL0     C30649   0.978   9.400   2.129 -0.4810 -0.1181  0.3814
  233MOL0     C30650   0.895   9.382   2.019 -0.6655 -0.4753  0.1149
  233MOL0     C30651   0.765   9.427   2.016 -0.2856  0.4248 -0.5608
  233MOL0     C30652   0.717   9.494   2.123  0.5756  0.1656 -0.0390
  233MOL0     C30653   0.583   9.546   2.132 -0.0000 -0.3901  0.3787
  233MOL0     O30654   0.531   9.572   2.254  0.0794  0.0272 -0.1876
  233MOL0     C30655   0.402   9.622   2.270 -1.0961 -0.7185 -0.1539
  233MOL0     C30656   0.387   9.743   2.338 -0.1530 -0.0823 -0.5920
  233MOL0     C30657   0.266   9.803   2.353 -0.7201  0.3426 -0.4158
  233MOL0     C30658   0.154   9.726   2.320  0.2797 -0.7886 -0.1265
  233MOL0     O30659   0.027   9.769   2.358 -0.2962 -0.2821  0.0097
  233MOL0     C30660   0.013   9.866   2.456 -0.0753 -0.2955 -0.9340
  233MOL0     C30661  -0.140   9.889   2.493  0.0559  0.8164  0.5317
  233MOL0     C30662  -0.218   9.926   2.363 -0.1332  0.2187 -0.1738
  233MOL0     C30663  -0.365   9.966   2.404 -0.0752  0.3341 -0.6051
  233MOL0     C30664  -0.466   9.989   2.292 -0.5969 -0.6642 -0.2478
  233MOL0     C30665  -0.592  10.058   2.334 -0.0291  0.1931  0.1905
  233MOL0     C30666  -0.693  10.055   2.225 -0.3355  0.6521 -0.2471
  233MOL0     C30667  -0.810  10.140   2.280  0.0970 -0.9559  0.8619
  233MOL0    Cl30668  -0.936  10.128   2.167  0.1226 -0.2771  0.2653
  233MOL0     C30669   0.169   9.614   2.230  0.4428  0.1131 -0.2980
  233MOL0     C30670   0.295   9.560   2.208 -0.3031 -0.0514 -0.1754
  233MOL0     O30671   0.528   9.565   2.024 -0.1179  0.3932  0.0151
  233MOL0     C30672   0.797   9.517   2.234  0.1532  0.3777 -0.1338
  233MOL0     C30673   0.928   9.462   2.236 -1.0239  0.0032  0.5346
  233MOL0     N30674   1.558   9.032   2.088 -0.7589  0.2002 -0.4392
  233MOL0     N30675   1.597   8.922   2.145  0.2859 -0.1482  0.0548
  233MOL0     C30676   2.886   9.008   1.954  0.6885 -0.2931 -0.0403
  233MOL0     C30677   3.015   8.962   1.932 -0.3908  0.1417 -0.0314
  233MOL0     C30678   3.408   8.721   2.086 -0.3569 -0.2924 -0.0860
  233MOL0     C30679   3.458   8.674   1.967 -0.4113 -0.7318 -0.5794
  233MOL0     C30680   3.592   8.642   1.954 -0.1707  0.2246  0.4921
  233MOL0     C30681   3.685   8.658   2.052 -0.4761 -0.5635 -0.0448
  233MOL0     O30682   3.809   8.626   2.020  0.1821  0.4412 -0.4793
  233MOL0     C30683   3.910   8.640   2.122 -0.8415  0.3965  0.5631
  233MOL0     C30684   4.031   8.561   2.077  0.1099  0.7945  0.3892
  233MOL0     C30685   4.109   8.619   1.960  0.1511 -0.6338 -0.0070
  233MOL0     C30686   4.242   8.533   1.937  0.2578 -0.2606 -0.4654
  233MOL0     C30687   4.336   8.573   1.835  0.8353 -0.6550 -0.5706
  233MOL0     C30688   4.429   8.618   1.765  0.5627  0.4044 -0.0343
  233MOL0     C30689   3.634   8.713   2.176 -0.3496  0.5057  0.2887
  233MOL0     C30690   3.500   8.739   2.190  0.1571  0.2470 -0.4858
  233MOL0     H30691   3.014   8.676   2.102  3.7722  0.8619 -4.1539
  233MOL0     H30692   2.776   8.735   2.126  1.8729 -1.4485  0.9065
  233MOL0     H30693   2.578   8.903   2.215 -1.2385 -3.1462 -0.2674
  233MOL0     H30694   2.573   8.785   2.085  0.4635  0.0115  0.2689
  233MOL0     H30695   2.400   8.942   1.986  1.4810  3.5861 -0.3953
  233MOL0     H30696   2.411   9.041   2.128 -0.0698 -1.3790  2.5598
  233MOL0     H30697   2.359   8.840   2.272  0.0338 -1.9000  0.2927
  233MOL0     H30698   2.324   8.746   2.131 -0.0976 -0.5989 -0.0166
  233MOL0     H30699   2.164   9.002   2.143 -2.3836 -0.7236  3.6396
  233MOL0     H30700   2.133   8.846   2.068  1.4258  0.3294 -2.2377
  233MOL0     H30701   2.125   8.914   2.364 -0.9770  1.5559 -0.7062
  233MOL0     H30702   2.118   8.748   2.308  0.5033  0.1317  2.2863
  233MOL0     H30703   1.922   8.822   2.165  0.4594 -1.0812  0.8043
  233MOL0     H30704   1.952   8.989   2.216  0.3857 -0.9019 -2.2701
  233MOL0     H30705   1.907   8.793   2.445 -2.3486  1.0258  4.5919
  233MOL0     H30706   1.872   8.963   2.427  0.3944 -0.8615  0.3591
  233MOL0     H30707   1.650   8.852   2.446 -2.8823  1.2972 -2.4040
  233MOL0     H30708   1.693   8.749   2.304 -3.0514 -0.1816  0.2052
  233MOL0     H30709   1.663   9.142   2.376  1.3334  1.2859 -1.0243
  233MOL0     H30710   1.608   9.288   2.050 -0.0742  0.1299 -1.1347
  233MOL0     H30711   1.586   9.343   2.208  1.1340 -1.5401  1.0111
  233MOL0     H30712   1.403   9.419   2.066  2.6795 -0.4299 -0.1336
  233MOL0     H30713   1.352   9.326   2.219 -0.8047 -2.2494  0.2529
  233MOL0     H30714   1.346   9.235   1.941 -0.5966  2.9000 -0.3140
  233MOL0     H30715   1.324   9.137   2.088  0.8099  0.2749  0.3222
  233MOL0     H30716   1.097   9.190   2.018  0.8547 -1.6156 -1.4940
  233MOL0     H30717   1.152   9.341   1.937 -0.0451  0.4452  1.1495
  233MOL0     H30718   0.945   9.346   1.929  2.0884  2.6996  0.1961
  233MOL0     H30719   0.702   9.418   1.928 -1.7919  0.3988  0.4834
  233MOL0     H30720   0.474   9.796   2.377 -1.7395  1.2804  1.3063
  233MOL0     H30721   0.266   9.895   2.410 -2.2225 -0.4495  0.9517
  233MOL0     H30722   0.056   9.958   2.415  2.2300 -2.0622 -2.7555
  233MOL0     H30723   0.072   9.845   2.546 -1.0366  1.3128  0.1305
  233MOL0     H30724  -0.145   9.960   2.577  2.6975  0.4287  1.1055
  233MOL0     H30725  -0.174   9.791   2.525  0.6998 -0.2215 -1.7449
  233MOL0     H30726  -0.215   9.851   2.283  0.2107  0.2397 -0.1837
  233MOL0     H30727  -0.165  10.005   2.310 -2.3130  0.2582 -2.4538
  233MOL0     H30728  -0.403   9.899   2.482  0.1509  3.5487  2.5700
  233MOL0     H30729  -0.362  10.062   2.457 -1.0972  0.4265 -0.7116
  233MOL0     H30730  -0.496   9.895   2.243  0.6996 -1.7104  0.8719
  233MOL0     H30731  -0.415  10.056   2.222  0.9871  1.0088  2.3723
  233MOL0     H30732  -0.565  10.163   2.353  0.7070  0.1317 -0.4480
  233MOL0     H30733  -0.636  10.021   2.427 -2.4997  0.7336 -0.6977
  233MOL0     H30734  -0.657  10.079   2.125  0.3181 -1.7776 -0.6704
  233MOL0     H30735  -0.723   9.950   2.215  2.0765 -0.1986  0.5815
  233MOL0     H30736  -0.782  10.246   2.285 -1.0493 -0.5196 -0.9417
  233MOL0     H30737  -0.833  10.097   2.378 -0.7888  0.2347  1.2062
  233MOL0     H30738   0.078   9.573   2.189  0.0651  0.8766 -0.2444
  233MOL0     H30739   0.307   9.472   2.146  2.0658  0.7879 -0.9974
  233MOL0     H30740   0.768   9.562   2.329 -1.4747 -1.6418  0.4043
  233MOL0     H30741   0.987   9.459   2.327 -1.2723  0.6100  0.7271
  233MOL0     H30742   2.869   9.102   1.903  0.9813 -1.1615 -1.8328
  233MOL0     H30743   3.093   9.015   1.879  1.5832  0.2969  2.8379
  233MOL0     H30744   3.396   8.671   1.877  0.7563 -1.4213 -1.3901
  233MOL0     H30745   3.612   8.599   1.857 -0.2876 -0.6758  0.8556
  233MOL0     H30746   3.882   8.607   2.222 -1.7806 -1.0804 -0.1579
  233MOL0     H30747   3.936   8.746   2.126 -2.0413  0.7864 -0.9824
  233MOL0     H30748   4.095   8.546   2.165 -2.2052 -0.7267  1.9259
  233MOL0     H30749   3.992   8.461   2.060 -0.8221  1.0256  1.1050
  233MOL0     H30750   4.140   8.718   1.995 -0.4554 -0.5906  0.4432
  233MOL0     H30751   4.050   8.623   1.868  0.1128  0.5048  0.0535
  233MOL0     H30752   4.309   8.551   2.022  0.4077 -2.2626 -0.1009
  233MOL0     H30753   4.223   8.425   1.935  2.8918 -0.7999 -0.5974
  233MOL0     H30754   4.508   8.660   1.706 -0.4351 -1.4395 -2.9157
  233MOL0     H30755   3.696   8.740   2.261  2.3135  3.2612 -2.2863
  233MOL0     H30756   3.472   8.772   2.289 -0.5640  0.3640 -0.7165
  234MOL0     O30757   5.458   8.883  10.538  0.3636  0.4152  0.5701
  234MOL0     C30758   5.477   8.957  10.629  0.1293  0.8726  0.8461
  234MOL0     O30759   5.410   9.070  10.644  0.7421 -0.0777  0.2124
  234MOL0     C30760   5.302   9.093  10.566 -0.1103  1.1953 -0.3626
  234MOL0     C30761   5.299   9.077  10.425 -0.0011 -0.4009 -0.2168
  234MOL0     C30762   5.184   9.099  10.350 -0.2964  0.5475 -0.5033
  234MOL0     C30763   5.063   9.127  10.417  0.4570 -0.5342 -0.5119
  234MOL0     O30764   4.950   9.140  10.347 -0.5515 -0.4575  0.7913
  234MOL0     C30765   4.885   9.007  10.318 -0.7395 -0.1713 -0.1448
  234MOL0     C30766   4.743   9.027  10.272  0.2628 -0.1541  0.3508
  234MOL0     C30767   4.645   9.109  10.366  0.1787  0.0829 -0.0574
  234MOL0     C30768   4.597   9.032  10.496  0.5176  0.0821  0.5199
  234MOL0     C30769   4.507   8.911  10.469 -0.4780  0.3362  0.2068
  234MOL0     C30770   4.442   8.860  10.601 -0.1841 -0.3186  0.3523
  234MOL0     C30771   4.338   8.758  10.562 -1.3516  0.0404 -0.7190
  234MOL0     C30772   4.250   8.715  10.680  0.3683 -0.7458  0.8641
  234MOL0     N30773   4.208   8.577  10.667  0.2938  0.0308 -0.7676
  234MOL0     C30774   4.092   8.535  10.594 -0.4965 -0.3277  0.0277
  234MOL0     C30775   4.109   8.400  10.571 -0.2086 -0.3888  0.6622
  234MOL0     C30776   4.015   8.316  10.487  0.2042  0.3944  0.1091
  234MOL0     C30777   3.911   8.375  10.382 -0.1619 -0.0024 -0.4065
  234MOL0     C30778   3.776   8.408  10.457 -0.1377  0.0943 -0.3371
  234MOL0     C30779   3.705   8.285  10.515  0.0698 -0.8183  0.2154
  234MOL0     O30780   3.687   8.185  10.416  0.2406 -0.4468  0.2535
  234MOL0     C30781   3.574   8.200  10.347  0.9324  0.0245  0.7130
  234MOL0     C30782   3.456   8.137  10.381 -0.7254  0.9899  0.0388
  234MOL0     C30783   3.336   8.139  10.307 -0.4291 -0.0092 -0.0885
  234MOL0     C30784   3.337   8.200  10.181  0.3669 -0.7265  0.2709
  234MOL0     C30785   3.211   8.197  10.105  0.0516 -0.1705 -0.0606
  234MOL0     O30786   3.109   8.119  10.145 -0.2160  0.5068  0.4211
  234MOL0     C30787   2.990   8.144  10.081  0.4316 -0.4089 -0.2606
  234MOL0     C30788   2.953   8.060   9.978  0.4357  0.0809 -0.6741
  234MOL0     C30789   2.844   8.094   9.898  0.2686 -0.0487  0.0347
  234MOL0     C30790   2.761   8.204   9.931  0.2920  0.8278  0.8587
  234MOL0     O30791   2.655   8.234   9.843  0.8724  0.1366 -0.3018
  234MOL0     C30792   2.582   8.364   9.864 -0.2339  0.0666 -0.1072
  234MOL0     C30793   2.485   8.396   9.749 -0.9096 -0.1770 -0.8512
  234MOL0     C30794   2.551   8.411   9.617 -0.6957  0.3410  0.3650
  234MOL0     C30795   2.462   8.483   9.513 -0.0502 -0.4098  0.2016
  234MOL0     C30796   2.510   8.447   9.369 -1.1010  0.1626 -0.3616
  234MOL0     C30797   2.654   8.500   9.335  0.0896 -0.8497  0.0668
  234MOL0     C30798   2.700   8.466   9.196  0.0342  0.4262 -0.3863
  234MOL0     C30799   2.621   8.542   9.094 -0.3869 -0.6001  0.7115
  234MOL0    Cl30800   2.695   8.700   9.069  0.1227 -0.3164  0.6384
  234MOL0     C30801   2.796   8.274  10.045 -0.6021  0.2052  0.2600
  234MOL0     C30802   2.910   8.252  10.124  0.0507 -0.2188  0.5761
  234MOL0     O30803   3.200   8.282  10.015  0.2521 -0.3221  0.1805
  234MOL0     C30804   3.456   8.258  10.133 -1.0077 -0.0350 -0.1587
  234MOL0     C30805   3.571   8.268  10.218  0.9104  0.4128 -0.2346
  234MOL0     N30806   4.231   8.359  10.629  1.1624 -1.1043 -0.1181
  234MOL0     N30807   4.278   8.461  10.690 -0.3070  0.2779 -0.3649
  234MOL0     C30808   5.065   9.141  10.553 -0.4391  0.3789 -0.6780
  234MOL0     C30809   5.184   9.135  10.629 -0.3355  0.3554  0.5115
  234MOL0     C30810   5.592   8.933  10.717 -0.1190  0.9102 -0.1540
  234MOL0     C30811   5.607   9.000  10.838  0.4060 -0.5763  0.0052
  234MOL0     C30812   5.709   8.975  10.925  0.0296 -0.5606 -0.2133
  234MOL0     C30813   5.817   8.888  10.890  0.0066 -0.7214  0.1621
  234MOL0     O30814   5.927   8.886  10.973  0.9968 -0.0762 -0.0785
  234MOL0     C30815   6.044   8.814  10.928  0.7316  0.6894 -1.0873
  234MOL0     C30816   6.153   8.862  11.023 -0.2404 -0.1651 -0.6643
  234MOL0     C30817   6.164   9.019  11.039  0.7768 -0.0293  0.1463
  234MOL0     C30818   6.286   9.054  11.133  0.4836  0.6892  0.5190
  234MOL0     C30819   6.267   8.995  11.266 -0.2996 -0.1978 -0.5174
  234MOL0     C30820   6.251   8.956  11.374 -0.3643  0.1802  0.2639
  234MOL0     C30821   5.814   8.822  10.768  0.2242  0.5465 -0.1724
  234MOL0     C30822   5.701   8.841  10.685  0.9727 -0.3959 -0.0539
  234MOL0     H30823   5.389   9.050  10.371 -0.1422 -3.3568  0.8369
  234MOL0     H30824   5.203   9.094  10.243  3.1286 -2.4857  0.0255
  234MOL0     H30825   4.886   8.929  10.395 -1.6161 -1.0910 -1.0235
  234MOL0     H30826   4.936   8.959  10.234 -2.4934  0.5762 -1.7043
  234MOL0     H30827   4.693   8.930  10.262 -0.8558  0.4057  0.3053
  234MOL0     H30828   4.731   9.073  10.173  1.7132 -2.2020 -0.8583
  234MOL0     H30829   4.553   9.129  10.309  0.4650  1.3092 -0.1289
  234MOL0     H30830   4.684   9.208  10.392 -1.1065  0.7129 -0.4181
  234MOL0     H30831   4.692   9.007  10.543  0.4866 -1.0171  0.0324
  234MOL0     H30832   4.544   9.106  10.556 -1.7201 -1.4235  0.5427
  234MOL0     H30833   4.566   8.830  10.425 -2.8284 -1.6001  0.4311
  234MOL0     H30834   4.427   8.951  10.405 -0.5994  1.5957  1.1225
  234MOL0     H30835   4.392   8.941  10.655  0.4907 -1.1245  2.2850
  234MOL0     H30836   4.522   8.832  10.670 -0.5906  1.7873  1.7592
  234MOL0     H30837   4.277   8.792  10.479 -1.4156  3.5134  0.5960
  234MOL0     H30838   4.391   8.669  10.525 -0.5537  0.9531 -1.8507
  234MOL0     H30839   4.160   8.777  10.682  0.3353 -0.7369 -0.1843
  234MOL0     H30840   4.297   8.726  10.778  0.9176  1.5807  0.3916
  234MOL0     H30841   4.015   8.603  10.559  1.3330  2.3780  0.9136
  234MOL0     H30842   3.967   8.239  10.549  0.0705 -0.8138 -1.4176
  234MOL0     H30843   4.093   8.261  10.432  0.0881  1.2912 -0.9878
  234MOL0     H30844   3.899   8.298  10.305  1.1920  0.1042 -0.7344
  234MOL0     H30845   3.955   8.460  10.331 -0.7765 -0.4153 -1.6565
  234MOL0     H30846   3.781   8.475  10.543  1.0196 -0.0877 -0.2458
  234MOL0     H30847   3.695   8.444  10.393  0.8348  3.1089 -0.0258
  234MOL0     H30848   3.611   8.313  10.563  0.1451  2.3341 -1.2406
  234MOL0     H30849   3.765   8.245  10.597 -0.6493  0.5412  1.4516
  234MOL0     H30850   3.472   8.085  10.475  0.9298  3.8452  1.4643
  234MOL0     H30851   3.244   8.095  10.345 -0.1145  0.1197  0.8585
  234MOL0     H30852   3.022   7.978   9.962 -0.5481 -0.8140 -0.4335
  234MOL0     H30853   2.830   8.029   9.812  1.2296 -0.4059  0.1294
  234MOL0     H30854   2.661   8.439   9.870  2.0474 -2.0760 -1.4571
  234MOL0     H30855   2.517   8.362   9.953 -3.9266  0.8802 -2.5675
  234MOL0     H30856   2.430   8.488   9.770  1.1006  1.4257 -2.2417
  234MOL0     H30857   2.407   8.319   9.756 -2.9224  1.8618  0.5046
  234MOL0     H30858   2.575   8.309   9.585  2.0933  0.2959  2.2851
  234MOL0     H30859   2.645   8.466   9.624 -0.5385  0.0090  0.9214
  234MOL0     H30860   2.358   8.451   9.521 -0.2395 -0.5720 -2.2663
  234MOL0     H30861   2.462   8.591   9.529  1.0689 -0.1222 -1.4261
  234MOL0     H30862   2.442   8.507   9.307 -2.4809  0.2756  1.1839
  234MOL0     H30863   2.507   8.338   9.360  1.8890 -0.1599  1.3055
  234MOL0     H30864   2.725   8.448   9.399 -1.8755 -0.9865  2.2795
  234MOL0     H30865   2.656   8.608   9.352 -1.3273 -0.5577 -1.3315
  234MOL0     H30866   2.803   8.501   9.193  0.2475 -0.1285  0.1635
  234MOL0     H30867   2.699   8.358   9.176 -0.1890 -0.0237  1.8014
  234MOL0     H30868   2.513   8.556   9.110 -0.3545 -1.2621  1.6597
  234MOL0     H30869   2.638   8.479   9.007  1.6515 -0.4505  0.9557
  234MOL0     H30870   2.727   8.350  10.080 -0.0004  0.6507  0.5084
  234MOL0     H30871   2.939   8.327  10.197  1.3375  0.5033 -0.6497
  234MOL0     H30872   3.462   8.313  10.040  1.2282  0.6821  0.3250
  234MOL0     H30873   3.658   8.332  10.204  1.8135 -0.6974  0.1707
  234MOL0     H30874   4.979   9.172  10.611  0.9674  0.6262  1.3704
  234MOL0     H30875   5.186   9.164  10.733  0.8501  1.5568  0.1764
  234MOL0     H30876   5.526   9.065  10.870 -1.0893 -1.6025 -1.5489
  234MOL0     H30877   5.716   9.030  11.019  0.8257  0.5669 -0.9154
  234MOL0     H30878   6.074   8.839  10.825  0.9836 -1.7501 -1.6676
  234MOL0     H30879   6.040   8.705  10.942 -1.9235  1.0905  2.9733
  234MOL0     H30880   6.126   8.822  11.121 -1.4652  2.2841  0.0934
  234MOL0     H30881   6.253   8.829  10.992  1.2742  1.9589  1.5263
  234MOL0     H30882   6.080   9.070  11.088  1.9201 -0.7547  3.1064
  234MOL0     H30883   6.174   9.053  10.936  0.2378  0.6633  0.3134
  234MOL0     H30884   6.373   9.014  11.080  0.4716  5.3277 -3.7086
  234MOL0     H30885   6.303   9.162  11.131  1.6222  0.5155 -0.0903
  234MOL0     H30886   6.223   8.903  11.463 -1.0345  1.1946  0.6746
  234MOL0     H30887   5.886   8.746  10.742  0.7618  0.5909  1.1177
  234MOL0     H30888   5.710   8.795  10.588  3.3052  0.9746 -0.5716
  235MOL0     O30889   5.159   3.852   8.069  0.2042  0.1149  0.1221
  235MOL0     C30890   5.249   3.812   7.994  0.2498  0.0956 -0.4889
  235MOL0     O30891   5.248   3.806   7.858  0.4563 -1.2580  0.4560
  235MOL0     C30892   5.139   3.862   7.799 -0.1196 -0.6605  0.9888
  235MOL0     C30893   5.133   3.991   7.737  0.2094 -0.4020 -0.5682
  235MOL0     C30894   5.020   4.027   7.660  0.4735 -0.1320 -0.1405
  235MOL0     C30895   4.913   3.934   7.638 -0.1189 -0.1713  0.2958
  235MOL0     O30896   4.797   3.977   7.581  0.3716 -0.0179 -0.5233
  235MOL0     C30897   4.664   3.922   7.604 -0.2891  0.8177  0.6935
  235MOL0     C30898   4.582   4.000   7.498  0.4009  0.8413  0.0484
  235MOL0     C30899   4.480   4.107   7.555  0.3263  0.4300 -0.3924
  235MOL0     C30900   4.389   4.153   7.443  0.7030  0.5492  0.2792
  235MOL0     C30901   4.275   4.233   7.510 -1.0947  0.0933 -0.2938
  235MOL0     C30902   4.209   4.330   7.417  0.1383 -0.6060  0.6468
  235MOL0     C30903   4.088   4.396   7.478 -0.2353  0.0357 -0.6895
  235MOL0     C30904   3.966   4.286   7.499 -0.3467 -0.8406  0.3758
  235MOL0     N30905   3.920   4.231   7.372  0.2538  0.0588 -0.3680
  235MOL0     C30906   3.849   4.307   7.281 -0.5291 -0.4138  0.4654
  235MOL0     C30907   3.820   4.226   7.177  0.1911  0.1706 -0.3046
  235MOL0     C30908   3.750   4.266   7.046 -0.3769 -0.3019 -0.0946
  235MOL0     C30909   3.604   4.213   7.042  1.1179  0.1349  0.1927
  235MOL0     C30910   3.561   4.180   6.895 -1.1110 -0.0235  0.0027
  235MOL0     C30911   3.415   4.142   6.878 -0.8771 -0.7028  0.0418
  235MOL0     O30912   3.375   4.024   6.958 -0.4313  0.1436 -0.6889
  235MOL0     C30913   3.247   3.979   6.955  0.4798 -0.2663  0.0438
  235MOL0     C30914   3.217   3.862   7.015  1.1703 -0.6241  0.2429
  235MOL0     C30915   3.088   3.810   7.011  0.2082  0.5203 -0.4119
  235MOL0     C30916   2.986   3.882   6.955 -1.0948 -0.1407  0.3159
  235MOL0     C30917   2.848   3.818   6.943  1.8360  1.1683 -0.1818
  235MOL0     O30918   2.822   3.691   6.997 -0.1581  0.0003  0.2175
  235MOL0     C30919   2.691   3.643   7.015  0.2623 -0.3029 -0.8016
  235MOL0     C30920   2.674   3.512   7.015 -0.2755 -0.0256  0.4192
  235MOL0     C30921   2.552   3.453   7.025  0.1692 -0.7381  0.0329
  235MOL0     C30922   2.436   3.535   7.022 -0.0717 -0.1123  0.5933
  235MOL0     O30923   2.317   3.472   7.049  1.1175  1.0428 -0.3805
  235MOL0     C30924   2.195   3.533   6.996 -0.2022 -0.3273 -0.4555
  235MOL0     C30925   2.080   3.447   7.044  0.3684 -0.2031 -0.0966
  235MOL0     C30926   1.937   3.499   7.003 -0.0767  0.0983 -0.2946
  235MOL0     C30927   1.830   3.442   7.095 -0.0425  0.0472 -0.2938
  235MOL0     C30928   1.701   3.520   7.118 -0.3761 -0.3272  0.2211
  235MOL0     C30929   1.641   3.545   6.986 -0.2323  0.0260  0.0531
  235MOL0     C30930   1.499   3.592   7.002 -0.2245  0.2401 -0.5501
  235MOL0     C30931   1.439   3.608   6.867  0.0618 -0.1270  0.5103
  235MOL0    Cl30932   1.414   3.448   6.774  0.0778 -0.2481  0.3365
  235MOL0     C30933   2.456   3.674   7.018  0.1674 -0.1430  0.9687
  235MOL0     C30934   2.583   3.730   7.033  0.6186  0.2572  0.7197
  235MOL0     O30935   2.767   3.881   6.879 -0.2962  0.2457  0.2888
  235MOL0     C30936   3.014   3.996   6.884 -0.4482 -1.0640 -0.4148
  235MOL0     C30937   3.147   4.042   6.886  0.6309 -0.0617 -0.6450
  235MOL0     N30938   3.862   4.093   7.222  0.0513 -0.4857  0.1187
  235MOL0     N30939   3.927   4.102   7.336 -0.5785  0.5869  0.0050
  235MOL0     C30940   4.929   3.810   7.690  0.1305  0.8365  0.4798
  235MOL0     C30941   5.038   3.774   7.770  0.9136 -0.0887 -0.6367
  235MOL0     C30942   5.381   3.785   8.051 -0.2882  1.0292  0.2499
  235MOL0     C30943   5.396   3.795   8.191  0.1131 -0.9400 -0.6443
  235MOL0     C30944   5.518   3.800   8.253 -0.0291  1.2309  0.3070
  235MOL0     C30945   5.640   3.785   8.173  0.4401 -0.9593  0.5852
  235MOL0     O30946   5.769   3.787   8.213  0.0341 -0.0738 -0.3375
  235MOL0     C30947   5.787   3.752   8.348 -0.1033  0.1942 -0.4256
  235MOL0     C30948   5.921   3.788   8.418 -0.6755 -0.7115 -0.0702
  235MOL0     C30949   6.039   3.763   8.326 -0.1098  0.5050  0.5040
  235MOL0     C30950   6.170   3.818   8.379  0.5620 -0.2885  0.2490
  235MOL0     C30951   6.240   3.728   8.470  0.1773 -0.7118 -0.0041
  235MOL0     C30952   6.300   3.661   8.548  0.0122  0.1205  0.5351
  235MOL0     C30953   5.627   3.774   8.029  0.1485  0.9094  0.1439
  235MOL0     C30954   5.502   3.784   7.974  0.4134 -0.3256  0.0196
  235MOL0     H30955   5.208   4.068   7.730 -3.3874  3.4020 -1.3472
  235MOL0     H30956   5.021   4.126   7.615  0.7465  0.0965  0.3637
  235MOL0     H30957   4.640   3.929   7.710 -0.8670 -3.0393  0.9626
  235MOL0     H30958   4.659   3.817   7.574  2.4014  1.0585 -0.8867
  235MOL0     H30959   4.519   3.928   7.446  0.0213  2.5090 -1.9301
  235MOL0     H30960   4.645   4.045   7.420 -0.3616  1.6753 -0.1076
  235MOL0     H30961   4.540   4.193   7.587 -1.7018  1.5363  0.6376
  235MOL0     H30962   4.428   4.061   7.640  0.7927 -0.9762 -0.8441
  235MOL0     H30963   4.448   4.220   7.380 -0.7026  0.2148 -1.4815
  235MOL0     H30964   4.348   4.069   7.387  1.2198 -1.1171  2.2987
  235MOL0     H30965   4.311   4.281   7.602 -1.9685 -0.2198  0.2277
  235MOL0     H30966   4.195   4.167   7.545 -2.0652  2.1266  1.5135
  235MOL0     H30967   4.189   4.278   7.323  1.0739 -1.1752  0.7496
  235MOL0     H30968   4.276   4.408   7.379  0.1395 -2.3333 -3.4453
  235MOL0     H30969   4.125   4.439   7.572  1.9811 -1.5369 -0.7594
  235MOL0     H30970   4.061   4.476   7.408 -0.7691  2.3603  1.9882
  235MOL0     H30971   3.890   4.343   7.552 -0.7260  2.4221 -3.2287
  235MOL0     H30972   3.987   4.203   7.567 -2.9806  0.5333  3.0636
  235MOL0     H30973   3.828   4.413   7.279  0.6495 -0.1289 -2.5246
  235MOL0     H30974   3.801   4.229   6.957 -0.4476  0.3120 -0.3993
  235MOL0     H30975   3.756   4.376   7.048  2.6282 -0.3057 -2.3337
  235MOL0     H30976   3.541   4.293   7.083  3.8361  2.6086 -0.1344
  235MOL0     H30977   3.600   4.122   7.101 -0.2341 -0.2327 -0.4310
  235MOL0     H30978   3.577   4.262   6.825  2.5512 -2.7931 -2.7998
  235MOL0     H30979   3.617   4.094   6.858 -2.8538 -1.4614  0.5589
  235MOL0     H30980   3.394   4.118   6.773 -0.1111  0.5346 -0.4062
  235MOL0     H30981   3.359   4.229   6.912 -0.0356 -0.2077  0.1766
  235MOL0     H30982   3.303   3.804   7.048  0.5240 -1.4811  0.4412
  235MOL0     H30983   3.066   3.714   7.055 -1.7858  1.2317  0.2757
  235MOL0     H30984   2.764   3.455   6.997 -0.7959  0.0152 -3.1304
  235MOL0     H30985   2.556   3.345   7.037 -0.3615 -0.5883  1.7503
  235MOL0     H30986   2.207   3.539   6.888  2.3339  1.1097 -0.1733
  235MOL0     H30987   2.197   3.631   7.046  3.2855 -0.6839  0.3613
  235MOL0     H30988   2.090   3.467   7.151  1.4090  1.9342 -0.5324
  235MOL0     H30989   2.102   3.342   7.025  2.0065  0.2855 -0.9899
  235MOL0     H30990   1.908   3.481   6.899 -0.6037  2.6325 -0.6413
  235MOL0     H30991   1.939   3.608   7.008  0.7529  0.1301 -0.9712
  235MOL0     H30992   1.788   3.347   7.062 -0.3837 -0.9395  2.6204
  235MOL0     H30993   1.871   3.427   7.196 -0.2377 -1.3539 -0.3948
  235MOL0     H30994   1.737   3.613   7.165  0.6903 -0.4537 -0.2986
  235MOL0     H30995   1.633   3.459   7.178  0.1059  0.2501  1.3926
  235MOL0     H30996   1.637   3.446   6.941 -0.1239 -1.2271  2.6527
  235MOL0     H30997   1.709   3.612   6.932  0.9085 -3.1137 -2.7035
  235MOL0     H30998   1.444   3.512   7.053  1.9893 -1.5579 -0.8753
  235MOL0     H30999   1.477   3.683   7.059 -0.9149 -1.4970  2.1622
  235MOL0     H31000   1.512   3.663   6.808  2.0834 -0.3006  2.7039
  235MOL0     H31001   1.346   3.666   6.867  1.0701  1.9982 -4.4639
  235MOL0     H31002   2.368   3.737   7.028 -0.5957 -0.5308 -2.4400
  235MOL0     H31003   2.594   3.838   7.043  1.7741  0.0765  1.6707
  235MOL0     H31004   2.938   4.043   6.822  0.1909 -1.4502 -1.5078
  235MOL0     H31005   3.166   4.142   6.848  1.3005 -0.0413 -0.2805
  235MOL0     H31006   4.851   3.740   7.662  0.7316 -0.2796  1.5317
  235MOL0     H31007   5.030   3.672   7.804 -0.8530  0.6550  1.4226
  235MOL0     H31008   5.314   3.822   8.258  0.8379 -1.0120  0.2886
  235MOL0     H31009   5.522   3.819   8.360  1.2510  1.9161  0.1510
  235MOL0     H31010   5.761   3.646   8.355  1.5033 -0.3191 -1.5743
  235MOL0     H31011   5.715   3.814   8.402  0.5415  0.1060  0.5603
  235MOL0     H31012   5.918   3.896   8.434 -0.2416  0.1553 -4.4877
  235MOL0     H31013   5.923   3.729   8.510  0.4098 -1.9725 -0.8642
  235MOL0     H31014   6.017   3.818   8.234 -1.1300  1.0952  1.0875
  235MOL0     H31015   6.060   3.659   8.301 -0.8690  0.6711 -0.9184
  235MOL0     H31016   6.238   3.839   8.296  2.6156 -2.6432  1.2205
  235MOL0     H31017   6.135   3.908   8.431 -1.1194 -0.4841 -0.4658
  235MOL0     H31018   6.360   3.606   8.618 -0.6996  1.7750  2.5801
  235MOL0     H31019   5.712   3.767   7.962 -1.0851  0.6665 -1.4567
  235MOL0     H31020   5.484   3.787   7.867 -1.3522  0.9964  0.3012
  236MOL0     O31021   0.497   7.135   2.253  0.1149  0.5979 -0.2927
  236MOL0     C31022   0.540   7.182   2.145  0.2484 -0.0206 -0.2198
  236MOL0     O31023   0.462   7.244   2.045  0.3832 -0.4415  0.1199
  236MOL0     C31024   0.328   7.241   2.049  0.2146  0.6325 -0.1721
  236MOL0     C31025   0.261   7.297   2.155  0.2020  0.0451  0.4374
  236MOL0     C31026   0.123   7.300   2.163 -0.2118  0.8273 -0.4240
  236MOL0     C31027   0.046   7.218   2.069 -0.7960  0.3457  0.1800
  236MOL0     O31028  -0.084   7.185   2.102  0.2627 -0.3369 -0.1253
  236MOL0     C31029  -0.151   7.067   2.040 -0.5106 -0.7284  0.2548
  236MOL0     C31030  -0.259   7.007   2.118 -0.5508  0.6121 -0.0878
  236MOL0     C31031  -0.374   7.110   2.116  0.5815  0.0386  0.9230
  236MOL0     C31032  -0.477   7.084   2.227  0.0703 -0.0092  0.4993
  236MOL0     C31033  -0.606   7.155   2.183  0.2349 -0.8272  0.5304
  236MOL0     C31034  -0.584   7.308   2.164  0.6486 -0.9311  0.2262
  236MOL0     C31035  -0.722   7.389   2.144 -0.4490 -0.0094 -0.3825
  236MOL0     C31036  -0.790   7.419   2.283  0.0872  0.7028 -0.3455
  236MOL0     N31037  -0.888   7.531   2.278 -0.3999  0.4809  0.1533
  236MOL0     C31038  -0.999   7.545   2.200  0.4027 -0.4148  0.4576
  236MOL0     C31039  -1.051   7.658   2.249 -1.2456 -0.2911 -0.5434
  236MOL0     C31040  -1.181   7.717   2.205 -0.0406  0.1978  0.2419
  236MOL0     C31041  -1.306   7.669   2.291  0.0073 -0.8656 -0.1130
  236MOL0     C31042  -1.314   7.742   2.425  0.6987  0.4073 -0.9343
  236MOL0     C31043  -1.433   7.698   2.518 -0.0042  0.0933  0.3268
  236MOL0     O31044  -1.554   7.743   2.451 -0.5189  0.3168  0.1138
  236MOL0     C31045  -1.660   7.761   2.533 -0.3475  0.1335 -0.3199
  236MOL0     C31046  -1.740   7.874   2.514  0.9031 -0.2620 -0.4797
  236MOL0     C31047  -1.847   7.897   2.597  0.1867 -0.0032 -0.1003
  236MOL0     C31048  -1.881   7.810   2.699 -0.2492 -0.2963 -0.1760
  236MOL0     C31049  -1.999   7.839   2.792 -0.2613  0.8272  0.3611
  236MOL0     O31050  -2.066   7.958   2.767 -0.2942 -0.0636  0.4457
  236MOL0     C31051  -2.182   7.985   2.828 -0.8864 -0.0847 -0.8885
  236MOL0     C31052  -2.288   7.900   2.807 -0.4589  0.5588  0.0104
  236MOL0     C31053  -2.417   7.943   2.841  0.9044  0.0694 -0.3839
  236MOL0     C31054  -2.437   8.061   2.902 -0.2405 -0.5342 -0.7241
  236MOL0     O31055  -2.568   8.077   2.943  0.1505  0.4509  0.1766
  236MOL0     C31056  -2.614   8.208   2.901 -0.7371  0.5247 -0.3205
  236MOL0     C31057  -2.754   8.230   2.930  0.6282 -0.0747 -0.4100
  236MOL0     C31058  -2.825   8.137   2.834  0.4488 -0.2418  0.2685
  236MOL0     C31059  -2.982   8.148   2.847 -0.4763 -0.1989 -1.0475
  236MOL0     C31060  -3.044   8.041   2.755 -0.1948 -0.2991  0.1708
  236MOL0     C31061  -3.200   8.042   2.773 -0.6567 -1.6292  0.4336
  236MOL0     C31062  -3.278   7.956   2.670  0.1512 -0.8356  0.0702
  236MOL0     C31063  -3.425   7.966   2.707 -0.3270 -0.4185  0.9045
  236MOL0    Cl31064  -3.449   7.834   2.816 -0.2505  0.6241 -0.1809
  236MOL0     C31065  -2.330   8.146   2.932  0.4181  0.0569 -0.8863
  236MOL0     C31066  -2.201   8.106   2.891  0.5330 -0.0982  0.0870
  236MOL0     O31067  -2.044   7.753   2.870 -0.2311 -0.9565  0.1511
  236MOL0     C31068  -1.806   7.691   2.714 -0.5083 -0.0274  1.0425
  236MOL0     C31069  -1.699   7.670   2.622 -0.5214  0.4236 -0.2889
  236MOL0     N31070  -0.978   7.705   2.356 -1.0346  0.1197 -0.0557
  236MOL0     N31071  -0.880   7.631   2.372  0.3423  0.3625 -0.0814
  236MOL0     C31072   0.112   7.162   1.956 -0.2551 -0.1165  0.6779
  236MOL0     C31073   0.253   7.173   1.949 -0.9220  0.0073 -0.3265
  236MOL0     C31074   0.687   7.179   2.112 -0.1423  0.6870  0.0571
  236MOL0     C31075   0.775   7.160   2.212 -0.1578  0.6089  0.4900
  236MOL0     C31076   0.918   7.156   2.186 -0.0740  0.6645 -0.4473
  236MOL0     C31077   0.966   7.171   2.052 -0.3659  0.1122 -0.6378
  236MOL0     O31078   1.096   7.169   2.036  0.4104  0.5060  0.1829
  236MOL0     C31079   1.159   7.237   1.927  0.3852 -0.5940  0.3846
  236MOL0     C31080   1.314   7.227   1.935  0.6131 -0.4877 -0.4042
  236MOL0     C31081   1.381   7.261   1.801 -0.5887 -0.1905 -0.4020
  236MOL0     C31082   1.537   7.268   1.802  0.4352 -1.1175  0.4701
  236MOL0     C31083   1.598   7.381   1.884  0.2111 -0.2789 -0.1571
  236MOL0     C31084   1.662   7.463   1.939 -0.9085 -1.7006 -0.2913
  236MOL0     C31085   0.867   7.181   1.951 -0.4028  1.2628  0.0461
  236MOL0     C31086   0.730   7.187   1.985 -1.0135  0.1934  0.0216
  236MOL0     H31087   0.314   7.355   2.229 -2.2332  3.2008 -0.0541
  236MOL0     H31088   0.077   7.342   2.252  1.2391 -0.6850  1.1095
  236MOL0     H31089  -0.066   6.999   2.033  1.6377  1.6361  1.4003
  236MOL0     H31090  -0.190   7.096   1.942  2.8898 -3.3095 -2.1219
  236MOL0     H31091  -0.223   6.995   2.221  0.1158  1.4099 -0.2156
  236MOL0     H31092  -0.296   6.911   2.080 -0.6689  0.7566 -0.3421
  236MOL0     H31093  -0.421   7.106   2.018  3.1279  1.3901 -0.4697
  236MOL0     H31094  -0.327   7.209   2.121  1.3553 -0.2422 -0.4285
  236MOL0     H31095  -0.509   6.980   2.241 -0.4176  0.1430  0.5317
  236MOL0     H31096  -0.423   7.102   2.321  1.5442 -0.4448 -0.2411
  236MOL0     H31097  -0.688   7.136   2.253 -0.5319 -1.3341 -0.4767
  236MOL0     H31098  -0.653   7.115   2.092  1.4684  0.5825 -0.7794
  236MOL0     H31099  -0.521   7.324   2.077  1.7746  1.2871  1.3627
  236MOL0     H31100  -0.526   7.353   2.245  2.2184  0.1061 -1.4050
  236MOL0     H31101  -0.700   7.488   2.103 -3.7910  1.0760  0.1076
  236MOL0     H31102  -0.795   7.337   2.081  0.7826  0.3430 -2.1849
  236MOL0     H31103  -0.709   7.446   2.351  0.4415 -1.4794  0.1874
  236MOL0     H31104  -0.839   7.332   2.327  0.7076  0.3270 -0.3827
  236MOL0     H31105  -1.039   7.490   2.115  0.9131  0.1589 -0.1645
  236MOL0     H31106  -1.192   7.687   2.100 -1.9504  1.3022  0.0777
  236MOL0     H31107  -1.169   7.825   2.219  1.1961  0.2213 -0.8227
  236MOL0     H31108  -1.299   7.560   2.304 -1.2406 -1.2331 -2.1133
  236MOL0     H31109  -1.400   7.684   2.238 -0.3179  1.4549  0.9903
  236MOL0     H31110  -1.212   7.731   2.464  1.5492  2.6404 -2.2783
  236MOL0     H31111  -1.321   7.850   2.408  0.2100  0.4069 -0.7411
  236MOL0     H31112  -1.434   7.743   2.618 -2.2596 -3.5583  2.1275
  236MOL0     H31113  -1.436   7.589   2.525  1.7991  0.0930  2.9710
  236MOL0     H31114  -1.715   7.944   2.434 -0.6286  0.3909 -0.4244
  236MOL0     H31115  -1.901   7.990   2.582  2.1179  0.8286 -2.6352
  236MOL0     H31116  -2.269   7.803   2.763 -3.1393 -0.4813  0.9178
  236MOL0     H31117  -2.504   7.886   2.811 -1.3140  2.1978  1.6758
  236MOL0     H31118  -2.586   8.246   2.802 -0.1009  1.6405  0.2654
  236MOL0     H31119  -2.569   8.278   2.972 -3.2091  0.0343  1.8970
  236MOL0     H31120  -2.788   8.334   2.925 -1.4094 -0.7227 -0.7500
  236MOL0     H31121  -2.788   8.195   3.027 -2.5286 -1.0758 -1.7492
  236MOL0     H31122  -2.794   8.032   2.839 -0.0881 -0.4150 -0.0170
  236MOL0     H31123  -2.798   8.167   2.733 -1.5100 -1.3328 -0.6260
  236MOL0     H31124  -3.010   8.144   2.952 -0.7800 -0.6933 -1.1429
  236MOL0     H31125  -3.019   8.242   2.803 -1.5273 -0.8128 -1.5347
  236MOL0     H31126  -3.013   7.939   2.778  1.1296 -0.8966 -3.5547
  236MOL0     H31127  -3.024   8.069   2.651 -1.4145  1.3199  0.3474
  236MOL0     H31128  -3.229   8.147   2.766  0.4148 -1.2529  1.2745
  236MOL0     H31129  -3.226   8.018   2.876 -0.5190  1.2873  1.2452
  236MOL0     H31130  -3.265   7.990   2.567 -0.5154  0.0155  0.2584
  236MOL0     H31131  -3.242   7.853   2.671 -1.0766 -1.3222 -1.4414
  236MOL0     H31132  -3.502   7.953   2.630 -0.4630 -1.3815  1.1934
  236MOL0     H31133  -3.454   8.060   2.755  1.5762  0.9044 -0.3609
  236MOL0     H31134  -2.355   8.228   2.998 -0.3507 -1.4563  0.7990
  236MOL0     H31135  -2.117   8.172   2.912  0.0036  0.8653 -0.7326
  236MOL0     H31136  -1.819   7.614   2.790  0.1249 -1.2305 -0.0344
  236MOL0     H31137  -1.637   7.581   2.635 -1.0123  0.2341  0.9847
  236MOL0     H31138   0.053   7.108   1.883 -0.8617 -2.0394  2.4643
  236MOL0     H31139   0.283   7.136   1.851  0.2389  0.0909 -0.0053
  236MOL0     H31140   0.737   7.157   2.314 -2.0916 -1.3151 -0.2012
  236MOL0     H31141   0.978   7.158   2.277  0.9373  3.3737 -1.0913
  236MOL0     H31142   1.128   7.341   1.942 -1.2605 -1.3036  2.4618
  236MOL0     H31143   1.131   7.193   1.831  1.6115 -0.9038  0.1558
  236MOL0     H31144   1.345   7.295   2.014 -1.2267 -2.6662  2.4091
  236MOL0     H31145   1.347   7.125   1.957  3.2314  0.3543 -0.0903
  236MOL0     H31146   1.330   7.353   1.769  1.9036  1.8289  1.0575
  236MOL0     H31147   1.348   7.183   1.732  0.0568 -0.9919  0.1691
  236MOL0     H31148   1.552   7.171   1.849 -4.0421 -3.0026 -1.3664
  236MOL0     H31149   1.583   7.261   1.703  1.0497 -2.5577  0.8363
  236MOL0     H31150   1.713   7.544   1.987 -1.3873 -1.2450 -0.5330
  236MOL0     H31151   0.893   7.198   1.847 -1.9941 -0.4515 -0.7129
  236MOL0     H31152   0.658   7.204   1.905  0.4693  1.1917 -1.1545
  237MOL0     O31153   8.555   7.713   3.294  0.1818 -1.2686 -0.6318
  237MOL0     C31154   8.497   7.773   3.203  0.9554 -0.0751 -0.7332
  237MOL0     O31155   8.422   7.893   3.212  0.6183 -0.0228 -0.0047
  237MOL0     C31156   8.396   7.970   3.319 -0.1582  0.4985  0.1444
  237MOL0     C31157   8.491   7.991   3.425  0.1093 -0.5781 -0.2813
  237MOL0     C31158   8.453   8.074   3.535  0.3115 -0.8593  1.0101
  237MOL0     C31159   8.323   8.132   3.544  0.0068 -0.1056  0.0301
  237MOL0     O31160   8.278   8.206   3.641  0.2451  0.8999  0.0095
  237MOL0     C31161   8.322   8.173   3.775  0.4756  0.2632  0.3492
  237MOL0     C31162   8.264   8.037   3.827 -0.0755 -0.6370  0.1261
  237MOL0     C31163   8.109   8.042   3.828  0.1877  0.7120  0.0277
  237MOL0     C31164   8.058   8.176   3.886  0.8016  1.2340 -0.6893
  237MOL0     C31165   7.914   8.164   3.939  0.4784  0.2414 -0.3353
  237MOL0     C31166   7.867   8.300   4.001 -0.9891  0.9558 -0.1074
  237MOL0     C31167   7.717   8.296   4.044 -0.4070 -0.2054 -0.2976
  237MOL0     C31168   7.692   8.375   4.171 -0.1084 -0.0717 -0.4501
  237MOL0     N31169   7.544   8.391   4.184 -0.0916  0.1404 -1.0651
  237MOL0     C31170   7.455   8.469   4.108  0.5267 -0.1344  0.3629
  237MOL0     C31171   7.327   8.456   4.159 -0.5926  0.0174 -0.6306
  237MOL0     C31172   7.189   8.501   4.123  0.0071  0.1068 -0.1051
  237MOL0     C31173   7.139   8.624   4.203  0.6606  0.0700 -0.1620
  237MOL0     C31174   6.985   8.647   4.195 -0.2654 -0.4457  0.7075
  237MOL0     C31175   6.897   8.534   4.254 -0.2281  0.2017 -0.8017
  237MOL0     O31176   6.770   8.588   4.268  0.4334 -0.4346 -0.5737
  237MOL0     C31177   6.677   8.507   4.326  0.4581 -0.8745 -0.2734
  237MOL0     C31178   6.646   8.381   4.267  0.0370  0.5982 -0.8908
  237MOL0     C31179   6.539   8.299   4.319 -0.5061 -0.3907 -0.7883
  237MOL0     C31180   6.468   8.344   4.429  1.1391  0.9060 -0.2264
  237MOL0     C31181   6.345   8.268   4.474 -0.8182  0.0652 -0.3923
  237MOL0     O31182   6.325   8.152   4.410  0.2528  0.3890 -0.2007
  237MOL0     C31183   6.207   8.083   4.429 -0.4714  0.1278  0.1757
  237MOL0     C31184   6.202   7.951   4.471 -0.3193  0.3083 -0.1759
  237MOL0     C31185   6.077   7.893   4.490 -0.5592 -0.7009  0.3270
  237MOL0     C31186   5.961   7.960   4.469  0.2022 -0.9183  0.2316
  237MOL0     O31187   5.849   7.889   4.508 -0.6203  0.1266 -0.1193
  237MOL0     C31188   5.723   7.952   4.492  0.1741 -0.4603  0.1807
  237MOL0     C31189   5.596   7.854   4.520  0.8805 -0.3590 -0.2517
  237MOL0     C31190   5.468   7.930   4.508  0.9311  0.5274 -0.0963
  237MOL0     C31191   5.354   7.829   4.521  0.0244 -0.0445  0.3837
  237MOL0     C31192   5.222   7.906   4.541 -0.7104 -0.0498 -0.4371
  237MOL0     C31193   5.183   7.990   4.418 -0.3089 -0.3450 -0.5023
  237MOL0     C31194   5.043   8.030   4.447 -0.3175  0.2359 -0.8461
  237MOL0     C31195   4.974   8.109   4.332  0.8147 -0.2159 -0.4033
  237MOL0    Cl31196   4.803   8.110   4.369  0.3651  0.1200 -0.1427
  237MOL0     C31197   5.970   8.086   4.416 -0.2362 -0.8566  0.4017
  237MOL0     C31198   6.090   8.153   4.403 -0.3481 -0.4713 -0.2193
  237MOL0     O31199   6.261   8.321   4.552 -0.5514  0.7806 -0.2087
  237MOL0     C31200   6.497   8.467   4.479 -0.4083 -0.2175  0.5719
  237MOL0     C31201   6.600   8.549   4.435 -0.2899  1.1140  0.1979
  237MOL0     N31202   7.352   8.372   4.276 -0.5966  0.1096  0.6960
  237MOL0     N31203   7.469   8.324   4.269  0.3421 -0.4992 -0.9073
  237MOL0     C31204   8.235   8.113   3.438 -0.7283 -0.6378 -0.3882
  237MOL0     C31205   8.278   8.040   3.317  0.4948  0.9526 -0.1179
  237MOL0     C31206   8.483   7.703   3.074  0.7188 -0.3621 -0.1380
  237MOL0     C31207   8.549   7.578   3.046  0.4994  0.4550  0.3641
  237MOL0     C31208   8.523   7.510   2.924  0.2036 -0.5479  0.7661
  237MOL0     C31209   8.420   7.554   2.829  0.6300  0.6369 -0.9603
  237MOL0     O31210   8.382   7.506   2.710 -0.1266  0.2943  0.0866
  237MOL0     C31211   8.451   7.391   2.653 -0.9725 -0.2184  0.1836
  237MOL0     C31212   8.397   7.378   2.515 -0.4678  0.1688 -0.1813
  237MOL0     C31213   8.255   7.332   2.499 -0.5393 -0.9335  0.0475
  237MOL0     C31214   8.231   7.185   2.516  0.0133  0.5575 -0.1804
  237MOL0     C31215   8.089   7.168   2.543  1.0458 -0.5573  0.1993
  237MOL0     C31216   7.965   7.141   2.532  0.4554  0.6459 -0.2595
  237MOL0     C31217   8.358   7.674   2.863 -0.4419  1.0773 -0.3592
  237MOL0     C31218   8.381   7.751   2.984 -1.1023  0.2188 -1.1283
  237MOL0     H31219   8.586   7.941   3.412  1.3795  1.2339  1.4088
  237MOL0     H31220   8.519   8.097   3.618  1.9071  0.8100 -0.6022
  237MOL0     H31221   8.297   8.254   3.844 -0.8084 -1.0181  1.4572
  237MOL0     H31222   8.430   8.159   3.771  0.6001  1.4624 -2.0605
  237MOL0     H31223   8.302   8.005   3.924  1.8211  0.7654 -0.0945
  237MOL0     H31224   8.306   7.958   3.764  0.7420 -3.6067  4.0534
  237MOL0     H31225   8.080   7.954   3.887  1.0865 -0.9985 -1.9423
  237MOL0     H31226   8.060   8.033   3.730 -0.5628 -1.2530  0.5402
  237MOL0     H31227   8.119   8.204   3.972 -1.1460  0.4098  1.0391
  237MOL0     H31228   8.056   8.255   3.810 -3.0740  0.4927 -1.5413
  237MOL0     H31229   7.903   8.080   4.007  1.1001 -1.1302 -1.8670
  237MOL0     H31230   7.856   8.154   3.846  1.2291  0.7685 -0.8695
  237MOL0     H31231   7.884   8.380   3.929  1.8700 -1.1003 -1.9139
  237MOL0     H31232   7.932   8.325   4.085 -0.8439 -5.2629  2.1818
  237MOL0     H31233   7.662   8.359   3.974  0.0564  1.3017  0.6385
  237MOL0     H31234   7.667   8.200   4.055 -0.3625  0.0315  3.6689
  237MOL0     H31235   7.732   8.477   4.163  0.4240 -0.3001 -0.7568
  237MOL0     H31236   7.728   8.326   4.263  1.5422 -0.4697 -1.2716
  237MOL0     H31237   7.480   8.527   4.020  0.4850 -1.8180 -0.7956
  237MOL0     H31238   7.137   8.409   4.151 -1.0311 -0.1092 -2.4861
  237MOL0     H31239   7.178   8.516   4.015  1.9384  2.0418 -0.0984
  237MOL0     H31240   7.203   8.710   4.182  2.1861 -1.0004 -0.0516
  237MOL0     H31241   7.153   8.610   4.310  0.7447 -2.5105 -0.4473
  237MOL0     H31242   6.966   8.733   4.260  1.7765 -0.2320  1.1091
  237MOL0     H31243   6.961   8.674   4.092  1.3164  2.6883  1.0081
  237MOL0     H31244   6.933   8.509   4.354  1.3328 -1.1836 -1.6551
  237MOL0     H31245   6.896   8.454   4.180  1.2847 -3.2690  2.5899
  237MOL0     H31246   6.700   8.343   4.180 -2.2891 -0.9369 -1.7553
  237MOL0     H31247   6.515   8.206   4.270 -2.2161 -0.5144  0.2252
  237MOL0     H31248   6.290   7.888   4.485  0.6782  2.0969  2.3781
  237MOL0     H31249   6.083   7.787   4.512  1.4389 -0.5277  0.7496
  237MOL0     H31250   5.719   7.985   4.388  1.7218  3.0150  1.0729
  237MOL0     H31251   5.725   8.044   4.550  1.1589  1.8613 -3.2391
  237MOL0     H31252   5.594   7.804   4.617 -1.2075 -1.4734 -0.8139
  237MOL0     H31253   5.595   7.777   4.442  1.5656  0.2796 -0.9087
  237MOL0     H31254   5.455   7.968   4.406  0.1098 -0.7010 -0.4739
  237MOL0     H31255   5.456   8.012   4.579  0.9020  1.3922 -1.0692
  237MOL0     H31256   5.356   7.769   4.429  2.3401 -1.0764  1.0305
  237MOL0     H31257   5.371   7.764   4.607 -3.5706 -1.3303  0.2785
  237MOL0     H31258   5.234   7.986   4.615 -2.7746 -0.4807  0.4335
  237MOL0     H31259   5.141   7.842   4.576  0.0162 -0.1096  1.1846
  237MOL0     H31260   5.177   7.934   4.325 -1.0277 -0.4346 -0.4079
  237MOL0     H31261   5.234   8.085   4.403 -2.1294  0.2120 -4.1990
  237MOL0     H31262   5.000   7.929   4.452  1.6484 -0.5557  1.9646
  237MOL0     H31263   5.036   8.074   4.547  1.4700 -0.3407 -0.4271
  237MOL0     H31264   4.981   8.056   4.237 -1.9239  3.0131 -2.7002
  237MOL0     H31265   5.009   8.212   4.317 -3.6145  1.9516  1.9990
  237MOL0     H31266   5.877   8.135   4.389 -0.8339 -0.3346  3.0957
  237MOL0     H31267   6.087   8.256   4.370 -1.2303  0.3609  2.2220
  237MOL0     H31268   6.430   8.501   4.558 -1.4379 -1.3994  0.2427
  237MOL0     H31269   6.625   8.646   4.475  0.3392  1.5897 -1.2844
  237MOL0     H31270   8.133   8.151   3.438 -0.8200 -0.7832 -2.3406
  237MOL0     H31271   8.214   8.034   3.229  0.4715 -3.7624 -0.0769
  237MOL0     H31272   8.621   7.530   3.111  1.3011 -1.9405 -2.1007
  237MOL0     H31273   8.576   7.419   2.898  2.0882  0.9146 -0.8398
  237MOL0     H31274   8.431   7.310   2.724  1.1037  1.0874  2.3887
  237MOL0     H31275   8.559   7.402   2.651 -1.1827  2.3972 -1.0784
  237MOL0     H31276   8.411   7.476   2.468 -2.7571  0.0817 -1.2120
  237MOL0     H31277   8.456   7.304   2.460 -0.1251 -0.3542  0.8779
  237MOL0     H31278   8.229   7.356   2.395 -0.0095  1.0385  0.3315
  237MOL0     H31279   8.201   7.393   2.573  2.0415 -0.4659  1.6532
  237MOL0     H31280   8.264   7.135   2.424 -0.1210 -2.7212  1.4046
  237MOL0     H31281   8.272   7.129   2.600 -0.0213 -0.8199 -1.0533
  237MOL0     H31282   7.860   7.124   2.520  0.9027 -4.1129  0.2677
  237MOL0     H31283   8.276   7.709   2.800 -1.5212  3.3998  2.1386
  237MOL0     H31284   8.314   7.835   2.996  0.4224  1.1443  2.3773
  238MOL0     O31285   1.939   5.670  10.652  0.2510 -0.8704  0.3890
  238MOL0     C31286   1.955   5.595  10.749  0.0630 -0.1966 -0.4230
  238MOL0     O31287   1.878   5.488  10.796 -0.1929  0.0304  0.4906
  238MOL0     C31288   1.764   5.439  10.729  0.5976 -0.6852  0.5181
  238MOL0     C31289   1.725   5.484  10.606  0.7902  0.6993 -0.6547
  238MOL0     C31290   1.610   5.437  10.543  0.1915 -0.2334  0.2043
  238MOL0     C31291   1.545   5.327  10.590 -0.1488 -0.0475 -0.4027
  238MOL0     O31292   1.445   5.259  10.515  0.4618 -0.0185  0.1572
  238MOL0     C31293   1.486   5.126  10.480  0.1122 -0.0245  0.2343
  238MOL0     C31294   1.361   5.048  10.424  0.0198 -0.0383 -1.0216
  238MOL0     C31295   1.257   5.030  10.539 -0.0948  0.5967 -0.0107
  238MOL0     C31296   1.125   4.977  10.482  0.0471  0.2087 -0.3148
  238MOL0     C31297   1.010   5.078  10.476  0.0022  0.2990  0.1422
  238MOL0     C31298   0.897   5.019  10.395 -0.8929  0.1892  0.1605
  238MOL0     C31299   0.766   5.002  10.480  0.3264 -0.2261  0.2697
  238MOL0     C31300   0.780   4.888  10.579 -0.4556  0.4966  0.4902
  238MOL0     N31301   0.780   4.752  10.525 -0.0098  0.0690 -0.6377
  238MOL0     C31302   0.693   4.704  10.433  0.3160 -0.5404  0.1613
  238MOL0     C31303   0.744   4.585  10.405  0.3438  0.0781  0.0764
  238MOL0     C31304   0.682   4.486  10.315  0.0831 -0.9907  0.2977
  238MOL0     C31305   0.588   4.389  10.387 -0.1303 -1.0981 -0.4504
  238MOL0     C31306   0.467   4.341  10.307 -0.1306  0.6245 -0.1537
  238MOL0     C31307   0.362   4.276  10.396  0.6933 -0.6145  0.1467
  238MOL0     O31308   0.305   4.384  10.475 -0.3185  0.3642  0.0642
  238MOL0     C31309   0.176   4.402  10.498  0.1409  0.0911 -0.9682
  238MOL0     C31310   0.141   4.434  10.631  0.1779 -0.0502  0.0941
  238MOL0     C31311   0.005   4.448  10.658  0.1355 -0.3071  0.2624
  238MOL0     C31312  -0.094   4.430  10.558  0.5670 -0.8314 -0.1949
  238MOL0     C31313  -0.235   4.420  10.593 -0.0655  0.0515 -0.0671
  238MOL0     O31314  -0.332   4.402  10.489 -0.3113 -0.2187  0.9225
  238MOL0     C31315  -0.471   4.399  10.494 -0.2519  0.3167  0.3439
  238MOL0     C31316  -0.552   4.422  10.606  0.2621 -0.2412  0.3459
  238MOL0     C31317  -0.689   4.415  10.594  0.2559 -0.3647  0.4665
  238MOL0     C31318  -0.752   4.416  10.460 -0.1754  0.4592  0.1425
  238MOL0     O31319  -0.889   4.453  10.464  0.0198 -0.8554  0.5080
  238MOL0     C31320  -0.955   4.449  10.334 -0.3024 -0.1352  0.1370
  238MOL0     C31321  -1.076   4.532  10.337 -0.2692 -0.2698 -0.4474
  238MOL0     C31322  -1.148   4.518  10.199 -0.1440  0.5107  0.3865
  238MOL0     C31323  -1.294   4.574  10.195 -0.8012  0.2152 -0.5661
  238MOL0     C31324  -1.369   4.547  10.066 -0.9736 -0.1659  1.1814
  238MOL0     C31325  -1.509   4.597  10.067 -0.0441  0.6805  0.0665
  238MOL0     C31326  -1.602   4.530  10.175 -0.4437 -0.3173  0.4007
  238MOL0     C31327  -1.747   4.527  10.118 -0.5615  1.4244  0.1002
  238MOL0    Cl31328  -1.770   4.414   9.988 -0.3773  0.0326  0.0216
  238MOL0     C31329  -0.671   4.392  10.350 -0.4135  0.0529 -0.1545
  238MOL0     C31330  -0.528   4.380  10.362  0.4665 -0.3428  0.2190
  238MOL0     O31331  -0.257   4.411  10.716  0.0250  0.2616  0.1766
  238MOL0     C31332  -0.053   4.400  10.429 -0.0356  0.6631  0.1653
  238MOL0     C31333   0.081   4.386  10.393 -0.7446  0.0155 -0.1838
  238MOL0     N31334   0.862   4.561  10.471 -0.4150  0.1894 -0.5461
  238MOL0     N31335   0.888   4.665  10.545  0.0700 -0.1587  0.4334
  238MOL0     C31336   1.580   5.277  10.723 -1.0521 -0.1161  0.3714
  238MOL0     C31337   1.694   5.326  10.786  0.1041  0.0671  0.0385
  238MOL0     C31338   2.074   5.620  10.832 -0.4234 -0.2131  0.3105
  238MOL0     C31339   2.156   5.741  10.807  0.7055  1.2377 -1.0259
  238MOL0     C31340   2.283   5.749  10.863 -0.3839  0.2459  0.3702
  238MOL0     C31341   2.329   5.648  10.953 -0.4274  0.5627  0.0190
  238MOL0     O31342   2.448   5.663  11.007 -0.0882  0.0491  0.1739
  238MOL0     C31343   2.569   5.685  10.921  0.1124 -0.1739  0.1426
  238MOL0     C31344   2.697   5.631  10.979 -0.5637  0.2958 -0.0740
  238MOL0     C31345   2.819   5.630  10.877  0.4546  0.5709 -0.3526
  238MOL0     C31346   2.949   5.585  10.939  0.1812 -0.5630  0.0005
  238MOL0     C31347   3.039   5.557  10.823 -0.4196  0.1052  0.5978
  238MOL0     C31348   3.103   5.523  10.725 -0.8206 -0.5919 -0.0944
  238MOL0     C31349   2.243   5.543  10.984 -0.0296  0.1160 -0.2673
  238MOL0     C31350   2.117   5.532  10.927 -0.5633  0.2013 -0.0472
  238MOL0     H31351   1.774   5.552  10.537  2.2632  0.2476 -0.0993
  238MOL0     H31352   1.570   5.477  10.451  0.1702 -2.4550 -0.8149
  238MOL0     H31353   1.506   5.066  10.570  1.3741 -0.5650 -0.3700
  238MOL0     H31354   1.569   5.120  10.408  1.4807 -1.9425  1.8379
  238MOL0     H31355   1.395   4.950  10.387  1.1143 -0.3022  0.6045
  238MOL0     H31356   1.322   5.095  10.333 -1.4641 -0.5852 -0.6971
  238MOL0     H31357   1.243   5.130  10.582 -0.4208  1.0018 -1.0246
  238MOL0     H31358   1.295   4.965  10.618  2.1071  1.6803 -0.1157
  238MOL0     H31359   1.152   4.946  10.381  0.1147 -2.3104  0.3871
  238MOL0     H31360   1.094   4.888  10.539  1.4853 -1.4141 -1.9572
  238MOL0     H31361   1.039   5.174  10.433  1.2828  1.0261  2.4213
  238MOL0     H31362   0.983   5.091  10.582  4.1152 -1.7735  1.6681
  238MOL0     H31363   0.921   4.918  10.360 -0.1872  0.3257  0.2345
  238MOL0     H31364   0.871   5.076  10.305 -1.5744 -4.1394 -2.7078
  238MOL0     H31365   0.733   5.094  10.529 -2.1022  0.2627 -2.0878
  238MOL0     H31366   0.689   4.979  10.406 -1.0348 -1.0025  1.8548
  238MOL0     H31367   0.688   4.895  10.638 -1.2996  1.9849 -0.8962
  238MOL0     H31368   0.867   4.896  10.645 -1.1317  0.1977  1.4381
  238MOL0     H31369   0.601   4.751  10.400  2.5660  3.7427 -0.8289
  238MOL0     H31370   0.767   4.435  10.268  0.1203  1.9985 -3.3204
  238MOL0     H31371   0.628   4.536  10.234  0.3228 -0.6738  0.3302
  238MOL0     H31372   0.550   4.453  10.467  2.0992  1.9635 -1.6207
  238MOL0     H31373   0.651   4.303  10.412  3.1357  0.6747 -1.8597
  238MOL0     H31374   0.411   4.419  10.256 -1.5258  0.5648  1.2167
  238MOL0     H31375   0.502   4.273  10.228 -3.2407  0.3659 -1.4320
  238MOL0     H31376   0.400   4.198  10.463  0.9477 -2.3809 -1.9292
  238MOL0     H31377   0.287   4.233  10.330 -0.0393  2.5559 -1.2521
  238MOL0     H31378   0.216   4.432  10.710 -2.1690  1.8114  2.5450
  238MOL0     H31379  -0.016   4.463  10.763  1.3230  1.3579  0.3154
  238MOL0     H31380  -0.511   4.442  10.704 -1.2807  1.2003  0.7516
  238MOL0     H31381  -0.754   4.434  10.679 -0.1517 -3.2131  0.8926
  238MOL0     H31382  -0.983   4.346  10.311 -1.1845 -0.3914  2.1257
  238MOL0     H31383  -0.878   4.482  10.263  1.0832  1.1212  2.1381
  238MOL0     H31384  -1.050   4.636  10.361 -2.8557  0.6476 -1.2571
  238MOL0     H31385  -1.150   4.504  10.412  0.5580  1.0296  0.9166
  238MOL0     H31386  -1.150   4.412  10.175  2.7217  0.4973 -0.2373
  238MOL0     H31387  -1.088   4.567  10.122 -2.0550  0.0240 -1.4802
  238MOL0     H31388  -1.352   4.540  10.282 -3.6882  1.2003 -2.0064
  238MOL0     H31389  -1.284   4.682  10.210 -2.9596  0.3562  0.1967
  238MOL0     H31390  -1.376   4.441  10.040 -0.5015  0.0721  0.0495
  238MOL0     H31391  -1.319   4.597   9.984 -2.8945 -0.5433 -0.2997
  238MOL0     H31392  -1.548   4.576   9.967 -0.6858 -0.2857  0.5001
  238MOL0     H31393  -1.507   4.705  10.084  1.4535  1.0540 -2.0542
  238MOL0     H31394  -1.568   4.427  10.188 -0.6928 -1.1327 -3.8074
  238MOL0     H31395  -1.599   4.576  10.274 -1.0148 -0.8111  0.6586
  238MOL0     H31396  -1.774   4.620  10.068  0.0227  0.3257 -2.4358
  238MOL0     H31397  -1.823   4.505  10.193 -1.6188 -0.5025 -1.4495
  238MOL0     H31398  -0.700   4.374  10.247 -1.4672  0.5552  0.0385
  238MOL0     H31399  -0.462   4.366  10.277 -0.5012  0.5575 -0.7134
  238MOL0     H31400  -0.125   4.384  10.349  0.7522  0.2422 -0.4734
  238MOL0     H31401   0.107   4.360  10.291 -0.2656  0.0976 -0.0825
  238MOL0     H31402   1.525   5.191  10.761 -1.4122 -0.7125 -1.4325
  238MOL0     H31403   1.730   5.294  10.883 -0.0403  1.4650  0.5780
  238MOL0     H31404   2.118   5.810  10.732 -1.1895  0.1640 -1.1049
  238MOL0     H31405   2.354   5.830  10.853  0.2953 -0.1850  1.4540
  238MOL0     H31406   2.574   5.791  10.894 -0.1151 -0.8742 -3.0529
  238MOL0     H31407   2.548   5.633  10.827  0.9894  1.4779 -1.0217
  238MOL0     H31408   2.722   5.689  11.069 -1.3418  0.5813 -0.0333
  238MOL0     H31409   2.684   5.524  10.998  3.3325 -0.6366 -1.6408
  238MOL0     H31410   2.819   5.733  10.840 -0.6850  0.3153 -1.1127
  238MOL0     H31411   2.783   5.554  10.808 -1.6775 -0.1207  1.4139
  238MOL0     H31412   2.982   5.673  10.995  1.1153 -0.8087 -0.1468
  238MOL0     H31413   2.936   5.500  11.007 -2.9815  0.4952  0.8924
  238MOL0     H31414   3.150   5.488  10.635 -0.9036 -0.4428 -0.1964
  238MOL0     H31415   2.278   5.454  11.036 -0.3959 -0.8729 -1.6359
  238MOL0     H31416   2.061   5.444  10.957 -0.2805 -0.0004 -0.1055
  239MOL0     O31417   6.582   5.078   6.458  0.3841 -0.9869 -0.3763
  239MOL0     C31418   6.526   5.163   6.530  0.3723 -0.7099  0.4332
  239MOL0     O31419   6.586   5.271   6.603  0.5220  0.1292  0.3698
  239MOL0     C31420   6.714   5.292   6.572  0.3603  0.6375 -0.2773
  239MOL0     C31421   6.809   5.233   6.655 -0.3188 -0.3649 -0.4122
  239MOL0     C31422   6.943   5.252   6.620 -0.0534 -0.7095  0.8603
  239MOL0     C31423   6.993   5.329   6.508  0.7013 -0.0730  0.3869
  239MOL0     O31424   7.130   5.333   6.496 -0.7480 -0.2031  0.1606
  239MOL0     C31425   7.178   5.438   6.411 -0.2880  0.0643  0.1070
  239MOL0     C31426   7.332   5.447   6.414 -0.2640 -0.5365  0.2915
  239MOL0     C31427   7.400   5.326   6.342 -0.1560 -0.6774 -0.0278
  239MOL0     C31428   7.556   5.339   6.344  0.3976 -0.3180 -0.2001
  239MOL0     C31429   7.624   5.237   6.262 -0.2871 -0.1580 -0.9507
  239MOL0     C31430   7.778   5.238   6.286  0.3626  0.6986  0.2820
  239MOL0     C31431   7.836   5.118   6.202  0.2173 -0.2250  0.3687
  239MOL0     C31432   7.986   5.088   6.213  0.2422  0.7456  0.2329
  239MOL0     N31433   8.072   5.189   6.162 -0.1180 -0.2424 -0.4176
  239MOL0     C31434   8.164   5.267   6.225  0.1309  0.6513 -0.6884
  239MOL0     C31435   8.211   5.348   6.140  1.2543  0.3838  0.1877
  239MOL0     C31436   8.267   5.479   6.150 -0.1766 -0.1318  0.9709
  239MOL0     C31437   8.161   5.587   6.116  0.9910 -1.5026  0.2091
  239MOL0     C31438   8.051   5.609   6.232  0.5804 -0.6935  0.3161
  239MOL0     C31439   7.921   5.677   6.182 -0.3376  0.3408  0.1367
  239MOL0     O31440   7.831   5.579   6.122 -0.5220 -0.4400 -0.5888
  239MOL0     C31441   7.699   5.597   6.111 -0.1327 -0.6753  0.1593
  239MOL0     C31442   7.623   5.709   6.150  0.3400  0.2253  0.2311
  239MOL0     C31443   7.487   5.711   6.152 -0.2912  1.0011 -0.2225
  239MOL0     C31444   7.423   5.610   6.077  1.1846 -0.6046  0.2101
  239MOL0     C31445   7.276   5.610   6.063  0.3681 -1.0284 -0.1948
  239MOL0     O31446   7.217   5.690   6.151  1.0070  0.2611  0.3073
  239MOL0     C31447   7.080   5.708   6.159 -0.4262  0.1581 -0.1820
  239MOL0     C31448   7.027   5.745   6.285 -0.4963 -0.2563  0.0199
  239MOL0     C31449   6.896   5.775   6.303 -0.1924 -1.1762 -0.1090
  239MOL0     C31450   6.808   5.747   6.200  0.1784 -0.3579  0.5258
  239MOL0     O31451   6.677   5.774   6.234  0.5471  0.0829  0.1843
  239MOL0     C31452   6.589   5.821   6.129  0.1007  0.0702  0.3677
  239MOL0     C31453   6.463   5.872   6.201  0.2877  0.2066 -0.5774
  239MOL0     C31454   6.352   5.919   6.114  0.2535 -0.2851  0.3634
  239MOL0     C31455   6.234   5.963   6.208  0.8887  0.1250  0.8523
  239MOL0     C31456   6.098   5.984   6.135  0.3760 -0.0819  0.1137
  239MOL0     C31457   6.094   6.114   6.041  0.0337 -0.6777 -0.0740
  239MOL0     C31458   6.094   6.096   5.892  0.7542 -0.2133 -0.0350
  239MOL0     C31459   6.072   6.223   5.810 -0.2834  0.1222 -0.0761
  239MOL0    Cl31460   5.899   6.266   5.824 -0.0790  0.0930  0.0052
  239MOL0     C31461   6.853   5.708   6.076 -0.1842 -0.1131 -0.0821
  239MOL0     C31462   6.989   5.695   6.054  0.3228 -0.1762  0.1873
  239MOL0     O31463   7.228   5.553   5.965 -0.3168  0.2793 -0.2307
  239MOL0     C31464   7.498   5.504   6.019 -0.1139 -0.3533 -0.0919
  239MOL0     C31465   7.636   5.495   6.043 -0.4836  0.2966 -1.1517
  239MOL0     N31466   8.161   5.309   6.013  0.4724  0.2015 -0.3344
  239MOL0     N31467   8.079   5.210   6.030 -0.0617 -0.7245 -0.2696
  239MOL0     C31468   6.890   5.380   6.422 -0.5428  0.7681 -0.1949
  239MOL0     C31469   6.753   5.355   6.457  0.1418 -0.7252 -0.1819
  239MOL0     C31470   6.382   5.135   6.538 -0.0483 -0.5739 -0.5059
  239MOL0     C31471   6.314   5.055   6.451  0.2355 -0.3362  0.0135
  239MOL0     C31472   6.171   5.041   6.472  1.0413 -0.6486 -0.1537
  239MOL0     C31473   6.105   5.099   6.576  0.3992 -0.9893  0.1945
  239MOL0     O31474   5.973   5.073   6.611  0.5680  0.2797  0.0512
  239MOL0     C31475   5.883   5.172   6.675  0.2429  0.0302 -0.3543
  239MOL0     C31476   5.819   5.275   6.598 -0.4235 -0.2567 -0.0338
  239MOL0     C31477   5.719   5.230   6.485 -0.1156 -0.8582 -0.2491
  239MOL0     C31478   5.784   5.161   6.355 -0.3876  0.8085 -0.6026
  239MOL0     C31479   5.885   5.250   6.301  0.0790  0.1868 -0.7749
  239MOL0     C31480   5.990   5.290   6.257 -0.4908 -0.3650  0.5013
  239MOL0     C31481   6.177   5.189   6.656  0.2958 -0.0015 -0.3968
  239MOL0     C31482   6.315   5.210   6.639  0.3979 -1.2043 -0.8984
  239MOL0     H31483   6.792   5.179   6.748 -0.4621  1.7085  0.8189
  239MOL0     H31484   7.020   5.219   6.689  1.1341  0.6854  0.2590
  239MOL0     H31485   7.137   5.532   6.449 -2.1995 -1.0011  0.8093
  239MOL0     H31486   7.150   5.423   6.306 -0.5527 -1.3033  0.3543
  239MOL0     H31487   7.354   5.447   6.521 -0.6328  0.4804  0.3765
  239MOL0     H31488   7.374   5.542   6.381 -0.7215 -0.3959  0.1087
  239MOL0     H31489   7.368   5.314   6.239  0.6823 -1.8062 -0.1841
  239MOL0     H31490   7.375   5.227   6.383  0.7357 -1.8289 -2.0942
  239MOL0     H31491   7.585   5.440   6.316 -1.0074 -0.2328 -1.4588
  239MOL0     H31492   7.578   5.314   6.448 -0.3930  0.4197  0.1510
  239MOL0     H31493   7.600   5.253   6.157 -1.1113 -2.5745 -1.1951
  239MOL0     H31494   7.584   5.140   6.292  0.9593 -0.9839 -1.8328
  239MOL0     H31495   7.798   5.202   6.387  2.6738  0.6789 -0.1411
  239MOL0     H31496   7.821   5.335   6.262  2.3408  0.0184  0.9392
  239MOL0     H31497   7.782   5.025   6.222 -0.0514  0.1433  1.4210
  239MOL0     H31498   7.820   5.141   6.096  0.2336  0.8610  0.5890
  239MOL0     H31499   8.004   5.004   6.145 -2.6383  0.1040  0.1603
  239MOL0     H31500   8.016   5.060   6.315  1.0209  2.8632  0.6356
  239MOL0     H31501   8.170   5.290   6.331 -0.3611  4.1342 -1.3031
  239MOL0     H31502   8.345   5.493   6.075 -1.5312 -3.3199 -1.2723
  239MOL0     H31503   8.314   5.500   6.246 -2.2089  0.2036  1.9545
  239MOL0     H31504   8.106   5.567   6.024  0.5064  2.0960 -0.4125
  239MOL0     H31505   8.216   5.680   6.100  1.5917 -1.3760  2.6770
  239MOL0     H31506   8.026   5.515   6.281 -3.5257  0.2533  0.3546
  239MOL0     H31507   8.076   5.677   6.314  0.7474 -0.9261  0.4583
  239MOL0     H31508   7.944   5.758   6.112  3.7466 -2.3185 -2.0149
  239MOL0     H31509   7.871   5.708   6.274  0.0729 -1.1224  0.8931
  239MOL0     H31510   7.669   5.799   6.190  0.7591 -0.2212  0.7753
  239MOL0     H31511   7.428   5.790   6.197 -2.1627 -0.0817 -0.6270
  239MOL0     H31512   7.094   5.748   6.370  1.4659 -1.0449 -1.4350
  239MOL0     H31513   6.856   5.808   6.398 -1.7422 -3.0437 -0.0338
  239MOL0     H31514   6.567   5.736   6.062 -1.3319 -0.0590  0.9637
  239MOL0     H31515   6.626   5.909   6.076 -3.9674  1.1358 -1.0991
  239MOL0     H31516   6.501   5.951   6.266 -0.8402  1.8239 -1.8081
  239MOL0     H31517   6.427   5.789   6.263  3.3624 -1.7107 -1.1512
  239MOL0     H31518   6.322   5.844   6.039  1.0790 -0.8339  0.5633
  239MOL0     H31519   6.384   6.004   6.053 -2.9471  1.0542  0.3396
  239MOL0     H31520   6.222   5.880   6.279 -1.1139  0.2078  0.6796
  239MOL0     H31521   6.267   6.052   6.262 -0.1924  0.9558  0.1775
  239MOL0     H31522   6.024   6.003   6.213  0.5704 -0.6976  0.4522
  239MOL0     H31523   6.069   5.890   6.087 -2.4277  1.6790 -1.9875
  239MOL0     H31524   6.175   6.179   6.074 -0.0710 -0.3870 -0.3821
  239MOL0     H31525   5.997   6.159   6.065  0.1527  0.3772 -1.4490
  239MOL0     H31526   6.194   6.056   5.872  1.2695  1.2123 -0.4129
  239MOL0     H31527   6.016   6.022   5.874  1.0488 -0.6446  0.4067
  239MOL0     H31528   6.093   6.194   5.707 -0.8096 -0.2208 -0.0880
  239MOL0     H31529   6.133   6.299   5.859 -1.8923 -0.3201  2.9000
  239MOL0     H31530   6.782   5.700   5.994  0.9899  0.3618 -1.1827
  239MOL0     H31531   7.028   5.668   5.957 -0.2887 -3.1328  0.6494
  239MOL0     H31532   7.445   5.431   5.959  0.4394  0.9210 -2.2621
  239MOL0     H31533   7.698   5.410   6.014  0.6064  0.8113 -0.3876
  239MOL0     H31534   6.911   5.444   6.337  1.2527  3.1153  1.8705
  239MOL0     H31535   6.678   5.398   6.391  0.5148 -0.1770 -0.2505
  239MOL0     H31536   6.365   5.005   6.369 -0.5954 -0.8366 -0.2105
  239MOL0     H31537   6.108   4.992   6.398  0.5623  1.7700 -1.4484
  239MOL0     H31538   5.935   5.230   6.752 -1.8251  1.4002  0.1149
  239MOL0     H31539   5.801   5.127   6.732 -1.1145  1.3824 -1.1288
  239MOL0     H31540   5.760   5.337   6.667  0.3450 -1.6806  2.0017
  239MOL0     H31541   5.898   5.334   6.551 -0.6796 -0.0534 -0.2094
  239MOL0     H31542   5.654   5.314   6.459 -1.2630 -1.2103  1.3073
  239MOL0     H31543   5.653   5.162   6.540 -1.3106  1.8918  1.9758
  239MOL0     H31544   5.833   5.065   6.376 -1.1766  0.4216 -0.4958
  239MOL0     H31545   5.697   5.130   6.296 -0.2152 -3.0855  0.9313
  239MOL0     H31546   6.075   5.301   6.193  1.4368 -2.5017  2.5094
  239MOL0     H31547   6.135   5.235   6.745  1.3007 -1.5515  0.9512
  239MOL0     H31548   6.358   5.289   6.700 -2.1492  0.0993 -0.6648
  240MOL0     O31549   1.734   5.069   6.127  0.3656  0.2742  0.2834
  240MOL0     C31550   1.643   5.122   6.194  0.1771  0.8597  0.7160
  240MOL0     O31551   1.680   5.204   6.303 -0.0406  0.0423  0.2530
  240MOL0     C31552   1.814   5.238   6.306 -0.8982 -0.2857  0.2295
  240MOL0     C31553   1.860   5.356   6.234 -0.5087 -0.3216 -0.1578
  240MOL0     C31554   1.986   5.406   6.262  0.0343  0.2091  0.7151
  240MOL0     C31555   2.075   5.333   6.338 -0.6195 -0.2548 -0.2238
  240MOL0     O31556   2.198   5.387   6.373 -0.3019  0.8328  0.2276
  240MOL0     C31557   2.313   5.303   6.408  0.4262 -0.3998  0.5623
  240MOL0     C31558   2.436   5.394   6.385 -0.0200 -0.2095 -0.0804
  240MOL0     C31559   2.565   5.325   6.446 -0.0558 -0.1776  0.8025
  240MOL0     C31560   2.699   5.405   6.417 -0.2146 -0.4561 -0.6290
  240MOL0     C31561   2.812   5.309   6.440  0.5693  0.5659 -0.3560
  240MOL0     C31562   2.854   5.285   6.587  1.0712  0.6943  0.3001
  240MOL0     C31563   2.922   5.410   6.647  0.2904  0.0145 -0.3659
  240MOL0     C31564   3.068   5.449   6.594 -0.0434  0.1706  0.6768
  240MOL0     N31565   3.092   5.592   6.570 -0.3869  0.2147 -0.4049
  240MOL0     C31566   3.052   5.654   6.449 -0.1707  0.1685 -0.3633
  240MOL0     C31567   3.064   5.792   6.476  0.1312  1.1033 -0.0931
  240MOL0     C31568   3.033   5.906   6.381 -0.5590  0.8034  0.8553
  240MOL0     C31569   2.899   5.896   6.301 -0.4622  0.4545  0.6041
  240MOL0     C31570   2.778   5.890   6.397  0.3894  0.4054  0.0988
  240MOL0     C31571   2.648   5.914   6.327  0.1107  0.5359 -1.2749
  240MOL0     O31572   2.595   5.799   6.259 -0.5380 -0.2868  0.9509
  240MOL0     C31573   2.472   5.801   6.199 -0.3758 -0.2370 -0.5447
  240MOL0     C31574   2.373   5.907   6.209 -0.0320 -0.1052  1.0582
  240MOL0     C31575   2.248   5.884   6.141  0.6206  0.1051  0.0978
  240MOL0     C31576   2.218   5.763   6.079  0.4091 -0.3300  0.6636
  240MOL0     C31577   2.098   5.736   5.997  0.0438  0.2368 -0.3179
  240MOL0     O31578   2.001   5.824   6.018 -0.0114  0.1215  0.2316
  240MOL0     C31579   1.876   5.790   5.965  0.7005 -0.0141 -0.7660
  240MOL0     C31580   1.840   5.852   5.850  0.4235  0.1772 -0.9606
  240MOL0     C31581   1.722   5.817   5.789  0.3467 -0.1791 -0.2680
  240MOL0     C31582   1.637   5.725   5.839  0.1337 -0.1527  0.1915
  240MOL0     O31583   1.519   5.666   5.799 -0.5351  0.0275 -0.1204
  240MOL0     C31584   1.469   5.709   5.674  0.8105 -0.4588  0.0788
  240MOL0     C31585   1.516   5.633   5.550 -0.7844  0.3480  0.5572
  240MOL0     C31586   1.498   5.708   5.408 -0.7084  0.1309  0.4641
  240MOL0     C31587   1.537   5.624   5.290 -0.3922 -0.5435 -0.3741
  240MOL0     C31588   1.425   5.537   5.234 -0.3934  0.6217 -0.5225
  240MOL0     C31589   1.472   5.487   5.100  0.3698  0.3753  1.0337
  240MOL0     C31590   1.477   5.599   4.993 -0.0006  0.1507 -0.0442
  240MOL0     C31591   1.378   5.580   4.869  0.0566  0.6673  0.8543
  240MOL0    Cl31592   1.212   5.640   4.911  0.5807 -0.3396 -0.6178
  240MOL0     C31593   1.680   5.668   5.958 -0.7015  0.4896  0.8585
  240MOL0     C31594   1.796   5.692   6.026  0.4680 -0.6715 -0.5163
  240MOL0     O31595   2.094   5.636   5.930  0.0973  0.2888  0.4896
  240MOL0     C31596   2.315   5.663   6.084  0.6534  0.4737  0.1814
  240MOL0     C31597   2.441   5.685   6.138 -0.2211  0.3821 -0.3208
  240MOL0     N31598   3.114   5.802   6.603  0.0172 -0.0212  0.0964
  240MOL0     N31599   3.140   5.689   6.662  0.5599  0.7144 -0.6451
  240MOL0     C31600   2.041   5.209   6.400 -0.1567 -0.6049  0.1622
  240MOL0     C31601   1.911   5.160   6.379 -0.0897  0.1175 -0.3274
  240MOL0     C31602   1.494   5.107   6.161 -0.4141  0.4703 -0.5896
  240MOL0     C31603   1.441   4.994   6.110 -0.1187  0.0681 -0.2817
  240MOL0     C31604   1.307   4.973   6.083 -0.9395  0.9606  0.4861
  240MOL0     C31605   1.219   5.079   6.103  0.2007 -0.0751  1.1122
  240MOL0     O31606   1.083   5.074   6.085 -0.3133 -0.4089 -0.2951
  240MOL0     C31607   1.033   5.056   5.956 -0.2903  0.1430 -0.2291
  240MOL0     C31608   0.919   5.156   5.924 -0.3634  0.0252  0.1498
  240MOL0     C31609   0.965   5.300   5.952  0.1920  0.2746 -0.6603
  240MOL0     C31610   1.003   5.374   5.823  0.0332 -0.8812  0.3346
  240MOL0     C31611   1.115   5.324   5.750  0.9444  0.2197 -0.6651
  240MOL0     C31612   1.215   5.281   5.696 -0.5406  0.0941 -0.6779
  240MOL0     C31613   1.267   5.196   6.162  0.5265  0.6727 -0.0042
  240MOL0     C31614   1.400   5.207   6.186  0.0033 -0.0036 -0.7896
  240MOL0     H31615   1.784   5.400   6.171 -2.2559 -3.5032 -0.4812
  240MOL0     H31616   2.023   5.497   6.215  2.5149 -0.4992  1.1128
  240MOL0     H31617   2.324   5.206   6.360 -0.6707 -0.7832  1.0683
  240MOL0     H31618   2.305   5.285   6.516 -3.2279  2.9199  1.0822
  240MOL0     H31619   2.426   5.490   6.436 -0.4690 -0.9143  1.1935
  240MOL0     H31620   2.442   5.416   6.278 -0.4132  2.5132  0.4086
  240MOL0     H31621   2.571   5.225   6.403  2.4022 -0.5826  1.9324
  240MOL0     H31622   2.552   5.296   6.550 -0.3225 -0.7046  0.6251
  240MOL0     H31623   2.702   5.440   6.313  0.9683  3.8997  0.6639
  240MOL0     H31624   2.694   5.505   6.461 -0.2322  0.9300 -3.5563
  240MOL0     H31625   2.896   5.335   6.375 -1.0115  1.1460 -2.2681
  240MOL0     H31626   2.781   5.208   6.411 -2.7620  0.4541  2.8478
  240MOL0     H31627   2.929   5.207   6.604 -1.0448 -1.0026  2.6361
  240MOL0     H31628   2.762   5.262   6.641 -2.6768  4.8963 -3.4633
  240MOL0     H31629   2.853   5.495   6.644 -0.0270 -0.2034  0.3608
  240MOL0     H31630   2.935   5.412   6.756  0.0878  3.2835 -0.2859
  240MOL0     H31631   3.092   5.393   6.504 -1.7101  0.5992 -0.0732
  240MOL0     H31632   3.138   5.419   6.673  2.2466 -0.2028 -1.3907
  240MOL0     H31633   3.020   5.607   6.357  1.5261 -0.6256 -0.5947
  240MOL0     H31634   3.106   5.909   6.299 -1.9048 -0.8821 -0.4836
  240MOL0     H31635   3.027   5.994   6.446 -2.2884  0.2319  1.5250
  240MOL0     H31636   2.896   5.797   6.256  3.2762  0.4952 -0.0126
  240MOL0     H31637   2.896   5.982   6.234  0.3167  3.5961  4.1980
  240MOL0     H31638   2.778   5.791   6.445  1.3978  1.1436  1.7328
  240MOL0     H31639   2.806   5.959   6.478  2.6086  1.2218 -1.2656
  240MOL0     H31640   2.654   5.992   6.252  0.9051  0.7844 -0.9623
  240MOL0     H31641   2.572   5.941   6.402 -0.3187 -0.2970 -1.3933
  240MOL0     H31642   2.383   6.003   6.259 -0.4639 -0.7350  2.4055
  240MOL0     H31643   2.172   5.961   6.155 -0.5778 -1.1912  0.9928
  240MOL0     H31644   1.913   5.921   5.810 -0.5453  1.2754 -0.8899
  240MOL0     H31645   1.693   5.862   5.694 -0.5997  1.5464  0.7694
  240MOL0     H31646   1.485   5.816   5.662  2.5339 -0.4579  1.9269
  240MOL0     H31647   1.361   5.694   5.681  0.7029  0.4340  0.3721
  240MOL0     H31648   1.475   5.532   5.554 -2.3560  0.9163 -0.2411
  240MOL0     H31649   1.624   5.627   5.564 -0.5591  1.2169 -0.6967
  240MOL0     H31650   1.550   5.804   5.414  1.6038 -1.0579  0.9684
  240MOL0     H31651   1.392   5.734   5.408 -1.1068 -1.3322 -0.9693
  240MOL0     H31652   1.571   5.687   5.207 -3.5438 -0.0776 -1.4737
  240MOL0     H31653   1.611   5.552   5.326 -1.7470  0.1548  4.4246
  240MOL0     H31654   1.334   5.597   5.228 -0.4472  0.4428 -1.5643
  240MOL0     H31655   1.393   5.465   5.310 -1.3937  4.1656  2.7731
  240MOL0     H31656   1.394   5.415   5.073 -0.5157  1.7170 -0.1946
  240MOL0     H31657   1.566   5.432   5.103  0.2072  0.0429  0.3086
  240MOL0     H31658   1.461   5.696   5.040  4.4585  0.1397  2.0561
  240MOL0     H31659   1.584   5.598   4.967  0.3576 -2.4659  1.2021
  240MOL0     H31660   1.370   5.478   4.830  0.2901  1.1433 -0.5124
  240MOL0     H31661   1.396   5.639   4.778 -2.4825 -0.9382 -0.8165
  240MOL0     H31662   1.611   5.595   5.997 -1.2531 -0.8016 -2.2571
  240MOL0     H31663   1.822   5.655   6.124  1.3327  1.5890  0.1817
  240MOL0     H31664   2.295   5.578   6.020 -1.9353  2.2982 -1.6193
  240MOL0     H31665   2.513   5.604   6.134  0.4270  0.9956 -1.4034
  240MOL0     H31666   2.104   5.163   6.476  2.3057  3.4538  0.9179
  240MOL0     H31667   1.863   5.073   6.423 -0.3734 -0.1112 -1.0725
  240MOL0     H31668   1.507   4.908   6.114  0.4317  0.4852 -0.3562
  240MOL0     H31669   1.273   4.874   6.055 -0.2446  0.2833  1.9304
  240MOL0     H31670   0.996   4.954   5.941  0.0139  0.3745 -3.0157
  240MOL0     H31671   1.119   5.065   5.890  0.1316 -3.3040 -0.3238
  240MOL0     H31672   0.900   5.158   5.816 -0.1429  1.5608  0.1253
  240MOL0     H31673   0.832   5.133   5.985 -0.4957 -1.1241 -0.4407
  240MOL0     H31674   1.054   5.305   6.014  0.0527 -0.4227 -0.3951
  240MOL0     H31675   0.889   5.359   6.004  1.8877  1.5395  0.4835
  240MOL0     H31676   0.913   5.384   5.761  1.2591 -0.3222 -1.4319
  240MOL0     H31677   1.029   5.474   5.858  0.1860  0.2435 -2.6942
  240MOL0     H31678   1.301   5.247   5.643  1.9527  4.1213  0.3398
  240MOL0     H31679   1.189   5.259   6.205  1.3622  1.4971  0.3273
  240MOL0     H31680   1.436   5.302   6.224  1.6535 -0.6437 -0.6804
  241MOL0     O31681   4.090   9.007   4.294 -0.1764  0.2558  0.8943
  241MOL0     C31682   4.099   8.887   4.275  0.4952  0.2415 -0.8347
  241MOL0     O31683   3.998   8.797   4.268 -0.1130 -0.6040  0.4832
  241MOL0     C31684   3.887   8.832   4.342  0.4293 -0.4286  0.0375
  241MOL0     C31685   3.899   8.861   4.483  0.4437 -0.7149 -0.0336
  241MOL0     C31686   3.785   8.867   4.567  0.7976  0.0384 -0.1008
  241MOL0     C31687   3.655   8.842   4.523  0.5470  0.4900  0.1299
  241MOL0     O31688   3.538   8.834   4.596 -0.8775 -0.4851 -0.1711
  241MOL0     C31689   3.532   8.726   4.683  0.0482  0.0961 -0.4088
  241MOL0     C31690   3.561   8.781   4.824 -0.4674  0.3676  0.2697
  241MOL0     C31691   3.526   8.683   4.938 -0.4889 -0.4685 -0.1881
  241MOL0     C31692   3.613   8.704   5.058 -0.0999  0.0404 -0.4030
  241MOL0     C31693   3.580   8.616   5.167 -0.2035 -0.2296  0.1173
  241MOL0     C31694   3.700   8.608   5.266  0.5396  0.3839 -0.1828
  241MOL0     C31695   3.684   8.531   5.392  0.3093 -0.1617 -0.2508
  241MOL0     C31696   3.570   8.591   5.480 -0.7000  0.2951 -0.4638
  241MOL0     N31697   3.566   8.510   5.609  0.0002 -0.0593  1.4008
  241MOL0     C31698   3.457   8.521   5.696  0.2872  0.6694 -0.1876
  241MOL0     C31699   3.496   8.479   5.819 -0.0532  0.3979 -0.3753
  241MOL0     C31700   3.422   8.464   5.949  0.3011  0.1993  0.1101
  241MOL0     C31701   3.280   8.415   5.911 -0.4191  0.1116  0.6636
  241MOL0     C31702   3.193   8.436   6.037 -0.2331  0.6605 -0.5957
  241MOL0     C31703   3.044   8.455   6.015  0.3018  0.5579  1.0293
  241MOL0     O31704   3.000   8.336   5.952  1.0136  0.0376  0.7189
  241MOL0     C31705   2.873   8.330   5.890 -0.1254 -0.1703  0.6726
  241MOL0     C31706   2.811   8.207   5.889  0.7432  0.6382  0.1675
  241MOL0     C31707   2.684   8.189   5.848 -0.5653  0.1767 -0.0871
  241MOL0     C31708   2.605   8.298   5.805  0.0610  0.3220  0.4330
  241MOL0     C31709   2.473   8.277   5.738 -0.4313  0.5853 -0.8086
  241MOL0     O31710   2.437   8.152   5.689 -0.9414 -0.7449  0.3947
  241MOL0     C31711   2.310   8.137   5.646  0.0783  0.1096 -0.0374
  241MOL0     C31712   2.220   8.071   5.734  0.1791 -0.3561 -0.0001
  241MOL0     C31713   2.085   8.065   5.689 -0.3607 -1.2092 -0.2670
  241MOL0     C31714   2.047   8.126   5.573  1.2690 -0.4445  0.5275
  241MOL0     O31715   1.909   8.130   5.531  0.2459  0.7325 -1.1375
  241MOL0     C31716   1.808   8.071   5.620  0.3072 -0.4059  0.6288
  241MOL0     C31717   1.673   8.095   5.563  0.0343  0.1239  1.3304
  241MOL0     C31718   1.572   8.051   5.664  0.3601  0.2026  0.1101
  241MOL0     C31719   1.423   8.084   5.613  0.3004 -0.1214  0.2455
  241MOL0     C31720   1.327   8.076   5.733  0.4660  0.4921  0.3776
  241MOL0     C31721   1.336   7.937   5.797  0.1719  0.6392 -0.7512
  241MOL0     C31722   1.228   7.918   5.899  0.2804 -0.1164 -0.1143
  241MOL0     C31723   1.166   7.779   5.907 -0.3581  0.6642  0.2567
  241MOL0    Cl31724   1.064   7.731   5.760  0.1893 -0.2576  0.3545
  241MOL0     C31725   2.136   8.190   5.496 -0.7544 -0.3716  0.0663
  241MOL0     C31726   2.275   8.203   5.526 -0.0085 -0.3054 -0.7709
  241MOL0     O31727   2.401   8.374   5.728 -0.1078  0.4475 -0.2882
  241MOL0     C31728   2.668   8.429   5.805  0.3597 -0.4864 -0.1942
  241MOL0     C31729   2.797   8.442   5.852 -0.6995 -0.4119 -0.3238
  241MOL0     N31730   3.630   8.449   5.805 -0.0376 -0.4481  0.3590
  241MOL0     N31731   3.671   8.468   5.680 -0.3493  0.2375 -0.4077
  241MOL0     C31732   3.643   8.815   4.385 -0.2347  0.1330 -0.3077
  241MOL0     C31733   3.754   8.798   4.300 -0.3265 -0.2686  0.4639
  241MOL0     C31734   4.230   8.830   4.242 -0.5134 -0.8648  0.5027
  241MOL0     C31735   4.346   8.914   4.211  0.1771 -0.6285 -0.0104
  241MOL0     C31736   4.467   8.852   4.188 -0.2671 -0.9138  0.5841
  241MOL0     C31737   4.485   8.716   4.165 -0.0507 -0.8164  0.2089
  241MOL0     O31738   4.601   8.648   4.157  0.6173 -0.6480  0.7911
  241MOL0     C31739   4.723   8.721   4.136 -0.0653  0.6794 -0.1853
  241MOL0     C31740   4.826   8.617   4.099  0.1940 -0.4960  1.1073
  241MOL0     C31741   4.967   8.668   4.104 -0.2312 -0.1407  0.7474
  241MOL0     C31742   5.009   8.704   3.962  0.6746 -0.1206 -0.0440
  241MOL0     C31743   5.137   8.767   3.954  0.3792 -0.1512  0.5455
  241MOL0     C31744   5.252   8.807   3.960  0.2543  0.0252 -0.3843
  241MOL0     C31745   4.377   8.630   4.184  0.1023 -0.1269  0.3914
  241MOL0     C31746   4.255   8.691   4.222  0.2018  0.0395 -1.2330
  241MOL0     H31747   3.994   8.889   4.526  1.0280 -0.0824 -1.6907
  241MOL0     H31748   3.811   8.888   4.671  1.0551 -2.5877  0.4228
  241MOL0     H31749   3.608   8.650   4.658  0.1813  0.3883 -0.9042
  241MOL0     H31750   3.432   8.681   4.681  1.3426 -3.0577 -2.5361
  241MOL0     H31751   3.504   8.874   4.837 -2.2474 -0.5453 -0.6281
  241MOL0     H31752   3.669   8.797   4.830 -0.6695  1.4041  2.1698
  241MOL0     H31753   3.532   8.583   4.895 -1.6408 -0.6919  0.1419
  241MOL0     H31754   3.424   8.705   4.972  0.2710  0.4721  1.6656
  241MOL0     H31755   3.719   8.689   5.035  0.1007  2.6851 -1.5802
  241MOL0     H31756   3.584   8.806   5.085 -2.3951 -0.0119 -2.3290
  241MOL0     H31757   3.562   8.512   5.136 -0.5341 -0.7924  2.0756
  241MOL0     H31758   3.489   8.664   5.204 -0.3752 -1.8053  1.8824
  241MOL0     H31759   3.734   8.707   5.297  0.7007 -0.0431  1.0861
  241MOL0     H31760   3.777   8.563   5.203  0.6392  1.4209 -0.8117
  241MOL0     H31761   3.662   8.426   5.371 -0.6173  0.5132 -3.0275
  241MOL0     H31762   3.781   8.536   5.442  0.6453 -0.6193 -0.8567
  241MOL0     H31763   3.475   8.566   5.432 -0.7600 -0.8487  0.1960
  241MOL0     H31764   3.584   8.698   5.497 -2.5339  0.6884 -1.2464
  241MOL0     H31765   3.361   8.567   5.672  0.1637  1.7678  2.1594
  241MOL0     H31766   3.426   8.563   5.994  1.5993  1.0413 -1.7156
  241MOL0     H31767   3.480   8.398   6.014  2.9439  2.9019  0.6857
  241MOL0     H31768   3.288   8.309   5.883  0.2278  0.1233  0.7901
  241MOL0     H31769   3.228   8.460   5.826  0.5483  0.1225  0.0649
  241MOL0     H31770   3.204   8.342   6.091 -0.9864  1.7017  1.4833
  241MOL0     H31771   3.225   8.517   6.103 -2.0724  1.7547 -0.9741
  241MOL0     H31772   3.034   8.538   5.945  2.0999  0.1369  0.2195
  241MOL0     H31773   2.986   8.489   6.101  0.7863  1.6431  0.9445
  241MOL0     H31774   2.867   8.125   5.932 -1.1730 -0.4789  0.6570
  241MOL0     H31775   2.648   8.087   5.848  1.2134 -0.4910  0.9604
  241MOL0     H31776   2.248   8.047   5.836 -0.3661  0.7274  0.4126
  241MOL0     H31777   2.014   8.012   5.751  1.5450 -2.6327  0.8111
  241MOL0     H31778   1.818   8.124   5.715 -1.7765  1.2374  0.0221
  241MOL0     H31779   1.823   7.963   5.612 -0.9198 -0.4669 -3.7008
  241MOL0     H31780   1.659   8.056   5.461 -1.4094  2.4614  0.5330
  241MOL0     H31781   1.683   8.202   5.542 -0.3890  0.0130  0.5203
  241MOL0     H31782   1.590   8.115   5.751  1.4836 -0.5501  0.4533
  241MOL0     H31783   1.586   7.946   5.690 -0.0554 -0.7004 -2.8764
  241MOL0     H31784   1.415   8.186   5.574  0.1497 -0.2692 -0.1155
  241MOL0     H31785   1.393   8.010   5.538  0.2259  0.6055 -0.4535
  241MOL0     H31786   1.224   8.093   5.700 -0.6265 -5.6639 -0.4471
  241MOL0     H31787   1.341   8.158   5.803 -0.8527  0.6112  0.5323
  241MOL0     H31788   1.435   7.924   5.842 -0.3587  3.2854  1.4237
  241MOL0     H31789   1.321   7.869   5.713  2.9392 -0.6697 -0.2944
  241MOL0     H31790   1.268   7.950   5.995 -1.4916 -0.6443  0.8433
  241MOL0     H31791   1.146   7.989   5.892  1.8800  2.0309  1.3766
  241MOL0     H31792   1.116   7.769   6.003  1.8970  0.2635  1.4509
  241MOL0     H31793   1.253   7.713   5.914 -0.4381  0.6179  0.8413
  241MOL0     H31794   2.087   8.236   5.411  2.8802 -1.0471 -2.6074
  241MOL0     H31795   2.342   8.279   5.487  1.3191 -0.6555  0.6804
  241MOL0     H31796   2.605   8.515   5.784  2.0792  1.1153  0.9393
  241MOL0     H31797   2.829   8.546   5.862 -0.4339 -0.3587 -1.5549
  241MOL0     H31798   3.543   8.802   4.346 -0.1637  3.3872 -1.8339
  241MOL0     H31799   3.738   8.770   4.196 -0.6641  3.9635 -0.8015
  241MOL0     H31800   4.351   9.022   4.222  1.6621 -0.3360 -2.6005
  241MOL0     H31801   4.555   8.916   4.186  1.8202 -3.5952  0.4575
  241MOL0     H31802   4.746   8.773   4.230  1.8199  0.0274 -0.2489
  241MOL0     H31803   4.704   8.795   4.058 -1.0533  1.4209  0.7293
  241MOL0     H31804   4.815   8.530   4.165 -1.5670 -2.3509 -1.4223
  241MOL0     H31805   4.803   8.581   3.998 -2.0794 -1.1877  1.7958
  241MOL0     H31806   5.028   8.582   4.134 -0.1551 -1.0845 -1.8775
  241MOL0     H31807   4.981   8.748   4.177  2.9504  1.7085 -1.6550
  241MOL0     H31808   5.008   8.613   3.899  1.1550 -0.9843  1.1650
  241MOL0     H31809   4.929   8.770   3.929  0.3308 -0.7567 -0.5272
  241MOL0     H31810   5.356   8.828   3.950  0.7446 -1.6028  0.7963
  241MOL0     H31811   4.392   8.527   4.154  1.1612  0.1273 -0.0164
  241MOL0     H31812   4.174   8.619   4.233 -2.0051  2.5987  0.3354
  242MOL0     O31813   6.955   3.439   9.105  1.0448 -0.3435 -0.7472
  242MOL0     C31814   7.004   3.395   9.204  0.3722  0.4552 -0.9666
  242MOL0     O31815   6.939   3.368   9.319 -0.1764  0.1077 -0.2477
  242MOL0     C31816   6.811   3.408   9.340  0.3416 -0.2551 -0.2304
  242MOL0     C31817   6.746   3.343   9.440 -0.0970  0.0699 -0.1536
  242MOL0     C31818   6.626   3.394   9.497  0.3678  0.1614  0.0838
  242MOL0     C31819   6.571   3.513   9.451  1.1597  0.8419 -0.2552
  242MOL0     O31820   6.473   3.559   9.536  0.4088 -0.5377  0.3282
  242MOL0     C31821   6.382   3.656   9.481  0.1434 -0.7978 -0.0540
  242MOL0     C31822   6.275   3.583   9.394  0.1099 -0.3338  0.9968
  242MOL0     C31823   6.189   3.479   9.459  0.6744 -0.4911  0.7121
  242MOL0     C31824   6.112   3.385   9.367  0.4997 -0.9259 -0.3441
  242MOL0     C31825   5.990   3.331   9.423 -0.0858 -0.2264  0.2606
  242MOL0     C31826   5.899   3.235   9.337  0.2384  0.1326 -0.2839
  242MOL0     C31827   5.961   3.100   9.311  0.2143  0.4029 -0.8789
  242MOL0     C31828   5.893   3.019   9.210 -0.1209  0.4589  0.5646
  242MOL0     N31829   5.935   2.872   9.227 -0.1715  0.4722 -0.4623
  242MOL0     C31830   5.854   2.764   9.268 -0.5810 -0.1324  0.5002
  242MOL0     C31831   5.939   2.667   9.291 -0.6374  0.1090 -0.8671
  242MOL0     C31832   5.891   2.535   9.332  0.7816 -0.1040 -0.6682
  242MOL0     C31833   5.816   2.457   9.221 -1.1239  0.7546  0.0126
  242MOL0     C31834   5.907   2.419   9.109  0.6657  0.8312  0.1196
  242MOL0     C31835   5.834   2.336   8.997  0.1109  0.3823 -0.9444
  242MOL0     O31836   5.719   2.391   8.943  0.4340 -0.2603  0.5852
  242MOL0     C31837   5.638   2.312   8.873 -0.0061  0.4191  1.3655
  242MOL0     C31838   5.526   2.376   8.825  0.5771  1.7112  1.3657
  242MOL0     C31839   5.423   2.311   8.759  0.2592 -0.0452  0.2932
  242MOL0     C31840   5.436   2.180   8.720 -0.5170  0.1982  0.9432
  242MOL0     C31841   5.342   2.106   8.628 -0.7624  0.1383 -0.0502
  242MOL0     O31842   5.245   2.179   8.573  0.1705  0.1830 -0.3656
  242MOL0     C31843   5.166   2.146   8.468  0.3013 -0.2086  0.1184
  242MOL0     C31844   5.102   2.022   8.454  0.3488  1.0931 -0.9561
  242MOL0     C31845   5.024   1.986   8.339  1.0287  1.3311  0.1429
  242MOL0     C31846   4.993   2.085   8.244  0.0049 -0.4008  0.0763
  242MOL0     O31847   4.907   2.087   8.134 -0.0333  0.6966  0.4261
  242MOL0     C31848   4.822   1.982   8.105  1.0582  1.1446 -0.7337
  242MOL0     C31849   4.695   1.978   8.199 -0.3945  0.0390 -0.3104
  242MOL0     C31850   4.564   1.956   8.120 -1.3333  0.5184 -0.2382
  242MOL0     C31851   4.448   2.004   8.197 -0.5331  0.3467 -0.5952
  242MOL0     C31852   4.336   2.011   8.089 -0.2290  0.1883  0.9989
  242MOL0     C31853   4.197   2.000   8.155  0.5677 -0.5298 -0.0201
  242MOL0     C31854   4.156   2.139   8.203  0.8253  0.2808 -0.6462
  242MOL0     C31855   4.108   2.241   8.098 -0.0992  0.7836 -0.8243
  242MOL0    Cl31856   3.953   2.188   8.024  0.2618  0.1053 -0.3434
  242MOL0     C31857   5.069   2.198   8.255 -1.6747 -0.3731  0.2478
  242MOL0     C31858   5.149   2.228   8.358 -0.0350  0.7362  0.6308
  242MOL0     O31859   5.357   1.982   8.612 -0.1418 -0.9978  0.8177
  242MOL0     C31860   5.549   2.111   8.773 -0.0611  0.3266  1.0065
  242MOL0     C31861   5.652   2.175   8.848 -0.2303  0.1378  0.6470
  242MOL0     N31862   6.068   2.702   9.258 -0.5704 -0.5680 -0.2308
  242MOL0     N31863   6.070   2.831   9.228 -0.5986  0.2314 -0.1776
  242MOL0     C31864   6.620   3.568   9.335  0.1431 -0.0583  0.1913
  242MOL0     C31865   6.739   3.517   9.278  0.1925  0.3310 -0.1062
  242MOL0     C31866   7.145   3.384   9.207 -0.3858 -0.4134 -0.0706
  242MOL0     C31867   7.215   3.440   9.319  0.1051  0.6014 -0.0733
  242MOL0     C31868   7.356   3.449   9.313 -0.3912  0.1622 -0.3386
  242MOL0     C31869   7.432   3.407   9.200  0.0831 -0.2228 -0.3586
  242MOL0     O31870   7.568   3.406   9.187  0.1021  0.2737  1.0983
  242MOL0     C31871   7.646   3.492   9.265 -0.2178 -0.3755 -0.4346
  242MOL0     C31872   7.796   3.476   9.232 -0.1034  1.0011 -0.2404
  242MOL0     C31873   7.833   3.532   9.099 -0.3712 -0.1825  0.0231
  242MOL0     C31874   7.979   3.531   9.065 -0.4374 -0.1858  0.2954
  242MOL0     C31875   8.006   3.559   8.921  0.2557 -0.6271 -0.9781
  242MOL0     C31876   8.041   3.588   8.804 -0.5378  0.2056 -0.0548
  242MOL0     C31877   7.366   3.355   9.090  0.1927 -0.2766 -0.4429
  242MOL0     C31878   7.227   3.342   9.099 -0.4266 -0.4233  0.5708
  242MOL0     H31879   6.793   3.254   9.480 -0.6632 -2.4212 -4.4061
  242MOL0     H31880   6.575   3.353   9.584  1.6916  0.2612  0.9516
  242MOL0     H31881   6.428   3.745   9.438  0.8083 -0.1195  1.9727
  242MOL0     H31882   6.329   3.698   9.567 -1.8931 -0.2051 -1.5129
  242MOL0     H31883   6.335   3.539   9.314  0.5817 -1.5230  1.9593
  242MOL0     H31884   6.214   3.664   9.354  0.1647 -0.2830  1.0160
  242MOL0     H31885   6.119   3.547   9.509  0.3216  0.2415 -0.7025
  242MOL0     H31886   6.240   3.418   9.534  2.0562  0.8267  0.8821
  242MOL0     H31887   6.085   3.421   9.267  0.2835 -1.5384 -0.5091
  242MOL0     H31888   6.166   3.292   9.348 -0.9326 -2.1453  1.2577
  242MOL0     H31889   5.932   3.419   9.452  2.9996  2.1172 -0.2837
  242MOL0     H31890   6.025   3.277   9.511 -0.2309 -0.2456  0.3070
  242MOL0     H31891   5.868   3.289   9.247 -2.5453  0.6946  0.8973
  242MOL0     H31892   5.806   3.206   9.387  0.0007  1.2822 -0.0064
  242MOL0     H31893   6.062   3.114   9.272  1.2786 -0.6294  1.2970
  242MOL0     H31894   5.964   3.047   9.407 -2.5725  0.8986 -0.4331
  242MOL0     H31895   5.914   3.057   9.109 -0.5696  2.0652  1.0523
  242MOL0     H31896   5.784   3.021   9.217 -0.1513 -1.9193  1.4100
  242MOL0     H31897   5.746   2.752   9.269 -0.7150  0.0578 -2.2463
  242MOL0     H31898   5.829   2.555   9.420  1.4585 -0.2703 -0.1418
  242MOL0     H31899   5.982   2.487   9.368  1.3224  0.2994 -1.4710
  242MOL0     H31900   5.738   2.530   9.194  0.2779  2.1367 -0.4199
  242MOL0     H31901   5.770   2.367   9.263  2.9295 -1.8634 -0.6127
  242MOL0     H31902   5.953   2.499   9.050  0.7638 -0.4177 -1.5284
  242MOL0     H31903   5.998   2.363   9.134 -0.4280 -1.4135 -0.6980
  242MOL0     H31904   5.817   2.237   9.040  1.7312 -0.1510 -1.4774
  242MOL0     H31905   5.911   2.316   8.922 -2.1258 -1.3511 -2.9062
  242MOL0     H31906   5.518   2.484   8.840  0.3838  2.3368 -2.3324
  242MOL0     H31907   5.346   2.376   8.719 -1.7106 -1.3358  1.7961
  242MOL0     H31908   5.114   1.947   8.532 -1.9318  0.5209 -1.1005
  242MOL0     H31909   4.994   1.885   8.315 -0.7812  1.5959  1.1956
  242MOL0     H31910   4.880   1.889   8.110  0.8466  1.0564  0.4455
  242MOL0     H31911   4.798   1.996   7.999  1.3336 -0.9745 -1.1132
  242MOL0     H31912   4.685   2.073   8.251  0.6453  1.2853 -2.2483
  242MOL0     H31913   4.720   1.896   8.267 -1.6307 -0.3921 -0.3611
  242MOL0     H31914   4.565   1.850   8.091 -0.8779  0.6533 -0.7438
  242MOL0     H31915   4.574   2.010   8.025  0.2387  1.1931  0.2716
  242MOL0     H31916   4.420   1.938   8.280 -0.3940 -0.7215 -1.3806
  242MOL0     H31917   4.467   2.106   8.232 -2.5852  1.1733 -1.7375
  242MOL0     H31918   4.343   1.927   8.019  0.8473  2.7706 -2.2520
  242MOL0     H31919   4.341   2.101   8.027 -0.9516 -0.5809 -0.2174
  242MOL0     H31920   4.204   1.933   8.241  1.9238 -0.5119 -0.0965
  242MOL0     H31921   4.123   1.956   8.088  0.2508 -1.3741  0.8636
  242MOL0     H31922   4.086   2.112   8.283  0.2896  0.4236 -1.0620
  242MOL0     H31923   4.242   2.186   8.252  1.4004  0.1864 -1.5263
  242MOL0     H31924   4.184   2.244   8.019 -1.0081  5.1334 -1.7915
  242MOL0     H31925   4.095   2.343   8.134 -2.2583  0.9363 -1.8829
  242MOL0     H31926   5.059   2.274   8.178 -0.1819 -1.2007 -0.8051
  242MOL0     H31927   5.210   2.317   8.348 -3.2113  3.0759  0.5150
  242MOL0     H31928   5.571   2.011   8.739 -1.5774  0.8325 -1.6999
  242MOL0     H31929   5.741   2.120   8.876  0.0316  0.3457  0.2400
  242MOL0     H31930   6.573   3.655   9.291 -1.5997  0.3369  2.6440
  242MOL0     H31931   6.785   3.573   9.198  0.5573 -1.3254 -1.0895
  242MOL0     H31932   7.168   3.457   9.415  0.6311  1.3478  0.0630
  242MOL0     H31933   7.404   3.477   9.407 -1.5742  0.1884  0.2770
  242MOL0     H31934   7.634   3.466   9.371 -0.0986 -2.5657 -0.9107
  242MOL0     H31935   7.617   3.597   9.254 -2.7165 -0.6973  1.9365
  242MOL0     H31936   7.840   3.545   9.304  0.8021  1.0941 -0.8516
  242MOL0     H31937   7.840   3.376   9.248 -1.5457  0.1200 -1.4866
  242MOL0     H31938   7.797   3.635   9.092 -0.2039 -0.1987 -1.3284
  242MOL0     H31939   7.776   3.475   9.025 -0.0519  0.8012 -0.9977
  242MOL0     H31940   8.033   3.607   9.123 -2.5819  1.7362 -0.0833
  242MOL0     H31941   8.031   3.439   9.096  2.7307  1.1224 -0.6979
  242MOL0     H31942   8.058   3.591   8.698 -4.7547  1.4500 -0.8798
  242MOL0     H31943   7.416   3.315   9.003  1.3959 -0.4785  0.3161
  242MOL0     H31944   7.181   3.305   9.008 -0.4046  0.3793  0.2210
  243MOL0     O31945   4.929  10.490   1.875  0.6507  0.3932 -0.2179
  243MOL0     C31946   4.917  10.602   1.835 -1.1931 -0.5253  0.5992
  243MOL0     O31947   4.817  10.652   1.757 -0.4149  0.0144 -0.4103
  243MOL0     C31948   4.700  10.576   1.734  0.1167 -0.5538 -0.2663
  243MOL0     C31949   4.677  10.524   1.607 -0.5278  0.0645 -0.0341
  243MOL0     C31950   4.563  10.452   1.581 -0.9660 -0.0704  0.3537
  243MOL0     C31951   4.472  10.424   1.681 -0.1371 -0.4891 -0.3307
  243MOL0     O31952   4.348  10.375   1.653  0.2180  0.6534 -0.9398
  243MOL0     C31953   4.286  10.405   1.532 -0.1691 -0.4829 -0.4439
  243MOL0     C31954   4.148  10.478   1.559  0.4293  0.9295  0.5484
  243MOL0     C31955   4.173  10.624   1.598 -0.4018 -0.7395  0.4397
  243MOL0     C31956   4.047  10.692   1.648  0.3506 -0.3431  0.2745
  243MOL0     C31957   3.995  10.629   1.780  0.2278  0.2951 -0.4796
  243MOL0     C31958   3.881  10.719   1.833 -0.4053  0.4555  0.5463
  243MOL0     C31959   3.821  10.663   1.971  0.3248 -0.9603  0.6811
  243MOL0     C31960   3.686  10.733   2.018 -0.1067 -0.3916  0.3172
  243MOL0     N31961   3.568  10.734   1.923 -0.6453  0.0652 -0.0848
  243MOL0     C31962   3.501  10.622   1.884 -0.4368  0.5644  0.6557
  243MOL0     C31963   3.401  10.667   1.809 -0.5309  0.3356  0.7423
  243MOL0     C31964   3.296  10.566   1.756 -0.4801 -0.3757 -0.6042
  243MOL0     C31965   3.157  10.624   1.768 -0.5884  0.6160  0.0142
  243MOL0     C31966   3.124  10.661   1.914 -0.2144 -0.1272  0.1807
  243MOL0     C31967   2.971  10.711   1.913  0.1380 -0.1126 -0.2126
  243MOL0     O31968   2.878  10.605   1.906  0.1341  0.1785  0.2688
  243MOL0     C31969   2.748  10.626   1.861 -0.3574 -0.1776 -0.5069
  243MOL0     C31970   2.680  10.751   1.883  0.3692 -0.3642  0.5055
  243MOL0     C31971   2.557  10.779   1.816  0.5474  0.6011  0.5232
  243MOL0     C31972   2.496  10.680   1.737  0.0852  0.4702 -0.1756
  243MOL0     C31973   2.365  10.710   1.670  0.5521  0.6012 -0.7116
  243MOL0     O31974   2.315  10.632   1.570  0.7559  0.6527 -0.0503
  243MOL0     C31975   2.198  10.670   1.506  1.1430  1.0373  0.7857
  243MOL0     C31976   2.188  10.784   1.421  0.3989  0.4894 -0.3079
  243MOL0     C31977   2.075  10.813   1.343 -0.0931 -0.0030  0.3432
  243MOL0     C31978   1.963  10.719   1.332 -0.4390  0.0845  1.3195
  243MOL0     O31979   1.850  10.738   1.256  0.3068  0.5911  0.0922
  243MOL0     C31980   1.835  10.856   1.189  0.5552 -0.1729  0.9260
  243MOL0     C31981   1.715  10.836   1.099  0.0825 -0.2334 -0.5796
  243MOL0     C31982   1.580  10.860   1.171 -1.0763  0.4224 -0.1304
  243MOL0     C31983   1.463  10.821   1.074 -0.3854 -0.3445 -0.5365
  243MOL0     C31984   1.348  10.798   1.171  0.6646 -0.7061  0.1625
  243MOL0     C31985   1.213  10.811   1.102  0.1557 -0.2133  0.2547
  243MOL0     C31986   1.188  10.954   1.033  0.2367 -0.8094 -0.0495
  243MOL0     C31987   1.119  10.930   0.903 -0.2270 -0.6375  0.3243
  243MOL0    Cl31988   0.961  10.838   0.896  0.1005 -0.0561 -0.0013
  243MOL0     C31989   1.966  10.614   1.426  1.1611 -0.1790  1.0687
  243MOL0     C31990   2.086  10.579   1.493  0.0879 -0.3908  0.3681
  243MOL0     O31991   2.306  10.804   1.722  0.0990 -0.2656  0.2219
  243MOL0     C31992   2.557  10.551   1.729 -0.0394 -0.5688  0.0107
  243MOL0     C31993   2.683  10.529   1.781  0.3474  0.1745  0.3301
  243MOL0     N31994   3.403  10.807   1.805 -0.2205  0.1375  0.1089
  243MOL0     N31995   3.507  10.845   1.877  0.4742  0.4189  0.4687
  243MOL0     C31996   4.494  10.468   1.803 -0.6460 -0.8383 -0.6937
  243MOL0     C31997   4.603  10.545   1.837 -0.5478  0.0507 -0.5700
  243MOL0     C31998   5.032  10.705   1.858  0.3291 -0.1988 -0.4351
  243MOL0     C31999   5.008  10.837   1.821 -0.0885 -0.7139 -0.2159
  243MOL0     C32000   5.113  10.926   1.829 -0.5147 -0.2987  0.3862
  243MOL0     C32001   5.240  10.894   1.884  0.6595 -0.2752 -0.1931
  243MOL0     O32002   5.316  11.001   1.894 -0.0228  0.0096 -0.4134
  243MOL0     C32003   5.443  10.982   1.972 -0.2309 -0.2764 -0.4322
  243MOL0     C32004   5.543  11.086   1.936 -0.1660  0.3384 -0.4636
  243MOL0     C32005   5.672  11.076   2.015 -1.2218 -0.4005  0.1354
  243MOL0     C32006   5.700  11.200   2.104  0.7555  1.0774 -0.4974
  243MOL0     C32007   5.844  11.208   2.125 -1.0135 -0.2394 -0.3632
  243MOL0     C32008   5.959  11.199   2.152 -0.5216  0.7403  0.2249
  243MOL0     C32009   5.261  10.761   1.925  0.3659  0.0253 -0.3170
  243MOL0     C32010   5.156  10.671   1.907  0.6986 -1.3696  0.2663
  243MOL0     H32011   4.746  10.548   1.526  0.0174 -0.3846  0.2875
  243MOL0     H32012   4.545  10.414   1.480  2.6369  0.6476 -0.7171
  243MOL0     H32013   4.255  10.315   1.477  3.4407 -0.2042 -3.2510
  243MOL0     H32014   4.345  10.469   1.466  2.0827 -1.4160  0.5632
  243MOL0     H32015   4.102  10.429   1.644  0.2850  0.4410  0.1939
  243MOL0     H32016   4.080  10.467   1.474  1.5872 -0.8933 -0.1824
  243MOL0     H32017   4.195  10.685   1.510 -0.2730 -2.0700 -0.4899
  243MOL0     H32018   4.259  10.627   1.665 -0.8276  1.1962  0.9700
  243MOL0     H32019   4.080  10.796   1.649  2.1993 -0.8902  0.1282
  243MOL0     H32020   3.967  10.677   1.575 -0.5084 -2.8985  1.6120
  243MOL0     H32021   4.082  10.632   1.846  0.8464 -0.7201 -1.2263
  243MOL0     H32022   3.960  10.526   1.768 -2.9924  1.3061 -0.8026
  243MOL0     H32023   3.810  10.726   1.750  2.3883 -1.2547 -2.2024
  243MOL0     H32024   3.925  10.816   1.857  1.1397  0.0461 -0.4724
  243MOL0     H32025   3.806  10.555   1.966 -0.0820 -0.8778 -2.7368
  243MOL0     H32026   3.900  10.679   2.045  1.0337 -3.1700  0.4719
  243MOL0     H32027   3.705  10.835   2.053  0.0698  0.4710 -2.1103
  243MOL0     H32028   3.655  10.674   2.106  2.0892 -0.3878  1.1645
  243MOL0     H32029   3.534  10.520   1.899  2.6973  0.4533 -4.4800
  243MOL0     H32030   3.303  10.472   1.812  0.2349  1.0978  1.9821
  243MOL0     H32031   3.306  10.546   1.649 -1.2559 -0.8644 -0.5953
  243MOL0     H32032   3.077  10.557   1.734 -1.5043  2.4968 -1.7941
  243MOL0     H32033   3.141  10.711   1.704  0.6176  0.3641 -0.6576
  243MOL0     H32034   3.139  10.580   1.987 -1.3095 -0.2653  0.2642
  243MOL0     H32035   3.192  10.747   1.921  0.2529 -0.1723 -2.7058
  243MOL0     H32036   2.954  10.788   1.838  4.6772 -0.3274 -1.7380
  243MOL0     H32037   2.970  10.764   2.009  2.6420 -0.3960  0.0297
  243MOL0     H32038   2.720  10.822   1.954  1.1000 -2.5490  2.4232
  243MOL0     H32039   2.508  10.872   1.846  0.8869  0.4744  1.5100
  243MOL0     H32040   2.281  10.839   1.416  0.9985 -0.3931  0.6710
  243MOL0     H32041   2.080  10.902   1.281 -2.8281 -1.0055 -1.4773
  243MOL0     H32042   1.918  10.866   1.119 -1.7973  1.7519 -1.8312
  243MOL0     H32043   1.817  10.947   1.247 -0.6735  0.5442 -0.4919
  243MOL0     H32044   1.716  10.731   1.068 -0.2192 -0.9560  1.7308
  243MOL0     H32045   1.727  10.899   1.010  0.4995 -0.3034 -0.5744
  243MOL0     H32046   1.564  10.963   1.205  3.6056  1.3974 -0.1898
  243MOL0     H32047   1.583  10.800   1.262  2.1432  1.9506  0.9295
  243MOL0     H32048   1.463  10.899   0.997 -0.5582  1.2357  1.0234
  243MOL0     H32049   1.468  10.733   1.009 -2.4761  0.2238 -1.5592
  243MOL0     H32050   1.359  10.868   1.254 -0.8364 -2.5376  2.0210
  243MOL0     H32051   1.356  10.703   1.224 -0.8936  0.4769  2.7141
  243MOL0     H32052   1.137  10.793   1.178 -1.9466 -1.3833 -1.9854
  243MOL0     H32053   1.216  10.731   1.027  1.5906 -0.8676  0.9825
  243MOL0     H32054   1.128  11.011   1.105  1.4161  1.7053 -0.9515
  243MOL0     H32055   1.280  11.010   1.017  0.1368 -1.4980 -3.8991
  243MOL0     H32056   1.193  10.890   0.833 -0.7311  2.5176 -2.2893
  243MOL0     H32057   1.102  11.019   0.841  1.4241 -0.8214 -0.4626
  243MOL0     H32058   1.879  10.553   1.446 -0.0869  1.1314 -0.1531
  243MOL0     H32059   2.103  10.480   1.535  2.3200  0.3600  1.3726
  243MOL0     H32060   2.502  10.461   1.700 -1.7285 -0.3898  2.3707
  243MOL0     H32061   2.740  10.441   1.755 -0.6249 -0.8333  1.5162
  243MOL0     H32062   4.417  10.444   1.876 -1.1919 -0.2422 -1.0617
  243MOL0     H32063   4.621  10.580   1.938 -0.0396 -1.6083 -0.0526
  243MOL0     H32064   4.913  10.866   1.777  0.3127 -1.5298 -1.6987
  243MOL0     H32065   5.092  11.025   1.791 -2.2557 -0.7563  0.0740
  243MOL0     H32066   5.485  10.884   1.945  0.9760  0.0691  0.1126
  243MOL0     H32067   5.425  10.974   2.079 -0.8221  0.6063 -0.4628
  243MOL0     H32068   5.576  11.089   1.832  0.0655  2.4842 -0.3764
  243MOL0     H32069   5.487  11.179   1.953 -1.3850 -0.3398 -0.6398
  243MOL0     H32070   5.743  11.083   1.932 -2.7537  2.2510 -1.1111
  243MOL0     H32071   5.695  10.993   2.082  0.5262  0.4592  0.6691
  243MOL0     H32072   5.657  11.287   2.053  1.2510  0.9717 -1.0957
  243MOL0     H32073   5.652  11.183   2.201  1.0322 -3.6233 -0.9585
  243MOL0     H32074   6.065  11.184   2.163 -0.6305 -2.2344 -1.7101
  243MOL0     H32075   5.353  10.718   1.964 -0.7358 -2.1219  0.0681
  243MOL0     H32076   5.162  10.569   1.945  0.0153 -0.8861  1.7770
  244MOL0     O32077   8.549   0.037   2.185 -0.5713  0.0424  0.4225
  244MOL0     C32078   8.606   0.145   2.183 -0.3272  0.4167 -1.0360
  244MOL0     O32079   8.543   0.269   2.178 -0.1701  0.2413  0.4310
  244MOL0     C32080   8.408   0.286   2.142  0.0043  0.9519 -0.1624
  244MOL0     C32081   8.300   0.186   2.142 -1.3004 -0.2472  1.0492
  244MOL0     C32082   8.171   0.213   2.106  0.2816  0.1607  0.0356
  244MOL0     C32083   8.134   0.345   2.075  0.0266 -0.7641 -0.7167
  244MOL0     O32084   8.008   0.396   2.039  0.0144 -0.0605  0.2779
  244MOL0     C32085   7.923   0.307   1.964 -0.3425  0.1288 -0.5460
  244MOL0     C32086   7.777   0.322   2.003  0.8248 -0.1928 -0.3637
  244MOL0     C32087   7.683   0.224   1.914 -0.3839 -0.7669  0.4799
  244MOL0     C32088   7.534   0.240   1.937 -0.3156  0.9093 -0.1935
  244MOL0     C32089   7.454   0.218   1.806  0.4376  0.0955  0.9612
  244MOL0     C32090   7.331   0.136   1.848 -0.3085 -0.4983  0.3627
  244MOL0     C32091   7.229   0.124   1.727 -0.1295  0.4780  0.0670
  244MOL0     C32092   7.124   0.014   1.748 -1.1302  0.6141 -0.0581
  244MOL0     N32093   7.001   0.058   1.815  0.3178  0.8080 -0.1685
  244MOL0     C32094   6.985   0.101   1.942 -0.2048  0.5244 -0.6460
  244MOL0     C32095   6.852   0.097   1.966  0.8049  0.4975  0.0342
  244MOL0     C32096   6.795   0.122   2.103 -0.8912  0.1359  0.2364
  244MOL0     C32097   6.647   0.139   2.102 -0.8020 -0.4310  1.1806
  244MOL0     C32098   6.597   0.175   2.245 -0.3617 -0.1666 -0.3313
  244MOL0     C32099   6.449   0.180   2.259  0.4325 -0.2321  0.4351
  244MOL0     O32100   6.394   0.278   2.162  0.6521 -0.2901 -0.7804
  244MOL0     C32101   6.252   0.296   2.156 -0.3347  1.2551  0.7066
  244MOL0     C32102   6.162   0.232   2.236 -0.3881 -0.8115  0.1234
  244MOL0     C32103   6.027   0.249   2.224  0.1458  0.0538  1.2325
  244MOL0     C32104   5.977   0.338   2.130 -0.7154  0.3273  0.6332
  244MOL0     C32105   5.832   0.371   2.130  0.3884 -0.3027 -0.0208
  244MOL0     O32106   5.749   0.275   2.187 -0.0552 -0.0377  0.0467
  244MOL0     C32107   5.611   0.290   2.206 -0.2508  0.1040  0.1096
  244MOL0     C32108   5.553   0.191   2.289 -0.3497  0.4193  0.1830
  244MOL0     C32109   5.416   0.195   2.316 -0.3342  0.2626 -0.1835
  244MOL0     C32110   5.333   0.285   2.249  0.4732 -0.5948  0.1181
  244MOL0     O32111   5.195   0.274   2.291 -0.2230 -0.4430  0.3451
  244MOL0     C32112   5.098   0.327   2.199 -0.2575  0.0225  0.0087
  244MOL0     C32113   4.971   0.272   2.231  0.1070  1.6438  0.3465
  244MOL0     C32114   4.949   0.121   2.253  0.4050  0.0147 -0.0590
  244MOL0     C32115   4.999   0.037   2.135 -1.1096  0.1108 -0.6257
  244MOL0     C32116   4.954  -0.112   2.150  0.1934 -0.1705 -0.5702
  244MOL0     C32117   4.811  -0.144   2.110 -0.5810 -0.6216 -0.3989
  244MOL0     C32118   4.786  -0.298   2.100 -0.2576  0.4175 -0.4338
  244MOL0     C32119   4.756  -0.349   2.248 -0.5762  0.5900  0.8166
  244MOL0    Cl32120   4.595  -0.301   2.319 -0.4167  0.2681 -0.3496
  244MOL0     C32121   5.384   0.370   2.152 -0.0935  0.3352  0.2706
  244MOL0     C32122   5.522   0.385   2.142 -0.0300  0.9495  0.3785
  244MOL0     O32123   5.792   0.481   2.093 -0.3463 -0.3222 -0.2571
  244MOL0     C32124   6.069   0.396   2.041  0.1314 -0.3008 -0.3111
  244MOL0     C32125   6.206   0.367   2.048  0.6609  0.0668 -0.1750
  244MOL0     N32126   6.788   0.042   1.862 -0.2520 -0.2134 -0.2259
  244MOL0     N32127   6.875   0.021   1.768  0.2366 -0.8281 -0.1495
  244MOL0     C32128   8.240   0.441   2.077  0.5532 -0.1422  0.2049
  244MOL0     C32129   8.373   0.410   2.103 -0.0614  0.3686  0.9197
  244MOL0     C32130   8.752   0.149   2.207  0.1538  0.2085  0.9039
  244MOL0     C32131   8.831   0.265   2.213 -0.8160 -1.2108  0.6774
  244MOL0     C32132   8.969   0.261   2.225  0.7771  0.5318  0.5087
  244MOL0     C32133   9.034   0.141   2.221  0.0270 -0.3744 -1.0423
  244MOL0     O32134   9.169   0.146   2.224  1.0085  0.1500  0.0436
  244MOL0     C32135   9.246   0.034   2.194 -0.3893  0.8973  0.1309
  244MOL0     C32136   9.390   0.051   2.250 -0.4446 -0.1825  0.0580
  244MOL0     C32137   9.475  -0.076   2.235  0.0230  0.9932  1.2611
  244MOL0     C32138   9.532  -0.089   2.098  0.5584 -0.7773 -1.1068
  244MOL0     C32139   9.615   0.031   2.050  0.4317  0.3624  0.1945
  244MOL0     C32140   9.682   0.125   2.009 -0.5936 -0.2326  0.1214
  244MOL0     C32141   8.961   0.024   2.211 -0.5591 -0.8143 -0.2409
  244MOL0     C32142   8.821   0.031   2.206 -0.3475 -0.3918 -0.8365
  244MOL0     H32143   8.319   0.080   2.160  1.3018 -0.4251 -2.0131
  244MOL0     H32144   8.093   0.137   2.113 -1.2893  1.6909 -0.0960
  244MOL0     H32145   7.950   0.204   1.988  2.3396  0.4897 -1.7211
  244MOL0     H32146   7.943   0.319   1.857  0.3728  1.1499 -0.3086
  244MOL0     H32147   7.746   0.425   1.985 -1.3253 -1.1533 -2.7379
  244MOL0     H32148   7.764   0.301   2.109  0.0106 -0.3215 -0.4841
  244MOL0     H32149   7.709   0.120   1.935  3.2237  0.0897  0.8007
  244MOL0     H32150   7.709   0.247   1.811  0.4410 -0.0179  0.8373
  244MOL0     H32151   7.507   0.174   2.020  1.3174  0.3547 -0.0638
  244MOL0     H32152   7.511   0.340   1.976 -0.2178  0.7980  0.1495
  244MOL0     H32153   7.509   0.168   1.725  1.0509 -1.4285  2.2678
  244MOL0     H32154   7.427   0.317   1.768  1.5796  0.3270  0.7254
  244MOL0     H32155   7.288   0.182   1.937 -0.1714  0.4549 -0.0534
  244MOL0     H32156   7.377   0.041   1.876 -2.1444 -0.8310  2.4168
  244MOL0     H32157   7.190   0.226   1.715  1.0322  1.1816  1.8350
  244MOL0     H32158   7.284   0.098   1.636 -0.9676 -3.0585  0.4461
  244MOL0     H32159   7.168  -0.081   1.781 -1.5629 -0.3037 -1.9622
  244MOL0     H32160   7.093  -0.010   1.646  1.7579  2.7520 -1.5565
  244MOL0     H32161   7.059   0.125   2.018 -1.6750  0.2111  0.9272
  244MOL0     H32162   6.850   0.199   2.157 -0.6729 -0.3345  0.7004
  244MOL0     H32163   6.808   0.028   2.157  1.8985 -1.1004 -2.2851
  244MOL0     H32164   6.598   0.045   2.075  0.3123 -0.7928  0.3154
  244MOL0     H32165   6.633   0.225   2.036  0.5911 -2.1941 -1.6238
  244MOL0     H32166   6.622   0.097   2.317  1.2132  1.5403  1.0902
  244MOL0     H32167   6.645   0.266   2.282  2.0862 -0.7999 -1.6609
  244MOL0     H32168   6.428   0.218   2.359  0.3540  0.6017  0.1136
  244MOL0     H32169   6.405   0.082   2.238  2.8145 -1.3094  0.0583
  244MOL0     H32170   6.203   0.182   2.323 -0.3676 -1.4560 -0.2584
  244MOL0     H32171   5.974   0.189   2.297  1.1012  0.0103  1.9000
  244MOL0     H32172   5.624   0.119   2.328 -1.9850 -0.3449  1.8946
  244MOL0     H32173   5.379   0.119   2.384  3.2769 -0.3538  1.3431
  244MOL0     H32174   5.132   0.285   2.104  3.2942  2.5520 -0.0416
  244MOL0     H32175   5.093   0.436   2.206 -1.5506 -0.0560  0.6698
  244MOL0     H32176   4.905   0.297   2.147 -3.2707 -2.8861  1.2357
  244MOL0     H32177   4.951   0.332   2.321 -0.5851 -0.5142  1.7097
  244MOL0     H32178   4.841   0.103   2.258  0.2347  0.9537 -0.2637
  244MOL0     H32179   4.997   0.092   2.347  2.5084  0.2590 -0.9937
  244MOL0     H32180   4.970   0.084   2.040  0.7936  1.4280 -0.6116
  244MOL0     H32181   5.109   0.041   2.139 -1.1606  3.3064  0.0888
  244MOL0     H32182   4.952  -0.141   2.255 -1.2030  0.4434 -0.3959
  244MOL0     H32183   5.024  -0.177   2.097 -0.4920 -0.2899 -1.3431
  244MOL0     H32184   4.791  -0.098   2.013  2.0377  0.7554 -0.3858
  244MOL0     H32185   4.738  -0.114   2.187 -0.1769  1.4129 -0.7464
  244MOL0     H32186   4.695  -0.314   2.041 -1.6017  2.3427  0.9844
  244MOL0     H32187   4.866  -0.351   2.048  0.0843  0.8959 -0.3958
  244MOL0     H32188   4.836  -0.321   2.317 -0.8893 -0.2968  1.5559
  244MOL0     H32189   4.749  -0.458   2.243 -0.4006  0.6407 -1.2974
  244MOL0     H32190   5.317   0.429   2.091 -0.7525  0.3205  0.9594
  244MOL0     H32191   5.556   0.451   2.063 -0.5956  1.1721  0.3121
  244MOL0     H32192   6.034   0.449   1.954  3.9641 -0.9492 -2.4807
  244MOL0     H32193   6.269   0.423   1.979 -0.8922 -0.9336 -2.5213
  244MOL0     H32194   8.216   0.540   2.040  1.1309 -0.6285 -1.5999
  244MOL0     H32195   8.451   0.486   2.103 -0.0725  0.4179 -1.0111
  244MOL0     H32196   8.783   0.361   2.193  0.4192 -1.1156 -2.5427
  244MOL0     H32197   9.031   0.350   2.215  1.6964 -0.2685 -1.6104
  244MOL0     H32198   9.249   0.009   2.088  1.6867 -0.3377  0.4081
  244MOL0     H32199   9.203  -0.052   2.247  0.7022 -0.9957 -1.8761
  244MOL0     H32200   9.425   0.145   2.207 -2.1078  0.1180 -0.7501
  244MOL0     H32201   9.374   0.070   2.356  2.6245 -1.5184  0.8683
  244MOL0     H32202   9.409  -0.162   2.252  0.4288  0.3652 -0.1996
  244MOL0     H32203   9.553  -0.084   2.310 -0.1010 -0.6639  1.2404
  244MOL0     H32204   9.596  -0.178   2.090  0.5396 -1.1868  2.1990
  244MOL0     H32205   9.450  -0.096   2.025  0.4915  4.3278 -1.8542
  244MOL0     H32206   9.738   0.212   1.981  2.1516 -2.0998 -0.5820
  244MOL0     H32207   9.008  -0.074   2.212  0.4856 -0.3698  2.3361
  244MOL0     H32208   8.773  -0.066   2.195  0.9767 -1.1114 -0.5610
  245MOL0     O32209   3.057   1.413   4.249 -0.5621  0.3604  0.1776
  245MOL0     C32210   3.093   1.297   4.245 -0.0261  0.6226  0.0206
  245MOL0     O32211   3.013   1.197   4.205  0.2711 -0.3956 -0.5716
  245MOL0     C32212   2.887   1.230   4.174  1.3905 -0.2634 -0.1586
  245MOL0     C32213   2.851   1.255   4.038  0.3158  0.4182  0.4573
  245MOL0     C32214   2.717   1.290   4.008  0.5975 -0.5133 -0.3794
  245MOL0     C32215   2.616   1.289   4.115  0.1672 -0.5610 -0.2907
  245MOL0     O32216   2.481   1.290   4.090 -0.0557 -0.7512  0.3862
  245MOL0     C32217   2.433   1.348   3.973 -0.1226 -0.4078 -0.4959
  245MOL0     C32218   2.286   1.368   3.989 -0.1874 -0.8934  0.1300
  245MOL0     C32219   2.202   1.253   4.053 -0.5788  0.0119 -0.1413
  245MOL0     C32220   2.054   1.274   4.047 -0.3900 -0.4402  0.4097
  245MOL0     C32221   1.991   1.376   4.140 -0.1441  0.3904  0.0776
  245MOL0     C32222   1.844   1.364   4.143 -0.2170  0.6040 -0.2772
  245MOL0     C32223   1.784   1.465   4.244  0.7338 -0.1588  0.3504
  245MOL0     C32224   1.646   1.509   4.208 -0.5063  0.4278  0.3025
  245MOL0     N32225   1.573   1.568   4.321 -0.1654 -0.8450  0.8898
  245MOL0     C32226   1.457   1.525   4.388  0.9789 -0.5786  0.0244
  245MOL0     C32227   1.419   1.643   4.449 -0.4169 -0.8252 -0.0032
  245MOL0     C32228   1.294   1.671   4.534 -0.9093 -0.0560 -1.3228
  245MOL0     C32229   1.260   1.537   4.613  0.0598 -0.1285  0.8851
  245MOL0     C32230   1.141   1.556   4.697 -0.0945 -0.1604 -1.1842
  245MOL0     C32231   1.046   1.438   4.727  0.5369  1.2231 -0.8624
  245MOL0     O32232   0.940   1.474   4.819  0.4100 -0.2212  0.4658
  245MOL0     C32233   0.830   1.393   4.819  0.2617  0.5216  0.0095
  245MOL0     C32234   0.713   1.456   4.866 -0.0968  0.2483 -0.2480
  245MOL0     C32235   0.591   1.402   4.845 -0.1330 -0.4036 -1.4193
  245MOL0     C32236   0.574   1.265   4.804  0.1003 -0.0997 -0.8699
  245MOL0     C32237   0.444   1.197   4.801 -0.0455 -0.1111  0.0550
  245MOL0     O32238   0.453   1.058   4.801  0.5276 -0.3934  0.1212
  245MOL0     C32239   0.349   0.966   4.819 -0.0874 -0.4817 -0.8522
  245MOL0     C32240   0.209   0.995   4.818 -0.1297  0.1322  0.1553
  245MOL0     C32241   0.117   0.885   4.842 -0.1464 -0.9694  0.3034
  245MOL0     C32242   0.165   0.755   4.862  0.9996  0.4446  1.2931
  245MOL0     O32243   0.062   0.667   4.876  0.4291 -0.0263  0.7114
  245MOL0     C32244   0.090   0.524   4.868 -0.1265 -0.7321 -0.6387
  245MOL0     C32245  -0.054   0.463   4.867 -0.4329  0.6797 -0.6611
  245MOL0     C32246  -0.142   0.515   4.986  0.4040  0.5211  0.2665
  245MOL0     C32247  -0.273   0.436   5.008 -0.6166  0.3833  0.1118
  245MOL0     C32248  -0.375   0.495   5.119 -0.8289  0.3742  0.3484
  245MOL0     C32249  -0.495   0.402   5.141 -0.8664  0.3817  0.3545
  245MOL0     C32250  -0.599   0.460   5.225 -0.1384 -0.1563  0.6344
  245MOL0     C32251  -0.740   0.403   5.196 -0.8986  0.3361 -0.2722
  245MOL0    Cl32252  -0.725   0.229   5.229  0.2728 -0.2640 -0.3119
  245MOL0     C32253   0.301   0.721   4.865  0.3949 -0.4749  0.1591
  245MOL0     C32254   0.391   0.830   4.843  0.2343 -0.0142  0.0578
  245MOL0     O32255   0.351   1.267   4.793  0.5731 -0.5107 -0.2819
  245MOL0     C32256   0.696   1.192   4.782  0.0889 -0.1602  0.5416
  245MOL0     C32257   0.819   1.256   4.788 -0.2814  0.6715  0.2961
  245MOL0     N32258   1.516   1.741   4.435 -0.2721  0.0633  0.6212
  245MOL0     N32259   1.602   1.701   4.355 -0.4573  0.6211  0.3163
  245MOL0     C32260   2.649   1.249   4.242  0.1866  0.1839 -0.4680
  245MOL0     C32261   2.787   1.230   4.274 -0.0731 -0.4679  0.1287
  245MOL0     C32262   3.229   1.268   4.272 -0.8765 -0.2275  0.0491
  245MOL0     C32263   3.308   1.362   4.335  0.7755  0.0655 -0.3983
  245MOL0     C32264   3.447   1.343   4.362  0.4329  0.7193 -0.0416
  245MOL0     C32265   3.501   1.218   4.326  0.0631  0.0524 -0.7269
  245MOL0     O32266   3.636   1.200   4.351 -0.2332  0.0275  0.0044
  245MOL0     C32267   3.685   1.065   4.339 -0.1625 -0.3709 -0.1106
  245MOL0     C32268   3.839   1.070   4.374 -0.1828 -0.3465 -0.7661
  245MOL0     C32269   3.923   1.142   4.272 -0.2391  0.7789 -0.4766
  245MOL0     C32270   4.070   1.106   4.301 -0.8025 -0.2767  0.3348
  245MOL0     C32271   4.170   1.175   4.222 -0.1144  0.3970 -1.1043
  245MOL0     C32272   4.260   1.237   4.167 -0.1862  0.1900 -0.1125
  245MOL0     C32273   3.425   1.122   4.265  0.8137  1.0548  0.0450
  245MOL0     C32274   3.291   1.142   4.238 -0.6468 -0.6903 -0.3487
  245MOL0     H32275   2.931   1.245   3.965 -1.6364 -0.1498 -1.7240
  245MOL0     H32276   2.681   1.322   3.910 -0.0552  1.6875  0.5050
  245MOL0     H32277   2.446   1.270   3.897  1.8890 -0.5705 -0.0502
  245MOL0     H32278   2.475   1.448   3.961  0.2321 -0.5632 -0.5693
  245MOL0     H32279   2.238   1.383   3.892  1.2233 -2.7900 -0.9272
  245MOL0     H32280   2.269   1.457   4.050 -3.3270  0.1005 -1.9183
  245MOL0     H32281   2.221   1.245   4.161 -2.5448  0.0273  0.2355
  245MOL0     H32282   2.233   1.156   4.012 -1.4952 -1.0207  1.4811
  245MOL0     H32283   2.024   1.288   3.942  0.9829 -0.1720  0.0362
  245MOL0     H32284   2.010   1.179   4.081 -3.7932  0.4717 -0.9607
  245MOL0     H32285   2.007   1.477   4.100 -0.3135 -0.3419 -1.8951
  245MOL0     H32286   2.047   1.371   4.235  1.3560 -0.1693 -0.8008
  245MOL0     H32287   1.810   1.263   4.168  0.1328  0.5544  0.0124
  245MOL0     H32288   1.806   1.379   4.042  0.9994 -0.4141 -0.9124
  245MOL0     H32289   1.782   1.415   4.341  3.8916 -0.6929  0.2567
  245MOL0     H32290   1.857   1.546   4.245  0.0066  0.5438 -0.7986
  245MOL0     H32291   1.588   1.432   4.157  2.4263 -0.3245 -2.2180
  245MOL0     H32292   1.677   1.584   4.134  1.1364 -0.8700 -0.3898
  245MOL0     H32293   1.406   1.429   4.381 -1.1716  0.1708  3.2364
  245MOL0     H32294   1.217   1.701   4.462  1.6496  1.4338 -3.6459
  245MOL0     H32295   1.306   1.761   4.593 -0.4737  0.8893 -2.7958
  245MOL0     H32296   1.348   1.508   4.671  1.5393 -0.5795 -1.4219
  245MOL0     H32297   1.244   1.456   4.541 -1.2500 -0.3275  1.3739
  245MOL0     H32298   1.177   1.600   4.790 -1.0837  0.6257 -1.1623
  245MOL0     H32299   1.075   1.625   4.644 -2.2648 -1.3421 -0.1160
  245MOL0     H32300   1.113   1.362   4.770 -2.1402  1.4175  4.5204
  245MOL0     H32301   1.012   1.401   4.629 -0.7101  3.9834 -1.5657
  245MOL0     H32302   0.720   1.560   4.895 -4.6530  1.3117 -2.0085
  245MOL0     H32303   0.496   1.448   4.867 -0.6551 -1.7357 -0.8020
  245MOL0     H32304   0.173   1.096   4.802 -0.5443  0.2067  1.4405
  245MOL0     H32305   0.015   0.921   4.849  0.5492  0.8563  1.8313
  245MOL0     H32306   0.155   0.490   4.949  2.0273  0.6708 -1.7004
  245MOL0     H32307   0.139   0.495   4.775 -0.3034 -1.6536 -0.4545
  245MOL0     H32308  -0.048   0.354   4.863 -0.9951  0.6594 -1.1814
  245MOL0     H32309  -0.099   0.497   4.773 -1.0675  4.2356  0.7782
  245MOL0     H32310  -0.158   0.621   4.963  0.0153  0.0424 -1.8613
  245MOL0     H32311  -0.084   0.524   5.078  0.6259 -1.8039  0.4081
  245MOL0     H32312  -0.318   0.431   4.909  0.2194  1.7364 -0.3609
  245MOL0     H32313  -0.238   0.338   5.041  0.2771 -0.2794 -2.5670
  245MOL0     H32314  -0.408   0.589   5.074 -0.5565  0.3881  0.1740
  245MOL0     H32315  -0.332   0.519   5.217  1.3488  0.2681 -0.5297
  245MOL0     H32316  -0.481   0.298   5.172 -6.6416 -0.3756  1.5596
  245MOL0     H32317  -0.536   0.390   5.040  0.1350  0.0600 -0.0316
  245MOL0     H32318  -0.572   0.443   5.330  1.8839 -0.5250  0.0938
  245MOL0     H32319  -0.607   0.569   5.211 -1.9081 -0.2403  0.7655
  245MOL0     H32320  -0.757   0.413   5.089 -2.1391  0.3135 -0.0943
  245MOL0     H32321  -0.821   0.443   5.258  1.5487 -0.7529  4.0813
  245MOL0     H32322   0.333   0.619   4.881 -0.4291 -0.8114 -0.2775
  245MOL0     H32323   0.497   0.809   4.848  0.5979  1.7221  0.1817
  245MOL0     H32324   0.696   1.085   4.764  2.5748 -0.6013  2.5340
  245MOL0     H32325   0.899   1.185   4.772 -0.1309  0.3662  2.1418
  245MOL0     H32326   2.584   1.231   4.326  0.1109  1.8059 -0.1500
  245MOL0     H32327   2.816   1.219   4.378 -1.1188 -0.2037  0.4557
  245MOL0     H32328   3.266   1.457   4.366 -0.6975 -0.3726 -0.9686
  245MOL0     H32329   3.509   1.416   4.414  2.6914 -0.6579 -0.7202
  245MOL0     H32330   3.673   1.028   4.237 -1.3874  1.2773 -0.6066
  245MOL0     H32331   3.634   0.993   4.402 -3.2449  0.2109 -1.7794
  245MOL0     H32332   3.853   1.119   4.470 -2.9398 -0.7309 -0.0741
  245MOL0     H32333   3.870   0.965   4.377 -2.6975 -1.1401  2.4761
  245MOL0     H32334   3.899   1.249   4.268  1.1323  1.2269  1.3729
  245MOL0     H32335   3.899   1.108   4.171  0.9048  1.3077 -0.9551
  245MOL0     H32336   4.090   1.146   4.401 -1.1156  3.7632 -1.0229
  245MOL0     H32337   4.098   1.001   4.298 -1.0599 -0.3556  0.6492
  245MOL0     H32338   4.314   1.312   4.113 -1.0887  0.1211 -1.1379
  245MOL0     H32339   3.464   1.023   4.243  1.3253  1.2456  0.0835
  245MOL0     H32340   3.237   1.054   4.204  1.9711 -1.6849 -2.2405
  246MOL0     O32341   0.100   7.398   1.109 -0.5010 -0.1435 -0.7133
  246MOL0     C32342   0.190   7.452   1.044 -0.7350 -0.1495  0.7558
  246MOL0     O32343   0.172   7.567   0.967 -0.9573  0.8504 -0.1406
  246MOL0     C32344   0.042   7.611   0.966 -0.3991 -0.1926  0.4846
  246MOL0     C32345  -0.022   7.607   0.835 -0.5769 -0.3394  0.6846
  246MOL0     C32346  -0.150   7.647   0.814  0.9200 -0.8554 -0.2282
  246MOL0     C32347  -0.227   7.690   0.926 -0.0673 -0.4981  0.5131
  246MOL0     O32348  -0.354   7.730   0.883  0.0174  0.3050  0.8835
  246MOL0     C32349  -0.426   7.832   0.957 -1.3843 -0.7830  0.4205
  246MOL0     C32350  -0.559   7.846   0.888 -0.3680 -0.1164 -0.6681
  246MOL0     C32351  -0.641   7.970   0.933  0.0761  0.7407  0.0674
  246MOL0     C32352  -0.783   7.941   0.894 -0.2579  1.1190  1.0638
  246MOL0     C32353  -0.894   8.013   0.956 -0.1100 -0.0133  0.7382
  246MOL0     C32354  -0.924   8.149   0.897  0.0671  0.4267 -0.4472
  246MOL0     C32355  -1.021   8.240   0.961 -0.0303  0.3406 -0.6432
  246MOL0     C32356  -1.043   8.372   0.875 -1.7026  1.2385 -0.4224
  246MOL0     N32357  -1.146   8.449   0.945 -0.2050  0.0450 -0.6443
  246MOL0     C32358  -1.281   8.458   0.934 -0.3918  0.5119  0.1539
  246MOL0     C32359  -1.330   8.547   1.024 -0.7463 -0.4579 -0.8956
  246MOL0     C32360  -1.475   8.567   1.064  0.4541  0.0212  0.2244
  246MOL0     C32361  -1.512   8.505   1.199 -0.2352  0.3905 -0.2035
  246MOL0     C32362  -1.660   8.507   1.236 -0.0721  0.6684 -0.6059
  246MOL0     C32363  -1.754   8.414   1.157 -0.6866  0.5382  0.0300
  246MOL0     O32364  -1.886   8.481   1.141  0.0647  0.2903 -0.5272
  246MOL0     C32365  -1.971   8.489   1.250  0.3785 -0.4827  0.9193
  246MOL0     C32366  -1.950   8.427   1.373  0.1012 -0.7582  0.5898
  246MOL0     C32367  -2.034   8.448   1.478  0.4808 -0.4552 -0.2768
  246MOL0     C32368  -2.162   8.508   1.459  1.2051 -0.7744 -0.5503
  246MOL0     C32369  -2.279   8.505   1.555 -0.2652  0.4894 -0.6368
  246MOL0     O32370  -2.397   8.558   1.520 -0.3311 -0.2946 -0.1546
  246MOL0     C32371  -2.505   8.580   1.608 -0.2164  0.3066  0.0010
  246MOL0     C32372  -2.489   8.587   1.751 -0.1531  0.1716 -0.0218
  246MOL0     C32373  -2.601   8.611   1.822  0.1721  0.4312  0.2831
  246MOL0     C32374  -2.728   8.638   1.768 -1.0876  0.3200  0.2992
  246MOL0     O32375  -2.834   8.656   1.859  0.0497 -0.7246 -0.2005
  246MOL0     C32376  -2.971   8.641   1.823 -0.0020 -0.5419 -0.2312
  246MOL0     C32377  -3.066   8.636   1.942 -0.1285  0.1828  0.2852
  246MOL0     C32378  -3.204   8.605   1.896 -0.0894 -0.7216  0.4378
  246MOL0     C32379  -3.300   8.547   1.991 -0.0297  0.3113  0.1153
  246MOL0     C32380  -3.436   8.519   1.923  0.0330 -0.3862 -0.3347
  246MOL0     C32381  -3.544   8.481   2.036 -1.1921 -0.5179 -0.4333
  246MOL0     C32382  -3.668   8.403   1.983  0.4712 -0.3334  0.3075
  246MOL0     C32383  -3.737   8.467   1.865  0.1598 -0.4680 -0.0557
  246MOL0    Cl32384  -3.900   8.401   1.839  0.4842 -0.1385  0.1778
  246MOL0     C32385  -2.744   8.641   1.624 -0.0424  0.8450 -0.9177
  246MOL0     C32386  -2.630   8.611   1.544  0.0529 -0.3425 -0.7018
  246MOL0     O32387  -2.253   8.454   1.668 -0.0392  0.3270  0.4679
  246MOL0     C32388  -2.189   8.557   1.329  0.4044  1.0203  0.3571
  246MOL0     C32389  -2.093   8.558   1.229 -0.2033  0.2697  0.8983
  246MOL0     N32390  -1.220   8.566   1.112 -0.0290  0.1333  0.2313
  246MOL0     N32391  -1.117   8.511   1.061 -0.0912 -0.6072  0.1671
  246MOL0     C32392  -0.175   7.699   1.049 -0.4868 -0.0451 -0.7064
  246MOL0     C32393  -0.039   7.662   1.065 -0.6875  0.2807  0.4242
  246MOL0     C32394   0.327   7.400   1.059 -0.0774 -0.0381 -0.2556
  246MOL0     C32395   0.430   7.439   0.968 -0.6159 -0.1342 -1.2690
  246MOL0     C32396   0.552   7.385   0.991 -0.3247  0.3933  0.3401
  246MOL0     C32397   0.578   7.290   1.088  0.2460  0.5509  0.3695
  246MOL0     O32398   0.702   7.238   1.111 -0.4284  0.3913 -0.1096
  246MOL0     C32399   0.827   7.279   1.044 -0.2456  0.4785  0.3220
  246MOL0     C32400   0.930   7.171   1.030 -0.5965 -0.7348  0.6052
  246MOL0     C32401   1.008   7.133   1.157 -0.1047  0.6288 -0.3389
  246MOL0     C32402   1.135   7.064   1.120  0.2276 -0.5571 -1.0693
  246MOL0     C32403   1.230   7.172   1.081 -0.3579 -0.3269 -1.1132
  246MOL0     C32404   1.296   7.265   1.045 -0.0741 -0.6607 -0.6213
  246MOL0     C32405   0.472   7.254   1.173 -0.2834 -0.2113 -0.9003
  246MOL0     C32406   0.345   7.312   1.161 -0.1624 -0.0291  0.2861
  246MOL0     H32407   0.044   7.569   0.758  0.3942  0.3691  1.1435
  246MOL0     H32408  -0.196   7.662   0.717 -1.4819  0.8061  1.0496
  246MOL0     H32409  -0.372   7.926   0.939 -1.0605 -1.4881 -3.0487
  246MOL0     H32410  -0.440   7.818   1.064 -0.7106 -2.8061  0.2978
  246MOL0     H32411  -0.616   7.756   0.913 -1.8363  1.6895  3.3156
  246MOL0     H32412  -0.536   7.836   0.781  0.4096  0.2561 -0.5365
  246MOL0     H32413  -0.602   8.062   0.889  1.6031  0.1035  0.0314
  246MOL0     H32414  -0.637   7.972   1.042  0.9815  1.4088  0.0347
  246MOL0     H32415  -0.786   7.939   0.784  0.3210 -0.0924  1.0539
  246MOL0     H32416  -0.811   7.839   0.920 -0.1653  0.4612 -1.2221
  246MOL0     H32417  -0.880   8.024   1.063 -0.0222 -0.9577  0.8351
  246MOL0     H32418  -0.978   7.945   0.943  0.4605 -0.5627 -0.2165
  246MOL0     H32419  -0.944   8.138   0.790 -3.1485 -2.2339  0.2649
  246MOL0     H32420  -0.830   8.205   0.891 -0.3830  1.5873  2.0528
  246MOL0     H32421  -1.117   8.190   0.972 -0.9942  1.7489 -2.2381
  246MOL0     H32422  -0.984   8.262   1.062 -2.3650 -1.1206  0.6056
  246MOL0     H32423  -1.074   8.344   0.774  1.1194  1.2984 -1.4055
  246MOL0     H32424  -0.940   8.409   0.871 -1.2877  0.1274 -0.1825
  246MOL0     H32425  -1.331   8.408   0.851  0.5250 -2.0944  1.0607
  246MOL0     H32426  -1.543   8.529   0.987  0.1198  1.3621 -0.1690
  246MOL0     H32427  -1.483   8.676   1.051  2.6956 -0.0550 -2.6403
  246MOL0     H32428  -1.467   8.567   1.277  0.1480  0.5340 -0.5377
  246MOL0     H32429  -1.472   8.403   1.204 -3.9086 -1.2474 -0.9883
  246MOL0     H32430  -1.680   8.477   1.339 -2.0458  1.3474 -0.7559
  246MOL0     H32431  -1.700   8.607   1.220 -2.6244 -0.2394 -0.3126
  246MOL0     H32432  -1.760   8.310   1.190 -2.2317  0.1455 -1.3410
  246MOL0     H32433  -1.700   8.405   1.062 -1.4784  1.4275 -0.5257
  246MOL0     H32434  -1.867   8.358   1.384 -0.3230 -1.4977 -0.6023
  246MOL0     H32435  -2.009   8.416   1.579  3.5000  2.8247  0.1944
  246MOL0     H32436  -2.392   8.571   1.797 -0.1553 -1.6080 -0.5850
  246MOL0     H32437  -2.583   8.601   1.928  0.6648 -1.0610  0.0783
  246MOL0     H32438  -2.977   8.551   1.762 -1.6310 -0.1143 -0.7456
  246MOL0     H32439  -2.993   8.731   1.764  0.3909 -0.5470 -0.3930
  246MOL0     H32440  -3.049   8.733   1.991  1.6976  0.8038 -1.4094
  246MOL0     H32441  -3.024   8.568   2.016  2.7231  1.7343  0.2759
  246MOL0     H32442  -3.195   8.547   1.804  1.0981  1.9713 -1.2531
  246MOL0     H32443  -3.234   8.704   1.860  1.8019  0.1905  1.2452
  246MOL0     H32444  -3.267   8.458   2.045 -2.1380 -1.2792 -1.0733
  246MOL0     H32445  -3.325   8.629   2.060  2.0970  0.9343  0.2080
  246MOL0     H32446  -3.429   8.432   1.857  0.3004  0.4019 -1.3661
  246MOL0     H32447  -3.467   8.609   1.870 -2.7065 -1.1325 -0.1776
  246MOL0     H32448  -3.574   8.568   2.096 -0.4007 -0.6337  0.1492
  246MOL0     H32449  -3.501   8.403   2.099 -1.0899 -1.8222 -2.0848
  246MOL0     H32450  -3.649   8.298   1.958 -1.3523 -0.1511 -2.1925
  246MOL0     H32451  -3.748   8.419   2.055 -1.3919  0.6755 -1.8587
  246MOL0     H32452  -3.674   8.444   1.778  0.4253 -0.0684  0.0322
  246MOL0     H32453  -3.741   8.576   1.869  1.6894 -0.4466  2.3883
  246MOL0     H32454  -2.842   8.654   1.580 -2.1011 -1.1972  2.5897
  246MOL0     H32455  -2.636   8.610   1.435  0.6953 -2.9426 -0.7921
  246MOL0     H32456  -2.290   8.578   1.296 -0.7153 -0.7731  2.3529
  246MOL0     H32457  -2.111   8.607   1.134  0.6144 -0.7506  0.1949
  246MOL0     H32458  -0.230   7.741   1.132  1.4995  0.1882  0.5623
  246MOL0     H32459   0.008   7.701   1.155 -0.3596 -0.6635  0.6703
  246MOL0     H32460   0.408   7.506   0.886 -3.0338 -0.3678 -0.8696
  246MOL0     H32461   0.628   7.422   0.923 -0.1077 -1.6934 -0.6251
  246MOL0     H32462   0.863   7.374   1.083 -0.9403  2.0120 -2.4785
  246MOL0     H32463   0.790   7.308   0.945 -2.7482 -1.0324  0.7164
  246MOL0     H32464   0.894   7.077   0.986  0.5433 -1.0242  0.2426
  246MOL0     H32465   1.004   7.211   0.959 -0.5074 -1.2052  0.4270
  246MOL0     H32466   0.949   7.063   1.218  0.0240  0.3825 -0.4941
  246MOL0     H32467   1.021   7.224   1.216 -0.2404 -0.1711  0.9855
  246MOL0     H32468   1.172   7.010   1.207 -0.6159 -1.6742 -1.3859
  246MOL0     H32469   1.132   6.993   1.036 -1.9676 -0.1185 -1.4312
  246MOL0     H32470   1.362   7.335   0.997 -2.4668 -0.0487 -3.2417
  246MOL0     H32471   0.498   7.184   1.252 -0.3964  1.5911  0.8009
  246MOL0     H32472   0.267   7.283   1.230 -0.0106  1.4011  1.0834
  247MOL0     O32473   6.500   1.422   4.226 -0.4862  0.8298 -0.2278
  247MOL0     C32474   6.473   1.403   4.108 -1.1022 -0.4228 -1.0392
  247MOL0     O32475   6.565   1.397   4.008  0.7481  0.3188 -0.0137
  247MOL0     C32476   6.694   1.390   4.043 -0.5620  0.2594  0.2223
  247MOL0     C32477   6.762   1.269   4.073  0.4497 -0.7943  0.2316
  247MOL0     C32478   6.894   1.272   4.124 -0.7745 -0.4434 -0.8315
  247MOL0     C32479   6.958   1.396   4.146  0.4151 -0.2706  0.0692
  247MOL0     O32480   7.089   1.399   4.192  0.3414  0.1920  0.7963
  247MOL0     C32481   7.173   1.514   4.151  1.3102  0.5498  0.7993
  247MOL0     C32482   7.318   1.470   4.119 -0.0322  0.4464 -0.7195
  247MOL0     C32483   7.378   1.410   4.242  0.1883 -0.4855  0.0297
  247MOL0     C32484   7.520   1.357   4.199  0.5483 -0.6754 -0.1824
  247MOL0     C32485   7.630   1.453   4.172 -0.2176 -0.0179 -0.0118
  247MOL0     C32486   7.654   1.559   4.278 -0.3049 -1.3262 -0.5661
  247MOL0     C32487   7.757   1.668   4.241  0.5312 -0.4374  0.6621
  247MOL0     C32488   7.762   1.766   4.362 -0.4212 -0.2101 -0.4597
  247MOL0     N32489   7.809   1.714   4.491  0.4637 -0.2283  0.6728
  247MOL0     C32490   7.754   1.736   4.613 -0.1056 -0.1867  0.1739
  247MOL0     C32491   7.833   1.683   4.707  0.2899  0.3537  0.2926
  247MOL0     C32492   7.817   1.699   4.858  0.6073  0.8138  0.0398
  247MOL0     C32493   7.922   1.790   4.920 -1.2073 -0.2450  0.4323
  247MOL0     C32494   7.843   1.891   4.999 -0.0458  0.0510 -0.1977
  247MOL0     C32495   7.935   1.965   5.103  0.4516 -0.0188 -0.9684
  247MOL0     O32496   7.860   2.080   5.167 -0.7170  0.4380 -0.2734
  247MOL0     C32497   7.745   2.046   5.233 -0.9680 -0.2681  0.3106
  247MOL0     C32498   7.636   2.112   5.179 -1.0169 -1.0001 -0.0746
  247MOL0     C32499   7.507   2.107   5.243  0.1170 -0.1468 -0.1460
  247MOL0     C32500   7.489   2.031   5.361  0.5436 -0.4938  0.5698
  247MOL0     C32501   7.361   2.018   5.433  0.1250  0.5344 -0.4577
  247MOL0     O32502   7.360   1.935   5.544 -0.5796  0.2949 -0.4251
  247MOL0     C32503   7.247   1.931   5.629 -0.3706  1.5048  0.7405
  247MOL0     C32504   7.151   2.024   5.650  0.6792 -0.1579 -0.5137
  247MOL0     C32505   7.048   2.002   5.746 -0.0114 -0.3397  1.5666
  247MOL0     C32506   7.046   1.886   5.822  0.3387  0.3688  0.6242
  247MOL0     O32507   6.953   1.848   5.914  0.0339  0.3401  0.0638
  247MOL0     C32508   6.814   1.887   5.891 -0.8946 -0.4681  0.9041
  247MOL0     C32509   6.747   1.786   5.785 -0.1766 -0.4474 -0.5097
  247MOL0     C32510   6.602   1.833   5.741 -0.3004 -0.3052 -0.5454
  247MOL0     C32511   6.534   1.743   5.642  0.0313 -0.0528  0.0359
  247MOL0     C32512   6.406   1.796   5.591 -0.4088 -0.5478  0.3203
  247MOL0     C32513   6.429   1.908   5.492 -0.0800  0.8684 -0.1391
  247MOL0     C32514   6.470   1.842   5.353 -0.5165  0.2878 -0.0220
  247MOL0     C32515   6.505   1.940   5.237  0.1625  0.3919 -0.4753
  247MOL0    Cl32516   6.343   2.003   5.165 -0.1836  0.3623 -0.2407
  247MOL0     C32517   7.136   1.787   5.790  0.1581  1.0325 -0.1353
  247MOL0     C32518   7.243   1.816   5.709  0.2120  0.2988  0.2457
  247MOL0     O32519   7.265   2.080   5.396  0.3173  0.0236  0.4451
  247MOL0     C32520   7.603   1.981   5.417  0.1429 -0.1121  0.2713
  247MOL0     C32521   7.729   1.979   5.352  0.6065 -0.5594 -0.7385
  247MOL0     N32522   7.940   1.628   4.639  0.0912  1.1337 -0.9846
  247MOL0     N32523   7.927   1.649   4.510  0.5475  0.6000 -0.4220
  247MOL0     C32524   6.891   1.522   4.118  0.6141  0.5196  0.4122
  247MOL0     C32525   6.759   1.510   4.075  0.0797  0.3831  0.4912
  247MOL0     C32526   6.341   1.382   4.064  0.7329  0.1686  0.3532
  247MOL0     C32527   6.319   1.325   3.936  0.5787  0.0925  0.1188
  247MOL0     C32528   6.187   1.305   3.890  1.3711  0.4051  0.2309
  247MOL0     C32529   6.077   1.330   3.969  0.0425  0.8729 -0.9307
  247MOL0     O32530   5.960   1.295   3.914 -1.2496 -0.4211 -0.3419
  247MOL0     C32531   5.841   1.333   3.987  0.7319 -0.1989  0.5946
  247MOL0     C32532   5.728   1.259   3.914  0.2945  0.5478  1.1107
  247MOL0     C32533   5.594   1.270   3.978 -0.1973  0.0035  0.6542
  247MOL0     C32534   5.537   1.405   3.950 -0.7071  0.0359 -0.4831
  247MOL0     C32535   5.389   1.387   3.961 -0.6963  0.6619 -0.3565
  247MOL0     C32536   5.269   1.397   3.951 -0.0562 -0.4817 -0.8676
  247MOL0     C32537   6.099   1.397   4.099  0.2996  1.1872 -0.0959
  247MOL0     C32538   6.228   1.415   4.145  0.0860  0.7108 -0.0304
  247MOL0     H32539   6.730   1.170   4.042 -2.3420 -0.2141  1.0405
  247MOL0     H32540   6.943   1.176   4.135 -0.1545  0.0875  1.6884
  247MOL0     H32541   7.186   1.579   4.237  0.0168  2.2308 -0.2123
  247MOL0     H32542   7.133   1.574   4.069  0.6019 -0.2221  0.5635
  247MOL0     H32543   7.372   1.557   4.079  1.1701 -0.7304 -1.7170
  247MOL0     H32544   7.310   1.402   4.033 -0.4857 -0.8862  0.3509
  247MOL0     H32545   7.325   1.332   4.297  3.5860 -1.3977  2.3282
  247MOL0     H32546   7.383   1.486   4.321 -1.3120 -1.5734  1.2171
  247MOL0     H32547   7.557   1.290   4.277  0.5089 -1.4842 -0.8396
  247MOL0     H32548   7.506   1.290   4.113 -3.4811  1.2685 -1.2432
  247MOL0     H32549   7.623   1.490   4.069  2.2030 -1.4683 -0.7760
  247MOL0     H32550   7.724   1.398   4.169 -0.4118 -0.3592 -2.7606
  247MOL0     H32551   7.685   1.504   4.367 -1.9176  1.6589  2.0548
  247MOL0     H32552   7.564   1.606   4.318  0.4295 -1.9989  2.1243
  247MOL0     H32553   7.858   1.633   4.218  0.2892 -1.7320  1.4417
  247MOL0     H32554   7.711   1.727   4.161 -3.5597 -4.9601 -0.8408
  247MOL0     H32555   7.662   1.806   4.380  0.4217  1.3156  1.1742
  247MOL0     H32556   7.832   1.847   4.339  1.4634 -2.2613 -2.4421
  247MOL0     H32557   7.664   1.792   4.635 -2.5327 -2.5001 -2.9342
  247MOL0     H32558   7.818   1.603   4.909  3.1665 -0.8431 -2.7759
  247MOL0     H32559   7.715   1.732   4.882  0.1169  1.4464 -2.6334
  247MOL0     H32560   7.977   1.835   4.837 -1.9450  0.2384  0.1915
  247MOL0     H32561   7.980   1.729   4.990  0.2493 -1.8085 -1.9729
  247MOL0     H32562   7.791   1.961   4.933  0.0644 -0.2600 -0.6172
  247MOL0     H32563   7.764   1.845   5.059 -0.7497  1.7905  0.2823
  247MOL0     H32564   8.031   2.000   5.064  0.4468  1.9061  0.5558
  247MOL0     H32565   7.965   1.904   5.189  1.2144  0.7612 -0.6561
  247MOL0     H32566   7.648   2.183   5.099  1.6094  1.7996  2.5679
  247MOL0     H32567   7.426   2.154   5.188 -1.1334 -1.2402  0.7109
  247MOL0     H32568   7.153   2.124   5.609 -0.2290 -0.6480 -1.8296
  247MOL0     H32569   6.966   2.073   5.748  0.3461  0.1008  0.7648
  247MOL0     H32570   6.795   1.990   5.859 -0.2275 -0.1231  1.5976
  247MOL0     H32571   6.759   1.875   5.984 -0.9891 -0.1327  0.8953
  247MOL0     H32572   6.742   1.691   5.840  0.5680 -0.0586  0.2665
  247MOL0     H32573   6.795   1.769   5.688  1.6578  1.8310 -0.0945
  247MOL0     H32574   6.612   1.937   5.708  1.6086  0.2042  1.3998
  247MOL0     H32575   6.537   1.837   5.829 -2.7733  1.1545 -2.2808
  247MOL0     H32576   6.599   1.711   5.560 -0.6447 -1.6991  0.1095
  247MOL0     H32577   6.503   1.648   5.684 -0.6045 -0.0221 -0.3506
  247MOL0     H32578   6.344   1.839   5.670 -1.0302 -0.2630 -0.3106
  247MOL0     H32579   6.335   1.722   5.554 -0.4903 -1.1498  1.6324
  247MOL0     H32580   6.495   1.991   5.520 -1.3258  1.0177  2.7589
  247MOL0     H32581   6.325   1.941   5.478 -1.2635 -2.6426 -0.7053
  247MOL0     H32582   6.556   1.777   5.374  1.0700  2.3383  0.0349
  247MOL0     H32583   6.393   1.772   5.318 -0.0534 -1.2322  1.7875
  247MOL0     H32584   6.568   1.891   5.162 -0.0028 -0.3044 -0.1669
  247MOL0     H32585   6.548   2.023   5.294  0.3695 -0.2099  0.2542
  247MOL0     H32586   7.128   1.694   5.845  3.1333  2.1200  2.4215
  247MOL0     H32587   7.307   1.728   5.703 -2.3120 -1.6991  0.5792
  247MOL0     H32588   7.607   1.933   5.514 -1.9230  0.6766  0.7946
  247MOL0     H32589   7.806   1.925   5.407  0.6626  0.5501  0.3235
  247MOL0     H32590   6.932   1.622   4.127  0.6342  0.5622 -0.1324
  247MOL0     H32591   6.709   1.604   4.056 -4.8381 -1.1815  3.9219
  247MOL0     H32592   6.399   1.309   3.865 -1.1116  3.6919 -2.9646
  247MOL0     H32593   6.169   1.238   3.806 -1.3763 -0.5831  1.4959
  247MOL0     H32594   5.827   1.442   3.982  1.2360  0.0792  3.3762
  247MOL0     H32595   5.840   1.308   4.094  2.8444 -1.8765  0.2733
  247MOL0     H32596   5.729   1.301   3.813 -4.4482 -0.0437  0.5998
  247MOL0     H32597   5.748   1.152   3.906  0.4097  0.6907 -0.7897
  247MOL0     H32598   5.593   1.238   4.083 -0.4933 -0.0782  0.6265
  247MOL0     H32599   5.531   1.196   3.930  1.5587 -1.5606  0.6691
  247MOL0     H32600   5.566   1.480   4.024  0.3483  1.5538 -2.3441
  247MOL0     H32601   5.559   1.443   3.850  0.4221  1.3108  0.2223
  247MOL0     H32602   5.162   1.402   3.948 -0.3263 -1.5550  2.4262
  247MOL0     H32603   6.022   1.423   4.171 -0.9503 -0.7504 -0.6544
  247MOL0     H32604   6.240   1.437   4.251  1.5210  2.0892 -0.4453
  248MOL0     O32605   0.367   6.463   3.050  0.2295 -0.2527  0.3969
  248MOL0     C32606   0.372   6.578   3.003 -0.6313 -0.8314  0.0514
  248MOL0     O32607   0.268   6.667   3.015  0.7373  0.0888  0.3632
  248MOL0     C32608   0.140   6.621   3.046  0.4383 -0.0161  0.2310
  248MOL0     C32609   0.094   6.496   3.081  0.6338  0.8072  0.0579
  248MOL0     C32610  -0.042   6.457   3.090  1.2561 -0.4897 -1.1668
  248MOL0     C32611  -0.139   6.556   3.072  0.3221 -0.8541  0.5317
  248MOL0     O32612  -0.270   6.511   3.094 -0.0677 -0.4919  0.1355
  248MOL0     C32613  -0.371   6.612   3.098  0.5660  1.2776 -0.2158
  248MOL0     C32614  -0.493   6.534   3.161  0.3064  0.6824 -0.2553
  248MOL0     C32615  -0.609   6.638   3.199  0.2011 -1.0726  0.7624
  248MOL0     C32616  -0.735   6.575   3.267 -0.3976  0.0128  0.1957
  248MOL0     C32617  -0.844   6.685   3.283  0.8697  0.5026 -0.4887
  248MOL0     C32618  -0.799   6.824   3.336  0.0873  0.0233  0.6491
  248MOL0     C32619  -0.918   6.918   3.361 -0.2291 -0.2615 -0.0360
  248MOL0     C32620  -1.017   6.870   3.467  0.3257 -0.5091 -0.3839
  248MOL0     N32621  -1.143   6.806   3.425 -0.8038  0.2451  0.1090
  248MOL0     C32622  -1.230   6.845   3.327  0.6317  0.7043 -0.3206
  248MOL0     C32623  -1.336   6.763   3.341 -0.2982 -0.0847  0.1812
  248MOL0     C32624  -1.444   6.758   3.242 -0.1794  0.0733 -0.8970
  248MOL0     C32625  -1.576   6.813   3.294  0.2201 -0.9778  0.3183
  248MOL0     C32626  -1.671   6.835   3.174  0.1007 -1.0150 -0.4144
  248MOL0     C32627  -1.803   6.876   3.226 -0.5294 -0.3443  0.2054
  248MOL0     O32628  -1.873   6.960   3.130 -0.2362 -0.5685  0.5534
  248MOL0     C32629  -1.998   6.992   3.150  0.4868  0.2169 -0.2377
  248MOL0     C32630  -2.089   7.017   3.041 -0.2023 -0.5418  0.0494
  248MOL0     C32631  -2.221   7.054   3.059 -0.0113  0.0087  0.1750
  248MOL0     C32632  -2.268   7.063   3.189 -0.0965 -0.0177 -0.1727
  248MOL0     C32633  -2.406   7.119   3.204  0.0042  0.1080 -1.0295
  248MOL0     O32634  -2.457   7.125   3.330  0.2778  0.6850 -0.3350
  248MOL0     C32635  -2.583   7.180   3.340  0.1390  0.4128 -0.3981
  248MOL0     C32636  -2.616   7.315   3.313  0.1434 -0.0703  0.6187
  248MOL0     C32637  -2.750   7.360   3.318  0.0001 -0.4335 -0.1994
  248MOL0     C32638  -2.848   7.280   3.376  0.1168  0.0874 -0.5133
  248MOL0     O32639  -2.980   7.321   3.387 -0.3350 -0.1180  0.0880
  248MOL0     C32640  -3.074   7.235   3.456 -0.3915 -0.1463 -0.2704
  248MOL0     C32641  -3.219   7.302   3.452 -0.4673 -0.2887  0.4167
  248MOL0     C32642  -3.305   7.247   3.560 -0.7480  1.1921  0.4373
  248MOL0     C32643  -3.451   7.228   3.516 -0.1178 -0.0123 -0.2286
  248MOL0     C32644  -3.522   7.156   3.630 -0.7209 -1.4422 -0.0179
  248MOL0     C32645  -3.675   7.140   3.616  0.0719 -0.0256 -0.3486
  248MOL0     C32646  -3.738   7.063   3.729 -0.7886 -0.2489  0.0503
  248MOL0     C32647  -3.871   7.005   3.687 -0.6026 -1.1406  0.7751
  248MOL0    Cl32648  -3.958   7.095   3.555 -0.4070 -0.5000  0.1299
  248MOL0     C32649  -2.811   7.138   3.400 -0.1662 -0.0236 -0.4576
  248MOL0     C32650  -2.680   7.090   3.386 -0.4834 -0.1754 -0.2630
  248MOL0     O32651  -2.469   7.146   3.105  0.1233  0.2578 -0.1959
  248MOL0     C32652  -2.186   7.026   3.299 -0.1459  0.3823  0.1334
  248MOL0     C32653  -2.054   6.984   3.280 -0.2173  0.0808  0.4312
  248MOL0     N32654  -1.305   6.674   3.435  0.1037 -0.5550  0.0604
  248MOL0     N32655  -1.194   6.702   3.487  0.0659 -0.4558  0.0368
  248MOL0     C32656  -0.091   6.689   3.049 -0.4876  0.0950 -1.1228
  248MOL0     C32657   0.044   6.718   3.027  0.3752  0.9180  0.5928
  248MOL0     C32658   0.504   6.631   2.962 -0.3038  0.7495 -0.5035
  248MOL0     C32659   0.540   6.767   2.969  0.4966 -0.0955 -0.0191
  248MOL0     C32660   0.667   6.813   2.925  0.0761  0.4420 -0.1522
  248MOL0     C32661   0.757   6.724   2.861  0.6892  0.0005  0.1946
  248MOL0     O32662   0.873   6.774   2.815  0.0403  0.3503  0.3692
  248MOL0     C32663   0.984   6.688   2.805 -0.3390  0.4771  0.1551
  248MOL0     C32664   1.120   6.759   2.765  0.0711  0.3863 -0.8935
  248MOL0     C32665   1.120   6.813   2.622 -0.3035 -0.3017  0.1390
  248MOL0     C32666   1.256   6.884   2.588  0.0713  1.0790  0.6079
  248MOL0     C32667   1.238   6.947   2.458 -0.9082  0.1140  0.4655
  248MOL0     C32668   1.237   7.026   2.360 -0.3739  0.4628 -0.0827
  248MOL0     C32669   0.722   6.583   2.868  0.0259  0.0793 -0.7878
  248MOL0     C32670   0.602   6.544   2.916  0.0042  0.1024  0.1590
  248MOL0     H32671   0.154   6.409   3.105 -0.0223 -0.3156 -2.1684
  248MOL0     H32672  -0.075   6.355   3.101 -0.7047  0.0286 -1.8013
  248MOL0     H32673  -0.393   6.642   2.995  1.6494  0.4856 -0.7048
  248MOL0     H32674  -0.354   6.699   3.161 -0.2420  2.5850 -1.7315
  248MOL0     H32675  -0.437   6.496   3.247 -0.0984  0.4369 -0.0969
  248MOL0     H32676  -0.537   6.455   3.101 -3.4415  2.6810 -0.4616
  248MOL0     H32677  -0.640   6.692   3.109  0.0208 -0.6542  1.0717
  248MOL0     H32678  -0.570   6.713   3.269  0.5911 -2.4844  2.0969
  248MOL0     H32679  -0.779   6.491   3.212 -3.0930 -0.5206  2.9165
  248MOL0     H32680  -0.700   6.532   3.361 -2.5224 -1.9826  0.1721
  248MOL0     H32681  -0.905   6.650   3.367  1.1820  0.1940 -0.3904
  248MOL0     H32682  -0.903   6.694   3.191 -0.8554 -2.6137  0.1903
  248MOL0     H32683  -0.732   6.863   3.258  0.9606  0.2939  1.5167
  248MOL0     H32684  -0.748   6.809   3.432  1.0005  1.4609  0.4149
  248MOL0     H32685  -0.877   7.016   3.385 -0.8809  0.2963 -1.1560
  248MOL0     H32686  -0.973   6.934   3.268  0.5077 -1.6135 -0.7297
  248MOL0     H32687  -1.050   6.963   3.513  1.0253 -2.2809  4.3189
  248MOL0     H32688  -0.956   6.824   3.546  2.7373 -0.1704 -1.9521
  248MOL0     H32689  -1.223   6.923   3.251 -2.5888 -1.7387 -3.4816
  248MOL0     H32690  -1.460   6.657   3.203  2.3414 -0.3006 -1.1433
  248MOL0     H32691  -1.413   6.813   3.153 -0.7944 -2.2211 -2.6222
  248MOL0     H32692  -1.561   6.904   3.353  3.5769  0.0270 -1.7527
  248MOL0     H32693  -1.622   6.735   3.355  0.2518 -0.6467  0.7623
  248MOL0     H32694  -1.622   6.917   3.120  0.4418  0.1227  1.5484
  248MOL0     H32695  -1.671   6.748   3.107  1.3395 -0.9887 -0.4739
  248MOL0     H32696  -1.793   6.939   3.315 -2.9710  2.3395 -1.2625
  248MOL0     H32697  -1.864   6.790   3.254 -0.0854  0.0539  2.6594
  248MOL0     H32698  -2.047   7.013   2.941 -1.6834  1.7885 -0.7473
  248MOL0     H32699  -2.281   7.063   2.969  2.7224  1.9780 -1.5933
  248MOL0     H32700  -2.542   7.380   3.268  0.1002 -2.0063 -2.5712
  248MOL0     H32701  -2.769   7.463   3.293  1.5444  0.2278  1.1745
  248MOL0     H32702  -3.043   7.214   3.559 -1.6524 -1.1873 -0.0817
  248MOL0     H32703  -3.090   7.136   3.414 -0.4459 -1.4663  2.6382
  248MOL0     H32704  -3.254   7.276   3.351  2.0921  2.4038 -1.3244
  248MOL0     H32705  -3.213   7.411   3.451  1.8752 -0.3084 -2.2807
  248MOL0     H32706  -3.300   7.307   3.651  1.6907 -0.3946  1.4430
  248MOL0     H32707  -3.271   7.147   3.589 -1.7554  1.0876  1.3125
  248MOL0     H32708  -3.495   7.328   3.512 -2.9071 -0.9850  2.3355
  248MOL0     H32709  -3.474   7.163   3.430  0.1340 -1.1555  0.5415
  248MOL0     H32710  -3.509   7.211   3.724  0.2692 -2.3212  0.3802
  248MOL0     H32711  -3.477   7.057   3.640 -0.7360 -1.2988  1.8440
  248MOL0     H32712  -3.692   7.092   3.519  2.4863 -0.5174 -0.6033
  248MOL0     H32713  -3.724   7.236   3.603 -0.9729 -0.3242  1.1402
  248MOL0     H32714  -3.674   6.993   3.783 -1.6305  0.0091  1.4445
  248MOL0     H32715  -3.749   7.139   3.808 -1.7809 -0.3385  0.0102
  248MOL0     H32716  -3.926   6.991   3.780 -2.5393 -4.1128 -0.6609
  248MOL0     H32717  -3.856   6.908   3.639  2.2397  0.7979 -2.8791
  248MOL0     H32718  -2.894   7.073   3.428 -2.0351  1.8103 -1.5177
  248MOL0     H32719  -2.649   6.989   3.411 -1.6067 -0.8212 -1.3349
  248MOL0     H32720  -2.226   7.032   3.400  0.6898 -3.3760  0.8213
  248MOL0     H32721  -1.996   6.956   3.368 -0.8282  0.0340  0.8233
  248MOL0     H32722  -0.173   6.758   3.032 -1.0142  0.1465  1.2810
  248MOL0     H32723   0.076   6.815   2.988  0.1252 -0.2096 -2.7945
  248MOL0     H32724   0.475   6.837   3.020 -1.0757 -0.4805 -1.4257
  248MOL0     H32725   0.709   6.909   2.951 -0.7877  0.1561  2.5438
  248MOL0     H32726   0.958   6.608   2.735 -0.8526 -0.0760  0.9589
  248MOL0     H32727   1.003   6.646   2.904  0.5415 -0.1244 -0.2589
  248MOL0     H32728   1.141   6.844   2.830  1.0088  2.3954 -3.5875
  248MOL0     H32729   1.202   6.688   2.769 -0.9922 -0.8502  3.3888
  248MOL0     H32730   1.038   6.884   2.608  0.8836  1.6253  2.2775
  248MOL0     H32731   1.106   6.731   2.551 -0.7467  0.5967 -0.8515
  248MOL0     H32732   1.265   6.965   2.661 -0.1036  0.2459  1.5663
  248MOL0     H32733   1.331   6.805   2.588 -0.8837  0.0826 -1.9048
  248MOL0     H32734   1.227   7.095   2.279 -1.8513  2.3633  1.6133
  248MOL0     H32735   0.797   6.510   2.836  1.5866  0.3568  1.8956
  248MOL0     H32736   0.577   6.439   2.909 -0.6295  0.3321 -1.8952
  249MOL0     O32737   2.150   1.090   7.980  0.0679  0.3077  0.4281
  249MOL0     C32738   2.136   1.201   8.027 -0.5678 -0.4237  0.2219
  249MOL0     O32739   2.022   1.276   8.059  0.3234 -0.5534 -0.3531
  249MOL0     C32740   1.896   1.223   8.061 -0.4059 -0.7857 -0.2274
  249MOL0     C32741   1.857   1.092   8.059 -0.9995 -0.6417 -1.1142
  249MOL0     C32742   1.725   1.057   8.055 -0.7424  0.4204  0.3696
  249MOL0     C32743   1.626   1.154   8.054  0.7683  0.2210 -0.3715
  249MOL0     O32744   1.489   1.123   8.049 -0.7980  0.3559 -0.7466
  249MOL0     C32745   1.450   1.038   7.948  1.3530 -0.0542  0.0729
  249MOL0     C32746   1.321   0.959   7.977 -0.2055  0.9688  0.0978
  249MOL0     C32747   1.239   0.945   7.844 -0.6045  1.1495 -1.1701
  249MOL0     C32748   1.124   0.845   7.875  1.1250 -0.0689 -0.2493
  249MOL0     C32749   1.175   0.700   7.883 -0.0645 -0.2129 -0.4496
  249MOL0     C32750   1.059   0.605   7.885 -1.4100  0.5895 -0.4340
  249MOL0     C32751   0.985   0.602   7.756 -0.2869 -0.4055  0.2081
  249MOL0     C32752   0.874   0.495   7.743  0.1752  0.4057  0.4577
  249MOL0     N32753   0.776   0.507   7.851 -0.6511 -0.3218  0.1881
  249MOL0     C32754   0.724   0.397   7.908 -0.9402 -0.2637 -0.1544
  249MOL0     C32755   0.602   0.431   7.962  0.6828 -0.6385  0.3980
  249MOL0     C32756   0.510   0.338   8.041  0.8385 -0.8813 -0.4286
  249MOL0     C32757   0.359   0.352   8.006 -0.2250 -0.4350  0.1353
  249MOL0     C32758   0.279   0.227   8.017  0.2105 -0.4961  0.5315
  249MOL0     C32759   0.237   0.197   8.162  0.5082  0.6087  0.1487
  249MOL0     O32760   0.214   0.061   8.192  0.3854 -0.1011 -0.3994
  249MOL0     C32761   0.110  -0.008   8.130  0.3649  1.3055 -0.2873
  249MOL0     C32762   0.099  -0.149   8.161 -0.3844  1.2839  0.1018
  249MOL0     C32763  -0.014  -0.227   8.121  0.3626  1.1030  0.3929
  249MOL0     C32764  -0.115  -0.167   8.051 -0.4172 -1.0200 -0.4782
  249MOL0     C32765  -0.230  -0.245   8.007  0.8942  0.1302  0.3650
  249MOL0     O32766  -0.239  -0.380   8.027 -0.2617  0.3003 -0.2642
  249MOL0     C32767  -0.357  -0.437   8.067 -0.1295  0.5553  0.4075
  249MOL0     C32768  -0.425  -0.382   8.176 -0.3271 -0.5011 -0.1179
  249MOL0     C32769  -0.544  -0.446   8.214 -0.1044  0.0516  0.1020
  249MOL0     C32770  -0.590  -0.560   8.154  0.8622  0.4019  0.2878
  249MOL0     O32771  -0.721  -0.611   8.191 -0.7754 -0.4052  0.7266
  249MOL0     C32772  -0.762  -0.616   8.321 -0.9018 -0.1266  0.0813
  249MOL0     C32773  -0.848  -0.738   8.334  0.1932 -0.2682 -0.1169
  249MOL0     C32774  -0.784  -0.879   8.321 -0.8498  0.0508 -0.3141
  249MOL0     C32775  -0.881  -0.985   8.285 -0.1072  0.0721 -0.4472
  249MOL0     C32776  -0.827  -1.112   8.239  0.1410  0.7686  0.1727
  249MOL0     C32777  -0.760  -1.190   8.351  0.1618 -0.6824  0.2014
  249MOL0     C32778  -0.722  -1.328   8.313  0.5227  0.1479 -0.0088
  249MOL0     C32779  -0.642  -1.409   8.423 -0.2348  0.3900 -0.5912
  249MOL0    Cl32780  -0.730  -1.447   8.576  0.2745  0.1981  0.1248
  249MOL0     C32781  -0.513  -0.625   8.047  1.4613  0.6805 -0.2233
  249MOL0     C32782  -0.396  -0.564   8.016 -0.8976 -0.4902  0.7546
  249MOL0     O32783  -0.319  -0.179   7.952 -0.0039  0.8822 -1.0440
  249MOL0     C32784  -0.101  -0.028   8.015  0.0136  0.0902  0.5116
  249MOL0     C32785   0.007   0.051   8.054  0.2857 -0.4137 -0.2340
  249MOL0     N32786   0.579   0.561   7.933  0.2951  0.3317 -0.4275
  249MOL0     N32787   0.686   0.604   7.875 -0.3871 -0.4438 -0.6013
  249MOL0     C32788   1.666   1.296   8.056  0.9204  0.5550 -0.4745
  249MOL0     C32789   1.798   1.323   8.057 -0.2361 -0.0163 -0.1680
  249MOL0     C32790   2.269   1.265   8.034 -0.1919 -0.6977 -1.0096
  249MOL0     C32791   2.281   1.404   8.062 -0.2303  0.3362  0.0312
  249MOL0     C32792   2.413   1.466   8.062  0.9133  0.3949  0.4994
  249MOL0     C32793   2.524   1.395   8.041  0.0667  0.2387 -0.0263
  249MOL0     O32794   2.646   1.468   8.047 -0.1455  1.3022  0.3489
  249MOL0     C32795   2.757   1.401   7.979 -0.9225  0.9992 -0.6756
  249MOL0     C32796   2.877   1.498   7.949  1.4699 -0.3191 -0.8012
  249MOL0     C32797   2.934   1.551   8.085  0.1117  0.4697  0.7421
  249MOL0     C32798   3.054   1.632   8.061  0.8303  0.6065  0.9831
  249MOL0     C32799   3.166   1.547   8.054 -0.7627  0.0849  0.2496
  249MOL0     C32800   3.266   1.478   8.048  0.9404 -0.6237  0.0111
  249MOL0     C32801   2.514   1.253   8.021  0.7021  0.9035 -0.1942
  249MOL0     C32802   2.390   1.190   8.011  0.8561 -0.3506 -0.1817
  249MOL0     H32803   1.928   1.010   8.066 -0.4026 -0.1416 -1.2326
  249MOL0     H32804   1.704   0.951   8.050 -2.3788  0.7392  0.0608
  249MOL0     H32805   1.531   0.972   7.916 -0.2178 -1.3019 -1.5125
  249MOL0     H32806   1.419   1.109   7.870  2.4629 -0.4492 -0.7529
  249MOL0     H32807   1.262   1.011   8.054 -0.1526 -1.1564  1.6651
  249MOL0     H32808   1.361   0.867   8.019 -0.9790  0.2085 -0.7915
  249MOL0     H32809   1.297   0.910   7.758  0.1363 -0.7919  0.0602
  249MOL0     H32810   1.207   1.048   7.826 -0.6068  1.3001 -0.3410
  249MOL0     H32811   1.085   0.873   7.974 -1.9365 -3.9131 -0.0956
  249MOL0     H32812   1.045   0.856   7.800 -1.2258 -0.6087  1.9801
  249MOL0     H32813   1.245   0.687   7.965  0.6616  1.0433 -0.8373
  249MOL0     H32814   1.241   0.667   7.803 -0.1023 -2.5088  0.3977
  249MOL0     H32815   0.989   0.626   7.966 -0.2438  1.4436  0.3858
  249MOL0     H32816   1.099   0.504   7.894 -1.6970  0.0856 -3.6523
  249MOL0     H32817   0.930   0.695   7.740 -0.9882 -0.7846  0.3455
  249MOL0     H32818   1.047   0.600   7.666 -3.1993  0.6012 -1.9810
  249MOL0     H32819   0.911   0.393   7.756 -1.1555 -0.3942 -1.5022
  249MOL0     H32820   0.816   0.518   7.654 -0.1709  1.5459  0.9639
  249MOL0     H32821   0.771   0.300   7.923  0.2051 -0.1849 -2.8095
  249MOL0     H32822   0.526   0.359   8.147 -0.2234 -2.4679  0.0867
  249MOL0     H32823   0.548   0.235   8.032 -0.3659 -1.5606  1.5501
  249MOL0     H32824   0.332   0.404   7.913 -0.1057  1.6201  1.1950
  249MOL0     H32825   0.325   0.423   8.082  0.4450 -1.0585  1.0469
  249MOL0     H32826   0.192   0.242   7.953 -0.3066 -0.4167  1.2329
  249MOL0     H32827   0.330   0.138   7.981  0.6936 -0.4621  1.1087
  249MOL0     H32828   0.146   0.254   8.185 -3.8556 -3.8283 -3.6520
  249MOL0     H32829   0.320   0.222   8.229 -0.4213 -1.0122  2.0352
  249MOL0     H32830   0.174  -0.195   8.225 -2.8177  0.9650  2.9529
  249MOL0     H32831  -0.032  -0.331   8.147 -0.1175  0.3692 -2.5708
  249MOL0     H32832  -0.387  -0.291   8.222 -1.6468 -0.9236  1.9166
  249MOL0     H32833  -0.604  -0.405   8.295  1.2501  0.1768  1.0818
  249MOL0     H32834  -0.827  -0.530   8.340 -2.5128 -1.5229  1.0932
  249MOL0     H32835  -0.676  -0.616   8.389 -1.7325 -4.2312  1.4251
  249MOL0     H32836  -0.932  -0.729   8.264  0.3794  3.6079 -0.0867
  249MOL0     H32837  -0.889  -0.732   8.436 -5.2508  1.7153 -2.0447
  249MOL0     H32838  -0.748  -0.901   8.422  0.1393  1.3737 -0.3507
  249MOL0     H32839  -0.696  -0.884   8.257  2.3471  0.5359  3.6044
  249MOL0     H32840  -0.954  -0.988   8.366 -0.3913 -1.2654 -0.7407
  249MOL0     H32841  -0.946  -0.947   8.205 -1.2186  0.4731  0.6220
  249MOL0     H32842  -0.763  -1.093   8.152 -0.2462  3.1082  0.3445
  249MOL0     H32843  -0.911  -1.167   8.197  0.5991  0.4783 -0.3870
  249MOL0     H32844  -0.845  -1.211   8.417 -1.8167 -2.1994 -2.6109
  249MOL0     H32845  -0.679  -1.136   8.401 -1.4756  0.0259  2.2572
  249MOL0     H32846  -0.808  -1.395   8.298 -0.1449  0.3331  2.5889
  249MOL0     H32847  -0.664  -1.330   8.220  0.7857 -4.1056  0.0298
  249MOL0     H32848  -0.545  -1.364   8.445 -0.5926  0.3016  1.3696
  249MOL0     H32849  -0.615  -1.505   8.379 -1.3851 -0.8485  1.2657
  249MOL0     H32850  -0.554  -0.715   8.001  0.3944  0.6393  0.7466
  249MOL0     H32851  -0.334  -0.600   7.935 -0.6256  1.5135  0.0007
  249MOL0     H32852  -0.180   0.023   7.960  0.9012  1.3572  0.3882
  249MOL0     H32853   0.015   0.158   8.039  0.6422 -0.7431 -3.0687
  249MOL0     H32854   1.580   1.360   8.068 -1.0105 -1.3175 -3.0812
  249MOL0     H32855   1.820   1.429   8.049 -2.2339  0.4266 -0.4017
  249MOL0     H32856   2.201   1.477   8.075  1.1325  1.8611  0.1535
  249MOL0     H32857   2.430   1.571   8.083  1.1348  1.1594 -2.8640
  249MOL0     H32858   2.722   1.363   7.883 -2.2210  1.6174 -0.4614
  249MOL0     H32859   2.802   1.329   8.048 -1.5046 -0.4434 -1.7592
  249MOL0     H32860   2.961   1.450   7.897  1.8331  0.0168 -0.5358
  249MOL0     H32861   2.853   1.582   7.883 -0.9073  0.4848  0.9655
  249MOL0     H32862   2.954   1.461   8.144 -2.1081 -2.4224 -2.5437
  249MOL0     H32863   2.854   1.604   8.138 -0.2246 -0.0776  0.7997
  249MOL0     H32864   3.040   1.700   7.977  0.8294 -0.1473  0.3668
  249MOL0     H32865   3.064   1.708   8.139 -2.9815  1.8865  0.4341
  249MOL0     H32866   3.359   1.426   8.036  1.8908  0.3238  2.6032
  249MOL0     H32867   2.603   1.195   8.001  0.2705  0.2315 -0.1863
  249MOL0     H32868   2.388   1.083   7.993  1.2479 -0.5036  0.6605
  250MOL0     O32869   0.433   9.306   0.165 -0.5262 -0.1641 -0.4903
  250MOL0     C32870   0.468   9.424   0.149  0.1431  0.1742  0.1825
  250MOL0     O32871   0.391   9.530   0.107 -0.2480 -0.4627 -0.5053
  250MOL0     C32872   0.257   9.505   0.069  0.2312  0.1836 -0.3777
  250MOL0     C32873   0.217   9.379   0.013 -0.4280 -0.0215 -0.5535
  250MOL0     C32874   0.085   9.362  -0.019  0.5425 -0.1482 -0.1900
  250MOL0     C32875  -0.001   9.466  -0.002  0.0225 -0.8552 -0.2088
  250MOL0     O32876  -0.134   9.452  -0.034  0.3751  0.6502  0.6553
  250MOL0     C32877  -0.233   9.548   0.017  0.3716 -0.5302  0.1546
  250MOL0     C32878  -0.375   9.482   0.015  0.2016 -0.6022 -0.0615
  250MOL0     C32879  -0.466   9.570   0.095 -0.0678  0.4239 -0.4955
  250MOL0     C32880  -0.541   9.683   0.012  0.1617 -0.2852  0.0422
  250MOL0     C32881  -0.625   9.770   0.105 -0.5434 -0.9194 -0.0585
  250MOL0     C32882  -0.777   9.719   0.103  0.0591  0.8553  0.0515
  250MOL0     C32883  -0.864   9.821   0.177 -0.3053 -0.1272 -0.2507
  250MOL0     C32884  -1.016   9.787   0.143  0.6242 -0.0686 -0.2836
  250MOL0     N32885  -1.124   9.865   0.211 -0.4833 -0.0638  0.3027
  250MOL0     C32886  -1.187   9.972   0.157 -0.9797  0.2557 -1.0174
  250MOL0     C32887  -1.299   9.985   0.223  0.3472 -0.5167 -0.8696
  250MOL0     C32888  -1.401  10.086   0.192  0.3980 -0.2449 -0.6539
  250MOL0     C32889  -1.519  10.092   0.275  0.8498  0.0674  0.2947
  250MOL0     C32890  -1.640  10.169   0.193 -0.7132  0.7353 -0.9349
  250MOL0     C32891  -1.765  10.169   0.273 -0.2549  0.0495  0.3084
  250MOL0     O32892  -1.829  10.037   0.275  0.0889 -0.1954 -0.6368
  250MOL0     C32893  -1.962  10.036   0.327  0.1602  0.4114 -0.2263
  250MOL0     C32894  -2.009   9.911   0.374  0.4348 -0.1510 -0.1304
  250MOL0     C32895  -2.137   9.901   0.424  1.0172 -0.1526  1.0632
  250MOL0     C32896  -2.224  10.005   0.439 -0.7262  0.0385 -0.1435
  250MOL0     C32897  -2.363   9.983   0.504  0.2685 -0.5086  0.2867
  250MOL0     O32898  -2.433  10.095   0.535  0.2887 -0.2582 -1.0333
  250MOL0     C32899  -2.564  10.065   0.577 -0.0867  0.5481  0.3350
  250MOL0     C32900  -2.667  10.023   0.491 -0.0895 -0.9137 -0.2905
  250MOL0     C32901  -2.794   9.998   0.530 -1.0213 -0.0921  0.4297
  250MOL0     C32902  -2.829  10.020   0.666 -0.1793  0.1845  0.3376
  250MOL0     O32903  -2.950   9.961   0.704 -0.7627  0.2356  0.7992
  250MOL0     C32904  -3.007  10.012   0.826  0.9627  0.3200 -0.4387
  250MOL0     C32905  -3.151   9.954   0.843 -0.0459 -0.1446 -0.7382
  250MOL0     C32906  -3.255  10.036   0.765 -0.1060  0.6849  0.3512
  250MOL0     C32907  -3.388   9.961   0.788 -0.3621 -0.4107  0.3218
  250MOL0     C32908  -3.500  10.025   0.702 -0.2027  1.4720  0.4616
  250MOL0     C32909  -3.620   9.933   0.717  0.2383  0.7972 -0.9012
  250MOL0     C32910  -3.730   9.964   0.618 -1.2574  0.0196  0.0504
  250MOL0     C32911  -3.849   9.865   0.637  0.7548 -0.0405  0.8843
  250MOL0    Cl32912  -3.921   9.822   0.483 -0.0618 -0.1008  0.1378
  250MOL0     C32913  -2.728  10.072   0.758  0.3882 -0.4800 -0.2157
  250MOL0     C32914  -2.600  10.096   0.707 -0.8116  0.1776  0.4771
  250MOL0     O32915  -2.404   9.864   0.508 -0.1347 -0.1551 -0.3663
  250MOL0     C32916  -2.176  10.130   0.400 -0.3439 -0.8854  0.2033
  250MOL0     C32917  -2.054  10.145   0.333 -0.5745 -0.0308  0.3345
  250MOL0     N32918  -1.301   9.898   0.326  0.6136  0.0707  0.0822
  250MOL0     N32919  -1.198   9.827   0.322 -0.1216  0.1250 -0.2726
  250MOL0     C32920   0.049   9.592   0.050  0.4579 -0.1813 -0.2564
  250MOL0     C32921   0.178   9.615   0.081  0.1370  0.3368  0.2979
  250MOL0     C32922   0.610   9.454   0.170  0.0732  0.8308 -0.3893
  250MOL0     C32923   0.657   9.579   0.183  0.2882 -0.5520 -0.3246
  250MOL0     C32924   0.800   9.605   0.200 -0.2608  0.1035 -0.5015
  250MOL0     C32925   0.887   9.498   0.230  0.9376  0.9713  0.1966
  250MOL0     O32926   1.024   9.513   0.262  0.1597 -0.1190 -0.2929
  250MOL0     C32927   1.089   9.628   0.224 -0.6130  0.1383  0.1876
  250MOL0     C32928   1.200   9.588   0.124 -0.9578 -0.4123  0.7006
  250MOL0     C32929   1.282   9.699   0.071 -0.3200  0.0530 -0.2982
  250MOL0     C32930   1.392   9.655  -0.026  0.0712  0.2426  0.3874
  250MOL0     C32931   1.498   9.761  -0.018 -0.5603 -0.0445 -0.1963
  250MOL0     C32932   1.580   9.843  -0.000  0.9197 -0.6093  0.9627
  250MOL0     C32933   0.828   9.372   0.238 -0.3865 -0.2264 -0.0636
  250MOL0     C32934   0.697   9.346   0.200 -0.6425 -0.5267 -0.0797
  250MOL0     H32935   0.278   9.290   0.000 -0.4110 -0.4440  2.0341
  250MOL0     H32936   0.037   9.270  -0.051 -0.0753 -0.1711  0.7575
  250MOL0     H32937  -0.223   9.641  -0.039  0.4273 -0.8497 -0.3719
  250MOL0     H32938  -0.212   9.567   0.123 -0.6951  1.1121  0.0995
  250MOL0     H32939  -0.372   9.378   0.047  1.4431 -0.6266 -0.2310
  250MOL0     H32940  -0.408   9.489  -0.090  2.2642  2.1026 -0.6320
  250MOL0     H32941  -0.412   9.612   0.181  2.7095  1.4156 -2.5756
  250MOL0     H32942  -0.550   9.515   0.138  0.0999 -0.8639 -1.7669
  250MOL0     H32943  -0.465   9.742  -0.040  0.2961 -0.0470  0.5020
  250MOL0     H32944  -0.609   9.641  -0.064  1.5502  0.1121 -1.4799
  250MOL0     H32945  -0.620   9.879   0.089 -4.7279 -0.0058  3.0888
  250MOL0     H32946  -0.594   9.768   0.209 -2.3618 -0.2220  0.5354
  250MOL0     H32947  -0.775   9.619   0.147  0.5447  0.4815 -0.7921
  250MOL0     H32948  -0.820   9.712   0.003  3.0089  0.4732 -1.3118
  250MOL0     H32949  -0.845   9.812   0.284 -1.6920  0.6345  0.0823
  250MOL0     H32950  -0.848   9.922   0.138 -0.3009  0.6828  1.7745
  250MOL0     H32951  -1.028   9.687   0.186 -0.5163  1.2871  2.8188
  250MOL0     H32952  -1.041   9.797   0.037 -2.5178  1.0141  0.4697
  250MOL0     H32953  -1.148  10.042   0.083  0.1686  2.4179  1.4545
  250MOL0     H32954  -1.438  10.068   0.091 -0.4370 -2.6321  0.0157
  250MOL0     H32955  -1.355  10.185   0.199 -0.2436  0.0141  0.0460
  250MOL0     H32956  -1.490  10.144   0.366  1.3819  0.1417  0.0904
  250MOL0     H32957  -1.550   9.992   0.307  0.0458  0.9492  2.3972
  250MOL0     H32958  -1.598  10.268   0.170  1.5993 -0.3132 -1.4934
  250MOL0     H32959  -1.666  10.124   0.097  0.7784  2.2942 -2.1519
  250MOL0     H32960  -1.835  10.249   0.248  0.3312  0.3163 -0.5104
  250MOL0     H32961  -1.730  10.194   0.374  1.7058 -2.5629  0.3672
  250MOL0     H32962  -1.938   9.829   0.369  1.4909  0.8103 -1.6253
  250MOL0     H32963  -2.160   9.798   0.449  2.3701 -0.5799  0.6204
  250MOL0     H32964  -2.633  10.012   0.389  0.5922  0.4394 -0.2347
  250MOL0     H32965  -2.874   9.964   0.464 -0.2808 -0.2361 -0.4102
  250MOL0     H32966  -3.010  10.121   0.829 -2.5834  0.3280 -0.3050
  250MOL0     H32967  -2.943   9.967   0.902  1.5628 -2.7734 -2.5774
  250MOL0     H32968  -3.178   9.960   0.949  1.4362 -0.2059 -0.3418
  250MOL0     H32969  -3.151   9.846   0.826 -0.3350 -0.4394  0.9742
  250MOL0     H32970  -3.230  10.032   0.659  2.0490  1.0245  0.7893
  250MOL0     H32971  -3.250  10.135   0.810  1.8909  1.4152 -1.2929
  250MOL0     H32972  -3.399   9.853   0.771 -3.5602  0.1109 -1.8990
  250MOL0     H32973  -3.399   9.989   0.893  0.2367 -1.6413  0.7414
  250MOL0     H32974  -3.452  10.024   0.603  0.7589 -2.2070  0.8174
  250MOL0     H32975  -3.518  10.129   0.731  0.6725  1.8263 -0.2174
  250MOL0     H32976  -3.654   9.944   0.820  1.5534 -1.8093 -0.0805
  250MOL0     H32977  -3.588   9.829   0.705  1.5346  1.2197 -1.3320
  250MOL0     H32978  -3.762  10.069   0.619 -1.1468  0.3827 -5.6555
  250MOL0     H32979  -3.703   9.950   0.513  0.4194  1.6181  0.2077
  250MOL0     H32980  -3.930   9.903   0.700 -0.2031 -0.6232  0.0417
  250MOL0     H32981  -3.811   9.771   0.679 -0.9273 -1.0059  0.3541
  250MOL0     H32982  -2.746  10.111   0.857  0.4730  0.8923 -0.7225
  250MOL0     H32983  -2.531  10.141   0.778  0.2181 -2.5468  1.3163
  250MOL0     H32984  -2.236  10.217   0.427 -0.0569 -0.4589 -0.5086
  250MOL0     H32985  -2.032  10.237   0.281  0.9607 -0.7184 -0.3103
  250MOL0     H32986  -0.017   9.678   0.050  0.1491 -0.3023  2.6866
  250MOL0     H32987   0.220   9.708   0.117  2.8838 -0.5358 -0.4383
  250MOL0     H32988   0.579   9.655   0.173  1.6548  0.8041 -1.0976
  250MOL0     H32989   0.830   9.709   0.208  0.5361 -0.2417  1.3784
  250MOL0     H32990   1.144   9.674   0.306  2.0275 -0.7305 -0.9981
  250MOL0     H32991   1.024   9.708   0.185  0.9955  3.0403  2.9864
  250MOL0     H32992   1.264   9.513   0.170 -1.2528 -0.4446  1.0601
  250MOL0     H32993   1.150   9.552   0.034  1.7440  0.1236 -1.1294
  250MOL0     H32994   1.335   9.747   0.153  0.6906  1.1083 -1.5262
  250MOL0     H32995   1.222   9.772   0.016 -1.1147  1.4862  2.3344
  250MOL0     H32996   1.432   9.562   0.015 -2.3494 -0.1412  2.1571
  250MOL0     H32997   1.347   9.638  -0.124 -2.5261 -2.9532  1.9463
  250MOL0     H32998   1.644   9.926   0.023 -2.7682  3.2144 -1.1498
  250MOL0     H32999   0.887   9.288   0.275 -1.4840  0.2629  3.0856
  250MOL0     H33000   0.658   9.246   0.213  1.4290 -1.4425 -0.4006
  251MOL0     O33001   0.995   2.311   6.472 -0.4156  0.2260 -0.3154
  251MOL0     C33002   1.084   2.251   6.527  0.2658  0.1457  0.8807
  251MOL0     O33003   1.067   2.174   6.637 -0.2245  0.0194  0.2007
  251MOL0     C33004   0.945   2.186   6.698 -0.0149 -1.2790  0.4309
  251MOL0     C33005   0.850   2.095   6.707  0.5943 -0.0096  0.1828
  251MOL0     C33006   0.725   2.132   6.760  0.1295  0.4155  0.2529
  251MOL0     C33007   0.705   2.259   6.810 -0.5550 -0.9323  0.6404
  251MOL0     O33008   0.601   2.295   6.886  0.5193  0.6998 -0.7282
  251MOL0     C33009   0.525   2.193   6.961 -0.2967 -0.6098 -0.0931
  251MOL0     C33010   0.412   2.277   7.013 -0.6694 -0.1643 -1.0852
  251MOL0     C33011   0.323   2.200   7.118 -0.1392 -0.8544  0.0883
  251MOL0     C33012   0.204   2.290   7.154  0.6154 -0.1324 -0.1229
  251MOL0     C33013   0.116   2.217   7.258 -0.0627  0.2923 -0.5577
  251MOL0     C33014  -0.017   2.291   7.291 -0.4960  0.5798  0.2962
  251MOL0     C33015  -0.114   2.267   7.174 -0.7656 -0.6369  0.1082
  251MOL0     C33016  -0.256   2.294   7.227  0.3363  0.4229 -0.3742
  251MOL0     N33017  -0.300   2.188   7.317  0.0898  0.6964  0.2036
  251MOL0     C33018  -0.293   2.048   7.297 -0.5585  0.0365 -0.3022
  251MOL0     C33019  -0.353   1.991   7.405 -0.6475 -1.2227 -0.4956
  251MOL0     C33020  -0.368   1.850   7.446 -0.4361  0.4496 -0.3556
  251MOL0     C33021  -0.482   1.769   7.367  0.2562  0.1155 -0.1088
  251MOL0     C33022  -0.620   1.824   7.403 -0.6909  0.2134  0.1725
  251MOL0     C33023  -0.658   1.803   7.557  0.6055 -0.4434  0.1463
  251MOL0     O33024  -0.797   1.808   7.567  0.4406  1.1487 -0.1335
  251MOL0     C33025  -0.844   1.767   7.695  0.3299 -0.7962 -0.0488
  251MOL0     C33026  -0.941   1.839   7.766 -0.0109 -0.0316  0.7742
  251MOL0     C33027  -0.991   1.784   7.882  0.5366 -0.7300  0.6786
  251MOL0     C33028  -0.951   1.663   7.935 -0.0631 -0.2704  0.3194
  251MOL0     C33029  -1.012   1.623   8.069 -0.1609 -0.1677 -0.1456
  251MOL0     O33030  -0.985   1.497   8.104  0.0752 -0.1867  0.1339
  251MOL0     C33031  -1.013   1.467   8.234  0.1301 -0.4221 -0.0658
  251MOL0     C33032  -1.086   1.347   8.243  0.4679 -0.1859  0.3426
  251MOL0     C33033  -1.141   1.313   8.373  0.1799  0.0231 -0.3638
  251MOL0     C33034  -1.115   1.386   8.484 -0.4773 -0.1408 -0.3463
  251MOL0     O33035  -1.169   1.337   8.596  0.6126  0.4920  0.3532
  251MOL0     C33036  -1.066   1.300   8.696 -0.4641  0.5341 -1.5245
  251MOL0     C33037  -1.097   1.161   8.741 -0.0288  0.5019  0.2867
  251MOL0     C33038  -1.235   1.147   8.822 -0.3165  0.2263 -0.1612
  251MOL0     C33039  -1.247   1.008   8.875 -0.4458 -0.6922  0.1374
  251MOL0     C33040  -1.365   0.986   8.964  0.2841 -0.1394  0.4143
  251MOL0     C33041  -1.367   0.838   9.002  0.0436  0.0552  0.0109
  251MOL0     C33042  -1.294   0.806   9.132 -0.1827  0.5334 -0.2633
  251MOL0     C33043  -1.224   0.667   9.109 -0.7388 -1.2705 -0.6385
  251MOL0    Cl33044  -1.329   0.521   9.094  0.2415 -0.5483  0.1349
  251MOL0     C33045  -1.029   1.496   8.469 -0.5047  0.1436  0.4155
  251MOL0     C33046  -0.975   1.539   8.345  0.2829  0.2147 -0.9210
  251MOL0     O33047  -1.086   1.709   8.127  0.0820  0.0141  0.3312
  251MOL0     C33048  -0.853   1.594   7.871 -0.2823 -0.7190 -0.6923
  251MOL0     C33049  -0.804   1.638   7.753 -0.7682 -0.1351 -0.7854
  251MOL0     N33050  -0.408   2.098   7.477  0.3205 -0.0645 -0.0452
  251MOL0     N33051  -0.385   2.207   7.425 -0.1764 -0.6677  1.1443
  251MOL0     C33052   0.807   2.352   6.800 -0.4635  1.4271 -0.2128
  251MOL0     C33053   0.930   2.312   6.761  0.6594 -0.3836 -0.3131
  251MOL0     C33054   1.221   2.248   6.467  1.3644 -0.2710 -0.2715
  251MOL0     C33055   1.333   2.218   6.538 -0.1967  0.7074 -0.0474
  251MOL0     C33056   1.460   2.206   6.478 -0.0275 -1.5708 -0.0907
  251MOL0     C33057   1.472   2.247   6.341 -0.3216 -0.0336 -0.0496
  251MOL0     O33058   1.594   2.244   6.274  0.6468  0.1554 -0.8218
  251MOL0     C33059   1.705   2.164   6.308 -0.3327 -0.7610 -0.1909
  251MOL0     C33060   1.771   2.139   6.175 -0.1893  0.0225  0.3119
  251MOL0     C33061   1.923   2.096   6.195  0.4992  0.2586 -0.1289
  251MOL0     C33062   1.989   2.094   6.053  0.2105 -0.1514 -0.3941
  251MOL0     C33063   2.032   2.227   5.998  1.0050  0.2239  0.3040
  251MOL0     C33064   2.072   2.336   5.966 -0.6445  0.6949  0.6573
  251MOL0     C33065   1.359   2.288   6.274 -0.1869  0.1029  0.1763
  251MOL0     C33066   1.236   2.282   6.334  0.5108  0.9337 -1.0759
  251MOL0     H33067   0.859   1.995   6.666  0.2577  0.0471 -0.0308
  251MOL0     H33068   0.646   2.058   6.762  0.9938 -0.5207  0.5027
  251MOL0     H33069   0.595   2.150   7.033  1.3901 -0.6239 -1.6539
  251MOL0     H33070   0.486   2.107   6.906  0.5382 -1.8285  1.1587
  251MOL0     H33071   0.341   2.313   6.937 -0.4678  1.9636 -0.3513
  251MOL0     H33072   0.461   2.365   7.056  4.2364 -0.6876 -4.6702
  251MOL0     H33073   0.386   2.175   7.205  0.0398  2.0155  0.9080
  251MOL0     H33074   0.284   2.105   7.081  1.1682 -1.7808  0.9692
  251MOL0     H33075   0.229   2.387   7.197  1.5135 -0.5567  0.3337
  251MOL0     H33076   0.129   2.310   7.076 -1.9185 -3.3365  1.2607
  251MOL0     H33077   0.166   2.215   7.355 -0.8191 -0.6116 -0.1837
  251MOL0     H33078   0.088   2.120   7.216 -1.0396  0.3112  0.0312
  251MOL0     H33079   0.001   2.397   7.311 -0.7887  0.3543  1.9295
  251MOL0     H33080  -0.059   2.264   7.389  1.9607  1.4630  1.6708
  251MOL0     H33081  -0.095   2.343   7.098  1.3570 -0.9796  0.2612
  251MOL0     H33082  -0.107   2.166   7.132 -1.1610 -0.2317 -0.9669
  251MOL0     H33083  -0.322   2.310   7.142 -1.0190 -3.3330 -0.2258
  251MOL0     H33084  -0.249   2.382   7.291 -2.0910 -0.0382  0.6248
  251MOL0     H33085  -0.236   1.995   7.221 -2.2255  1.4068 -2.6171
  251MOL0     H33086  -0.393   1.841   7.552  1.9929  0.4931  0.2938
  251MOL0     H33087  -0.268   1.806   7.433 -0.4534  0.3076 -0.0280
  251MOL0     H33088  -0.465   1.666   7.400 -1.5439 -0.0940  0.2453
  251MOL0     H33089  -0.472   1.771   7.258  0.9670  1.2997 -0.0463
  251MOL0     H33090  -0.627   1.932   7.384  0.0853  0.4797  1.2506
  251MOL0     H33091  -0.688   1.760   7.347  2.0709 -1.0513 -2.0089
  251MOL0     H33092  -0.616   1.871   7.633 -0.8712  1.4125 -0.6104
  251MOL0     H33093  -0.622   1.703   7.583  1.2121 -0.5536 -1.0958
  251MOL0     H33094  -0.969   1.937   7.729 -0.7867 -0.6178 -0.2509
  251MOL0     H33095  -1.075   1.849   7.908  1.9065  1.8009 -0.8500
  251MOL0     H33096  -1.120   1.306   8.149  0.4981  1.8695 -0.6182
  251MOL0     H33097  -1.214   1.234   8.390 -1.4127  1.8415  1.9840
  251MOL0     H33098  -1.065   1.360   8.788  0.8334 -3.0924  1.0523
  251MOL0     H33099  -0.960   1.304   8.666  0.6634 -0.1650  1.9092
  251MOL0     H33100  -1.012   1.142   8.807  2.2861  2.8159 -1.8242
  251MOL0     H33101  -1.084   1.089   8.660 -1.6544 -1.9192  2.0231
  251MOL0     H33102  -1.317   1.175   8.755  0.4448  1.5830 -0.5548
  251MOL0     H33103  -1.234   1.215   8.908  2.3334 -2.0852  1.8370
  251MOL0     H33104  -1.247   0.940   8.789 -1.1858 -2.9193  1.8047
  251MOL0     H33105  -1.161   0.985   8.938 -1.3370 -0.5360  1.4562
  251MOL0     H33106  -1.458   1.003   8.909  1.5904 -0.6691 -2.0684
  251MOL0     H33107  -1.358   1.057   9.047  1.4876  0.9678 -0.6109
  251MOL0     H33108  -1.319   0.780   8.922 -3.8616  1.3223 -3.6572
  251MOL0     H33109  -1.472   0.805   9.010 -0.0835  0.6557  0.9401
  251MOL0     H33110  -1.226   0.885   9.165 -1.7968  0.9472  2.3492
  251MOL0     H33111  -1.373   0.799   9.206  0.3891 -0.2671  0.2827
  251MOL0     H33112  -1.149   0.647   9.186  2.6552 -0.0840 -3.3445
  251MOL0     H33113  -1.174   0.677   9.012  0.6528  1.0439  0.2282
  251MOL0     H33114  -1.002   1.559   8.553 -3.0153  1.9587 -0.0276
  251MOL0     H33115  -0.930   1.637   8.337 -2.2557  1.5023 -0.1605
  251MOL0     H33116  -0.829   1.493   7.903 -2.0749 -2.0076 -3.0624
  251MOL0     H33117  -0.743   1.570   7.694  0.7701  1.5881 -1.2849
  251MOL0     H33118   0.792   2.453   6.839  1.2832  1.6747 -0.1282
  251MOL0     H33119   1.002   2.393   6.756 -0.7359  0.9870  0.7135
  251MOL0     H33120   1.324   2.202   6.645 -2.9539  1.9563 -0.0077
  251MOL0     H33121   1.544   2.173   6.538  0.7348  0.5306  0.0849
  251MOL0     H33122   1.691   2.073   6.367  0.9358 -0.8430  0.0140
  251MOL0     H33123   1.775   2.233   6.357 -1.5762  2.2277 -2.3099
  251MOL0     H33124   1.714   2.053   6.137  1.7391 -0.7753 -0.9074
  251MOL0     H33125   1.759   2.231   6.119 -0.9836  1.5088  2.7572
  251MOL0     H33126   1.939   1.994   6.231  1.4687  0.0983 -0.9584
  251MOL0     H33127   1.966   2.159   6.274  0.0237  1.0306 -0.4795
  251MOL0     H33128   2.077   2.029   6.056  0.9938  0.8878 -0.1536
  251MOL0     H33129   1.916   2.043   5.989  2.3196 -0.0118 -3.0749
  251MOL0     H33130   2.094   2.433   5.926 -0.2463 -1.0676 -3.9096
  251MOL0     H33131   1.366   2.298   6.166  0.2117  0.9749  0.2740
  251MOL0     H33132   1.147   2.308   6.277 -1.2743  0.2686  1.2392
  252MOL0     O33133   8.007   7.576   8.941  0.0799 -0.0060  0.5404
  252MOL0     C33134   8.032   7.692   8.968  0.3677  0.5630  0.1880
  252MOL0     O33135   8.154   7.747   8.997 -0.1787  0.2666 -0.8943
  252MOL0     C33136   8.269   7.684   9.002 -0.2706  0.8178 -0.0658
  252MOL0     C33137   8.374   7.746   9.068  0.0240  0.3449  0.2225
  252MOL0     C33138   8.509   7.694   9.060  0.3781  0.4190  0.2242
  252MOL0     C33139   8.531   7.576   8.983 -0.0426 -0.2997 -0.4739
  252MOL0     O33140   8.654   7.512   8.986 -0.1651 -0.4418  0.6350
  252MOL0     C33141   8.758   7.578   8.919  0.5481  1.1065  0.6959
  252MOL0     C33142   8.830   7.482   8.829  0.4075  0.2208 -0.1749
  252MOL0     C33143   8.919   7.552   8.718  0.3189 -0.3487  0.0567
  252MOL0     C33144   8.865   7.566   8.572 -0.1843  0.3083  0.4695
  252MOL0     C33145   8.972   7.638   8.484  0.0391  0.9834  0.7810
  252MOL0     C33146   8.904   7.681   8.352 -0.1249 -0.1711 -0.0292
  252MOL0     C33147   9.009   7.694   8.237  0.7944 -1.1482 -0.0723
  252MOL0     C33148   8.944   7.702   8.100  0.4171  0.4328  0.3139
  252MOL0     N33149   9.041   7.703   7.988  0.8117 -0.0373  0.3844
  252MOL0     C33150   9.086   7.811   7.921 -1.4362 -0.6872  0.7507
  252MOL0     C33151   9.171   7.757   7.827 -0.0274 -0.0475 -0.7555
  252MOL0     C33152   9.248   7.838   7.744  0.1584 -0.2700  0.1998
  252MOL0     C33153   9.170   7.918   7.642 -0.1439  0.4116 -0.3722
  252MOL0     C33154   9.264   8.004   7.545  0.0627  0.0608 -0.2432
  252MOL0     C33155   9.182   8.076   7.438  0.9879 -0.2036  0.5532
  252MOL0     O33156   9.279   8.099   7.329 -0.0334  0.2522 -0.4827
  252MOL0     C33157   9.240   8.146   7.212 -0.6687  0.1807  0.9847
  252MOL0     C33158   9.330   8.140   7.103  0.4108 -0.3748 -0.5883
  252MOL0     C33159   9.285   8.177   6.980  0.3578 -1.4097 -0.2225
  252MOL0     C33160   9.157   8.229   6.963  0.0464  0.5442 -0.0339
  252MOL0     C33161   9.107   8.273   6.824 -0.2171  0.3042  0.4911
  252MOL0     O33162   8.986   8.336   6.819  0.2043  0.2962  0.6294
  252MOL0     C33163   8.942   8.367   6.685  0.6287  0.4302 -0.8563
  252MOL0     C33164   8.948   8.497   6.652  0.0095  0.6639 -0.6051
  252MOL0     C33165   8.891   8.540   6.524 -0.2243  0.2799  0.2140
  252MOL0     C33166   8.838   8.443   6.431 -0.4978  0.5211 -0.0513
  252MOL0     O33167   8.788   8.463   6.306 -0.4509 -0.8870  0.9203
  252MOL0     C33168   8.790   8.598   6.259  0.5353  0.9094 -0.3642
  252MOL0     C33169   8.697   8.623   6.137 -0.1633  0.2775 -0.0041
  252MOL0     C33170   8.754   8.544   6.014  0.0392  0.3204 -0.1980
  252MOL0     C33171   8.879   8.614   5.957 -0.7470  0.3247 -0.2077
  252MOL0     C33172   8.861   8.743   5.868 -0.4185 -0.2414 -0.4065
  252MOL0     C33173   8.985   8.834   5.883  0.8785  0.0958  0.9411
  252MOL0     C33174   9.110   8.775   5.812 -0.1760 -0.4671 -0.1751
  252MOL0     C33175   9.241   8.809   5.886 -0.4411  0.0134 -0.4739
  252MOL0    Cl33176   9.367   8.807   5.761 -0.2491  0.4919 -0.0234
  252MOL0     C33177   8.845   8.305   6.475  0.8316  0.2444  1.0938
  252MOL0     C33178   8.883   8.266   6.599  0.0630 -0.1416  0.2017
  252MOL0     O33179   9.186   8.256   6.738  0.0344  0.5190  0.4137
  252MOL0     C33180   9.070   8.242   7.068  0.2502  0.0788 -0.0683
  252MOL0     C33181   9.114   8.204   7.196  0.1780 -0.7888  0.1215
  252MOL0     N33182   9.164   7.621   7.834 -0.5892  0.0707 -0.5864
  252MOL0     N33183   9.088   7.585   7.937 -0.3427  0.4265  1.0765
  252MOL0     C33184   8.423   7.513   8.918 -0.3112  0.5643 -0.7719
  252MOL0     C33185   8.295   7.563   8.931  0.1004 -0.0865 -1.2069
  252MOL0     C33186   7.921   7.791   8.986  0.0047 -0.3848  1.0265
  252MOL0     C33187   7.945   7.919   9.041  0.1082  0.0761 -0.3564
  252MOL0     C33188   7.835   8.016   9.057  0.0810  0.0190 -0.1968
  252MOL0     C33189   7.698   7.981   9.021 -0.2216  0.2387 -0.2625
  252MOL0     O33190   7.602   8.083   9.022  0.5451  0.4131  0.1225
  252MOL0     C33191   7.485   8.060   8.937 -0.9900  0.3689 -0.1560
  252MOL0     C33192   7.410   8.198   8.930 -0.2236 -0.2668 -0.7230
  252MOL0     C33193   7.309   8.194   8.822  0.2364 -0.5495 -0.2421
  252MOL0     C33194   7.257   8.337   8.800  0.3318  0.0156  0.2755
  252MOL0     C33195   7.136   8.328   8.716 -0.3498  1.0145 -0.8077
  252MOL0     C33196   7.035   8.316   8.656 -0.4697 -0.1591  0.2078
  252MOL0     C33197   7.676   7.844   8.988 -0.4235  0.4850  0.6648
  252MOL0     C33198   7.786   7.756   8.965  0.1926 -0.8030 -0.3669
  252MOL0     H33199   8.350   7.830   9.132 -2.0644 -1.3380  1.7580
  252MOL0     H33200   8.590   7.736   9.118 -0.1990  1.9278 -0.0013
  252MOL0     H33201   8.824   7.609   9.001 -0.8706 -2.5056  3.4765
  252MOL0     H33202   8.726   7.668   8.866  0.6442  2.4154  2.7785
  252MOL0     H33203   8.754   7.431   8.768  1.1585 -1.4890  0.2377
  252MOL0     H33204   8.887   7.413   8.892  0.4232  1.3870  1.1166
  252MOL0     H33205   9.015   7.500   8.713 -0.7394 -2.6465  1.5570
  252MOL0     H33206   8.943   7.648   8.765 -1.1692  0.4860 -0.8104
  252MOL0     H33207   8.826   7.475   8.526  0.8565 -1.3852  2.7303
  252MOL0     H33208   8.784   7.639   8.588  0.0745  0.5172  0.8599
  252MOL0     H33209   9.060   7.575   8.471 -1.8283 -1.1340 -3.2491
  252MOL0     H33210   8.998   7.730   8.537  1.7302  1.0907 -0.1787
  252MOL0     H33211   8.851   7.775   8.366  2.4159  0.9279  4.0441
  252MOL0     H33212   8.829   7.609   8.319 -1.1236  0.3406  1.0731
  252MOL0     H33213   9.074   7.781   8.249 -0.7632  0.2474 -1.2549
  252MOL0     H33214   9.075   7.607   8.235  2.0585 -0.2144  0.0694
  252MOL0     H33215   8.882   7.792   8.093  0.3373  0.2658 -2.3718
  252MOL0     H33216   8.878   7.615   8.094 -0.5146  1.1799 -1.1333
  252MOL0     H33217   9.072   7.918   7.931  1.8908 -0.0483 -0.2186
  252MOL0     H33218   9.317   7.774   7.688 -0.0599 -1.4452  1.2305
  252MOL0     H33219   9.303   7.911   7.804 -1.5765  1.5895 -0.3657
  252MOL0     H33220   9.106   7.994   7.689 -0.3683 -0.7349  1.2767
  252MOL0     H33221   9.110   7.850   7.581 -1.1967 -0.5866  1.6775
  252MOL0     H33222   9.325   8.076   7.600 -2.0038  0.4571  1.7396
  252MOL0     H33223   9.335   7.939   7.494 -0.3329  1.2737 -2.4763
  252MOL0     H33224   9.134   8.167   7.477 -0.0089 -0.4147 -0.1496
  252MOL0     H33225   9.091   8.022   7.412  1.4118 -0.2796 -0.8186
  252MOL0     H33226   9.429   8.100   7.122 -0.6035 -3.5144 -1.2975
  252MOL0     H33227   9.357   8.182   6.899  0.7611  3.1546  0.1201
  252MOL0     H33228   8.988   8.570   6.721 -0.2502  2.0280 -1.8510
  252MOL0     H33229   8.902   8.646   6.502 -0.5273  0.2582 -0.0546
  252MOL0     H33230   8.893   8.630   6.241  0.5554  2.7930  2.4567
  252MOL0     H33231   8.753   8.673   6.330 -0.1646  1.3019 -1.1189
  252MOL0     H33232   8.707   8.731   6.119 -0.2479  0.1667 -0.7420
  252MOL0     H33233   8.593   8.600   6.158 -0.0760 -1.9936 -1.6270
  252MOL0     H33234   8.682   8.531   5.933  0.1437  1.3582 -0.4785
  252MOL0     H33235   8.782   8.444   6.049 -1.6771 -0.2325 -0.3314
  252MOL0     H33236   8.957   8.634   6.031 -1.2386 -1.6029  0.8949
  252MOL0     H33237   8.935   8.540   5.897  0.1561  0.4124  0.5027
  252MOL0     H33238   8.774   8.796   5.909  2.2697  2.7499  1.8769
  252MOL0     H33239   8.846   8.710   5.765 -3.2336 -0.7342  0.0581
  252MOL0     H33240   9.014   8.848   5.988 -0.4004 -0.6575  1.4143
  252MOL0     H33241   8.958   8.935   5.850  0.4860 -0.5509 -0.8010
  252MOL0     H33242   9.096   8.667   5.809  1.2725 -0.6754 -0.0964
  252MOL0     H33243   9.114   8.825   5.715 -1.0310  2.6480  1.2549
  252MOL0     H33244   9.260   8.737   5.966  0.1421 -1.4038 -1.8294
  252MOL0     H33245   9.232   8.911   5.924  1.4689 -0.1768  0.6721
  252MOL0     H33246   8.799   8.236   6.404 -0.8941  1.5742  0.8434
  252MOL0     H33247   8.878   8.161   6.627  1.6160 -0.6296 -1.1709
  252MOL0     H33248   8.965   8.263   7.050  0.3569 -1.8132 -4.2156
  252MOL0     H33249   9.053   8.222   7.284  2.7273  0.0690  1.8424
  252MOL0     H33250   8.439   7.420   8.864 -0.2100 -0.1366  0.4214
  252MOL0     H33251   8.215   7.513   8.877 -0.7791 -0.2424  0.1750
  252MOL0     H33252   8.047   7.942   9.071  1.1780 -2.4160 -1.8294
  252MOL0     H33253   7.835   8.114   9.104 -2.0240  0.8593 -1.8337
  252MOL0     H33254   7.416   7.991   8.986 -2.4163  1.3984 -0.6282
  252MOL0     H33255   7.522   8.022   8.841  3.5652 -0.4357  1.6695
  252MOL0     H33256   7.369   8.208   9.030 -0.6078  0.5946 -0.9576
  252MOL0     H33257   7.489   8.272   8.911  3.6717 -4.1504 -1.1996
  252MOL0     H33258   7.231   8.131   8.865  0.4419  0.0356  1.0406
  252MOL0     H33259   7.339   8.147   8.728  0.8573 -2.1462  0.7102
  252MOL0     H33260   7.228   8.376   8.898 -3.4263 -3.2470  0.7055
  252MOL0     H33261   7.333   8.402   8.755  1.1310 -1.8301 -1.2030
  252MOL0     H33262   6.941   8.299   8.607  0.4478  0.4209 -1.8501
  252MOL0     H33263   7.577   7.799   8.983 -0.5350  0.5962  1.6986
  252MOL0     H33264   7.770   7.654   8.930 -0.8570 -2.2461  3.7276
  253MOL0     O33265   2.004   8.995   8.552 -0.0953  0.2706 -0.2356
  253MOL0     C33266   2.031   9.052   8.447  0.8017  0.0056  0.3592
  253MOL0     O33267   1.944   9.064   8.346 -0.3069 -1.1202  0.5945
  253MOL0     C33268   1.809   9.012   8.342 -0.3474  0.4933 -0.2605
  253MOL0     C33269   1.770   8.896   8.409  0.5231  0.2642 -0.6217
  253MOL0     C33270   1.635   8.848   8.398  0.2881 -0.4955 -0.0850
  253MOL0     C33271   1.537   8.925   8.331  0.0703  0.0136 -0.5002
  253MOL0     O33272   1.399   8.902   8.323  0.0813 -0.6391 -0.1912
  253MOL0     C33273   1.327   8.854   8.429 -0.0816 -0.1520 -0.4408
  253MOL0     C33274   1.173   8.889   8.425 -0.3071  0.7953 -0.3188
  253MOL0     C33275   1.147   9.035   8.444  0.4688 -0.1178  0.1532
  253MOL0     C33276   1.062   9.087   8.330  0.1849  0.1085  0.6457
  253MOL0     C33277   0.916   9.043   8.327  0.1784  0.0680  0.7567
  253MOL0     C33278   0.824   9.122   8.415 -0.3438 -0.0752  0.7721
  253MOL0     C33279   0.687   9.060   8.409  0.5205 -0.6421 -0.7234
  253MOL0     C33280   0.587   9.134   8.495  1.1014 -0.4073  0.7790
  253MOL0     N33281   0.457   9.068   8.512 -0.2494  0.3395 -0.1372
  253MOL0     C33282   0.337   9.124   8.510 -0.7043 -0.4307 -1.0489
  253MOL0     C33283   0.251   9.020   8.532  0.2135  0.2207 -0.3049
  253MOL0     C33284   0.102   9.028   8.538  0.3485  0.3350  0.0588
  253MOL0     C33285   0.056   9.174   8.571  0.2258  0.0028  0.2074
  253MOL0     C33286  -0.092   9.212   8.567  0.0558 -0.4319 -0.9259
  253MOL0     C33287  -0.174   9.130   8.664  0.0869 -0.1910  0.5823
  253MOL0     O33288  -0.318   9.125   8.625  0.2645 -0.0091 -0.2194
  253MOL0     C33289  -0.390   9.061   8.723 -0.6993  0.0945 -0.1180
  253MOL0     C33290  -0.526   9.088   8.741 -0.3337 -0.8565 -0.3190
  253MOL0     C33291  -0.593   9.031   8.851  0.2038 -0.1841  0.4564
  253MOL0     C33292  -0.533   8.940   8.942  0.1393 -0.1579  0.4405
  253MOL0     C33293  -0.612   8.903   9.069 -0.3737  0.0932  0.9180
  253MOL0     O33294  -0.751   8.896   9.051 -0.6529  0.0164 -0.0656
  253MOL0     C33295  -0.827   8.866   9.165 -0.2670 -0.3084 -0.2620
  253MOL0     C33296  -0.812   8.752   9.241  0.3079  0.3979 -0.0721
  253MOL0     C33297  -0.905   8.726   9.343 -0.3025  0.0380  0.2867
  253MOL0     C33298  -1.004   8.821   9.379 -1.0558 -0.0380 -0.3985
  253MOL0     O33299  -1.093   8.807   9.480 -0.0275  0.0441  0.0807
  253MOL0     C33300  -1.171   8.689   9.468  0.6750 -0.3829  0.0343
  253MOL0     C33301  -1.276   8.687   9.576 -0.6435 -0.4211  0.0032
  253MOL0     C33302  -1.416   8.748   9.533 -0.7868 -0.6695  0.1993
  253MOL0     C33303  -1.531   8.717   9.617 -0.8105 -0.2055 -0.1200
  253MOL0     C33304  -1.666   8.773   9.568 -0.3106  0.1644  0.1978
  253MOL0     C33305  -1.760   8.666   9.493 -0.4519 -0.2007 -0.1223
  253MOL0     C33306  -1.893   8.739   9.474 -0.5331  0.8109 -0.2087
  253MOL0     C33307  -1.969   8.755   9.607  0.5350 -0.6337  0.8288
  253MOL0    Cl33308  -2.134   8.761   9.592  0.6037  0.2117  0.0077
  253MOL0     C33309  -1.010   8.941   9.313  0.1070  0.0987  0.1757
  253MOL0     C33310  -0.920   8.961   9.203 -0.8261 -0.3282  0.3480
  253MOL0     O33311  -0.554   8.861   9.161  0.2396 -0.0795 -1.1358
  253MOL0     C33312  -0.396   8.909   8.919 -0.6629  0.9353  0.1317
  253MOL0     C33313  -0.333   8.957   8.801 -0.7318 -0.5247  0.6423
  253MOL0     N33314   0.324   8.905   8.557  0.8011  0.9175 -0.1854
  253MOL0     N33315   0.448   8.938   8.553 -0.4052  0.0378  0.5557
  253MOL0     C33316   1.577   9.045   8.264 -0.6750  0.8061  0.5728
  253MOL0     C33317   1.713   9.089   8.270  0.0774  0.4646  0.3705
  253MOL0     C33318   2.171   9.100   8.434 -0.2336  0.7091 -0.4114
  253MOL0     C33319   2.209   9.157   8.308 -0.2501 -0.3036  0.3515
  253MOL0     C33320   2.342   9.207   8.286  0.7245 -0.0526 -0.0336
  253MOL0     C33321   2.443   9.181   8.384 -0.2139 -0.1678  0.3195
  253MOL0     O33322   2.584   9.188   8.353  0.2488  0.8010 -0.0057
  253MOL0     C33323   2.625   9.160   8.221  0.6088  0.1778  0.3313
  253MOL0     C33324   2.749   9.239   8.183  0.8048  0.2487 -0.5088
  253MOL0     C33325   2.877   9.205   8.264  0.7500 -0.6394 -0.2155
  253MOL0     C33326   2.990   9.283   8.201 -0.8515 -0.1192  0.1343
  253MOL0     C33327   3.109   9.228   8.270 -0.3928  0.0767 -0.9363
  253MOL0     C33328   3.207   9.186   8.327 -0.8538 -0.9539 -0.4727
  253MOL0     C33329   2.406   9.132   8.502 -0.3253 -1.2491 -0.3483
  253MOL0     C33330   2.273   9.094   8.537  0.2088 -0.4509 -0.0347
  253MOL0     H33331   1.847   8.839   8.460 -0.5542  1.0172  2.0439
  253MOL0     H33332   1.619   8.758   8.457  5.3944 -1.0361  1.0159
  253MOL0     H33333   1.364   8.881   8.528 -0.2510 -0.4366 -0.2971
  253MOL0     H33334   1.320   8.745   8.420 -0.1353 -0.2962  1.1663
  253MOL0     H33335   1.113   8.829   8.494 -2.3143 -1.4087 -3.6880
  253MOL0     H33336   1.137   8.866   8.324  2.6319 -2.1992 -0.8841
  253MOL0     H33337   1.235   9.099   8.454  0.1747  0.7608 -2.2690
  253MOL0     H33338   1.095   9.050   8.539 -0.9566  1.9593 -0.8840
  253MOL0     H33339   1.057   9.195   8.348  2.0843  0.4408 -0.4850
  253MOL0     H33340   1.117   9.055   8.241 -0.8149 -0.7974  0.3182
  253MOL0     H33341   0.920   8.938   8.358  3.1909  0.4741  2.1772
  253MOL0     H33342   0.877   9.059   8.226  2.3200  1.7280  0.1209
  253MOL0     H33343   0.821   9.220   8.366  1.8204 -1.0785 -1.5829
  253MOL0     H33344   0.863   9.144   8.515  0.1375 -2.8839  1.2853
  253MOL0     H33345   0.643   9.051   8.309 -0.4564  2.4456 -0.6661
  253MOL0     H33346   0.687   8.959   8.452 -3.8588 -0.2242  0.6373
  253MOL0     H33347   0.561   9.235   8.463 -1.1984 -1.4293 -0.7911
  253MOL0     H33348   0.628   9.150   8.596  1.9321  0.0805  0.3739
  253MOL0     H33349   0.314   9.228   8.490 -1.6123 -0.4581 -0.2604
  253MOL0     H33350   0.063   8.961   8.615 -1.4960  1.4488  0.1599
  253MOL0     H33351   0.064   8.997   8.441  1.7105  1.4345 -0.8603
  253MOL0     H33352   0.096   9.242   8.495 -2.5064 -0.0421 -1.4118
  253MOL0     H33353   0.096   9.206   8.668 -1.5099 -1.1423  1.3655
  253MOL0     H33354  -0.099   9.319   8.589 -0.4236 -0.8748  1.3900
  253MOL0     H33355  -0.122   9.204   8.462 -3.6753  0.4546 -0.0797
  253MOL0     H33356  -0.163   9.174   8.763  0.5136  1.1675 -0.0403
  253MOL0     H33357  -0.139   9.027   8.653  1.0689  0.3096 -1.7821
  253MOL0     H33358  -0.565   9.165   8.675  0.8613  0.9488  0.9919
  253MOL0     H33359  -0.696   9.063   8.865  0.5576  1.0194  0.4878
  253MOL0     H33360  -0.731   8.688   9.208  1.2979  1.8975 -0.6889
  253MOL0     H33361  -0.894   8.638   9.406 -1.6487  0.5671  1.3009
  253MOL0     H33362  -1.111   8.598   9.477  1.0572 -0.5942 -3.3346
  253MOL0     H33363  -1.215   8.687   9.367  0.1636  2.6158  0.0867
  253MOL0     H33364  -1.235   8.735   9.665 -0.0121  0.7586 -0.8864
  253MOL0     H33365  -1.290   8.583   9.607 -1.5764 -1.6298 -3.9309
  253MOL0     H33366  -1.440   8.709   9.434  2.5730  0.6955 -1.2895
  253MOL0     H33367  -1.399   8.855   9.524 -4.4567 -0.0925 -2.2394
  253MOL0     H33368  -1.536   8.608   9.625  1.4962 -0.4994 -1.8461
  253MOL0     H33369  -1.515   8.758   9.718 -1.8311  1.9773 -0.7782
  253MOL0     H33370  -1.635   8.854   9.502 -0.2021 -1.2690 -1.5903
  253MOL0     H33371  -1.707   8.805   9.664 -2.0567 -2.1367  0.3155
  253MOL0     H33372  -1.774   8.572   9.548  0.2723 -0.0418  0.3349
  253MOL0     H33373  -1.729   8.662   9.388 -1.0156 -2.1141 -0.2522
  253MOL0     H33374  -1.876   8.837   9.428  1.7615 -0.4645 -2.2722
  253MOL0     H33375  -1.952   8.686   9.399  1.6799  3.5063 -4.2504
  253MOL0     H33376  -1.926   8.836   9.665  1.7309 -1.4054  1.0427
  253MOL0     H33377  -1.954   8.660   9.659 -1.7103 -2.3810 -1.4109
  253MOL0     H33378  -1.077   9.019   9.347  1.8412  0.3737  3.3325
  253MOL0     H33379  -0.918   9.055   9.150  1.8549 -0.5787 -0.1520
  253MOL0     H33380  -0.343   8.849   8.992  1.5023  1.8582 -0.5767
  253MOL0     H33381  -0.227   8.936   8.791 -0.7986 -0.3634 -0.5504
  253MOL0     H33382   1.503   9.099   8.206 -0.3152 -0.8055 -1.4879
  253MOL0     H33383   1.749   9.174   8.213  0.1161  0.3709  0.2528
  253MOL0     H33384   2.133   9.171   8.232 -1.1478  0.4530  1.3656
  253MOL0     H33385   2.366   9.255   8.192 -0.1058  0.8967  0.2200
  253MOL0     H33386   2.556   9.178   8.138  1.2808 -1.1541 -0.5413
  253MOL0     H33387   2.650   9.054   8.223 -1.7741 -0.4305  1.0804
  253MOL0     H33388   2.769   9.223   8.076 -0.7703  0.8723 -0.9253
  253MOL0     H33389   2.713   9.342   8.195  0.1154 -0.3436  6.3027
  253MOL0     H33390   2.884   9.097   8.280 -0.3584 -0.7018 -0.0285
  253MOL0     H33391   2.870   9.245   8.366  2.0269  0.7664 -0.6496
  253MOL0     H33392   2.988   9.281   8.092  0.6136  0.9629  0.0604
  253MOL0     H33393   2.987   9.388   8.231 -0.0563 -0.0032 -0.1824
  253MOL0     H33394   3.284   9.138   8.384 -0.5312 -0.3257 -0.3625
  253MOL0     H33395   2.480   9.128   8.581 -0.4951  4.7774  0.6344
  253MOL0     H33396   2.270   9.054   8.637  1.7968 -1.3013 -0.2890
  254MOL0     O33397   4.631   5.639   4.147  1.0458 -0.1802  0.1408
  254MOL0     C33398   4.668   5.635   4.265 -1.0412  0.6047 -0.5080
  254MOL0     O33399   4.600   5.610   4.372 -0.3391  0.5835 -0.3288
  254MOL0     C33400   4.480   5.547   4.360  0.4221 -0.2081  0.1849
  254MOL0     C33401   4.362   5.606   4.308 -0.1328  0.4164  0.1737
  254MOL0     C33402   4.245   5.533   4.304  0.6224  0.5273  0.8910
  254MOL0     C33403   4.234   5.400   4.343 -0.4237 -0.3631 -0.5720
  254MOL0     O33404   4.123   5.319   4.336  0.7460 -0.1075  0.8530
  254MOL0     C33405   4.004   5.393   4.299 -0.7445 -0.1093 -1.0568
  254MOL0     C33406   3.887   5.285   4.306 -0.0917 -0.0428  0.6028
  254MOL0     C33407   3.752   5.359   4.285 -0.4629  0.1795  0.0730
  254MOL0     C33408   3.643   5.256   4.259 -0.2784  0.6343 -0.0727
  254MOL0     C33409   3.506   5.313   4.234 -1.1095  0.4051  0.2707
  254MOL0     C33410   3.461   5.402   4.357  0.4223  0.8643  0.3191
  254MOL0     C33411   3.322   5.462   4.331 -0.6758 -0.4708  0.6230
  254MOL0     C33412   3.305   5.552   4.207  0.1227 -0.5385  0.7337
  254MOL0     N33413   3.175   5.614   4.212 -0.3243 -0.1853 -0.1777
  254MOL0     C33414   3.057   5.554   4.177  0.1776 -0.5926  0.0757
  254MOL0     C33415   2.966   5.649   4.196 -0.5622 -0.2014 -0.0297
  254MOL0     C33416   2.819   5.625   4.185 -0.5724  0.4875 -0.0591
  254MOL0     C33417   2.769   5.624   4.037  1.1375 -0.1502 -0.4527
  254MOL0     C33418   2.763   5.766   3.980 -0.2687 -0.2802 -0.3546
  254MOL0     C33419   2.668   5.783   3.864  0.5100 -0.8419  1.0280
  254MOL0     O33420   2.533   5.742   3.899 -0.6761  0.6171  0.4035
  254MOL0     C33421   2.446   5.692   3.806 -0.4176 -0.9032 -1.1325
  254MOL0     C33422   2.449   5.731   3.673  0.6273 -0.4620  0.4187
  254MOL0     C33423   2.356   5.686   3.579  0.1526  0.9256  0.6576
  254MOL0     C33424   2.267   5.587   3.618  0.7675  0.1549  0.4190
  254MOL0     C33425   2.164   5.534   3.513  0.0521 -0.4194  0.4349
  254MOL0     O33426   2.065   5.437   3.551  0.8057 -0.2413  0.3091
  254MOL0     C33427   1.979   5.376   3.465 -0.9565  1.3146  0.5069
  254MOL0     C33428   1.959   5.396   3.323  0.6807  0.2804  0.1506
  254MOL0     C33429   1.863   5.319   3.259  0.1669 -0.3383  0.8397
  254MOL0     C33430   1.778   5.226   3.323 -0.8393  0.0502 -0.5021
  254MOL0     O33431   1.690   5.153   3.246  0.5340  1.5245 -0.2811
  254MOL0     C33432   1.649   5.019   3.305 -0.0445 -0.2973  0.1723
  254MOL0     C33433   1.584   4.935   3.196  0.9983 -0.5839 -0.0529
  254MOL0     C33434   1.444   4.987   3.152  0.3445  0.3443  0.0789
  254MOL0     C33435   1.390   4.898   3.041 -0.3193  0.5475  0.0259
  254MOL0     C33436   1.248   4.938   2.994 -0.2752  0.0351 -0.9023
  254MOL0     C33437   1.170   4.852   2.898  0.0946  0.2767 -0.0066
  254MOL0     C33438   1.044   4.926   2.846  0.6051  0.2144  0.2076
  254MOL0     C33439   0.954   4.981   2.946  0.0392 -0.1773  0.4104
  254MOL0    Cl33440   0.800   5.036   2.861  0.1700  0.3791  0.1640
  254MOL0     C33441   1.803   5.200   3.457 -0.2918 -1.5734 -0.3121
  254MOL0     C33442   1.899   5.284   3.529 -0.2250  0.9630 -0.1082
  254MOL0     O33443   2.193   5.564   3.398  0.4748  0.1620 -0.2850
  254MOL0     C33444   2.261   5.546   3.751 -0.4670 -0.3482 -0.4676
  254MOL0     C33445   2.351   5.602   3.847 -0.7684  0.1868 -0.4119
  254MOL0     N33446   3.031   5.762   4.248  0.1720 -0.1020 -0.1574
  254MOL0     N33447   3.155   5.742   4.247 -0.5113  0.0614  0.5961
  254MOL0     C33448   4.355   5.342   4.387 -0.3948  0.8665 -0.1844
  254MOL0     C33449   4.482   5.413   4.392 -0.0330  0.5678 -0.0360
  254MOL0     C33450   4.809   5.659   4.295 -0.3359 -0.9191  1.0904
  254MOL0     C33451   4.901   5.669   4.186 -0.3055  0.7524  0.1844
  254MOL0     C33452   5.040   5.687   4.210  0.4421 -0.8412  0.3267
  254MOL0     C33453   5.083   5.712   4.342 -0.4063  1.2709 -1.3946
  254MOL0     O33454   5.216   5.733   4.379 -0.1141 -0.3953  0.6363
  254MOL0     C33455   5.293   5.784   4.276  0.3385 -0.9929  0.2523
  254MOL0     C33456   5.433   5.792   4.322 -0.0597 -0.2531  0.4437
  254MOL0     C33457   5.529   5.835   4.209 -0.6826 -0.2228 -0.0595
  254MOL0     C33458   5.673   5.858   4.265  1.0541  0.0105  0.0566
  254MOL0     C33459   5.721   5.728   4.326 -0.2355 -1.3489  0.4399
  254MOL0     C33460   5.751   5.635   4.397 -0.2703  0.1271  0.0569
  254MOL0     C33461   4.998   5.697   4.447  0.6452  0.0458  0.9318
  254MOL0     C33462   4.861   5.672   4.425  0.2390  0.7858 -0.0131
  254MOL0     H33463   4.371   5.710   4.278 -1.6446  0.3136 -0.7386
  254MOL0     H33464   4.157   5.588   4.272  2.4418  2.9722 -0.1511
  254MOL0     H33465   4.027   5.440   4.203 -1.3511  0.0608 -1.1202
  254MOL0     H33466   3.990   5.471   4.375  3.6352  0.1480 -0.2072
  254MOL0     H33467   3.887   5.234   4.403 -0.9174 -1.0598  0.0856
  254MOL0     H33468   3.903   5.216   4.223  0.1226  0.9079 -0.1710
  254MOL0     H33469   3.761   5.423   4.196  0.8981  0.7410  0.5798
  254MOL0     H33470   3.732   5.427   4.369 -1.3383 -1.8991  1.6110
  254MOL0     H33471   3.676   5.194   4.175 -2.3329 -0.6534 -0.0086
  254MOL0     H33472   3.642   5.196   4.351 -1.9996 -0.0914 -0.5364
  254MOL0     H33473   3.434   5.234   4.211  2.7401 -2.6903 -2.5958
  254MOL0     H33474   3.512   5.370   4.141 -1.2737 -0.4394 -0.2699
  254MOL0     H33475   3.535   5.482   4.365  1.3803  0.1153 -0.7405
  254MOL0     H33476   3.448   5.347   4.451 -3.2184 -1.2163 -1.2016
  254MOL0     H33477   3.241   5.387   4.328 -3.2146  2.1073 -1.4341
  254MOL0     H33478   3.299   5.524   4.418  3.0646 -0.3639  1.6923
  254MOL0     H33479   3.317   5.491   4.117  1.0086 -2.2604  1.9675
  254MOL0     H33480   3.379   5.633   4.207  0.0957 -0.4551 -1.4704
  254MOL0     H33481   3.042   5.450   4.148 -1.2003 -0.1853 -0.7675
  254MOL0     H33482   2.768   5.695   4.252 -2.8185 -0.7689 -0.3810
  254MOL0     H33483   2.806   5.529   4.236 -0.5181  1.5303  2.0134
  254MOL0     H33484   2.666   5.590   4.047  0.6843  1.5153  1.2847
  254MOL0     H33485   2.827   5.556   3.975 -1.4938 -1.7074 -1.3680
  254MOL0     H33486   2.731   5.839   4.054 -0.1383  0.5537 -1.0959
  254MOL0     H33487   2.865   5.800   3.960 -0.9665  1.6094 -1.0154
  254MOL0     H33488   2.695   5.722   3.777 -0.4012  1.6555 -1.1672
  254MOL0     H33489   2.670   5.887   3.830 -1.2415 -0.3539  2.2492
  254MOL0     H33490   2.518   5.810   3.646 -0.6591  0.4291 -0.3673
  254MOL0     H33491   2.357   5.733   3.481 -1.2929 -1.1949 -0.4566
  254MOL0     H33492   2.015   5.465   3.261  1.5693 -0.4320  0.1425
  254MOL0     H33493   1.841   5.348   3.157 -0.5162  3.3296  1.8550
  254MOL0     H33494   1.590   5.046   3.393  5.3190  0.5532  4.0103
  254MOL0     H33495   1.738   4.962   3.333 -2.2299 -2.8222  2.6387
  254MOL0     H33496   1.579   4.832   3.232  1.0895 -0.1765  1.2067
  254MOL0     H33497   1.655   4.942   3.113  0.0307 -1.0808 -0.9317
  254MOL0     H33498   1.454   5.089   3.114  2.2601 -0.2421 -1.1498
  254MOL0     H33499   1.381   4.992   3.241  0.8252  0.4718  0.4160
  254MOL0     H33500   1.459   4.896   2.957  0.9109 -2.3251  0.9714
  254MOL0     H33501   1.383   4.795   3.078 -0.3247  1.2086  1.9408
  254MOL0     H33502   1.259   5.033   2.941  1.7780  1.0477  1.1504
  254MOL0     H33503   1.180   4.940   3.080  2.1635  0.1336  1.1250
  254MOL0     H33504   1.136   4.760   2.947  4.5923 -3.5322 -3.0964
  254MOL0     H33505   1.238   4.817   2.820 -0.9025 -3.8777  0.7522
  254MOL0     H33506   1.070   5.001   2.770  3.0110 -0.1089  0.6161
  254MOL0     H33507   0.985   4.852   2.792  3.8999 -0.7180 -2.4473
  254MOL0     H33508   0.990   5.077   2.986  0.3010 -0.5789  1.1467
  254MOL0     H33509   0.936   4.908   3.025  1.1931 -2.3564 -1.2572
  254MOL0     H33510   1.744   5.132   3.517  0.3342  0.0194  2.2717
  254MOL0     H33511   1.910   5.244   3.629 -0.7479 -0.6936 -0.6757
  254MOL0     H33512   2.195   5.466   3.779 -0.7410 -0.0762 -0.3309
  254MOL0     H33513   2.356   5.551   3.943  2.3430 -0.2734 -0.7235
  254MOL0     H33514   4.344   5.238   4.415 -1.3872  1.2737  1.0206
  254MOL0     H33515   4.575   5.365   4.422  0.7105  2.2978  0.5886
  254MOL0     H33516   4.865   5.669   4.083  1.1737  3.4058 -0.4368
  254MOL0     H33517   5.092   5.700   4.116 -0.2529 -0.9366 -0.0742
  254MOL0     H33518   5.259   5.877   4.231 -0.6533  0.2225  3.3231
  254MOL0     H33519   5.303   5.711   4.194  2.2205 -0.5433  0.0222
  254MOL0     H33520   5.433   5.878   4.390 -2.0492  0.6821 -0.6500
  254MOL0     H33521   5.462   5.698   4.369  1.4525  0.1196  0.2931
  254MOL0     H33522   5.509   5.927   4.153 -1.7410 -0.9507 -0.9313
  254MOL0     H33523   5.529   5.755   4.134  1.4547  0.6527 -1.1070
  254MOL0     H33524   5.749   5.879   4.188  3.6987 -2.2952  1.8199
  254MOL0     H33525   5.668   5.933   4.344  0.5264  2.5513 -2.2436
  254MOL0     H33526   5.779   5.557   4.465 -1.3836  1.3450  2.0140
  254MOL0     H33527   5.040   5.717   4.545 -1.5680  4.1561  1.2632
  254MOL0     H33528   4.785   5.669   4.502  0.1881  3.9159  0.1811
  255MOL0     O33529   7.687   3.184  11.210  0.3355  0.2076 -0.3876
  255MOL0     C33530   7.726   3.140  11.103  0.4918  0.3488 -0.2744
  255MOL0     O33531   7.849   3.153  11.048 -0.2879 -0.5695 -0.0627
  255MOL0     C33532   7.952   3.215  11.117  0.1663  0.2650 -1.0460
  255MOL0     C33533   8.070   3.225  11.046  0.3131  0.2208 -0.2152
  255MOL0     C33534   8.177   3.295  11.098 -0.2217 -0.6325  0.0613
  255MOL0     C33535   8.193   3.324  11.233 -0.8955  0.2448  0.0684
  255MOL0     O33536   8.312   3.368  11.295  0.6877  0.2730 -0.6082
  255MOL0     C33537   8.434   3.385  11.222 -0.9786  0.1992 -0.1156
  255MOL0     C33538   8.525   3.441  11.332  0.3084 -0.9361 -0.3914
  255MOL0     C33539   8.652   3.497  11.256  1.0688  0.7464  0.5080
  255MOL0     C33540   8.733   3.584  11.339 -0.3810 -0.5614  0.2961
  255MOL0     C33541   8.844   3.644  11.247 -0.8649 -0.9131 -0.3281
  255MOL0     C33542   8.918   3.764  11.306  0.3766 -0.6744 -0.2248
  255MOL0     C33543   9.021   3.707  11.402 -0.1521  0.5298  0.8179
  255MOL0     C33544   9.124   3.809  11.460 -0.8246  0.3068 -0.6494
  255MOL0     N33545   9.187   3.914  11.367 -0.5643  0.7597  0.2092
  255MOL0     C33546   9.250   3.876  11.254 -0.7925  0.0348  0.4611
  255MOL0     C33547   9.304   3.995  11.201  0.3497  0.0692 -0.1653
  255MOL0     C33548   9.367   4.014  11.066  0.5334 -0.3299  0.0574
  255MOL0     C33549   9.287   4.109  10.969  0.4993  0.2355 -0.5517
  255MOL0     C33550   9.360   4.123  10.833 -0.5744  0.8272 -0.5760
  255MOL0     C33551   9.284   4.223  10.744 -0.6150  0.1593 -0.2446
  255MOL0     O33552   9.193   4.152  10.659 -0.1383 -0.7975  0.0831
  255MOL0     C33553   9.064   4.169  10.672 -0.1672 -0.1385 -0.3393
  255MOL0     C33554   8.989   4.080  10.592 -0.2151  0.3865  0.8634
  255MOL0     C33555   8.850   4.074  10.597 -0.3662 -0.0911  0.0262
  255MOL0     C33556   8.785   4.150  10.689  0.5253  0.9334 -0.2867
  255MOL0     C33557   8.632   4.144  10.706 -0.2327 -0.8110  0.4770
  255MOL0     O33558   8.570   4.240  10.783 -0.3796 -0.1881 -0.0340
  255MOL0     C33559   8.440   4.264  10.770  0.6747  0.0488 -0.3532
  255MOL0     C33560   8.345   4.182  10.837  0.3359 -0.0433 -0.0013
  255MOL0     C33561   8.211   4.212  10.834 -0.6256 -1.3465  0.4061
  255MOL0     C33562   8.170   4.317  10.757 -0.1731  0.6867 -0.0291
  255MOL0     O33563   8.045   4.348  10.746 -0.0325 -0.1766  0.5822
  255MOL0     C33564   7.972   4.367  10.873  0.5350 -0.4561  0.3388
  255MOL0     C33565   7.830   4.411  10.857  0.2598 -0.5055  0.2944
  255MOL0     C33566   7.739   4.295  10.805  0.0128 -1.0740  0.2830
  255MOL0     C33567   7.588   4.355  10.788 -0.2755  0.5410 -0.1724
  255MOL0     C33568   7.482   4.246  10.788 -0.3142 -0.5199 -0.1088
  255MOL0     C33569   7.343   4.295  10.809  0.2364  0.0762 -0.6342
  255MOL0     C33570   7.321   4.352  10.951 -0.2197  0.3809  0.4415
  255MOL0     C33571   7.197   4.298  11.020  0.4405 -0.2459 -1.1257
  255MOL0    Cl33572   7.057   4.313  10.919  0.2412 -0.0098  0.0978
  255MOL0     C33573   8.259   4.391  10.684  0.4105 -0.3387  0.3474
  255MOL0     C33574   8.392   4.367  10.692  0.1889 -0.3853  0.6472
  255MOL0     O33575   8.571   4.064  10.637  0.6110  0.9008 -0.1569
  255MOL0     C33576   8.848   4.255  10.759 -0.4562  0.2706  0.3851
  255MOL0     C33577   8.991   4.255  10.755  0.8192  0.3410 -0.5050
  255MOL0     N33578   9.262   4.103  11.280 -0.1282  0.6395  0.2014
  255MOL0     N33579   9.195   4.050  11.375 -0.1440 -0.5193  0.4628
  255MOL0     C33580   8.078   3.312  11.310  0.5116 -0.0439  0.2293
  255MOL0     C33581   7.955   3.263  11.256  0.4295  0.4828 -0.1504
  255MOL0     C33582   7.629   3.053  11.041  0.8186  0.0367 -0.0971
  255MOL0     C33583   7.515   3.011  11.122 -0.0431  0.0570 -0.2121
  255MOL0     C33584   7.431   2.909  11.071  0.5882  0.4727  0.3230
  255MOL0     C33585   7.456   2.848  10.945 -0.5753  0.4375 -0.3597
  255MOL0     O33586   7.379   2.751  10.894  0.4557  1.0725 -0.8199
  255MOL0     C33587   7.287   2.683  10.985 -0.1071 -0.3812 -0.0914
  255MOL0     C33588   7.241   2.557  10.917 -0.5657  0.9329 -0.1250
  255MOL0     C33589   7.195   2.443  11.016  0.3666 -1.5061 -0.7831
  255MOL0     C33590   7.071   2.479  11.097 -0.0279  0.4320 -0.1466
  255MOL0     C33591   7.092   2.561  11.213  0.1472  1.3347  0.9206
  255MOL0     C33592   7.116   2.626  11.308  0.2538 -0.0580 -0.1162
  255MOL0     C33593   7.563   2.892  10.863  0.5164 -0.1633  0.1722
  255MOL0     C33594   7.652   2.997  10.913 -0.3142  0.2510  0.6822
  255MOL0     H33595   8.052   3.192  10.944  0.0780  0.7915 -0.3626
  255MOL0     H33596   8.259   3.329  11.035 -0.0975 -0.7085  0.1807
  255MOL0     H33597   8.408   3.466  11.154 -0.8192  2.8193  2.6989
  255MOL0     H33598   8.467   3.290  11.180  0.2274  0.8228 -0.6445
  255MOL0     H33599   8.559   3.359  11.396  0.6506 -1.8196 -1.6752
  255MOL0     H33600   8.477   3.520  11.391 -1.0966 -1.7323 -0.4308
  255MOL0     H33601   8.621   3.549  11.166 -0.0148 -0.3703  0.2025
  255MOL0     H33602   8.707   3.406  11.229 -2.4377 -1.0383 -1.3289
  255MOL0     H33603   8.671   3.667  11.377  0.4871  0.2556 -0.0485
  255MOL0     H33604   8.777   3.534  11.425  0.8969  1.9846  1.2433
  255MOL0     H33605   8.802   3.680  11.153 -0.4079  3.9167  1.0345
  255MOL0     H33606   8.915   3.562  11.232  3.6409  2.3002  1.0504
  255MOL0     H33607   8.840   3.823  11.355  1.4755  0.6956 -0.0317
  255MOL0     H33608   8.965   3.826  11.228 -0.8977  0.1273 -0.3818
  255MOL0     H33609   8.959   3.665  11.482 -3.1184 -0.5725 -1.8162
  255MOL0     H33610   9.073   3.629  11.346 -0.7198  1.3064 -0.8531
  255MOL0     H33611   9.199   3.757  11.520  0.6613  2.6295 -0.3958
  255MOL0     H33612   9.070   3.877  11.526 -0.9327  1.6341 -2.0427
  255MOL0     H33613   9.237   3.778  11.209 -1.5736  1.1083 -1.8214
  255MOL0     H33614   9.366   3.914  11.021  1.0401  0.5288 -1.9704
  255MOL0     H33615   9.470   4.048  11.081  0.7189  0.0729 -1.9014
  255MOL0     H33616   9.262   4.202  11.020  0.2743 -0.5119  0.7222
  255MOL0     H33617   9.186   4.069  10.955 -0.2854  2.3926 -1.6015
  255MOL0     H33618   9.464   4.153  10.851  0.5295 -2.6044 -0.5481
  255MOL0     H33619   9.374   4.029  10.780 -1.9305  1.0471 -1.3650
  255MOL0     H33620   9.358   4.270  10.678 -0.6862  0.8591  0.1606
  255MOL0     H33621   9.245   4.310  10.798  1.8180  1.6528 -0.7284
  255MOL0     H33622   9.034   4.021  10.512 -2.7616 -0.3423 -0.1390
  255MOL0     H33623   8.795   4.001  10.538 -0.1968  1.1592 -1.7824
  255MOL0     H33624   8.374   4.106  10.908 -2.1170 -0.9253  0.1502
  255MOL0     H33625   8.141   4.162  10.900 -0.0705  0.3827  2.4271
  255MOL0     H33626   8.018   4.458  10.914  0.1911  1.4042 -3.0150
  255MOL0     H33627   7.964   4.281  10.940  0.2528 -0.0537  0.8298
  255MOL0     H33628   7.826   4.508  10.806 -0.8598 -0.2915  0.7683
  255MOL0     H33629   7.798   4.428  10.960  1.0396  0.9965  0.3304
  255MOL0     H33630   7.728   4.213  10.876 -1.1753 -2.8740 -1.8351
  255MOL0     H33631   7.780   4.268  10.707  0.6784  3.4612 -0.9057
  255MOL0     H33632   7.581   4.429  10.868 -1.9419  1.1238 -0.8175
  255MOL0     H33633   7.578   4.404  10.691  0.3081  4.1063  1.4102
  255MOL0     H33634   7.505   4.182  10.873 -0.0323  0.7395  0.7775
  255MOL0     H33635   7.487   4.179  10.701  1.9566  0.9095 -1.1745
  255MOL0     H33636   7.264   4.221  10.794 -0.9965  0.7196  2.1527
  255MOL0     H33637   7.314   4.371  10.736 -2.3740  0.1504  0.3729
  255MOL0     H33638   7.405   4.331  11.018 -0.5752 -0.3083  0.6774
  255MOL0     H33639   7.327   4.461  10.947 -1.6691  0.4305 -1.1714
  255MOL0     H33640   7.182   4.333  11.123 -1.4021 -0.6907 -1.2117
  255MOL0     H33641   7.203   4.189  11.035  0.5507 -0.1995 -0.8207
  255MOL0     H33642   8.232   4.470  10.615  4.0961  1.0356  0.2222
  255MOL0     H33643   8.462   4.434  10.643  1.6058 -1.7140  0.7637
  255MOL0     H33644   8.799   4.332  10.818 -1.5778  1.7990 -2.3426
  255MOL0     H33645   9.035   4.337  10.811  1.3495 -0.8372  0.8768
  255MOL0     H33646   8.087   3.343  11.414  2.6089 -1.6877  0.6151
  255MOL0     H33647   7.878   3.251  11.332  0.2014 -0.6842 -0.5451
  255MOL0     H33648   7.484   3.061  11.213 -1.3246 -3.3731  1.4327
  255MOL0     H33649   7.347   2.887  11.137  0.8930 -1.2735  0.1770
  255MOL0     H33650   7.203   2.749  11.009 -0.7175 -0.1950 -2.4400
  255MOL0     H33651   7.339   2.650  11.075 -0.1499 -0.0592  0.0499
  255MOL0     H33652   7.152   2.591  10.862 -0.4891 -0.8033 -1.4152
  255MOL0     H33653   7.303   2.519  10.836 -2.7098 -0.8647 -1.0598
  255MOL0     H33654   7.277   2.411  11.082  0.9115 -0.9171 -1.1591
  255MOL0     H33655   7.168   2.350  10.965 -0.4922 -2.4607  1.2681
  255MOL0     H33656   7.006   2.537  11.031 -0.4721  0.7519  0.5579
  255MOL0     H33657   7.018   2.386  11.118  0.7402 -0.7272 -2.8597
  255MOL0     H33658   7.135   2.681  11.398  1.5866 -0.8053  0.0834
  255MOL0     H33659   7.567   2.846  10.765 -1.1532 -0.4251  0.1973
  255MOL0     H33660   7.732   3.036  10.850  0.5608 -2.5706 -0.1035
  256MOL0     O33661   1.080   2.121   4.582  0.4834  0.0379  0.7548
  256MOL0     C33662   1.108   2.226   4.534 -0.9130 -0.2833  0.4429
  256MOL0     O33663   1.023   2.330   4.513 -0.0434 -0.2971  0.2807
  256MOL0     C33664   0.885   2.316   4.521 -0.4463  0.5340  0.2967
  256MOL0     C33665   0.831   2.440   4.537  0.4580  0.1040 -0.0674
  256MOL0     C33666   0.690   2.452   4.541  0.4903  0.1238 -0.0565
  256MOL0     C33667   0.614   2.339   4.531  0.4797  0.8099  0.0606
  256MOL0     O33668   0.478   2.371   4.532 -0.5160 -0.3288 -0.3780
  256MOL0     C33669   0.384   2.288   4.455 -0.6689  0.8156 -0.0898
  256MOL0     C33670   0.345   2.156   4.518  0.5430 -0.3101 -0.3434
  256MOL0     C33671   0.199   2.122   4.477 -0.5528 -0.1082  0.3244
  256MOL0     C33672   0.172   1.986   4.534  0.0378  0.2086  0.1053
  256MOL0     C33673   0.029   1.944   4.513  0.4752 -0.0942 -0.1324
  256MOL0     C33674  -0.074   2.030   4.586  0.9703  0.0759 -0.6900
  256MOL0     C33675  -0.211   1.951   4.595 -0.2255  0.2922 -0.3339
  256MOL0     C33676  -0.316   2.032   4.684  0.6355 -0.1117  0.4492
  256MOL0     N33677  -0.445   1.962   4.701 -0.8799  0.1959  0.0784
  256MOL0     C33678  -0.476   1.827   4.677 -0.1648 -0.3188 -0.1870
  256MOL0     C33679  -0.578   1.805   4.768 -0.1437  0.5663 -0.1259
  256MOL0     C33680  -0.638   1.676   4.820 -0.3252  0.2204 -0.0061
  256MOL0     C33681  -0.730   1.616   4.714  1.0150  0.4038  0.4290
  256MOL0     C33682  -0.796   1.486   4.755  0.4191 -0.6069  0.4323
  256MOL0     C33683  -0.920   1.509   4.834 -0.1890  0.3453 -0.3126
  256MOL0     O33684  -1.018   1.563   4.739  0.1616  0.4519 -0.0783
  256MOL0     C33685  -1.141   1.599   4.800  0.4628  1.2977 -0.1110
  256MOL0     C33686  -1.151   1.636   4.933  0.0334  0.0152  0.7099
  256MOL0     C33687  -1.278   1.678   4.988  0.0493  0.1711  0.2689
  256MOL0     C33688  -1.384   1.679   4.906  0.7484 -0.3863 -0.7572
  256MOL0     C33689  -1.519   1.708   4.974 -0.0940  0.2126 -0.4312
  256MOL0     O33690  -1.609   1.774   4.902 -0.8845 -0.1259  0.1720
  256MOL0     C33691  -1.729   1.812   4.958 -0.4573 -0.7598 -0.1128
  256MOL0     C33692  -1.748   1.906   5.064 -0.3128 -0.8552  0.1182
  256MOL0     C33693  -1.878   1.944   5.106 -0.1033 -0.8551  0.3366
  256MOL0     C33694  -1.988   1.888   5.040  0.5314 -0.0884 -0.2930
  256MOL0     O33695  -2.115   1.921   5.074  0.6491  0.2130 -0.1456
  256MOL0     C33696  -2.130   1.953   5.213 -0.0583  0.4653 -0.8745
  256MOL0     C33697  -2.286   1.947   5.248  1.1490 -0.3169  0.3954
  256MOL0     C33698  -2.293   1.964   5.400 -0.0605  0.0934 -0.2052
  256MOL0     C33699  -2.441   2.003   5.446  0.2816 -0.1001  0.2673
  256MOL0     C33700  -2.458   2.025   5.599 -1.0436  0.6326  0.7388
  256MOL0     C33701  -2.601   2.068   5.632  0.1655  0.0634  0.5909
  256MOL0     C33702  -2.656   2.206   5.567 -0.3941 -0.1259 -0.6064
  256MOL0     C33703  -2.777   2.266   5.641  0.3412  0.6320 -0.7362
  256MOL0    Cl33704  -2.706   2.391   5.752  0.4549 -0.2560  0.2650
  256MOL0     C33705  -1.976   1.796   4.938 -0.1879 -0.5300  0.3248
  256MOL0     C33706  -1.844   1.751   4.900 -0.5708  0.2214 -0.7890
  256MOL0     O33707  -1.543   1.672   5.087 -0.8503  0.5987  0.1298
  256MOL0     C33708  -1.376   1.642   4.773 -0.1581  0.0084 -0.1859
  256MOL0     C33709  -1.259   1.595   4.721 -0.5489 -0.6958  0.6497
  256MOL0     N33710  -0.606   1.921   4.830  0.2140 -0.1560  0.4347
  256MOL0     N33711  -0.524   2.011   4.797  0.0548  0.4040 -0.0153
  256MOL0     C33712   0.679   2.218   4.493 -0.4811  0.5697  1.1711
  256MOL0     C33713   0.815   2.208   4.480 -0.2132  0.7812 -0.2674
  256MOL0     C33714   1.251   2.242   4.490 -0.8528  0.6829  0.3833
  256MOL0     C33715   1.346   2.142   4.501 -0.1207  0.5705 -0.2020
  256MOL0     C33716   1.477   2.161   4.441 -0.2423 -0.3527  0.2166
  256MOL0     C33717   1.510   2.276   4.370 -0.7040  0.0493 -1.0202
  256MOL0     O33718   1.627   2.294   4.315 -0.4147 -0.1274  0.4587
  256MOL0     C33719   1.747   2.267   4.392  0.6402 -0.0846  0.0119
  256MOL0     C33720   1.799   2.409   4.399 -0.5272  0.4590 -0.0557
  256MOL0     C33721   1.930   2.422   4.479  0.2297  0.2097 -0.4121
  256MOL0     C33722   1.998   2.559   4.454  0.2518  0.2092  0.5093
  256MOL0     C33723   2.061   2.581   4.323 -1.2338  1.1185  0.4716
  256MOL0     C33724   2.097   2.587   4.203  0.3142 -0.1462 -0.0235
  256MOL0     C33725   1.423   2.376   4.355  0.8480 -0.0372  0.5753
  256MOL0     C33726   1.292   2.358   4.411 -0.1525  0.6307  0.8387
  256MOL0     H33727   0.902   2.521   4.545 -1.2773  1.6163  0.6729
  256MOL0     H33728   0.645   2.549   4.558 -1.2278 -0.8032  0.9612
  256MOL0     H33729   0.433   2.271   4.359 -1.3725 -0.3105 -0.2744
  256MOL0     H33730   0.290   2.342   4.437 -1.6931 -1.1704 -1.0877
  256MOL0     H33731   0.351   2.160   4.627  0.6334  2.1106 -0.3900
  256MOL0     H33732   0.422   2.088   4.480  0.4840 -2.6460  3.2108
  256MOL0     H33733   0.187   2.106   4.370  0.8459 -4.5527  0.6119
  256MOL0     H33734   0.139   2.205   4.515  0.8074  1.2549 -0.4186
  256MOL0     H33735   0.232   1.922   4.468  0.5407 -0.4886  1.2187
  256MOL0     H33736   0.211   1.982   4.636  0.1688 -0.7237  0.0256
  256MOL0     H33737   0.020   1.843   4.555  2.9079 -1.1349 -1.9216
  256MOL0     H33738   0.003   1.930   4.408 -1.1757  0.0925  0.2237
  256MOL0     H33739  -0.090   2.121   4.528  2.1435  0.0016 -1.1507
  256MOL0     H33740  -0.051   2.056   4.689 -1.1520  0.7673 -0.3427
  256MOL0     H33741  -0.253   1.928   4.496 -3.7703 -1.5364  1.3912
  256MOL0     H33742  -0.184   1.856   4.642  4.0446  0.9902 -0.9932
  256MOL0     H33743  -0.348   2.120   4.628 -2.2419  0.1831  2.3161
  256MOL0     H33744  -0.282   2.076   4.778 -2.6359 -1.1624  2.2795
  256MOL0     H33745  -0.423   1.752   4.619  0.6667  0.1316 -0.0230
  256MOL0     H33746  -0.689   1.706   4.912 -0.2440  2.0249 -0.4986
  256MOL0     H33747  -0.559   1.601   4.832  0.4665  0.7936 -1.4081
  256MOL0     H33748  -0.675   1.591   4.623  0.4006 -0.2214  0.2228
  256MOL0     H33749  -0.809   1.688   4.690 -0.1823 -0.3698  1.8473
  256MOL0     H33750  -0.818   1.432   4.662 -3.4642 -3.2833  2.6555
  256MOL0     H33751  -0.740   1.416   4.817 -1.9361 -2.2714  0.7915
  256MOL0     H33752  -0.894   1.587   4.906 -0.5730 -1.1739  1.5418
  256MOL0     H33753  -0.960   1.421   4.885 -0.5784  1.2004  0.8988
  256MOL0     H33754  -1.068   1.633   5.004  0.3220 -0.7005  0.3515
  256MOL0     H33755  -1.284   1.703   5.093  1.7078  1.0212  0.1910
  256MOL0     H33756  -1.659   1.933   5.120  0.1971 -1.0923 -0.5546
  256MOL0     H33757  -1.895   2.014   5.187  1.5451  1.4070 -1.1221
  256MOL0     H33758  -2.084   2.051   5.229  1.2435 -0.1865 -0.4976
  256MOL0     H33759  -2.071   1.885   5.275  1.6499  1.7592 -1.0331
  256MOL0     H33760  -2.332   1.851   5.225  0.7856  0.2522 -1.4504
  256MOL0     H33761  -2.346   2.023   5.198  2.0345  1.8703  2.4492
  256MOL0     H33762  -2.212   2.024   5.443  2.6530 -1.0508 -3.3326
  256MOL0     H33763  -2.284   1.867   5.450 -0.2732  0.0159 -0.3136
  256MOL0     H33764  -2.474   2.093   5.391  1.3427 -1.2559 -2.4329
  256MOL0     H33765  -2.514   1.927   5.417  1.0597 -0.7164 -0.0878
  256MOL0     H33766  -2.381   2.099   5.624  1.1311 -2.0839  2.7129
  256MOL0     H33767  -2.443   1.929   5.651 -0.8202  0.8156  1.0168
  256MOL0     H33768  -2.612   2.064   5.741  0.9313 -2.9060  0.6377
  256MOL0     H33769  -2.672   1.990   5.601 -0.6310  0.7109  0.7294
  256MOL0     H33770  -2.575   2.276   5.541  1.8845 -2.7228 -1.0414
  256MOL0     H33771  -2.697   2.185   5.468  1.9957 -1.0335 -1.4967
  256MOL0     H33772  -2.842   2.191   5.689 -1.1823  1.0112 -2.1180
  256MOL0     H33773  -2.841   2.324   5.574  0.1426 -0.0708 -1.1666
  256MOL0     H33774  -2.067   1.749   4.902 -0.4235 -0.3804  0.7141
  256MOL0     H33775  -1.835   1.664   4.836 -0.7748  0.0616 -0.6049
  256MOL0     H33776  -1.467   1.646   4.713 -2.2189 -2.1976  2.4743
  256MOL0     H33777  -1.243   1.578   4.615  2.7050 -1.1746  1.1016
  256MOL0     H33778   0.633   2.123   4.468  1.2109 -0.4816  1.8917
  256MOL0     H33779   0.860   2.112   4.457  1.2655  1.6332 -1.0711
  256MOL0     H33780   1.336   2.045   4.549  1.9649 -1.1648 -3.0174
  256MOL0     H33781   1.550   2.081   4.452  0.4869  0.6055  3.5330
  256MOL0     H33782   1.824   2.212   4.339  1.8716  1.8088 -0.2822
  256MOL0     H33783   1.724   2.226   4.491 -3.3593  4.8274  1.5579
  256MOL0     H33784   1.821   2.439   4.296 -1.0353  0.5014 -0.1579
  256MOL0     H33785   1.720   2.472   4.441 -1.7830 -1.4484  0.5603
  256MOL0     H33786   2.002   2.341   4.464  1.0182  0.9789 -0.9579
  256MOL0     H33787   1.887   2.406   4.578 -1.2386 -2.8700 -1.4362
  256MOL0     H33788   1.925   2.638   4.476  0.9440  0.6718  1.2259
  256MOL0     H33789   2.078   2.573   4.527 -0.8196  2.4288  1.3487
  256MOL0     H33790   2.120   2.602   4.100  0.2326 -2.5174 -0.4208
  256MOL0     H33791   1.457   2.469   4.310  3.2227 -0.3888  1.4904
  256MOL0     H33792   1.222   2.439   4.398 -1.4246 -0.3417  1.3663
  257MOL0     O33793   2.833   2.667   5.770 -0.1681  0.0998  0.1561
  257MOL0     C33794   2.874   2.598   5.680 -0.2901  0.1658 -0.1840
  257MOL0     O33795   2.794   2.531   5.594 -0.6460  0.5279  0.1732
  257MOL0     C33796   2.660   2.527   5.601  0.6242 -0.8941  0.1508
  257MOL0     C33797   2.586   2.568   5.484 -0.5882 -0.4060 -0.8969
  257MOL0     C33798   2.444   2.567   5.494 -0.7589 -0.4726  0.3757
  257MOL0     C33799   2.372   2.529   5.611  0.4155 -0.3911 -0.2373
  257MOL0     O33800   2.231   2.520   5.632  0.4197  0.3332 -0.1676
  257MOL0     C33801   2.148   2.571   5.523  0.1746 -0.0372 -1.2391
  257MOL0     C33802   2.005   2.585   5.571  0.0676  0.9794  0.4448
  257MOL0     C33803   1.944   2.443   5.609 -0.6744 -0.4638  0.0937
  257MOL0     C33804   1.791   2.455   5.641 -0.4744 -0.7299  0.0567
  257MOL0     C33805   1.737   2.322   5.710  0.5668 -0.6682 -0.1335
  257MOL0     C33806   1.754   2.202   5.626  0.0409 -0.4315  0.0105
  257MOL0     C33807   1.677   2.210   5.487  0.2598  0.5834  0.1505
  257MOL0     C33808   1.645   2.067   5.438  0.3594 -0.7985 -0.7065
  257MOL0     N33809   1.554   2.050   5.330  0.1741  0.0477 -0.4769
  257MOL0     C33810   1.502   2.159   5.261  0.2203  0.1701 -0.2294
  257MOL0     C33811   1.472   2.114   5.136  0.0642 -0.2524 -0.6841
  257MOL0     C33812   1.420   2.176   5.019  0.8045 -1.0267  0.6473
  257MOL0     C33813   1.262   2.174   5.026  0.3597  0.9677 -0.2540
  257MOL0     C33814   1.206   2.285   4.930 -0.4929 -0.7514  0.6563
  257MOL0     C33815   1.053   2.274   4.895 -0.5368 -0.0923 -0.2737
  257MOL0     O33816   0.973   2.297   5.010  0.0183 -0.4786  0.0527
  257MOL0     C33817   0.840   2.319   4.991  0.5531 -0.0769 -0.0070
  257MOL0     C33818   0.768   2.275   4.876 -0.0629  0.0664  0.0273
  257MOL0     C33819   0.633   2.293   4.860 -0.0995 -0.2323 -0.1710
  257MOL0     C33820   0.572   2.379   4.958  0.3798  1.0061 -0.1322
  257MOL0     C33821   0.419   2.400   4.951  0.1216 -0.3351 -0.3404
  257MOL0     O33822   0.340   2.302   4.891  0.2347  0.6825 -0.4467
  257MOL0     C33823   0.207   2.315   4.883 -0.3177  0.3900  0.5418
  257MOL0     C33824   0.113   2.230   4.930  0.3463 -0.6740 -0.6133
  257MOL0     C33825  -0.026   2.252   4.903 -0.2630  0.3276 -0.3470
  257MOL0     C33826  -0.071   2.348   4.810  0.3536  0.2186 -0.0189
  257MOL0     O33827  -0.209   2.350   4.781 -0.1956  0.5898 -0.4812
  257MOL0     C33828  -0.250   2.472   4.710  0.3449 -0.3379 -0.3758
  257MOL0     C33829  -0.399   2.470   4.671  0.2545  0.2956  0.0024
  257MOL0     C33830  -0.491   2.479   4.787 -0.2386  0.3169 -0.5585
  257MOL0     C33831  -0.640   2.440   4.750  0.5231  0.4568  0.5624
  257MOL0     C33832  -0.741   2.472   4.859  0.8507  1.4772 -0.1153
  257MOL0     C33833  -0.892   2.474   4.832 -0.1575  0.6124  0.3164
  257MOL0     C33834  -0.960   2.493   4.971 -0.6333 -0.7925 -0.7329
  257MOL0     C33835  -1.107   2.488   4.944  0.7020  0.0050 -0.6808
  257MOL0    Cl33836  -1.224   2.463   5.078  0.1732  0.4856 -0.2372
  257MOL0     C33837   0.031   2.438   4.765  0.4682  0.0908  0.1937
  257MOL0     C33838   0.165   2.418   4.793 -0.0565 -0.5379  0.0620
  257MOL0     O33839   0.379   2.505   5.005 -0.0311  0.0127 -0.3408
  257MOL0     C33840   0.645   2.437   5.059 -0.2323  0.2330 -0.4745
  257MOL0     C33841   0.784   2.411   5.077  0.1101  0.3926 -0.5410
  257MOL0     N33842   1.506   1.978   5.132 -0.2804  0.1548  0.0220
  257MOL0     N33843   1.564   1.941   5.248  0.2541  0.2564 -0.1485
  257MOL0     C33844   2.448   2.490   5.724 -1.1102 -0.1276  0.3265
  257MOL0     C33845   2.591   2.493   5.718 -0.6883  1.3038 -0.0354
  257MOL0     C33846   3.020   2.602   5.659 -0.0995 -1.2792  0.1206
  257MOL0     C33847   3.085   2.551   5.542 -0.9669 -0.7214 -0.1981
  257MOL0     C33848   3.227   2.564   5.524 -0.4258 -0.0462 -0.7569
  257MOL0     C33849   3.297   2.629   5.627 -0.5480  0.5384 -0.1283
  257MOL0     O33850   3.433   2.634   5.635 -0.0514 -0.4084 -0.2046
  257MOL0     C33851   3.503   2.712   5.530  0.2465 -0.1397 -0.0840
  257MOL0     C33852   3.650   2.681   5.534 -0.2551 -0.3559  0.2572
  257MOL0     C33853   3.681   2.535   5.563  0.9696 -0.5217  0.6131
  257MOL0     C33854   3.820   2.489   5.516 -0.3488 -0.5647 -0.7886
  257MOL0     C33855   3.928   2.587   5.535  0.1124  0.4325  0.6474
  257MOL0     C33856   4.014   2.662   5.566  0.6957 -0.3741  0.3431
  257MOL0     C33857   3.232   2.681   5.738 -0.5485  0.8534 -0.0845
  257MOL0     C33858   3.098   2.668   5.756 -0.4462 -0.0870  0.3214
  257MOL0     H33859   2.636   2.590   5.389 -0.6461 -0.8814 -1.0387
  257MOL0     H33860   2.399   2.594   5.399  1.4285  0.6335 -0.4193
  257MOL0     H33861   2.155   2.499   5.441  0.0007 -1.1793 -0.2808
  257MOL0     H33862   2.177   2.674   5.500 -1.4785  0.6876 -0.2266
  257MOL0     H33863   1.949   2.620   5.484  3.4796 -2.2620 -3.5133
  257MOL0     H33864   1.994   2.641   5.664  1.5673 -3.3792  3.6032
  257MOL0     H33865   2.000   2.403   5.694 -0.3131  0.6355  0.3867
  257MOL0     H33866   1.954   2.378   5.521 -0.7351 -1.4657  0.8053
  257MOL0     H33867   1.775   2.529   5.720  0.2255 -1.1701  0.6265
  257MOL0     H33868   1.739   2.476   5.547 -2.0188 -2.8801  0.3683
  257MOL0     H33869   1.629   2.337   5.718  0.7879  0.8359  0.2349
  257MOL0     H33870   1.775   2.307   5.811 -3.9983 -1.9248  1.6170
  257MOL0     H33871   1.714   2.124   5.691 -1.7949  0.3751 -0.0651
  257MOL0     H33872   1.858   2.171   5.613 -0.8606 -3.7522 -0.0267
  257MOL0     H33873   1.586   2.270   5.493 -0.0932 -0.0672  1.7584
  257MOL0     H33874   1.750   2.241   5.411 -0.1032 -1.6853 -1.2199
  257MOL0     H33875   1.596   2.025   5.526  2.3236 -1.7969 -0.0203
  257MOL0     H33876   1.745   2.025   5.423  1.9474  1.5150  2.3221
  257MOL0     H33877   1.475   2.258   5.296 -2.2391  0.2968 -2.1431
  257MOL0     H33878   1.441   2.105   4.939 -0.3084 -1.8721  1.0944
  257MOL0     H33879   1.464   2.273   4.993 -0.0074 -1.0365 -0.8761
  257MOL0     H33880   1.223   2.193   5.126 -1.2148 -2.0515 -0.1893
  257MOL0     H33881   1.226   2.074   4.999  1.7895  0.0103  1.1543
  257MOL0     H33882   1.214   2.384   4.976  1.0226  0.0296 -1.1339
  257MOL0     H33883   1.266   2.291   4.839 -0.4763 -1.2373  0.6348
  257MOL0     H33884   1.034   2.176   4.849 -1.2184  0.1401 -0.5000
  257MOL0     H33885   1.026   2.348   4.819  0.2733 -1.1685 -1.6683
  257MOL0     H33886   0.815   2.220   4.795 -1.0891  0.4276 -0.8358
  257MOL0     H33887   0.587   2.243   4.775 -0.7359  2.9506 -1.8541
  257MOL0     H33888   0.132   2.147   4.998  0.0310  0.0611  0.4059
  257MOL0     H33889  -0.100   2.185   4.945 -1.7182  0.8368 -1.9929
  257MOL0     H33890  -0.186   2.483   4.622  0.6446 -3.1369 -0.6153
  257MOL0     H33891  -0.242   2.566   4.765  2.6399  1.6491 -3.7584
  257MOL0     H33892  -0.431   2.375   4.626  0.7578  0.7625 -1.3920
  257MOL0     H33893  -0.417   2.552   4.600  0.6987  1.4675  1.2139
  257MOL0     H33894  -0.497   2.583   4.818  0.1599 -0.2143  1.3919
  257MOL0     H33895  -0.457   2.428   4.878  0.2070 -1.4240 -1.6451
  257MOL0     H33896  -0.667   2.497   4.661  0.3719  0.9026  0.8925
  257MOL0     H33897  -0.638   2.331   4.741 -0.1120  0.2704  2.3955
  257MOL0     H33898  -0.703   2.562   4.908 -0.3725  1.2005  1.4206
  257MOL0     H33899  -0.726   2.385   4.923 -3.0511 -0.9904 -2.1482
  257MOL0     H33900  -0.913   2.374   4.793  3.9255 -0.6571  1.0015
  257MOL0     H33901  -0.920   2.550   4.757  0.4071  1.0866  0.5822
  257MOL0     H33902  -0.938   2.412   5.042 -1.7668 -0.4117  0.0776
  257MOL0     H33903  -0.927   2.579   5.030 -1.0036 -0.3049 -1.2308
  257MOL0     H33904  -1.139   2.416   4.868  0.0547 -0.3643 -0.0683
  257MOL0     H33905  -1.133   2.588   4.906 -4.4609 -0.5452  0.5591
  257MOL0     H33906   0.005   2.517   4.695 -0.8549  0.3057  0.8855
  257MOL0     H33907   0.244   2.487   4.767  0.4619 -1.5242 -1.0979
  257MOL0     H33908   0.602   2.511   5.126  3.0883  1.9552 -0.0145
  257MOL0     H33909   0.844   2.451   5.158 -1.4761  3.3104 -0.6801
  257MOL0     H33910   2.394   2.463   5.815  0.5995  0.7298  1.6606
  257MOL0     H33911   2.645   2.483   5.811 -0.5034  3.4627  0.1447
  257MOL0     H33912   3.029   2.490   5.471 -0.4279 -1.7955  0.2787
  257MOL0     H33913   3.273   2.523   5.435  0.7861 -2.9974  1.0720
  257MOL0     H33914   3.489   2.819   5.543  2.1406  0.3149 -1.4758
  257MOL0     H33915   3.455   2.682   5.436 -1.7085  1.7578  0.2360
  257MOL0     H33916   3.675   2.702   5.430 -2.5983 -1.1839 -0.5333
  257MOL0     H33917   3.700   2.748   5.605  2.0382 -0.8441 -0.7979
  257MOL0     H33918   3.602   2.484   5.506 -1.9100  1.2773  2.7150
  257MOL0     H33919   3.674   2.531   5.672 -1.0521  1.2602  0.6186
  257MOL0     H33920   3.839   2.394   5.567 -1.4162 -0.7912 -0.7875
  257MOL0     H33921   3.813   2.458   5.411 -3.3773 -0.4625 -0.6992
  257MOL0     H33922   4.083   2.739   5.593  1.3082  0.0902 -2.2762
  257MOL0     H33923   3.287   2.731   5.817 -0.9632  1.6807 -0.3019
  257MOL0     H33924   3.062   2.710   5.850  0.5922  2.6879 -0.4134
  258MOL0     O33925  10.187   4.535   9.105 -0.2974 -0.6490  0.8143
  258MOL0     C33926  10.293   4.480   9.064  0.3842 -0.0289  0.3737
  258MOL0     O33927  10.306   4.354   9.015  0.4490 -0.0218 -0.2773
  258MOL0     C33928  10.205   4.262   9.012 -0.9099  0.5190  0.5605
  258MOL0     C33929  10.091   4.259   9.094 -0.7945  0.1408  0.0300
  258MOL0     C33930  10.001   4.146   9.092  0.5021  0.3643  0.2054
  258MOL0     C33931  10.002   4.049   8.987 -0.3421 -0.2085 -0.0714
  258MOL0     O33932   9.915   3.949   8.965  0.3629  0.1980 -0.7439
  258MOL0     C33933   9.832   3.906   9.075 -0.2508 -0.3877 -0.0276
  258MOL0     C33934   9.712   3.814   9.027 -0.3395 -0.3203  0.1727
  258MOL0     C33935   9.615   3.788   9.139  0.5959 -0.2070 -0.0367
  258MOL0     C33936   9.484   3.715   9.108  0.4396  0.2530  0.2900
  258MOL0     C33937   9.507   3.567   9.066 -0.0502  0.1199  0.2698
  258MOL0     C33938   9.387   3.470   9.096 -0.4300  1.1737 -0.5355
  258MOL0     C33939   9.437   3.325   9.064  0.1632 -0.3575 -0.0782
  258MOL0     C33940   9.321   3.221   9.073  0.0132 -0.0902  0.2457
  258MOL0     N33941   9.242   3.211   9.192  0.1619  0.3124 -0.3969
  258MOL0     C33942   9.272   3.153   9.316  0.0336 -0.0009  0.4759
  258MOL0     C33943   9.149   3.136   9.373  0.1388 -0.8320 -0.2310
  258MOL0     C33944   9.136   3.060   9.508  0.1622  0.9880  0.6681
  258MOL0     C33945   9.157   2.904   9.528  0.4231  0.1733  0.3990
  258MOL0     C33946   9.038   2.830   9.455  0.2794 -0.7933 -0.8142
  258MOL0     C33947   9.027   2.820   9.310 -0.4150  0.1158  0.4297
  258MOL0     O33948   8.949   2.708   9.280 -0.3162 -0.2283 -0.1851
  258MOL0     C33949   8.810   2.713   9.294 -0.2524 -1.0639  0.4962
  258MOL0     C33950   8.736   2.832   9.312 -0.9932  0.5928  0.0746
  258MOL0     C33951   8.595   2.832   9.316 -0.5634  0.1875 -1.3359
  258MOL0     C33952   8.526   2.709   9.291 -1.0535  0.0697 -0.2163
  258MOL0     C33953   8.376   2.720   9.264 -1.0367  0.7712 -1.4062
  258MOL0     O33954   8.294   2.609   9.278 -0.4071 -0.1017 -0.0801
  258MOL0     C33955   8.164   2.612   9.246  0.3580  0.2324  0.7011
  258MOL0     C33956   8.119   2.621   9.119 -0.4738  0.7209 -0.4135
  258MOL0     C33957   7.991   2.617   9.084  0.7562 -0.6931 -0.5069
  258MOL0     C33958   7.888   2.604   9.175  0.1802 -0.0365  0.2812
  258MOL0     O33959   7.752   2.605   9.158 -0.4420 -0.3242  0.5176
  258MOL0     C33960   7.697   2.612   9.027  0.1905 -0.1300 -0.5566
  258MOL0     C33961   7.547   2.627   9.037  0.1026  0.1422 -0.0133
  258MOL0     C33962   7.492   2.518   9.142 -0.6469  0.3299  0.0116
  258MOL0     C33963   7.340   2.524   9.159 -0.0995  0.0755 -0.7904
  258MOL0     C33964   7.290   2.441   9.277 -0.0028  0.4897  0.6483
  258MOL0     C33965   7.147   2.483   9.311  0.7561 -1.0554 -0.1649
  258MOL0     C33966   7.077   2.385   9.406  1.5327 -0.2714 -0.3218
  258MOL0     C33967   6.946   2.442   9.480  0.2446 -0.1744  0.1383
  258MOL0    Cl33968   6.999   2.544   9.616 -0.0465 -0.1332 -0.0555
  258MOL0     C33969   7.938   2.593   9.307  0.1903 -0.1477  0.6162
  258MOL0     C33970   8.071   2.595   9.349  0.2350 -0.0187 -0.1078
  258MOL0     O33971   8.340   2.831   9.216  0.3767 -0.0088  0.0586
  258MOL0     C33972   8.603   2.592   9.265  0.4456  0.4045 -0.4000
  258MOL0     C33973   8.741   2.594   9.279  0.3236 -0.1829  0.4162
  258MOL0     N33974   9.052   3.194   9.289  0.2995  0.2233 -1.3411
  258MOL0     N33975   9.113   3.240   9.188 -0.2625 -0.7469 -0.1575
  258MOL0     C33976  10.112   4.057   8.902  0.1685  0.3573  0.0807
  258MOL0     C33977  10.215   4.159   8.924 -0.9361  0.2297  0.7608
  258MOL0     C33978  10.422   4.554   9.084  0.1305  0.1540  0.5370
  258MOL0     C33979  10.425   4.691   9.123 -0.0898 -0.3270 -0.3520
  258MOL0     C33980  10.557   4.746   9.146  0.4904  0.3872  0.4551
  258MOL0     C33981  10.678   4.687   9.103 -0.5584 -1.0298  1.1212
  258MOL0     O33982  10.802   4.751   9.111 -0.2996 -0.4071  0.1814
  258MOL0     C33983  10.809   4.888   9.169  0.7024 -0.8462 -0.8512
  258MOL0     C33984  10.959   4.885   9.182  0.5673  0.2440  0.4775
  258MOL0     C33985  10.998   4.805   9.308  0.2078  0.5789  0.8740
  258MOL0     C33986  11.148   4.777   9.309  0.4519  0.1013  0.2812
  258MOL0     C33987  11.220   4.890   9.359  0.7286 -0.3935 -0.0814
  258MOL0     C33988  11.278   4.993   9.387 -0.1837  0.0987  0.1640
  258MOL0     C33989  10.673   4.556   9.057 -0.5031 -0.2021  0.3560
  258MOL0     C33990  10.548   4.492   9.058  0.0989 -0.1684  0.4915
  258MOL0     H33991  10.086   4.329   9.177  2.1406  0.9156 -0.3421
  258MOL0     H33992   9.914   4.149   9.157  0.4042  1.2874  0.0487
  258MOL0     H33993   9.793   3.990   9.135  0.0755  1.6390 -2.4787
  258MOL0     H33994   9.896   3.848   9.142  0.9555  0.8729 -0.0462
  258MOL0     H33995   9.756   3.716   9.004 -0.5864 -0.9786  2.2447
  258MOL0     H33996   9.658   3.860   8.944  1.3063  3.2442  0.9115
  258MOL0     H33997   9.591   3.880   9.193  2.2786 -0.3024  0.9367
  258MOL0     H33998   9.671   3.717   9.200 -0.0405 -1.5733 -0.9785
  258MOL0     H33999   9.433   3.720   9.205 -1.0802 -0.0288 -0.4671
  258MOL0     H34000   9.431   3.763   9.026  0.3949 -1.0663 -0.4766
  258MOL0     H34001   9.599   3.536   9.116  0.0619 -0.1345 -0.0910
  258MOL0     H34002   9.519   3.559   8.957 -1.0300 -0.2155  0.1742
  258MOL0     H34003   9.307   3.498   9.027 -1.2454 -0.2839 -0.2298
  258MOL0     H34004   9.352   3.485   9.198  0.8431  1.3592 -0.1096
  258MOL0     H34005   9.481   3.310   8.965 -2.4590 -3.0851 -0.9888
  258MOL0     H34006   9.511   3.298   9.140 -2.6287 -2.5804  2.0627
  258MOL0     H34007   9.365   3.122   9.054  0.4929  0.8173 -4.7754
  258MOL0     H34008   9.253   3.241   8.989 -1.3980  3.1668  1.9867
  258MOL0     H34009   9.368   3.132   9.362  0.3928  1.8593  0.6822
  258MOL0     H34010   9.035   3.079   9.547 -0.5755  2.0694 -1.6227
  258MOL0     H34011   9.210   3.097   9.580  0.7464  3.4312 -1.0593
  258MOL0     H34012   9.156   2.886   9.636 -1.2297 -1.9064  0.1089
  258MOL0     H34013   9.257   2.874   9.494  0.4809 -2.0423  2.3047
  258MOL0     H34014   9.045   2.727   9.491  0.3413  0.1444  2.1070
  258MOL0     H34015   8.942   2.871   9.488  0.0646 -0.2088 -2.0654
  258MOL0     H34016   9.121   2.796   9.260 -2.3057 -0.5900 -3.1265
  258MOL0     H34017   8.995   2.914   9.265  1.3406 -0.6900 -2.7832
  258MOL0     H34018   8.786   2.927   9.332 -2.9221  1.2159  2.2948
  258MOL0     H34019   8.533   2.921   9.329 -0.6585 -0.1928  1.5861
  258MOL0     H34020   8.193   2.624   9.039  0.7324  1.2718  0.7009
  258MOL0     H34021   7.953   2.642   8.985  1.0151 -0.8589 -0.6481
  258MOL0     H34022   7.718   2.517   8.976  3.5140 -1.0534  2.1609
  258MOL0     H34023   7.728   2.694   8.961  0.3469 -1.5449 -2.3166
  258MOL0     H34024   7.500   2.609   8.940 -1.1547 -2.1424  0.9562
  258MOL0     H34025   7.520   2.725   9.077  4.0478  1.1056  0.7916
  258MOL0     H34026   7.537   2.537   9.240  2.7205  2.3010 -1.7225
  258MOL0     H34027   7.528   2.421   9.106  0.2300  1.3514 -2.0569
  258MOL0     H34028   7.303   2.626   9.173 -3.3871 -1.1228  0.2070
  258MOL0     H34029   7.300   2.489   9.063 -1.0367 -1.8744  0.2492
  258MOL0     H34030   7.365   2.445   9.357  2.5801 -0.1523 -1.5623
  258MOL0     H34031   7.294   2.336   9.249  0.4594  0.4273  0.9401
  258MOL0     H34032   7.091   2.507   9.221 -0.4090 -1.4007  0.4483
  258MOL0     H34033   7.163   2.581   9.357 -2.4248 -1.4143  2.0268
  258MOL0     H34034   7.046   2.293   9.357  0.7121 -0.2991  0.2403
  258MOL0     H34035   7.148   2.351   9.482 -0.0547 -0.2959  1.2126
  258MOL0     H34036   6.888   2.357   9.518 -2.5048  0.0333 -3.1145
  258MOL0     H34037   6.883   2.508   9.421  2.7930  3.1606  0.8678
  258MOL0     H34038   7.865   2.588   9.387 -0.4552  3.1555  0.4071
  258MOL0     H34039   8.097   2.597   9.455 -2.5255  4.0612  0.7442
  258MOL0     H34040   8.552   2.498   9.249 -0.8282  1.1028 -0.5711
  258MOL0     H34041   8.803   2.506   9.274  1.0421  0.2524  1.4041
  258MOL0     H34042  10.127   3.977   8.829 -1.0280 -0.5757  0.8288
  258MOL0     H34043  10.303   4.172   8.863 -0.1835  3.9749  2.3979
  258MOL0     H34044  10.335   4.751   9.128  0.9254  1.1796  0.8257
  258MOL0     H34045  10.550   4.849   9.180 -1.0900  0.0382  1.2784
  258MOL0     H34046  10.760   4.887   9.267 -0.6343 -1.2655 -1.4911
  258MOL0     H34047  10.774   4.973   9.109 -1.1069  0.9476  2.4932
  258MOL0     H34048  11.002   4.840   9.092  2.3691  0.4062  1.2132
  258MOL0     H34049  10.998   4.988   9.185  0.1831  0.4649 -1.2856
  258MOL0     H34050  10.940   4.712   9.309  0.8002  0.1833 -0.1630
  258MOL0     H34051  10.965   4.864   9.394 -4.1986 -0.6101  0.2392
  258MOL0     H34052  11.169   4.692   9.373 -3.4091  0.1126  1.8624
  258MOL0     H34053  11.167   4.742   9.207  1.3454  1.6499 -0.1045
  258MOL0     H34054  11.324   5.089   9.402  2.1188 -1.0579  1.2161
  258MOL0     H34055  10.765   4.505   9.032 -0.7014 -0.9816  1.1614
  258MOL0     H34056  10.551   4.391   9.017 -2.2718 -0.9501  2.0479
  259MOL0     O34057  10.179   4.954  10.734 -0.1231  0.4102  0.3401
  259MOL0     C34058  10.225   4.878  10.653  0.0605 -0.0466 -0.0800
  259MOL0     O34059  10.152   4.803  10.570 -0.4662 -0.4421 -0.5579
  259MOL0     C34060  10.023   4.791  10.604  0.3719 -0.1606 -0.0316
  259MOL0     C34061   9.985   4.659  10.624  0.1915  0.5359  0.8871
  259MOL0     C34062   9.852   4.629  10.634  0.2312 -1.1038 -0.2088
  259MOL0     C34063   9.756   4.732  10.637 -0.3655 -0.0333  0.6968
  259MOL0     O34064   9.628   4.681  10.650 -1.2137  0.1508  0.2839
  259MOL0     C34065   9.536   4.762  10.722 -0.1571 -0.8549 -0.0248
  259MOL0     C34066   9.397   4.705  10.724  0.0329  0.5308 -1.3376
  259MOL0     C34067   9.336   4.681  10.588  0.9380  0.0636 -0.0401
  259MOL0     C34068   9.184   4.634  10.589 -0.5659 -0.3777 -1.0825
  259MOL0     C34069   9.124   4.606  10.451  0.3634 -0.6693  0.0035
  259MOL0     C34070   8.968   4.617  10.463  0.3756  0.2808  0.2712
  259MOL0     C34071   8.902   4.506  10.543 -0.1062 -0.5090  0.2089
  259MOL0     C34072   8.752   4.483  10.516  0.2346 -0.9219  0.0060
  259MOL0     N34073   8.677   4.607  10.526 -1.0363  0.2766 -0.1230
  259MOL0     C34074   8.618   4.658  10.639 -0.3079  0.0304 -0.0316
  259MOL0     C34075   8.585   4.789  10.611  0.0379  0.0134  0.8595
  259MOL0     C34076   8.531   4.910  10.691  0.2593  0.9907  0.1271
  259MOL0     C34077   8.379   4.889  10.704 -0.8493  0.7893 -0.9213
  259MOL0     C34078   8.338   4.778  10.805 -0.6252 -0.5153 -0.5492
  259MOL0     C34079   8.180   4.773  10.814 -0.7694  0.8065  0.3833
  259MOL0     O34080   8.150   4.741  10.949 -0.2931  0.8729  0.2612
  259MOL0     C34081   8.022   4.730  10.986 -0.7000 -0.6050 -0.3360
  259MOL0     C34082   7.911   4.771  10.904 -0.0682 -1.2014  0.6851
  259MOL0     C34083   7.780   4.778  10.971  0.4145 -0.3699  0.7801
  259MOL0     C34084   7.756   4.741  11.105  0.0135 -0.5766 -0.1789
  259MOL0     C34085   7.631   4.753  11.168  0.0138 -0.3234  0.7113
  259MOL0     O34086   7.529   4.714  11.082  0.4758  0.3502 -0.0187
  259MOL0     C34087   7.398   4.717  11.129  0.5670  0.2165 -0.0944
  259MOL0     C34088   7.317   4.826  11.108 -0.3689  0.7730  1.0105
  259MOL0     C34089   7.183   4.816  11.147  0.2439  0.0912 -0.2160
  259MOL0     C34090   7.127   4.703  11.203 -0.1041  0.0687 -0.5874
  259MOL0     O34091   6.994   4.703  11.228  0.5415  0.1027 -0.2782
  259MOL0     C34092   6.930   4.597  11.295  0.1623 -0.0023 -0.0512
  259MOL0     C34093   6.896   4.495  11.192  0.1017  0.1279  0.0220
  259MOL0     C34094   6.864   4.368  11.260  0.2222 -0.0304  0.2227
  259MOL0     C34095   6.825   4.259  11.156 -0.4206  0.3581 -0.1013
  259MOL0     C34096   6.761   4.136  11.216  0.4530  0.0318  0.6751
  259MOL0     C34097   6.610   4.162  11.244  0.7766  0.8870  0.3250
  259MOL0     C34098   6.529   4.042  11.195  0.5868  0.6106 -0.1849
  259MOL0     C34099   6.391   4.093  11.146 -0.3157  0.3849 -0.1720
  259MOL0    Cl34100   6.296   4.136  11.283  0.4484 -0.2123 -0.2828
  259MOL0     C34101   7.210   4.596  11.226 -0.0847  0.3470  0.4737
  259MOL0     C34102   7.345   4.605  11.198 -0.7733  0.3842 -0.0738
  259MOL0     O34103   7.615   4.771  11.286 -0.1288 -0.3258  0.0081
  259MOL0     C34104   7.868   4.689  11.175 -0.6852  0.1184 -0.2349
  259MOL0     C34105   7.994   4.691  11.114  0.3663 -0.0450 -0.1523
  259MOL0     N34106   8.613   4.807  10.474  0.3314  0.1994  0.8487
  259MOL0     N34107   8.670   4.698  10.429  0.0142  0.7131 -0.1647
  259MOL0     C34108   9.795   4.867  10.616 -0.0093  0.4971 -0.7375
  259MOL0     C34109   9.930   4.892  10.591 -0.0185  0.5501  0.2849
  259MOL0     C34110  10.370   4.871  10.653 -0.8108 -0.5299 -0.5836
  259MOL0     C34111  10.456   4.954  10.737  0.0852  0.2751  0.6838
  259MOL0     C34112  10.593   4.932  10.737  0.1003  1.6207  0.0033
  259MOL0     C34113  10.655   4.836  10.655  0.0220  0.4731 -0.5017
  259MOL0     O34114  10.791   4.814  10.660  0.0849  0.2285  0.1785
  259MOL0     C34115  10.882   4.917  10.690  0.7830 -0.6521  0.2850
  259MOL0     C34116  11.020   4.880  10.640  1.5868 -0.4024  0.1439
  259MOL0     C34117  11.131   4.974  10.674 -0.2398 -0.5062 -0.5324
  259MOL0     C34118  11.234   4.969  10.569  0.2460 -0.8184  0.2048
  259MOL0     C34119  11.321   4.850  10.575 -0.4669 -1.0701  0.1561
  259MOL0     C34120  11.392   4.752  10.574  0.7254 -0.2521  0.2582
  259MOL0     C34121  10.575   4.758  10.575  0.6431 -0.3968 -0.6082
  259MOL0     C34122  10.435   4.770  10.574  0.0002  0.2116 -0.3933
  259MOL0     H34123  10.065   4.587  10.615 -0.5230 -0.1101 -0.6535
  259MOL0     H34124   9.807   4.531  10.650 -2.6505  0.6075  4.1912
  259MOL0     H34125   9.526   4.862  10.679 -4.9578 -1.7766 -1.7165
  259MOL0     H34126   9.577   4.766  10.823  1.9271  1.0747 -0.8611
  259MOL0     H34127   9.337   4.773  10.785  0.9056 -0.7991  1.1409
  259MOL0     H34128   9.387   4.616  10.787  3.4894  3.3805  4.0310
  259MOL0     H34129   9.402   4.623  10.523  0.0707  1.7793 -2.6406
  259MOL0     H34130   9.340   4.773  10.528  2.8291  0.5413  0.7475
  259MOL0     H34131   9.187   4.538  10.641  0.9800 -0.8087 -1.8882
  259MOL0     H34132   9.120   4.712  10.632  2.1704  0.8189  1.1571
  259MOL0     H34133   9.160   4.510  10.412  2.1635  0.3813 -1.0320
  259MOL0     H34134   9.153   4.685  10.381 -1.6516 -0.8617 -1.1157
  259MOL0     H34135   8.927   4.611  10.362  1.4725 -0.9765 -0.1267
  259MOL0     H34136   8.939   4.715  10.503  0.4024  1.9999 -3.4920
  259MOL0     H34137   8.937   4.408  10.510 -0.8546 -0.0062 -2.3148
  259MOL0     H34138   8.909   4.526  10.651 -1.9188  1.1170  0.0878
  259MOL0     H34139   8.709   4.410  10.585  1.0593 -2.1522 -0.7550
  259MOL0     H34140   8.743   4.441  10.416  0.4766 -2.3247  0.5557
  259MOL0     H34141   8.605   4.617  10.739 -0.5370 -0.0081 -0.0749
  259MOL0     H34142   8.547   5.000  10.632 -1.4490  0.7845 -0.7109
  259MOL0     H34143   8.571   4.917  10.793 -1.1924  1.7469  0.6723
  259MOL0     H34144   8.336   4.862  10.607 -0.7101 -0.7548 -0.5755
  259MOL0     H34145   8.333   4.986  10.725  0.9877  1.4473  0.2828
  259MOL0     H34146   8.377   4.678  10.785  0.1340 -0.7022  1.6106
  259MOL0     H34147   8.385   4.807  10.900 -0.8065  0.6018 -0.7885
  259MOL0     H34148   8.154   4.692  10.745 -0.4101 -0.6975  1.9375
  259MOL0     H34149   8.137   4.863  10.769 -0.1046 -0.0935 -2.2525
  259MOL0     H34150   7.927   4.795  10.800 -1.0007  0.6527  0.9420
  259MOL0     H34151   7.699   4.814  10.908  1.5068  0.9371  0.0744
  259MOL0     H34152   7.351   4.914  11.055 -1.5512  0.5158 -0.2269
  259MOL0     H34153   7.114   4.897  11.123 -1.1485 -0.9534  0.1413
  259MOL0     H34154   6.836   4.621  11.346  0.4925 -2.7158  2.0950
  259MOL0     H34155   6.985   4.555  11.379 -2.2374 -0.0266  1.5909
  259MOL0     H34156   6.981   4.471  11.128  0.2759 -0.2982  0.4089
  259MOL0     H34157   6.815   4.537  11.131 -0.3044 -0.2241  0.3159
  259MOL0     H34158   6.775   4.371  11.323  0.6043  1.8638  0.7310
  259MOL0     H34159   6.951   4.329  11.314 -1.2298  0.3386  3.0121
  259MOL0     H34160   6.756   4.295  11.079 -0.4877 -0.3509 -0.3753
  259MOL0     H34161   6.916   4.220  11.110 -0.4199  0.3185 -0.0663
  259MOL0     H34162   6.794   4.095  11.311 -2.7263 -0.7178  1.5616
  259MOL0     H34163   6.770   4.054  11.145  2.2680 -0.4643  1.4280
  259MOL0     H34164   6.583   4.257  11.195  2.1362  0.1681 -2.0162
  259MOL0     H34165   6.592   4.174  11.351  1.0256 -0.2784  0.5141
  259MOL0     H34166   6.572   3.977  11.119  2.1502  2.3303 -0.8615
  259MOL0     H34167   6.511   3.981  11.283  0.5762  1.9395  0.7694
  259MOL0     H34168   6.338   4.008  11.102 -0.8272  1.9067 -2.6607
  259MOL0     H34169   6.407   4.168  11.069  3.0962 -2.5064 -2.6319
  259MOL0     H34170   7.166   4.508  11.271  1.7523 -1.5522 -1.1932
  259MOL0     H34171   7.407   4.521  11.228 -2.2744  0.2844  3.2376
  259MOL0     H34172   7.873   4.665  11.281  1.8286 -1.7708 -0.6867
  259MOL0     H34173   8.079   4.672  11.179  0.1766 -4.8267 -0.9342
  259MOL0     H34174   9.717   4.942  10.611 -1.0199 -0.4020  0.7976
  259MOL0     H34175   9.952   4.997  10.572  0.1786  0.1171 -2.2546
  259MOL0     H34176  10.417   5.021  10.813 -0.4895  1.4200 -0.5694
  259MOL0     H34177  10.651   4.996  10.802 -0.8719  1.1720  1.3571
  259MOL0     H34178  10.884   4.936  10.797  2.6926  1.2164 -0.0170
  259MOL0     H34179  10.856   5.007  10.634  2.6699 -0.3146 -0.1262
  259MOL0     H34180  11.047   4.786  10.689 -0.3616 -0.4192  1.2616
  259MOL0     H34181  11.027   4.860  10.533  0.9154 -0.6599  0.1449
  259MOL0     H34182  11.181   4.951  10.769  0.5595 -0.5525 -0.9614
  259MOL0     H34183  11.089   5.075  10.680 -0.3617 -0.6007  0.3392
  259MOL0     H34184  11.190   4.962  10.469 -2.3547 -0.6152  1.2603
  259MOL0     H34185  11.300   5.056  10.574  0.3301 -0.9624  3.0306
  259MOL0     H34186  11.466   4.674  10.567 -1.3987 -2.2762 -3.9458
  259MOL0     H34187  10.624   4.681  10.517  0.6054 -0.6629 -0.2908
  259MOL0     H34188  10.372   4.693  10.530 -1.0935  0.1809  1.1431
  260MOL0     O34189  11.213   5.133   1.176 -0.1695  0.6989 -0.3200
  260MOL0     C34190  11.257   5.195   1.272  0.9919  0.7181  0.6121
  260MOL0     O34191  11.188   5.282   1.348 -0.1134 -0.1258  0.5624
  260MOL0     C34192  11.052   5.272   1.342  0.2570 -0.3551  0.0513
  260MOL0     C34193  10.972   5.289   1.228 -0.9542 -0.0455 -0.1943
  260MOL0     C34194  10.835   5.276   1.235  0.2902 -0.1771 -0.9792
  260MOL0     C34195  10.774   5.256   1.355  0.2257  0.5157  0.4018
  260MOL0     O34196  10.641   5.235   1.364  0.4765  0.4163  0.8787
  260MOL0     C34197  10.558   5.319   1.281 -0.5273  0.3949 -1.1031
  260MOL0     C34198  10.444   5.363   1.376  0.1422 -0.4409 -0.4828
  260MOL0     C34199  10.339   5.465   1.316 -0.2122  0.7312  0.0101
  260MOL0     C34200  10.251   5.397   1.212 -0.4049  0.3862  0.3386
  260MOL0     C34201  10.127   5.488   1.186 -0.0080  0.3047 -0.7077
  260MOL0     C34202  10.150   5.617   1.103  0.0719 -0.6638 -0.2172
  260MOL0     C34203  10.220   5.741   1.165 -0.0357  0.7780  0.3644
  260MOL0     C34204  10.182   5.790   1.307  0.2710  0.5106 -0.0904
  260MOL0     N34205  10.034   5.797   1.319  0.5501 -0.0626  0.3457
  260MOL0     C34206   9.945   5.857   1.229  0.0340  0.2817  0.1797
  260MOL0     C34207   9.825   5.830   1.270 -0.4502 -0.0332  0.0919
  260MOL0     C34208   9.706   5.864   1.180 -0.7920 -0.6395 -0.9333
  260MOL0     C34209   9.712   5.784   1.048 -0.4268 -0.9089 -0.2826
  260MOL0     C34210   9.699   5.633   1.070 -0.2480 -0.2820 -0.2928
  260MOL0     C34211   9.700   5.551   0.936  0.0736  0.2502 -0.2910
  260MOL0     O34212   9.595   5.590   0.845 -0.8612 -0.5641 -0.3380
  260MOL0     C34213   9.464   5.554   0.859  0.7829 -0.0983 -0.0026
  260MOL0     C34214   9.374   5.578   0.751 -0.4189  0.2393  0.4125
  260MOL0     C34215   9.233   5.545   0.757  0.1661  0.1234 -0.3056
  260MOL0     C34216   9.181   5.489   0.872 -0.9339 -0.8051 -0.0244
  260MOL0     C34217   9.041   5.462   0.896  0.8139  0.1488  0.7261
  260MOL0     O34218   8.970   5.436   0.780  0.0434  0.0487  0.4838
  260MOL0     C34219   8.832   5.421   0.777  0.2267  0.6224  0.1701
  260MOL0     C34220   8.739   5.454   0.877 -0.5780 -0.2003  0.6922
  260MOL0     C34221   8.606   5.460   0.846  0.8038 -0.1041  0.1272
  260MOL0     C34222   8.548   5.429   0.720 -0.4910 -0.4148  0.0671
  260MOL0     O34223   8.417   5.441   0.688 -0.7062 -0.6610 -0.2851
  260MOL0     C34224   8.343   5.546   0.741  0.1724  0.0096  1.1786
  260MOL0     C34225   8.218   5.572   0.665  0.5168  0.2425  0.3469
  260MOL0     C34226   8.138   5.694   0.718 -0.8679  0.6279 -0.4975
  260MOL0     C34227   8.005   5.694   0.645  0.0497 -0.4365  0.0728
  260MOL0     C34228   7.908   5.597   0.714  0.9799  0.0739  0.3338
  260MOL0     C34229   7.874   5.628   0.866 -0.9697  0.1426  0.1934
  260MOL0     C34230   7.737   5.600   0.922  0.2508  0.2045 -0.0591
  260MOL0     C34231   7.626   5.687   0.857  0.3279 -0.3204  1.3139
  260MOL0    Cl34232   7.670   5.858   0.882 -0.0065 -0.0397  0.3344
  260MOL0     C34233   8.640   5.381   0.627  1.2463 -0.5274 -0.3520
  260MOL0     C34234   8.779   5.375   0.650  0.9892 -0.2980 -0.6297
  260MOL0     O34235   8.990   5.453   1.012 -0.5838  0.2121  0.0790
  260MOL0     C34236   9.275   5.452   0.974  0.0670  0.5217 -0.4871
  260MOL0     C34237   9.411   5.488   0.973  0.7110  0.2417 -0.1040
  260MOL0     N34238   9.840   5.741   1.376 -0.3997 -0.5158  0.6004
  260MOL0     N34239   9.961   5.730   1.406 -0.1899 -0.3655 -0.4289
  260MOL0     C34240  10.843   5.258   1.474  0.1351  0.0353 -0.0278
  260MOL0     C34241  10.983   5.265   1.467 -0.0950  0.5006  0.2564
  260MOL0     C34242  11.402   5.167   1.295  0.2545  0.2748  0.2859
  260MOL0     C34243  11.466   5.207   1.416  0.9982 -0.8610 -0.2600
  260MOL0     C34244  11.600   5.186   1.437  0.1153  0.0291 -0.0887
  260MOL0     C34245  11.683   5.117   1.347 -0.1779  0.3755  0.4781
  260MOL0     O34246  11.820   5.087   1.359  0.1761 -0.1008  0.0116
  260MOL0     C34247  11.886   5.116   1.485 -0.2411  0.3999  0.8092
  260MOL0     C34248  12.012   5.041   1.491  0.5049  0.0846 -0.0536
  260MOL0     C34249  12.104   5.059   1.364  0.7563 -0.2828  0.0901
  260MOL0     C34250  12.234   4.979   1.376  0.2420  0.2887 -0.2865
  260MOL0     C34251  12.212   4.839   1.397  0.2013  0.5707 -0.9889
  260MOL0     C34252  12.184   4.721   1.414  0.0955  0.0369 -0.3560
  260MOL0     C34253  11.617   5.062   1.230  0.1619  0.7380  0.1751
  260MOL0     C34254  11.480   5.084   1.207  0.6853 -0.5413 -0.4490
  260MOL0     H34255  11.012   5.283   1.127 -1.3982 -0.3039 -0.3558
  260MOL0     H34256  10.793   5.284   1.135  1.1745 -0.3994 -1.3715
  260MOL0     H34257  10.523   5.255   1.200  0.9608 -1.5081 -0.3204
  260MOL0     H34258  10.616   5.409   1.257  1.6090  0.1679  2.4073
  260MOL0     H34259  10.487   5.421   1.458  0.1006 -1.9399  0.6422
  260MOL0     H34260  10.397   5.275   1.421  3.3269 -0.0847  4.3422
  260MOL0     H34261  10.401   5.538   1.263  1.6719 -0.9622 -0.2705
  260MOL0     H34262  10.280   5.514   1.394  0.4063  2.1392 -0.3703
  260MOL0     H34263  10.311   5.381   1.122 -0.1233 -2.1738  0.9056
  260MOL0     H34264  10.203   5.307   1.252 -2.9016  2.4935  2.5263
  260MOL0     H34265  10.071   5.495   1.279  0.0972  3.3049 -0.7722
  260MOL0     H34266  10.065   5.429   1.117 -0.9724  2.4901 -1.8195
  260MOL0     H34267  10.052   5.651   1.067  1.4565  2.9911 -1.0310
  260MOL0     H34268  10.211   5.595   1.015  0.2653 -2.5698  0.3604
  260MOL0     H34269  10.328   5.722   1.167 -0.4344 -1.7948  0.2058
  260MOL0     H34270  10.189   5.828   1.105 -4.7414 -0.7105  0.2467
  260MOL0     H34271  10.215   5.894   1.314 -2.0265  1.3159 -0.3575
  260MOL0     H34272  10.215   5.716   1.379 -2.5704 -2.1720 -1.3012
  260MOL0     H34273   9.972   5.916   1.142  0.9472  0.1405  0.3570
  260MOL0     H34274   9.706   5.971   1.158  1.4381 -0.7451 -1.6939
  260MOL0     H34275   9.613   5.841   1.233 -0.3891  0.9554  0.5762
  260MOL0     H34276   9.795   5.828   0.991 -1.3602 -0.5830 -1.4186
  260MOL0     H34277   9.622   5.820   0.997  1.3305  3.4727 -0.6852
  260MOL0     H34278   9.778   5.606   1.140 -0.6364  1.4062  0.8605
  260MOL0     H34279   9.603   5.623   1.121  0.7756  2.0527  2.3409
  260MOL0     H34280   9.700   5.443   0.957  3.2727 -0.0460 -1.1763
  260MOL0     H34281   9.800   5.570   0.895  0.7312  1.4127  1.7177
  260MOL0     H34282   9.413   5.615   0.656 -2.8297  0.5686 -0.5013
  260MOL0     H34283   9.173   5.560   0.668 -2.2492 -1.5390  0.9558
  260MOL0     H34284   8.766   5.472   0.980 -0.2436  2.2667  0.2293
  260MOL0     H34285   8.525   5.482   0.915 -1.3398 -2.0304 -1.6102
  260MOL0     H34286   8.402   5.638   0.743 -0.6611  0.6162 -0.2945
  260MOL0     H34287   8.311   5.531   0.844  1.3454  0.4266  1.6151
  260MOL0     H34288   8.157   5.483   0.682  0.9269 -0.5994 -2.1045
  260MOL0     H34289   8.221   5.570   0.555  0.0453  0.3495  0.3308
  260MOL0     H34290   8.188   5.790   0.699 -0.9180  1.0130  1.1655
  260MOL0     H34291   8.131   5.683   0.826 -3.3986  0.8630 -0.5969
  260MOL0     H34292   7.948   5.788   0.652  0.0669 -0.3903 -0.3857
  260MOL0     H34293   8.029   5.660   0.544  2.2004  0.8950  0.0659
  260MOL0     H34294   7.940   5.492   0.710  3.9216  0.8521  0.9940
  260MOL0     H34295   7.812   5.594   0.662  0.5841  2.8925  0.7532
  260MOL0     H34296   7.907   5.730   0.885  0.4998 -0.3731  0.5510
  260MOL0     H34297   7.944   5.563   0.920 -0.1315 -0.0461 -1.0790
  260MOL0     H34298   7.699   5.499   0.906 -3.2116  0.9659  2.0732
  260MOL0     H34299   7.727   5.617   1.030 -0.8801  1.1329 -0.2871
  260MOL0     H34300   7.529   5.678   0.907 -0.2388 -0.1802  0.2535
  260MOL0     H34301   7.620   5.651   0.754 -2.9593 -2.3677  2.0511
  260MOL0     H34302   8.593   5.356   0.532 -0.5550  3.3623 -0.6686
  260MOL0     H34303   8.833   5.357   0.558  0.3816 -3.0763 -0.5189
  260MOL0     H34304   9.240   5.413   1.069 -1.8179  2.3528 -0.3675
  260MOL0     H34305   9.461   5.463   1.066 -1.8955 -0.8702  1.0979
  260MOL0     H34306  10.788   5.237   1.565 -1.8853  0.7561 -0.9928
  260MOL0     H34307  11.044   5.248   1.555 -1.0617  1.8378  1.2351
  260MOL0     H34308  11.414   5.271   1.487  1.7090 -0.3134 -0.2280
  260MOL0     H34309  11.628   5.230   1.532  1.2327 -2.9184  1.0677
  260MOL0     H34310  11.836   5.080   1.576  1.1605  0.0741  1.4823
  260MOL0     H34311  11.898   5.223   1.504  0.1728  0.1210  2.2588
  260MOL0     H34312  12.075   5.061   1.578  1.0662 -3.5705  0.5406
  260MOL0     H34313  11.979   4.937   1.499 -2.3066  0.6453 -2.3369
  260MOL0     H34314  12.132   5.164   1.355  0.1983  0.0873  2.1551
  260MOL0     H34315  12.054   5.038   1.269  3.8625  0.7766 -1.9453
  260MOL0     H34316  12.295   5.000   1.287  0.5776  0.4113 -0.0304
  260MOL0     H34317  12.298   5.016   1.457 -0.4369  1.4217 -0.2462
  260MOL0     H34318  12.162   4.616   1.421  0.3668  0.0232  0.4540
  260MOL0     H34319  11.674   5.003   1.159  0.3092  0.2739  0.6669
  260MOL0     H34320  11.430   5.036   1.123  1.4788 -1.0679 -0.6332
  261MOL0     O34321   3.710   7.933  10.033  0.0159 -0.6966 -0.1068
  261MOL0     C34322   3.728   8.040   9.976 -0.2395 -0.6667  0.3679
  261MOL0     O34323   3.637   8.102   9.891  0.2608  0.0924  0.6349
  261MOL0     C34324   3.516   8.040   9.846  0.6191 -0.2411  0.2620
  261MOL0     C34325   3.404   8.127   9.820  0.2968 -0.4079 -0.6246
  261MOL0     C34326   3.279   8.075   9.784  0.1343 -0.4604 -0.0311
  261MOL0     C34327   3.273   7.943   9.748  0.1760 -0.0459 -0.0434
  261MOL0     O34328   3.148   7.901   9.704 -0.5248  0.1074  0.3654
  261MOL0     C34329   3.149   7.776   9.633 -1.2285 -0.0658 -0.4641
  261MOL0     C34330   3.027   7.760   9.544  0.0738 -0.6423 -0.5210
  261MOL0     C34331   2.903   7.723   9.620  0.7567 -0.1941  0.5623
  261MOL0     C34332   2.793   7.690   9.522  0.5306 -0.2350 -0.0478
  261MOL0     C34333   2.653   7.661   9.577  0.1417  0.8856  0.1926
  261MOL0     C34334   2.553   7.649   9.466  0.4234 -0.6335 -0.2415
  261MOL0     C34335   2.430   7.582   9.528 -0.2536  0.0610  0.1337
  261MOL0     C34336   2.328   7.548   9.423  0.5598  0.6261  0.6205
  261MOL0     N34337   2.222   7.459   9.477 -0.8732  0.4921  0.0555
  261MOL0     C34338   2.124   7.500   9.562  0.5844  0.1580  0.2155
  261MOL0     C34339   2.061   7.385   9.596 -0.0065 -0.0111 -0.8128
  261MOL0     C34340   1.954   7.361   9.700 -0.3100 -0.3414 -0.1937
  261MOL0     C34341   1.819   7.391   9.651 -0.2907  0.3421  0.8484
  261MOL0     C34342   1.715   7.343   9.754 -0.4849 -0.8904 -0.2752
  261MOL0     C34343   1.577   7.367   9.705  0.0144 -1.2409  0.1146
  261MOL0     O34344   1.484   7.335   9.812 -0.1772 -0.2418  0.2256
  261MOL0     C34345   1.352   7.361   9.789 -0.4985 -0.6501  0.0695
  261MOL0     C34346   1.304   7.421   9.671 -0.3424 -0.3164 -0.6935
  261MOL0     C34347   1.170   7.422   9.656  0.6839 -0.5241 -0.5027
  261MOL0     C34348   1.067   7.375   9.747 -0.1759 -0.5387 -0.5479
  261MOL0     C34349   0.926   7.386   9.713  0.0664  0.1881 -0.0362
  261MOL0     O34350   0.825   7.358   9.804 -0.2595 -0.2599  0.8341
  261MOL0     C34351   0.693   7.353   9.765 -0.5129 -0.3475  0.5117
  261MOL0     C34352   0.605   7.426   9.842  0.3427 -0.4515 -0.1486
  261MOL0     C34353   0.470   7.439   9.797 -0.2303 -0.4730 -0.2317
  261MOL0     C34354   0.423   7.378   9.676  0.2202  0.6580  0.4612
  261MOL0     O34355   0.292   7.389   9.620 -0.6723 -0.2749 -0.1485
  261MOL0     C34356   0.185   7.401   9.713 -0.5190 -0.3425 -0.1518
  261MOL0     C34357   0.054   7.365   9.636 -0.1752 -0.4104  0.8051
  261MOL0     C34358  -0.061   7.453   9.689 -0.2420 -0.1228  0.2187
  261MOL0     C34359  -0.196   7.394   9.646 -0.4837  0.6041 -0.4784
  261MOL0     C34360  -0.315   7.485   9.677  0.0378  0.5883  0.0378
  261MOL0     C34361  -0.315   7.619   9.603  0.2531 -0.1391 -0.1064
  261MOL0     C34362  -0.459   7.653   9.554  0.1802 -0.0427  0.0179
  261MOL0     C34363  -0.471   7.786   9.491  0.2225 -0.9306  0.2224
  261MOL0    Cl34364  -0.368   7.796   9.352  0.5191  0.5337  0.3316
  261MOL0     C34365   0.515   7.312   9.595 -0.4500  0.1005 -0.0883
  261MOL0     C34366   0.651   7.297   9.644 -0.2765 -1.1494  0.2819
  261MOL0     O34367   0.906   7.412   9.588 -0.1887  0.2905  0.5755
  261MOL0     C34368   1.121   7.333   9.870 -0.8524  0.7169 -1.6872
  261MOL0     C34369   1.260   7.326   9.889 -0.1231 -0.0782  0.5435
  261MOL0     N34370   2.113   7.286   9.514 -0.5342 -0.0883  0.4376
  261MOL0     N34371   2.212   7.328   9.442  0.5410 -0.1647 -0.1048
  261MOL0     C34372   3.373   7.854   9.790  0.6868 -0.3850 -0.6600
  261MOL0     C34373   3.502   7.904   9.820  0.2361  0.1224 -0.0379
  261MOL0     C34374   3.851   8.107  10.003  0.1196 -0.3500  0.1853
  261MOL0     C34375   3.930   8.069  10.116 -0.1134 -0.2879 -0.0204
  261MOL0     C34376   4.055   8.121  10.147  0.8030 -0.3011  0.1128
  261MOL0     C34377   4.116   8.215  10.058 -0.9254  0.7924 -1.1999
  261MOL0     O34378   4.245   8.242  10.095 -0.8104  1.2803  0.6570
  261MOL0     C34379   4.323   8.339  10.023  0.8315  0.8114 -0.2245
  261MOL0     C34380   4.289   8.487  10.071  0.1538  0.6768  0.2346
  261MOL0     C34381   4.265   8.493  10.219  0.7079 -0.1428 -0.7673
  261MOL0     C34382   4.372   8.432  10.308 -0.0871  0.8276 -0.0607
  261MOL0     C34383   4.505   8.492  10.295  0.5362 -0.2848 -0.6762
  261MOL0     C34384   4.610   8.552  10.277 -0.1625  0.1045  0.2192
  261MOL0     C34385   4.049   8.246   9.942 -0.1584 -0.2399  0.6905
  261MOL0     C34386   3.916   8.195   9.916 -0.9227  0.2369 -0.0138
  261MOL0     H34387   3.420   8.234   9.832  4.5038 -0.9004 -0.2753
  261MOL0     H34388   3.191   8.139   9.787 -0.0443 -0.6180 -1.4043
  261MOL0     H34389   3.153   7.689   9.699 -2.4549  1.8671  2.3695
  261MOL0     H34390   3.238   7.782   9.569 -0.8050  1.1615  0.1947
  261MOL0     H34391   3.049   7.674   9.480  3.2638 -1.1551  1.0940
  261MOL0     H34392   3.009   7.845   9.477  1.7826 -1.0315 -1.5326
  261MOL0     H34393   2.870   7.816   9.667 -0.5287  0.3129 -1.2085
  261MOL0     H34394   2.924   7.645   9.693  0.2272 -0.0649  0.8538
  261MOL0     H34395   2.781   7.773   9.452 -1.0733  0.3256  0.8432
  261MOL0     H34396   2.831   7.608   9.461  2.6640  0.2266  0.5675
  261MOL0     H34397   2.612   7.744   9.635  1.2443  0.0219  2.2955
  261MOL0     H34398   2.658   7.565   9.631  4.1634  0.3902 -0.7868
  261MOL0     H34399   2.590   7.582   9.388 -0.6026 -1.4561 -0.0359
  261MOL0     H34400   2.530   7.749   9.428 -1.1081 -1.1625 -0.7911
  261MOL0     H34401   2.454   7.495   9.589  1.4140  0.2195 -0.2587
  261MOL0     H34402   2.390   7.646   9.607  1.0307 -0.5956  1.3485
  261MOL0     H34403   2.380   7.489   9.346 -0.0945 -0.3333  0.8880
  261MOL0     H34404   2.290   7.642   9.383  0.8451  1.0573  1.3642
  261MOL0     H34405   2.107   7.593   9.615 -1.1325 -0.9695  1.7397
  261MOL0     H34406   1.988   7.425   9.781  0.1114  1.6240 -1.8474
  261MOL0     H34407   1.954   7.263   9.748 -1.4995  0.1943  0.9773
  261MOL0     H34408   1.809   7.347   9.552  0.4500  1.8383  0.0728
  261MOL0     H34409   1.815   7.500   9.640 -0.0135  0.6721  3.4068
  261MOL0     H34410   1.739   7.238   9.774  0.9673 -0.4370  0.5000
  261MOL0     H34411   1.741   7.401   9.843 -2.8976 -0.4806  0.2179
  261MOL0     H34412   1.554   7.323   9.607  0.7440 -1.6834  0.1381
  261MOL0     H34413   1.568   7.474   9.683  4.9949 -0.5289  0.4887
  261MOL0     H34414   1.368   7.453   9.589 -1.3637  1.0736 -0.9817
  261MOL0     H34415   1.138   7.470   9.563  0.5595 -1.5469 -0.9999
  261MOL0     H34416   0.644   7.475   9.931  0.1459  0.3811 -0.5088
  261MOL0     H34417   0.400   7.482   9.867  0.9823  1.1569  0.0535
  261MOL0     H34418   0.192   7.502   9.753  0.1731 -1.1298  1.8792
  261MOL0     H34419   0.193   7.335   9.800  1.4975 -0.1816 -0.1821
  261MOL0     H34420   0.046   7.257   9.651  2.4472 -0.9354 -0.8665
  261MOL0     H34421   0.057   7.378   9.527 -1.0020 -2.4783  0.4808
  261MOL0     H34422  -0.062   7.556   9.652 -1.5635 -0.3542 -0.4279
  261MOL0     H34423  -0.051   7.465   9.797  0.5607  0.5676  0.0752
  261MOL0     H34424  -0.194   7.394   9.536 -2.1536  2.4987 -0.5755
  261MOL0     H34425  -0.212   7.294   9.686  1.2106  0.0308 -1.1340
  261MOL0     H34426  -0.313   7.508   9.784  1.0592  1.3063 -0.1174
  261MOL0     H34427  -0.410   7.437   9.652  0.9432  0.2652 -3.2151
  261MOL0     H34428  -0.238   7.615   9.525  2.0925  4.7545  1.1300
  261MOL0     H34429  -0.287   7.697   9.674  1.5120 -2.8779  2.6046
  261MOL0     H34430  -0.475   7.575   9.479 -2.9200 -0.8270  1.3539
  261MOL0     H34431  -0.530   7.622   9.631  0.7867 -0.0250  0.5862
  261MOL0     H34432  -0.434   7.854   9.568  2.2003 -0.0820 -1.3962
  261MOL0     H34433  -0.575   7.805   9.464  0.5284  3.1396  1.1866
  261MOL0     H34434   0.494   7.275   9.495 -0.8136 -0.9116  0.3557
  261MOL0     H34435   0.712   7.252   9.567 -0.7227  2.0064 -2.0830
  261MOL0     H34436   1.049   7.304   9.946  0.1267  2.4434  0.0013
  261MOL0     H34437   1.298   7.284   9.982  0.3347 -1.2934 -0.1760
  261MOL0     H34438   3.362   7.747   9.778  0.8665 -0.4247 -0.4589
  261MOL0     H34439   3.580   7.833   9.847  1.3588  1.9561  1.8765
  261MOL0     H34440   3.901   7.984  10.175 -0.9943 -2.1290 -2.9095
  261MOL0     H34441   4.115   8.082  10.228  1.3946 -0.1498 -0.2496
  261MOL0     H34442   4.313   8.311   9.918 -2.0894 -1.6228  0.5372
  261MOL0     H34443   4.424   8.320  10.060 -0.1292 -3.8830  0.6737
  261MOL0     H34444   4.381   8.546  10.058  1.4428 -1.4623 -0.8306
  261MOL0     H34445   4.203   8.528  10.018 -1.0361 -0.2576  1.3824
  261MOL0     H34446   4.169   8.443  10.239 -0.3525  0.4835 -3.8261
  261MOL0     H34447   4.260   8.599  10.246  1.3437 -0.3402  0.1655
  261MOL0     H34448   4.344   8.433  10.414  0.7545  0.7352  0.1726
  261MOL0     H34449   4.373   8.324  10.287 -0.2400  0.7990  0.0777
  261MOL0     H34450   4.700   8.610  10.276  2.0115 -2.9658  2.2078
  261MOL0     H34451   4.097   8.311   9.869 -3.5120  1.5110 -0.1412
  261MOL0     H34452   3.869   8.213   9.820 -0.0951 -2.1655 -0.9356
  262MOL0     O34453   8.789   0.461   7.947  0.2342  0.3681  0.1933
  262MOL0     C34454   8.802   0.493   8.066  0.7483 -0.3396  1.2045
  262MOL0     O34455   8.729   0.440   8.173 -0.2070 -0.1881 -0.1556
  262MOL0     C34456   8.612   0.378   8.149  0.3485  0.2157 -0.7360
  262MOL0     C34457   8.497   0.432   8.083 -0.6713 -0.1455 -0.0625
  262MOL0     C34458   8.400   0.344   8.027  0.3239 -0.6917 -0.4858
  262MOL0     C34459   8.415   0.201   8.041  0.7995  0.2954 -0.3314
  262MOL0     O34460   8.331   0.105   7.991 -0.2171  0.0930 -0.2502
  262MOL0     C34461   8.192   0.107   8.006  0.9623  0.8973  0.8558
  262MOL0     C34462   8.118   0.043   7.884  0.0922 -0.0316 -1.5203
  262MOL0     C34463   7.960   0.037   7.893  0.4001 -0.7423 -0.6773
  262MOL0     C34464   7.908   0.182   7.901 -0.2121 -0.1885  0.3294
  262MOL0     C34465   7.761   0.177   7.870 -0.0080 -0.0118  0.0730
  262MOL0     C34466   7.670   0.106   7.974 -0.7225  0.3637  0.8017
  262MOL0     C34467   7.521   0.112   7.930 -0.0018 -0.9510 -0.0403
  262MOL0     C34468   7.445   0.237   7.961 -0.2374 -0.2164 -0.5127
  262MOL0     N34469   7.301   0.205   7.968 -0.1276  0.5597 -0.0376
  262MOL0     C34470   7.235   0.109   7.894  0.5622 -0.4085 -0.0185
  262MOL0     C34471   7.101   0.132   7.925 -0.1593 -0.4623 -0.2764
  262MOL0     C34472   6.988   0.044   7.861  0.8177  0.4318  0.2564
  262MOL0     C34473   6.921   0.113   7.738 -0.7630  0.3827 -0.4822
  262MOL0     C34474   6.821   0.228   7.773 -0.2021  0.1134 -0.8600
  262MOL0     C34475   6.774   0.296   7.643  0.2855 -0.1835  0.2579
  262MOL0     O34476   6.646   0.360   7.665 -0.8941 -0.8752  0.8768
  262MOL0     C34477   6.526   0.287   7.648  0.1269  0.0412 -0.1067
  262MOL0     C34478   6.404   0.352   7.654  0.6538  0.7895  0.2846
  262MOL0     C34479   6.285   0.283   7.627 -0.6409  0.3679 -1.2656
  262MOL0     C34480   6.281   0.148   7.601  0.2511 -0.5704  0.1509
  262MOL0     C34481   6.147   0.074   7.602 -0.6388 -0.7795 -0.8785
  262MOL0     O34482   6.034   0.121   7.661 -0.6545 -0.2694  0.5531
  262MOL0     C34483   5.915   0.051   7.633  0.4352 -0.5114 -0.0315
  262MOL0     C34484   5.893  -0.081   7.680 -0.0504 -0.3924 -0.6707
  262MOL0     C34485   5.775  -0.143   7.657  0.0154 -0.5063  1.0419
  262MOL0     C34486   5.662  -0.084   7.597 -0.4520  0.6283 -0.2277
  262MOL0     O34487   5.542  -0.155   7.599  0.2792 -0.5835  0.2432
  262MOL0     C34488   5.448  -0.131   7.491 -0.2662  0.3087  0.0870
  262MOL0     C34489   5.333  -0.228   7.504  0.4499 -0.1444 -0.4423
  262MOL0     C34490   5.240  -0.240   7.386  0.3271  0.8020  0.3358
  262MOL0     C34491   5.223  -0.113   7.315 -0.0202 -0.6669 -0.5314
  262MOL0     C34492   5.121  -0.138   7.203  0.8552  0.6041 -0.4456
  262MOL0     C34493   5.140  -0.032   7.090  0.5678 -0.1900  0.1712
  262MOL0     C34494   5.082   0.108   7.119 -0.0312  0.8289  0.3691
  262MOL0     C34495   4.936   0.120   7.119  0.7533 -0.2848  1.0430
  262MOL0    Cl34496   4.896   0.297   7.108 -0.3103  0.8680 -0.1194
  262MOL0     C34497   5.686   0.051   7.547  0.0260  0.6052 -0.7979
  262MOL0     C34498   5.812   0.109   7.559 -1.1055  0.3068 -0.3231
  262MOL0     O34499   6.149  -0.032   7.547  0.0550  0.2977  0.3030
  262MOL0     C34500   6.402   0.082   7.591 -0.8295  0.2799  0.4074
  262MOL0     C34501   6.523   0.153   7.613  0.1087  0.1835  0.4275
  262MOL0     N34502   7.092   0.230   8.025 -0.3655 -0.0128  0.1575
  262MOL0     N34503   7.211   0.269   8.050  0.0226 -0.2674 -0.2364
  262MOL0     C34504   8.520   0.154   8.116  0.0105 -0.1697  0.1950
  262MOL0     C34505   8.613   0.236   8.167 -0.0364 -0.9377 -0.5609
  262MOL0     C34506   8.911   0.593   8.090 -0.1471  0.1553 -0.0142
  262MOL0     C34507   8.939   0.643   8.226 -0.7336 -1.2638  1.3578
  262MOL0     C34508   9.033   0.745   8.249 -0.6183 -0.6023 -0.0634
  262MOL0     C34509   9.121   0.786   8.142  0.4110 -0.0105 -0.1724
  262MOL0     O34510   9.203   0.889   8.157 -0.2473  0.0617 -0.7467
  262MOL0     C34511   9.223   0.957   8.288  0.4144  0.1119 -0.4694
  262MOL0     C34512   9.317   1.078   8.273 -0.5557  0.6013 -0.4796
  262MOL0     C34513   9.458   1.030   8.226  0.2574  1.5287  0.3031
  262MOL0     C34514   9.552   1.146   8.209 -0.3154 -0.0833  0.2392
  262MOL0     C34515   9.528   1.226   8.097 -0.0324  0.0779 -0.2631
  262MOL0     C34516   9.511   1.286   7.993  0.1572  0.3814 -0.5603
  262MOL0     C34517   9.107   0.731   8.022  0.1647 -0.6562  0.2636
  262MOL0     C34518   9.003   0.639   7.996 -0.3647 -0.2164  0.8935
  262MOL0     H34519   8.484   0.539   8.089  1.2771  0.2016 -1.3481
  262MOL0     H34520   8.310   0.390   7.987  2.3988  4.8095  0.3353
  262MOL0     H34521   8.162   0.211   8.018  3.2494  1.5250  1.6841
  262MOL0     H34522   8.168   0.059   8.101 -0.1618  0.1527  0.2184
  262MOL0     H34523   8.152  -0.060   7.875  1.3582 -0.1106  2.2351
  262MOL0     H34524   8.144   0.107   7.799 -0.9116  1.5320 -0.6970
  262MOL0     H34525   7.937  -0.016   7.986 -2.6983  1.3298 -0.1270
  262MOL0     H34526   7.922  -0.008   7.801  0.6684  2.5681 -2.5469
  262MOL0     H34527   7.916   0.221   8.003  0.5352 -2.8084  1.3800
  262MOL0     H34528   7.961   0.250   7.834  0.1842  0.0024  0.8253
  262MOL0     H34529   7.747   0.132   7.771 -3.6674  3.2934 -1.1958
  262MOL0     H34530   7.725   0.280   7.865 -1.3854 -0.4182  1.1124
  262MOL0     H34531   7.674   0.146   8.076  1.3146  0.2834  0.7962
  262MOL0     H34532   7.714   0.005   7.977  0.3848  0.8390  1.0949
  262MOL0     H34533   7.523   0.083   7.824  1.6234 -2.7984  0.4494
  262MOL0     H34534   7.460   0.030   7.970 -0.9984 -0.0380  0.3714
  262MOL0     H34535   7.454   0.319   7.889 -0.3300 -0.5404 -0.9028
  262MOL0     H34536   7.475   0.276   8.058 -3.5231  1.3134  0.0252
  262MOL0     H34537   7.284   0.046   7.820  1.5351 -0.7523  0.8878
  262MOL0     H34538   6.915   0.022   7.940  2.0416 -1.8109  0.8560
  262MOL0     H34539   7.030  -0.052   7.828 -1.8325 -1.4071  1.7705
  262MOL0     H34540   6.874   0.038   7.674 -0.2101  1.4423 -2.1869
  262MOL0     H34541   7.002   0.158   7.680 -0.7005 -0.1292 -0.7960
  262MOL0     H34542   6.744   0.191   7.842 -1.1524  0.0144 -1.9490
  262MOL0     H34543   6.886   0.304   7.818  1.2560 -1.4792 -0.1623
  262MOL0     H34544   6.779   0.230   7.557 -0.2160  1.5521 -1.1676
  262MOL0     H34545   6.844   0.374   7.611  0.5632 -0.7809 -0.6289
  262MOL0     H34546   6.410   0.456   7.684 -0.5270  0.8934  0.2275
  262MOL0     H34547   6.197   0.345   7.646  1.7311  2.9504  2.9535
  262MOL0     H34548   5.958  -0.121   7.757  1.8857 -0.7959 -2.4283
  262MOL0     H34549   5.773  -0.246   7.692  1.9752 -1.3232 -1.0055
  262MOL0     H34550   5.502  -0.142   7.397  2.0954  1.9204  1.1591
  262MOL0     H34551   5.395  -0.035   7.484 -0.6009  0.1196 -0.0253
  262MOL0     H34552   5.277  -0.212   7.596 -0.2931 -1.5911 -0.6198
  262MOL0     H34553   5.376  -0.328   7.507  0.4700 -0.1117  0.8111
  262MOL0     H34554   5.142  -0.274   7.424  1.0251  0.7095  2.1511
  262MOL0     H34555   5.278  -0.308   7.309  1.6713  0.5170  1.2208
  262MOL0     H34556   5.187  -0.029   7.375 -0.2936 -1.0907 -0.0892
  262MOL0     H34557   5.319  -0.088   7.269  0.5579 -1.3119  0.2895
  262MOL0     H34558   5.019  -0.143   7.243  0.8402  1.9680 -0.2512
  262MOL0     H34559   5.132  -0.238   7.161 -0.3878  0.8101 -1.3226
  262MOL0     H34560   5.085  -0.062   7.001  0.3062 -0.2443  0.3508
  262MOL0     H34561   5.244  -0.026   7.058 -0.4645  0.2716 -3.4997
  262MOL0     H34562   5.112   0.142   7.218 -0.0060  1.0857  0.2752
  262MOL0     H34563   5.128   0.177   7.047 -1.8993  1.0436 -0.7072
  262MOL0     H34564   4.893   0.092   7.216 -1.4565 -1.7527 -0.2741
  262MOL0     H34565   4.888   0.065   7.038 -0.0464  1.8062  0.0258
  262MOL0     H34566   5.612   0.112   7.497 -0.4640 -0.2556 -1.1424
  262MOL0     H34567   5.837   0.205   7.516  0.6743 -0.1983 -0.5020
  262MOL0     H34568   6.417  -0.022   7.563  6.4113  0.7427  0.7391
  262MOL0     H34569   6.615   0.096   7.611  0.4970  0.8248 -0.5528
  262MOL0     H34570   8.538   0.051   8.148 -2.6548 -0.6937  0.2069
  262MOL0     H34571   8.699   0.198   8.222 -1.3161 -3.4772 -0.1899
  262MOL0     H34572   8.870   0.612   8.303 -3.8204  0.4721 -0.4979
  262MOL0     H34573   9.049   0.792   8.345  2.4450  2.7503 -1.9736
  262MOL0     H34574   9.261   0.885   8.362  2.1699 -0.2855 -1.6974
  262MOL0     H34575   9.129   1.003   8.321  1.4814 -0.0227  3.2492
  262MOL0     H34576   9.279   1.148   8.199 -1.0342  0.8960  0.0365
  262MOL0     H34577   9.339   1.129   8.367  1.2938 -2.6335  1.0208
  262MOL0     H34578   9.461   0.970   8.134  1.0516  0.7602  0.8215
  262MOL0     H34579   9.504   0.974   8.307 -2.7435  0.5962  1.4836
  262MOL0     H34580   9.548   1.202   8.303  0.8717  3.2732 -1.5798
  262MOL0     H34581   9.656   1.117   8.191 -0.4862 -0.2244 -0.5609
  262MOL0     H34582   9.482   1.344   7.908  0.2965  0.0938 -0.8035
  262MOL0     H34583   9.169   0.761   7.938 -1.7077 -0.4012 -1.0668
  262MOL0     H34584   8.993   0.608   7.892 -4.9006  3.3458 -0.0755
  263MOL0     O34585   6.947   6.649   0.150 -0.4718  0.0636  0.1806
  263MOL0     C34586   7.050   6.714   0.140 -0.3940  0.6940 -0.4707
  263MOL0     O34587   7.068   6.848   0.158  0.3024  0.1836  0.6837
  263MOL0     C34588   6.954   6.928   0.171  0.2218 -0.5717 -0.8990
  263MOL0     C34589   6.871   6.965   0.065 -0.1852  0.6342 -0.1934
  263MOL0     C34590   6.768   7.050   0.080 -0.0683 -0.0983  0.1510
  263MOL0     C34591   6.745   7.100   0.212  0.0591 -0.4933 -0.2450
  263MOL0     O34592   6.643   7.198   0.229 -0.2577  0.0062  0.5899
  263MOL0     C34593   6.581   7.276   0.119  1.0427  0.0377 -0.7262
  263MOL0     C34594   6.438   7.222   0.075 -0.5910  0.5611 -0.8709
  263MOL0     C34595   6.329   7.271   0.169 -0.5163  0.0424 -0.3231
  263MOL0     C34596   6.200   7.237   0.109 -0.3436  0.0989 -0.0264
  263MOL0     C34597   6.092   7.282   0.208 -0.4580  0.1817  0.0049
  263MOL0     C34598   5.960   7.233   0.170  0.0961 -0.1054  0.2750
  263MOL0     C34599   5.840   7.275   0.262 -0.5808 -0.9520 -0.1521
  263MOL0     C34600   5.708   7.231   0.207  0.3262  0.4721 -0.1177
  263MOL0     N34601   5.588   7.294   0.263 -0.3221  0.3870  0.5747
  263MOL0     C34602   5.526   7.288   0.378 -0.3351  0.7962 -0.4366
  263MOL0     C34603   5.406   7.356   0.374 -0.9070  0.1599  0.1145
  263MOL0     C34604   5.329   7.388   0.500  0.3797 -0.1179 -0.5427
  263MOL0     C34605   5.178   7.391   0.481  0.1997 -0.0537  0.2033
  263MOL0     C34606   5.135   7.249   0.437  0.0207  0.2897  0.3060
  263MOL0     C34607   4.996   7.243   0.361 -0.5828 -0.2422  0.2837
  263MOL0     O34608   4.898   7.335   0.413  0.1026 -0.2488  0.3951
  263MOL0     C34609   4.792   7.289   0.490  0.3649  0.2166 -0.0939
  263MOL0     C34610   4.803   7.228   0.615 -0.0571 -0.0747 -0.3988
  263MOL0     C34611   4.692   7.169   0.687 -0.1323  0.4207  0.3579
  263MOL0     C34612   4.565   7.191   0.639  0.0578  0.0654 -0.1088
  263MOL0     C34613   4.441   7.139   0.707  0.4823  0.4445  0.6148
  263MOL0     O34614   4.314   7.160   0.650  0.5741  0.2254 -0.0186
  263MOL0     C34615   4.198   7.118   0.718 -0.3381  0.5016 -0.1257
  263MOL0     C34616   4.184   7.118   0.865  0.1121 -0.0806  0.6443
  263MOL0     C34617   4.072   7.076   0.913  1.0359  0.3671 -0.9866
  263MOL0     C34618   3.969   7.013   0.842 -0.4760  0.5508 -0.5616
  263MOL0     O34619   3.849   6.965   0.899 -1.3309 -0.3350 -0.2371
  263MOL0     C34620   3.875   6.896   1.020  0.0230 -0.4850  0.9200
  263MOL0     C34621   3.748   6.827   1.068 -0.6716  0.4374 -0.8592
  263MOL0     C34622   3.779   6.712   1.170 -0.0292 -0.8349 -0.1799
  263MOL0     C34623   3.658   6.673   1.253 -0.1352 -0.0236  0.4987
  263MOL0     C34624   3.634   6.756   1.379  0.1770 -0.2884  0.2238
  263MOL0     C34625   3.489   6.741   1.405  0.1839 -0.4995 -0.4582
  263MOL0     C34626   3.447   6.825   1.533 -0.3899 -0.3605 -0.3754
  263MOL0     C34627   3.299   6.791   1.569 -0.1298  0.8453 -0.2419
  263MOL0    Cl34628   3.278   6.620   1.625  0.6571  0.0457 -0.0146
  263MOL0     C34629   3.976   7.025   0.702  0.8602  0.1048 -0.4697
  263MOL0     C34630   4.092   7.070   0.642 -0.0692  0.3436  0.1639
  263MOL0     O34631   4.461   7.086   0.811  0.3820 -0.2962 -0.0729
  263MOL0     C34632   4.549   7.255   0.514 -0.6593  0.5283  0.2427
  263MOL0     C34633   4.659   7.307   0.444  0.1360 -0.4028 -0.6996
  263MOL0     N34634   5.402   7.408   0.248 -0.9512 -0.3099  0.6917
  263MOL0     N34635   5.505   7.365   0.176  0.4742 -0.5568 -1.0347
  263MOL0     C34636   6.823   7.067   0.318 -0.1659  0.3597 -0.8446
  263MOL0     C34637   6.933   6.984   0.296 -0.8817  0.1814  0.2725
  263MOL0     C34638   7.170   6.636   0.120 -0.2434 -0.5888 -0.0522
  263MOL0     C34639   7.295   6.698   0.106 -1.1465  0.5850  0.1972
  263MOL0     C34640   7.418   6.623   0.091  0.1430 -0.1096 -0.6440
  263MOL0     C34641   7.418   6.488   0.081  0.7812  0.0303 -0.8167
  263MOL0     O34642   7.538   6.430   0.076  0.0807 -0.0950 -0.2752
  263MOL0     C34643   7.549   6.289   0.057 -0.3829 -0.2130  0.0336
  263MOL0     C34644   7.670   6.255  -0.026  0.3482  0.5475  0.0643
  263MOL0     C34645   7.807   6.312   0.005  0.3135  0.3351 -0.2152
  263MOL0     C34646   7.856   6.246   0.133 -0.4628  0.0547 -1.0680
  263MOL0     C34647   7.978   6.313   0.172 -0.1201 -0.0307 -0.0691
  263MOL0     C34648   8.084   6.371   0.196  0.5561 -0.0705  0.2807
  263MOL0     C34649   7.287   6.422   0.082 -0.3317  0.0574 -0.1843
  263MOL0     C34650   7.169   6.499   0.104  0.9080 -0.4176 -0.0608
  263MOL0     H34651   6.885   6.924  -0.034 -0.7072 -1.9438  0.7253
  263MOL0     H34652   6.687   7.065   0.009 -1.3847  0.3738  1.6854
  263MOL0     H34653   6.639   7.297   0.029 -2.7011  1.8011 -3.0272
  263MOL0     H34654   6.562   7.374   0.164 -0.2613  0.0548 -1.2600
  263MOL0     H34655   6.445   7.113   0.080 -1.0951  0.5872  1.2097
  263MOL0     H34656   6.407   7.244  -0.028  0.7314 -0.7116 -1.5897
  263MOL0     H34657   6.343   7.377   0.191 -0.0593 -0.7032  3.9036
  263MOL0     H34658   6.329   7.218   0.265 -2.3231 -0.8767 -0.7861
  263MOL0     H34659   6.197   7.281   0.009  2.7132 -0.1442 -0.3275
  263MOL0     H34660   6.192   7.128   0.097  0.0045  0.2357 -1.7888
  263MOL0     H34661   6.096   7.391   0.217  2.0425  0.0128  2.0882
  263MOL0     H34662   6.110   7.247   0.310 -1.2435  0.0835  0.1191
  263MOL0     H34663   5.956   7.124   0.169 -1.9954 -0.0933  1.6138
  263MOL0     H34664   5.940   7.267   0.068 -1.2513  4.0813  1.7015
  263MOL0     H34665   5.852   7.231   0.361 -1.5295  1.2072  0.9954
  263MOL0     H34666   5.843   7.384   0.266 -1.6365 -0.8820 -0.7817
  263MOL0     H34667   5.700   7.123   0.224 -1.3012  0.5385 -0.2800
  263MOL0     H34668   5.692   7.257   0.102 -3.4553  0.8000  0.4041
  263MOL0     H34669   5.564   7.246   0.471 -1.6925  0.6517  0.0740
  263MOL0     H34670   5.364   7.482   0.543  0.0878 -0.6718  0.9960
  263MOL0     H34671   5.348   7.306   0.570 -0.6544 -1.3664 -1.6740
  263MOL0     H34672   5.157   7.458   0.397 -1.7704 -1.3744 -0.4078
  263MOL0     H34673   5.124   7.428   0.569 -0.6711  1.2421 -0.8407
  263MOL0     H34674   5.203   7.215   0.359  0.6313 -0.6236  1.2194
  263MOL0     H34675   5.139   7.172   0.514  0.0234 -1.5025 -1.3998
  263MOL0     H34676   4.956   7.141   0.361 -0.0238 -0.5887 -3.3581
  263MOL0     H34677   5.018   7.275   0.259  0.0259 -1.0441  0.1531
  263MOL0     H34678   4.902   7.224   0.658 -0.9444  0.2371  1.8675
  263MOL0     H34679   4.717   7.119   0.780  0.2620  2.9419  1.6981
  263MOL0     H34680   4.259   7.151   0.935  0.4087 -3.1857  1.9514
  263MOL0     H34681   4.067   7.085   1.021  0.8100  0.8739 -1.0402
  263MOL0     H34682   3.905   6.965   1.100  2.8778 -1.6498  0.9730
  263MOL0     H34683   3.957   6.824   1.012  1.2068  0.6482  2.3737
  263MOL0     H34684   3.677   6.789   0.993 -0.4582  3.1661 -2.6039
  263MOL0     H34685   3.678   6.895   1.117 -0.0128 -0.9323  2.1597
  263MOL0     H34686   3.861   6.739   1.237  1.4178  3.7796 -3.3181
  263MOL0     H34687   3.800   6.629   1.103 -0.5136 -1.1587  0.0657
  263MOL0     H34688   3.577   6.681   1.180  0.7884 -0.1234 -0.5627
  263MOL0     H34689   3.667   6.570   1.288 -0.6362 -0.5689 -0.9117
  263MOL0     H34690   3.658   6.858   1.348  1.6377 -1.7623 -4.3978
  263MOL0     H34691   3.701   6.721   1.459  1.7548  1.7362 -0.1075
  263MOL0     H34692   3.470   6.635   1.427  1.2244 -0.3918  1.1208
  263MOL0     H34693   3.432   6.777   1.319 -1.3437 -2.3935 -0.3203
  263MOL0     H34694   3.510   6.799   1.619  1.8242 -0.0287 -1.8074
  263MOL0     H34695   3.460   6.932   1.516 -2.2626 -0.3239 -1.8203
  263MOL0     H34696   3.239   6.817   1.481  0.7358  0.4452 -0.9701
  263MOL0     H34697   3.271   6.853   1.655  1.4416  1.6719 -0.2832
  263MOL0     H34698   3.899   7.002   0.629 -0.7373 -1.0212  1.4821
  263MOL0     H34699   4.092   7.087   0.535 -4.5555 -2.9267 -0.6109
  263MOL0     H34700   4.458   7.258   0.455  0.7166 -0.0560 -2.0464
  263MOL0     H34701   4.646   7.341   0.342  1.3519  3.4905  0.2785
  263MOL0     H34702   6.820   7.113   0.416 -0.2435 -0.4792 -0.4489
  263MOL0     H34703   7.019   6.972   0.360  1.0318 -0.3030 -2.2301
  263MOL0     H34704   7.312   6.805   0.097 -2.5281  1.0099  2.0523
  263MOL0     H34705   7.510   6.679   0.077  0.7739 -1.7630 -4.2984
  263MOL0     H34706   7.458   6.248   0.011 -0.9972  1.3448 -0.2003
  263MOL0     H34707   7.567   6.249   0.157 -1.7355 -1.1914 -0.0719
  263MOL0     H34708   7.673   6.147  -0.041 -0.3625  0.5426 -0.0814
  263MOL0     H34709   7.641   6.292  -0.125 -0.6564 -0.3484  0.0092
  263MOL0     H34710   7.803   6.421   0.006  1.5785  0.4231  2.1521
  263MOL0     H34711   7.873   6.286  -0.079 -0.9728 -2.8286 -0.3833
  263MOL0     H34712   7.789   6.258   0.219  2.4302  1.9438  1.1137
  263MOL0     H34713   7.872   6.140   0.108  2.8803  0.7361 -2.2715
  263MOL0     H34714   8.174   6.421   0.224  0.7991  0.3881 -1.2174
  263MOL0     H34715   7.288   6.314   0.072  2.3744  0.1091 -1.6246
  263MOL0     H34716   7.080   6.439   0.119  0.0881  0.2130 -2.0753
  264MOL0     O34717   8.541  10.874   8.511 -0.2562  0.3529 -0.7587
  264MOL0     C34718   8.561  10.750   8.521 -0.6489 -0.3545  0.0899
  264MOL0     O34719   8.680  10.681   8.531 -0.1465 -0.4171 -0.1752
  264MOL0     C34720   8.795  10.748   8.514 -0.5749  0.7385  0.1512
  264MOL0     C34721   8.818  10.867   8.584 -0.5962  0.1362 -0.2282
  264MOL0     C34722   8.937  10.934   8.548 -0.6454  0.3150  0.3520
  264MOL0     C34723   9.014  10.876   8.438 -0.0425  0.2477  0.1395
  264MOL0     O34724   9.133  10.935   8.406  0.5856 -0.0211 -1.0186
  264MOL0     C34725   9.164  10.934   8.264  0.0861 -0.1244 -0.1160
  264MOL0     C34726   9.276  11.031   8.222 -0.9265 -0.0651  0.3057
  264MOL0     C34727   9.403  11.013   8.313  0.4888  0.3524  0.4183
  264MOL0     C34728   9.498  11.113   8.251  0.2034  0.8234 -0.6304
  264MOL0     C34729   9.630  11.123   8.321  0.0391 -0.2287 -0.7446
  264MOL0     C34730   9.715  11.221   8.241  0.4366 -0.1954 -0.3014
  264MOL0     C34731   9.863  11.212   8.271  0.2495  0.0643  0.6846
  264MOL0     C34732   9.932  11.335   8.201 -0.2845  0.1969  0.5420
  264MOL0     N34733  10.083  11.338   8.195 -0.5149  0.3768 -0.1047
  264MOL0     C34734  10.181  11.251   8.252  0.2249  0.0809 -0.1998
  264MOL0     C34735  10.300  11.309   8.211 -0.6681  0.6664 -0.4824
  264MOL0     C34736  10.440  11.252   8.221 -0.1273 -0.8529  0.3131
  264MOL0     C34737  10.442  11.110   8.169  0.9385 -0.2632  0.8436
  264MOL0     C34738  10.431  11.121   8.017  0.4561  0.3070 -0.5076
  264MOL0     C34739  10.433  10.986   7.959  0.3305  0.3668 -0.4186
  264MOL0     O34740  10.421  10.998   7.816 -0.6486  0.7104  0.3544
  264MOL0     C34741  10.535  11.040   7.751 -0.5836 -0.5187  0.3207
  264MOL0     C34742  10.666  11.058   7.791 -0.1713 -0.1540 -0.5838
  264MOL0     C34743  10.763  11.100   7.698 -0.0705 -0.4434  0.2861
  264MOL0     C34744  10.742  11.121   7.569  0.1321 -0.4275 -1.0059
  264MOL0     C34745  10.848  11.158   7.473  0.7504  0.2021  1.2392
  264MOL0     O34746  10.977  11.146   7.508 -0.2705 -0.9497 -0.3247
  264MOL0     C34747  11.088  11.212   7.448  0.7412  0.2480 -0.4150
  264MOL0     C34748  11.089  11.307   7.352  0.2906  0.7007 -0.3201
  264MOL0     C34749  11.209  11.362   7.307  0.4483  0.6806 -0.1280
  264MOL0     C34750  11.333  11.310   7.356 -0.2079 -0.2856  0.7648
  264MOL0     O34751  11.443  11.362   7.294 -0.0953  0.0252 -0.4213
  264MOL0     C34752  11.576  11.296   7.303  0.2292  0.3128  0.4862
  264MOL0     C34753  11.674  11.389   7.215 -0.7963  0.8015 -0.4333
  264MOL0     C34754  11.828  11.348   7.213  0.4201 -1.0084 -0.4471
  264MOL0     C34755  11.902  11.425   7.100  0.8546  0.4488  0.1119
  264MOL0     C34756  12.043  11.391   7.106 -0.1604  0.0928 -0.4979
  264MOL0     C34757  12.132  11.473   7.009  0.3171 -0.0853  0.7782
  264MOL0     C34758  12.108  11.444   6.866  0.4935  0.4746 -0.3947
  264MOL0     C34759  12.221  11.483   6.787  0.0777  0.3271  0.1072
  264MOL0    Cl34760  12.254  11.663   6.811 -0.2679  0.3330  0.2922
  264MOL0     C34761  11.331  11.229   7.469 -0.2973 -0.6803  0.5840
  264MOL0     C34762  11.208  11.173   7.508  0.8500  0.2526 -1.0510
  264MOL0     O34763  10.813  11.195   7.353 -0.5240 -0.2859 -0.5646
  264MOL0     C34764  10.606  11.098   7.526  0.8409  0.2681 -1.0853
  264MOL0     C34765  10.509  11.063   7.615  0.5014  0.0473 -0.2391
  264MOL0     N34766  10.275  11.433   8.157  0.6197  0.2443 -0.5907
  264MOL0     N34767  10.152  11.442   8.132  0.5239 -0.0071 -0.5437
  264MOL0     C34768   8.987  10.759   8.382  0.0437  0.3500  0.3899
  264MOL0     C34769   8.870  10.694   8.413  0.0569  0.7711  0.4732
  264MOL0     C34770   8.437  10.668   8.534  0.4190 -0.5082  1.0548
  264MOL0     C34771   8.313  10.721   8.493  0.6703  0.1128 -0.4100
  264MOL0     C34772   8.197  10.653   8.516 -0.7422  0.1717  0.3115
  264MOL0     C34773   8.190  10.531   8.585 -0.1205  0.0006 -0.5216
  264MOL0     O34774   8.074  10.475   8.591  0.8957  0.0344  0.1850
  264MOL0     C34775   8.046  10.397   8.708  0.8275 -0.0014  0.3439
  264MOL0     C34776   7.900  10.402   8.724 -0.7589 -0.3015  0.9197
  264MOL0     C34777   7.852  10.310   8.838  0.0109 -0.0955 -0.1414
  264MOL0     C34778   7.915  10.333   8.972 -0.2466 -0.5340  0.0093
  264MOL0     C34779   7.933  10.470   9.011  0.8803 -0.1267 -0.3872
  264MOL0     C34780   7.955  10.584   9.045  0.1633  0.0800 -0.1436
  264MOL0     C34781   8.313  10.481   8.637 -0.8374  0.6250  0.9420
  264MOL0     C34782   8.438  10.539   8.600 -0.5691 -0.5187  2.0871
  264MOL0     H34783   8.749  10.911   8.654 -4.2463 -1.3242 -2.6281
  264MOL0     H34784   8.959  11.033   8.588  2.8625  0.1478 -0.8009
  264MOL0     H34785   9.080  10.957   8.198  1.0754  3.3827 -0.3274
  264MOL0     H34786   9.204  10.834   8.244  1.7406  0.6454 -0.8137
  264MOL0     H34787   9.239  11.134   8.224  2.2879  1.1761  1.9911
  264MOL0     H34788   9.316  10.998   8.126  0.9844 -0.3046  1.1413
  264MOL0     H34789   9.437  10.910   8.325 -0.4867  0.2358  2.5951
  264MOL0     H34790   9.373  11.049   8.411  0.9616 -1.9527  1.4714
  264MOL0     H34791   9.509  11.083   8.146 -0.5533  2.1724 -1.1263
  264MOL0     H34792   9.454  11.213   8.244 -2.2660 -0.0896  0.5836
  264MOL0     H34793   9.673  11.022   8.318  1.0087  0.1270  0.3387
  264MOL0     H34794   9.615  11.155   8.424 -0.5097  3.5616 -1.8515
  264MOL0     H34795   9.685  11.322   8.268  2.0718  0.8571 -2.1661
  264MOL0     H34796   9.699  11.214   8.133 -0.6960 -0.7215 -0.1092
  264MOL0     H34797   9.880  11.233   8.377  2.9906  2.3549 -0.0884
  264MOL0     H34798   9.909  11.124   8.225  0.6388  0.7113 -0.1964
  264MOL0     H34799   9.912  11.427   8.257  2.2435  0.6484  0.8322
  264MOL0     H34800   9.897  11.342   8.097  0.1977 -2.8116  0.0868
  264MOL0     H34801  10.158  11.150   8.283  0.7756 -1.0929 -3.3321
  264MOL0     H34802  10.471  11.268   8.325 -0.9637 -0.7333  0.5521
  264MOL0     H34803  10.509  11.314   8.162  2.0313 -0.2348  3.2242
  264MOL0     H34804  10.355  11.055   8.206  2.1896 -3.4637 -0.6333
  264MOL0     H34805  10.518  11.041   8.207 -2.6547 -4.4718  1.1382
  264MOL0     H34806  10.334  11.168   7.995  0.3711 -0.4734 -1.9874
  264MOL0     H34807  10.516  11.174   7.973  1.0732 -0.8259 -0.7031
  264MOL0     H34808  10.342  10.937   7.993 -2.3283  4.5576 -0.7546
  264MOL0     H34809  10.520  10.928   7.991 -0.3526  0.1926  1.2158
  264MOL0     H34810  10.690  11.056   7.897  0.1788 -1.1301 -0.6703
  264MOL0     H34811  10.861  11.133   7.731  0.9507 -1.6647 -1.3774
  264MOL0     H34812  11.007  11.343   7.291  2.5898  2.7317 -2.4521
  264MOL0     H34813  11.198  11.437   7.229  2.9970  0.2659 -0.9816
  264MOL0     H34814  11.571  11.189   7.282  2.7759  0.7924 -3.5601
  264MOL0     H34815  11.608  11.299   7.408 -0.1665  0.4937  0.6053
  264MOL0     H34816  11.667  11.488   7.260 -0.0138 -0.5865  3.0810
  264MOL0     H34817  11.635  11.383   7.112 -1.4815  1.2697 -0.2107
  264MOL0     H34818  11.829  11.242   7.185 -2.3582 -2.1635  2.9747
  264MOL0     H34819  11.863  11.367   7.315 -0.3799 -0.4510 -0.2684
  264MOL0     H34820  11.869  11.376   7.008  0.9402 -0.0789  0.3626
  264MOL0     H34821  11.870  11.529   7.111 -2.3565 -0.3968 -0.2326
  264MOL0     H34822  12.066  11.287   7.080  1.5303  0.4935 -0.6991
  264MOL0     H34823  12.078  11.409   7.208  1.5080  0.4678 -1.1048
  264MOL0     H34824  12.238  11.462   7.034  0.6986  0.9774 -0.2498
  264MOL0     H34825  12.114  11.580   7.022 -2.0023 -0.4821  1.1717
  264MOL0     H34826  12.084  11.338   6.855  0.5916  0.3960  0.1240
  264MOL0     H34827  12.021  11.499   6.827  0.9983  0.4705 -1.5789
  264MOL0     H34828  12.197  11.456   6.683  0.9729 -2.1272  0.4887
  264MOL0     H34829  12.311  11.429   6.815 -0.7844 -1.1590  0.1371
  264MOL0     H34830  11.423  11.200   7.518  0.4248 -1.1841 -1.0188
  264MOL0     H34831  11.207  11.103   7.592 -0.3162  2.8919  1.2843
  264MOL0     H34832  10.588  11.097   7.419 -1.1134 -0.7102 -0.7895
  264MOL0     H34833  10.407  11.045   7.582  0.2424  1.3209 -0.1848
  264MOL0     H34834   9.046  10.704   8.309 -2.4450 -0.7448 -0.9154
  264MOL0     H34835   8.849  10.599   8.365  3.0365  0.5857 -0.7120
  264MOL0     H34836   8.308  10.817   8.443 -0.2787 -0.0446 -0.6306
  264MOL0     H34837   8.106  10.699   8.478 -0.0565  1.4054  0.1264
  264MOL0     H34838   8.090  10.444   8.796  0.0740  2.0656 -0.3168
  264MOL0     H34839   8.069  10.293   8.686 -1.7093  0.0503 -3.6729
  264MOL0     H34840   7.873  10.503   8.754  1.5854  0.4281  0.7313
  264MOL0     H34841   7.849  10.373   8.632  2.3657  0.6896 -1.2533
  264MOL0     H34842   7.863  10.207   8.803 -1.1082  0.3531 -1.9906
  264MOL0     H34843   7.748  10.339   8.860  0.5793  1.0302  1.1732
  264MOL0     H34844   7.844  10.288   9.042  0.2154 -3.2977 -1.1678
  264MOL0     H34845   8.006  10.271   8.971 -0.0657 -0.3162  1.2621
  264MOL0     H34846   7.967  10.690   9.056  2.5630 -0.1613 -0.0489
  264MOL0     H34847   8.319  10.392   8.698  0.7777 -0.6841 -1.0077
  264MOL0     H34848   8.536  10.506   8.632  0.2186  1.3613  1.7623
  265MOL0     O34849   7.967   4.198   3.400  0.0121  0.2680  0.2449
  265MOL0     C34850   7.994   4.291   3.477 -0.4969 -0.3730 -0.0588
  265MOL0     O34851   7.915   4.402   3.505 -0.1850 -0.6689 -0.2860
  265MOL0     C34852   7.791   4.406   3.442 -0.4143 -0.1203  0.4512
  265MOL0     C34853   7.786   4.444   3.311 -0.2436  0.1676  0.3794
  265MOL0     C34854   7.661   4.448   3.235 -0.9342 -0.6062 -0.2119
  265MOL0     C34855   7.543   4.412   3.303  0.5199  0.0192 -0.7061
  265MOL0     O34856   7.418   4.417   3.223 -0.4317  1.1653 -0.5832
  265MOL0     C34857   7.300   4.447   3.303 -0.4100  0.4830 -0.2224
  265MOL0     C34858   7.178   4.429   3.214  0.3273  0.0265  0.0771
  265MOL0     C34859   7.177   4.510   3.077 -0.2203  0.7272  0.6519
  265MOL0     C34860   7.244   4.656   3.084  0.2611  0.6945  0.1679
  265MOL0     C34861   7.233   4.718   2.944  0.0761 -0.0390  0.7776
  265MOL0     C34862   7.308   4.850   2.949  0.8727  0.1685  1.2491
  265MOL0     C34863   7.225   4.959   3.014  0.3196  0.6012 -0.0326
  265MOL0     C34864   7.259   5.104   2.975  0.5432 -0.5519 -0.1676
  265MOL0     N34865   7.176   5.155   2.865  0.0962 -0.2291  0.1629
  265MOL0     C34866   7.199   5.136   2.736 -0.1401  0.0568  0.2707
  265MOL0     C34867   7.101   5.201   2.669 -0.4578  0.2927 -1.2581
  265MOL0     C34868   7.067   5.208   2.524 -1.6556 -0.2775  0.2782
  265MOL0     C34869   7.015   5.094   2.436 -0.0686  0.5611 -0.0965
  265MOL0     C34870   6.914   5.003   2.508  0.3105  0.2821 -0.4159
  265MOL0     C34871   6.789   5.082   2.557  0.4770 -0.5169  0.3003
  265MOL0     O34872   6.694   4.984   2.595 -0.5118  0.2780 -0.8044
  265MOL0     C34873   6.567   5.029   2.615  0.4738 -0.6011 -0.4643
  265MOL0     C34874   6.538   5.161   2.655  0.3817  0.0597 -0.8683
  265MOL0     C34875   6.404   5.207   2.658  0.4558 -0.0974 -0.4123
  265MOL0     C34876   6.296   5.117   2.643  0.0780  0.6215 -1.1769
  265MOL0     C34877   6.148   5.170   2.640  0.5199  0.9626 -0.6336
  265MOL0     O34878   6.059   5.081   2.580 -0.0850  0.1807 -0.1685
  265MOL0     C34879   5.924   5.104   2.576  1.0122 -0.2288  0.0902
  265MOL0     C34880   5.844   5.004   2.629  0.7679 -0.2412  0.4357
  265MOL0     C34881   5.703   5.009   2.629  0.2325 -0.7851 -0.1982
  265MOL0     C34882   5.650   5.129   2.581 -1.0118 -0.8894  0.9207
  265MOL0     O34883   5.523   5.151   2.590  0.1844 -0.0527 -0.6407
  265MOL0     C34884   5.439   5.070   2.501  0.7285 -0.2119 -0.2678
  265MOL0     C34885   5.306   5.146   2.482  0.1350 -0.4356 -0.1109
  265MOL0     C34886   5.229   5.154   2.611 -0.3570  0.5550 -0.6717
  265MOL0     C34887   5.096   5.239   2.601 -0.5409 -0.1403 -0.6892
  265MOL0     C34888   5.001   5.187   2.495 -0.2187  0.0711 -0.0611
  265MOL0     C34889   4.856   5.253   2.497 -0.4354 -0.0425  0.3751
  265MOL0     C34890   4.758   5.151   2.422 -0.1384 -0.5255  0.6025
  265MOL0     C34891   4.619   5.174   2.472 -0.0132  0.8888  0.7261
  265MOL0    Cl34892   4.512   5.048   2.406 -0.0868 -0.1812 -0.2015
  265MOL0     C34893   5.730   5.230   2.534  0.1928 -0.6600  0.1909
  265MOL0     C34894   5.863   5.220   2.516  0.0088  0.7608 -0.4892
  265MOL0     O34895   6.122   5.283   2.679  0.0002  0.3095  0.0261
  265MOL0     C34896   6.327   4.984   2.621  0.1955  0.2375 -0.4101
  265MOL0     C34897   6.464   4.938   2.604 -0.1026 -0.2501  0.1596
  265MOL0     N34898   7.005   5.241   2.753  1.1192  0.6565 -0.6558
  265MOL0     N34899   7.045   5.212   2.875 -0.4134  0.1460 -0.2931
  265MOL0     C34900   7.558   4.375   3.441  0.2841 -0.3350  1.0171
  265MOL0     C34901   7.681   4.368   3.509  0.0426 -0.4566 -0.6482
  265MOL0     C34902   8.132   4.277   3.538 -0.5277 -0.3463 -0.3810
  265MOL0     C34903   8.176   4.372   3.630  0.5524 -0.8085  0.4214
  265MOL0     C34904   8.293   4.354   3.689 -0.3585 -0.4933 -0.2829
  265MOL0     C34905   8.377   4.246   3.662  0.7012 -0.9668  0.2040
  265MOL0     O34906   8.491   4.249   3.728 -0.1712 -0.2595 -0.1100
  265MOL0     C34907   8.606   4.197   3.652 -0.4199 -0.3974 -0.1072
  265MOL0     C34908   8.738   4.267   3.686  0.8239 -0.8612  0.2880
  265MOL0     C34909   8.736   4.411   3.647  0.4826 -0.2742  0.0737
  265MOL0     C34910   8.860   4.477   3.650  0.5680  0.1472  0.4040
  265MOL0     C34911   8.909   4.497   3.788  0.4963 -0.6065  0.4697
  265MOL0     C34912   8.934   4.525   3.900  0.0407  0.5761 -0.0897
  265MOL0     C34913   8.332   4.152   3.569  0.4537 -0.0438  1.0955
  265MOL0     C34914   8.211   4.168   3.498  0.2792  0.0029 -0.5015
  265MOL0     H34915   7.875   4.445   3.249 -0.4946  0.2543  0.0170
  265MOL0     H34916   7.656   4.465   3.128  1.0175  1.4667 -0.0674
  265MOL0     H34917   7.291   4.554   3.326 -1.6360  0.2668  0.3497
  265MOL0     H34918   7.283   4.384   3.390 -1.6216  2.7677  1.3034
  265MOL0     H34919   7.096   4.444   3.284  0.4242 -1.1841  0.4787
  265MOL0     H34920   7.175   4.322   3.189 -3.6806  0.4292 -1.9545
  265MOL0     H34921   7.072   4.514   3.045  0.1640 -0.8277 -1.0054
  265MOL0     H34922   7.240   4.460   3.003 -1.1027  0.6112 -0.0468
  265MOL0     H34923   7.191   4.725   3.151  1.1728 -0.2739  1.9532
  265MOL0     H34924   7.346   4.649   3.123  0.9408 -3.6514 -1.8704
  265MOL0     H34925   7.136   4.734   2.896  0.5745  0.8355  0.0121
  265MOL0     H34926   7.292   4.651   2.881 -0.2654  0.3643  0.0086
  265MOL0     H34927   7.330   4.879   2.846  0.6489  0.1676  1.2009
  265MOL0     H34928   7.408   4.836   2.992  1.5024  1.3654  0.2441
  265MOL0     H34929   7.120   4.929   3.000  0.5066 -1.2086  1.8975
  265MOL0     H34930   7.237   4.952   3.122 -1.8182  0.4720  0.2545
  265MOL0     H34931   7.366   5.106   2.952  1.2940 -3.6828  2.3864
  265MOL0     H34932   7.237   5.162   3.065  2.8360 -1.0783  0.8023
  265MOL0     H34933   7.284   5.087   2.691 -0.4740 -0.7546  0.5153
  265MOL0     H34934   7.161   5.230   2.473 -1.2516  1.6216  1.7040
  265MOL0     H34935   7.004   5.295   2.501 -2.0633 -0.7543 -0.4211
  265MOL0     H34936   7.106   5.035   2.421 -0.1966  0.5932 -1.0266
  265MOL0     H34937   6.980   5.137   2.342  0.6500  0.8796 -0.2303
  265MOL0     H34938   6.889   4.919   2.443 -1.1701 -0.6894  1.3316
  265MOL0     H34939   6.953   4.950   2.595  0.3455  0.3345 -0.3994
  265MOL0     H34940   6.757   5.139   2.469 -0.5278 -0.9400  0.3807
  265MOL0     H34941   6.806   5.151   2.640  1.0415 -0.2061 -0.0681
  265MOL0     H34942   6.617   5.234   2.665  1.6248 -1.3336 -0.2085
  265MOL0     H34943   6.382   5.312   2.674 -0.9266 -0.2579 -1.0543
  265MOL0     H34944   5.885   4.921   2.685  0.7661  0.3502  1.3449
  265MOL0     H34945   5.633   4.943   2.679 -0.1525 -1.0528 -1.0748
  265MOL0     H34946   5.411   4.970   2.535 -0.5972  0.0591 -0.5018
  265MOL0     H34947   5.480   5.067   2.400 -1.3705  1.5876 -1.2708
  265MOL0     H34948   5.246   5.107   2.399  0.3291  0.4607 -0.6916
  265MOL0     H34949   5.340   5.246   2.453  0.3214 -0.9181 -1.6347
  265MOL0     H34950   5.294   5.211   2.677 -1.8603  1.9437 -0.3304
  265MOL0     H34951   5.209   5.056   2.655  1.0931 -0.0400 -1.2918
  265MOL0     H34952   5.037   5.234   2.693 -0.1667  0.8984 -0.3728
  265MOL0     H34953   5.114   5.345   2.579 -0.9152  0.2235  0.6567
  265MOL0     H34954   4.997   5.079   2.512 -1.6087  0.1399  0.1524
  265MOL0     H34955   5.042   5.203   2.395  3.1318 -1.7608  0.8795
  265MOL0     H34956   4.855   5.347   2.441 -2.8189  0.5046  1.1984
  265MOL0     H34957   4.823   5.262   2.601  1.2711  0.4999  0.9025
  265MOL0     H34958   4.765   5.150   2.313  2.8577 -0.0307  0.6940
  265MOL0     H34959   4.783   5.046   2.443 -0.9713 -0.2830  3.0984
  265MOL0     H34960   4.575   5.263   2.426 -0.1212 -0.2417 -1.5140
  265MOL0     H34961   4.604   5.165   2.580 -2.5523 -0.4840  0.3585
  265MOL0     H34962   5.693   5.327   2.504  0.0513 -0.3688  1.2532
  265MOL0     H34963   5.931   5.293   2.473  2.6253 -0.5705  1.0864
  265MOL0     H34964   6.245   4.913   2.618  0.3214  0.0861 -0.2693
  265MOL0     H34965   6.502   4.841   2.574 -1.4315 -0.0650 -2.3488
  265MOL0     H34966   7.476   4.340   3.503  1.2401 -1.1459  1.8684
  265MOL0     H34967   7.699   4.329   3.609  0.9770 -1.1779 -1.0757
  265MOL0     H34968   8.116   4.461   3.646  1.3921 -0.3809  1.3519
  265MOL0     H34969   8.323   4.418   3.771 -3.7319 -2.1526  2.5203
  265MOL0     H34970   8.596   4.203   3.543  1.5905  3.1037 -0.2566
  265MOL0     H34971   8.624   4.092   3.677  1.7990 -0.0930 -0.2869
  265MOL0     H34972   8.781   4.265   3.787  2.9697 -1.3952 -0.5886
  265MOL0     H34973   8.822   4.225   3.631 -0.2480  1.8847 -3.9411
  265MOL0     H34974   8.666   4.470   3.706  1.5631  0.4040  0.7172
  265MOL0     H34975   8.697   4.401   3.545 -1.2686 -0.4389  0.7316
  265MOL0     H34976   8.939   4.431   3.590 -2.7249 -1.3342 -3.2253
  265MOL0     H34977   8.836   4.575   3.608  0.0148  0.8195  2.1850
  265MOL0     H34978   8.964   4.559   3.997 -0.2883  0.9186 -0.1057
  265MOL0     H34979   8.389   4.060   3.554 -2.6432 -1.9277 -0.2566
  265MOL0     H34980   8.183   4.100   3.418  0.9488 -0.1322 -0.6243
  266MOL0     O34981  10.474   2.755   8.517  0.1515 -0.3988  0.1713
  266MOL0     C34982  10.523   2.862   8.555 -0.3543  0.3124 -0.5710
  266MOL0     O34983  10.456   2.981   8.571  0.2912  0.6272 -0.4490
  266MOL0     C34984  10.327   2.993   8.544  0.3590  0.1120  0.6948
  266MOL0     C34985  10.224   2.908   8.580  0.3837 -0.5286 -0.0550
  266MOL0     C34986  10.087   2.944   8.558 -0.0698  0.6545  0.3734
  266MOL0     C34987  10.055   3.059   8.486  0.2008  0.1725 -0.0304
  266MOL0     O34988   9.929   3.082   8.440  0.1729 -0.0314 -0.1131
  266MOL0     C34989   9.902   3.182   8.343 -0.0796  0.2864  0.9044
  266MOL0     C34990   9.752   3.169   8.289 -0.4610 -0.7766  0.7792
  266MOL0     C34991   9.660   3.203   8.409  1.0276  0.0112  0.3246
  266MOL0     C34992   9.506   3.212   8.391 -0.1604 -0.4903 -0.2642
  266MOL0     C34993   9.436   3.187   8.524  0.1254 -0.5332 -0.3117
  266MOL0     C34994   9.423   3.320   8.603 -0.0107 -0.6912  0.2521
  266MOL0     C34995   9.320   3.323   8.713 -0.0148 -0.1247 -0.3363
  266MOL0     C34996   9.187   3.339   8.646  0.3669 -0.3843 -1.0911
  266MOL0     N34997   9.092   3.315   8.756  0.5195 -1.0567  0.2172
  266MOL0     C34998   9.055   3.193   8.807  0.3768  0.3663 -0.2881
  266MOL0     C34999   8.965   3.219   8.911  0.7565 -0.5226 -0.9047
  266MOL0     C35000   8.888   3.122   9.003  0.8121 -0.3259  0.0839
  266MOL0     C35001   8.743   3.104   8.950 -0.6647  0.2111  0.5396
  266MOL0     C35002   8.666   3.003   9.030  0.3250  0.3555  0.0754
  266MOL0     C35003   8.524   2.992   8.971  1.2446 -0.7650  0.6280
  266MOL0     O35004   8.447   3.105   9.001 -0.0455  0.0595  0.0668
  266MOL0     C35005   8.313   3.078   8.995  0.5908  1.0695 -0.8095
  266MOL0     C35006   8.253   2.965   8.931 -0.6651  0.4388 -0.4128
  266MOL0     C35007   8.123   2.937   8.955 -0.5056  0.3527 -0.1386
  266MOL0     C35008   8.041   3.021   9.042  0.4100  0.5256  0.2321
  266MOL0     C35009   7.898   2.987   9.075  0.1785  0.0839  0.7100
  266MOL0     O35010   7.847   3.030   9.193  0.0868 -0.3468  0.9344
  266MOL0     C35011   7.734   2.980   9.228 -0.4414  0.1069 -0.3116
  266MOL0     C35012   7.624   3.057   9.203  0.3571 -0.2629  0.7747
  266MOL0     C35013   7.502   3.019   9.262  0.9748  0.7604 -0.5089
  266MOL0     C35014   7.491   2.907   9.346  0.6577 -0.5619  1.2420
  266MOL0     O35015   7.363   2.878   9.401 -0.1618 -0.9367  0.5017
  266MOL0     C35016   7.346   2.951   9.517 -0.3385  0.2529  0.3328
  266MOL0     C35017   7.191   2.941   9.562 -0.8081  0.1907 -0.6594
  266MOL0     C35018   7.168   2.990   9.699  0.0807 -0.9328 -0.7060
  266MOL0     C35019   7.011   3.002   9.729  0.4652 -0.0984  0.4719
  266MOL0     C35020   6.975   3.100   9.835  0.3272 -0.3263 -0.0582
  266MOL0     C35021   6.826   3.116   9.847  0.5834  0.5393  0.5901
  266MOL0     C35022   6.770   3.000   9.934  0.1426 -0.5463  0.8936
  266MOL0     C35023   6.628   3.026   9.963 -0.6461  0.0276  0.3649
  266MOL0    Cl35024   6.594   3.180  10.055  0.1877 -0.5873 -0.3074
  266MOL0     C35025   7.605   2.826   9.364  0.3252  0.2324 -0.1544
  266MOL0     C35026   7.728   2.868   9.311  0.0571  0.0389 -0.1377
  266MOL0     O35027   7.840   2.909   8.993  0.8211  0.0828 -0.0061
  266MOL0     C35028   8.096   3.137   9.092 -0.1662  0.5222  0.0300
  266MOL0     C35029   8.234   3.162   9.067  0.2442  0.3144 -0.2146
  266MOL0     N35030   8.944   3.360   8.909  0.6124  0.1164 -0.0765
  266MOL0     N35031   9.016   3.419   8.811 -0.3746 -0.0701  0.3994
  266MOL0     C35032  10.157   3.141   8.463 -0.0923 -0.1014 -0.2451
  266MOL0     C35033  10.288   3.115   8.487 -1.0955  0.8086 -0.1184
  266MOL0     C35034  10.660   2.858   8.610  0.4146 -0.0075 -0.3466
  266MOL0     C35035  10.743   2.745   8.620  0.1799  0.4598  0.0703
  266MOL0     C35036  10.879   2.760   8.665  0.3011  0.1506 -0.0498
  266MOL0     C35037  10.931   2.874   8.716 -0.3256 -0.5444 -0.9405
  266MOL0     O35038  11.057   2.868   8.768 -0.5159 -0.5176 -0.4829
  266MOL0     C35039  11.105   2.999   8.816  0.0701 -0.1958  1.4283
  266MOL0     C35040  11.232   2.999   8.891  0.8211  1.3206  0.3269
  266MOL0     C35041  11.257   2.868   8.973 -0.0623 -0.1836 -0.6832
  266MOL0     C35042  11.389   2.876   9.042 -0.5535 -0.0445  0.8013
  266MOL0     C35043  11.502   2.804   8.974 -0.8327 -0.0046  0.1697
  266MOL0     C35044  11.577   2.723   8.916 -0.3249  0.5520 -0.1489
  266MOL0     C35045  10.849   2.989   8.702  0.4129  0.1740 -0.4197
  266MOL0     C35046  10.720   2.984   8.646  0.6078  0.4710  0.2530
  266MOL0     H35047  10.246   2.820   8.639 -0.5697 -0.7520 -0.0135
  266MOL0     H35048  10.009   2.872   8.580 -0.9586  1.6862  0.7019
  266MOL0     H35049   9.977   3.184   8.264 -1.6751 -2.2130 -0.8281
  266MOL0     H35050   9.903   3.277   8.397 -1.4414  1.6430 -1.2821
  266MOL0     H35051   9.735   3.063   8.267  2.3952 -1.1217 -0.0765
  266MOL0     H35052   9.732   3.225   8.197  1.0453  0.0016  0.8950
  266MOL0     H35053   9.700   3.295   8.453  0.1253  0.8806 -0.6167
  266MOL0     H35054   9.688   3.119   8.472  3.0237  0.4517  0.0938
  266MOL0     H35055   9.492   3.313   8.352  2.4013  0.5951  1.3810
  266MOL0     H35056   9.470   3.146   8.311 -2.0611 -1.4593  1.2887
  266MOL0     H35057   9.497   3.120   8.586 -2.3245 -2.6962 -0.0583
  266MOL0     H35058   9.346   3.126   8.512  0.1168 -0.5280 -0.2709
  266MOL0     H35059   9.391   3.384   8.520  2.2192 -2.6473 -2.2972
  266MOL0     H35060   9.523   3.353   8.634 -0.5177  2.1492 -0.8628
  266MOL0     H35061   9.316   3.225   8.762 -1.4755  0.7187  1.3321
  266MOL0     H35062   9.344   3.401   8.785 -0.9117  2.0358 -2.2751
  266MOL0     H35063   9.172   3.265   8.568  1.0613 -1.1182 -0.5403
  266MOL0     H35064   9.188   3.445   8.617  0.2709  0.1187  0.6017
  266MOL0     H35065   9.073   3.094   8.766 -0.3531  0.1666 -0.1398
  266MOL0     H35066   8.875   3.170   9.101  0.5521  1.3166 -0.7204
  266MOL0     H35067   8.933   3.024   9.017 -0.9657 -1.1910  0.0246
  266MOL0     H35068   8.743   3.073   8.845  0.0105  0.9022  0.3259
  266MOL0     H35069   8.691   3.201   8.945  2.6551  2.1176 -3.8962
  266MOL0     H35070   8.713   2.904   9.023  0.6165  0.5831 -1.5314
  266MOL0     H35071   8.669   3.033   9.135  1.9756 -1.4417  0.5975
  266MOL0     H35072   8.482   2.903   9.019 -0.7753  0.2079  0.7304
  266MOL0     H35073   8.535   2.980   8.863  0.5732  0.2208  0.4491
  266MOL0     H35074   8.315   2.897   8.873 -2.4121  1.1350 -3.2749
  266MOL0     H35075   8.070   2.849   8.919 -0.5359  0.4036 -0.2187
  266MOL0     H35076   7.629   3.147   9.142  2.4186  0.4474  1.8947
  266MOL0     H35077   7.406   3.057   9.229  0.5807  0.8917  0.7371
  266MOL0     H35078   7.377   3.054   9.495  0.1053 -0.4316 -2.6903
  266MOL0     H35079   7.395   2.905   9.603 -1.5421 -2.7718 -0.4903
  266MOL0     H35080   7.156   2.838   9.550 -1.8013 -0.1237  3.4716
  266MOL0     H35081   7.123   2.998   9.498 -0.4314  0.6278 -0.6784
  266MOL0     H35082   7.219   3.085   9.718  1.2715 -1.5975 -0.4292
  266MOL0     H35083   7.212   2.921   9.772 -2.2928 -2.1227 -0.3022
  266MOL0     H35084   6.957   3.032   9.639  1.3663  3.4785  0.9421
  266MOL0     H35085   6.972   2.904   9.757  1.8274 -1.6035 -2.5314
  266MOL0     H35086   7.018   3.198   9.814  0.2602  1.0605  4.9576
  266MOL0     H35087   7.026   3.052   9.918 -0.7637 -0.1224  0.7588
  266MOL0     H35088   6.781   3.108   9.748 -1.5681  1.3955  1.4426
  266MOL0     H35089   6.799   3.209   9.898  0.1868  1.1294 -0.6583
  266MOL0     H35090   6.767   2.903   9.883  0.4841  0.1335 -0.4771
  266MOL0     H35091   6.828   2.979  10.025  1.6202 -1.9204 -0.3037
  266MOL0     H35092   6.587   2.944  10.023  2.3997 -2.5740 -0.8400
  266MOL0     H35093   6.578   3.038   9.867 -0.3966 -0.1525  0.2138
  266MOL0     H35094   7.599   2.747   9.439 -1.0987 -0.3769 -0.8745
  266MOL0     H35095   7.815   2.812   9.344 -1.2630 -2.3675 -0.4835
  266MOL0     H35096   8.035   3.189   9.165  2.6372  0.7822  2.4003
  266MOL0     H35097   8.284   3.251   9.105  0.8093 -0.5252  1.0643
  266MOL0     H35098  10.147   3.228   8.399  1.4555  0.4052  0.1597
  266MOL0     H35099  10.350   3.197   8.450 -1.4688  1.4496  0.6416
  266MOL0     H35100  10.698   2.655   8.578 -0.8417  1.6645 -1.5234
  266MOL0     H35101  10.948   2.677   8.657 -0.0718 -0.6062  3.2242
  266MOL0     H35102  11.026   3.059   8.863 -0.2464  0.0847  0.5621
  266MOL0     H35103  11.123   3.066   8.731  1.4672 -2.8053 -0.4530
  266MOL0     H35104  11.307   2.986   8.812 -0.5152 -1.9148 -0.5309
  266MOL0     H35105  11.247   3.086   8.956 -2.6360  1.0223  1.7259
  266MOL0     H35106  11.246   2.781   8.907 -1.6158  1.5962 -2.9290
  266MOL0     H35107  11.171   2.864   9.041  0.0927 -0.5975 -0.5088
  266MOL0     H35108  11.420   2.979   9.059  0.0381  0.0140 -0.5658
  266MOL0     H35109  11.381   2.826   9.139  0.5641  0.6202  1.2530
  266MOL0     H35110  11.647   2.654   8.874 -1.5846 -1.0343  0.2369
  266MOL0     H35111  10.876   3.086   8.743 -0.8926  0.5269 -0.3781
  266MOL0     H35112  10.660   3.074   8.655 -0.2236 -0.0696  0.2779
  267MOL0     O35113   5.910   5.972   6.750 -0.1319  0.3670  0.2925
  267MOL0     C35114   5.862   6.009   6.644 -0.4123  0.6336  0.4482
  267MOL0     O35115   5.737   5.979   6.588  0.3681  0.4243 -0.0044
  267MOL0     C35116   5.650   5.918   6.670  0.4281  0.3542 -0.4374
  267MOL0     C35117   5.597   5.983   6.781  0.7011  0.0386 -0.4678
  267MOL0     C35118   5.512   5.928   6.879  0.2661  0.2983  0.1970
  267MOL0     C35119   5.470   5.798   6.854  0.1745  0.3734 -0.2068
  267MOL0     O35120   5.374   5.752   6.937 -0.1657 -0.1624 -0.2963
  267MOL0     C35121   5.309   5.631   6.903 -0.0840 -0.1460  0.3820
  267MOL0     C35122   5.184   5.664   6.816 -0.1003  0.0176 -0.4122
  267MOL0     C35123   5.089   5.542   6.779  0.6480  0.4980  0.0251
  267MOL0     C35124   5.045   5.452   6.903 -0.1300 -0.4104  0.3396
  267MOL0     C35125   4.951   5.339   6.869  0.0542 -0.2067  0.0129
  267MOL0     C35126   4.881   5.283   6.990  0.7577 -0.0531  0.4215
  267MOL0     C35127   4.775   5.171   6.946  0.5130  0.7297  0.7536
  267MOL0     C35128   4.844   5.043   6.892  0.0579  0.3819  0.3084
  267MOL0     N35129   4.762   4.917   6.897 -0.0936 -0.1542  0.2814
  267MOL0     C35130   4.695   4.867   6.789  0.7007  0.3940  1.0846
  267MOL0     C35131   4.680   4.735   6.825 -0.2950 -0.3195  0.9694
  267MOL0     C35132   4.627   4.624   6.743  1.0698 -0.9829 -0.1268
  267MOL0     C35133   4.499   4.689   6.678  0.6352 -1.0106  0.8553
  267MOL0     C35134   4.423   4.586   6.591 -0.0073 -1.1224 -0.0399
  267MOL0     C35135   4.303   4.640   6.517  0.6430 -0.5514 -0.0368
  267MOL0     O35136   4.250   4.536   6.428  0.2409  0.2318 -0.3737
  267MOL0     C35137   4.120   4.503   6.448  0.2648 -0.1178 -0.1051
  267MOL0     C35138   4.012   4.577   6.395 -0.0741  0.0210  0.9838
  267MOL0     C35139   3.886   4.539   6.427  0.4526  0.1767 -0.5817
  267MOL0     C35140   3.859   4.423   6.502  0.1207  0.9921  0.0257
  267MOL0     C35141   3.725   4.369   6.527 -0.2300 -0.0624  0.5870
  267MOL0     O35142   3.632   4.449   6.474 -0.0964 -0.2769  0.4764
  267MOL0     C35143   3.505   4.405   6.484 -0.5681 -0.6768  0.2843
  267MOL0     C35144   3.461   4.312   6.393  0.7689  0.5305  0.4261
  267MOL0     C35145   3.326   4.269   6.396  0.5228 -0.6854  0.9347
  267MOL0     C35146   3.231   4.321   6.491 -0.7413  0.5218 -0.5314
  267MOL0     O35147   3.095   4.289   6.491 -0.1963  0.6316 -0.6025
  267MOL0     C35148   3.019   4.247   6.374  0.0868 -0.2840  0.5872
  267MOL0     C35149   2.870   4.236   6.398  0.5841  0.5748  0.1252
  267MOL0     C35150   2.792   4.247   6.274  0.0243 -0.9154 -0.2088
  267MOL0     C35151   2.640   4.230   6.297 -0.4092 -0.9802 -0.1104
  267MOL0     C35152   2.562   4.237   6.165 -0.3075  0.3706  0.2936
  267MOL0     C35153   2.413   4.215   6.168  0.3055 -0.4959  0.4736
  267MOL0     C35154   2.363   4.084   6.220 -0.3929  0.7211  1.8826
  267MOL0     C35155   2.208   4.060   6.188 -0.3520 -0.0615 -0.0515
  267MOL0    Cl35156   2.173   3.929   6.317  0.2451 -0.1526 -0.2305
  267MOL0     C35157   3.283   4.405   6.585  0.1880 -0.1216 -1.1985
  267MOL0     C35158   3.423   4.446   6.591  0.1199  0.5434 -0.3070
  267MOL0     O35159   3.708   4.261   6.571 -0.2397  0.1149 -0.1417
  267MOL0     C35160   3.969   4.348   6.546  0.4323 -0.0476 -0.0371
  267MOL0     C35161   4.101   4.381   6.517  0.2985 -0.6869  0.4532
  267MOL0     N35162   4.729   4.706   6.953 -0.2722 -0.3840 -0.0928
  267MOL0     N35163   4.776   4.822   6.991 -0.6285 -0.2305  0.3199
  267MOL0     C35164   5.524   5.732   6.737 -1.8279  0.0231  0.5027
  267MOL0     C35165   5.612   5.788   6.649 -0.7355 -0.3372  0.3685
  267MOL0     C35166   5.953   6.085   6.559  0.3485 -0.2902  0.2102
  267MOL0     C35167   5.910   6.138   6.436  1.0750 -0.6039 -0.4081
  267MOL0     C35168   5.990   6.232   6.369 -0.0762  0.5622 -0.1220
  267MOL0     C35169   6.118   6.259   6.416 -0.1109 -0.0281  0.2334
  267MOL0     O35170   6.185   6.351   6.339 -0.4148  0.1142  0.5189
  267MOL0     C35171   6.325   6.369   6.361 -0.5967  0.1850  0.3783
  267MOL0     C35172   6.378   6.459   6.248  0.4532 -0.4363  1.0167
  267MOL0     C35173   6.503   6.531   6.280  0.1657 -0.4623 -0.2254
  267MOL0     C35174   6.488   6.642   6.382 -0.3712  0.0893 -0.1042
  267MOL0     C35175   6.399   6.750   6.338 -0.0111  0.0564 -0.0806
  267MOL0     C35176   6.315   6.817   6.285  1.3307  0.0036 -0.5965
  267MOL0     C35177   6.163   6.204   6.540 -0.3615 -0.2097 -0.3282
  267MOL0     C35178   6.088   6.110   6.603 -0.2382 -0.1577  0.2482
  267MOL0     H35179   5.633   6.082   6.807  1.1086 -0.4721  0.9831
  267MOL0     H35180   5.469   5.985   6.961 -1.8949 -1.2041  0.1726
  267MOL0     H35181   5.276   5.577   6.992 -1.2961  1.0483  0.6886
  267MOL0     H35182   5.376   5.574   6.838  0.0950  2.3452 -1.7984
  267MOL0     H35183   5.207   5.716   6.723 -1.9291 -1.3315 -1.7059
  267MOL0     H35184   5.125   5.739   6.870 -0.7362  1.1532 -2.5614
  267MOL0     H35185   5.142   5.473   6.713  2.3380  1.3689  0.4050
  267MOL0     H35186   5.004   5.589   6.730  0.6046  0.2334 -0.1542
  267MOL0     H35187   5.133   5.419   6.961  0.0146 -2.4722 -0.9559
  267MOL0     H35188   4.982   5.525   6.954  0.6663  1.4727 -1.2795
  267MOL0     H35189   5.017   5.267   6.821  0.7271  1.6746 -2.0325
  267MOL0     H35190   4.882   5.383   6.796  0.7504  3.0377  1.1541
  267MOL0     H35191   4.831   5.368   7.038 -0.4878 -0.1480 -0.6443
  267MOL0     H35192   4.954   5.245   7.062  1.0680 -1.0814 -0.4045
  267MOL0     H35193   4.708   5.144   7.028  0.5393  2.5076  1.4114
  267MOL0     H35194   4.721   5.210   6.860  2.8362  1.0250 -0.6588
  267MOL0     H35195   4.943   5.021   6.935  0.3580 -0.2478 -0.6617
  267MOL0     H35196   4.859   5.069   6.787 -3.0421  2.9985  0.3481
  267MOL0     H35197   4.666   4.921   6.700 -0.0526 -2.0284 -0.2540
  267MOL0     H35198   4.600   4.539   6.807 -0.7765  0.1404  0.6790
  267MOL0     H35199   4.696   4.597   6.663 -0.3926 -2.2248 -1.0163
  267MOL0     H35200   4.522   4.774   6.614 -2.8534  0.6949  1.5965
  267MOL0     H35201   4.431   4.725   6.757 -0.3402 -0.5874 -0.1459
  267MOL0     H35202   4.496   4.548   6.519  3.8157  0.1079  2.8235
  267MOL0     H35203   4.381   4.502   6.648 -2.9100  1.2664  1.6237
  267MOL0     H35204   4.338   4.723   6.455  0.4722  2.8469  4.0510
  267MOL0     H35205   4.221   4.682   6.575 -0.7823 -2.6559 -0.4119
  267MOL0     H35206   4.030   4.666   6.335  2.6566 -1.7498 -1.1353
  267MOL0     H35207   3.797   4.575   6.377 -0.1380  0.9935  0.9926
  267MOL0     H35208   3.536   4.272   6.326  2.8615  2.4786  1.4611
  267MOL0     H35209   3.289   4.192   6.329 -0.5079  1.6119 -1.3132
  267MOL0     H35210   3.063   4.155   6.334 -2.5248 -1.8679  1.1439
  267MOL0     H35211   3.050   4.309   6.290  3.2786  0.1261  1.8951
  267MOL0     H35212   2.835   4.318   6.461  0.6080  1.9855 -1.6475
  267MOL0     H35213   2.841   4.146   6.453 -1.3428 -0.5605 -2.5658
  267MOL0     H35214   2.835   4.167   6.211  0.0456  1.0096 -2.8122
  267MOL0     H35215   2.822   4.340   6.225 -0.3879 -0.7638 -0.1672
  267MOL0     H35216   2.621   4.127   6.328  2.9462 -1.3552  1.0300
  267MOL0     H35217   2.584   4.296   6.365 -0.4116  2.0004 -2.7712
  267MOL0     H35218   2.604   4.155   6.107 -0.6144 -0.3528  1.0617
  267MOL0     H35219   2.586   4.332   6.118 -0.6480  0.2190 -0.1896
  267MOL0     H35220   2.375   4.227   6.066  0.3788 -1.1658  0.3571
  267MOL0     H35221   2.387   4.304   6.225 -0.3744  0.3657 -1.1306
  267MOL0     H35222   2.419   4.010   6.162 -3.1930  1.3377 -2.0467
  267MOL0     H35223   2.393   4.082   6.325  1.7408 -1.9861  1.3406
  267MOL0     H35224   2.191   4.019   6.088 -0.4038 -1.4172  0.4804
  267MOL0     H35225   2.148   4.151   6.196 -0.6473 -0.3632  1.3851
  267MOL0     H35226   3.221   4.460   6.655  1.4034  1.5197 -1.3222
  267MOL0     H35227   3.461   4.515   6.666 -1.7291  1.0282  0.2376
  267MOL0     H35228   3.949   4.262   6.610 -1.2523 -1.0592 -1.8331
  267MOL0     H35229   4.188   4.320   6.541  0.8670  0.6593  1.9657
  267MOL0     H35230   5.506   5.628   6.709  0.7167 -0.3067 -0.1651
  267MOL0     H35231   5.641   5.725   6.565  2.5846 -1.3844  2.1413
  267MOL0     H35232   5.811   6.119   6.398  0.3186 -0.1250  1.2383
  267MOL0     H35233   5.961   6.279   6.276  0.1757  1.5798  0.2992
  267MOL0     H35234   6.368   6.268   6.360 -0.8476  0.0816  0.0572
  267MOL0     H35235   6.331   6.414   6.461  2.1998 -0.0758  0.3999
  267MOL0     H35236   6.394   6.403   6.155 -2.7253  1.6921 -0.9955
  267MOL0     H35237   6.307   6.538   6.222  0.3878 -1.5592 -2.9419
  267MOL0     H35238   6.544   6.578   6.190  2.9185  0.0480  1.1853
  267MOL0     H35239   6.575   6.460   6.322 -0.2792 -1.3918 -0.9902
  267MOL0     H35240   6.446   6.608   6.476 -2.5151 -0.8419 -1.3334
  267MOL0     H35241   6.586   6.688   6.400 -1.0796  1.4316  0.4952
  267MOL0     H35242   6.234   6.872   6.242  0.1134 -1.6896 -0.5967
  267MOL0     H35243   6.262   6.215   6.583 -0.2417  1.5292 -0.9565
  267MOL0     H35244   6.134   6.078   6.696  1.7502 -2.2155 -1.3278
  268MOL0     O35245   5.872   8.622  10.471 -0.7048  0.5087 -0.1726
  268MOL0     C35246   5.871   8.524  10.544 -1.0519 -0.9373  0.2767
  268MOL0     O35247   5.762   8.439  10.569 -0.0058 -0.3510 -1.0502
  268MOL0     C35248   5.636   8.430  10.517 -0.5033 -0.5038 -0.4137
  268MOL0     C35249   5.549   8.320  10.547 -0.7728 -0.3323 -0.2633
  268MOL0     C35250   5.420   8.307  10.503 -0.2775  0.3726  0.9593
  268MOL0     C35251   5.373   8.404  10.416 -0.2544  0.1987 -0.1874
  268MOL0     O35252   5.253   8.408  10.350 -0.1442  0.3838  0.1416
  268MOL0     C35253   5.194   8.280  10.328  0.7239  0.6693  0.4597
  268MOL0     C35254   5.051   8.275  10.381 -0.1711 -1.3624 -0.6851
  268MOL0     C35255   4.966   8.159  10.332  0.0357  0.4029  0.0958
  268MOL0     C35256   4.830   8.206  10.271 -0.2578 -0.7231 -0.0601
  268MOL0     C35257   4.739   8.077  10.284 -0.2763 -0.2420 -0.7353
  268MOL0     C35258   4.609   8.085  10.206  0.3737 -0.0222 -0.1354
  268MOL0     C35259   4.542   7.947  10.181  0.1781 -0.2608  0.1923
  268MOL0     C35260   4.402   7.969  10.118 -0.2952 -0.1073 -0.7327
  268MOL0     N35261   4.326   7.849  10.084  0.7372 -0.3012 -0.2857
  268MOL0     C35262   4.225   7.848   9.988 -0.1401 -0.3398  0.1671
  268MOL0     C35263   4.179   7.721   9.975  0.3790  0.3963  0.7714
  268MOL0     C35264   4.085   7.677   9.866  0.1474  0.6457 -0.3756
  268MOL0     C35265   3.954   7.622   9.912  0.1710  0.9425 -0.3512
  268MOL0     C35266   3.864   7.581   9.790  0.0087  0.2112  0.0264
  268MOL0     C35267   3.720   7.540   9.828  0.0304 -0.4436  0.6591
  268MOL0     O35268   3.645   7.512   9.713 -0.3419  0.8733 -0.0347
  268MOL0     C35269   3.512   7.472   9.715 -0.5077  0.1898 -0.0677
  268MOL0     C35270   3.439   7.469   9.833  0.6640 -0.0562  0.1746
  268MOL0     C35271   3.306   7.414   9.834  0.2268  0.2943  0.3168
  268MOL0     C35272   3.244   7.375   9.711  0.8980  0.5239  1.0127
  268MOL0     C35273   3.115   7.308   9.713  0.0755  0.3717  0.2458
  268MOL0     O35274   3.061   7.270   9.597 -0.2309  0.0028 -0.0653
  268MOL0     C35275   2.937   7.219   9.593 -0.5196  0.9576 -0.2125
  268MOL0     C35276   2.925   7.075   9.614  0.3454 -0.4533 -0.2151
  268MOL0     C35277   2.804   7.015   9.596  0.4491 -0.5590 -1.0908
  268MOL0     C35278   2.693   7.089   9.558  0.6791  0.4370  0.7392
  268MOL0     O35279   2.565   7.030   9.539  0.3924 -0.3270 -0.1333
  268MOL0     C35280   2.551   6.887   9.566 -0.4434 -0.3121  0.1894
  268MOL0     C35281   2.407   6.839   9.526 -0.0742  1.2681  0.2454
  268MOL0     C35282   2.297   6.904   9.603 -0.6079  0.1871  0.3130
  268MOL0     C35283   2.159   6.854   9.551 -0.9578 -0.5927 -0.0692
  268MOL0     C35284   2.049   6.954   9.590 -0.3004  0.2165 -1.2180
  268MOL0     C35285   1.914   6.918   9.530  1.0171  0.1033 -0.4673
  268MOL0     C35286   1.798   7.009   9.578 -0.2676  1.1130 -0.0308
  268MOL0     C35287   1.659   6.945   9.548  0.0018  0.4339  0.4226
  268MOL0    Cl35288   1.528   7.049   9.604  0.3535  0.0332 -0.0063
  268MOL0     C35289   2.703   7.233   9.558 -0.5417  0.6879 -0.2643
  268MOL0     C35290   2.824   7.298   9.565  0.0195 -0.3445 -0.4190
  268MOL0     O35291   3.077   7.276   9.829 -0.2834  0.1999 -0.3168
  268MOL0     C35292   3.314   7.394   9.597  0.4106 -0.2752 -0.1054
  268MOL0     C35293   3.447   7.436   9.593 -0.0469  0.4377  0.0329
  268MOL0     N35294   4.241   7.645  10.072  0.8535 -0.1105  0.6406
  268MOL0     N35295   4.319   7.727  10.136 -0.3303 -0.0966  0.5645
  268MOL0     C35296   5.458   8.506  10.371  0.2080  0.6690  0.1442
  268MOL0     C35297   5.586   8.526  10.429  0.4564  0.7035 -0.0619
  268MOL0     C35298   5.987   8.507  10.628  0.2445  0.3012  0.7112
  268MOL0     C35299   5.976   8.430  10.746 -0.0873  0.6392  0.5889
  268MOL0     C35300   6.089   8.408  10.824  0.0165 -0.2796 -0.0887
  268MOL0     C35301   6.214   8.468  10.794  0.0626  0.1549  0.3186
  268MOL0     O35302   6.327   8.442  10.865  0.4768  0.2583 -0.8141
  268MOL0     C35303   6.308   8.414  11.004 -0.8582  0.5319  0.2112
  268MOL0     C35304   6.428   8.445  11.099  0.7821 -0.9507  0.0936
  268MOL0     C35305   6.463   8.591  11.077 -0.7618  0.9590  0.4774
  268MOL0     C35306   6.446   8.675  11.198  0.7087  0.8033  0.0373
  268MOL0     C35307   6.551   8.669  11.301 -0.3955 -0.3594  0.1042
  268MOL0     C35308   6.653   8.664  11.363 -0.3123  0.7940  0.5699
  268MOL0     C35309   6.214   8.542  10.673 -0.0547  0.2704  0.5526
  268MOL0     C35310   6.106   8.563  10.598 -0.7435  0.2221  0.3644
  268MOL0     H35311   5.589   8.245  10.615 -0.4218  0.7817  0.7844
  268MOL0     H35312   5.354   8.239  10.554  0.5430 -0.0882  1.4295
  268MOL0     H35313   5.256   8.198  10.365  0.2610 -0.5323 -1.2871
  268MOL0     H35314   5.182   8.270  10.219  1.1877 -0.3795  0.4958
  268MOL0     H35315   5.001   8.369  10.355 -1.4332 -2.0292 -0.6995
  268MOL0     H35316   5.067   8.274  10.489  0.3772 -0.1375 -0.7297
  268MOL0     H35317   4.945   8.100  10.421 -0.3482  1.0306  0.4245
  268MOL0     H35318   5.014   8.106  10.248  0.0372 -0.9682  0.9276
  268MOL0     H35319   4.787   8.289  10.329  1.5079  1.1096 -1.2243
  268MOL0     H35320   4.849   8.244  10.171  1.3264 -1.1027  0.0663
  268MOL0     H35321   4.728   8.063  10.391  4.1984 -0.4339 -0.0796
  268MOL0     H35322   4.790   7.988  10.246 -0.4746 -0.6422 -0.0708
  268MOL0     H35323   4.628   8.132  10.109 -0.8323  0.1692 -0.3051
  268MOL0     H35324   4.548   8.155  10.264  1.7238 -0.5424  2.0189
  268MOL0     H35325   4.611   7.893  10.116  0.3372  1.3643 -1.0514
  268MOL0     H35326   4.525   7.899  10.278 -0.6831 -1.7665 -0.6628
  268MOL0     H35327   4.415   8.018  10.021  0.5768  1.5336  0.1630
  268MOL0     H35328   4.336   8.024  10.187  2.5516  0.5328  1.6637
  268MOL0     H35329   4.200   7.929   9.920  0.5135  1.6767  2.1864
  268MOL0     H35330   4.142   7.604   9.807 -0.6689 -1.3269  1.1907
  268MOL0     H35331   4.052   7.760   9.802  0.2704 -0.8925 -2.5609
  268MOL0     H35332   3.902   7.689   9.980 -1.7949 -2.0066  1.3121
  268MOL0     H35333   3.965   7.533   9.975 -0.5419  0.4180 -0.9426
  268MOL0     H35334   3.870   7.657   9.712 -0.0153  1.5151  1.2457
  268MOL0     H35335   3.910   7.488   9.753 -2.6502 -1.2662  0.1613
  268MOL0     H35336   3.669   7.626   9.872 -1.3280 -0.1185 -1.4100
  268MOL0     H35337   3.722   7.458   9.901  0.0602 -0.7651  0.2984
  268MOL0     H35338   3.476   7.483   9.934 -1.3211 -2.1488  1.2676
  268MOL0     H35339   3.252   7.401   9.927 -4.6101 -3.2928 -2.5333
  268MOL0     H35340   3.009   7.012   9.643 -0.9639 -1.0351  2.7176
  268MOL0     H35341   2.803   6.910   9.625  1.6525 -0.6185 -1.2261
  268MOL0     H35342   2.568   6.854   9.669  3.0620  1.5796  0.3752
  268MOL0     H35343   2.630   6.840   9.506 -1.0666 -0.1784 -0.7611
  268MOL0     H35344   2.409   6.732   9.549 -0.0696  1.2844  0.3231
  268MOL0     H35345   2.390   6.859   9.420  0.1224 -2.0000 -0.4926
  268MOL0     H35346   2.304   7.012   9.585  0.9242 -0.3949 -3.6325
  268MOL0     H35347   2.291   6.889   9.711 -1.0222  1.5707  0.5078
  268MOL0     H35348   2.163   6.850   9.442 -2.0481 -1.6627 -0.0768
  268MOL0     H35349   2.154   6.751   9.586 -1.3152  0.0136  1.7735
  268MOL0     H35350   2.076   7.041   9.529 -1.6538  0.1172 -1.9949
  268MOL0     H35351   2.040   6.980   9.695  0.3746  0.6808 -1.2692
  268MOL0     H35352   1.899   6.816   9.566  2.7016 -0.3655 -1.0137
  268MOL0     H35353   1.912   6.923   9.421 -0.7314  0.4690 -0.4576
  268MOL0     H35354   1.810   7.012   9.687  1.4640 -1.5937 -0.0485
  268MOL0     H35355   1.806   7.113   9.544 -2.1407  1.2073 -0.3019
  268MOL0     H35356   1.651   6.850   9.601  1.7638 -0.2047 -0.3724
  268MOL0     H35357   1.645   6.938   9.439 -1.8417 -1.0564  0.7015
  268MOL0     H35358   2.618   7.296   9.537 -2.0623 -1.0592  0.4250
  268MOL0     H35359   2.833   7.406   9.561  0.1308 -0.3650 -0.7532
  268MOL0     H35360   3.270   7.353   9.507 -0.8894 -1.3266  0.9614
  268MOL0     H35361   3.509   7.436   9.504  0.2701  0.0342  0.2440
  268MOL0     H35362   5.420   8.577  10.298  1.1793 -1.2207 -2.3421
  268MOL0     H35363   5.639   8.612  10.392  3.7750  0.4837  3.4889
  268MOL0     H35364   5.883   8.381  10.769 -0.3042  0.1251 -1.2379
  268MOL0     H35365   6.079   8.343  10.911 -1.1887  0.4607  0.3642
  268MOL0     H35366   6.282   8.308  11.011 -1.2847  0.5688 -0.6506
  268MOL0     H35367   6.217   8.467  11.034 -1.5799 -0.1005 -0.7587
  268MOL0     H35368   6.403   8.411  11.199 -0.8563  0.1155  0.0893
  268MOL0     H35369   6.516   8.385  11.076  1.7054  1.1509 -2.2830
  268MOL0     H35370   6.409   8.636  10.993 -1.6158 -2.2821 -0.8729
  268MOL0     H35371   6.564   8.586  11.036 -0.8990  1.6090  0.0414
  268MOL0     H35372   6.454   8.774  11.151  1.4943 -0.4250 -2.6170
  268MOL0     H35373   6.343   8.664  11.235 -0.1925  0.4743 -2.3797
  268MOL0     H35374   6.740   8.657  11.426 -0.1830 -0.9198  0.2552
  268MOL0     H35375   6.311   8.581  10.642  0.2473 -2.2379 -2.0501
  268MOL0     H35376   6.134   8.615  10.507 -0.5700 -2.7786 -1.4591
  269MOL0     O35377   6.474   3.825   3.000 -0.1837 -0.0879  0.6990
  269MOL0     C35378   6.488   3.881   2.886  0.6280  0.4383  0.2502
  269MOL0     O35379   6.413   3.851   2.774 -0.8229 -0.5322 -0.1266
  269MOL0     C35380   6.292   3.784   2.797  0.3384  0.6104 -0.5628
  269MOL0     C35381   6.269   3.653   2.760 -0.0767 -0.5386 -0.6992
  269MOL0     C35382   6.145   3.596   2.766  0.0881  0.3929 -0.3192
  269MOL0     C35383   6.041   3.681   2.800  0.8369  0.8197  0.2242
  269MOL0     O35384   5.925   3.605   2.784 -0.2053  0.2066 -0.2574
  269MOL0     C35385   5.805   3.652   2.849  1.4216 -0.9278  0.8691
  269MOL0     C35386   5.722   3.738   2.756  0.4754 -0.6167 -0.0056
  269MOL0     C35387   5.570   3.720   2.781 -0.2085 -0.1266  0.3381
  269MOL0     C35388   5.496   3.836   2.721 -1.2237  0.9876  0.6151
  269MOL0     C35389   5.344   3.820   2.729  0.1071  0.7558 -0.6250
  269MOL0     C35390   5.292   3.697   2.651 -0.0078  0.0891 -0.7709
  269MOL0     C35391   5.138   3.686   2.662  0.3043  0.4464 -0.0208
  269MOL0     C35392   5.069   3.799   2.594 -0.8391 -0.0981 -0.8202
  269MOL0     N35393   4.924   3.777   2.572 -0.1153 -0.3814 -0.2930
  269MOL0     C35394   4.847   3.863   2.508 -0.4070  0.2446  0.1180
  269MOL0     C35395   4.737   3.795   2.462 -0.5608 -0.9711  0.2663
  269MOL0     C35396   4.622   3.859   2.382  0.0206 -0.3140 -0.2067
  269MOL0     C35397   4.581   3.992   2.430 -0.2434 -0.4464  0.1196
  269MOL0     C35398   4.473   4.055   2.346 -0.3735  0.6180  0.1787
  269MOL0     C35399   4.328   4.012   2.384 -0.4708 -0.1298 -0.2737
  269MOL0     O35400   4.239   4.075   2.295  0.6621  0.2960  0.1688
  269MOL0     C35401   4.105   4.048   2.323  0.6522 -0.3768 -0.1960
  269MOL0     C35402   4.046   3.980   2.425 -0.2589  0.7390  0.6109
  269MOL0     C35403   3.909   3.956   2.428 -0.3885  0.0332 -0.0619
  269MOL0     C35404   3.823   4.005   2.326  0.1871 -0.9019  0.5792
  269MOL0     C35405   3.675   3.968   2.315 -0.6399 -0.9680 -0.6248
  269MOL0     O35406   3.616   3.997   2.200  0.9022 -0.3736  0.8778
  269MOL0     C35407   3.486   3.979   2.204 -1.1493 -0.2166  0.6602
  269MOL0     C35408   3.402   4.082   2.179  0.1727 -0.0061 -0.3343
  269MOL0     C35409   3.260   4.069   2.182  0.1042  0.9518  0.0419
  269MOL0     C35410   3.206   3.942   2.223 -0.2810 -0.2327  0.8641
  269MOL0     O35411   3.071   3.934   2.254 -0.1122 -0.2951  0.5364
  269MOL0     C35412   3.021   4.018   2.363 -0.0437 -0.0414  0.5397
  269MOL0     C35413   2.893   3.964   2.428  0.1901  0.0114 -0.6919
  269MOL0     C35414   2.774   4.019   2.355  0.4050  0.1332  0.2824
  269MOL0     C35415   2.645   4.010   2.432 -0.1943  0.1477 -0.0577
  269MOL0     C35416   2.540   4.105   2.376  0.0850  0.2901 -0.3746
  269MOL0     C35417   2.399   4.066   2.430  0.3058  0.7331  0.2712
  269MOL0     C35418   2.303   4.150   2.360 -0.2570 -0.0888  0.0783
  269MOL0     C35419   2.161   4.150   2.419  0.1520  0.5310 -0.2542
  269MOL0    Cl35420   2.090   3.987   2.428  0.0531  0.3411 -0.0850
  269MOL0     C35421   3.292   3.833   2.238 -0.2938 -0.0650  0.0760
  269MOL0     C35422   3.429   3.848   2.220  0.2365 -0.2411 -0.6935
  269MOL0     O35423   3.623   3.936   2.418 -0.0490 -0.4438 -0.2341
  269MOL0     C35424   3.882   4.074   2.216  0.0018  0.6041  0.9913
  269MOL0     C35425   4.019   4.099   2.225 -0.4247 -0.3923  0.3367
  269MOL0     N35426   4.751   3.666   2.508  0.9773  0.0543 -0.5702
  269MOL0     N35427   4.859   3.656   2.590  0.2315 -0.1535 -0.2900
  269MOL0     C35428   6.057   3.814   2.840  0.0310  0.6666 -0.2365
  269MOL0     C35429   6.190   3.864   2.835  0.3078  0.2295 -0.6519
  269MOL0     C35430   6.587   3.990   2.885 -0.3160 -0.0302  0.2135
  269MOL0     C35431   6.634   4.057   2.771  0.2816 -0.2184  0.7901
  269MOL0     C35432   6.719   4.169   2.784  0.0653 -0.7509 -0.7734
  269MOL0     C35433   6.761   4.214   2.909 -0.5404  0.3252 -0.1338
  269MOL0     O35434   6.859   4.302   2.914  0.2531 -0.0033  0.1999
  269MOL0     C35435   6.999   4.258   2.897  0.2717  0.5652  0.0938
  269MOL0     C35436   7.037   4.211   2.755  1.6784  0.0198  0.1502
  269MOL0     C35437   7.187   4.233   2.726 -0.1238  0.5157  0.8540
  269MOL0     C35438   7.236   4.212   2.581  0.3890  0.2172  0.2217
  269MOL0     C35439   7.371   4.270   2.571  0.3200  0.0252 -0.2881
  269MOL0     C35440   7.480   4.317   2.551  0.5748 -0.1391 -0.2042
  269MOL0     C35441   6.728   4.146   3.021 -0.6625 -0.0008  0.4072
  269MOL0     C35442   6.650   4.030   3.006  0.0949 -1.1217  0.6629
  269MOL0     H35443   6.359   3.600   2.733  0.8166 -1.2951  3.1206
  269MOL0     H35444   6.108   3.496   2.747 -0.4523  0.3446  0.8709
  269MOL0     H35445   5.825   3.705   2.943  1.0764  1.2768 -0.2347
  269MOL0     H35446   5.740   3.567   2.869 -1.3076  1.4725  3.0128
  269MOL0     H35447   5.751   3.698   2.658 -0.6795 -1.3805 -0.0627
  269MOL0     H35448   5.750   3.843   2.767  0.5345 -0.6838  0.5059
  269MOL0     H35449   5.558   3.721   2.889 -1.3297  1.7861  0.2396
  269MOL0     H35450   5.545   3.624   2.735 -3.4214  0.8117 -0.1469
  269MOL0     H35451   5.528   3.923   2.780  0.7459 -0.0063  1.0976
  269MOL0     H35452   5.532   3.845   2.619  2.1017 -0.4050  1.5434
  269MOL0     H35453   5.294   3.912   2.699 -2.8508 -0.3642  0.5209
  269MOL0     H35454   5.326   3.818   2.837  3.0146 -0.6887 -0.0585
  269MOL0     H35455   5.335   3.615   2.709  1.6264  2.7614  2.1225
  269MOL0     H35456   5.329   3.704   2.548  0.0104  1.9914 -0.6706
  269MOL0     H35457   5.121   3.594   2.605  0.6151  0.1772  0.3159
  269MOL0     H35458   5.106   3.680   2.766  0.4868 -3.6268 -0.0123
  269MOL0     H35459   5.099   3.814   2.490 -0.4122  1.2209 -0.5221
  269MOL0     H35460   5.083   3.897   2.640 -3.6092  0.8289 -1.7673
  269MOL0     H35461   4.866   3.965   2.475  1.6849 -0.7722 -2.1736
  269MOL0     H35462   4.539   3.789   2.398  1.6015 -1.9798  1.1659
  269MOL0     H35463   4.643   3.857   2.275 -0.3738 -1.8078 -0.2800
  269MOL0     H35464   4.664   4.064   2.431 -3.4999  3.7086  0.9023
  269MOL0     H35465   4.550   3.980   2.534  2.5518 -0.6135  1.0004
  269MOL0     H35466   4.497   4.156   2.381  3.5448  0.3236 -1.1773
  269MOL0     H35467   4.487   4.043   2.239 -0.6581  0.3208  0.1716
  269MOL0     H35468   4.297   4.062   2.477  0.1807  0.1607 -0.2017
  269MOL0     H35469   4.320   3.903   2.383 -1.0328 -0.0829 -1.0883
  269MOL0     H35470   4.107   3.931   2.501 -0.3682  0.2238  0.3751
  269MOL0     H35471   3.870   3.898   2.511 -1.2469 -1.5695 -1.5060
  269MOL0     H35472   3.452   4.178   2.174 -2.6134  1.6414  0.7421
  269MOL0     H35473   3.194   4.147   2.147  1.1224  2.2761  0.9938
  269MOL0     H35474   3.006   4.117   2.319  1.6543 -0.6493 -1.6031
  269MOL0     H35475   3.093   4.033   2.443  0.0066 -3.5286  1.3020
  269MOL0     H35476   2.882   3.991   2.533  0.1399 -0.0265 -0.6875
  269MOL0     H35477   2.905   3.855   2.426  1.3350 -0.2502  4.8158
  269MOL0     H35478   2.770   3.956   2.266  0.7469 -0.4953  0.6988
  269MOL0     H35479   2.788   4.122   2.323 -3.3507  1.5982  2.6156
  269MOL0     H35480   2.601   3.911   2.418  1.1977 -0.3341 -1.3314
  269MOL0     H35481   2.645   4.031   2.539  1.0946 -2.0127  0.4313
  269MOL0     H35482   2.550   4.097   2.268  3.1078  0.1489 -0.1771
  269MOL0     H35483   2.572   4.206   2.401  0.0301 -0.2159  1.9591
  269MOL0     H35484   2.382   4.077   2.538  1.0829 -2.0682  0.7571
  269MOL0     H35485   2.378   3.964   2.397 -3.0349  1.0285  1.0607
  269MOL0     H35486   2.337   4.253   2.368 -0.1214 -0.2287  1.6729
  269MOL0     H35487   2.290   4.121   2.255 -2.4333  1.3370 -0.1152
  269MOL0     H35488   2.087   4.207   2.361 -1.3738  0.3703  1.4230
  269MOL0     H35489   2.167   4.190   2.521  1.5500  0.3422 -0.2499
  269MOL0     H35490   3.258   3.733   2.263 -2.7927  0.6934 -0.0476
  269MOL0     H35491   3.489   3.758   2.232  1.3806  0.6550  0.7907
  269MOL0     H35492   3.827   4.117   2.133 -1.2794  2.8577  2.8964
  269MOL0     H35493   4.071   4.148   2.144 -0.2802 -0.9338  0.0978
  269MOL0     H35494   5.972   3.879   2.862 -0.7314 -0.9055  1.8463
  269MOL0     H35495   6.192   3.972   2.847 -1.2480  0.5279 -2.6198
  269MOL0     H35496   6.597   4.037   2.671 -0.6326  1.4475  0.7686
  269MOL0     H35497   6.758   4.227   2.702 -3.6784  1.6146 -1.1382
  269MOL0     H35498   7.018   4.179   2.970 -2.9916 -0.0679  0.3953
  269MOL0     H35499   7.066   4.342   2.916  2.4649 -1.0376 -0.2085
  269MOL0     H35500   7.004   4.107   2.747 -1.1064  0.4959  3.1079
  269MOL0     H35501   6.985   4.279   2.688  1.4275  1.0998  1.3889
  269MOL0     H35502   7.235   4.159   2.790 -2.0288 -0.8761  0.7658
  269MOL0     H35503   7.208   4.334   2.763  0.6454 -0.3876  3.0167
  269MOL0     H35504   7.222   4.106   2.557 -1.8214  0.8056 -1.5067
  269MOL0     H35505   7.159   4.260   2.520 -0.9715  0.6915  2.2111
  269MOL0     H35506   7.555   4.385   2.515 -0.4353  0.1733 -1.8595
  269MOL0     H35507   6.781   4.172   3.113 -1.6060  3.5089  0.1282
  269MOL0     H35508   6.635   3.980   3.101  2.4594 -0.9018  1.2247
  270MOL0     O35509  11.114   9.984   3.667 -0.0139  0.2267 -0.2696
  270MOL0     C35510  11.177  10.071   3.609 -0.4763  0.6081  0.6769
  270MOL0     O35511  11.159  10.206   3.615  0.4087 -0.5136  0.3935
  270MOL0     C35512  11.066  10.263   3.703  0.4435  0.1699 -0.4166
  270MOL0     C35513  11.013  10.211   3.819  0.2849  0.2887 -0.1218
  270MOL0     C35514  10.901  10.263   3.889 -0.5772 -1.5003 -0.0132
  270MOL0     C35515  10.845  10.385   3.842  0.2209 -0.0710 -0.3788
  270MOL0     O35516  10.725  10.441   3.889 -0.2194  0.0075 -0.1100
  270MOL0     C35517  10.631  10.357   3.949  0.8477  0.5421 -0.9498
  270MOL0     C35518  10.562  10.258   3.847 -0.7128  0.2159  0.3209
  270MOL0     C35519  10.482  10.343   3.741 -0.5252 -0.2765  0.3299
  270MOL0     C35520  10.456  10.268   3.610 -0.3419 -0.8346  0.9573
  270MOL0     C35521  10.386  10.132   3.635 -0.0624 -0.8262 -0.1031
  270MOL0     C35522  10.245  10.149   3.678  0.0105  0.2876  0.2386
  270MOL0     C35523  10.168  10.013   3.697  0.6006 -0.4451 -0.0865
  270MOL0     C35524  10.109   9.948   3.565 -0.3302 -0.4550 -0.8450
  270MOL0     N35525   9.984  10.015   3.542 -0.2042  0.6507  0.0873
  270MOL0     C35526   9.871   9.959   3.592 -0.1158  0.4648 -0.7307
  270MOL0     C35527   9.769  10.041   3.559 -0.6278  0.3893  0.3860
  270MOL0     C35528   9.630  10.030   3.607  0.2610  0.2795 -0.3247
  270MOL0     C35529   9.542  10.122   3.515  0.5178  0.0528  0.3955
  270MOL0     C35530   9.394  10.085   3.534 -0.1759  0.1180 -1.1536
  270MOL0     C35531   9.313  10.181   3.444  0.7785 -1.3481  0.5374
  270MOL0     O35532   9.170  10.166   3.452 -0.2175  0.1648  0.5057
  270MOL0     C35533   9.087  10.259   3.407  0.4624  0.1969  0.0035
  270MOL0     C35534   8.946  10.250   3.413 -0.8069 -0.0137 -0.4459
  270MOL0     C35535   8.861  10.340   3.362  0.5860 -0.9389 -0.1698
  270MOL0     C35536   8.913  10.465   3.306  0.3365  0.3174 -0.6742
  270MOL0     C35537   8.824  10.576   3.254 -0.7323  0.1958 -0.0000
  270MOL0     O35538   8.887  10.694   3.210  0.4554 -0.0357 -0.3146
  270MOL0     C35539   8.817  10.794   3.141 -0.5050 -0.0559  0.7989
  270MOL0     C35540   8.691  10.848   3.173 -0.3267  0.3399  0.2498
  270MOL0     C35541   8.639  10.956   3.105  1.1361  0.3958  0.7080
  270MOL0     C35542   8.705  11.002   2.996 -0.4986  0.0226 -0.2979
  270MOL0     O35543   8.642  11.099   2.923  0.2610  0.4693 -0.1747
  270MOL0     C35544   8.683  11.135   2.789 -0.3632 -0.3085 -0.2252
  270MOL0     C35545   8.559  11.202   2.728 -0.4667 -0.7186 -0.6226
  270MOL0     C35546   8.583  11.315   2.619 -0.2838 -0.3291  1.0054
  270MOL0     C35547   8.465  11.348   2.534  0.2385 -0.1044  0.5743
  270MOL0     C35548   8.347  11.414   2.612  0.1803  0.0227  0.0635
  270MOL0     C35549   8.240  11.466   2.515  0.6406 -0.1447  0.1175
  270MOL0     C35550   8.132  11.554   2.574 -0.7324 -0.4155 -1.0022
  270MOL0     C35551   8.021  11.566   2.469  0.0508  0.5425  0.9271
  270MOL0    Cl35552   7.886  11.673   2.534  0.2755  0.1332 -0.2560
  270MOL0     C35553   8.834  10.954   2.952  1.1267 -0.3738 -0.3405
  270MOL0     C35554   8.883  10.846   3.032 -0.1256  0.4064 -0.6386
  270MOL0     O35555   8.706  10.547   3.242  0.3463  0.3744  0.5262
  270MOL0     C35556   9.053  10.478   3.298  0.4540 -0.1950  0.0288
  270MOL0     C35557   9.139  10.373   3.346  0.1923  0.6196  0.6738
  270MOL0     N35558   9.821  10.143   3.478 -0.1083  0.3517  0.8313
  270MOL0     N35559   9.946  10.120   3.460 -0.4764  0.3299  0.2076
  270MOL0     C35560  10.901  10.445   3.733  0.1381 -0.5935  0.2039
  270MOL0     C35561  11.008  10.389   3.667  0.6617  0.1071 -0.7714
  270MOL0     C35562  11.288  10.014   3.538 -1.1739 -0.7731  0.8338
  270MOL0     C35563  11.313  10.060   3.408  0.5388 -0.6149 -0.6497
  270MOL0     C35564  11.412   9.999   3.336 -0.7404  0.1386  0.7192
  270MOL0     C35565  11.484   9.894   3.394 -0.1727  0.1008 -0.4034
  270MOL0     O35566  11.583   9.811   3.340  0.1546 -0.4107  0.3801
  270MOL0     C35567  11.635   9.841   3.212 -0.3814 -0.2931 -0.9963
  270MOL0     C35568  11.771   9.762   3.207  0.0386 -1.0993  0.8940
  270MOL0     C35569  11.868   9.824   3.300 -0.3463  0.3709  0.0326
  270MOL0     C35570  11.993   9.734   3.317 -0.2117 -0.2897  0.0428
  270MOL0     C35571  12.083   9.802   3.411 -0.7516 -0.9337  0.5829
  270MOL0     C35572  12.162   9.869   3.473 -0.5019  1.2528  0.5138
  270MOL0     C35573  11.463   9.861   3.533  0.8879  0.2746  0.4912
  270MOL0     C35574  11.366   9.928   3.604 -0.2855  0.1892  0.4707
  270MOL0     H35575  11.050  10.111   3.838  0.5650  0.2210 -0.9798
  270MOL0     H35576  10.863  10.214   3.978  0.4094 -0.9736  0.7220
  270MOL0     H35577  10.555  10.422   3.995  1.6616  0.9664 -0.1739
  270MOL0     H35578  10.674  10.287   4.021 -1.3408 -0.4600 -0.5277
  270MOL0     H35579  10.496  10.197   3.910 -1.7792  2.0378  1.0536
  270MOL0     H35580  10.642  10.194   3.810  1.9880  2.4090  1.9108
  270MOL0     H35581  10.531  10.434   3.706 -2.5558  0.4150 -0.8876
  270MOL0     H35582  10.381  10.366   3.777 -0.8849 -0.3289 -0.6044
  270MOL0     H35583  10.406  10.335   3.540  1.4326 -0.3870  0.0421
  270MOL0     H35584  10.554  10.244   3.568  2.1525  2.1968  4.3850
  270MOL0     H35585  10.440  10.083   3.716  2.4613  0.2954 -0.9826
  270MOL0     H35586  10.403  10.066   3.549 -0.3538 -2.1107  0.8054
  270MOL0     H35587  10.183  10.212   3.613 -1.2641 -0.8163  0.3386
  270MOL0     H35588  10.255  10.200   3.775  2.1384 -0.5198  0.4784
  270MOL0     H35589  10.235   9.935   3.737  1.9776  0.6580 -0.1545
  270MOL0     H35590  10.089  10.040   3.767 -0.2004  3.4465 -2.2246
  270MOL0     H35591  10.099   9.841   3.585  2.2138 -0.1301  3.4212
  270MOL0     H35592  10.172   9.966   3.478  1.1664  0.4845  0.3774
  270MOL0     H35593   9.864   9.874   3.659 -0.7740  2.0548  1.3343
  270MOL0     H35594   9.639  10.065   3.710  2.1464 -0.2069 -0.2780
  270MOL0     H35595   9.600   9.926   3.589  3.2195 -0.8494  0.6737
  270MOL0     H35596   9.593  10.114   3.419  4.6514 -0.2715  2.3993
  270MOL0     H35597   9.557  10.222   3.557 -1.4125 -0.1234  1.6639
  270MOL0     H35598   9.376   9.979   3.514 -0.1832 -0.0627 -0.2219
  270MOL0     H35599   9.370  10.094   3.640 -0.2982  2.2767 -1.3169
  270MOL0     H35600   9.345  10.169   3.340 -2.4553 -0.5709 -0.7065
  270MOL0     H35601   9.332  10.287   3.467 -2.7699 -0.4182 -0.1481
  270MOL0     H35602   8.912  10.151   3.441 -0.4333 -0.0135  0.0158
  270MOL0     H35603   8.752  10.337   3.364  0.5726 -0.6850  1.7819
  270MOL0     H35604   8.645  10.799   3.259 -1.3844 -2.4980 -1.7601
  270MOL0     H35605   8.539  10.995   3.121 -0.7260 -4.0552  1.6173
  270MOL0     H35606   8.701  11.044   2.731  3.5219  1.2946 -1.8205
  270MOL0     H35607   8.769  11.201   2.781 -2.5233  2.6505 -0.9548
  270MOL0     H35608   8.500  11.249   2.807 -0.9274  0.0812 -1.4261
  270MOL0     H35609   8.489  11.132   2.680 -1.9206  1.5459 -1.9595
  270MOL0     H35610   8.667  11.276   2.560  0.6711 -1.3836  2.9535
  270MOL0     H35611   8.616  11.403   2.674 -2.9104  1.7137 -0.4721
  270MOL0     H35612   8.502  11.421   2.461 -1.0407  0.5883  0.5776
  270MOL0     H35613   8.433  11.271   2.464  1.5506 -0.5363  0.4235
  270MOL0     H35614   8.394  11.492   2.672 -0.3507  0.6343 -0.3101
  270MOL0     H35615   8.311  11.332   2.675 -0.0061  1.0800  1.3725
  270MOL0     H35616   8.190  11.379   2.471 -2.0431  1.2002  0.3346
  270MOL0     H35617   8.298  11.517   2.437  2.0031  0.5466  1.5141
  270MOL0     H35618   8.109  11.513   2.673  1.6673  0.6307  0.0672
  270MOL0     H35619   8.167  11.656   2.595  2.1069 -1.3678 -0.6486
  270MOL0     H35620   7.991  11.463   2.445 -1.8982  1.4562 -0.9116
  270MOL0     H35621   8.041  11.615   2.373 -2.2602  2.3087  1.2658
  270MOL0     H35622   8.890  11.012   2.879 -0.2009 -0.0012 -1.0927
  270MOL0     H35623   8.980  10.801   3.018  0.3925  0.6996  1.6639
  270MOL0     H35624   9.092  10.569   3.253  1.1620  0.1704  1.3125
  270MOL0     H35625   9.237  10.363   3.301 -0.2002 -1.2747  0.1424
  270MOL0     H35626  10.852  10.537   3.701 -2.2535 -2.0043 -0.4416
  270MOL0     H35627  11.053  10.439   3.582  3.3329  1.1167  1.1196
  270MOL0     H35628  11.249  10.140   3.372  0.1984 -0.0510  1.0786
  270MOL0     H35629  11.432  10.052   3.244 -0.6030 -2.0292 -0.5625
  270MOL0     H35630  11.664   9.945   3.190 -0.0395 -0.5238 -1.6591
  270MOL0     H35631  11.557   9.800   3.147  0.5695  0.5781 -2.7676
  270MOL0     H35632  11.765   9.653   3.217 -2.2584 -1.1537 -0.3836
  270MOL0     H35633  11.813   9.773   3.107  0.6107  0.9038  1.2951
  270MOL0     H35634  11.812   9.835   3.393 -1.0073 -0.3961 -0.2678
  270MOL0     H35635  11.903   9.913   3.247  2.5972 -0.7922 -0.1871
  270MOL0     H35636  11.966   9.640   3.366  0.4677 -1.1902 -1.2483
  270MOL0     H35637  12.042   9.714   3.221  1.8660  0.4425  0.9024
  270MOL0     H35638  12.245   9.911   3.527 -1.0481  0.6879  1.8548
  270MOL0     H35639  11.531   9.790   3.578  5.0447  1.8155 -2.6716
  270MOL0     H35640  11.357   9.901   3.709 -0.8101 -0.0746  0.3625
  271MOL0     O35641   6.782   0.351   2.913  0.3109 -0.4537 -0.5763
  271MOL0     C35642   6.757   0.391   3.022 -0.7829 -0.4518  0.0768
  271MOL0     O35643   6.688   0.312   3.111 -0.2842 -0.3131 -0.0469
  271MOL0     C35644   6.645   0.184   3.078 -0.1559  0.2099 -0.1156
  271MOL0     C35645   6.550   0.163   2.970  0.1592 -0.1651  0.0482
  271MOL0     C35646   6.507   0.029   2.949 -0.1973 -0.7218 -0.0926
  271MOL0     C35647   6.568  -0.079   3.021 -0.0055 -0.1776  1.2908
  271MOL0     O35648   6.540  -0.210   3.011  0.5844  0.7521 -0.3750
  271MOL0     C35649   6.419  -0.238   2.930  0.5253  0.5966 -0.6359
  271MOL0     C35650   6.364  -0.384   2.954 -0.8176 -0.5835  0.1286
  271MOL0     C35651   6.238  -0.413   2.865 -0.0261  1.2518  0.3312
  271MOL0     C35652   6.214  -0.561   2.874  0.1333 -0.2558 -0.0484
  271MOL0     C35653   6.105  -0.613   2.779  0.7793  0.8927 -0.4792
  271MOL0     C35654   5.985  -0.523   2.773 -0.6708  0.2135  0.0937
  271MOL0     C35655   5.870  -0.591   2.694  0.6144 -0.0121  0.4631
  271MOL0     C35656   5.787  -0.676   2.787 -0.1057 -0.0410 -0.3017
  271MOL0     N35657   5.661  -0.722   2.720  0.4256  0.3256  0.3003
  271MOL0     C35658   5.662  -0.812   2.616  0.0802 -0.3217  0.4561
  271MOL0     C35659   5.532  -0.835   2.588  0.2219  1.2505  0.5483
  271MOL0     C35660   5.485  -0.919   2.466  0.0241 -0.0217  0.2235
  271MOL0     C35661   5.518  -0.824   2.343  0.3007 -0.2301  0.2144
  271MOL0     C35662   5.446  -0.870   2.215  0.5306 -0.0774 -0.4788
  271MOL0     C35663   5.292  -0.857   2.218  1.1341 -0.3496 -0.0293
  271MOL0     O35664   5.227  -0.935   2.111 -0.2209 -0.6788 -1.0982
  271MOL0     C35665   5.156  -1.048   2.136  0.2268  0.3329  0.4060
  271MOL0     C35666   5.193  -1.140   2.239  0.2076 -0.3777 -0.0388
  271MOL0     C35667   5.116  -1.247   2.268 -1.2049  0.5541 -0.7379
  271MOL0     C35668   5.005  -1.273   2.190 -0.1752 -0.3544  0.7725
  271MOL0     C35669   4.919  -1.387   2.221  0.8136 -0.2893 -0.0281
  271MOL0     O35670   4.851  -1.436   2.114  0.2536 -0.7294  0.0021
  271MOL0     C35671   4.750  -1.527   2.146  0.9071  1.2304  0.0454
  271MOL0     C35672   4.647  -1.519   2.246 -0.7240  0.3165 -0.1348
  271MOL0     C35673   4.567  -1.636   2.269 -0.1630  0.0865  0.0919
  271MOL0     C35674   4.567  -1.744   2.173 -0.5883  0.4013 -0.4005
  271MOL0     O35675   4.490  -1.853   2.183  0.3065 -0.1477  0.5674
  271MOL0     C35676   4.349  -1.822   2.193 -0.7860 -0.1060 -0.4837
  271MOL0     C35677   4.262  -1.944   2.162 -0.6864  0.0299  0.8851
  271MOL0     C35678   4.107  -1.915   2.174 -0.4042 -0.3106 -0.0429
  271MOL0     C35679   4.038  -2.015   2.082  0.3498  0.1491  0.3645
  271MOL0     C35680   3.888  -1.981   2.082  0.0302  0.0426  0.5412
  271MOL0     C35681   3.813  -2.049   1.961 -0.7966 -0.9402  0.3890
  271MOL0     C35682   3.820  -1.950   1.840  0.2693  0.4372  0.3810
  271MOL0     C35683   3.744  -1.997   1.711  0.8079  0.1070  0.4725
  271MOL0    Cl35684   3.560  -1.984   1.732 -0.0786  0.0465 -0.5292
  271MOL0     C35685   4.669  -1.751   2.085 -0.1911 -0.4386  0.7531
  271MOL0     C35686   4.754  -1.643   2.062  0.3444  0.1992 -0.2196
  271MOL0     O35687   4.896  -1.405   2.339 -0.1377 -0.0777  0.3278
  271MOL0     C35688   4.967  -1.183   2.081  0.7010  0.2011 -1.0822
  271MOL0     C35689   5.047  -1.074   2.057  0.6075 -0.5142 -0.3168
  271MOL0     N35690   5.453  -0.768   2.679  0.3050  0.9310 -0.5803
  271MOL0     N35691   5.531  -0.704   2.762 -0.4940  0.4829  0.0514
  271MOL0     C35692   6.659  -0.048   3.121  0.3551 -0.2573 -0.2614
  271MOL0     C35693   6.700   0.083   3.145 -0.4512 -0.9170 -1.0306
  271MOL0     C35694   6.809   0.527   3.061  0.1500 -0.4979 -0.1901
  271MOL0     C35695   6.799   0.572   3.193  0.2968  0.1099  0.8147
  271MOL0     C35696   6.830   0.706   3.233  0.7022 -0.2321 -1.0358
  271MOL0     C35697   6.898   0.789   3.150  0.7227 -0.9080  0.0851
  271MOL0     O35698   6.939   0.915   3.173  0.6239 -0.5826  0.2094
  271MOL0     C35699   6.855   0.992   3.255  0.0993  0.3880  0.6862
  271MOL0     C35700   6.937   1.117   3.286 -0.6338  1.2251  0.4060
  271MOL0     C35701   7.007   1.095   3.428 -0.3346 -0.2962  0.1592
  271MOL0     C35702   7.091   1.218   3.468 -0.3501 -0.7238  0.2722
  271MOL0     C35703   7.142   1.301   3.353 -1.0817  0.0960 -0.9163
  271MOL0     C35704   7.186   1.380   3.271  0.3834  0.6265  0.1259
  271MOL0     C35705   6.923   0.739   3.018  0.5140 -0.1394  0.0266
  271MOL0     C35706   6.877   0.612   2.975  0.5236 -0.2647 -0.2878
  271MOL0     H35707   6.509   0.251   2.922 -2.6681 -1.6115 -0.4079
  271MOL0     H35708   6.430   0.007   2.875 -0.9893  0.6017  0.2988
  271MOL0     H35709   6.449  -0.216   2.827 -2.9057  1.7431 -1.5374
  271MOL0     H35710   6.333  -0.177   2.959 -0.5415  0.2270 -2.8250
  271MOL0     H35711   6.336  -0.388   3.060  1.8532  0.8018  0.9922
  271MOL0     H35712   6.446  -0.454   2.936 -1.3022 -0.3342 -3.8830
  271MOL0     H35713   6.254  -0.397   2.758  0.1650  0.2575  0.1986
  271MOL0     H35714   6.159  -0.345   2.898  1.0217  1.7171  1.9715
  271MOL0     H35715   6.304  -0.622   2.863  2.6601  2.9587  1.1529
  271MOL0     H35716   6.190  -0.591   2.977 -2.2645 -0.2007 -0.5529
  271MOL0     H35717   6.081  -0.713   2.818  1.6102  0.6652 -0.5483
  271MOL0     H35718   6.143  -0.621   2.677 -0.0515 -1.1674 -0.6828
  271MOL0     H35719   6.014  -0.429   2.724  0.7876 -0.5955 -0.6583
  271MOL0     H35720   5.953  -0.495   2.874 -2.6168  0.2403 -0.4694
  271MOL0     H35721   5.809  -0.505   2.663  2.5339  0.8658 -1.0979
  271MOL0     H35722   5.901  -0.640   2.602 -0.6467  1.2923 -0.7207
  271MOL0     H35723   5.768  -0.615   2.876  1.6245  3.0806 -1.9149
  271MOL0     H35724   5.840  -0.769   2.810  1.4952  0.9157  0.0125
  271MOL0     H35725   5.748  -0.855   2.566 -1.0900 -2.3773  0.0756
  271MOL0     H35726   5.380  -0.942   2.487  0.8665 -1.6787  3.1648
  271MOL0     H35727   5.543  -1.010   2.449 -0.3349 -0.3442  0.6845
  271MOL0     H35728   5.622  -0.817   2.308 -0.7860 -1.9791 -4.0239
  271MOL0     H35729   5.478  -0.724   2.359  1.5247  0.7902 -2.5290
  271MOL0     H35730   5.479  -0.808   2.131  1.8137 -1.4107 -1.0032
  271MOL0     H35731   5.486  -0.969   2.187  2.9926  0.5185  0.6526
  271MOL0     H35732   5.274  -0.750   2.200  1.6305 -0.0018  1.4372
  271MOL0     H35733   5.244  -0.885   2.312 -0.6207  1.4585 -0.3197
  271MOL0     H35734   5.284  -1.140   2.299  0.9685 -3.7566 -1.0123
  271MOL0     H35735   5.145  -1.311   2.351 -1.2407 -0.4396 -1.4709
  271MOL0     H35736   4.657  -1.448   2.327  2.2710 -2.9426  2.7065
  271MOL0     H35737   4.498  -1.624   2.352  0.7746  0.5296  0.8329
  271MOL0     H35738   4.328  -1.742   2.121 -0.2130  1.5898  1.1413
  271MOL0     H35739   4.322  -1.781   2.291 -1.0637  0.5808 -0.8376
  271MOL0     H35740   4.288  -2.031   2.223  1.9671 -0.5783 -0.9387
  271MOL0     H35741   4.283  -1.973   2.059 -1.2933 -1.2881  1.1201
  271MOL0     H35742   4.078  -1.811   2.153 -1.6139 -0.8108 -0.9404
  271MOL0     H35743   4.062  -1.924   2.273 -4.0568 -0.9917 -1.6318
  271MOL0     H35744   4.072  -1.980   1.984  1.9438 -1.6971  0.2096
  271MOL0     H35745   4.063  -2.120   2.100  0.6611  0.4264  1.6343
  271MOL0     H35746   3.873  -1.873   2.083 -0.3754  0.0061 -0.4391
  271MOL0     H35747   3.851  -2.029   2.172 -0.1441 -1.1091 -0.1256
  271MOL0     H35748   3.710  -2.075   1.986 -1.4383 -1.7686 -2.6737
  271MOL0     H35749   3.862  -2.143   1.933  2.0174  1.0439 -1.8673
  271MOL0     H35750   3.776  -1.855   1.871 -0.3365  0.2566  0.0924
  271MOL0     H35751   3.925  -1.936   1.810  0.2919 -0.0875  0.1932
  271MOL0     H35752   3.772  -2.102   1.700 -2.8768 -1.1035  1.0467
  271MOL0     H35753   3.782  -1.941   1.625 -1.1777  0.8343  0.0075
  271MOL0     H35754   4.684  -1.837   2.020  2.9428  0.8354 -0.3830
  271MOL0     H35755   4.834  -1.645   1.989  0.8936  0.5715  0.3660
  271MOL0     H35756   4.880  -1.207   2.022  1.3995 -0.7752 -1.7384
  271MOL0     H35757   5.032  -1.007   1.973 -0.0666 -0.2381  0.0129
  271MOL0     H35758   6.696  -0.136   3.173 -2.9085 -2.1269 -0.7937
  271MOL0     H35759   6.770   0.106   3.225 -0.4049 -0.6067 -1.1579
  271MOL0     H35760   6.768   0.499   3.268  0.9531 -0.9903  0.0471
  271MOL0     H35761   6.805   0.732   3.336 -0.1374  0.6247 -1.4365
  271MOL0     H35762   6.828   0.940   3.348  1.4264 -0.5224  0.5754
  271MOL0     H35763   6.766   1.015   3.196 -0.4277 -2.0951  0.3919
  271MOL0     H35764   7.021   1.135   3.218  0.2570 -0.0460  1.1200
  271MOL0     H35765   6.871   1.204   3.289 -1.9367  0.3586 -1.2826
  271MOL0     H35766   7.080   1.013   3.428 -1.0555 -1.1358  4.3582
  271MOL0     H35767   6.938   1.070   3.509 -0.1006 -0.1237  0.4102
  271MOL0     H35768   7.032   1.293   3.521  0.6161  0.8356 -0.7689
  271MOL0     H35769   7.182   1.190   3.522 -0.5004 -0.1851  0.8099
  271MOL0     H35770   7.235   1.446   3.202 -2.1800  1.6288 -0.8167
  271MOL0     H35771   6.963   0.813   2.950 -0.6813  2.1697  1.7217
  271MOL0     H35772   6.889   0.575   2.874 -3.0939 -1.3054 -0.4768
  272MOL0     O35773   0.726  10.950   1.217  0.3040  0.7571  0.1878
  272MOL0     C35774   0.828  11.018   1.229 -0.8720  0.3269 -0.8562
  272MOL0     O35775   0.850  11.145   1.186  0.3992 -0.5977 -0.0875
  272MOL0     C35776   0.747  11.216   1.125  0.0331  1.0752  0.6263
  272MOL0     C35777   0.768  11.294   1.010 -0.1228  0.2590  1.0942
  272MOL0     C35778   0.658  11.360   0.949 -0.2964 -0.3612  0.6061
  272MOL0     C35779   0.531  11.361   1.001  0.2950  0.4025 -0.5934
  272MOL0     O35780   0.436  11.417   0.923 -0.0656 -0.1649  0.1217
  272MOL0     C35781   0.316  11.468   0.978 -1.0457  0.3776  0.8577
  272MOL0     C35782   0.226  11.497   0.859  0.0673 -0.6997 -0.9669
  272MOL0     C35783   0.089  11.545   0.927 -0.4273  0.2802 -0.6286
  272MOL0     C35784  -0.008  11.585   0.811  1.1278 -0.2894 -0.3675
  272MOL0     C35785  -0.134  11.640   0.874 -0.9124 -0.7581 -0.4815
  272MOL0     C35786  -0.216  11.709   0.761 -0.8365  0.6309 -0.3138
  272MOL0     C35787  -0.330  11.797   0.821  0.1188 -0.3655 -0.1351
  272MOL0     C35788  -0.433  11.722   0.913  0.3622 -0.3492  0.1389
  272MOL0     N35789  -0.513  11.623   0.844  0.4704 -0.0156 -0.2860
  272MOL0     C35790  -0.610  11.652   0.750 -0.1032  1.1153 -0.1476
  272MOL0     C35791  -0.673  11.535   0.729 -0.3861  0.6701 -0.2574
  272MOL0     C35792  -0.801  11.512   0.650  0.1560  0.2963  0.3860
  272MOL0     C35793  -0.768  11.413   0.531  0.5251  0.0364  0.5303
  272MOL0     C35794  -0.880  11.399   0.431 -0.0559  0.2095  0.2435
  272MOL0     C35795  -0.941  11.530   0.380 -0.1631 -0.0469  0.4332
  272MOL0     O35796  -1.030  11.514   0.271  0.3014 -0.3483  0.3452
  272MOL0     C35797  -1.142  11.602   0.259  0.4191 -0.6257 -0.4711
  272MOL0     C35798  -1.267  11.548   0.245  0.7923 -0.3773  0.0666
  272MOL0     C35799  -1.369  11.628   0.191 -0.2805 -0.4957  0.1026
  272MOL0     C35800  -1.349  11.762   0.171 -0.5877  0.1969  0.2367
  272MOL0     C35801  -1.451  11.832   0.089  0.1079 -0.5128  0.4119
  272MOL0     O35802  -1.520  11.755   0.001  0.0130 -0.2021  0.0891
  272MOL0     C35803  -1.655  11.773  -0.032  0.1289  0.0471 -0.2203
  272MOL0     C35804  -1.733  11.861   0.039  1.2625 -0.1839  0.1919
  272MOL0     C35805  -1.872  11.878  -0.000  0.0550  0.6873 -0.0887
  272MOL0     C35806  -1.935  11.804  -0.103 -0.2803 -0.3246 -0.6473
  272MOL0     O35807  -2.066  11.841  -0.128 -0.2238 -0.3794 -0.2066
  272MOL0     C35808  -2.131  11.756  -0.225  0.8669  0.1969 -0.4292
  272MOL0     C35809  -2.278  11.718  -0.174  0.7300 -0.0488 -0.1189
  272MOL0     C35810  -2.362  11.636  -0.279  0.1444  0.3707  0.1808
  272MOL0     C35811  -2.457  11.538  -0.205  0.1690  0.1694 -0.4066
  272MOL0     C35812  -2.560  11.597  -0.109  1.0263 -0.3688  0.4458
  272MOL0     C35813  -2.649  11.694  -0.186  0.1619  0.3936  0.2992
  272MOL0     C35814  -2.794  11.707  -0.133 -1.2010  0.0426  1.4248
  272MOL0     C35815  -2.788  11.747   0.007  0.6024  0.5633 -0.2916
  272MOL0    Cl35816  -2.733  11.915   0.029 -0.0136  0.0561 -0.4203
  272MOL0     C35817  -1.856  11.708  -0.179 -0.0680 -0.7047  0.3770
  272MOL0     C35818  -1.719  11.695  -0.138 -0.5619  0.3286 -0.0894
  272MOL0     O35819  -1.470  11.950   0.111  0.2165  0.0874 -0.8002
  272MOL0     C35820  -1.223  11.827   0.199 -0.0239  0.0272 -0.3633
  272MOL0     C35821  -1.126  11.741   0.245  0.3762  1.1121 -0.3099
  272MOL0     N35822  -0.602  11.441   0.803 -0.1102  0.2114  0.0321
  272MOL0     N35823  -0.508  11.493   0.873 -0.2443  0.3145 -0.0349
  272MOL0     C35824   0.508  11.286   1.117  0.7375  0.8256 -1.4707
  272MOL0     C35825   0.617  11.217   1.172  0.5585  1.1857  0.0996
  272MOL0     C35826   0.931  10.968   1.325 -0.1846  0.2359 -0.7221
  272MOL0     C35827   1.040  11.047   1.360  0.1424 -0.6780 -0.2935
  272MOL0     C35828   1.140  11.001   1.443 -0.0537 -0.4864  0.0592
  272MOL0     C35829   1.129  10.872   1.499 -0.7098  0.2967 -0.6390
  272MOL0     O35830   1.223  10.837   1.588 -0.6782 -0.2025 -0.4184
  272MOL0     C35831   1.244  10.703   1.616  0.5663 -0.1236  0.0022
  272MOL0     C35832   1.363  10.688   1.712  0.8232  0.2151  0.3719
  272MOL0     C35833   1.489  10.735   1.645  0.0849 -0.3241 -0.2239
  272MOL0     C35834   1.598  10.735   1.757  0.0041  0.2513 -0.8391
  272MOL0     C35835   1.722  10.784   1.692  0.5248  0.8536 -0.3905
  272MOL0     C35836   1.820  10.821   1.631 -0.1469 -0.5901 -0.2480
  272MOL0     C35837   1.009  10.801   1.491  0.1706 -0.1942 -1.0453
  272MOL0     C35838   0.906  10.848   1.400 -0.7254  0.2720 -0.1367
  272MOL0     H35839   0.865  11.290   0.962 -1.5138 -1.7817 -1.8807
  272MOL0     H35840   0.662  11.409   0.853 -0.4508 -2.5217 -0.5537
  272MOL0     H35841   0.353  11.553   1.035  1.7192 -0.9551  1.2386
  272MOL0     H35842   0.273  11.386   1.037 -0.4108 -0.0173  0.7821
  272MOL0     H35843   0.209  11.416   0.788 -0.8475 -1.3962  0.0192
  272MOL0     H35844   0.266  11.587   0.812 -2.6070  1.5880  0.8264
  272MOL0     H35845   0.104  11.628   0.997  0.3832  0.5434 -1.0942
  272MOL0     H35846   0.054  11.462   0.988  1.0582  2.0713  2.9503
  272MOL0     H35847   0.042  11.651   0.739 -0.4389 -2.1084 -3.3465
  272MOL0     H35848  -0.035  11.499   0.748 -0.1147 -1.3207  1.4804
  272MOL0     H35849  -0.113  11.720   0.946  0.1466  0.0401 -1.6303
  272MOL0     H35850  -0.193  11.558   0.915  0.8754 -1.9363 -0.2018
  272MOL0     H35851  -0.260  11.636   0.692 -0.9922 -2.4071  2.7322
  272MOL0     H35852  -0.150  11.768   0.698 -1.4180  0.5122 -1.0544
  272MOL0     H35853  -0.282  11.887   0.862  0.2113 -0.1158 -0.7840
  272MOL0     H35854  -0.379  11.839   0.733  0.8337 -1.6095 -1.1614
  272MOL0     H35855  -0.496  11.802   0.953  0.9508 -0.3904  1.1813
  272MOL0     H35856  -0.373  11.681   0.995  2.8835  4.5344  1.1399
  272MOL0     H35857  -0.641  11.751   0.718 -0.1939  2.0572  2.5783
  272MOL0     H35858  -0.837  11.608   0.612 -2.5720 -0.7519  0.1252
  272MOL0     H35859  -0.884  11.481   0.714  0.4121  3.0107  2.2007
  272MOL0     H35860  -0.741  11.318   0.577  2.4076  0.0100 -0.5099
  272MOL0     H35861  -0.688  11.449   0.465  0.7178  0.8925  1.2266
  272MOL0     H35862  -0.859  11.338   0.343 -3.8379 -0.6548 -0.2297
  272MOL0     H35863  -0.966  11.351   0.478 -1.0875 -1.7122 -3.2531
  272MOL0     H35864  -0.854  11.594   0.365 -1.1497  1.6266  1.4397
  272MOL0     H35865  -0.995  11.578   0.462 -0.0669 -0.7007  0.8852
  272MOL0     H35866  -1.290  11.445   0.270  0.7500 -0.3093  0.3079
  272MOL0     H35867  -1.471  11.592   0.190  0.4291 -2.6060 -0.7154
  272MOL0     H35868  -1.697  11.918   0.123  1.2152 -0.8087  0.6415
  272MOL0     H35869  -1.936  11.941   0.060  1.5679  0.4142  1.8907
  272MOL0     H35870  -2.090  11.654  -0.230 -3.1434 -1.5829 -2.6925
  272MOL0     H35871  -2.141  11.802  -0.324 -1.9570 -2.1383 -1.3843
  272MOL0     H35872  -2.331  11.811  -0.151 -0.7398 -0.0355 -3.1051
  272MOL0     H35873  -2.272  11.654  -0.086 -0.1291 -0.0450 -0.0545
  272MOL0     H35874  -2.300  11.568  -0.337 -1.6028 -0.4570 -0.7893
  272MOL0     H35875  -2.428  11.691  -0.347 -0.9195 -1.8139 -0.6423
  272MOL0     H35876  -2.511  11.469  -0.271  0.2620 -0.2780 -0.0219
  272MOL0     H35877  -2.386  11.480  -0.146 -1.0535 -1.4075 -0.4237
  272MOL0     H35878  -2.507  11.640  -0.023  3.0273 -0.8822 -0.5017
  272MOL0     H35879  -2.614  11.513  -0.064  0.9189 -0.6253 -0.1617
  272MOL0     H35880  -2.668  11.652  -0.285 -3.9399  1.7244  0.3215
  272MOL0     H35881  -2.604  11.792  -0.206 -1.7475  0.5913 -4.3984
  272MOL0     H35882  -2.841  11.780  -0.200  3.0528  1.7801 -0.0147
  272MOL0     H35883  -2.860  11.620  -0.144  0.6666 -1.2339 -0.5232
  272MOL0     H35884  -2.728  11.680   0.068  1.6513  0.6689 -1.1792
  272MOL0     H35885  -2.887  11.753   0.054  0.6725  0.1705 -0.0980
  272MOL0     H35886  -1.891  11.640  -0.256  0.9550 -1.9574  0.9836
  272MOL0     H35887  -1.650  11.619  -0.173 -0.2901  0.1346  0.8378
  272MOL0     H35888  -1.211  11.930   0.168 -2.1067 -0.4113 -3.0346
  272MOL0     H35889  -1.027  11.787   0.247  1.5489 -1.1181 -1.9389
  272MOL0     H35890   0.414  11.290   1.171  1.1247  1.2212 -0.8200
  272MOL0     H35891   0.587  11.160   1.260  1.0952  0.4966 -0.1493
  272MOL0     H35892   1.064  11.138   1.307 -0.6422 -0.9490 -1.1348
  272MOL0     H35893   1.224  11.065   1.469 -0.4314  0.0635 -0.0599
  272MOL0     H35894   1.251  10.646   1.523 -1.8238  2.0445 -1.6608
  272MOL0     H35895   1.166  10.664   1.682 -0.5009  4.8021  2.0890
  272MOL0     H35896   1.355  10.758   1.795  1.5813  0.4249  0.2840
  272MOL0     H35897   1.377  10.583   1.742  0.1049 -0.1303 -0.4552
  272MOL0     H35898   1.467  10.836   1.609 -1.7195  0.0095  1.6081
  272MOL0     H35899   1.515  10.661   1.568  1.4771 -0.7093  0.5758
  272MOL0     H35900   1.584  10.816   1.829  1.0253 -0.6379  0.4119
  272MOL0     H35901   1.616  10.633   1.794  1.2952  0.4254 -0.9522
  272MOL0     H35902   1.906  10.850   1.574  0.9068  2.6911  2.6001
  272MOL0     H35903   1.000  10.710   1.549  2.1696  0.0833 -0.2301
  272MOL0     H35904   0.814  10.791   1.391 -1.0722  0.2542  2.5416
  273MOL0     O35905   8.776   6.025   6.354 -0.4749  0.9516  0.6290
  273MOL0     C35906   8.775   5.907   6.311 -0.4911 -0.7785  0.4793
  273MOL0     O35907   8.671   5.822   6.298 -0.0189 -0.3953  0.1852
  273MOL0     C35908   8.551   5.860   6.339 -0.2166  0.2939 -0.4403
  273MOL0     C35909   8.430   5.842   6.272  0.4794  0.4471  0.2293
  273MOL0     C35910   8.314   5.902   6.324  0.7541 -0.2829 -0.0872
  273MOL0     C35911   8.303   5.973   6.444 -0.1727 -0.2001  0.5158
  273MOL0     O35912   8.186   6.039   6.483  0.1177 -0.2322  0.3817
  273MOL0     C35913   8.068   6.040   6.404 -0.1870  0.0165  0.6208
  273MOL0     C35914   7.963   6.107   6.490 -0.2594 -0.2403  0.8840
  273MOL0     C35915   7.825   6.123   6.429 -0.9525 -0.2456  0.2510
  273MOL0     C35916   7.725   6.179   6.525 -0.0843 -0.1896  0.6447
  273MOL0     C35917   7.579   6.162   6.473 -0.2082 -0.1232 -0.1307
  273MOL0     C35918   7.492   6.203   6.598  0.2571  0.3015 -0.3072
  273MOL0     C35919   7.350   6.258   6.568 -0.0519  0.3678 -0.0393
  273MOL0     C35920   7.286   6.299   6.695 -0.1024 -0.1453 -0.0088
  273MOL0     N35921   7.169   6.376   6.660  0.1908 -0.4994 -0.4061
  273MOL0     C35922   7.148   6.477   6.571 -0.6856  0.2932  0.6073
  273MOL0     C35923   7.017   6.520   6.575  0.2688  0.3783  0.3460
  273MOL0     C35924   6.959   6.630   6.488 -0.4553 -0.2064 -0.3780
  273MOL0     C35925   7.002   6.617   6.339 -0.0137  0.5712 -0.1705
  273MOL0     C35926   7.039   6.747   6.273  0.0993  0.2295 -0.3811
  273MOL0     C35927   6.939   6.857   6.277  0.0231  1.1030 -0.0095
  273MOL0     O35928   6.819   6.798   6.222  0.2086 -0.4925 -0.0780
  273MOL0     C35929   6.720   6.882   6.189 -0.3288 -0.3847  0.3998
  273MOL0     C35930   6.681   6.997   6.256  0.1446 -0.1494  0.0432
  273MOL0     C35931   6.579   7.074   6.202  0.4719  0.6757  0.2618
  273MOL0     C35932   6.506   7.034   6.087  0.1090  0.2925  0.4842
  273MOL0     C35933   6.391   7.116   6.049 -0.0331  0.1531 -0.0754
  273MOL0     O35934   6.300   7.054   5.988  0.2573 -0.3886 -0.1178
  273MOL0     C35935   6.195   7.128   5.936  0.0960 -0.1088  0.1166
  273MOL0     C35936   6.094   7.155   6.023  0.0377  0.6088 -0.2343
  273MOL0     C35937   5.984   7.222   5.972 -0.1033 -1.2567 -0.2106
  273MOL0     C35938   5.978   7.280   5.835  0.4747  0.2497 -0.2864
  273MOL0     O35939   5.862   7.352   5.805 -0.4086  0.4735 -0.2386
  273MOL0     C35940   5.852   7.407   5.672  0.5101  0.0851  0.0567
  273MOL0     C35941   5.717   7.480   5.655  0.2242  0.1877 -0.3334
  273MOL0     C35942   5.599   7.381   5.665 -0.0773  0.6739 -0.5904
  273MOL0     C35943   5.469   7.459   5.626  0.0613  0.0111  0.1806
  273MOL0     C35944   5.351   7.371   5.668 -0.5955 -0.2521  0.0782
  273MOL0     C35945   5.337   7.249   5.574  0.3844  0.1127 -0.1367
  273MOL0     C35946   5.206   7.171   5.611 -1.0051 -0.0628 -0.1811
  273MOL0     C35947   5.231   7.075   5.728 -0.0197 -0.5104  0.3862
  273MOL0    Cl35948   5.269   6.919   5.656  0.3110  0.4260  0.2636
  273MOL0     C35949   6.090   7.247   5.750 -0.3301  0.3736  0.6832
  273MOL0     C35950   6.204   7.181   5.810  0.0587 -0.6954 -0.4723
  273MOL0     O35951   6.392   7.235   6.079  1.0640 -0.0942  0.3209
  273MOL0     C35952   6.542   6.913   6.028 -0.2013 -0.3142  0.1452
  273MOL0     C35953   6.648   6.840   6.080 -0.2950  0.0575 -0.1049
  273MOL0     N35954   6.958   6.432   6.662 -0.2902 -0.3199 -0.7277
  273MOL0     N35955   7.047   6.352   6.707  0.2497  0.1558 -0.0195
  273MOL0     C35956   8.424   5.975   6.518  0.1935  0.4467 -0.9340
  273MOL0     C35957   8.541   5.921   6.463 -0.2912  0.2083 -1.0171
  273MOL0     C35958   8.902   5.858   6.267 -0.0893  0.2268  0.6395
  273MOL0     C35959   8.921   5.740   6.200  0.9807 -0.2232 -0.8453
  273MOL0     C35960   9.047   5.710   6.139  0.3882  0.7611  0.1324
  273MOL0     C35961   9.166   5.783   6.165  1.0922 -0.5462 -0.0908
  273MOL0     O35962   9.281   5.739   6.102  0.2494  0.1999 -0.0604
  273MOL0     C35963   9.393   5.792   6.168  0.1232 -0.3533 -0.7430
  273MOL0     C35964   9.527   5.710   6.143  0.4151  0.5275 -0.6166
  273MOL0     C35965   9.531   5.566   6.189  0.3914 -0.2606  0.4896
  273MOL0     C35966   9.568   5.545   6.343  0.5741  0.0499 -0.1168
  273MOL0     C35967   9.711   5.565   6.368 -0.1022 -0.4607 -1.0737
  273MOL0     C35968   9.829   5.561   6.380  0.0479  0.2344  0.4496
  273MOL0     C35969   9.146   5.902   6.240 -0.4589  1.1650  0.8179
  273MOL0     C35970   9.021   5.938   6.292 -0.9084  0.2703 -0.4123
  273MOL0     H35971   8.438   5.794   6.175  1.7668  1.0667  0.0101
  273MOL0     H35972   8.237   5.905   6.248  0.2993 -1.0445  0.3359
  273MOL0     H35973   8.044   5.939   6.371  2.5410 -0.8532  1.0876
  273MOL0     H35974   8.094   6.097   6.314 -0.0909 -2.2013 -0.8386
  273MOL0     H35975   8.001   6.207   6.510  4.3876 -2.2485  3.9958
  273MOL0     H35976   7.951   6.055   6.586  2.4179  1.3526  2.1791
  273MOL0     H35977   7.799   6.025   6.389 -3.0122  0.2221  0.3465
  273MOL0     H35978   7.837   6.198   6.350 -0.3170  0.9022  1.3818
  273MOL0     H35979   7.747   6.134   6.623  1.2811  0.8128  0.8255
  273MOL0     H35980   7.742   6.287   6.529 -1.2438  0.0861 -1.0736
  273MOL0     H35981   7.546   6.061   6.446  1.1082 -0.1971 -1.5486
  273MOL0     H35982   7.563   6.229   6.388 -3.3413 -0.2465  0.2521
  273MOL0     H35983   7.550   6.280   6.649  1.0136 -1.6809  1.9782
  273MOL0     H35984   7.484   6.111   6.657 -2.3435  1.3784  1.1771
  273MOL0     H35985   7.353   6.343   6.500  1.5257 -0.7507 -1.4394
  273MOL0     H35986   7.284   6.183   6.523  0.1281  0.7376 -0.9405
  273MOL0     H35987   7.352   6.355   6.763  3.6158 -1.4154 -2.2913
  273MOL0     H35988   7.249   6.207   6.742  0.6619 -1.2852 -1.5412
  273MOL0     H35989   7.227   6.530   6.519  0.8877 -3.0480 -0.7101
  273MOL0     H35990   7.000   6.725   6.524  0.6483 -1.3228  1.4651
  273MOL0     H35991   6.852   6.626   6.508 -0.1373 -1.3294  1.3207
  273MOL0     H35992   6.922   6.567   6.285  1.4216 -1.2899 -0.7015
  273MOL0     H35993   7.099   6.566   6.326  0.0071  0.3612  0.7070
  273MOL0     H35994   7.132   6.782   6.317 -0.5785 -0.2218  1.4911
  273MOL0     H35995   7.057   6.722   6.168 -4.0652 -2.4077 -0.7214
  273MOL0     H35996   6.974   6.945   6.222 -0.0236  0.3270 -1.3281
  273MOL0     H35997   6.920   6.887   6.380  2.2433  1.2593  0.4156
  273MOL0     H35998   6.743   7.028   6.340  1.4418 -2.4413  0.0198
  273MOL0     H35999   6.560   7.170   6.249 -1.5701  0.3840  0.1363
  273MOL0     H36000   6.094   7.117   6.125 -0.9109 -3.2325 -1.4774
  273MOL0     H36001   5.902   7.249   6.038  1.0449 -2.4258  1.8159
  273MOL0     H36002   5.861   7.330   5.595 -1.1239  0.4761 -0.5702
  273MOL0     H36003   5.943   7.465   5.650 -0.1007 -0.0279 -3.2501
  273MOL0     H36004   5.716   7.533   5.559 -0.3249  0.5005 -0.1608
  273MOL0     H36005   5.701   7.542   5.744  0.7116 -3.1011  2.2397
  273MOL0     H36006   5.586   7.351   5.769  2.4944  1.7226  0.1234
  273MOL0     H36007   5.608   7.297   5.596  0.7012  0.4053 -0.1660
  273MOL0     H36008   5.458   7.554   5.678  3.5782  0.0683  1.0584
  273MOL0     H36009   5.464   7.491   5.522  3.0256  2.5771  0.6631
  273MOL0     H36010   5.268   7.443   5.670  0.8889  1.5364  0.1163
  273MOL0     H36011   5.357   7.342   5.774 -0.4426  1.9685  0.7248
  273MOL0     H36012   5.419   7.177   5.578 -2.5827 -3.6540 -1.1450
  273MOL0     H36013   5.326   7.284   5.471  0.2822 -1.9903 -0.8917
  273MOL0     H36014   5.132   7.240   5.653 -3.0364 -3.0885  1.5288
  273MOL0     H36015   5.170   7.119   5.522 -1.1209  3.0857 -2.1471
  273MOL0     H36016   5.136   7.062   5.781 -0.5394 -1.5824 -0.7644
  273MOL0     H36017   5.312   7.095   5.798  1.1114 -1.7671 -0.5321
  273MOL0     H36018   6.097   7.274   5.646 -3.0826  1.5236  0.7089
  273MOL0     H36019   6.294   7.168   5.751  0.9412 -1.2485  0.9540
  273MOL0     H36020   6.484   6.872   5.946 -1.2036 -0.0018  0.6861
  273MOL0     H36021   6.687   6.746   6.044 -1.2288  0.3920 -2.1480
  273MOL0     H36022   8.419   6.022   6.616  0.9161 -3.3269  1.1242
  273MOL0     H36023   8.627   5.926   6.530 -2.9757 -2.0216  3.0480
  273MOL0     H36024   8.837   5.680   6.167 -0.1275  2.7849 -4.0852
  273MOL0     H36025   9.040   5.613   6.091  1.1905  0.1973  1.1115
  273MOL0     H36026   9.380   5.793   6.276 -0.2572  0.9025 -0.7941
  273MOL0     H36027   9.412   5.896   6.142 -0.3940  0.1551  0.8183
  273MOL0     H36028   9.551   5.710   6.036  0.7430 -0.7605 -0.5601
  273MOL0     H36029   9.606   5.762   6.198 -0.1384 -1.9211  2.7548
  273MOL0     H36030   9.599   5.509   6.125  0.5815  1.6174 -1.0831
  273MOL0     H36031   9.430   5.526   6.175 -0.3817  1.1842  1.6595
  273MOL0     H36032   9.521   5.612   6.416 -0.4010  0.1600 -0.8410
  273MOL0     H36033   9.520   5.452   6.374  0.7744 -0.0595 -0.1281
  273MOL0     H36034   9.935   5.569   6.375  0.1647 -1.4286 -0.4420
  273MOL0     H36035   9.232   5.958   6.275 -0.6672  1.6268  0.6103
  273MOL0     H36036   9.017   6.024   6.358  0.4671 -1.4790  2.1361
  274MOL0     O36037   9.837   9.596   3.599 -0.4119 -0.2036 -0.5292
  274MOL0     C36038   9.881   9.539   3.502 -0.2005  0.6331  1.0139
  274MOL0     O36039   9.812   9.519   3.385  0.4993  0.8006  0.2452
  274MOL0     C36040   9.683   9.563   3.371  0.8005 -0.1882 -0.4534
  274MOL0     C36041   9.637   9.701   3.350 -0.8355 -0.3823  0.0149
  274MOL0     C36042   9.514   9.735   3.312 -0.1215 -0.3877  0.4502
  274MOL0     C36043   9.418   9.632   3.306  0.8280 -0.2187  0.5325
  274MOL0     O36044   9.295   9.658   3.253  0.7477  0.2138 -0.5473
  274MOL0     C36045   9.184   9.565   3.275  0.6677  0.2705 -0.4484
  274MOL0     C36046   9.057   9.654   3.264 -0.2050  0.5909 -0.0471
  274MOL0     C36047   8.939   9.586   3.314  0.1927 -0.0875  0.5320
  274MOL0     C36048   8.805   9.659   3.275  0.8060 -0.0698  0.1639
  274MOL0     C36049   8.694   9.586   3.351  0.6348 -0.2154 -0.5492
  274MOL0     C36050   8.557   9.597   3.279 -0.2461  0.0118  0.1369
  274MOL0     C36051   8.446   9.509   3.354 -0.1438  0.4181  0.0453
  274MOL0     C36052   8.432   9.525   3.505  0.4154 -0.6929 -0.1326
  274MOL0     N36053   8.393   9.658   3.564 -0.1015  0.0048 -0.0378
  274MOL0     C36054   8.279   9.730   3.551 -0.4872  0.2839 -0.7207
  274MOL0     C36055   8.288   9.829   3.641  0.4977 -0.7112  0.6974
  274MOL0     C36056   8.194   9.947   3.645  0.3812 -0.3530 -0.4207
  274MOL0     C36057   8.046   9.899   3.642 -0.5409  0.3097  0.8264
  274MOL0     C36058   8.012   9.821   3.770  0.6068  0.3846 -0.0559
  274MOL0     C36059   7.859   9.806   3.802 -0.3370 -1.2404  0.4800
  274MOL0     O36060   7.812   9.920   3.873  0.6319 -0.1123 -0.2827
  274MOL0     C36061   7.680   9.919   3.913  0.5370 -0.0922  0.0864
  274MOL0     C36062   7.585   9.815   3.906 -0.6503  1.0067 -0.3843
  274MOL0     C36063   7.451   9.828   3.935 -1.2264 -0.2526 -0.0827
  274MOL0     C36064   7.407   9.949   3.994  0.5767 -0.3736  0.1001
  274MOL0     C36065   7.269   9.968   4.029 -0.2542 -0.4956 -0.1485
  274MOL0     O36066   7.187   9.862   3.999  0.2453 -0.4497  0.2262
  274MOL0     C36067   7.053   9.875   3.995  0.7918 -0.5979  0.4847
  274MOL0     C36068   6.971   9.979   4.047 -0.4551 -0.3122 -0.2175
  274MOL0     C36069   6.831   9.979   4.031  0.1795  0.5128 -0.9689
  274MOL0     C36070   6.759   9.880   3.965 -0.4146  0.4032  0.7957
  274MOL0     O36071   6.620   9.897   3.949 -0.5781 -0.1788 -0.6174
  274MOL0     C36072   6.542   9.793   3.889 -0.7714  0.5045  0.2352
  274MOL0     C36073   6.398   9.854   3.877 -0.6106 -0.6548 -0.3054
  274MOL0     C36074   6.303   9.751   3.810  0.4376  0.2698 -0.4685
  274MOL0     C36075   6.165   9.799   3.810  0.0118 -0.1673  0.9316
  274MOL0     C36076   6.072   9.712   3.719 -0.0252 -0.5891 -0.4288
  274MOL0     C36077   6.046   9.571   3.781 -0.1830 -0.3212  0.6076
  274MOL0     C36078   5.956   9.491   3.685 -0.4462 -0.3739 -0.0949
  274MOL0     C36079   5.939   9.351   3.736 -0.0835 -0.3356 -0.4199
  274MOL0    Cl36080   6.080   9.244   3.709 -0.0583  0.1425  0.0032
  274MOL0     C36081   6.841   9.771   3.926  0.7663  0.0072 -0.3719
  274MOL0     C36082   6.980   9.772   3.935 -0.1591  0.4895 -0.2105
  274MOL0     O36083   7.240  10.078   4.078 -0.3238  0.9109  0.3691
  274MOL0     C36084   7.502  10.054   4.013 -0.2070  1.1964  0.2571
  274MOL0     C36085   7.635  10.033   3.982  0.1546  0.4338 -0.4114
  274MOL0     N36086   8.404   9.813   3.702 -0.5742  0.1819  0.3406
  274MOL0     N36087   8.466   9.711   3.659 -0.3180  0.1642  0.4827
  274MOL0     C36088   9.447   9.505   3.345  0.3540  0.7348 -0.0358
  274MOL0     C36089   9.577   9.476   3.373  0.4277 -0.2542 -0.1992
  274MOL0     C36090  10.026   9.514   3.496 -0.3368 -0.3079 -0.0467
  274MOL0     C36091  10.105   9.538   3.615  0.2290  0.3939 -0.1775
  274MOL0     C36092  10.235   9.511   3.620 -0.6450  0.6554 -0.4480
  274MOL0     C36093  10.311   9.449   3.519 -0.2804  0.0603  0.1215
  274MOL0     O36094  10.444   9.425   3.540  0.4447  0.5092 -0.0294
  274MOL0     C36095  10.520   9.358   3.443 -0.2788 -0.1056  0.4869
  274MOL0     C36096  10.640   9.292   3.517  0.4528 -0.0322 -0.3965
  274MOL0     C36097  10.749   9.254   3.414  0.5741 -0.1314 -0.0218
  274MOL0     C36098  10.830   9.132   3.461  1.3586  0.7878 -0.2061
  274MOL0     C36099  10.757   9.003   3.463  0.6521 -0.4734  0.6611
  274MOL0     C36100  10.712   8.892   3.444  0.1845  0.7677  0.0116
  274MOL0     C36101  10.243   9.427   3.396  0.4828  0.1645 -0.1814
  274MOL0     C36102  10.100   9.458   3.392 -0.2558 -0.2995  0.5030
  274MOL0     H36103   9.713   9.778   3.364  1.0999 -2.3291  0.9479
  274MOL0     H36104   9.481   9.835   3.285  2.8577  0.3899 -0.6680
  274MOL0     H36105   9.185   9.508   3.368  0.5150 -0.8939 -1.1448
  274MOL0     H36106   9.174   9.497   3.190  0.7473  0.5694 -0.6999
  274MOL0     H36107   9.034   9.690   3.163 -1.7609 -1.2266 -0.4042
  274MOL0     H36108   9.071   9.741   3.328 -0.8807  0.6447  0.0376
  274MOL0     H36109   8.938   9.565   3.422  0.5862 -2.6154  0.1097
  274MOL0     H36110   8.935   9.496   3.252 -0.7720  1.4733 -1.7936
  274MOL0     H36111   8.814   9.763   3.307 -1.0556  0.2869 -0.3594
  274MOL0     H36112   8.783   9.656   3.167 -0.8045  2.0078  0.3556
  274MOL0     H36113   8.687   9.632   3.450 -0.6965 -2.6045  0.5470
  274MOL0     H36114   8.714   9.482   3.375 -3.3419 -0.3518  3.4073
  274MOL0     H36115   8.549   9.563   3.175 -4.1909  0.8492  0.0111
  274MOL0     H36116   8.523   9.700   3.281  0.5061  0.4261 -3.0891
  274MOL0     H36117   8.347   9.536   3.315  0.1623  3.4349  1.1247
  274MOL0     H36118   8.461   9.402   3.335 -0.7404 -0.0208  1.8473
  274MOL0     H36119   8.530   9.494   3.544  0.1074  2.2978  3.5529
  274MOL0     H36120   8.353   9.453   3.528 -1.9094  2.1485  1.3814
  274MOL0     H36121   8.203   9.717   3.474 -0.8058  0.2496 -0.4039
  274MOL0     H36122   8.204  10.016   3.561 -1.1771 -1.0397 -1.1976
  274MOL0     H36123   8.217  10.010   3.732 -0.4441  2.4301 -2.0796
  274MOL0     H36124   8.016   9.836   3.557  0.7038 -0.8388  1.2062
  274MOL0     H36125   7.986   9.991   3.645 -0.2995  0.6296 -1.5883
  274MOL0     H36126   8.047   9.718   3.762  0.3180  0.2822  0.0001
  274MOL0     H36127   8.054   9.871   3.858 -0.8994  3.2178 -0.8055
  274MOL0     H36128   7.833   9.712   3.852 -2.3496 -1.1154 -0.2415
  274MOL0     H36129   7.806   9.813   3.706  0.2144  4.1772  0.2426
  274MOL0     H36130   7.611   9.722   3.858  0.5574 -0.1049  2.2263
  274MOL0     H36131   7.387   9.741   3.920  3.2094 -3.8909 -0.0999
  274MOL0     H36132   7.011  10.059   4.109 -0.9655 -0.9417  0.9562
  274MOL0     H36133   6.775  10.063   4.071 -1.2282 -0.6771 -0.3177
  274MOL0     H36134   6.542   9.709   3.958  0.7095 -0.1887 -0.5472
  274MOL0     H36135   6.590   9.760   3.796 -0.3678  0.2192  0.5434
  274MOL0     H36136   6.411   9.944   3.816  0.4931  0.2730  1.2268
  274MOL0     H36137   6.352   9.900   3.965  1.6974  0.3016  0.4668
  274MOL0     H36138   6.298   9.661   3.872  1.0888  2.6534  3.3951
  274MOL0     H36139   6.338   9.740   3.707  1.7214  1.1068 -0.1479
  274MOL0     H36140   6.120   9.792   3.909  0.0636 -0.0584  0.9627
  274MOL0     H36141   6.166   9.904   3.780 -0.1789 -0.3258  0.3501
  274MOL0     H36142   6.113   9.703   3.618 -2.5005 -1.0034 -1.4633
  274MOL0     H36143   5.977   9.767   3.715  0.0517 -0.4376 -0.1918
  274MOL0     H36144   5.995   9.570   3.878  0.9008  1.5004  1.2436
  274MOL0     H36145   6.144   9.522   3.780 -0.0928 -0.1948 -1.8044
  274MOL0     H36146   5.861   9.545   3.689  1.0888  2.4392  0.8678
  274MOL0     H36147   5.991   9.486   3.582 -0.6610 -0.2260 -0.1781
  274MOL0     H36148   5.854   9.308   3.683  0.0507 -0.1843 -0.7605
  274MOL0     H36149   5.914   9.340   3.842  0.3536 -5.4534 -0.6062
  274MOL0     H36150   6.798   9.684   3.877 -0.9944  1.8124 -2.1630
  274MOL0     H36151   7.044   9.689   3.907 -0.3362 -0.6994  2.5812
  274MOL0     H36152   7.470  10.145   4.061  1.4424  1.8173  0.2616
  274MOL0     H36153   7.702  10.116   4.002  0.3914  0.3375 -0.7809
  274MOL0     H36154   9.370   9.432   3.368  1.1783 -0.2324 -0.2905
  274MOL0     H36155   9.591   9.384   3.427 -0.4985  1.0135  2.3690
  274MOL0     H36156  10.056   9.590   3.696 -1.2485 -0.7561 -0.3028
  274MOL0     H36157  10.279   9.546   3.713 -1.3639 -0.7262  0.4509
  274MOL0     H36158  10.553   9.436   3.373 -1.6794 -0.4420 -0.5923
  274MOL0     H36159  10.468   9.281   3.385  0.7825  0.2438 -1.0252
  274MOL0     H36160  10.674   9.362   3.594  1.6578  0.9166 -1.7294
  274MOL0     H36161  10.594   9.212   3.576  0.4900 -1.9554 -2.7732
  274MOL0     H36162  10.829   9.325   3.393  1.2157 -1.1950 -1.3493
  274MOL0     H36163  10.700   9.229   3.320  2.8189 -1.9681 -0.8101
  274MOL0     H36164  10.917   9.111   3.397  1.0759  0.2701 -0.4244
  274MOL0     H36165  10.866   9.159   3.561 -2.9302  2.0215  1.2136
  274MOL0     H36166  10.670   8.795   3.424  0.1308  0.9740 -0.9359
  274MOL0     H36167  10.289   9.371   3.315  1.3759 -0.5252  0.7686
  274MOL0     H36168  10.058   9.451   3.292 -0.0447 -0.9470  0.4516
  275MOL0     O36169  10.434   3.601   5.265 -0.2062  0.3898  0.4462
  275MOL0     C36170  10.486   3.652   5.173  0.8372 -0.2466  0.8588
  275MOL0     O36171  10.426   3.739   5.086  0.3983 -0.5547 -0.2124
  275MOL0     C36172  10.291   3.757   5.106  0.1955 -0.1116 -0.8056
  275MOL0     C36173  10.259   3.855   5.208  0.3187  0.5797 -0.4532
  275MOL0     C36174  10.126   3.889   5.238  0.6427  0.1418  0.0929
  275MOL0     C36175  10.028   3.825   5.163  0.1535  0.4076 -0.4472
  275MOL0     O36176   9.897   3.861   5.205  0.1182  0.1457  0.0413
  275MOL0     C36177   9.774   3.825   5.125  0.0083 -0.6984  0.0635
  275MOL0     C36178   9.653   3.853   5.208 -0.1460  0.0747  0.3845
  275MOL0     C36179   9.630   3.746   5.315 -0.0190 -0.2413 -0.0260
  275MOL0     C36180   9.507   3.780   5.396 -0.4520  0.2013  0.7592
  275MOL0     C36181   9.493   3.712   5.527  0.0310 -0.1675  0.1146
  275MOL0     C36182   9.364   3.741   5.593  0.1105  0.6467  0.1139
  275MOL0     C36183   9.284   3.622   5.550  0.4025 -0.1661 -0.0674
  275MOL0     C36184   9.153   3.637   5.634 -0.2751 -0.1061  0.6329
  275MOL0     N36185   9.065   3.746   5.581  0.1887  0.2874 -0.0076
  275MOL0     C36186   8.984   3.727   5.477 -0.1882  0.5426 -0.8949
  275MOL0     C36187   8.909   3.835   5.463 -0.3258 -0.0372 -0.8827
  275MOL0     C36188   8.791   3.842   5.373 -0.3769 -0.3127 -0.2627
  275MOL0     C36189   8.664   3.887   5.436 -0.3743 -0.3785 -0.0677
  275MOL0     C36190   8.588   3.967   5.328  0.0090  0.4205  0.4232
  275MOL0     C36191   8.447   4.002   5.360  0.2636  0.2232 -0.2445
  275MOL0     O36192   8.376   4.058   5.258  0.4068  0.6720 -0.0414
  275MOL0     C36193   8.237   4.056   5.281 -0.1357 -0.0430 -0.0542
  275MOL0     C36194   8.175   4.081   5.157 -0.0463  0.3242  0.1279
  275MOL0     C36195   8.039   4.114   5.158 -0.4949  0.2117 -0.1724
  275MOL0     C36196   7.961   4.127   5.268  0.1287  0.5430  0.0526
  275MOL0     C36197   7.817   4.170   5.260  0.0831 -0.2358 -0.2445
  275MOL0     O36198   7.770   4.215   5.132  0.6467  0.0476 -0.3892
  275MOL0     C36199   7.634   4.241   5.127 -0.0228 -0.2023 -1.2260
  275MOL0     C36200   7.578   4.359   5.183 -0.8807 -0.3086 -0.1334
  275MOL0     C36201   7.441   4.377   5.174  0.6826  0.8291 -0.1117
  275MOL0     C36202   7.346   4.292   5.117 -0.5121  0.4088  0.0518
  275MOL0     O36203   7.216   4.315   5.099 -1.1021  0.2613  0.4949
  275MOL0     C36204   7.167   4.452   5.095  0.3148  0.6252  0.3109
  275MOL0     C36205   7.014   4.460   5.076  0.1461  0.0099 -0.3933
  275MOL0     C36206   6.965   4.601   5.048 -0.0063 -0.1729 -0.7134
  275MOL0     C36207   6.814   4.623   5.068 -0.3798  0.8901  0.1530
  275MOL0     C36208   6.773   4.757   5.027  0.8361  0.8968 -0.3197
  275MOL0     C36209   6.619   4.778   5.045  0.0636  0.3212  0.1624
  275MOL0     C36210   6.591   4.808   5.195  0.5455 -0.6965 -0.0271
  275MOL0     C36211   6.446   4.839   5.225  0.6620  0.1795 -0.2636
  275MOL0    Cl36212   6.332   4.749   5.121 -0.2679  0.1546  0.1160
  275MOL0     C36213   7.405   4.178   5.050 -0.5908  0.0630  0.2068
  275MOL0     C36214   7.547   4.161   5.055  0.2284  1.0618 -0.1559
  275MOL0     O36215   7.752   4.167   5.363  0.1852  0.0660  0.0658
  275MOL0     C36216   8.021   4.081   5.386  0.2871  1.0991  0.0327
  275MOL0     C36217   8.159   4.043   5.397  0.8776  0.7617  0.8922
  275MOL0     N36218   8.963   3.933   5.549  0.5413 -0.7256 -0.1448
  275MOL0     N36219   9.055   3.873   5.624  1.0467 -0.6813 -0.5062
  275MOL0     C36220  10.059   3.727   5.064 -0.6162 -0.0450 -0.1226
  275MOL0     C36221  10.192   3.697   5.028 -0.3647 -0.0350  0.3487
  275MOL0     C36222  10.630   3.620   5.146  0.7525 -0.0201 -0.6945
  275MOL0     C36223  10.690   3.655   5.025 -0.6260 -0.7842  0.4518
  275MOL0     C36224  10.833   3.636   5.014  0.1969 -0.0067  0.1708
  275MOL0     C36225  10.900   3.556   5.103 -0.2383 -0.3465 -0.7329
  275MOL0     O36226  11.019   3.499   5.069 -0.0763 -0.2391  0.4623
  275MOL0     C36227  11.122   3.521   5.164  0.7642  0.3436  0.2395
  275MOL0     C36228  11.179   3.392   5.204 -0.3920 -0.5439 -0.0950
  275MOL0     C36229  11.328   3.407   5.219 -0.2156 -0.2193 -0.1103
  275MOL0     C36230  11.403   3.279   5.256  0.9423  0.2510  0.0770
  275MOL0     C36231  11.543   3.312   5.272  0.1424 -0.4002  0.3691
  275MOL0     C36232  11.655   3.353   5.295 -0.4612  0.4740  0.0060
  275MOL0     C36233  10.834   3.521   5.215 -0.3284  0.2071 -0.5122
  275MOL0     C36234  10.704   3.550   5.241 -0.1797  1.4542  0.5762
  275MOL0     H36235  10.343   3.894   5.265  0.3460  0.5585 -0.4785
  275MOL0     H36236  10.091   3.955   5.316  0.2494 -0.3962  0.3830
  275MOL0     H36237   9.767   3.721   5.092 -0.4737 -1.0063  1.0984
  275MOL0     H36238   9.770   3.886   5.034  0.0840 -0.2932  0.3311
  275MOL0     H36239   9.564   3.853   5.144  0.6428  1.2843 -0.7647
  275MOL0     H36240   9.658   3.955   5.248  1.2165 -1.2467  3.9995
  275MOL0     H36241   9.727   3.754   5.364 -0.0542  2.2516 -0.2305
  275MOL0     H36242   9.619   3.642   5.284 -1.9002  0.4904 -2.0983
  275MOL0     H36243   9.511   3.888   5.413  2.4313  0.2227  0.4833
  275MOL0     H36244   9.421   3.754   5.334 -0.3589 -1.6677  1.3517
  275MOL0     H36245   9.575   3.748   5.590  0.6773  1.4957 -1.5816
  275MOL0     H36246   9.518   3.607   5.512  2.5310  0.4088 -0.2095
  275MOL0     H36247   9.313   3.830   5.556 -1.6014 -0.5347 -0.5412
  275MOL0     H36248   9.370   3.752   5.701 -4.3514  2.8290  0.3591
  275MOL0     H36249   9.252   3.621   5.446  2.1138 -0.7729 -0.6176
  275MOL0     H36250   9.327   3.524   5.574  0.5867 -0.4130 -1.3740
  275MOL0     H36251   9.173   3.661   5.739 -0.5174  1.1269  0.4168
  275MOL0     H36252   9.094   3.546   5.637  2.0808 -1.7056  1.0596
  275MOL0     H36253   8.996   3.649   5.402  0.8931  0.0413 -0.2308
  275MOL0     H36254   8.783   3.743   5.325 -0.6771 -0.6061  0.3693
  275MOL0     H36255   8.825   3.898   5.286  1.8789 -2.6913 -1.0598
  275MOL0     H36256   8.675   3.948   5.527  1.1150 -3.4825  2.0186
  275MOL0     H36257   8.597   3.804   5.460 -0.3293 -0.1604  0.8601
  275MOL0     H36258   8.642   4.061   5.314 -0.2262  0.5638  0.4709
  275MOL0     H36259   8.587   3.911   5.234 -2.7643  2.4302 -0.9128
  275MOL0     H36260   8.455   4.086   5.429  1.1243  0.0534 -0.1286
  275MOL0     H36261   8.417   3.916   5.420  1.7516 -0.1812 -0.0380
  275MOL0     H36262   8.231   4.084   5.065  0.2013 -0.4760  0.2397
  275MOL0     H36263   7.988   4.135   5.064 -2.3819  2.2391  1.2104
  275MOL0     H36264   7.645   4.429   5.231 -2.9377  2.8508 -1.4809
  275MOL0     H36265   7.399   4.463   5.225 -0.8181 -0.7703  1.4765
  275MOL0     H36266   7.218   4.507   5.016 -1.8240  0.3823 -1.3334
  275MOL0     H36267   7.184   4.497   5.193  0.2986 -0.9922  1.0922
  275MOL0     H36268   6.968   4.415   5.164  0.8251  1.9031  1.0037
  275MOL0     H36269   6.993   4.393   4.993  1.8495 -1.1161  0.0254
  275MOL0     H36270   7.013   4.627   4.953  3.1956 -0.4464  0.7073
  275MOL0     H36271   7.014   4.657   5.128 -0.4252 -1.3612  0.4102
  275MOL0     H36272   6.760   4.547   5.011  0.4669  1.1048 -0.9782
  275MOL0     H36273   6.786   4.599   5.171  1.6794 -1.3245  0.2830
  275MOL0     H36274   6.812   4.777   4.926  2.0796 -1.4806 -0.3727
  275MOL0     H36275   6.819   4.828   5.096 -0.0663  0.5870  0.6209
  275MOL0     H36276   6.567   4.686   5.017 -1.8367  0.9521  1.3922
  275MOL0     H36277   6.589   4.867   4.990  3.2476  2.4289  1.4831
  275MOL0     H36278   6.613   4.721   5.257  0.8421  0.9070  2.2742
  275MOL0     H36279   6.649   4.891   5.237  0.5959 -1.8062  2.2765
  275MOL0     H36280   6.418   4.944   5.213 -2.1752 -0.5687 -1.0306
  275MOL0     H36281   6.417   4.820   5.328 -0.6694 -0.5001 -0.7336
  275MOL0     H36282   7.347   4.118   4.981  0.3282  2.2485 -2.6460
  275MOL0     H36283   7.581   4.074   4.999 -0.5863  0.4484  0.2929
  275MOL0     H36284   7.963   4.076   5.477 -1.4484 -1.5992 -1.0990
  275MOL0     H36285   8.201   4.018   5.494  1.1955 -1.2514  0.2696
  275MOL0     H36286   9.981   3.677   5.007 -1.0046 -1.1132  1.2821
  275MOL0     H36287  10.215   3.628   4.947 -0.6421  0.3031 -0.0218
  275MOL0     H36288  10.639   3.706   4.943 -1.2159 -1.6393  0.2742
  275MOL0     H36289  10.887   3.671   4.927  0.8483  2.1578  1.3944
  275MOL0     H36290  11.090   3.560   5.261 -2.6084 -2.4057  0.4323
  275MOL0     H36291  11.198   3.592   5.133  0.9876  0.3804  0.8642
  275MOL0     H36292  11.135   3.357   5.297 -1.4408  2.1912  0.5540
  275MOL0     H36293  11.169   3.313   5.128 -1.0040 -0.3356 -0.2434
  275MOL0     H36294  11.347   3.480   5.299 -1.1943  0.1463 -0.1966
  275MOL0     H36295  11.377   3.444   5.129 -0.8012 -0.9802 -0.7517
  275MOL0     H36296  11.360   3.240   5.349 -0.0081  1.0678 -0.0125
  275MOL0     H36297  11.392   3.208   5.174  1.7259  2.0311 -1.6476
  275MOL0     H36298  11.753   3.393   5.309  0.1633  0.3522 -3.3412
  275MOL0     H36299  10.886   3.456   5.285 -0.4393 -0.5573 -1.1133
  275MOL0     H36300  10.647   3.510   5.324 -2.3854 -1.0354 -1.9192
  276MOL0     O36301   7.524   0.548   5.262 -0.1094  0.4590 -0.4109
  276MOL0     C36302   7.634   0.559   5.320 -0.8697  0.4423 -0.6410
  276MOL0     O36303   7.659   0.612   5.444  0.2089  0.9706  0.1777
  276MOL0     C36304   7.568   0.688   5.516  0.0091  0.5503  0.1451
  276MOL0     C36305   7.455   0.755   5.469  0.6069  0.5028  0.1715
  276MOL0     C36306   7.372   0.830   5.555 -0.2679 -0.2377 -0.5416
  276MOL0     C36307   7.394   0.822   5.696  0.5185  0.0956  0.1056
  276MOL0     O36308   7.328   0.891   5.784 -0.4101 -0.4895 -0.4122
  276MOL0     C36309   7.242   1.002   5.744  0.0441 -0.0723  0.3097
  276MOL0     C36310   7.190   1.075   5.876 -0.0575 -0.4583 -0.7695
  276MOL0     C36311   7.074   1.166   5.845  0.3787 -0.5032 -0.0163
  276MOL0     C36312   7.021   1.220   5.979 -0.4022 -0.4296  0.2613
  276MOL0     C36313   6.884   1.282   5.956  0.7314  0.5959  0.8367
  276MOL0     C36314   6.852   1.391   6.067  0.7524  0.1770 -0.8218
  276MOL0     C36315   6.701   1.407   6.067  0.8574 -0.2778 -0.0569
  276MOL0     C36316   6.662   1.521   6.163  0.1252  0.2451  0.8561
  276MOL0     N36317   6.514   1.547   6.165 -0.1876  0.1317 -0.0745
  276MOL0     C36318   6.441   1.629   6.080  0.3226  0.6163 -0.3299
  276MOL0     C36319   6.309   1.604   6.125 -0.6663  0.3680 -0.2284
  276MOL0     C36320   6.183   1.669   6.069  0.7632 -0.1091  0.7104
  276MOL0     C36321   6.094   1.560   6.026  0.1676 -0.5365 -0.1256
  276MOL0     C36322   6.135   1.476   5.897 -0.2071 -0.8312 -0.1881
  276MOL0     C36323   6.139   1.555   5.769 -0.4246  0.2755  0.2586
  276MOL0     O36324   6.031   1.648   5.743  0.4226 -0.1666  0.2862
  276MOL0     C36325   5.910   1.601   5.714 -0.0143 -0.2233 -0.5073
  276MOL0     C36326   5.886   1.470   5.667  0.1541 -0.1717 -0.0751
  276MOL0     C36327   5.757   1.432   5.613  0.7456 -0.4203 -0.2150
  276MOL0     C36328   5.643   1.514   5.641 -0.1801  0.3945 -0.2141
  276MOL0     C36329   5.500   1.469   5.599  0.3491  0.3564 -0.1677
  276MOL0     O36330   5.401   1.563   5.610 -0.4000  0.6827 -0.6003
  276MOL0     C36331   5.272   1.536   5.587 -0.4109 -0.2826 -0.1443
  276MOL0     C36332   5.188   1.424   5.603 -0.0900 -0.8140  0.8000
  276MOL0     C36333   5.048   1.440   5.584 -0.7006 -0.0794 -0.2142
  276MOL0     C36334   4.998   1.555   5.538  0.9643 -0.3783  0.0953
  276MOL0     O36335   4.867   1.584   5.512  0.2286 -0.2141  0.1498
  276MOL0     C36336   4.757   1.497   5.558  0.7582  0.6641  0.0092
  276MOL0     C36337   4.621   1.539   5.519  0.9975 -0.0227  0.2592
  276MOL0     C36338   4.572   1.500   5.378  1.0770  0.3268 -0.2674
  276MOL0     C36339   4.645   1.570   5.275  0.6766  0.6283 -0.1899
  276MOL0     C36340   4.558   1.581   5.149  0.8951 -0.6341 -0.4447
  276MOL0     C36341   4.640   1.636   5.033  0.2849 -0.5029  0.2896
  276MOL0     C36342   4.551   1.643   4.907 -1.0324  0.4792 -0.3923
  276MOL0     C36343   4.441   1.748   4.923  0.6545 -0.5708  0.4992
  276MOL0    Cl36344   4.375   1.766   4.764  0.1583 -0.0018  0.4503
  276MOL0     C36345   5.076   1.660   5.516 -0.7740 -0.2782  0.0389
  276MOL0     C36346   5.213   1.660   5.543 -0.2600  0.1452  0.9953
  276MOL0     O36347   5.488   1.352   5.558  0.1631 -0.1876 -0.2911
  276MOL0     C36348   5.657   1.634   5.710 -0.0487  0.2838  0.3876
  276MOL0     C36349   5.790   1.674   5.747  0.5453  0.5271  0.6052
  276MOL0     N36350   6.310   1.510   6.228 -0.0530 -0.4860 -0.7486
  276MOL0     N36351   6.432   1.472   6.249  0.3847 -0.1685 -0.0102
  276MOL0     C36352   7.496   0.752   5.746 -0.8757 -0.4374 -0.0174
  276MOL0     C36353   7.585   0.687   5.659  0.2605 -0.3955 -1.2375
  276MOL0     C36354   7.750   0.484   5.259 -0.0712 -0.3224  0.6286
  276MOL0     C36355   7.875   0.473   5.326  0.0738 -0.2696 -0.1941
  276MOL0     C36356   7.991   0.412   5.277 -0.5453 -0.7113 -0.1002
  276MOL0     C36357   7.981   0.351   5.153  0.2998 -0.0756  0.1801
  276MOL0     O36358   8.086   0.292   5.100  0.0647  0.0239  0.9230
  276MOL0     C36359   8.066   0.177   5.027  0.7379  0.2471 -0.3472
  276MOL0     C36360   8.202   0.128   4.975  1.4124 -0.9429 -0.8647
  276MOL0     C36361   8.306   0.112   5.094  0.1964 -0.9229  0.6347
  276MOL0     C36362   8.450   0.084   5.041  0.5770 -0.2555 -0.7352
  276MOL0     C36363   8.570   0.142   5.108 -0.8250 -0.9593  0.0207
  276MOL0     C36364   8.672   0.177   5.168  0.2930  0.5496  1.0431
  276MOL0     C36365   7.861   0.360   5.081  1.0723  0.0458 -0.3111
  276MOL0     C36366   7.744   0.422   5.136 -0.3189 -0.4498  0.0314
  276MOL0     H36367   7.427   0.758   5.364  0.6594 -1.4799  0.0715
  276MOL0     H36368   7.300   0.899   5.513 -1.6480 -1.8156 -0.8554
  276MOL0     H36369   7.151   0.966   5.696  0.4717 -4.5988  2.3937
  276MOL0     H36370   7.299   1.068   5.678 -0.4220 -0.3313 -0.3573
  276MOL0     H36371   7.270   1.142   5.909  0.4427 -1.7032  0.6763
  276MOL0     H36372   7.169   1.005   5.957 -0.0637 -1.9497 -2.0028
  276MOL0     H36373   6.996   1.103   5.802  0.6705 -0.9363  0.0872
  276MOL0     H36374   7.094   1.246   5.773 -1.3556  0.6726  0.7285
  276MOL0     H36375   7.018   1.151   6.063 -0.3730  0.7667  1.2714
  276MOL0     H36376   7.078   1.306   6.015 -0.6415 -0.4413  0.6752
  276MOL0     H36377   6.806   1.205   5.954  0.4597  0.8103  2.3054
  276MOL0     H36378   6.888   1.340   5.863 -1.3278  1.0978  1.0242
  276MOL0     H36379   6.898   1.486   6.037 -2.6204  2.0794 -0.4519
  276MOL0     H36380   6.881   1.356   6.167 -2.9570 -0.0696  0.3156
  276MOL0     H36381   6.655   1.423   5.969 -0.8065 -0.3901  0.6684
  276MOL0     H36382   6.657   1.313   6.101 -1.6579  0.9002  0.1400
  276MOL0     H36383   6.729   1.607   6.160 -0.1866  0.4659 -0.7987
  276MOL0     H36384   6.697   1.484   6.260  0.3065 -0.6702  0.4494
  276MOL0     H36385   6.489   1.696   6.009  3.2725  0.4313  1.3252
  276MOL0     H36386   6.202   1.728   5.979  1.5714 -0.5601  0.5804
  276MOL0     H36387   6.124   1.724   6.143 -1.0649 -2.4420  1.1120
  276MOL0     H36388   5.997   1.609   6.014  0.1719  0.3805  2.7462
  276MOL0     H36389   6.074   1.489   6.107  1.2625 -1.7807 -0.8867
  276MOL0     H36390   6.232   1.426   5.898  0.1092 -0.2916 -1.6069
  276MOL0     H36391   6.055   1.403   5.885 -1.8492  0.2444  3.0055
  276MOL0     H36392   6.165   1.485   5.688 -0.8259 -2.9191  2.6778
  276MOL0     H36393   6.226   1.620   5.781  0.3415 -0.8298  0.9276
  276MOL0     H36394   5.966   1.404   5.636  0.2206  0.3860 -1.1272
  276MOL0     H36395   5.742   1.342   5.555  0.0049  1.1828 -2.6378
  276MOL0     H36396   5.239   1.332   5.632 -1.8126 -2.1013 -0.0503
  276MOL0     H36397   4.984   1.352   5.591 -0.3251 -0.2309  3.9242
  276MOL0     H36398   4.775   1.501   5.666  1.9725 -0.1861 -0.1334
  276MOL0     H36399   4.761   1.390   5.533 -1.2843  1.2046 -3.0697
  276MOL0     H36400   4.616   1.646   5.542  1.7911 -0.4358  2.5713
  276MOL0     H36401   4.552   1.480   5.580 -3.0994  1.3175 -2.6570
  276MOL0     H36402   4.464   1.512   5.372 -0.0373 -3.9836  4.5043
  276MOL0     H36403   4.580   1.392   5.361 -0.1930 -0.1417  1.7800
  276MOL0     H36404   4.679   1.669   5.307  2.1448  0.8851 -2.3455
  276MOL0     H36405   4.734   1.510   5.254 -0.0835  0.1610 -2.2847
  276MOL0     H36406   4.475   1.650   5.169 -0.0518 -1.5582 -1.0568
  276MOL0     H36407   4.518   1.482   5.124 -0.4789  0.0063 -0.8907
  276MOL0     H36408   4.736   1.585   5.017  0.2047 -0.9344  1.1542
  276MOL0     H36409   4.671   1.740   5.051  3.4384 -1.3712  0.6186
  276MOL0     H36410   4.612   1.687   4.827 -0.9986 -1.3314 -1.4044
  276MOL0     H36411   4.508   1.545   4.888  1.5179 -0.5820 -1.1329
  276MOL0     H36412   4.474   1.849   4.948  3.1390 -1.3620  0.6930
  276MOL0     H36413   4.369   1.718   4.999  1.9484 -3.7566  0.6233
  276MOL0     H36414   5.029   1.755   5.490  2.1013  1.0986 -0.5789
  276MOL0     H36415   5.279   1.740   5.510  0.5929 -1.2868 -0.9921
  276MOL0     H36416   5.564   1.683   5.736 -1.3761 -2.1873  0.6405
  276MOL0     H36417   5.802   1.775   5.785 -2.8506  1.1854  0.2435
  276MOL0     H36418   7.514   0.755   5.853  1.9471  1.0947 -0.4252
  276MOL0     H36419   7.664   0.623   5.698  0.4249  1.0185  0.9585
  276MOL0     H36420   7.882   0.521   5.423 -1.2995 -0.0511 -0.1854
  276MOL0     H36421   8.086   0.408   5.328 -0.2281  1.6370 -0.3879
  276MOL0     H36422   7.991   0.195   4.950 -3.7164  1.8458  3.9178
  276MOL0     H36423   8.017   0.099   5.087 -3.3270  1.5445 -1.7270
  276MOL0     H36424   8.181   0.031   4.928 -1.7193  0.5010 -2.7775
  276MOL0     H36425   8.232   0.198   4.897  1.9597 -0.7286 -0.4682
  276MOL0     H36426   8.267   0.030   5.155 -1.4400 -0.7076 -0.1004
  276MOL0     H36427   8.311   0.208   5.146  1.4645 -0.2112 -0.7333
  276MOL0     H36428   8.468  -0.023   5.059 -0.0964 -0.6538 -2.2633
  276MOL0     H36429   8.456   0.091   4.932  3.1963 -3.8279 -1.0153
  276MOL0     H36430   8.765   0.203   5.215  2.9094 -2.4586 -1.8333
  276MOL0     H36431   7.832   0.310   4.989 -1.3201  1.7459 -0.5759
  276MOL0     H36432   7.653   0.424   5.077  0.0247 -2.0135 -0.5893
  277MOL0     O36433   7.936   8.078   5.119 -0.4749 -0.2727 -0.3592
  277MOL0     C36434   7.936   8.083   4.998  0.5279  0.6422  0.2598
  277MOL0     O36435   7.823   8.075   4.911 -0.2630  0.2951 -0.0493
  277MOL0     C36436   7.700   8.024   4.953  0.2726 -0.4883  0.1563
  277MOL0     C36437   7.650   8.059   5.077 -0.4278 -0.8833  0.1850
  277MOL0     C36438   7.527   8.004   5.116  0.3649  0.2172  0.3944
  277MOL0     C36439   7.452   7.921   5.036 -0.9000 -1.0030  0.4327
  277MOL0     O36440   7.336   7.871   5.085  0.1794 -0.2088  0.6698
  277MOL0     C36441   7.238   7.809   4.993 -0.2981  0.0866 -0.6005
  277MOL0     C36442   7.111   7.780   5.075 -0.2734 -0.3861  0.5228
  277MOL0     C36443   7.002   7.727   4.970 -0.1945  0.3556  0.0094
  277MOL0     C36444   6.862   7.724   5.038  0.5661 -1.1815  0.2255
  277MOL0     C36445   6.745   7.667   4.948 -0.3423 -0.3207 -0.6178
  277MOL0     C36446   6.739   7.512   4.938  0.4284  0.4237  0.2140
  277MOL0     C36447   6.602   7.448   4.909  0.1016 -0.1040  1.1541
  277MOL0     C36448   6.608   7.305   4.855 -0.4557  0.3350 -0.6985
  277MOL0     N36449   6.618   7.212   4.957 -1.0354  0.4593 -0.5714
  277MOL0     C36450   6.745   7.169   5.011  0.5487  0.0897 -0.5400
  277MOL0     C36451   6.703   7.098   5.115 -0.4586  0.4901 -0.6430
  277MOL0     C36452   6.799   7.028   5.212 -0.3046 -0.0523  1.1978
  277MOL0     C36453   6.841   6.887   5.152  0.4185  0.4660  0.0733
  277MOL0     C36454   6.829   6.764   5.254  0.2839 -0.1485 -0.1318
  277MOL0     C36455   6.884   6.635   5.192 -0.5109 -0.5743 -0.3823
  277MOL0     O36456   6.818   6.602   5.079  0.4404  0.5452  0.7824
  277MOL0     C36457   6.860   6.492   5.011 -0.3677 -0.5152  0.3118
  277MOL0     C36458   6.939   6.499   4.901 -1.1967  0.2035 -0.8362
  277MOL0     C36459   6.971   6.384   4.832  0.0013  0.7096 -1.2043
  277MOL0     C36460   6.938   6.261   4.890  0.4125  0.2168 -0.5740
  277MOL0     C36461   6.972   6.133   4.821  0.2470 -0.2922  1.3152
  277MOL0     O36462   6.936   6.016   4.872 -0.1163 -0.8376 -0.5621
  277MOL0     C36463   6.949   5.892   4.814  0.4762 -0.0710 -0.3155
  277MOL0     C36464   7.070   5.857   4.749  1.1331  0.3281 -0.1846
  277MOL0     C36465   7.080   5.734   4.687  0.3476 -0.4038 -0.7398
  277MOL0     C36466   6.963   5.645   4.687  0.3021 -0.1386  0.4735
  277MOL0     O36467   6.960   5.531   4.610 -0.4650 -0.0384  0.3529
  277MOL0     C36468   7.038   5.544   4.489 -1.0857 -0.0290 -0.6867
  277MOL0     C36469   6.978   5.443   4.387 -0.0056  0.0632 -0.1215
  277MOL0     C36470   7.063   5.429   4.265 -1.7612  0.5364 -0.0047
  277MOL0     C36471   7.187   5.327   4.288  0.0597 -0.2831  0.4294
  277MOL0     C36472   7.302   5.366   4.200  0.2699 -0.3320  1.1643
  277MOL0     C36473   7.364   5.499   4.246 -0.1032  0.2190 -0.2665
  277MOL0     C36474   7.502   5.535   4.176 -0.2116 -0.1174  0.4846
  277MOL0     C36475   7.469   5.595   4.042 -0.5261  0.2634  0.4627
  277MOL0    Cl36476   7.627   5.636   3.963 -0.0777 -0.5847 -0.4502
  277MOL0     C36477   6.851   5.686   4.751  0.6994 -0.3984  0.0319
  277MOL0     C36478   6.842   5.807   4.821 -0.2673  0.2661  0.0352
  277MOL0     O36479   7.025   6.149   4.715 -0.6091 -0.4415  0.1950
  277MOL0     C36480   6.851   6.245   4.997  0.5929 -0.9672 -0.0523
  277MOL0     C36481   6.808   6.368   5.051  0.5467  0.1495 -0.4401
  277MOL0     N36482   6.571   7.096   5.125  0.3294 -0.4954  0.5932
  277MOL0     N36483   6.524   7.149   5.023  0.2847 -0.1607 -0.0191
  277MOL0     C36484   7.505   7.894   4.909 -0.0088  0.2069 -0.3342
  277MOL0     C36485   7.627   7.939   4.866 -0.1286 -0.7041  0.1034
  277MOL0     C36486   8.080   8.094   4.932  0.6165 -0.1745 -0.6798
  277MOL0     C36487   8.199   8.064   5.006  0.5892  0.1932 -0.2897
  277MOL0     C36488   8.320   8.088   4.947 -0.1105  0.0113  0.0319
  277MOL0     C36489   8.328   8.140   4.820  0.4514 -0.0379  1.4431
  277MOL0     O36490   8.453   8.143   4.760  0.2178  0.6455 -0.1980
  277MOL0     C36491   8.464   8.118   4.619  0.3435 -0.6608 -0.4762
  277MOL0     C36492   8.486   8.242   4.542 -0.1320  0.7036  0.8643
  277MOL0     C36493   8.625   8.305   4.574 -0.7596 -0.5098  0.3018
  277MOL0     C36494   8.635   8.446   4.507  0.2719 -0.6731  0.7414
  277MOL0     C36495   8.673   8.449   4.363  0.3922 -0.2352 -0.7998
  277MOL0     C36496   8.703   8.464   4.251 -0.2391 -0.7665  0.5817
  277MOL0     C36497   8.211   8.173   4.738 -0.2149 -0.1889  0.0931
  277MOL0     C36498   8.090   8.140   4.804 -0.8622  0.1603  0.0954
  277MOL0     H36499   7.695   8.131   5.145  0.2241 -2.8082  1.9084
  277MOL0     H36500   7.503   8.018   5.221 -4.2503  0.8816 -0.5479
  277MOL0     H36501   7.283   7.722   4.946  1.6984  1.5633 -1.5796
  277MOL0     H36502   7.206   7.870   4.908 -1.5917 -3.4760 -2.8895
  277MOL0     H36503   7.078   7.879   5.105 -1.4369  0.7198 -3.6625
  277MOL0     H36504   7.133   7.700   5.147  2.4353  1.1076  1.4718
  277MOL0     H36505   7.035   7.631   4.929  0.8667 -0.3062  2.2966
  277MOL0     H36506   6.993   7.799   4.887  0.6517 -0.6693 -1.0032
  277MOL0     H36507   6.869   7.680   5.138  2.6337 -1.3344  0.0694
  277MOL0     H36508   6.835   7.827   5.062  1.6539 -1.5479  3.6015
  277MOL0     H36509   6.754   7.705   4.845  2.6609  1.1314  0.0702
  277MOL0     H36510   6.650   7.698   4.991 -0.5838 -0.1177 -1.2794
  277MOL0     H36511   6.761   7.475   5.039  2.7938  0.1568 -0.3496
  277MOL0     H36512   6.821   7.475   4.877 -0.3715  0.3948 -0.8682
  277MOL0     H36513   6.535   7.452   4.995 -0.6785  3.0211  0.5526
  277MOL0     H36514   6.556   7.514   4.835 -0.2981 -0.0570  1.4375
  277MOL0     H36515   6.686   7.288   4.780 -0.8511 -1.4282 -0.7387
  277MOL0     H36516   6.515   7.287   4.801 -1.0530  1.8911 -0.2471
  277MOL0     H36517   6.848   7.184   4.981  0.7307  0.3284  0.1766
  277MOL0     H36518   6.754   7.019   5.312  0.0208 -0.8764  1.2811
  277MOL0     H36519   6.875   7.105   5.225 -2.2827  1.8440  2.3118
  277MOL0     H36520   6.942   6.894   5.111 -0.1743 -2.5724 -2.2632
  277MOL0     H36521   6.786   6.859   5.062 -1.3465 -0.8660  1.4844
  277MOL0     H36522   6.886   6.789   5.344 -0.1740  2.3412 -0.4549
  277MOL0     H36523   6.727   6.748   5.289 -0.1272 -1.1025 -1.6842
  277MOL0     H36524   6.860   6.551   5.257 -1.3860  0.0822  0.1562
  277MOL0     H36525   6.991   6.641   5.171 -0.0150 -1.9261  1.5649
  277MOL0     H36526   6.968   6.598   4.869 -0.4040  0.9537  1.9323
  277MOL0     H36527   7.025   6.384   4.738  2.9117  0.0023  0.3614
  277MOL0     H36528   7.146   5.934   4.744  1.1459  0.3092 -0.2681
  277MOL0     H36529   7.169   5.702   4.633 -0.9717 -2.4598 -1.8543
  277MOL0     H36530   7.145   5.522   4.497 -0.9766  0.0726 -1.6973
  277MOL0     H36531   7.033   5.647   4.452  1.8596  1.9903  3.6768
  277MOL0     H36532   6.881   5.476   4.349 -0.7357 -1.7642  0.0204
  277MOL0     H36533   6.956   5.345   4.432 -1.1617  0.7592  0.8904
  277MOL0     H36534   7.096   5.529   4.235  0.9020  0.1705  1.4159
  277MOL0     H36535   7.002   5.386   4.185 -1.1430 -0.1447 -0.1192
  277MOL0     H36536   7.217   5.341   4.392 -0.0478  0.2091  0.3994
  277MOL0     H36537   7.160   5.223   4.270 -1.3379  0.5085 -2.8787
  277MOL0     H36538   7.257   5.362   4.101 -2.8929 -0.8357  2.4996
  277MOL0     H36539   7.375   5.284   4.197  0.5167 -0.0951 -0.6771
  277MOL0     H36540   7.386   5.480   4.352 -0.9815  2.5114  0.4017
  277MOL0     H36541   7.305   5.591   4.236  0.3537  0.4228 -1.1693
  277MOL0     H36542   7.566   5.603   4.233 -0.4927 -0.7860  1.6242
  277MOL0     H36543   7.559   5.444   4.157 -1.7437 -1.0358  0.0484
  277MOL0     H36544   7.407   5.684   4.042 -0.5374  0.3122 -1.8674
  277MOL0     H36545   7.424   5.523   3.973 -1.0650  0.4162  0.6543
  277MOL0     H36546   6.758   5.630   4.744 -0.8810  1.5900  2.9473
  277MOL0     H36547   6.746   5.827   4.869 -0.1321 -2.6671  1.7540
  277MOL0     H36548   6.804   6.155   5.036  1.0655 -0.2638  2.2367
  277MOL0     H36549   6.748   6.366   5.141 -2.0980 -2.2471 -2.0802
  277MOL0     H36550   7.456   7.821   4.846  0.1218 -0.2705  0.1059
  277MOL0     H36551   7.677   7.908   4.775 -1.4136 -3.1629  0.1528
  277MOL0     H36552   8.208   8.023   5.106 -0.2704 -0.7443 -0.5796
  277MOL0     H36553   8.410   8.062   5.002 -0.0156  0.5100  0.1198
  277MOL0     H36554   8.371   8.070   4.587  0.4393 -2.0198  1.1452
  277MOL0     H36555   8.547   8.047   4.610  2.0804  1.1799  0.1533
  277MOL0     H36556   8.483   8.223   4.435  4.0197  1.5945  0.4215
  277MOL0     H36557   8.405   8.310   4.569 -0.2718  0.6208  0.6560
  277MOL0     H36558   8.706   8.241   4.538  0.9141 -0.5339  3.6527
  277MOL0     H36559   8.633   8.325   4.682  1.5317  0.9645 -0.0736
  277MOL0     H36560   8.546   8.511   4.513  2.3788  3.7091 -5.5474
  277MOL0     H36561   8.710   8.501   4.564  0.6390 -2.3482  1.9280
  277MOL0     H36562   8.741   8.492   4.155 -2.2261  2.3079  0.5474
  277MOL0     H36563   8.215   8.216   4.639  3.1492 -0.5759 -0.0624
  277MOL0     H36564   8.001   8.163   4.746 -0.3986  1.6852 -0.0592
  278MOL0     O36565   8.563   3.035   2.534  0.0081 -0.1094  0.0046
  278MOL0     C36566   8.581   3.130   2.607 -0.2729  0.2427  0.1930
  278MOL0     O36567   8.485   3.210   2.659  0.5337  0.0466 -0.0555
  278MOL0     C36568   8.367   3.216   2.588 -0.4657  0.5072  0.1742
  278MOL0     C36569   8.248   3.194   2.655 -0.7134  0.0534  0.0644
  278MOL0     C36570   8.130   3.203   2.583 -0.3516  1.3435  0.1498
  278MOL0     C36571   8.131   3.233   2.445  0.6764  0.2107  0.4305
  278MOL0     O36572   8.004   3.210   2.374 -0.3514 -0.1697 -0.2990
  278MOL0     C36573   7.907   3.306   2.391  0.1205  0.0216 -0.1994
  278MOL0     C36574   7.773   3.225   2.427 -0.5142 -1.0021 -0.0034
  278MOL0     C36575   7.660   3.328   2.453 -0.2255 -0.1547  1.0456
  278MOL0     C36576   7.525   3.251   2.477  0.1789 -0.6652  0.0656
  278MOL0     C36577   7.418   3.358   2.512  0.2765 -1.0886  0.5543
  278MOL0     C36578   7.280   3.297   2.533 -0.0640  0.0268  0.5659
  278MOL0     C36579   7.186   3.387   2.611  0.3501 -0.4796  0.5861
  278MOL0     C36580   7.147   3.522   2.552  0.6055  0.1268  0.8309
  278MOL0     N36581   7.070   3.515   2.423  0.2246  0.3136  0.3530
  278MOL0     C36582   7.132   3.495   2.303  0.4212  0.3751 -0.3979
  278MOL0     C36583   7.042   3.449   2.218 -0.2186  0.5795 -0.0141
  278MOL0     C36584   7.067   3.408   2.070  0.1975  0.2626 -0.8463
  278MOL0     C36585   6.968   3.289   2.012 -0.7586 -0.6649  0.4902
  278MOL0     C36586   7.001   3.156   2.073 -0.1082 -0.2623  0.5603
  278MOL0     C36587   6.891   3.076   2.140  1.1476  0.0493 -0.3664
  278MOL0     O36588   6.792   3.040   2.044 -0.6607  0.3117  0.0547
  278MOL0     C36589   6.689   2.957   2.081  0.2539 -0.1321  0.2354
  278MOL0     C36590   6.708   2.829   2.145 -0.1379 -0.1385  0.7832
  278MOL0     C36591   6.606   2.742   2.171 -0.5655 -0.9289  1.0861
  278MOL0     C36592   6.479   2.773   2.112 -0.0898 -0.2389  0.0185
  278MOL0     C36593   6.371   2.672   2.129 -0.1065  0.5617 -0.4602
  278MOL0     O36594   6.256   2.675   2.064  0.3447  0.7888 -0.1723
  278MOL0     C36595   6.147   2.603   2.089  1.1112 -0.0677 -0.3448
  278MOL0     C36596   6.122   2.502   2.185 -0.8951 -1.0109 -0.0263
  278MOL0     C36597   5.997   2.439   2.196 -0.0085  0.5373  0.2975
  278MOL0     C36598   5.887   2.483   2.127 -0.1145  0.0046  0.3829
  278MOL0     O36599   5.756   2.446   2.148  0.7809  0.5979  0.3839
  278MOL0     C36600   5.731   2.320   2.234 -0.0063 -0.2444 -0.3177
  278MOL0     C36601   5.764   2.192   2.153  0.6405  0.2233 -1.0991
  278MOL0     C36602   5.699   2.063   2.204  0.2423 -0.6417 -1.1058
  278MOL0     C36603   5.731   1.934   2.122 -0.4132 -0.3012  0.0347
  278MOL0     C36604   5.716   1.796   2.191  0.5573 -0.6364  0.2510
  278MOL0     C36605   5.567   1.752   2.218  0.8501 -0.0899 -0.1966
  278MOL0     C36606   5.556   1.625   2.297 -0.0820  0.0946 -0.0323
  278MOL0     C36607   5.413   1.578   2.316 -0.4677  0.4082  0.4196
  278MOL0    Cl36608   5.411   1.412   2.376  0.2491  0.0639 -0.1785
  278MOL0     C36609   5.909   2.582   2.022  0.4263 -1.1014 -1.5364
  278MOL0     C36610   6.037   2.639   2.008  0.3386 -0.1164 -0.5666
  278MOL0     O36611   6.405   2.588   2.219 -0.0307 -0.1288  0.1232
  278MOL0     C36612   6.458   2.892   2.041 -0.0360  0.1316 -0.8836
  278MOL0     C36613   6.567   2.984   2.026  0.2604 -0.9173 -1.2197
  278MOL0     N36614   6.918   3.464   2.274  0.5912  0.2407  0.4212
  278MOL0     N36615   6.942   3.471   2.402 -0.5705 -0.6320  0.1338
  278MOL0     C36616   8.251   3.253   2.382  0.1253 -0.1847 -0.2094
  278MOL0     C36617   8.366   3.246   2.452 -0.1759  0.0403  0.2466
  278MOL0     C36618   8.712   3.144   2.664 -0.3021  0.3986 -0.3607
  278MOL0     C36619   8.736   3.227   2.771  1.2927 -0.2568 -0.1121
  278MOL0     C36620   8.862   3.256   2.820  0.6565  0.0875  0.3249
  278MOL0     C36621   8.976   3.198   2.764  0.1601  0.6094 -0.7062
  278MOL0     O36622   9.102   3.207   2.823  0.4082  0.7413 -0.2338
  278MOL0     C36623   9.133   3.265   2.950  0.5810  0.6904 -0.2657
  278MOL0     C36624   9.088   3.173   3.066  0.1893  0.6952 -0.5346
  278MOL0     C36625   9.155   3.045   3.078  1.2380 -0.3871 -1.2823
  278MOL0     C36626   9.062   2.924   3.117  1.0115 -1.0306 -0.0492
  278MOL0     C36627   8.987   2.869   3.005 -0.6425 -0.2897  0.4013
  278MOL0     C36628   8.938   2.814   2.909  0.3022  0.5787  0.7156
  278MOL0     C36629   8.963   3.120   2.652  0.3067  0.6539  0.6607
  278MOL0     C36630   8.832   3.094   2.609 -0.5358  0.3837  0.7645
  278MOL0     H36631   8.241   3.172   2.761 -3.4864  1.3899  0.2453
  278MOL0     H36632   8.037   3.174   2.631 -0.4572 -0.3917 -1.0404
  278MOL0     H36633   7.892   3.355   2.294 -1.5726  1.3061  0.6590
  278MOL0     H36634   7.935   3.380   2.467 -1.6293  0.4176  0.1099
  278MOL0     H36635   7.790   3.174   2.523 -0.9767 -2.4830 -0.6722
  278MOL0     H36636   7.755   3.148   2.351  0.8290  0.7117 -2.1737
  278MOL0     H36637   7.655   3.393   2.365 -2.2386  0.7934  1.7924
  278MOL0     H36638   7.674   3.395   2.538 -2.9204  2.6748 -0.4992
  278MOL0     H36639   7.499   3.184   2.394 -0.9092 -0.5594  0.3015
  278MOL0     H36640   7.541   3.193   2.568  0.2067  0.0821  0.5414
  278MOL0     H36641   7.408   3.434   2.434  3.4427 -1.8177 -0.6874
  278MOL0     H36642   7.463   3.408   2.599  0.1751  1.4580 -0.7613
  278MOL0     H36643   7.293   3.217   2.607 -1.8706 -0.8683 -0.0214
  278MOL0     H36644   7.232   3.256   2.444 -2.5918  1.3593  1.2408
  278MOL0     H36645   7.094   3.329   2.625  0.5026 -1.3465 -1.6325
  278MOL0     H36646   7.221   3.418   2.710  0.9836 -0.1722  0.2671
  278MOL0     H36647   7.243   3.573   2.544  0.8762 -0.2267  1.8047
  278MOL0     H36648   7.092   3.587   2.622  2.1448  2.0295  0.3674
  278MOL0     H36649   7.239   3.507   2.288  0.2876  2.0135 -0.2821
  278MOL0     H36650   7.171   3.374   2.071  0.5866  1.3297  1.6001
  278MOL0     H36651   7.060   3.487   1.994  0.3904  0.5646 -0.5510
  278MOL0     H36652   6.984   3.300   1.904  1.5718  0.9760  0.9308
  278MOL0     H36653   6.861   3.310   2.006 -0.6596 -0.5072 -1.7823
  278MOL0     H36654   7.059   3.094   2.004  2.3894  2.5213 -0.0222
  278MOL0     H36655   7.067   3.180   2.157  1.4010 -1.4867 -0.2381
  278MOL0     H36656   6.843   3.130   2.222 -0.7519 -0.7562 -0.8907
  278MOL0     H36657   6.930   2.990   2.195  0.1254 -0.0449  0.2377
  278MOL0     H36658   6.807   2.803   2.182  1.5578  1.4872 -2.1990
  278MOL0     H36659   6.626   2.653   2.230 -0.8255 -2.5858 -1.1845
  278MOL0     H36660   6.202   2.468   2.250  1.4847  2.7161 -0.7198
  278MOL0     H36661   5.986   2.360   2.270  0.4758  0.1780 -0.0040
  278MOL0     H36662   5.624   2.322   2.257  0.5450  1.5274  2.6187
  278MOL0     H36663   5.776   2.316   2.334 -0.9126  3.2462  0.3719
  278MOL0     H36664   5.872   2.181   2.163  0.5801  0.3281 -0.1976
  278MOL0     H36665   5.747   2.204   2.046 -0.8813 -1.4700 -1.0856
  278MOL0     H36666   5.590   2.069   2.196  0.2196  0.9057 -0.1379
  278MOL0     H36667   5.715   2.047   2.311 -0.3282  3.1595 -0.2945
  278MOL0     H36668   5.661   1.929   2.038 -1.8813 -3.0030  1.2995
  278MOL0     H36669   5.830   1.921   2.075 -1.5364 -1.8612 -2.0775
  278MOL0     H36670   5.784   1.808   2.276  1.4092  0.8103 -0.5957
  278MOL0     H36671   5.765   1.720   2.128 -0.6438 -1.0860 -0.1696
  278MOL0     H36672   5.514   1.738   2.123 -1.7297 -2.5722  1.4726
  278MOL0     H36673   5.518   1.828   2.279 -0.4568 -1.7469  0.9177
  278MOL0     H36674   5.611   1.548   2.241 -1.7347  0.0782 -1.7222
  278MOL0     H36675   5.600   1.640   2.396 -2.1571  1.0942  0.7753
  278MOL0     H36676   5.355   1.586   2.224  2.6999  0.4773 -1.7291
  278MOL0     H36677   5.380   1.643   2.397 -1.1665 -0.1462  0.5919
  278MOL0     H36678   5.822   2.619   1.969 -0.2375 -1.6923 -0.8970
  278MOL0     H36679   6.062   2.716   1.936 -0.7644 -0.7188 -1.6335
  278MOL0     H36680   6.368   2.920   1.988 -0.4531  0.4637 -0.0286
  278MOL0     H36681   6.553   3.082   1.982  2.2086  1.2672  2.4864
  278MOL0     H36682   8.245   3.245   2.274 -0.2850 -0.6176 -0.1522
  278MOL0     H36683   8.457   3.269   2.397 -0.1457  2.5827  1.2552
  278MOL0     H36684   8.657   3.275   2.828  0.8087 -1.1352 -0.0264
  278MOL0     H36685   8.878   3.317   2.909  1.0700  0.7501 -0.1950
  278MOL0     H36686   9.090   3.364   2.966  0.0648  0.5251 -0.5724
  278MOL0     H36687   9.241   3.267   2.964  0.5776 -2.9397  1.4081
  278MOL0     H36688   9.109   3.231   3.156  0.4487  1.5687 -1.1423
  278MOL0     H36689   8.979   3.161   3.058  0.3401 -0.9450 -0.6096
  278MOL0     H36690   9.234   3.054   3.153  0.8923  0.4206 -1.0120
  278MOL0     H36691   9.215   3.016   2.991  0.8537 -2.8925 -0.8125
  278MOL0     H36692   9.121   2.846   3.165  2.2849 -0.2362 -0.2922
  278MOL0     H36693   8.983   2.951   3.187 -0.6510 -1.0795 -1.8087
  278MOL0     H36694   8.881   2.767   2.832  0.8971 -2.2901  1.9255
  278MOL0     H36695   9.055   3.090   2.601  1.0117  2.3267  0.8890
  278MOL0     H36696   8.819   3.025   2.526 -0.1239 -0.6504  1.5435
  279MOL0     O36697  11.162   5.095   1.734  0.7969 -0.0189 -0.0736
  279MOL0     C36698  11.218   5.158   1.818  0.4961  0.1952  0.3108
  279MOL0     O36699  11.154   5.244   1.904 -0.6092  0.5273 -0.5998
  279MOL0     C36700  11.026   5.280   1.877  0.2398  0.0902 -0.0948
  279MOL0     C36701  11.003   5.406   1.820  0.1871 -0.3208 -0.9136
  279MOL0     C36702  10.870   5.445   1.801 -0.9583  0.2030 -0.3213
  279MOL0     C36703  10.762   5.360   1.837 -0.8994 -0.0146  0.3909
  279MOL0     O36704  10.641   5.411   1.815 -0.1356  0.0700 -0.6179
  279MOL0     C36705  10.526   5.329   1.802  0.8507 -0.0410  0.0455
  279MOL0     C36706  10.395   5.406   1.794  0.0551 -0.0272 -0.2103
  279MOL0     C36707  10.278   5.321   1.732 -0.1211  0.3077 -0.8078
  279MOL0     C36708  10.170   5.408   1.677  0.2110 -0.1426  0.5173
  279MOL0     C36709  10.067   5.324   1.610  0.1677  0.7574 -0.5071
  279MOL0     C36710   9.937   5.397   1.557 -0.6080 -0.2385 -1.1378
  279MOL0     C36711   9.846   5.299   1.478  0.3448 -0.4036  0.2242
  279MOL0     C36712   9.743   5.379   1.399  0.8929 -0.2235  0.2367
  279MOL0     N36713   9.695   5.303   1.291  0.8547 -0.5130 -0.6700
  279MOL0     C36714   9.584   5.219   1.287  0.0251 -0.4493  0.1371
  279MOL0     C36715   9.586   5.172   1.155  0.8168  0.5949 -0.1470
  279MOL0     C36716   9.473   5.092   1.087 -0.1750 -0.1014 -0.2619
  279MOL0     C36717   9.425   4.970   1.170  0.1145 -0.2525 -0.1003
  279MOL0     C36718   9.308   4.899   1.106 -0.1613 -0.4801  0.0034
  279MOL0     C36719   9.253   4.789   1.200  0.2751  0.0428 -0.3422
  279MOL0     O36720   9.120   4.761   1.156 -0.1338 -0.4224 -0.4154
  279MOL0     C36721   9.035   4.687   1.232  0.2428 -0.0410  0.8600
  279MOL0     C36722   8.910   4.652   1.183  0.2937  0.5859  0.6195
  279MOL0     C36723   8.823   4.559   1.250 -0.5615  0.7332 -0.3031
  279MOL0     C36724   8.860   4.506   1.372  0.4198 -0.1349  0.1551
  279MOL0     C36725   8.781   4.399   1.443 -0.5661 -0.3148  0.4306
  279MOL0     O36726   8.655   4.372   1.389  0.0285  0.2169  0.4452
  279MOL0     C36727   8.557   4.304   1.467 -0.3284  0.2333  0.1892
  279MOL0     C36728   8.471   4.211   1.404  0.0795  0.5938 -0.5031
  279MOL0     C36729   8.364   4.155   1.475  0.2322  0.4613 -0.3595
  279MOL0     C36730   8.346   4.177   1.607  0.6676 -0.1185 -0.1266
  279MOL0     O36731   8.254   4.135   1.691  0.8866  0.0441  0.4911
  279MOL0     C36732   8.129   4.122   1.627  0.2105  0.5966 -0.1442
  279MOL0     C36733   8.014   4.088   1.716  0.1963 -0.4733  0.3469
  279MOL0     C36734   7.888   4.131   1.650 -0.1643  0.1668 -0.2587
  279MOL0     C36735   7.851   4.053   1.519  0.0869  0.4572  0.9208
  279MOL0     C36736   7.707   4.042   1.467 -0.0546 -0.6145 -0.5103
  279MOL0     C36737   7.628   4.179   1.476 -0.4532  0.7675  0.2687
  279MOL0     C36738   7.499   4.185   1.402 -0.6265 -0.1392 -0.1647
  279MOL0     C36739   7.431   4.312   1.454 -0.7855 -0.8561 -0.6790
  279MOL0    Cl36740   7.382   4.312   1.627  0.0092 -0.1913  0.0291
  279MOL0     C36741   8.441   4.257   1.671  0.3373  0.2592  0.0638
  279MOL0     C36742   8.540   4.324   1.602 -0.1421 -0.4450 -1.0655
  279MOL0     O36743   8.829   4.331   1.536 -0.2733  0.1276  0.0229
  279MOL0     C36744   8.979   4.549   1.434 -0.6681 -0.8475  0.1526
  279MOL0     C36745   9.064   4.641   1.360  0.7021  0.7184 -0.4101
  279MOL0     N36746   9.704   5.208   1.101 -0.5598 -0.0182 -0.1922
  279MOL0     N36747   9.758   5.298   1.170 -0.7655 -0.1892 -0.5871
  279MOL0     C36748  10.785   5.232   1.903 -0.5634 -0.2718 -0.9698
  279MOL0     C36749  10.914   5.196   1.917  0.1939 -0.0489  0.5314
  279MOL0     C36750  11.358   5.138   1.842 -0.9083 -0.1488 -1.1324
  279MOL0     C36751  11.437   5.064   1.756  0.3547  0.2835  0.4257
  279MOL0     C36752  11.576   5.048   1.765  1.0400  0.0176 -1.4114
  279MOL0     C36753  11.642   5.088   1.886  0.2918 -0.0016  1.0978
  279MOL0     O36754  11.782   5.071   1.887  0.0342 -0.3263  0.2167
  279MOL0     C36755  11.832   5.064   2.021  0.3521 -0.2686  0.1011
  279MOL0     C36756  11.983   5.049   2.040 -0.0552 -0.7824  0.5379
  279MOL0     C36757  12.049   5.179   1.998  0.3427 -0.4108  0.0412
  279MOL0     C36758  12.205   5.163   2.033  0.2405 -0.0982 -0.4761
  279MOL0     C36759  12.273   5.089   1.927  1.0833 -0.1012 -0.6604
  279MOL0     C36760  12.342   5.016   1.863 -0.8037 -0.5020 -1.0159
  279MOL0     C36761  11.564   5.153   1.981 -0.1461 -0.5864 -0.4339
  279MOL0     C36762  11.427   5.180   1.960  0.4587  0.1513  0.3128
  279MOL0     H36763  11.093   5.464   1.800  0.6287 -0.4526  0.6135
  279MOL0     H36764  10.845   5.539   1.754  2.6986  0.6079 -1.8061
  279MOL0     H36765  10.524   5.248   1.875  1.0302  1.0813  1.3461
  279MOL0     H36766  10.549   5.272   1.711  0.4764 -1.3343  0.7415
  279MOL0     H36767  10.408   5.493   1.730 -0.6304  0.9505  0.9279
  279MOL0     H36768  10.367   5.439   1.895 -0.0236 -0.5633 -0.0536
  279MOL0     H36769  10.244   5.244   1.802  4.1931 -0.9969  0.1137
  279MOL0     H36770  10.313   5.257   1.651  0.1971 -0.8666  0.2233
  279MOL0     H36771  10.134   5.464   1.764 -1.2446  1.9534 -1.3358
  279MOL0     H36772  10.213   5.485   1.613 -0.4529  0.6018  0.9407
  279MOL0     H36773  10.037   5.246   1.680 -1.0918  1.0646 -0.6809
  279MOL0     H36774  10.117   5.276   1.526  1.1117  1.0465 -0.1196
  279MOL0     H36775   9.965   5.482   1.494  1.8138  1.6799  2.1859
  279MOL0     H36776   9.873   5.445   1.632  1.0862 -0.4370  0.5234
  279MOL0     H36777   9.901   5.235   1.408 -2.4295 -1.4236 -1.1666
  279MOL0     H36778   9.807   5.235   1.558 -0.0364  0.3451  0.6513
  279MOL0     H36779   9.796   5.464   1.356 -1.4499  0.8454 -0.6427
  279MOL0     H36780   9.668   5.413   1.471  0.6695  4.0820 -1.7381
  279MOL0     H36781   9.507   5.216   1.363  0.0013  2.2303  0.3172
  279MOL0     H36782   9.511   5.055   0.991 -0.5795  0.0313 -0.4743
  279MOL0     H36783   9.381   5.147   1.070 -0.5691 -0.5152  0.4725
  279MOL0     H36784   9.405   5.001   1.273 -0.2288 -0.2826 -0.1564
  279MOL0     H36785   9.502   4.892   1.176 -1.5212 -2.0905 -1.3912
  279MOL0     H36786   9.225   4.969   1.088  0.9782  1.3473  1.4589
  279MOL0     H36787   9.335   4.872   1.003  2.0842  2.1533 -0.2170
  279MOL0     H36788   9.241   4.829   1.301 -0.3478 -0.7884 -0.0778
  279MOL0     H36789   9.316   4.700   1.209 -2.3667 -1.7953  1.2322
  279MOL0     H36790   8.885   4.694   1.086 -0.1571  1.4277  1.0875
  279MOL0     H36791   8.733   4.525   1.198  0.2220 -0.6096 -0.8185
  279MOL0     H36792   8.484   4.189   1.299  0.7168  1.2340 -0.5687
  279MOL0     H36793   8.300   4.094   1.411  0.6573  1.2944 -1.6030
  279MOL0     H36794   8.140   4.039   1.556  0.0969 -0.5264  1.1055
  279MOL0     H36795   8.109   4.213   1.569 -2.5011  1.3246  1.7732
  279MOL0     H36796   8.033   4.136   1.812 -0.1965  0.4738 -0.0430
  279MOL0     H36797   8.023   3.983   1.748 -0.0790  0.2280  2.8824
  279MOL0     H36798   7.879   4.240   1.642 -2.3361  0.3571  2.9353
  279MOL0     H36799   7.813   4.101   1.723  1.5589 -3.1877  0.3322
  279MOL0     H36800   7.916   4.093   1.441 -0.7736  1.7225  0.8184
  279MOL0     H36801   7.887   3.951   1.537  0.7540  0.3050 -1.0105
  279MOL0     H36802   7.642   3.971   1.519 -2.1088  0.5534 -1.3482
  279MOL0     H36803   7.721   4.005   1.365  1.7182 -2.2209  0.2550
  279MOL0     H36804   7.691   4.262   1.443  0.5874  0.1489  0.6642
  279MOL0     H36805   7.605   4.178   1.583 -1.4441 -3.2768  0.1745
  279MOL0     H36806   7.529   4.197   1.297 -0.0637  4.5751  0.3145
  279MOL0     H36807   7.433   4.098   1.413 -2.9670  1.4882 -0.6552
  279MOL0     H36808   7.341   4.334   1.396 -0.3307 -1.2970 -1.5653
  279MOL0     H36809   7.497   4.397   1.436 -0.5685 -0.7289  0.6007
  279MOL0     H36810   8.440   4.277   1.778  1.3846 -1.7288  0.4898
  279MOL0     H36811   8.615   4.386   1.650 -1.1447  1.0728 -1.3793
  279MOL0     H36812   9.009   4.517   1.533 -0.7942  1.1399  0.8951
  279MOL0     H36813   9.149   4.679   1.416  0.2560  1.7025 -0.3767
  279MOL0     H36814  10.710   5.164   1.942 -0.4676 -0.7097 -1.5365
  279MOL0     H36815  10.940   5.102   1.966  0.7761  1.0083  2.3311
  279MOL0     H36816  11.386   5.016   1.673  1.7043  0.7608 -0.7274
  279MOL0     H36817  11.623   4.986   1.689 -0.3776 -0.8873 -1.5837
  279MOL0     H36818  11.792   4.972   2.066  1.4196  0.0812  1.8379
  279MOL0     H36819  11.793   5.145   2.082 -1.9230 -0.4597 -1.0201
  279MOL0     H36820  12.011   5.031   2.144  3.0428  0.2376 -0.0244
  279MOL0     H36821  12.023   4.966   1.983  0.6083 -1.8073  2.4084
  279MOL0     H36822  12.009   5.255   2.066  0.6253 -0.6996  0.5287
  279MOL0     H36823  12.032   5.202   1.892 -0.3761 -2.6550 -0.4020
  279MOL0     H36824  12.254   5.260   2.044 -0.1379  0.0258  0.1819
  279MOL0     H36825  12.213   5.108   2.128 -2.4989 -3.6068 -2.0518
  279MOL0     H36826  12.408   4.942   1.821 -0.1437  1.1543 -3.0224
  279MOL0     H36827  11.608   5.192   2.073  0.5624  2.2182 -1.8481
  279MOL0     H36828  11.360   5.227   2.031 -1.8680 -5.4522  2.4164
  280MOL0     O36829   5.452   7.045   0.615  0.0047 -0.1248 -0.6150
  280MOL0     C36830   5.479   6.975   0.518 -0.6273  0.2195  0.1323
  280MOL0     O36831   5.396   6.945   0.418 -1.2265 -0.4938 -0.5326
  280MOL0     C36832   5.258   6.926   0.432  0.7280 -0.4225 -0.2493
  280MOL0     C36833   5.190   6.922   0.316  0.3262  1.1442 -0.2944
  280MOL0     C36834   5.052   6.880   0.318  0.4708 -0.5345  0.9401
  280MOL0     C36835   4.978   6.873   0.441  0.5285 -0.4907  0.9518
  280MOL0     O36836   4.844   6.841   0.452 -0.4752 -0.7065 -0.0853
  280MOL0     C36837   4.756   6.829   0.339 -0.2690  0.3061 -0.3556
  280MOL0     C36838   4.626   6.906   0.367  0.0021 -0.7220  0.0393
  280MOL0     C36839   4.506   6.826   0.296  1.1855 -0.0800 -0.0757
  280MOL0     C36840   4.370   6.923   0.282 -0.4339 -0.0068 -0.6362
  280MOL0     C36841   4.246   6.849   0.219  0.2402 -0.1138 -0.2328
  280MOL0     C36842   4.200   6.745   0.315 -0.0810  0.4529 -0.9420
  280MOL0     C36843   4.051   6.719   0.292 -0.5598  0.0624  0.4578
  280MOL0     C36844   3.995   6.616   0.389 -0.0921  0.5248  0.1189
  280MOL0     N36845   3.860   6.672   0.433  0.1311  0.5450  0.2509
  280MOL0     C36846   3.747   6.663   0.354 -0.0522  0.3886  0.3952
  280MOL0     C36847   3.656   6.738   0.413  0.0968  0.0370 -0.3466
  280MOL0     C36848   3.521   6.771   0.360  0.7064 -0.8751 -0.0949
  280MOL0     C36849   3.416   6.743   0.463  0.5470 -0.2613  0.8006
  280MOL0     C36850   3.272   6.755   0.419 -0.3422  0.7515  0.8423
  280MOL0     C36851   3.180   6.754   0.533  0.1558  0.5499 -0.4167
  280MOL0     O36852   3.040   6.767   0.479 -0.0880  0.5199  0.4059
  280MOL0     C36853   2.958   6.657   0.464  0.6360  0.7482 -0.6792
  280MOL0     C36854   2.818   6.693   0.481  0.3733 -0.8062  0.0063
  280MOL0     C36855   2.716   6.600   0.463  0.4494  0.7762 -0.0233
  280MOL0     C36856   2.751   6.464   0.463  1.3677 -0.2698 -0.3107
  280MOL0     C36857   2.640   6.367   0.464  0.3789  0.6039 -0.2587
  280MOL0     O36858   2.527   6.390   0.539 -0.9866 -0.0177  0.3223
  280MOL0     C36859   2.403   6.338   0.510 -0.6297  0.2976 -0.1261
  280MOL0     C36860   2.372   6.291   0.382 -0.1172  0.6464 -0.1864
  280MOL0     C36861   2.244   6.236   0.360  0.2541 -0.1182  0.5299
  280MOL0     C36862   2.151   6.221   0.460 -0.1220  0.5174 -0.4216
  280MOL0     O36863   2.038   6.158   0.431 -0.0918 -0.6610 -0.5237
  280MOL0     C36864   1.909   6.209   0.472 -0.5432  0.6725 -0.6119
  280MOL0     C36865   1.804   6.161   0.375 -0.4017 -0.1111  0.3468
  280MOL0     C36866   1.665   6.202   0.424 -0.7862 -0.0639 -0.5492
  280MOL0     C36867   1.559   6.142   0.324  0.1597  0.1133  0.5573
  280MOL0     C36868   1.417   6.199   0.343 -0.0196 -0.2099  0.5112
  280MOL0     C36869   1.318   6.147   0.242  0.0689  0.3950  0.1618
  280MOL0     C36870   1.189   6.224   0.250 -0.2155 -0.3399 -0.1539
  280MOL0     C36871   1.100   6.172   0.148  0.0642 -0.3944 -0.0432
  280MOL0    Cl36872   1.062   5.994   0.172 -0.0332 -0.4304  0.3073
  280MOL0     C36873   2.181   6.283   0.584 -0.1994 -0.5575 -0.4893
  280MOL0     C36874   2.307   6.335   0.605 -0.3210 -0.8840 -0.0974
  280MOL0     O36875   2.670   6.268   0.398 -1.1408  0.6289 -0.2819
  280MOL0     C36876   2.883   6.424   0.461  0.0778 -0.7166 -0.3487
  280MOL0     C36877   2.984   6.522   0.445 -0.3761 -0.5941 -0.8155
  280MOL0     N36878   3.711   6.790   0.537 -0.3529  0.3971  0.3855
  280MOL0     N36879   3.834   6.750   0.546 -0.4660 -0.3281  0.3381
  280MOL0     C36880   5.051   6.885   0.561  0.1225  0.4576  0.4898
  280MOL0     C36881   5.185   6.912   0.551  0.0234 -0.7762  0.4340
  280MOL0     C36882   5.617   6.950   0.484  0.4164  0.0555 -0.0853
  280MOL0     C36883   5.649   6.879   0.369 -0.4166  0.0963  0.2074
  280MOL0     C36884   5.785   6.851   0.352 -0.9855  0.1138 -0.1325
  280MOL0     C36885   5.885   6.898   0.437 -0.3107  0.4326 -0.8429
  280MOL0     O36886   6.017   6.855   0.404  0.7976  0.0265 -0.4655
  280MOL0     C36887   6.125   6.887   0.493  0.0373 -0.6770 -0.3300
  280MOL0     C36888   6.242   6.807   0.468 -0.3145 -0.3396  0.1702
  280MOL0     C36889   6.301   6.816   0.329  0.8095 -0.9470  1.0160
  280MOL0     C36890   6.433   6.897   0.311 -0.0863  0.0177 -0.6622
  280MOL0     C36891   6.548   6.804   0.324  0.4819 -0.7622 -0.0613
  280MOL0     C36892   6.642   6.727   0.329  0.6668 -0.3440 -0.3601
  280MOL0     C36893   5.855   6.975   0.550 -0.0120 -0.2619 -0.5032
  280MOL0     C36894   5.718   6.993   0.578 -0.5114 -0.7814  0.8207
  280MOL0     H36895   5.237   6.946   0.221 -0.5212  0.7724 -0.8157
  280MOL0     H36896   4.987   6.868   0.231 -1.8059  5.2637  1.3511
  280MOL0     H36897   4.740   6.722   0.327  0.0639  0.4472 -2.4802
  280MOL0     H36898   4.787   6.875   0.244  0.9530 -2.5319 -1.4506
  280MOL0     H36899   4.628   7.004   0.318 -0.5644 -0.2910  0.8528
  280MOL0     H36900   4.608   6.924   0.473 -3.7059 -3.6759  0.1021
  280MOL0     H36901   4.487   6.735   0.354 -2.0123  0.1924 -0.4733
  280MOL0     H36902   4.547   6.798   0.199 -0.2461  2.0189 -1.3766
  280MOL0     H36903   4.349   6.973   0.377  1.7985  0.7963 -0.4997
  280MOL0     H36904   4.413   6.996   0.213  1.8737  1.2843  1.9464
  280MOL0     H36905   4.273   6.816   0.118  1.0411  1.0779 -0.4319
  280MOL0     H36906   4.168   6.924   0.206  0.0573 -0.5547 -1.9247
  280MOL0     H36907   4.215   6.772   0.420 -0.4586 -1.3192 -0.3850
  280MOL0     H36908   4.258   6.656   0.289 -0.5138 -0.1279  0.0217
  280MOL0     H36909   3.989   6.807   0.305 -0.4576  0.0870  0.7798
  280MOL0     H36910   4.051   6.688   0.187  0.6253  1.4000  0.0369
  280MOL0     H36911   4.056   6.609   0.480 -1.6033 -0.7657  1.0807
  280MOL0     H36912   3.983   6.520   0.338  1.6228  1.0274 -1.3169
  280MOL0     H36913   3.724   6.596   0.271  0.5089 -0.5486  0.9748
  280MOL0     H36914   3.492   6.709   0.275  1.5242 -0.6670 -0.5407
  280MOL0     H36915   3.531   6.874   0.323  2.3290 -0.9603  0.0152
  280MOL0     H36916   3.430   6.812   0.547  1.2027  0.6376 -0.0255
  280MOL0     H36917   3.441   6.643   0.500  1.2762  0.3421  2.0074
  280MOL0     H36918   3.259   6.849   0.364 -1.3718 -0.7120 -1.5698
  280MOL0     H36919   3.241   6.669   0.359  1.1236 -0.9137  2.3486
  280MOL0     H36920   3.207   6.829   0.609 -0.9519 -0.4848  1.0549
  280MOL0     H36921   3.182   6.660   0.589 -1.2649 -0.5204 -2.0564
  280MOL0     H36922   2.783   6.795   0.496 -0.3957 -1.0369 -0.1865
  280MOL0     H36923   2.612   6.628   0.466  0.3800  0.7037 -1.2589
  280MOL0     H36924   2.439   6.286   0.297 -1.2697 -1.7575 -1.0355
  280MOL0     H36925   2.236   6.197   0.259  0.5370  0.7748  0.1498
  280MOL0     H36926   1.907   6.318   0.483  0.6740  0.6630 -0.0705
  280MOL0     H36927   1.899   6.167   0.573 -1.2236 -1.1618 -1.3964
  280MOL0     H36928   1.815   6.052   0.368  0.5745  0.0760 -1.3691
  280MOL0     H36929   1.820   6.198   0.274 -0.1001 -2.2647 -0.4626
  280MOL0     H36930   1.659   6.311   0.415 -0.1953  0.0320  0.1131
  280MOL0     H36931   1.653   6.169   0.527 -0.4227 -3.4867 -1.4736
  280MOL0     H36932   1.591   6.176   0.224  0.2980 -2.8885 -0.5034
  280MOL0     H36933   1.550   6.033   0.321  0.2060  0.1248 -0.2286
  280MOL0     H36934   1.422   6.308   0.348 -1.7371 -0.0344 -0.7002
  280MOL0     H36935   1.375   6.163   0.437 -0.7040  1.8729  1.0403
  280MOL0     H36936   1.299   6.044   0.274  0.0369  0.9461  2.0501
  280MOL0     H36937   1.356   6.145   0.140 -0.6471  1.6356 -0.1603
  280MOL0     H36938   1.149   6.208   0.351 -0.6007  1.2551 -0.0235
  280MOL0     H36939   1.208   6.332   0.247  0.1762 -0.2699  2.4080
  280MOL0     H36940   1.154   6.202   0.057  0.8853  1.8407  1.0893
  280MOL0     H36941   1.007   6.229   0.148  0.5005  0.3421  0.1975
  280MOL0     H36942   2.112   6.294   0.668 -0.7391  3.3336 -1.2755
  280MOL0     H36943   2.329   6.385   0.699 -3.8320  4.1052 -1.4853
  280MOL0     H36944   2.909   6.318   0.456 -1.5995 -1.3162  1.9245
  280MOL0     H36945   3.088   6.504   0.421 -0.6396 -1.1721 -1.5561
  280MOL0     H36946   5.003   6.865   0.656  2.7004  1.6429  2.1283
  280MOL0     H36947   5.243   6.910   0.643  1.9442  4.3513 -0.3336
  280MOL0     H36948   5.582   6.846   0.290  0.2546 -2.7289  0.7430
  280MOL0     H36949   5.815   6.793   0.266  0.8281 -3.6640  2.7891
  280MOL0     H36950   6.097   6.882   0.598 -1.1827  3.8348 -0.2467
  280MOL0     H36951   6.159   6.990   0.484  1.2781 -0.7966  2.1104
  280MOL0     H36952   6.322   6.837   0.537 -0.1089  0.5328 -0.4434
  280MOL0     H36953   6.214   6.703   0.489  2.4752 -1.2763 -0.2989
  280MOL0     H36954   6.226   6.856   0.261  1.7169 -2.4183 -0.9759
  280MOL0     H36955   6.325   6.717   0.288 -0.9986 -0.9599 -0.1419
  280MOL0     H36956   6.425   6.926   0.206 -0.1376  0.2492 -0.5932
  280MOL0     H36957   6.438   6.988   0.371 -0.4343 -0.4898  0.1531
  280MOL0     H36958   6.741   6.688   0.322  1.1796  0.8562 -0.1580
  280MOL0     H36959   5.930   7.019   0.615  0.3282 -0.1272 -0.9813
  280MOL0     H36960   5.701   7.049   0.670  1.9735 -1.0856  1.5406
  281MOL0     O36961   0.360   9.706  10.291  0.0347  0.1792 -0.5746
  281MOL0     C36962   0.403   9.599  10.337 -0.0570 -0.8256 -0.2586
  281MOL0     O36963   0.337   9.505  10.403  0.1386  0.1390 -0.1649
  281MOL0     C36964   0.204   9.516  10.414 -0.5368  0.1028  0.5200
  281MOL0     C36965   0.119   9.566  10.313  0.6510 -0.0871  0.9693
  281MOL0     C36966  -0.019   9.559  10.330  0.5726  0.6356 -0.8488
  281MOL0     C36967  -0.079   9.526  10.450 -0.3072 -0.2038  0.2374
  281MOL0     O36968  -0.218   9.527  10.475 -0.5559 -0.0953 -0.6208
  281MOL0     C36969  -0.311   9.576  10.382  0.5956  0.0996 -0.0113
  281MOL0     C36970  -0.452   9.514  10.392  0.2645  0.4864 -0.3291
  281MOL0     C36971  -0.536   9.575  10.518  0.5758 -0.0740  0.4406
  281MOL0     C36972  -0.655   9.662  10.480 -0.0910  0.2297  0.3528
  281MOL0     C36973  -0.784   9.621  10.561  0.8914  0.1090  0.3202
  281MOL0     C36974  -0.890   9.722  10.527  0.3915 -0.1147 -0.2149
  281MOL0     C36975  -1.023   9.693  10.588  0.7444  0.6377  0.7427
  281MOL0     C36976  -1.067   9.547  10.580  0.1299 -0.1726 -0.3257
  281MOL0     N36977  -1.206   9.539  10.628 -0.5752 -0.4197  0.2833
  281MOL0     C36978  -1.305   9.615  10.561 -0.8504  0.3557 -0.3313
  281MOL0     C36979  -1.407   9.623  10.645  1.0257 -0.6843 -0.2945
  281MOL0     C36980  -1.545   9.666  10.600  0.1854  0.0961  0.8389
  281MOL0     C36981  -1.551   9.809  10.548  0.1717  0.1338  0.0513
  281MOL0     C36982  -1.524   9.912  10.654  0.1854 -0.4722 -0.3485
  281MOL0     C36983  -1.502  10.060  10.610 -0.4545 -0.4471  0.0518
  281MOL0     O36984  -1.380  10.063  10.525  0.1625  0.2404  0.7389
  281MOL0     C36985  -1.257  10.055  10.581 -0.9734 -1.5771  1.6342
  281MOL0     C36986  -1.160  10.041  10.480 -0.9852  0.1562 -0.5357
  281MOL0     C36987  -1.031  10.052  10.513 -0.9426 -0.7277  1.0513
  281MOL0     C36988  -0.986  10.080  10.641  0.1813  0.4282  0.1715
  281MOL0     C36989  -0.838  10.097  10.669  0.1522  0.2993 -0.5044
  281MOL0     O36990  -0.759  10.051  10.562  0.3035 -0.1022 -0.4651
  281MOL0     C36991  -0.621  10.059  10.569 -0.2179 -0.4866 -0.4168
  281MOL0     C36992  -0.553  10.139  10.477  0.8916 -0.2428  0.1143
  281MOL0     C36993  -0.417  10.122  10.455 -0.6046 -0.3419 -0.9487
  281MOL0     C36994  -0.342  10.031  10.531 -0.3513 -1.2374  0.1516
  281MOL0     O36995  -0.208  10.009  10.498 -0.4129 -1.1059 -0.4557
  281MOL0     C36996  -0.121   9.933  10.576  1.3223 -0.0174 -0.0829
  281MOL0     C36997   0.016   9.980  10.538 -0.6190  0.7450 -0.8866
  281MOL0     C36998   0.121   9.888  10.615 -0.4414  0.3244 -0.0441
  281MOL0     C36999   0.259   9.912  10.562  0.0161 -0.3060  0.2046
  281MOL0     C37000   0.377   9.843  10.650  0.3649 -0.2632  0.6463
  281MOL0     C37001   0.515   9.879  10.596  0.1851  0.1090  0.2756
  281MOL0     C37002   0.625   9.828  10.685  0.0447 -0.5592  1.4443
  281MOL0     C37003   0.753   9.796  10.609  0.0888 -0.9806 -0.2115
  281MOL0    Cl37004   0.792   9.935  10.502 -0.5466 -0.0246 -0.1217
  281MOL0     C37005  -0.407   9.952  10.631  0.3547 -0.5719 -0.0237
  281MOL0     C37006  -0.549   9.972  10.649 -0.3529 -0.1311  0.3698
  281MOL0     O37007  -0.802  10.149  10.779  0.0986  0.2790 -0.0936
  281MOL0     C37008  -1.085  10.098  10.742  0.2736 -0.2460 -0.2042
  281MOL0     C37009  -1.223  10.085  10.710 -0.3796 -0.2418  0.1552
  281MOL0     N37010  -1.365   9.573  10.768  0.1528 -0.4546  0.4165
  281MOL0     N37011  -1.245   9.533  10.761 -0.0158  0.1400 -0.3770
  281MOL0     C37012   0.008   9.487  10.556  0.1344  0.0838  0.4527
  281MOL0     C37013   0.147   9.487  10.540 -0.5972 -0.2071 -0.4017
  281MOL0     C37014   0.548   9.584  10.342 -1.6956 -0.2408 -0.1286
  281MOL0     C37015   0.620   9.485  10.401 -0.5905 -0.4277 -0.3843
  281MOL0     C37016   0.765   9.466  10.393  0.2899  0.1297 -0.4659
  281MOL0     C37017   0.833   9.575  10.328 -0.5674 -0.0316 -0.5671
  281MOL0     O37018   0.967   9.554  10.303 -0.6780  0.3747  0.0507
  281MOL0     C37019   0.979   9.471  10.184 -0.1536  0.0800  0.2060
  281MOL0     C37020   1.126   9.446  10.179 -0.6689 -0.1840  0.7456
  281MOL0     C37021   1.184   9.333  10.275 -0.4835  0.5264  0.5412
  281MOL0     C37022   1.217   9.375  10.409  0.1597  0.3146 -0.6099
  281MOL0     C37023   1.317   9.287  10.476 -0.0736 -0.5520  0.1233
  281MOL0     C37024   1.395   9.212  10.517 -0.2233  0.6189  0.4677
  281MOL0     C37025   0.768   9.679  10.260  0.6615  0.6262  0.0597
  281MOL0     C37026   0.630   9.682  10.269 -0.6231 -0.3861 -0.0870
  281MOL0     H37027   0.155   9.604  10.218 -0.2952 -0.3412  0.4862
  281MOL0     H37028  -0.080   9.597  10.249  1.1664  1.4763 -0.9197
  281MOL0     H37029  -0.290   9.545  10.280 -0.8007 -0.7987 -0.0500
  281MOL0     H37030  -0.312   9.685  10.395 -0.4464 -0.0684  1.5832
  281MOL0     H37031  -0.452   9.406  10.406 -1.2491  0.7555  2.4198
  281MOL0     H37032  -0.511   9.528  10.301 -1.9096 -0.8853  0.7869
  281MOL0     H37033  -0.472   9.641  10.577  1.1192 -0.5795  0.4242
  281MOL0     H37034  -0.564   9.487  10.576 -1.5176  0.0417 -0.3055
  281MOL0     H37035  -0.637   9.768  10.500 -0.4359  0.5900 -1.1362
  281MOL0     H37036  -0.664   9.654  10.371 -1.0156 -1.0077  0.4979
  281MOL0     H37037  -0.756   9.621  10.667 -0.5916 -3.7684  0.8929
  281MOL0     H37038  -0.819   9.519  10.546  1.5593 -0.1861  0.6910
  281MOL0     H37039  -0.911   9.731  10.420 -1.5864 -0.5813  0.0905
  281MOL0     H37040  -0.857   9.824  10.552 -0.6786  1.2782 -3.8405
  281MOL0     H37041  -1.001   9.730  10.688  2.4369 -1.9181  1.4022
  281MOL0     H37042  -1.096   9.759  10.539  1.0017  1.4265  1.3861
  281MOL0     H37043  -1.012   9.477  10.644 -3.1445 -1.1847  1.5992
  281MOL0     H37044  -1.063   9.517  10.475 -0.9066  1.8304 -0.9783
  281MOL0     H37045  -1.301   9.635  10.454  0.9503 -1.9602 -0.7820
  281MOL0     H37046  -1.609   9.654  10.688  0.2555 -0.1644  0.8547
  281MOL0     H37047  -1.590   9.598  10.528 -2.3760  1.8436  0.6521
  281MOL0     H37048  -1.654   9.824  10.515 -0.5015  0.9449  2.3618
  281MOL0     H37049  -1.480   9.821  10.465  0.3361 -0.6921  0.0556
  281MOL0     H37050  -1.608   9.910  10.725  1.6935 -2.7861  1.5616
  281MOL0     H37051  -1.439   9.876  10.714  0.4043  3.2457  1.8861
  281MOL0     H37052  -1.493  10.122  10.700 -0.6449 -1.1271  0.5443
  281MOL0     H37053  -1.584  10.101  10.551  1.3140  0.6968 -1.7600
  281MOL0     H37054  -1.174  10.021  10.374  0.4456  1.5755 -1.0367
  281MOL0     H37055  -0.956  10.031  10.437 -1.8938 -3.3886  0.7326
  281MOL0     H37056  -0.608  10.207  10.413 -0.8241 -2.2377 -0.6475
  281MOL0     H37057  -0.366  10.185  10.383  1.2310  0.1314  0.6849
  281MOL0     H37058  -0.140   9.826  10.563 -1.5258  0.3964  0.1094
  281MOL0     H37059  -0.132   9.962  10.681 -1.0209 -3.0157  0.6434
  281MOL0     H37060   0.042  10.082  10.569 -0.4170  0.6191 -0.6354
  281MOL0     H37061   0.026   9.969  10.429 -2.3944  0.6318 -1.0590
  281MOL0     H37062   0.094   9.784  10.592 -0.7405  0.3550  0.1641
  281MOL0     H37063   0.126   9.904  10.723 -1.4116 -2.4447  0.5084
  281MOL0     H37064   0.268   9.891  10.455  1.7888 -1.1838  0.4992
  281MOL0     H37065   0.285  10.018  10.563  3.5064 -1.0430  2.3723
  281MOL0     H37066   0.356   9.736  10.644 -0.5402 -0.2525  2.6962
  281MOL0     H37067   0.364   9.872  10.755 -2.1500 -0.2380  0.3893
  281MOL0     H37068   0.525   9.988  10.597 -0.7770  0.2210 -0.5960
  281MOL0     H37069   0.516   9.830  10.499 -2.9016 -0.2998  0.3574
  281MOL0     H37070   0.640   9.897  10.769 -2.9849  0.2865  1.4064
  281MOL0     H37071   0.592   9.729  10.717 -2.3301 -0.6961 -1.0768
  281MOL0     H37072   0.740   9.704  10.553 -1.9019  1.0905 -3.4849
  281MOL0     H37073   0.840   9.779  10.674  1.8120  2.3816 -1.3679
  281MOL0     H37074  -0.351   9.888  10.698  4.0365  0.5075 -1.8072
  281MOL0     H37075  -0.610   9.917  10.719 -2.5054  2.4039  0.6451
  281MOL0     H37076  -1.040  10.114  10.840  1.2481  2.0791 -0.9573
  281MOL0     H37077  -1.298  10.091  10.788  0.1094  2.9553  0.5182
  281MOL0     H37078  -0.036   9.458  10.651 -1.5272 -0.7541 -0.5344
  281MOL0     H37079   0.212   9.472  10.625  0.3402 -2.1683 -1.3962
  281MOL0     H37080   0.569   9.421  10.472  0.9593 -0.3567  0.8449
  281MOL0     H37081   0.818   9.384  10.440  0.4295  1.5208  1.9878
  281MOL0     H37082   0.941   9.536  10.104 -0.9241  2.6499  2.5221
  281MOL0     H37083   0.931   9.373  10.182  2.2548 -1.2843  2.3989
  281MOL0     H37084   1.159   9.410  10.081  1.7824  2.5363  0.4282
  281MOL0     H37085   1.187   9.535  10.195  0.9656 -1.2163  0.5576
  281MOL0     H37086   1.269   9.295  10.217 -1.4078 -1.2536  0.2843
  281MOL0     H37087   1.114   9.249  10.283 -0.1702 -0.0251 -1.8295
  281MOL0     H37088   1.259   9.475  10.400 -0.2546  0.3905 -1.9362
  281MOL0     H37089   1.128   9.385  10.473 -0.0209  1.1548 -0.9715
  281MOL0     H37090   1.471   9.137  10.531 -2.1876 -2.4815 -3.3708
  281MOL0     H37091   0.832   9.749  10.207  1.1770  1.1178  1.2770
  281MOL0     H37092   0.573   9.762  10.224 -2.1269 -0.8884  0.8507
  282MOL0     O37093   0.441   9.293   9.080 -0.0913 -0.2278  0.2554
  282MOL0     C37094   0.371   9.234   9.000 -0.4617 -0.4485  0.4800
  282MOL0     O37095   0.422   9.172   8.890 -0.6233  0.5939  0.5231
  282MOL0     C37096   0.553   9.150   8.870  0.1533  0.0796  0.0063
  282MOL0     C37097   0.600   9.020   8.859  0.1452 -0.8941 -0.4077
  282MOL0     C37098   0.733   8.996   8.825  0.1133  0.1006  0.3408
  282MOL0     C37099   0.818   9.109   8.811  0.2592 -0.1221 -0.3213
  282MOL0     O37100   0.954   9.094   8.785  0.2933 -0.0140 -0.6551
  282MOL0     C37101   1.016   8.979   8.849 -0.4122  0.4704  0.7585
  282MOL0     C37102   1.165   9.002   8.884 -0.4056  0.2870 -0.4124
  282MOL0     C37103   1.248   9.055   8.768 -0.0199 -0.1840  0.0473
  282MOL0     C37104   1.372   9.114   8.833  0.1730  0.1957 -0.0037
  282MOL0     C37105   1.468   9.166   8.723  0.7136 -0.4693 -0.0128
  282MOL0     C37106   1.612   9.126   8.742 -1.0440 -0.5304 -0.2774
  282MOL0     C37107   1.698   9.189   8.630  0.0980  0.1329 -0.0692
  282MOL0     C37108   1.712   9.335   8.650  0.2759  0.6045  0.1755
  282MOL0     N37109   1.807   9.373   8.550 -0.4697  0.3183 -0.3607
  282MOL0     C37110   1.797   9.382   8.409 -0.5490 -0.2485  0.1453
  282MOL0     C37111   1.919   9.401   8.359  0.1136  0.6881  1.2656
  282MOL0     C37112   1.952   9.419   8.208 -0.3104  0.9262  0.2890
  282MOL0     C37113   1.904   9.556   8.156 -0.6054 -0.0738 -0.1758
  282MOL0     C37114   1.903   9.557   8.005 -0.9376  0.1361  0.6744
  282MOL0     C37115   1.866   9.696   7.971  0.2120  0.3324  0.1231
  282MOL0     O37116   1.984   9.771   7.981 -0.7666  0.0564 -0.1044
  282MOL0     C37117   1.966   9.908   7.960  0.0007 -0.0335 -0.6153
  282MOL0     C37118   2.083   9.979   7.981 -0.3869 -0.2376  0.0141
  282MOL0     C37119   2.072  10.121   7.986  0.3742 -0.2323 -0.6840
  282MOL0     C37120   1.947  10.182   7.966  0.4271 -0.5882 -0.2219
  282MOL0     C37121   1.921  10.328   7.978  0.4786 -0.6741  0.2570
  282MOL0     O37122   2.036  10.403   8.005 -0.2625 -0.3301 -0.7059
  282MOL0     C37123   2.031  10.538   8.003 -0.2737  1.1618  0.0059
  282MOL0     C37124   2.070  10.610   8.109 -0.1459 -0.3239 -0.2224
  282MOL0     C37125   2.089  10.747   8.095  0.2422 -0.0749  0.0669
  282MOL0     C37126   2.071  10.819   7.974  0.8357  0.5207  0.1445
  282MOL0     O37127   2.109  10.950   7.964  0.1102  0.3453  0.2455
  282MOL0     C37128   2.111  11.003   7.828 -0.4341 -0.7247 -0.4290
  282MOL0     C37129   2.177  11.143   7.828 -1.1585 -0.2571 -0.2358
  282MOL0     C37130   2.319  11.130   7.777  0.8666 -0.4912  0.6376
  282MOL0     C37131   2.401  11.260   7.764 -0.1662 -0.3455  0.1529
  282MOL0     C37132   2.546  11.237   7.711 -0.1899  0.1678  0.3159
  282MOL0     C37133   2.634  11.176   7.820 -0.3132  0.2098 -0.0808
  282MOL0     C37134   2.781  11.193   7.784 -0.4698 -1.1810  0.1763
  282MOL0     C37135   2.894  11.143   7.883  0.3493  0.5107  0.6227
  282MOL0    Cl37136   3.047  11.220   7.856 -0.0200 -0.1754  0.1386
  282MOL0     C37137   2.015  10.739   7.872 -0.1976 -0.3655  0.1491
  282MOL0     C37138   1.995  10.597   7.885  0.6434 -0.5819 -0.2689
  282MOL0     O37139   1.805  10.375   7.969  0.0134 -0.0672 -0.5083
  282MOL0     C37140   1.838  10.108   7.930  0.6400 -0.2525  0.2561
  282MOL0     C37141   1.848   9.972   7.925 -0.0331  0.1831 -0.3853
  282MOL0     N37142   2.004   9.405   8.465 -0.1405 -0.1956  0.1635
  282MOL0     N37143   1.936   9.383   8.579 -1.0068  0.1352  0.0243
  282MOL0     C37144   0.768   9.238   8.821  0.6726 -0.6721  0.1706
  282MOL0     C37145   0.633   9.262   8.856  0.1494 -1.4302 -0.2770
  282MOL0     C37146   0.229   9.207   9.015  0.2564 -0.1921  0.5734
  282MOL0     C37147   0.162   9.111   8.934 -0.9636  0.9262 -0.7787
  282MOL0     C37148   0.030   9.088   8.959 -0.8187  0.5441  0.8356
  282MOL0     C37149  -0.045   9.166   9.049 -0.0645  0.5622  0.9058
  282MOL0     O37150  -0.180   9.149   9.045  0.0852 -0.5872 -0.0682
  282MOL0     C37151  -0.250   9.233   9.142  0.4105  0.2638 -0.1125
  282MOL0     C37152  -0.400   9.200   9.134  0.6240 -0.0952  0.5296
  282MOL0     C37153  -0.501   9.273   9.219 -0.0781  0.2809 -0.4975
  282MOL0     C37154  -0.646   9.247   9.172  0.1415 -0.3631 -0.1058
  282MOL0     C37155  -0.732   9.337   9.255  0.0834  0.5581  0.6525
  282MOL0     C37156  -0.814   9.409   9.311  0.0857 -0.2810  0.4418
  282MOL0     C37157   0.020   9.256   9.130 -0.1081  0.3541 -0.2763
  282MOL0     C37158   0.160   9.279   9.112  0.4824  0.3737  0.2819
  282MOL0     H37159   0.540   8.931   8.881 -0.5963  0.2163  2.6135
  282MOL0     H37160   0.774   8.897   8.806  1.4277  1.0621 -2.4805
  282MOL0     H37161   1.004   8.887   8.792  2.5159 -0.1573  0.9912
  282MOL0     H37162   0.956   8.958   8.937 -2.4414 -0.8934 -0.8626
  282MOL0     H37163   1.211   8.909   8.919 -0.3858  1.6537  3.6904
  282MOL0     H37164   1.167   9.072   8.968 -1.4417  0.4257 -0.4923
  282MOL0     H37165   1.180   9.119   8.711 -1.1876 -2.0371 -0.7684
  282MOL0     H37166   1.291   8.979   8.702  1.3674 -0.6510  1.4208
  282MOL0     H37167   1.338   9.196   8.897  3.5789  1.4908  0.3474
  282MOL0     H37168   1.416   9.037   8.896  1.6154  0.9747 -0.0333
  282MOL0     H37169   1.450   9.273   8.711  1.3365 -0.5517 -2.0941
  282MOL0     H37170   1.437   9.127   8.626 -1.8243 -1.5978  1.1575
  282MOL0     H37171   1.621   9.018   8.730 -0.9489 -0.7188  1.3764
  282MOL0     H37172   1.643   9.153   8.843 -2.8353  0.4959  0.0533
  282MOL0     H37173   1.797   9.145   8.645 -1.0471 -2.2880  0.9554
  282MOL0     H37174   1.670   9.149   8.532 -0.6348 -2.1826  0.9938
  282MOL0     H37175   1.759   9.356   8.746  1.7553  2.9870 -0.9645
  282MOL0     H37176   1.620   9.393   8.647 -0.5836 -0.7506 -1.4135
  282MOL0     H37177   1.710   9.380   8.345 -0.5229  0.8828  0.0639
  282MOL0     H37178   1.888   9.341   8.166  1.8455 -1.8860  1.8231
  282MOL0     H37179   2.058   9.396   8.189 -0.5103 -0.8168  1.0843
  282MOL0     H37180   1.975   9.633   8.188 -2.0821  1.5196 -0.6359
  282MOL0     H37181   1.805   9.588   8.188  0.7803  2.1818  2.1809
  282MOL0     H37182   1.999   9.524   7.962 -0.5825  2.8002 -0.7694
  282MOL0     H37183   1.835   9.478   7.973  0.7864 -0.6537 -1.3046
  282MOL0     H37184   1.786   9.739   8.033 -1.6376 -1.3488 -0.9695
  282MOL0     H37185   1.815   9.680   7.876  1.0123 -5.7095  0.3663
  282MOL0     H37186   2.177   9.930   8.000  0.7761  1.3180 -1.4066
  282MOL0     H37187   2.160  10.182   8.008 -0.6196  1.0063 -0.0504
  282MOL0     H37188   2.103  10.577   8.208  0.6645  2.0257  0.3574
  282MOL0     H37189   2.114  10.809   8.180 -2.4428 -0.6515  1.3751
  282MOL0     H37190   2.010  11.000   7.785 -1.1983 -1.5891  1.3172
  282MOL0     H37191   2.174  10.942   7.763 -0.4385 -2.4321  1.0930
  282MOL0     H37192   2.182  11.183   7.930  0.0712  3.4159 -1.5961
  282MOL0     H37193   2.119  11.217   7.772 -2.6560 -0.8506  0.4660
  282MOL0     H37194   2.322  11.078   7.681 -1.5461  0.9874 -0.3219
  282MOL0     H37195   2.374  11.061   7.842  0.2018 -1.8553 -0.1881
  282MOL0     H37196   2.354  11.325   7.690  2.9397  0.6848 -1.1088
  282MOL0     H37197   2.408  11.319   7.856 -0.6028  2.9407 -1.7780
  282MOL0     H37198   2.585  11.335   7.682 -0.5277  0.2695  0.1991
  282MOL0     H37199   2.544  11.172   7.623 -0.4247  1.1329 -0.3991
  282MOL0     H37200   2.625  11.067   7.831  2.8104 -0.3191 -1.5917
  282MOL0     H37201   2.623  11.231   7.914  5.1614  1.9268 -0.0622
  282MOL0     H37202   2.793  11.157   7.682 -1.3176 -2.2411  0.4280
  282MOL0     H37203   2.797  11.301   7.785 -2.0520 -0.8887  2.3374
  282MOL0     H37204   2.902  11.037   7.859  1.5645  0.1063  2.5597
  282MOL0     H37205   2.864  11.152   7.988  1.0161 -0.8592  0.9472
  282MOL0     H37206   1.994  10.784   7.776 -0.3766  0.3621  0.5149
  282MOL0     H37207   1.949  10.540   7.805  0.1275  2.5977 -2.4458
  282MOL0     H37208   1.745  10.159   7.906 -0.4997  0.3201  4.9331
  282MOL0     H37209   1.757   9.922   7.894 -0.0923 -0.1331  0.2832
  282MOL0     H37210   0.844   9.315   8.809  2.0719 -1.9473  0.4546
  282MOL0     H37211   0.599   9.365   8.856 -1.6347 -1.9898  1.0359
  282MOL0     H37212   0.217   9.054   8.860 -0.0287  0.3563  0.3181
  282MOL0     H37213  -0.022   9.015   8.897  0.5114  0.8365 -0.6832
  282MOL0     H37214  -0.238   9.340   9.122 -0.2207  0.2394 -0.6610
  282MOL0     H37215  -0.212   9.218   9.243  0.6066 -0.2624 -0.2667
  282MOL0     H37216  -0.419   9.223   9.029 -1.7487  0.2720  0.9821
  282MOL0     H37217  -0.417   9.094   9.156 -2.7936  0.5450  1.6223
  282MOL0     H37218  -0.473   9.378   9.209 -1.0219  0.4531 -1.5873
  282MOL0     H37219  -0.498   9.253   9.327  1.7950  1.9341 -0.1888
  282MOL0     H37220  -0.660   9.285   9.071 -1.2866  1.4158  0.7122
  282MOL0     H37221  -0.669   9.140   9.180  1.6842 -0.8093 -1.1535
  282MOL0     H37222  -0.878   9.477   9.363 -0.3710  0.5348 -1.1127
  282MOL0     H37223  -0.028   9.309   9.211  2.4277  0.4421  1.2840
  282MOL0     H37224   0.214   9.346   9.178 -0.8673 -1.5630  3.5964
  283MOL0     O37225   6.576   1.312   3.226 -0.5876  0.0888  0.0867
  283MOL0     C37226   6.555   1.391   3.133  0.4956 -0.0909  0.2282
  283MOL0     O37227   6.447   1.401   3.050 -0.4568 -0.4177  0.0934
  283MOL0     C37228   6.349   1.306   3.043 -0.3299  0.5726 -1.4568
  283MOL0     C37229   6.292   1.283   2.922 -0.2802 -1.0220 -0.1089
  283MOL0     C37230   6.204   1.183   2.911  0.2017  0.7179 -0.0124
  283MOL0     C37231   6.158   1.113   3.020 -0.6168 -0.4108  0.0767
  283MOL0     O37232   6.076   1.002   3.025  0.6346  0.1272  0.0707
  283MOL0     C37233   6.048   0.929   2.907 -0.3966  1.0001  1.1352
  283MOL0     C37234   5.989   0.792   2.940  0.1029  0.4404  0.4276
  283MOL0     C37235   5.848   0.803   3.000 -0.0070 -0.5453  0.6265
  283MOL0     C37236   5.780   0.671   3.023  0.4208 -0.5872 -0.4317
  283MOL0     C37237   5.684   0.679   3.144  0.9449 -0.7081 -0.8012
  283MOL0     C37238   5.559   0.765   3.118 -0.6635 -0.1731 -0.5030
  283MOL0     C37239   5.439   0.738   3.216 -1.1256  0.6469 -0.6160
  283MOL0     C37240   5.321   0.820   3.179 -0.3539  0.0905 -1.5526
  283MOL0     N37241   5.358   0.963   3.182  0.4090 -0.8087 -0.3530
  283MOL0     C37242   5.356   1.046   3.072  0.7087 -0.2310  0.3417
  283MOL0     C37243   5.354   1.177   3.121  0.0418  0.6284  0.3666
  283MOL0     C37244   5.406   1.273   3.021  0.9070 -0.3075  1.3510
  283MOL0     C37245   5.533   1.349   3.079  0.2324 -0.3420  0.3829
  283MOL0     C37246   5.660   1.244   3.076  0.1385  0.6532 -0.2483
  283MOL0     C37247   5.793   1.318   3.106 -0.0750  0.1259  0.3570
  283MOL0     O37248   5.829   1.383   2.986  0.6754 -0.3505 -0.0719
  283MOL0     C37249   5.926   1.480   2.993 -0.3349 -0.1680 -0.0651
  283MOL0     C37250   6.053   1.472   3.066  0.5225 -0.0772 -1.0110
  283MOL0     C37251   6.143   1.570   3.064 -0.6778 -0.1299 -0.4068
  283MOL0     C37252   6.109   1.694   3.006  0.9642  0.1424 -0.0690
  283MOL0     C37253   6.202   1.810   2.992 -0.4790 -0.1910 -0.3874
  283MOL0     O37254   6.332   1.778   2.980  0.0629 -1.0059  0.0875
  283MOL0     C37255   6.433   1.877   2.974  0.4182  1.1044 -0.8577
  283MOL0     C37256   6.450   1.955   2.862 -0.3741  0.4696 -0.1549
  283MOL0     C37257   6.551   2.048   2.864 -0.1728  0.7191  1.1276
  283MOL0     C37258   6.647   2.050   2.968 -0.4014 -0.5784 -0.4846
  283MOL0     O37259   6.751   2.142   2.972  0.3460 -1.0041  0.0416
  283MOL0     C37260   6.722   2.279   2.943  0.3932  0.0763  0.5548
  283MOL0     C37261   6.625   2.359   3.042  0.0901  0.2313 -0.6996
  283MOL0     C37262   6.476   2.351   2.998  0.3465  0.4547 -0.8050
  283MOL0     C37263   6.375   2.423   3.088  0.1351 -0.2691  0.3452
  283MOL0     C37264   6.231   2.415   3.034 -1.5262 -0.3001 -0.3658
  283MOL0     C37265   6.166   2.281   3.077 -1.0133 -0.7358  0.0231
  283MOL0     C37266   6.026   2.250   3.009 -0.4820 -0.5161 -0.2672
  283MOL0     C37267   5.911   2.325   3.077  0.6370  0.7194  0.2078
  283MOL0    Cl37268   5.904   2.272   3.251  0.0085  0.1524 -0.2182
  283MOL0     C37269   6.631   1.964   3.076  0.7930  0.3194  0.5553
  283MOL0     C37270   6.525   1.871   3.085 -0.2175 -0.6163  0.1961
  283MOL0     O37271   6.155   1.926   2.965 -0.1099  0.1944  0.1709
  283MOL0     C37272   5.982   1.707   2.942  0.4849 -0.5728 -0.7947
  283MOL0     C37273   5.888   1.602   2.933  0.0580 -0.1427 -0.2038
  283MOL0     N37274   5.360   1.167   3.261  0.2441  0.3914 -0.0026
  283MOL0     N37275   5.360   1.043   3.297  0.5022  0.0798  0.8527
  283MOL0     C37276   6.212   1.142   3.151 -0.3000 -0.0172  0.1746
  283MOL0     C37277   6.309   1.238   3.157 -0.5419 -0.5336 -0.2912
  283MOL0     C37278   6.656   1.491   3.098 -0.3483 -0.4445 -0.0406
  283MOL0     C37279   6.644   1.573   2.985 -0.9053 -0.4779 -0.3097
  283MOL0     C37280   6.737   1.673   2.958 -0.6199  0.5744 -0.0910
  283MOL0     C37281   6.853   1.686   3.032 -0.8225 -0.7301  0.9564
  283MOL0     O37282   6.945   1.791   3.007  0.1149  0.0486 -0.1422
  283MOL0     C37283   7.073   1.792   3.064  0.5663  0.3189 -0.0189
  283MOL0     C37284   7.152   1.900   2.988  0.4340 -0.1554  0.6483
  283MOL0     C37285   7.301   1.894   3.019 -0.5878 -0.6446 -0.9333
  283MOL0     C37286   7.376   1.800   2.921 -0.2815 -0.4023 -0.3716
  283MOL0     C37287   7.508   1.763   2.969  0.0192  0.5272  0.4915
  283MOL0     C37288   7.599   1.702   3.027  0.6872 -0.1122  0.3526
  283MOL0     C37289   6.882   1.594   3.131 -0.2928  0.3413  0.3741
  283MOL0     C37290   6.784   1.498   3.166  0.0471  0.3297  0.2222
  283MOL0     H37291   6.309   1.350   2.839 -3.9753  0.0281 -0.2205
  283MOL0     H37292   6.173   1.153   2.812  1.9930 -2.9643  0.3492
  283MOL0     H37293   6.139   0.900   2.854 -1.6001 -0.8392  0.0082
  283MOL0     H37294   5.994   0.992   2.836  2.4097  1.9539 -0.3464
  283MOL0     H37295   6.056   0.736   3.006 -0.0728  1.3686  1.4145
  283MOL0     H37296   5.974   0.753   2.839  0.7783  2.4473 -0.5135
  283MOL0     H37297   5.777   0.860   2.939  1.4416  1.6408  0.8783
  283MOL0     H37298   5.855   0.851   3.098  0.1066 -0.5455  0.6180
  283MOL0     H37299   5.733   0.634   2.931 -1.1279  1.4518 -0.5416
  283MOL0     H37300   5.855   0.593   3.037  0.4035 -0.9536 -2.1148
  283MOL0     H37301   5.726   0.730   3.231 -1.4738 -1.0644  0.6621
  283MOL0     H37302   5.651   0.580   3.180 -1.2305  0.4537  0.6242
  283MOL0     H37303   5.532   0.751   3.012 -1.4642  0.3463 -0.3821
  283MOL0     H37304   5.589   0.871   3.118 -2.0128  0.2744  1.7137
  283MOL0     H37305   5.410   0.633   3.201 -0.0659  0.4896 -1.7986
  283MOL0     H37306   5.456   0.746   3.323 -1.8926  0.1104 -0.4458
  283MOL0     H37307   5.235   0.805   3.244  1.2093  0.3568  0.6720
  283MOL0     H37308   5.294   0.790   3.077 -0.3225  0.3368 -1.6338
  283MOL0     H37309   5.370   1.011   2.970 -3.7131  0.2127 -0.6396
  283MOL0     H37310   5.318   1.333   2.994  0.7578 -1.0180  0.1550
  283MOL0     H37311   5.438   1.217   2.933 -0.4385 -1.4073  1.5213
  283MOL0     H37312   5.513   1.376   3.183 -2.6519  0.5250 -0.3283
  283MOL0     H37313   5.553   1.439   3.020  0.6738  0.8417  2.2763
  283MOL0     H37314   5.635   1.164   3.147 -4.5367  2.9351  1.1173
  283MOL0     H37315   5.674   1.197   2.978  0.0082 -3.3766  1.4619
  283MOL0     H37316   5.868   1.248   3.144  2.3624  3.5114  2.3468
  283MOL0     H37317   5.772   1.395   3.181 -0.7293  0.0102  0.3002
  283MOL0     H37318   6.066   1.388   3.132 -1.0917  0.3345 -0.1197
  283MOL0     H37319   6.245   1.565   3.102 -0.7782 -3.7813 -0.3009
  283MOL0     H37320   6.375   1.964   2.785  0.4014  7.3545 -0.6881
  283MOL0     H37321   6.562   2.120   2.783 -1.1261 -0.4512 -0.0965
  283MOL0     H37322   6.677   2.292   2.844  0.3533 -2.7551  0.1299
  283MOL0     H37323   6.816   2.335   2.949 -1.2955  3.2790 -0.5981
  283MOL0     H37324   6.655   2.464   3.038  1.2776 -0.1010 -0.7338
  283MOL0     H37325   6.643   2.317   3.142  1.9712  1.2869 -0.5577
  283MOL0     H37326   6.447   2.246   2.998  0.7222  0.2806  1.8205
  283MOL0     H37327   6.463   2.404   2.903 -0.3496 -0.8285 -1.4406
  283MOL0     H37328   6.374   2.379   3.188  2.0460  0.3072  0.6575
  283MOL0     H37329   6.378   2.532   3.085 -1.4110  0.1013  4.6006
  283MOL0     H37330   6.237   2.429   2.926 -1.1872  4.2536  0.0246
  283MOL0     H37331   6.172   2.501   3.066  0.7229  0.6256  1.6369
  283MOL0     H37332   6.161   2.281   3.186 -1.3962 -5.2795  0.1697
  283MOL0     H37333   6.231   2.198   3.047 -0.5982 -0.8776  1.2659
  283MOL0     H37334   6.024   2.282   2.904  0.8870  2.3587  0.4694
  283MOL0     H37335   6.005   2.143   3.019 -2.4239 -0.2132 -0.7609
  283MOL0     H37336   5.819   2.306   3.020  1.2256  1.4423 -1.0196
  283MOL0     H37337   5.933   2.432   3.074  2.3567  0.4736  1.9361
  283MOL0     H37338   6.713   1.980   3.146  1.0242  3.0696 -0.2101
  283MOL0     H37339   6.519   1.802   3.168 -1.0008  1.2424  1.7634
  283MOL0     H37340   5.965   1.803   2.895 -1.9030 -0.2431  0.6077
  283MOL0     H37341   5.790   1.605   2.887 -0.3104 -2.2704  0.3198
  283MOL0     H37342   6.175   1.093   3.240 -0.4582 -2.1644 -0.9988
  283MOL0     H37343   6.331   1.269   3.258  1.5583  2.1757 -1.4560
  283MOL0     H37344   6.551   1.564   2.929 -0.9604 -1.6420 -0.0378
  283MOL0     H37345   6.719   1.753   2.886  1.2504  1.9804  0.9117
  283MOL0     H37346   7.130   1.701   3.040  2.4835  2.0784 -2.7564
  283MOL0     H37347   7.072   1.810   3.172 -1.4484 -1.0554  0.2559
  283MOL0     H37348   7.127   1.872   2.885 -1.6919 -0.9988  1.3543
  283MOL0     H37349   7.108   2.000   3.000 -3.1599 -1.4411 -0.4846
  283MOL0     H37350   7.330   1.864   3.120  2.4419  1.3850 -1.0772
  283MOL0     H37351   7.340   1.996   3.017 -1.0386 -0.3556  1.6683
  283MOL0     H37352   7.308   1.716   2.901 -0.5660 -0.1690 -0.3956
  283MOL0     H37353   7.384   1.854   2.826 -1.4849  2.6624  1.1420
  283MOL0     H37354   7.668   1.638   3.078  1.2981  0.6888  0.5510
  283MOL0     H37355   6.968   1.601   3.197 -0.0351  0.9063 -0.0082
  283MOL0     H37356   6.811   1.433   3.248  0.4601 -2.7626 -2.2063
  284MOL0     O37357   7.113   1.320   2.158  0.3030  0.6675  0.8856
  284MOL0     C37358   7.162   1.373   2.057  0.1564 -0.8296  0.5059
  284MOL0     O37359   7.102   1.482   1.997  0.6596 -0.1214  0.0940
  284MOL0     C37360   6.983   1.533   2.050  0.1301 -0.1527  0.5524
  284MOL0     C37361   6.871   1.450   2.038 -0.2898 -0.1274 -1.2642
  284MOL0     C37362   6.750   1.486   2.081 -0.4453 -0.3162 -0.1443
  284MOL0     C37363   6.730   1.619   2.135  0.4277 -0.4972 -0.1043
  284MOL0     O37364   6.600   1.662   2.174  0.0831 -0.1302 -0.8711
  284MOL0     C37365   6.510   1.684   2.059  0.0027  0.2195 -0.6282
  284MOL0     C37366   6.372   1.734   2.100 -0.3050 -0.2037  0.3377
  284MOL0     C37367   6.275   1.744   1.985  0.2301  0.4718  0.0347
  284MOL0     C37368   6.131   1.760   2.022  0.5569 -0.2860  0.8821
  284MOL0     C37369   6.031   1.784   1.908 -0.0032 -0.1276 -0.0838
  284MOL0     C37370   6.021   1.659   1.820  0.2360 -0.0464  0.0361
  284MOL0     C37371   5.917   1.679   1.713  0.2605  0.1145 -0.5030
  284MOL0     C37372   5.777   1.660   1.780 -0.3114 -0.1188 -0.7949
  284MOL0     N37373   5.674   1.662   1.678 -0.0367  0.1706  0.5053
  284MOL0     C37374   5.670   1.585   1.560  0.4987 -0.3184 -0.5884
  284MOL0     C37375   5.541   1.599   1.514  0.4744  0.1462 -0.2586
  284MOL0     C37376   5.482   1.539   1.390 -0.4770 -0.2940  0.3021
  284MOL0     C37377   5.346   1.477   1.392 -0.2259 -0.3309 -0.3249
  284MOL0     C37378   5.326   1.403   1.259 -0.4154  0.9495 -0.2577
  284MOL0     C37379   5.179   1.336   1.244 -0.1167 -0.6708  0.1498
  284MOL0     O37380   5.143   1.275   1.364  0.0389  0.8259  0.4116
  284MOL0     C37381   5.043   1.181   1.360 -0.9256  0.1907 -0.9587
  284MOL0     C37382   4.933   1.192   1.273  0.3386 -0.3772 -0.1289
  284MOL0     C37383   4.825   1.102   1.266  0.4133  0.2570 -1.0137
  284MOL0     C37384   4.843   0.992   1.354  0.2294 -0.8007  0.7856
  284MOL0     C37385   4.760   0.870   1.343  0.4596 -0.3260  0.8457
  284MOL0     O37386   4.676   0.862   1.231  0.0822  0.5940 -0.5297
  284MOL0     C37387   4.591   0.755   1.215  0.2004  0.6221  0.5641
  284MOL0     C37388   4.640   0.626   1.181 -1.1974 -0.0500 -0.1466
  284MOL0     C37389   4.556   0.518   1.171 -0.4938  0.0023  0.5449
  284MOL0     C37390   4.420   0.534   1.174  0.4509 -0.8139  0.0770
  284MOL0     O37391   4.321   0.440   1.148 -0.2026  0.0937  0.8021
  284MOL0     C37392   4.365   0.313   1.102 -0.2942 -0.0775  0.5766
  284MOL0     C37393   4.265   0.244   1.012 -0.0960  0.5799  0.2407
  284MOL0     C37394   4.138   0.212   1.091 -0.9769 -1.5254 -0.6216
  284MOL0     C37395   4.021   0.156   1.009  0.7295 -0.5090 -0.3469
  284MOL0     C37396   3.926   0.100   1.110 -0.1309  0.6140 -0.1768
  284MOL0     C37397   3.799   0.053   1.041 -0.2706  0.0916 -0.3469
  284MOL0     C37398   3.704  -0.006   1.152 -0.1731  0.0729  0.2894
  284MOL0     C37399   3.681   0.077   1.283  0.1458 -0.0791 -0.3382
  284MOL0    Cl37400   3.622   0.243   1.246 -0.1315  0.0308  0.1987
  284MOL0     C37401   4.370   0.664   1.198  0.8340  0.0386  0.0000
  284MOL0     C37402   4.453   0.771   1.223  0.4541 -0.2772  0.3792
  284MOL0     O37403   4.783   0.779   1.430  0.6768 -0.1869  1.0289
  284MOL0     C37404   4.949   0.975   1.444 -0.5091 -0.1138  0.2860
  284MOL0     C37405   5.047   1.072   1.443 -0.2951  0.6097 -0.4813
  284MOL0     N37406   5.475   1.677   1.610 -0.1663  0.3272 -0.9909
  284MOL0     N37407   5.551   1.722   1.697 -0.5164 -0.1568 -0.0331
  284MOL0     C37408   6.839   1.701   2.150 -0.5088 -1.0905 -0.0885
  284MOL0     C37409   6.974   1.664   2.107  0.4042  0.9966  0.6354
  284MOL0     C37410   7.276   1.314   1.984 -0.8114 -0.6938 -0.0294
  284MOL0     C37411   7.330   1.188   2.005 -0.6318 -0.2289 -0.8826
  284MOL0     C37412   7.427   1.132   1.924 -0.0976  0.2348 -0.2189
  284MOL0     C37413   7.480   1.207   1.819  1.5155  0.7332  0.1154
  284MOL0     O37414   7.577   1.154   1.745 -0.7195 -0.1775 -0.6581
  284MOL0     C37415   7.658   1.238   1.663  0.3417  0.3897 -0.2327
  284MOL0     C37416   7.756   1.316   1.746 -0.5512 -0.2186 -0.2680
  284MOL0     C37417   7.844   1.213   1.823  0.6933 -0.0627  0.8658
  284MOL0     C37418   7.969   1.267   1.889  0.6891 -0.6338  0.1044
  284MOL0     C37419   8.079   1.295   1.791  0.7995  1.1644 -1.4911
  284MOL0     C37420   8.172   1.298   1.714  0.4902 -0.5598  0.2927
  284MOL0     C37421   7.418   1.335   1.792  0.5024  0.6370 -0.6434
  284MOL0     C37422   7.314   1.386   1.869 -0.4861  0.2822 -0.5795
  284MOL0     H37423   6.875   1.349   1.999  0.1489 -1.4733  1.9463
  284MOL0     H37424   6.670   1.413   2.074 -1.3434  0.6481 -0.2708
  284MOL0     H37425   6.499   1.590   2.004 -3.0333 -0.9271  1.6331
  284MOL0     H37426   6.551   1.762   1.994 -0.5856  1.6231  0.6212
  284MOL0     H37427   6.382   1.833   2.146 -0.4152  0.2884 -0.6561
  284MOL0     H37428   6.330   1.662   2.170  0.0286  0.9229  1.7288
  284MOL0     H37429   6.284   1.657   1.919  0.0295  0.0724  0.5238
  284MOL0     H37430   6.307   1.826   1.920  0.4532 -0.2871 -0.8436
  284MOL0     H37431   6.089   1.680   2.084 -1.6900 -1.0961 -1.5204
  284MOL0     H37432   6.132   1.849   2.087  2.0235  0.8227 -0.5533
  284MOL0     H37433   6.072   1.867   1.849 -0.9936  0.5994  0.2159
  284MOL0     H37434   5.932   1.816   1.943  0.2128  0.4820 -0.0090
  284MOL0     H37435   5.985   1.568   1.870  1.5112 -0.2017  0.7371
  284MOL0     H37436   6.114   1.631   1.770  1.4744  0.5766  1.8573
  284MOL0     H37437   5.921   1.780   1.671 -2.7573 -0.4269 -2.3851
  284MOL0     H37438   5.920   1.611   1.628 -0.7115 -0.7556  0.1375
  284MOL0     H37439   5.764   1.748   1.844  2.3176 -0.0514 -0.2321
  284MOL0     H37440   5.776   1.568   1.839 -0.7412  1.0195  1.0589
  284MOL0     H37441   5.748   1.527   1.512  0.4637 -1.0876  0.2503
  284MOL0     H37442   5.547   1.459   1.355 -2.6271 -1.8909 -0.2696
  284MOL0     H37443   5.478   1.621   1.317 -2.7681  0.2264  0.9309
  284MOL0     H37444   5.271   1.556   1.405 -0.1999 -0.5210  1.0530
  284MOL0     H37445   5.344   1.413   1.480  2.4833  1.7564  1.3881
  284MOL0     H37446   5.347   1.477   1.182  0.2219  0.6077 -0.4218
  284MOL0     H37447   5.394   1.320   1.241 -0.7359  0.1450  1.8749
  284MOL0     H37448   5.193   1.273   1.156  3.4543 -0.0008  0.0649
  284MOL0     H37449   5.110   1.417   1.219  0.6741  0.3938  1.2547
  284MOL0     H37450   4.939   1.270   1.197  1.8520 -1.4223 -1.1354
  284MOL0     H37451   4.736   1.104   1.204 -2.1296 -1.1109  2.2953
  284MOL0     H37452   4.748   0.621   1.184 -1.2126 -0.2500  2.6702
  284MOL0     H37453   4.603   0.420   1.174  2.9777  1.5204  0.8948
  284MOL0     H37454   4.396   0.250   1.186 -1.1855 -2.0954 -0.5280
  284MOL0     H37455   4.447   0.328   1.031 -0.4200  1.1270  0.6646
  284MOL0     H37456   4.307   0.156   0.961  0.3283  0.7740  0.2546
  284MOL0     H37457   4.251   0.311   0.927 -0.2942  0.1447 -0.0739
  284MOL0     H37458   4.095   0.299   1.140 -0.1323 -1.8305  0.7300
  284MOL0     H37459   4.160   0.143   1.174  2.0226 -1.5905 -1.3613
  284MOL0     H37460   3.977   0.233   0.945  1.1134 -2.4817 -3.1783
  284MOL0     H37461   4.048   0.074   0.943  0.9016 -0.9117  0.2145
  284MOL0     H37462   3.892   0.180   1.176  0.2167  0.4527  0.1980
  284MOL0     H37463   3.977   0.015   1.157 -3.4033 -2.1517 -1.1869
  284MOL0     H37464   3.833  -0.027   0.974  1.5284  0.9514 -0.5008
  284MOL0     H37465   3.752   0.136   0.987 -0.5478 -0.6606 -1.2978
  284MOL0     H37466   3.605  -0.025   1.109  0.6251  1.5614 -2.4307
  284MOL0     H37467   3.739  -0.106   1.179 -0.3547 -0.4316 -1.2542
  284MOL0     H37468   3.772   0.080   1.344 -0.9846 -1.9903  1.5914
  284MOL0     H37469   3.605   0.028   1.345  0.5011  0.8774  0.8918
  284MOL0     H37470   4.262   0.671   1.201  0.8337  0.0318  0.0106
  284MOL0     H37471   4.406   0.867   1.242 -2.5055 -1.2621 -1.3214
  284MOL0     H37472   4.972   0.892   1.510 -1.0258 -2.0483 -1.8283
  284MOL0     H37473   5.136   1.065   1.505 -0.6410 -0.0903 -0.0573
  284MOL0     H37474   6.823   1.804   2.180  0.5336 -0.3175 -2.0131
  284MOL0     H37475   7.062   1.728   2.118  1.3148 -0.2234  0.6704
  284MOL0     H37476   7.287   1.134   2.089 -0.1027  0.9153  0.1330
  284MOL0     H37477   7.480   1.044   1.958 -1.4410 -0.4562  0.1671
  284MOL0     H37478   7.598   1.306   1.602 -1.6497 -0.4282  0.7240
  284MOL0     H37479   7.719   1.174   1.598  2.8403  1.2904  1.0933
  284MOL0     H37480   7.816   1.382   1.682 -0.9039  1.1121  0.7144
  284MOL0     H37481   7.708   1.385   1.817 -0.4403  0.2124 -0.6047
  284MOL0     H37482   7.880   1.137   1.753 -1.9501 -0.0170 -0.6621
  284MOL0     H37483   7.781   1.162   1.897 -3.5223  0.0124 -2.3372
  284MOL0     H37484   7.949   1.359   1.945  2.7266 -1.4829  2.4105
  284MOL0     H37485   8.008   1.183   1.947 -1.8952 -2.4280 -0.5456
  284MOL0     H37486   8.251   1.324   1.648 -1.6427  1.5369 -1.6116
  284MOL0     H37487   7.464   1.405   1.722  0.2692  0.4433 -0.9950
  284MOL0     H37488   7.277   1.484   1.841  0.7209  1.1596  0.7597
  285MOL0     O37489   1.438   6.584   0.310  0.0504  0.2293  0.5408
  285MOL0     C37490   1.413   6.605   0.425 -0.4649  0.4105  0.0414
  285MOL0     O37491   1.287   6.620   0.486  0.7110 -0.2881 -0.3800
  285MOL0     C37492   1.176   6.600   0.409  0.3690 -0.3650 -0.1374
  285MOL0     C37493   1.147   6.682   0.297  0.3922  0.3899 -0.3418
  285MOL0     C37494   1.027   6.666   0.229 -0.2436 -0.0688 -0.8789
  285MOL0     C37495   0.936   6.569   0.281 -1.0283 -0.3259 -0.7375
  285MOL0     O37496   0.815   6.564   0.217  0.1508  0.4652  0.1358
  285MOL0     C37497   0.707   6.496   0.281  0.7695  0.1935 -0.1594
  285MOL0     C37498   0.593   6.489   0.180 -0.4357 -1.3275  0.7808
  285MOL0     C37499   0.468   6.444   0.243  0.1125 -0.1363 -0.3377
  285MOL0     C37500   0.380   6.361   0.140  0.3361  0.4580 -0.1787
  285MOL0     C37501   0.234   6.344   0.186 -0.4172 -0.9224  0.8819
  285MOL0     C37502   0.154   6.461   0.129  0.3332 -0.1261  0.4772
  285MOL0     C37503   0.010   6.460   0.197  0.2240  0.2790  0.1929
  285MOL0     C37504  -0.069   6.584   0.145  0.4561 -0.2873 -0.0399
  285MOL0     N37505  -0.196   6.598   0.227 -0.4990 -0.4675 -0.6104
  285MOL0     C37506  -0.276   6.496   0.276  0.4773  0.8852 -0.2473
  285MOL0     C37507  -0.380   6.554   0.338 -0.1835  0.3084 -1.4389
  285MOL0     C37508  -0.504   6.482   0.394  1.3140 -0.9349 -0.5420
  285MOL0     C37509  -0.631   6.496   0.323 -0.0075  0.4165  0.3264
  285MOL0     C37510  -0.749   6.431   0.402 -0.8160  0.3956  0.0203
  285MOL0     C37511  -0.883   6.461   0.329  0.1030  0.1580 -0.4085
  285MOL0     O37512  -0.987   6.420   0.421  0.4393 -0.3673  0.3459
  285MOL0     C37513  -1.113   6.442   0.379 -0.9291 -0.0301  0.4499
  285MOL0     C37514  -1.158   6.576   0.396  0.3362  0.5707 -0.0579
  285MOL0     C37515  -1.284   6.613   0.355  0.6950  0.5291  0.1938
  285MOL0     C37516  -1.376   6.519   0.294 -0.4589 -1.1121  0.2021
  285MOL0     C37517  -1.521   6.542   0.264 -0.8302  0.3771 -0.3221
  285MOL0     O37518  -1.594   6.439   0.217 -0.5749  0.0772  0.0296
  285MOL0     C37519  -1.726   6.461   0.190  0.3803  0.4086 -0.2262
  285MOL0     C37520  -1.821   6.480   0.288  0.3144  0.7658 -0.1629
  285MOL0     C37521  -1.955   6.491   0.251 -1.1469 -0.3440 -1.1033
  285MOL0     C37522  -2.003   6.471   0.120 -0.2213 -0.2183 -0.0128
  285MOL0     O37523  -2.137   6.461   0.083  0.4371  0.5316  0.0472
  285MOL0     C37524  -2.218   6.555   0.150  0.5511 -0.4020  0.1978
  285MOL0     C37525  -2.361   6.550   0.099 -0.0453  0.1777  0.2485
  285MOL0     C37526  -2.441   6.673   0.142 -0.3896 -0.0494  0.4358
  285MOL0     C37527  -2.589   6.653   0.101 -0.1014 -0.7425  0.6223
  285MOL0     C37528  -2.685   6.736   0.175  0.6529 -0.0383 -0.9618
  285MOL0     C37529  -2.819   6.733   0.096  0.0103 -0.6899 -0.8125
  285MOL0     C37530  -2.870   6.595   0.035 -0.7567  0.0219 -0.3435
  285MOL0     C37531  -2.988   6.634  -0.054  0.4988 -0.6196 -0.1510
  285MOL0    Cl37532  -3.116   6.712   0.054  0.2471  0.1359 -0.6907
  285MOL0     C37533  -1.902   6.458   0.025 -0.4168 -0.0705  0.3048
  285MOL0     C37534  -1.766   6.460   0.056  0.3669 -0.4774 -0.0234
  285MOL0     O37535  -1.563   6.657   0.278  0.0984 -0.2565  0.5559
  285MOL0     C37536  -1.322   6.391   0.280 -0.0974  0.6253 -0.1680
  285MOL0     C37537  -1.191   6.351   0.318 -0.0953  0.7365 -0.0090
  285MOL0     N37538  -0.357   6.692   0.334  0.4894 -0.0996  0.0731
  285MOL0     N37539  -0.245   6.718   0.266  0.2945  0.4031 -0.8261
  285MOL0     C37540   0.964   6.482   0.384 -0.1473 -0.3163 -0.0618
  285MOL0     C37541   1.080   6.511   0.455  0.1569 -0.3399  0.5322
  285MOL0     C37542   1.528   6.620   0.517 -0.3246  0.6449  0.3662
  285MOL0     C37543   1.650   6.667   0.472 -0.2342  0.5983  0.0928
  285MOL0     C37544   1.759   6.689   0.559  0.0714 -0.1536 -0.2937
  285MOL0     C37545   1.750   6.642   0.694 -0.9272 -0.0596  0.1207
  285MOL0     O37546   1.854   6.650   0.781  0.2823 -0.8000  0.1841
  285MOL0     C37547   1.986   6.687   0.745  0.1503 -1.3132  0.0040
  285MOL0     C37548   2.072   6.705   0.868  0.1337 -0.1512 -0.4494
  285MOL0     C37549   2.006   6.797   0.971 -0.1881  0.0512  0.1711
  285MOL0     C37550   2.097   6.819   1.087  0.5146 -0.9024  0.5201
  285MOL0     C37551   2.060   6.937   1.170  0.1301  0.4052  0.0601
  285MOL0     C37552   2.031   7.024   1.250 -1.0252 -0.5157 -0.7463
  285MOL0     C37553   1.629   6.585   0.737 -0.3984  0.2047  0.1389
  285MOL0     C37554   1.518   6.580   0.654  0.5497  0.4395  0.4158
  285MOL0     H37555   1.217   6.754   0.256 -0.9564  0.7320 -2.1855
  285MOL0     H37556   1.003   6.716   0.135 -0.8021 -0.9445 -1.2162
  285MOL0     H37557   0.689   6.550   0.375  0.6696 -1.1419  0.6158
  285MOL0     H37558   0.726   6.390   0.305 -1.5769  0.1266  1.8470
  285MOL0     H37559   0.622   6.429   0.094 -1.2984  0.5348 -0.8897
  285MOL0     H37560   0.561   6.585   0.139 -0.3673 -0.6772  2.1851
  285MOL0     H37561   0.417   6.532   0.283  0.4465 -0.8244  1.7761
  285MOL0     H37562   0.496   6.387   0.333  4.0049  2.2269  0.1467
  285MOL0     H37563   0.378   6.412   0.043 -0.4540 -0.6605 -0.7649
  285MOL0     H37564   0.430   6.265   0.125  1.3264  0.5495  2.1278
  285MOL0     H37565   0.237   6.352   0.296 -1.8431  1.7880  0.8217
  285MOL0     H37566   0.189   6.250   0.156  0.9322 -0.8917 -1.4186
  285MOL0     H37567   0.141   6.446   0.021 -1.0283 -0.2786  0.6391
  285MOL0     H37568   0.194   6.559   0.154 -2.6048  1.1085  0.7791
  285MOL0     H37569  -0.033   6.367   0.159  1.1499 -0.3789  0.7006
  285MOL0     H37570   0.025   6.456   0.305  0.1027  1.3079  0.2626
  285MOL0     H37571  -0.097   6.575   0.040 -1.2604 -1.3651  0.4709
  285MOL0     H37572  -0.000   6.669   0.153 -0.4003  0.3858  0.3415
  285MOL0     H37573  -0.257   6.394   0.243  1.4587  1.9023 -3.0410
  285MOL0     H37574  -0.522   6.525   0.493  0.8993  3.7650 -2.3827
  285MOL0     H37575  -0.492   6.374   0.402  0.6620 -1.2363 -2.7797
  285MOL0     H37576  -0.630   6.445   0.226  0.0984  2.8710 -1.0403
  285MOL0     H37577  -0.655   6.599   0.296  2.2461  0.7346 -0.6566
  285MOL0     H37578  -0.743   6.322   0.410 -2.0255  0.2923 -0.3154
  285MOL0     H37579  -0.749   6.476   0.502  2.0244  0.4953  0.0407
  285MOL0     H37580  -0.882   6.393   0.243 -0.0196  0.7416 -0.8778
  285MOL0     H37581  -0.891   6.567   0.302 -2.6052 -0.3566 -2.0133
  285MOL0     H37582  -1.088   6.647   0.439 -0.8343  0.0649  2.9190
  285MOL0     H37583  -1.321   6.714   0.364  2.0588  0.8663  4.5098
  285MOL0     H37584  -1.796   6.508   0.390  0.9950  1.2245 -0.4451
  285MOL0     H37585  -2.020   6.498   0.337  0.3259 -1.6105  0.1631
  285MOL0     H37586  -2.180   6.656   0.131 -0.5824  0.1562  0.7933
  285MOL0     H37587  -2.214   6.534   0.257 -1.4579  2.1300  0.8989
  285MOL0     H37588  -2.405   6.454   0.129  0.2637 -0.1753 -0.4185
  285MOL0     H37589  -2.359   6.550  -0.010 -0.0425 -1.7206  0.2126
  285MOL0     H37590  -2.401   6.763   0.095  0.8702  0.8951  3.1336
  285MOL0     H37591  -2.441   6.669   0.252  3.6571 -2.4030  0.5352
  285MOL0     H37592  -2.593   6.674  -0.006 -0.2245  0.6647  0.8894
  285MOL0     H37593  -2.609   6.547   0.121  3.1306 -1.3926  0.8465
  285MOL0     H37594  -2.658   6.842   0.174 -2.3956  0.8530 -0.4830
  285MOL0     H37595  -2.687   6.706   0.280  1.5142  1.2426 -0.5535
  285MOL0     H37596  -2.801   6.797   0.009 -1.5252 -0.0624 -0.7011
  285MOL0     H37597  -2.893   6.772   0.166  3.3590 -0.9404  3.2962
  285MOL0     H37598  -2.799   6.543  -0.029 -1.9705 -2.2368  0.0386
  285MOL0     H37599  -2.891   6.516   0.108  1.6729 -1.6948 -1.3819
  285MOL0     H37600  -3.032   6.556  -0.117  0.6033  0.6202 -1.8145
  285MOL0     H37601  -2.953   6.711  -0.123  1.1622  0.3959  1.2552
  285MOL0     H37602  -1.930   6.446  -0.080 -0.0582 -0.8615  0.2940
  285MOL0     H37603  -1.691   6.452  -0.023 -0.6674  1.8360 -1.3382
  285MOL0     H37604  -1.393   6.315   0.247 -2.7502  3.5421 -1.6999
  285MOL0     H37605  -1.147   6.254   0.299 -1.4394 -0.8509  3.8079
  285MOL0     H37606   0.903   6.398   0.417  0.6897  0.0439  2.6448
  285MOL0     H37607   1.106   6.459   0.546  2.3267 -2.4344 -1.1395
  285MOL0     H37608   1.664   6.707   0.372 -0.5101  2.3747  0.7266
  285MOL0     H37609   1.845   6.746   0.526  1.2118 -1.8963 -0.4198
  285MOL0     H37610   1.987   6.774   0.679 -1.3458 -1.4678 -0.2565
  285MOL0     H37611   2.018   6.609   0.675  0.3841  1.1434 -2.8402
  285MOL0     H37612   2.081   6.612   0.926  0.4623  1.7438  2.7474
  285MOL0     H37613   2.164   6.759   0.843 -0.7555  1.1931 -0.8782
  285MOL0     H37614   1.910   6.760   1.009 -1.9836  3.1982 -0.9500
  285MOL0     H37615   1.979   6.887   0.915  1.4170 -0.6623 -1.8845
  285MOL0     H37616   2.097   6.729   1.149 -3.0573  0.9396  3.5970
  285MOL0     H37617   2.200   6.835   1.055 -0.0947 -0.6544 -1.4334
  285MOL0     H37618   2.009   7.095   1.327  2.7183 -0.2886  0.2745
  285MOL0     H37619   1.611   6.560   0.841 -2.3684  1.4187  0.1511
  285MOL0     H37620   1.423   6.537   0.685  0.2434  1.8557  1.5524
  286MOL0     O37621   4.911   4.263   1.081  0.6329 -0.4556  0.7755
  286MOL0     C37622   4.936   4.255   0.961 -0.1651  0.8196 -0.8994
  286MOL0     O37623   4.850   4.200   0.864  0.6169 -0.2105  0.7005
  286MOL0     C37624   4.725   4.149   0.893 -0.4243  0.4439  0.4974
  286MOL0     C37625   4.648   4.177   1.008 -0.2575  0.0285 -0.6249
  286MOL0     C37626   4.519   4.122   1.028 -0.2541 -0.1513 -0.7548
  286MOL0     C37627   4.470   4.029   0.938  0.1709  0.6532 -0.4609
  286MOL0     O37628   4.355   3.953   0.960 -0.1318  0.3882  0.8441
  286MOL0     C37629   4.257   3.990   1.066  0.2361  0.2356  0.3074
  286MOL0     C37630   4.119   3.925   1.033 -0.2350  0.6801  0.5042
  286MOL0     C37631   3.997   3.987   1.104 -0.7073  0.1940  0.5319
  286MOL0     C37632   3.872   3.885   1.083 -0.3299 -1.2724  0.2720
  286MOL0     C37633   3.785   3.930   0.966 -0.7605  0.2321 -0.0030
  286MOL0     C37634   3.662   3.841   0.972  0.7834 -0.4575 -0.1907
  286MOL0     C37635   3.558   3.877   0.860  0.3960  0.1101  0.0472
  286MOL0     C37636   3.429   3.793   0.857 -0.0201  0.6769 -0.4747
  286MOL0     N37637   3.330   3.881   0.797 -0.1324  0.0608 -0.0821
  286MOL0     C37638   3.257   3.973   0.874  0.7309 -0.6603  0.0658
  286MOL0     C37639   3.153   4.016   0.787 -0.6988  0.5176 -0.7622
  286MOL0     C37640   3.035   4.113   0.822 -0.2217  0.1691  0.7899
  286MOL0     C37641   2.954   4.048   0.942 -0.6527 -0.9625 -0.7720
  286MOL0     C37642   2.889   3.913   0.908  0.5795 -0.1849  0.6187
  286MOL0     C37643   2.835   3.840   1.025  0.3701 -0.8729  0.2579
  286MOL0     O37644   2.698   3.817   1.016  0.1953  0.5819 -0.2405
  286MOL0     C37645   2.609   3.868   1.100  0.6982 -0.6125  0.1431
  286MOL0     C37646   2.480   3.857   1.051 -0.0287  0.4673 -0.1188
  286MOL0     C37647   2.365   3.912   1.113  0.3091 -0.2358 -0.4452
  286MOL0     C37648   2.379   3.993   1.229 -0.2476 -0.4680  0.3559
  286MOL0     C37649   2.262   4.067   1.290 -0.1180  0.7954 -0.3735
  286MOL0     O37650   2.149   4.006   1.258  0.3960  0.8964  1.1701
  286MOL0     C37651   2.028   4.039   1.312 -0.0929  0.5411  0.6415
  286MOL0     C37652   1.933   4.085   1.223 -0.0720  1.1886 -0.4516
  286MOL0     C37653   1.818   4.147   1.268 -1.3112 -0.5761 -0.1276
  286MOL0     C37654   1.780   4.146   1.400  0.3742 -0.1657 -0.4723
  286MOL0     O37655   1.658   4.203   1.435 -0.1695 -0.5470  0.0376
  286MOL0     C37656   1.639   4.229   1.576 -0.5932  0.2954 -0.0623
  286MOL0     C37657   1.503   4.299   1.592 -0.8761 -0.5689  0.5374
  286MOL0     C37658   1.395   4.194   1.577 -0.7157 -0.5439  0.3809
  286MOL0     C37659   1.266   4.243   1.623 -0.1998 -0.8950 -0.6288
  286MOL0     C37660   1.144   4.146   1.601  0.0335  0.1899 -0.2363
  286MOL0     C37661   1.121   4.100   1.455  0.0212  0.2056 -0.0961
  286MOL0     C37662   1.084   4.206   1.350  1.1728  0.1743  0.8793
  286MOL0     C37663   0.962   4.291   1.391 -0.7014  0.0890 -0.4946
  286MOL0    Cl37664   0.933   4.409   1.271 -0.1510 -0.2092 -0.1951
  286MOL0     C37665   1.870   4.089   1.496  1.0947 -0.5292 -0.2444
  286MOL0     C37666   1.999   4.040   1.450  0.4790 -0.0154 -0.2044
  286MOL0     O37667   2.273   4.140   1.383 -0.9032  0.6127  0.2885
  286MOL0     C37668   2.515   3.997   1.285 -0.8326  0.0519  0.5572
  286MOL0     C37669   2.625   3.930   1.219 -0.9185  0.6323 -0.0614
  286MOL0     N37670   3.165   3.943   0.668 -0.2405 -0.7719  0.9148
  286MOL0     N37671   3.273   3.862   0.678 -0.6637 -0.7120  0.9801
  286MOL0     C37672   4.544   4.005   0.830 -0.0075 -0.9335  0.8163
  286MOL0     C37673   4.663   4.075   0.798 -0.2244  0.7943  0.0223
  286MOL0     C37674   5.067   4.298   0.913 -0.1289  0.4130  0.5822
  286MOL0     C37675   5.153   4.378   0.987  0.2846  0.0574 -0.1658
  286MOL0     C37676   5.275   4.411   0.937 -0.6218  0.7743  0.1275
  286MOL0     C37677   5.317   4.360   0.815 -0.2812 -0.0051  0.3399
  286MOL0     O37678   5.452   4.378   0.781 -0.4650 -0.5753 -0.8860
  286MOL0     C37679   5.487   4.400   0.645 -1.1472 -0.0544  0.4793
  286MOL0     C37680   5.564   4.535   0.629 -0.6706 -0.3348  0.0727
  286MOL0     C37681   5.692   4.543   0.711  0.4498 -0.0289 -0.2402
  286MOL0     C37682   5.824   4.562   0.630  0.6186  0.3815  0.4691
  286MOL0     C37683   5.846   4.449   0.539  0.9098  0.0872  0.5126
  286MOL0     C37684   5.855   4.356   0.465 -0.2393 -0.1343  0.1625
  286MOL0     C37685   5.224   4.289   0.740  0.5971 -0.0079 -0.3468
  286MOL0     C37686   5.103   4.266   0.782  0.7894 -0.2879  0.3302
  286MOL0     H37687   4.690   4.251   1.076 -0.8103 -0.2847  0.0773
  286MOL0     H37688   4.461   4.130   1.119 -4.2052 -0.2186 -3.0382
  286MOL0     H37689   4.236   4.097   1.066 -0.8301  0.0770  2.2398
  286MOL0     H37690   4.285   3.962   1.168 -0.3744 -1.4692  0.0481
  286MOL0     H37691   4.121   3.816   1.035 -0.3258  0.5137 -2.9626
  286MOL0     H37692   4.089   3.947   0.930  0.3606 -0.8858 -0.0385
  286MOL0     H37693   3.982   4.084   1.056 -0.3953  0.0013  0.0449
  286MOL0     H37694   4.016   4.002   1.211  0.8630 -0.9080  0.4375
  286MOL0     H37695   3.909   3.785   1.061  4.3819  0.8823 -3.4303
  286MOL0     H37696   3.805   3.896   1.169  2.2303 -0.6458  2.3240
  286MOL0     H37697   3.845   3.913   0.876 -0.6024  1.5987 -0.1764
  286MOL0     H37698   3.767   4.038   0.971  0.5039  0.5457 -1.3893
  286MOL0     H37699   3.596   3.856   1.058  1.6562 -1.5116  0.6759
  286MOL0     H37700   3.674   3.733   0.964 -2.1767 -0.8399 -0.7416
  286MOL0     H37701   3.522   3.977   0.887 -1.7998 -0.0901 -1.8256
  286MOL0     H37702   3.608   3.886   0.763  1.5552  2.5292  0.7812
  286MOL0     H37703   3.396   3.766   0.957  3.9508 -0.9963  0.5803
  286MOL0     H37704   3.452   3.706   0.794 -1.1205  2.2556 -3.1963
  286MOL0     H37705   3.274   3.996   0.979  0.4888 -0.4314  0.0558
  286MOL0     H37706   2.980   4.121   0.728  4.1911 -0.2409 -2.0761
  286MOL0     H37707   3.082   4.206   0.856  1.1680  0.4498 -1.6558
  286MOL0     H37708   2.870   4.115   0.961  0.1846  0.7042 -2.5367
  286MOL0     H37709   3.019   4.041   1.029 -2.1863  1.0882  0.6401
  286MOL0     H37710   2.809   3.930   0.836  3.0225 -0.6619 -2.4246
  286MOL0     H37711   2.970   3.851   0.866  0.9802  1.0494 -0.4981
  286MOL0     H37712   2.873   3.893   1.112  2.5691 -0.2370 -0.9954
  286MOL0     H37713   2.877   3.739   1.023  0.7333 -0.7207 -1.1776
  286MOL0     H37714   2.468   3.791   0.965 -0.6128 -1.8043  1.6064
  286MOL0     H37715   2.267   3.898   1.069 -0.2663 -0.0330  0.7537
  286MOL0     H37716   1.951   4.076   1.116  1.2334  0.3176 -0.1878
  286MOL0     H37717   1.752   4.185   1.190 -0.4691 -0.5526 -0.8412
  286MOL0     H37718   1.720   4.284   1.625  0.6677 -1.0755 -0.5191
  286MOL0     H37719   1.639   4.132   1.627  3.9947  0.6793  1.1419
  286MOL0     H37720   1.492   4.371   1.511  4.8293  1.6138  1.2725
  286MOL0     H37721   1.506   4.343   1.692  0.7681  2.2607 -0.6514
  286MOL0     H37722   1.432   4.099   1.616  2.4795  0.0810 -0.8097
  286MOL0     H37723   1.393   4.174   1.469 -1.6696  0.7223  0.1444
  286MOL0     H37724   1.262   4.265   1.730 -3.4964 -0.4764 -0.7290
  286MOL0     H37725   1.258   4.335   1.563  1.9504 -0.9567 -1.0995
  286MOL0     H37726   1.052   4.197   1.631 -0.8426 -1.4937  0.0511
  286MOL0     H37727   1.160   4.061   1.667 -0.8813  2.0856  2.6205
  286MOL0     H37728   1.047   4.020   1.459  0.1627  0.1117  1.6134
  286MOL0     H37729   1.216   4.052   1.430  0.1890  1.1529 -1.3511
  286MOL0     H37730   1.164   4.279   1.332  0.0401  1.9124  2.4654
  286MOL0     H37731   1.056   4.158   1.256 -2.3666  1.4235  1.1638
  286MOL0     H37732   0.978   4.349   1.483 -1.9936  0.8074 -0.7043
  286MOL0     H37733   0.867   4.240   1.407 -0.8630  0.6855  0.6132
  286MOL0     H37734   1.842   4.075   1.600  0.3433 -2.2059 -0.6401
  286MOL0     H37735   2.081   4.004   1.511  2.2087  1.7749 -1.3157
  286MOL0     H37736   2.530   4.059   1.373  1.5357 -0.8123  0.8500
  286MOL0     H37737   2.721   3.936   1.269 -1.2254  0.6281  0.5436
  286MOL0     H37738   4.515   3.918   0.772  5.5294 -1.6572 -1.4213
  286MOL0     H37739   4.716   4.044   0.709 -0.8655 -2.4775  0.6491
  286MOL0     H37740   5.122   4.418   1.083 -1.0558 -0.3517 -0.4059
  286MOL0     H37741   5.350   4.472   0.987 -1.0340  1.4885 -0.1115
  286MOL0     H37742   5.394   4.409   0.587 -1.1168 -0.2753  0.3953
  286MOL0     H37743   5.537   4.308   0.614 -1.9780 -0.3697  0.0339
  286MOL0     H37744   5.591   4.561   0.527 -2.5791  1.2256 -0.0860
  286MOL0     H37745   5.490   4.613   0.648 -0.9398 -0.4752 -0.3971
  286MOL0     H37746   5.699   4.452   0.771  1.5829  0.6141  0.6544
  286MOL0     H37747   5.670   4.626   0.778 -0.4741  1.2660 -2.0702
  286MOL0     H37748   5.823   4.658   0.578  4.1142  0.1804 -0.2005
  286MOL0     H37749   5.906   4.558   0.702 -0.5472  1.1379  1.8936
  286MOL0     H37750   5.868   4.275   0.396  0.2133  0.5851 -0.6187
  286MOL0     H37751   5.258   4.250   0.645  2.5588 -0.0755  0.3286
  286MOL0     H37752   5.032   4.210   0.721 -3.9071  3.0619  2.1897
  287MOL0     O37753   4.621   9.449   8.243  0.4084 -0.4168 -0.0190
  287MOL0     C37754   4.667   9.524   8.336  0.4223 -0.5177 -0.2542
  287MOL0     O37755   4.592   9.609   8.422 -0.3399  0.0631 -0.9652
  287MOL0     C37756   4.458   9.633   8.398 -0.1191 -0.7596 -0.4597
  287MOL0     C37757   4.369   9.534   8.367  0.0198  0.2321 -0.4446
  287MOL0     C37758   4.244   9.570   8.310  0.1849  0.1830 -0.4676
  287MOL0     C37759   4.196   9.698   8.313 -0.2386 -0.9140 -0.4149
  287MOL0     O37760   4.065   9.726   8.282  0.2756 -0.2666  0.5235
  287MOL0     C37761   3.967   9.640   8.332  0.3343  0.7529 -0.7233
  287MOL0     C37762   3.842   9.728   8.349 -1.0242  0.0195 -0.6508
  287MOL0     C37763   3.855   9.850   8.443  0.4123  1.0479  0.3958
  287MOL0     C37764   3.749   9.966   8.421  0.2949  0.6646 -0.9053
  287MOL0     C37765   3.598   9.925   8.426 -0.5447 -0.5627 -0.1390
  287MOL0     C37766   3.506  10.046   8.470 -0.5789  0.0551 -0.5202
  287MOL0     C37767   3.372  10.018   8.523  0.6506 -0.1202  0.5173
  287MOL0     C37768   3.281   9.970   8.404  0.1463  0.1062 -0.8409
  287MOL0     N37769   3.139   9.973   8.459  0.6727  0.3176 -0.3806
  287MOL0     C37770   3.028  10.034   8.406  1.5363 -0.0924  0.2729
  287MOL0     C37771   2.922  10.015   8.492 -0.3990 -0.3654  0.2087
  287MOL0     C37772   2.796  10.086   8.473  0.2977  0.6327  0.0489
  287MOL0     C37773   2.697  10.079   8.592 -0.2632 -0.2267 -0.0129
  287MOL0     C37774   2.616  10.210   8.615  0.3632 -0.1308 -0.0148
  287MOL0     C37775   2.496  10.176   8.708  0.2510 -0.0519  0.3634
  287MOL0     O37776   2.418  10.291   8.718 -0.0569 -0.5924 -0.4451
  287MOL0     C37777   2.311  10.281   8.810  0.1419  0.5824  0.2506
  287MOL0     C37778   2.253  10.154   8.855 -0.0621 -0.4406  0.6831
  287MOL0     C37779   2.140  10.152   8.939  0.0870  0.7028  0.3854
  287MOL0     C37780   2.070  10.273   8.979  0.1204 -0.3051 -0.4805
  287MOL0     C37781   1.954  10.270   9.080 -0.1277 -0.4367 -0.1309
  287MOL0     O37782   1.939  10.146   9.130 -0.2405 -0.0394 -0.1444
  287MOL0     C37783   1.838  10.126   9.217 -0.6372  0.2900  0.0821
  287MOL0     C37784   1.740  10.041   9.179  0.1732 -0.5131 -0.6985
  287MOL0     C37785   1.649   9.990   9.278  0.1950  0.5483 -0.3395
  287MOL0     C37786   1.655  10.024   9.410 -0.0529 -0.2375 -0.2935
  287MOL0     O37787   1.546   9.972   9.486 -0.0002 -0.6560 -0.1992
  287MOL0     C37788   1.523  10.014   9.617  0.6894 -0.7598  0.2023
  287MOL0     C37789   1.389   9.949   9.661 -0.3412 -0.5257 -0.1967
  287MOL0     C37790   1.392   9.901   9.800  0.1189 -0.5487 -0.5819
  287MOL0     C37791   1.257   9.836   9.830  0.2756 -0.5098 -1.1718
  287MOL0     C37792   1.238   9.822   9.979  0.0555  0.3250 -0.4841
  287MOL0     C37793   1.232   9.947  10.058 -0.8498 -0.0423  0.6758
  287MOL0     C37794   1.166   9.911  10.194 -0.1414 -0.1145 -0.0615
  287MOL0     C37795   1.123  10.036  10.286 -0.1845  1.1611  0.1043
  287MOL0    Cl37796   1.038  10.173  10.203  0.0490 -0.1996 -0.1391
  287MOL0     C37797   1.751  10.123   9.445  0.4378  0.0537  0.4888
  287MOL0     C37798   1.853  10.153   9.352  0.3881 -0.0786 -0.3973
  287MOL0     O37799   1.877  10.364   9.098  0.4997 -0.0409 -0.0912
  287MOL0     C37800   2.132  10.396   8.935 -0.6239  0.1779 -0.7787
  287MOL0     C37801   2.244  10.404   8.845  0.0867 -0.0489 -0.3908
  287MOL0     N37802   2.964   9.933   8.595 -0.6552 -0.1490 -0.2151
  287MOL0     N37803   3.094   9.910   8.575  0.5139 -0.5163  0.1288
  287MOL0     C37804   4.279   9.799   8.365 -0.2342 -0.6961 -0.0850
  287MOL0     C37805   4.412   9.767   8.407 -0.1530  0.0828 -0.4515
  287MOL0     C37806   4.806   9.504   8.370  0.0607  0.0505  0.5424
  287MOL0     C37807   4.840   9.501   8.503 -0.1816  0.4876 -0.5533
  287MOL0     C37808   4.969   9.466   8.538  0.4610  0.2698  0.1813
  287MOL0     C37809   5.073   9.447   8.441  0.5038  0.2584 -1.4240
  287MOL0     O37810   5.201   9.428   8.493  0.5437  0.1308 -0.9112
  287MOL0     C37811   5.307   9.455   8.402  0.1151  0.2490  0.1743
  287MOL0     C37812   5.366   9.319   8.366  0.0907  0.1287  0.9621
  287MOL0     C37813   5.478   9.323   8.274 -0.0485  0.0959 -0.1883
  287MOL0     C37814   5.572   9.202   8.289 -0.0179 -0.4297 -1.0837
  287MOL0     C37815   5.681   9.190   8.193  0.1720 -0.5767  0.0624
  287MOL0     C37816   5.769   9.167   8.108  0.3529  0.2724 -0.1277
  287MOL0     C37817   5.037   9.445   8.304 -0.0031 -0.4068  0.2615
  287MOL0     C37818   4.904   9.473   8.275  0.2463  0.2894 -0.5431
  287MOL0     H37819   4.400   9.431   8.352  2.9256  1.0871 -0.8561
  287MOL0     H37820   4.184   9.494   8.262  0.2359  0.5428 -1.1059
  287MOL0     H37821   3.990   9.590   8.427 -0.6351 -0.8925 -1.3098
  287MOL0     H37822   3.955   9.560   8.259 -0.9536 -1.4924  1.7605
  287MOL0     H37823   3.756   9.665   8.375 -1.0712 -0.6382 -2.3112
  287MOL0     H37824   3.832   9.771   8.249 -2.2716 -0.9435 -0.9669
  287MOL0     H37825   3.955   9.892   8.428  0.2284  0.9045 -1.4452
  287MOL0     H37826   3.850   9.807   8.544 -0.6767  0.2037  0.0089
  287MOL0     H37827   3.762  10.042   8.499 -1.8989 -1.4302  1.6899
  287MOL0     H37828   3.779  10.015   8.328 -1.8278  4.2737  0.1236
  287MOL0     H37829   3.598   9.850   8.505  0.7110 -0.5865 -0.1417
  287MOL0     H37830   3.572   9.876   8.332  1.5250 -2.7967  0.3400
  287MOL0     H37831   3.505  10.116   8.386 -1.1566 -0.0462 -0.6064
  287MOL0     H37832   3.554  10.108   8.546 -0.2717 -0.0971 -0.5908
  287MOL0     H37833   3.369   9.931   8.589 -0.4829  1.4114  2.6207
  287MOL0     H37834   3.337  10.103   8.583 -0.6285 -1.4620  1.7398
  287MOL0     H37835   3.304   9.870   8.368  0.9929 -1.3645  3.2351
  287MOL0     H37836   3.296  10.045   8.326  1.2226 -2.1146 -2.8925
  287MOL0     H37837   3.027  10.104   8.322  0.8894  0.3633  0.6550
  287MOL0     H37838   2.766  10.047   8.375 -2.2644  1.9570  0.2240
  287MOL0     H37839   2.814  10.191   8.451 -0.0013  0.2913 -2.0235
  287MOL0     H37840   2.744  10.057   8.688 -2.7554 -0.1212  1.3265
  287MOL0     H37841   2.625  10.000   8.570  1.9211 -1.5922 -2.9483
  287MOL0     H37842   2.676  10.293   8.654 -0.2645  0.6615 -0.7129
  287MOL0     H37843   2.575  10.246   8.521  1.6871  0.5655 -0.3565
  287MOL0     H37844   2.524  10.143   8.808  0.8521 -0.1151  0.1818
  287MOL0     H37845   2.434  10.102   8.656  1.3115 -1.5849  1.2030
  287MOL0     H37846   2.276  10.051   8.827 -3.6692 -0.9940 -0.7999
  287MOL0     H37847   2.103  10.060   8.983  4.3960 -0.9446  1.0258
  287MOL0     H37848   1.730  10.004   9.077 -0.4940 -2.0983 -0.0906
  287MOL0     H37849   1.581   9.916   9.237 -0.9381 -0.0970  2.4750
  287MOL0     H37850   1.512  10.122   9.627  3.9650 -0.2675 -0.2945
  287MOL0     H37851   1.602   9.974   9.682  0.0863  1.2455  2.3007
  287MOL0     H37852   1.367   9.858   9.604 -2.4252  1.5114 -2.9005
  287MOL0     H37853   1.300  10.011   9.643  0.8391  1.1156 -0.6093
  287MOL0     H37854   1.411   9.984   9.868 -0.8632 -0.3247 -0.5567
  287MOL0     H37855   1.475   9.832   9.815  2.1379  2.0759  1.2972
  287MOL0     H37856   1.172   9.900   9.805  0.8177  0.3227 -0.9282
  287MOL0     H37857   1.247   9.737   9.784 -2.0143  0.1264 -2.1757
  287MOL0     H37858   1.319   9.766  10.026  1.3741  1.8140 -0.8758
  287MOL0     H37859   1.141   9.773   9.984  1.8068 -3.3219  2.0153
  287MOL0     H37860   1.166  10.022  10.013 -4.5183 -1.4692  3.1047
  287MOL0     H37861   1.330   9.992  10.075 -0.0334 -1.1759 -0.8242
  287MOL0     H37862   1.074   9.855  10.172  1.7757 -3.5814  0.0855
  287MOL0     H37863   1.236   9.847  10.248  0.7082  0.4606 -0.4642
  287MOL0     H37864   1.220  10.069  10.324  0.4990  0.8715 -1.3341
  287MOL0     H37865   1.062  10.008  10.373 -2.8238 -0.1743 -2.0223
  287MOL0     H37866   1.762  10.159   9.546  3.8905  1.6079 -0.3152
  287MOL0     H37867   1.933  10.221   9.379 -2.3849  2.8479  1.0610
  287MOL0     H37868   2.089  10.490   8.967  0.1738 -0.0104  0.9669
  287MOL0     H37869   2.276  10.505   8.820  1.7766  0.4536  3.1301
  287MOL0     H37870   4.243   9.902   8.368 -0.5551 -0.7691 -0.9529
  287MOL0     H37871   4.481   9.846   8.438 -2.0550  1.9014 -0.6648
  287MOL0     H37872   4.764   9.522   8.577  0.9433  0.0057  0.7785
  287MOL0     H37873   4.990   9.498   8.640  0.3102  2.3136 -0.3684
  287MOL0     H37874   5.374   9.520   8.459  2.6905 -0.8896 -1.3629
  287MOL0     H37875   5.290   9.508   8.307 -2.6043 -0.5269  0.1401
  287MOL0     H37876   5.383   9.278   8.466 -0.5094  1.8444  1.8131
  287MOL0     H37877   5.290   9.261   8.315 -1.1733 -2.3578  5.1600
  287MOL0     H37878   5.527   9.420   8.290 -1.0823  0.3783  1.4763
  287MOL0     H37879   5.447   9.314   8.169 -1.8318 -0.6890  0.3806
  287MOL0     H37880   5.613   9.194   8.390 -0.0716 -2.4872 -1.1982
  287MOL0     H37881   5.511   9.115   8.267 -0.0447  0.0631 -3.2396
  287MOL0     H37882   5.845   9.147   8.036  0.4564 -2.9292  0.7554
  287MOL0     H37883   5.105   9.412   8.226 -1.7031 -2.4984 -0.4420
  287MOL0     H37884   4.870   9.461   8.173  1.4163 -1.3764 -0.7770
  288MOL0     O37885   6.150   2.628   1.439 -0.1754 -0.3348  0.1086
  288MOL0     C37886   6.183   2.657   1.555  0.1310 -0.9754  0.2796
  288MOL0     O37887   6.102   2.653   1.664  0.2705 -0.3807 -0.6400
  288MOL0     C37888   5.968   2.624   1.647 -0.6892  0.7571 -0.2656
  288MOL0     C37889   5.885   2.716   1.578 -0.2722  0.2752 -0.3257
  288MOL0     C37890   5.748   2.687   1.567  0.7865  0.6781  0.4054
  288MOL0     C37891   5.695   2.560   1.614 -0.5158 -0.4247 -0.1359
  288MOL0     O37892   5.561   2.527   1.611 -0.5161  0.1887  0.6577
  288MOL0     C37893   5.491   2.562   1.492  0.2576 -0.4890 -0.4195
  288MOL0     C37894   5.376   2.467   1.472  0.3237  0.0528 -0.2291
  288MOL0     C37895   5.279   2.493   1.587 -0.2984 -0.3093 -0.0623
  288MOL0     C37896   5.149   2.422   1.558  0.4149 -0.4982  0.6826
  288MOL0     C37897   5.050   2.463   1.666  0.3064  0.4446 -0.0321
  288MOL0     C37898   4.914   2.392   1.662 -0.4089  0.9661 -0.5443
  288MOL0     C37899   4.852   2.361   1.809 -0.0215  0.8138  0.0305
  288MOL0     C37900   4.902   2.228   1.857 -0.0413 -0.4323  0.0421
  288MOL0     N37901   4.812   2.185   1.961  0.0579  0.7277 -0.4243
  288MOL0     C37902   4.687   2.133   1.934 -0.4503  0.1757 -0.0415
  288MOL0     C37903   4.629   2.098   2.054 -0.7491  0.4116  1.3572
  288MOL0     C37904   4.507   2.012   2.085  0.0925 -0.5529 -0.4407
  288MOL0     C37905   4.541   1.883   2.167 -0.1151  0.0684  0.9684
  288MOL0     C37906   4.628   1.783   2.091 -0.6560  0.3264 -0.0423
  288MOL0     C37907   4.608   1.764   1.935 -0.2248 -0.9231  0.4036
  288MOL0     O37908   4.480   1.713   1.891  0.4405  0.1981 -0.2881
  288MOL0     C37909   4.451   1.583   1.888 -0.3178 -0.3488 -0.3593
  288MOL0     C37910   4.543   1.483   1.889  0.0476  0.4029 -0.2053
  288MOL0     C37911   4.513   1.346   1.866  0.3730  0.1425 -1.2821
  288MOL0     C37912   4.372   1.312   1.849 -0.2195  1.4551 -0.8880
  288MOL0     C37913   4.323   1.173   1.810 -0.1849 -0.1209  0.2474
  288MOL0     O37914   4.415   1.067   1.831  0.5282  0.3604 -0.0181
  288MOL0     C37915   4.393   0.944   1.776  0.6319 -0.3239  0.1674
  288MOL0     C37916   4.320   0.856   1.851  0.1082 -0.8623  0.0474
  288MOL0     C37917   4.294   0.728   1.789 -0.0600 -0.2043  0.3264
  288MOL0     C37918   4.347   0.691   1.664  0.2758 -0.5787 -0.5763
  288MOL0     O37919   4.319   0.561   1.621  0.0981 -0.4180  0.0322
  288MOL0     C37920   4.420   0.489   1.558 -0.3516  0.1758  0.4257
  288MOL0     C37921   4.358   0.374   1.483 -0.6646 -0.1361  0.4215
  288MOL0     C37922   4.299   0.263   1.571  0.3457 -0.5063  0.2195
  288MOL0     C37923   4.222   0.163   1.483 -0.5843 -0.7111  0.0530
  288MOL0     C37924   4.187   0.048   1.572  0.0056  0.2361  0.0943
  288MOL0     C37925   4.100  -0.038   1.483  0.8689 -0.0949 -0.4876
  288MOL0     C37926   4.053  -0.167   1.548  0.1800  1.1425 -0.3332
  288MOL0     C37927   4.004  -0.263   1.453  0.9524  0.4994 -0.3820
  288MOL0    Cl37928   3.845  -0.216   1.391  0.0093  0.0155  0.0960
  288MOL0     C37929   4.434   0.783   1.599 -0.2966  0.3631 -0.2227
  288MOL0     C37930   4.453   0.912   1.657 -0.9314 -0.0363  0.5394
  288MOL0     O37931   4.217   1.160   1.748 -0.0160 -0.7974 -0.6827
  288MOL0     C37932   4.287   1.413   1.849  0.2433  0.6427  0.7346
  288MOL0     C37933   4.319   1.546   1.863  0.3435  0.3249 -0.5271
  288MOL0     N37934   4.718   2.151   2.149 -0.2403 -1.0325 -0.9056
  288MOL0     N37935   4.827   2.203   2.096 -0.3931  0.6233  0.0744
  288MOL0     C37936   5.775   2.481   1.688 -0.4682 -0.2060  0.4378
  288MOL0     C37937   5.913   2.514   1.705  0.1647  0.6651 -0.8250
  288MOL0     C37938   6.329   2.674   1.586  0.2120  0.0557  0.0709
  288MOL0     C37939   6.376   2.660   1.719 -0.0593  0.9079  0.5129
  288MOL0     C37940   6.511   2.673   1.749  0.2710  0.5268 -0.3019
  288MOL0     C37941   6.598   2.724   1.655 -0.0080 -0.3618  0.9069
  288MOL0     O37942   6.733   2.748   1.670  0.1120  0.6236 -0.5738
  288MOL0     C37943   6.780   2.769   1.803 -0.1513 -0.4793  0.2560
  288MOL0     C37944   6.931   2.811   1.813 -0.5129  1.0066 -0.4096
  288MOL0     C37945   7.024   2.705   1.751 -0.6698 -0.5786  0.5466
  288MOL0     C37946   7.157   2.766   1.717  1.1088 -0.2513  0.4098
  288MOL0     C37947   7.207   2.812   1.843  0.2820  0.2281  0.2039
  288MOL0     C37948   7.238   2.866   1.944  0.3574  0.4771 -0.8167
  288MOL0     C37949   6.557   2.735   1.524 -0.1897  0.4321  0.1994
  288MOL0     C37950   6.426   2.704   1.488 -0.3488  0.2186 -0.5213
  288MOL0     H37951   5.927   2.808   1.537 -0.8847 -0.0187 -1.6886
  288MOL0     H37952   5.677   2.760   1.532  1.2356  1.4276  1.0209
  288MOL0     H37953   5.561   2.569   1.408  2.2187  0.9592  1.2294
  288MOL0     H37954   5.440   2.658   1.509 -0.3225 -0.3869 -2.4654
  288MOL0     H37955   5.413   2.364   1.477 -2.2283 -0.9372 -0.0581
  288MOL0     H37956   5.334   2.476   1.372  0.0707  1.0402 -0.0461
  288MOL0     H37957   5.262   2.601   1.588 -1.6817 -0.4531 -2.0588
  288MOL0     H37958   5.316   2.443   1.677  1.7405 -3.1697 -2.2655
  288MOL0     H37959   5.117   2.455   1.459  0.2225  0.5063  1.0559
  288MOL0     H37960   5.161   2.314   1.565 -0.8147 -0.8982 -2.1557
  288MOL0     H37961   5.044   2.572   1.680  1.1708  0.4991 -0.0221
  288MOL0     H37962   5.091   2.423   1.759 -1.1855 -0.2965  0.3342
  288MOL0     H37963   4.927   2.299   1.607 -1.2676  0.3337  0.2755
  288MOL0     H37964   4.840   2.451   1.607  1.0039  1.9810 -1.4073
  288MOL0     H37965   4.882   2.444   1.873 -1.4586  3.7107 -2.7819
  288MOL0     H37966   4.743   2.356   1.801 -0.5593  2.4147  4.0613
  288MOL0     H37967   5.006   2.236   1.890 -1.0748 -0.4421  3.7683
  288MOL0     H37968   4.895   2.152   1.779  1.4727 -0.0524 -0.4976
  288MOL0     H37969   4.636   2.108   1.841 -1.5377 -1.2492  0.9011
  288MOL0     H37970   4.445   1.995   1.997 -0.3115  0.5779 -0.3849
  288MOL0     H37971   4.437   2.072   2.144 -0.0587  0.2449 -1.4234
  288MOL0     H37972   4.447   1.833   2.195 -1.3800  0.5622 -1.9979
  288MOL0     H37973   4.596   1.912   2.257 -2.5105 -0.6331  2.7712
  288MOL0     H37974   4.734   1.805   2.100 -0.5279 -0.2202 -0.1782
  288MOL0     H37975   4.616   1.685   2.137  0.0127 -0.1095 -0.7836
  288MOL0     H37976   4.691   1.707   1.890 -0.8815 -0.9607 -0.8147
  288MOL0     H37977   4.620   1.865   1.894 -2.2739 -0.5088  0.7389
  288MOL0     H37978   4.649   1.492   1.907 -0.0915 -1.0861  1.7181
  288MOL0     H37979   4.589   1.269   1.866  2.3777  1.9643  1.2004
  288MOL0     H37980   4.284   0.885   1.949  1.6241 -0.3534  0.4942
  288MOL0     H37981   4.248   0.645   1.842  1.9608 -0.5009  1.7158
  288MOL0     H37982   4.498   0.456   1.627  1.1830 -0.1627 -1.3919
  288MOL0     H37983   4.466   0.556   1.484  1.0980  0.7433  1.7761
  288MOL0     H37984   4.441   0.332   1.425 -1.6656 -0.1506 -1.0785
  288MOL0     H37985   4.287   0.413   1.408  0.8139  0.0100 -0.9467
  288MOL0     H37986   4.231   0.317   1.638  1.7552  3.6627 -1.3908
  288MOL0     H37987   4.385   0.220   1.624  0.8513 -0.8473 -0.8492
  288MOL0     H37988   4.136   0.213   1.438  0.2627  0.2163 -0.5834
  288MOL0     H37989   4.286   0.126   1.402 -1.0517 -0.4882 -0.4302
  288MOL0     H37990   4.130   0.074   1.662 -0.9069  1.0345 -0.6920
  288MOL0     H37991   4.283   0.000   1.597  0.8056  1.4826 -0.5084
  288MOL0     H37992   4.168  -0.063   1.401  0.2304 -1.8082 -0.5285
  288MOL0     H37993   4.012   0.017   1.447 -1.7517 -2.0361  2.4306
  288MOL0     H37994   4.135  -0.217   1.600 -2.0372 -3.7602 -0.9809
  288MOL0     H37995   3.974  -0.139   1.619  0.8529  0.2595  0.8006
  288MOL0     H37996   3.994  -0.365   1.493  2.2020  0.4977 -0.0446
  288MOL0     H37997   4.078  -0.270   1.373 -0.2606  0.5830 -1.5342
  288MOL0     H37998   4.481   0.766   1.503 -2.6622 -2.0658 -1.0567
  288MOL0     H37999   4.520   0.979   1.603 -1.4438  0.0555  0.0029
  288MOL0     H38000   4.184   1.403   1.817  0.5119 -1.8391  0.4380
  288MOL0     H38001   4.242   1.622   1.856  0.9427  0.9586 -0.3538
  288MOL0     H38002   5.733   2.395   1.738 -1.0721  0.4780  1.1164
  288MOL0     H38003   5.963   2.444   1.772 -2.8775  1.7952  3.0064
  288MOL0     H38004   6.309   2.619   1.794  0.5302  0.5359  0.8437
  288MOL0     H38005   6.545   2.635   1.845 -0.2017 -1.8815 -1.0317
  288MOL0     H38006   6.765   2.666   1.836 -1.1496 -0.0805  1.1125
  288MOL0     H38007   6.713   2.841   1.851 -0.9408 -0.3812 -0.9632
  288MOL0     H38008   6.956   2.910   1.774 -2.3791  0.8892 -2.0631
  288MOL0     H38009   6.939   2.802   1.921 -3.3853  1.5404 -0.0495
  288MOL0     H38010   6.986   2.675   1.653  1.2575  0.6417 -0.6422
  288MOL0     H38011   7.027   2.614   1.812 -1.1235 -1.4360 -0.6510
  288MOL0     H38012   7.223   2.687   1.678  1.2811 -0.6446  1.4554
  288MOL0     H38013   7.149   2.852   1.650  4.3828 -0.1844 -0.0762
  288MOL0     H38014   7.274   2.921   2.028  0.3480  1.2361 -1.2972
  288MOL0     H38015   6.635   2.774   1.460 -0.6133  0.5905 -0.2341
  288MOL0     H38016   6.408   2.710   1.381  1.0898  0.2181 -0.7832
  289MOL0     O38017   1.150   6.773   8.506 -0.2242 -0.3554  0.0282
  289MOL0     C38018   1.141   6.730   8.391  0.2562 -1.3150  0.3736
  289MOL0     O38019   1.068   6.792   8.289  0.3192  0.5292  0.2947
  289MOL0     C38020   0.967   6.876   8.318  0.3242 -0.2544 -0.7062
  289MOL0     C38021   0.826   6.843   8.315 -0.7845  0.4338  0.0494
  289MOL0     C38022   0.730   6.940   8.348  0.9565  0.3225 -0.4901
  289MOL0     C38023   0.766   7.069   8.389 -0.2168  0.3318 -0.1785
  289MOL0     O38024   0.661   7.156   8.417 -0.4397 -0.5290 -0.2038
  289MOL0     C38025   0.692   7.293   8.438  0.0065 -0.1477  0.3415
  289MOL0     C38026   0.569   7.382   8.462  0.1721  0.5228 -0.5579
  289MOL0     C38027   0.466   7.383   8.349  1.2523 -1.0345  0.7856
  289MOL0     C38028   0.348   7.485   8.367 -0.7607 -0.0728 -0.3153
  289MOL0     C38029   0.225   7.445   8.269  0.1075  0.1348 -0.2299
  289MOL0     C38030   0.087   7.503   8.307  0.0128 -0.0420 -0.0926
  289MOL0     C38031  -0.018   7.458   8.201  0.6623 -0.5575 -0.4126
  289MOL0     C38032  -0.102   7.345   8.241  0.2649  0.0768 -0.4282
  289MOL0     N38033  -0.225   7.347   8.171  0.6134 -0.2454  0.2551
  289MOL0     C38034  -0.351   7.404   8.211  0.1943  1.2817  0.3235
  289MOL0     C38035  -0.438   7.386   8.116  0.2362 -1.0539 -0.6313
  289MOL0     C38036  -0.577   7.428   8.121 -0.1275 -0.3930  0.2142
  289MOL0     C38037  -0.587   7.582   8.131  0.0573  0.5218 -0.1963
  289MOL0     C38038  -0.734   7.619   8.161 -0.1121 -0.1683 -0.2313
  289MOL0     C38039  -0.750   7.777   8.157  0.0788  0.0802  0.3260
  289MOL0     O38040  -0.893   7.803   8.135 -0.4725 -0.0371  0.6926
  289MOL0     C38041  -0.982   7.812   8.237 -0.3229 -0.0803  0.4881
  289MOL0     C38042  -0.959   7.757   8.367 -0.6897  0.2770 -0.0784
  289MOL0     C38043  -1.046   7.772   8.474  0.2474  0.0356 -0.0377
  289MOL0     C38044  -1.169   7.848   8.460 -0.2303 -0.3764  0.8935
  289MOL0     C38045  -1.283   7.851   8.550 -0.4436  0.7260  0.3953
  289MOL0     O38046  -1.400   7.907   8.499  0.1173 -0.2298 -0.6574
  289MOL0     C38047  -1.518   7.922   8.560  0.5596 -1.0189  0.1742
  289MOL0     C38048  -1.558   7.852   8.675 -0.1741  0.4151  0.5454
  289MOL0     C38049  -1.684   7.864   8.729 -0.5299 -0.0305 -1.0153
  289MOL0     C38050  -1.785   7.937   8.670 -0.1239 -0.2443  0.5430
  289MOL0     O38051  -1.906   7.953   8.734  0.3369 -0.0567  0.1625
  289MOL0     C38052  -1.962   7.845   8.815 -1.3209 -0.6897 -0.0021
  289MOL0     C38053  -2.108   7.867   8.852 -0.3302  0.0475  0.4692
  289MOL0     C38054  -2.130   8.015   8.896  0.4664 -0.3543  0.9017
  289MOL0     C38055  -2.251   7.998   8.982 -0.7735 -0.7062 -0.5594
  289MOL0     C38056  -2.309   8.141   9.004 -0.7296  0.9759 -0.6929
  289MOL0     C38057  -2.395   8.157   9.130  0.7662 -0.3753  0.3860
  289MOL0     C38058  -2.531   8.091   9.122  1.4028 -0.4004 -0.0474
  289MOL0     C38059  -2.598   8.084   9.260 -0.6906 -0.4159 -1.2047
  289MOL0    Cl38060  -2.744   7.985   9.248 -0.0766 -0.5376  0.0102
  289MOL0     C38061  -1.747   8.006   8.554 -0.9720  0.0456  0.5182
  289MOL0     C38062  -1.617   8.010   8.506 -0.8131  0.1729  0.1030
  289MOL0     O38063  -1.262   7.810   8.662 -0.4632  0.9046  0.4522
  289MOL0     C38064  -1.194   7.892   8.317  0.1317  0.2919 -0.4669
  289MOL0     C38065  -1.103   7.874   8.214 -0.4460 -0.5480 -0.3417
  289MOL0     N38066  -0.365   7.339   8.010  0.7018 -0.2355  0.1876
  289MOL0     N38067  -0.242   7.324   8.039 -0.7519 -0.8754 -0.3556
  289MOL0     C38068   0.902   7.097   8.398 -0.5419 -0.4218  0.0591
  289MOL0     C38069   1.003   7.003   8.354 -0.2897 -0.2991 -0.0996
  289MOL0     C38070   1.245   6.626   8.365  0.0200 -0.8702  0.2865
  289MOL0     C38071   1.306   6.548   8.465  0.0796 -0.0049 -0.1993
  289MOL0     C38072   1.396   6.450   8.424 -0.0954 -0.6841  0.1413
  289MOL0     C38073   1.420   6.428   8.284  0.0402 -0.5259 -0.2981
  289MOL0     O38074   1.527   6.360   8.234 -0.2233  0.5533 -0.2003
  289MOL0     C38075   1.648   6.349   8.308 -0.4651 -0.0318  0.0078
  289MOL0     C38076   1.723   6.252   8.225  0.0923 -0.3872 -0.0087
  289MOL0     C38077   1.858   6.211   8.302 -0.6637 -0.4893 -0.2885
  289MOL0     C38078   1.867   6.076   8.361  0.7725  0.3240 -0.0603
  289MOL0     C38079   1.763   6.045   8.460  0.0881  0.2576 -0.2025
  289MOL0     C38080   1.684   6.015   8.553  0.7422 -0.5507 -0.6765
  289MOL0     C38081   1.367   6.505   8.185  0.1384  0.4516  0.4450
  289MOL0     C38082   1.275   6.603   8.227  1.0382 -0.4365  0.2485
  289MOL0     H38083   0.805   6.741   8.285  3.7560 -0.8062  0.2806
  289MOL0     H38084   0.625   6.912   8.346  0.9274  0.4445 -2.4428
  289MOL0     H38085   0.738   7.336   8.349 -0.2819  1.5428  0.9624
  289MOL0     H38086   0.769   7.324   8.509 -2.1297  3.4668  1.3450
  289MOL0     H38087   0.603   7.484   8.482 -0.9241  0.6928  0.5496
  289MOL0     H38088   0.522   7.358   8.557  2.0296  0.6510  0.4480
  289MOL0     H38089   0.427   7.282   8.333  1.4992 -0.9535 -0.4910
  289MOL0     H38090   0.508   7.400   8.249 -0.5151 -2.7894 -0.3392
  289MOL0     H38091   0.308   7.491   8.469 -0.7021  0.4856 -0.3185
  289MOL0     H38092   0.389   7.585   8.350 -1.4881  0.0131 -1.6467
  289MOL0     H38093   0.219   7.336   8.278 -1.4962  0.2562  0.4426
  289MOL0     H38094   0.250   7.483   8.169 -1.6730 -2.3338 -1.7240
  289MOL0     H38095   0.104   7.611   8.297  2.1140 -0.4716 -2.1242
  289MOL0     H38096   0.052   7.483   8.408  2.0719 -1.4315  0.4102
  289MOL0     H38097  -0.086   7.543   8.190  0.2131 -1.1088 -2.2313
  289MOL0     H38098   0.026   7.443   8.102  2.4103  1.9958 -0.1351
  289MOL0     H38099  -0.125   7.355   8.348  0.4553  0.0644 -0.3869
  289MOL0     H38100  -0.035   7.261   8.220 -1.2006 -0.5004 -3.3598
  289MOL0     H38101  -0.373   7.436   8.312 -0.4758 -2.7521  1.6477
  289MOL0     H38102  -0.606   7.380   8.215  0.0886 -3.2767 -1.0708
  289MOL0     H38103  -0.636   7.368   8.050 -0.4482 -0.1813  0.2985
  289MOL0     H38104  -0.552   7.621   8.035  0.0061  0.4597 -0.2401
  289MOL0     H38105  -0.511   7.609   8.205  2.0497  0.9949 -2.3041
  289MOL0     H38106  -0.792   7.586   8.074  0.2753 -0.1759 -0.4893
  289MOL0     H38107  -0.771   7.574   8.253 -1.6182 -1.0960 -1.2476
  289MOL0     H38108  -0.684   7.812   8.077  0.4766 -0.8130  0.2484
  289MOL0     H38109  -0.702   7.820   8.245  3.0715 -3.1952  0.5436
  289MOL0     H38110  -0.861   7.715   8.387 -1.2001 -1.2323 -0.6342
  289MOL0     H38111  -1.024   7.723   8.569  1.7690  0.5561 -0.0932
  289MOL0     H38112  -1.491   7.776   8.713 -1.3797 -1.4330 -0.9018
  289MOL0     H38113  -1.690   7.807   8.821  0.7518 -1.3528 -1.7229
  289MOL0     H38114  -1.890   7.839   8.898  0.0389 -1.4570 -1.1861
  289MOL0     H38115  -1.947   7.754   8.757  0.2275  0.1576 -1.0056
  289MOL0     H38116  -2.142   7.801   8.932 -0.4537  1.0665  1.2892
  289MOL0     H38117  -2.171   7.848   8.764 -0.2327 -0.5855  0.5372
  289MOL0     H38118  -2.140   8.085   8.812 -2.4563  0.2837  1.6596
  289MOL0     H38119  -2.040   8.044   8.950 -0.3744  0.0652  2.1018
  289MOL0     H38120  -2.330   7.941   8.932 -0.4174 -0.6268 -1.2246
  289MOL0     H38121  -2.216   7.968   9.081 -0.8321  0.4034 -0.1881
  289MOL0     H38122  -2.360   8.178   8.915  0.1533  0.9002 -1.2429
  289MOL0     H38123  -2.220   8.201   9.021  2.8192 -3.5710 -1.1323
  289MOL0     H38124  -2.429   8.260   9.144 -0.0297 -0.5232 -0.4503
  289MOL0     H38125  -2.347   8.128   9.224 -0.7624  0.3467  1.4284
  289MOL0     H38126  -2.592   8.153   9.057 -1.3168 -3.0974 -0.3096
  289MOL0     H38127  -2.527   7.993   9.072  0.2313 -0.1598 -0.6284
  289MOL0     H38128  -2.629   8.187   9.281  0.8531  0.4266 -2.7327
  289MOL0     H38129  -2.530   8.040   9.334 -1.8573 -2.0064 -1.0252
  289MOL0     H38130  -1.824   8.066   8.505 -1.7474  0.6665  2.4034
  289MOL0     H38131  -1.588   8.060   8.414 -2.0887  1.2187  0.2381
  289MOL0     H38132  -1.280   7.956   8.300  0.7382  0.9914 -0.9683
  289MOL0     H38133  -1.126   7.900   8.111 -1.4446  1.0930  0.2639
  289MOL0     H38134   0.929   7.199   8.425 -1.5881 -0.2649  0.5929
  289MOL0     H38135   1.105   7.039   8.350 -0.3362 -0.1148  0.3148
  289MOL0     H38136   1.285   6.578   8.567 -2.2891  2.1256 -1.2033
  289MOL0     H38137   1.441   6.385   8.498  1.5655  2.3567  2.0341
  289MOL0     H38138   1.622   6.322   8.411 -0.4736  1.2709  0.3646
  289MOL0     H38139   1.711   6.439   8.302  0.2149 -0.5673 -1.2702
  289MOL0     H38140   1.658   6.167   8.203  0.4719 -0.7810  0.3782
  289MOL0     H38141   1.747   6.317   8.140  0.3582  0.5668  0.7742
  289MOL0     H38142   1.868   6.286   8.381 -1.3166 -0.7108  0.0122
  289MOL0     H38143   1.941   6.214   8.230  0.6404  0.0825  1.1623
  289MOL0     H38144   1.870   5.997   8.286  1.3481 -0.9370  1.2568
  289MOL0     H38145   1.963   6.077   8.413  0.8153 -0.0480 -0.1305
  289MOL0     H38146   1.624   6.002   8.641  1.8865 -2.9187 -0.1639
  289MOL0     H38147   1.373   6.483   8.079  0.8880 -0.7891  0.7319
  289MOL0     H38148   1.222   6.654   8.147 -0.2724  1.9060  2.4123
  290MOL0     O38149   1.398   9.441   0.901  0.3223 -0.8275 -0.1523
  290MOL0     C38150   1.403   9.548   0.951 -0.4274 -0.5793  0.3333
  290MOL0     O38151   1.299   9.630   0.983 -0.2365 -0.0691 -0.8346
  290MOL0     C38152   1.170   9.604   0.945 -0.9969 -0.0955 -0.7384
  290MOL0     C38153   1.140   9.595   0.811 -0.7508 -0.2989 -0.2793
  290MOL0     C38154   1.006   9.601   0.776  0.2142  0.7350 -0.5679
  290MOL0     C38155   0.908   9.576   0.877 -0.0227  0.2565 -0.4832
  290MOL0     O38156   0.771   9.552   0.858 -0.2497  0.1496 -0.1642
  290MOL0     C38157   0.706   9.666   0.793  0.7114 -0.0319  0.6288
  290MOL0     C38158   0.631   9.604   0.673  0.1504 -0.5240 -0.3539
  290MOL0     C38159   0.595   9.718   0.573 -0.9748  0.1401 -0.4825
  290MOL0     C38160   0.484   9.681   0.474  0.5633  0.3272 -0.2345
  290MOL0     C38161   0.353   9.657   0.556  0.0395 -0.5129 -0.6854
  290MOL0     C38162   0.235   9.637   0.472 -1.1742 -0.7525 -0.0264
  290MOL0     C38163   0.126   9.559   0.534  0.6197  0.5972 -1.0216
  290MOL0     C38164   0.024   9.502   0.432 -0.4232  0.2340  0.2618
  290MOL0     N38165  -0.103   9.474   0.497  0.9410 -0.0607  0.1189
  290MOL0     C38166  -0.125   9.350   0.562 -0.7106  0.2374 -0.8665
  290MOL0     C38167  -0.263   9.340   0.576  0.7124 -0.3708  0.1815
  290MOL0     C38168  -0.339   9.228   0.635  0.3194 -0.1731  0.0094
  290MOL0     C38169  -0.359   9.238   0.788  0.1547 -0.2067 -0.0726
  290MOL0     C38170  -0.468   9.346   0.825 -0.1752  1.0514  1.3285
  290MOL0     C38171  -0.548   9.302   0.942 -0.4415  0.1837 -0.2661
  290MOL0     O38172  -0.615   9.422   0.983  0.3818 -0.2576  0.4173
  290MOL0     C38173  -0.752   9.413   0.989  0.8129 -0.7175 -0.4539
  290MOL0     C38174  -0.832   9.460   1.099  0.4669  0.5353 -0.6696
  290MOL0     C38175  -0.972   9.449   1.091  0.3874 -0.2952 -0.5283
  290MOL0     C38176  -1.041   9.393   0.986  0.2194 -0.8943 -0.1247
  290MOL0     C38177  -1.193   9.371   0.996 -0.1304 -0.7724 -0.0069
  290MOL0     O38178  -1.253   9.428   1.108 -0.1053  0.4894 -0.3276
  290MOL0     C38179  -1.376   9.387   1.147  0.4449  0.2089  0.3572
  290MOL0     C38180  -1.422   9.438   1.277  0.2142 -0.3716 -0.8063
  290MOL0     C38181  -1.556   9.413   1.330  0.1840  0.0604  0.0699
  290MOL0     C38182  -1.650   9.337   1.257 -0.1371 -0.7618 -0.2974
  290MOL0     O38183  -1.774   9.302   1.301 -0.4777 -0.0002  0.6622
  290MOL0     C38184  -1.832   9.345   1.424  0.9144  0.8447 -0.1364
  290MOL0     C38185  -1.791   9.247   1.534 -0.4992  0.8193  0.5780
  290MOL0     C38186  -1.872   9.258   1.667 -0.9691  0.0423 -0.8138
  290MOL0     C38187  -1.803   9.216   1.786 -1.3034 -0.0998 -0.0347
  290MOL0     C38188  -1.809   9.070   1.802  0.0871 -0.4843 -0.2736
  290MOL0     C38189  -1.779   9.024   1.941  0.1774 -0.5154 -0.2826
  290MOL0     C38190  -1.635   9.032   1.985 -0.6178 -0.3678 -0.6298
  290MOL0     C38191  -1.546   8.919   1.922 -0.1326 -0.4976  0.1849
  290MOL0    Cl38192  -1.371   8.935   1.957 -0.2411 -0.3241 -0.2473
  290MOL0     C38193  -1.600   9.278   1.134  0.7356  0.4326 -0.9940
  290MOL0     C38194  -1.476   9.304   1.082 -0.3938 -0.1389 -0.0284
  290MOL0     O38195  -1.254   9.320   0.903  0.1701 -0.1363  0.1635
  290MOL0     C38196  -0.966   9.356   0.873  0.6515 -0.7557  0.1642
  290MOL0     C38197  -0.830   9.369   0.876  0.2483 -0.4747  0.4751
  290MOL0     N38198  -0.313   9.459   0.524 -0.3073  0.9941 -0.2028
  290MOL0     N38199  -0.222   9.537   0.482 -0.5752  0.0512 -0.7862
  290MOL0     C38200   0.953   9.568   1.016  0.2008 -1.4295 -0.1353
  290MOL0     C38201   1.087   9.582   1.050  0.0699 -0.5898 -1.0655
  290MOL0     C38202   1.532   9.583   1.006 -0.8509  0.6721 -0.1394
  290MOL0     C38203   1.649   9.509   0.962 -0.2961 -0.4895 -0.7001
  290MOL0     C38204   1.776   9.544   1.013 -0.5986  0.0852  0.0675
  290MOL0     C38205   1.787   9.641   1.109  0.1736  0.2127 -0.0251
  290MOL0     O38206   1.911   9.665   1.163 -0.1805  0.4473 -0.5160
  290MOL0     C38207   1.916   9.661   1.309  0.2858  0.5243 -0.3938
  290MOL0     C38208   2.006   9.546   1.362  0.7013 -0.3221 -0.2369
  290MOL0     C38209   2.141   9.533   1.272  1.0330 -0.2027 -0.2060
  290MOL0     C38210   2.244   9.638   1.311  0.6732 -0.9874  0.2576
  290MOL0     C38211   2.321   9.647   1.435 -1.0322 -0.1480 -0.3415
  290MOL0     C38212   2.390   9.647   1.538  0.7446  0.8134  0.2047
  290MOL0     C38213   1.674   9.715   1.150  0.4731 -0.5805  0.0058
  290MOL0     C38214   1.546   9.682   1.097 -0.9799 -0.0089  0.0987
  290MOL0     H38215   1.223   9.608   0.742  2.0911  2.6375  3.2168
  290MOL0     H38216   0.975   9.576   0.675 -1.3220 -1.4430  0.3629
  290MOL0     H38217   0.778   9.741   0.760 -1.4226  1.6676 -0.4757
  290MOL0     H38218   0.633   9.716   0.858  0.2688  0.7984 -0.4787
  290MOL0     H38219   0.544   9.561   0.723 -0.8285  0.6635 -0.9898
  290MOL0     H38220   0.698   9.537   0.619  0.3505 -0.3075 -0.3759
  290MOL0     H38221   0.691   9.751   0.532 -0.8223 -1.6129 -1.6641
  290MOL0     H38222   0.557   9.805   0.627  2.7868  2.9116 -1.8244
  290MOL0     H38223   0.477   9.770   0.411  3.7756  0.3909 -0.6644
  290MOL0     H38224   0.503   9.592   0.414  0.6839  1.1985 -1.5142
  290MOL0     H38225   0.345   9.746   0.618  2.1043 -0.6645 -0.1169
  290MOL0     H38226   0.362   9.570   0.622  1.3689  0.0088 -0.1466
  290MOL0     H38227   0.269   9.592   0.379 -4.9159  1.3296 -2.6474
  290MOL0     H38228   0.204   9.736   0.437  2.5992 -0.2522 -2.5152
  290MOL0     H38229   0.164   9.486   0.606  0.3006  0.9840 -0.4531
  290MOL0     H38230   0.066   9.633   0.588 -1.2637  0.0427 -2.2640
  290MOL0     H38231   0.066   9.406   0.399 -0.5108  0.1512  0.3936
  290MOL0     H38232   0.009   9.575   0.352 -0.3517  0.9277  0.8694
  290MOL0     H38233  -0.058   9.282   0.613 -1.3500  1.0485  1.1282
  290MOL0     H38234  -0.292   9.136   0.598  0.6015 -0.2419  0.5299
  290MOL0     H38235  -0.441   9.244   0.597  1.2275  3.2915 -1.4025
  290MOL0     H38236  -0.262   9.263   0.833 -0.1189  1.0372 -0.1408
  290MOL0     H38237  -0.387   9.142   0.833  0.0068 -0.2779 -0.3184
  290MOL0     H38238  -0.421   9.442   0.849 -0.8914  1.8127 -0.2056
  290MOL0     H38239  -0.532   9.366   0.739  1.4406  0.1468 -0.1369
  290MOL0     H38240  -0.476   9.280   1.021 -1.0187  0.5973  0.3859
  290MOL0     H38241  -0.613   9.215   0.926  1.3903 -1.8061  2.1828
  290MOL0     H38242  -0.785   9.502   1.187  0.3684  2.4613 -1.4814
  290MOL0     H38243  -1.032   9.482   1.176 -0.3324 -1.2989 -0.6433
  290MOL0     H38244  -1.355   9.497   1.339  0.2374 -1.4519  0.2468
  290MOL0     H38245  -1.591   9.449   1.426 -2.2349 -2.0163  0.0931
  290MOL0     H38246  -1.939   9.324   1.416  1.2971 -1.3632 -0.3108
  290MOL0     H38247  -1.813   9.452   1.437  1.7499  0.5060  1.7735
  290MOL0     H38248  -1.688   9.281   1.544 -0.7490  1.4259  1.1842
  290MOL0     H38249  -1.792   9.144   1.496  1.8538 -0.7069  4.0850
  290MOL0     H38250  -1.966   9.208   1.641 -0.4008 -1.9230  0.6326
  290MOL0     H38251  -1.902   9.362   1.677 -1.6554 -0.3380  1.8156
  290MOL0     H38252  -1.707   9.267   1.783 -1.4824  0.1913 -2.4072
  290MOL0     H38253  -1.839   9.255   1.882  4.7736 -1.2475  3.1871
  290MOL0     H38254  -1.735   9.026   1.735  1.1652 -2.6141  2.1457
  290MOL0     H38255  -1.901   9.023   1.763  2.3543 -4.0421 -1.8674
  290MOL0     H38256  -1.811   8.921   1.958  2.1306 -1.1906 -0.4406
  290MOL0     H38257  -1.832   9.092   2.009  1.1631  1.9887 -1.8421
  290MOL0     H38258  -1.583   9.124   1.956 -0.7271 -0.7147 -2.0336
  290MOL0     H38259  -1.640   9.012   2.092  2.3499 -4.1499 -0.9617
  290MOL0     H38260  -1.557   8.933   1.814  0.2447  0.1719  0.2256
  290MOL0     H38261  -1.577   8.818   1.950  1.3216 -0.7745  0.9287
  290MOL0     H38262  -1.677   9.228   1.076  2.0496  0.0890 -2.5076
  290MOL0     H38263  -1.473   9.277   0.977 -0.6875  0.6482 -0.2511
  290MOL0     H38264  -1.013   9.326   0.780  0.2373  0.2798  0.0250
  290MOL0     H38265  -0.784   9.348   0.780 -1.8866  1.1341 -1.0039
  290MOL0     H38266   0.880   9.557   1.096  0.6559  1.9454  0.9253
  290MOL0     H38267   1.119   9.588   1.153  0.4058  0.0905 -1.2032
  290MOL0     H38268   1.644   9.432   0.886 -1.7950 -0.1330 -0.9931
  290MOL0     H38269   1.854   9.479   0.974 -1.7959 -1.6577  0.4388
  290MOL0     H38270   1.819   9.651   1.359 -0.1834  1.5617 -1.0522
  290MOL0     H38271   1.957   9.756   1.345 -1.1225  1.3554 -0.8637
  290MOL0     H38272   2.036   9.571   1.464 -0.8842  1.6348 -0.1864
  290MOL0     H38273   1.947   9.454   1.359 -0.3670  0.3667 -1.3003
  290MOL0     H38274   2.127   9.546   1.164  3.2129  3.9297 -0.2054
  290MOL0     H38275   2.183   9.437   1.302  3.1226  0.6010 -0.3792
  290MOL0     H38276   2.319   9.610   1.235 -0.4855 -0.2176 -1.2192
  290MOL0     H38277   2.221   9.742   1.287  0.5776 -1.4030 -1.6868
  290MOL0     H38278   2.461   9.663   1.617 -0.3531 -0.0312  1.3890
  290MOL0     H38279   1.685   9.782   1.235  1.4821  1.9655 -2.0113
  290MOL0     H38280   1.461   9.744   1.125 -1.4079 -0.8435  0.6868
  291MOL0     O38281   0.627   3.902   4.708  0.5020  0.9141  0.3684
  291MOL0     C38282   0.712   3.992   4.692  0.7189 -0.2803  0.3974
  291MOL0     O38283   0.709   4.111   4.750  0.6396 -0.2776  0.3241
  291MOL0     C38284   0.605   4.178   4.811  0.2410 -0.0480  0.1224
  291MOL0     C38285   0.476   4.124   4.846  0.0772  0.3703  0.0774
  291MOL0     C38286   0.377   4.195   4.919  0.8309  0.0046  0.6228
  291MOL0     C38287   0.389   4.326   4.958 -0.0730  0.5109  0.5094
  291MOL0     O38288   0.284   4.390   5.016  0.0941 -1.2157  0.4036
  291MOL0     C38289   0.183   4.315   5.078  0.7560  0.7005 -0.0094
  291MOL0     C38290   0.124   4.384   5.199  0.7517 -0.2984 -0.2294
  291MOL0     C38291   0.022   4.291   5.269  0.5380  0.0639 -0.1801
  291MOL0     C38292  -0.099   4.252   5.187  0.6024  0.4229 -0.0553
  291MOL0     C38293  -0.170   4.121   5.237 -0.5356 -0.7369  0.1584
  291MOL0     C38294  -0.293   4.085   5.161 -0.1710 -0.4556  0.0407
  291MOL0     C38295  -0.325   3.936   5.195  0.6788 -0.2265 -0.5100
  291MOL0     C38296  -0.389   3.925   5.338 -0.4598 -0.5400  0.3402
  291MOL0     N38297  -0.526   3.973   5.355  0.3181 -0.0271  0.6873
  291MOL0     C38298  -0.552   4.096   5.411 -0.1397 -0.3880 -0.9974
  291MOL0     C38299  -0.687   4.109   5.412 -0.0539  0.6269 -0.3136
  291MOL0     C38300  -0.761   4.230   5.448 -0.0793  0.7086 -0.5173
  291MOL0     C38301  -0.822   4.320   5.339 -0.1373 -0.1715 -0.4401
  291MOL0     C38302  -0.961   4.274   5.311  0.6466 -0.5561  0.5796
  291MOL0     C38303  -1.057   4.301   5.423 -0.4880 -0.7099  0.1068
  291MOL0     O38304  -1.184   4.250   5.374  0.0944  0.7920 -0.3720
  291MOL0     C38305  -1.290   4.256   5.462 -0.0702  0.4768 -0.0197
  291MOL0     C38306  -1.404   4.209   5.402 -0.1378 -0.2999 -0.7675
  291MOL0     C38307  -1.527   4.204   5.472 -0.3558  0.5382 -0.3355
  291MOL0     C38308  -1.522   4.246   5.602  0.4703 -0.0217 -1.0661
  291MOL0     C38309  -1.650   4.249   5.683  0.0876  0.2255 -0.3585
  291MOL0     O38310  -1.753   4.170   5.633 -0.1824  0.3710 -0.0153
  291MOL0     C38311  -1.871   4.169   5.705  0.6280 -0.2923  0.1669
  291MOL0     C38312  -1.935   4.285   5.742 -0.2941  0.6840 -0.5759
  291MOL0     C38313  -2.051   4.278   5.825 -0.4655  0.0014  0.4646
  291MOL0     C38314  -2.095   4.150   5.864  0.9422 -0.2931  0.2268
  291MOL0     O38315  -2.213   4.158   5.932  0.1865 -0.4315  0.5339
  291MOL0     C38316  -2.327   4.082   5.882 -0.0535  0.1255 -0.1418
  291MOL0     C38317  -2.352   3.956   5.968  0.2010 -0.4425 -0.3130
  291MOL0     C38318  -2.494   3.936   6.008  0.3198 -0.6217 -0.2209
  291MOL0     C38319  -2.526   3.811   6.084  0.0773 -0.2428  1.7682
  291MOL0     C38320  -2.460   3.807   6.220 -0.2983  0.5917 -0.0709
  291MOL0     C38321  -2.478   3.670   6.295  0.4898 -0.5696  0.4642
  291MOL0     C38322  -2.471   3.692   6.445 -0.6221 -0.0605 -0.6122
  291MOL0     C38323  -2.518   3.557   6.507  0.1447 -0.9901  0.4239
  291MOL0    Cl38324  -2.563   3.562   6.680 -0.1710 -0.4263 -0.3655
  291MOL0     C38325  -2.025   4.031   5.830  0.2138  0.3279 -0.6730
  291MOL0     C38326  -1.910   4.046   5.750  0.4815  0.5970  0.7485
  291MOL0     O38327  -1.653   4.326   5.780 -0.2802  0.3210 -0.0519
  291MOL0     C38328  -1.401   4.291   5.667  0.8229  0.1662  1.0123
  291MOL0     C38329  -1.285   4.306   5.594 -0.6090 -0.6884 -0.3244
  291MOL0     N38330  -0.738   3.993   5.362 -0.6253  0.1916 -0.6064
  291MOL0     N38331  -0.642   3.926   5.303  0.1188  0.6684  0.1390
  291MOL0     C38332   0.514   4.385   4.931  0.3004 -0.5438  1.0717
  291MOL0     C38333   0.611   4.311   4.859 -0.6236  0.2468 -0.1285
  291MOL0     C38334   0.829   3.956   4.619  0.2646  0.5109  1.3602
  291MOL0     C38335   0.951   4.035   4.629  0.5981  0.3367  1.1404
  291MOL0     C38336   1.072   3.996   4.555  0.1815 -0.3856  0.1856
  291MOL0     C38337   1.070   3.881   4.477  0.6687 -0.0516 -0.9204
  291MOL0     O38338   1.173   3.839   4.394  0.9373  0.3286 -0.3651
  291MOL0     C38339   1.287   3.925   4.373 -0.3702 -0.0021 -0.1294
  291MOL0     C38340   1.374   3.885   4.257  0.2967  0.0350  0.4115
  291MOL0     C38341   1.467   3.764   4.287 -0.2368 -0.2346  0.8288
  291MOL0     C38342   1.582   3.758   4.181  0.2248  0.0717 -0.2661
  291MOL0     C38343   1.671   3.884   4.178 -0.3351  0.3643 -0.5822
  291MOL0     C38344   1.748   3.978   4.191  1.3492  0.1515  0.4951
  291MOL0     C38345   0.947   3.809   4.467 -0.1093  0.1297  0.3719
  291MOL0     C38346   0.831   3.842   4.531 -0.7667  0.4570 -0.0637
  291MOL0     H38347   0.451   4.023   4.816  1.3237  0.4145 -1.2399
  291MOL0     H38348   0.287   4.134   4.918  1.6933 -1.3073 -0.1049
  291MOL0     H38349   0.206   4.215   5.114  0.8243  1.2399  1.5194
  291MOL0     H38350   0.112   4.296   4.997  0.0692  3.2678 -0.1026
  291MOL0     H38351   0.073   4.475   5.164  1.4320 -1.0496 -3.5848
  291MOL0     H38352   0.203   4.419   5.265  2.2037  2.4847 -3.1484
  291MOL0     H38353  -0.009   4.352   5.354  1.5287 -1.1093  1.0694
  291MOL0     H38354   0.074   4.200   5.300  1.3780 -0.4295 -2.7309
  291MOL0     H38355  -0.161   4.341   5.197 -0.0824 -0.1258  0.7114
  291MOL0     H38356  -0.070   4.235   5.083  0.6336 -1.7028  0.2650
  291MOL0     H38357  -0.194   4.135   5.343  2.7603 -1.7394  1.1588
  291MOL0     H38358  -0.092   4.047   5.218 -0.1512  0.0692 -1.6518
  291MOL0     H38359  -0.278   4.098   5.054 -1.0011  1.4377  0.1223
  291MOL0     H38360  -0.376   4.145   5.199 -0.4602 -1.0848  0.4228
  291MOL0     H38361  -0.398   3.893   5.125  0.3972 -1.6739  0.6301
  291MOL0     H38362  -0.239   3.869   5.198 -1.3026 -2.9463  2.5572
  291MOL0     H38363  -0.324   3.976   5.410  1.9666  0.3202 -2.2873
  291MOL0     H38364  -0.392   3.819   5.363 -2.8499 -1.0430 -1.7222
  291MOL0     H38365  -0.470   4.162   5.439  0.0697  0.2796 -3.0027
  291MOL0     H38366  -0.685   4.291   5.498 -2.0367  1.0974  2.2625
  291MOL0     H38367  -0.830   4.216   5.532  0.4225  2.3630  0.2135
  291MOL0     H38368  -0.762   4.310   5.248  1.2006  1.0578  0.2693
  291MOL0     H38369  -0.825   4.422   5.378 -1.1941 -1.3945  3.0355
  291MOL0     H38370  -0.990   4.318   5.215  1.9208 -0.8243  0.0505
  291MOL0     H38371  -0.955   4.167   5.291  0.4984 -0.9257  2.3854
  291MOL0     H38372  -1.067   4.409   5.438 -2.7089 -0.9334  0.6437
  291MOL0     H38373  -1.024   4.245   5.511  1.9341 -0.4848 -0.5905
  291MOL0     H38374  -1.398   4.166   5.302 -0.4000 -0.0160 -0.9076
  291MOL0     H38375  -1.620   4.175   5.423  1.8374 -1.6817 -3.6641
  291MOL0     H38376  -1.894   4.382   5.717  0.0790  0.7242  0.1562
  291MOL0     H38377  -2.113   4.363   5.851 -1.7096  0.1963 -2.6638
  291MOL0     H38378  -2.304   4.068   5.776  2.0114  2.3046 -0.0520
  291MOL0     H38379  -2.420   4.137   5.899 -0.1003  0.3502 -1.0551
  291MOL0     H38380  -2.288   3.957   6.056 -0.7713 -2.7050  0.5041
  291MOL0     H38381  -2.318   3.865   5.917  2.8124  2.0662 -3.4723
  291MOL0     H38382  -2.553   3.927   5.916  0.2382  0.7382 -0.3231
  291MOL0     H38383  -2.537   4.020   6.062 -2.1811 -1.1484 -1.2460
  291MOL0     H38384  -2.634   3.798   6.094  0.0329  0.0939  1.7258
  291MOL0     H38385  -2.498   3.723   6.025  0.1730  0.1628  1.1972
  291MOL0     H38386  -2.510   3.883   6.282  0.2844 -0.7614  2.1945
  291MOL0     H38387  -2.352   3.820   6.210 -0.5013  1.5806 -1.2480
  291MOL0     H38388  -2.407   3.596   6.255 -0.5480 -0.5173 -1.6660
  291MOL0     H38389  -2.575   3.623   6.274  1.1734 -0.9417 -2.3310
  291MOL0     H38390  -2.373   3.722   6.483 -0.9897 -0.8487  1.0787
  291MOL0     H38391  -2.549   3.764   6.473  0.7728  1.3397 -0.1854
  291MOL0     H38392  -2.446   3.477   6.491  2.6547  0.9709  1.1588
  291MOL0     H38393  -2.614   3.542   6.457 -0.6588  0.5817  1.4039
  291MOL0     H38394  -2.055   3.939   5.879  1.4660 -0.5411 -1.4890
  291MOL0     H38395  -1.859   3.954   5.725 -0.4768  0.2317  0.0701
  291MOL0     H38396  -1.402   4.340   5.764 -0.2275  1.9914  0.1251
  291MOL0     H38397  -1.198   4.340   5.648 -0.7759 -3.7779  2.1848
  291MOL0     H38398   0.533   4.489   4.953 -1.3072  0.1154 -0.3706
  291MOL0     H38399   0.716   4.340   4.856  0.1919 -2.3086  0.8436
  291MOL0     H38400   0.951   4.110   4.706  2.8984  0.1386  1.4009
  291MOL0     H38401   1.166   4.046   4.574 -0.2246  1.2445 -1.7423
  291MOL0     H38402   1.354   3.921   4.459 -1.6338 -2.5340  0.8175
  291MOL0     H38403   1.247   4.026   4.355  0.0910  0.6182  2.0525
  291MOL0     H38404   1.323   3.860   4.164 -0.9187 -1.7985  1.5228
  291MOL0     H38405   1.428   3.977   4.231  0.8377 -0.7101 -1.1892
  291MOL0     H38406   1.401   3.677   4.287 -1.3166  0.5058  3.2293
  291MOL0     H38407   1.504   3.771   4.389 -0.6357 -0.2038  0.9728
  291MOL0     H38408   1.646   3.675   4.214  1.3381  1.7975  2.1927
  291MOL0     H38409   1.532   3.757   4.084  0.8890  2.3904 -0.6972
  291MOL0     H38410   1.818   4.059   4.199  1.9088 -0.1699 -0.9973
  291MOL0     H38411   0.954   3.722   4.403  1.3493  2.4842 -2.9457
  291MOL0     H38412   0.742   3.780   4.518 -0.3657 -0.6698  2.0642
  292MOL0     O38413   7.727   3.724   0.156  0.2458  0.4742 -0.1642
  292MOL0     C38414   7.827   3.678   0.208 -0.0457 -0.0870  0.2974
  292MOL0     O38415   7.844   3.565   0.293 -0.1907  0.0726  0.5540
  292MOL0     C38416   7.735   3.503   0.319  0.3643  0.4932  0.1086
  292MOL0     C38417   7.664   3.424   0.225  0.9367  1.0449  0.6893
  292MOL0     C38418   7.536   3.362   0.255 -0.6704 -0.0987 -0.0136
  292MOL0     C38419   7.471   3.387   0.376  0.3374 -0.0331  0.2169
  292MOL0     O38420   7.349   3.328   0.380 -0.3162 -0.8585 -0.2680
  292MOL0     C38421   7.277   3.360   0.502  0.0148  0.8527  1.0230
  292MOL0     C38422   7.174   3.246   0.533  0.7977  0.1924  0.0338
  292MOL0     C38423   7.069   3.244   0.422  0.2937  0.6262 -0.3289
  292MOL0     C38424   7.025   3.104   0.399  0.3626  0.1355  0.0454
  292MOL0     C38425   6.923   3.098   0.283  0.2015  0.1631  0.1848
  292MOL0     C38426   6.906   2.952   0.238  0.6290 -0.3140  1.1523
  292MOL0     C38427   6.840   2.948   0.100  0.1657  0.8457  0.4382
  292MOL0     C38428   6.791   2.814   0.059 -0.2896  1.4005  0.0928
  292MOL0     N38429   6.704   2.830  -0.056 -1.1470 -0.3027  0.1170
  292MOL0     C38430   6.583   2.889  -0.062 -0.8789  0.2196  0.1593
  292MOL0     C38431   6.548   2.883  -0.188  0.0245 -0.5012  0.8142
  292MOL0     C38432   6.415   2.946  -0.231 -1.0325 -0.0824 -0.1453
  292MOL0     C38433   6.333   2.869  -0.335 -0.8626 -0.0149  0.0570
  292MOL0     C38434   6.205   2.925  -0.366 -0.0631 -1.6978 -0.1833
  292MOL0     C38435   6.211   3.072  -0.417 -0.0686  0.0777 -0.3945
  292MOL0     O38436   6.080   3.129  -0.446  0.0119  0.0220 -0.1063
  292MOL0     C38437   6.012   3.089  -0.561  0.1613  0.2051 -0.5450
  292MOL0     C38438   5.899   3.165  -0.580  0.0146 -0.0788 -0.1998
  292MOL0     C38439   5.806   3.145  -0.679 -0.0179  0.2446  0.2486
  292MOL0     C38440   5.828   3.038  -0.770  0.4410 -0.8689 -0.2003
  292MOL0     C38441   5.724   3.019  -0.872 -0.8149  0.5828  0.2159
  292MOL0     O38442   5.597   3.044  -0.850 -0.0994 -0.3043 -0.6338
  292MOL0     C38443   5.502   2.969  -0.919 -0.7810  0.4357  0.0457
  292MOL0     C38444   5.498   2.827  -0.901  0.0219  0.0688 -0.3867
  292MOL0     C38445   5.393   2.746  -0.944  0.3625  0.5466  0.1942
  292MOL0     C38446   5.283   2.795  -1.021 -0.0632 -0.1592 -0.1436
  292MOL0     O38447   5.185   2.710  -1.070  0.1511  0.4190 -0.5785
  292MOL0     C38448   5.170   2.701  -1.212 -0.0525  0.6937  0.3956
  292MOL0     C38449   5.015   2.711  -1.229 -0.7347 -0.2342 -0.2617
  292MOL0     C38450   4.952   2.576  -1.191 -0.5644  0.0429 -0.8104
  292MOL0     C38451   4.804   2.603  -1.173 -0.3801  0.2279  0.3965
  292MOL0     C38452   4.730   2.463  -1.169  0.2404 -0.4173 -0.1010
  292MOL0     C38453   4.588   2.506  -1.204 -0.0572  0.3349 -0.3743
  292MOL0     C38454   4.499   2.376  -1.187  0.1858 -0.0152  0.5198
  292MOL0     C38455   4.507   2.291  -1.312  0.1640 -0.7378 -0.1171
  292MOL0    Cl38456   4.404   2.146  -1.288 -0.0203 -0.2631  0.2738
  292MOL0     C38457   5.277   2.937  -1.029  0.1010  0.1925 -0.3824
  292MOL0     C38458   5.382   3.019  -0.972 -0.5320  0.2905 -0.0205
  292MOL0     O38459   5.766   2.950  -0.971 -0.1990  0.1806  0.4402
  292MOL0     C38460   5.951   2.969  -0.767  0.3062  0.1554  0.4315
  292MOL0     C38461   6.039   2.993  -0.662 -0.2586  0.3191  0.0664
  292MOL0     N38462   6.652   2.831  -0.261 -0.0274  0.0582 -0.1101
  292MOL0     N38463   6.748   2.791  -0.184 -0.7953 -0.1322 -0.7601
  292MOL0     C38464   7.539   3.470   0.469  0.0262 -0.5648  0.0536
  292MOL0     C38465   7.665   3.528   0.437 -0.3207  0.3366  0.1907
  292MOL0     C38466   7.948   3.736   0.156  0.4417  0.4900  0.4679
  292MOL0     C38467   8.068   3.663   0.167  0.7266  0.5340  0.4430
  292MOL0     C38468   8.182   3.725   0.123  0.3935 -0.4148 -0.0629
  292MOL0     C38469   8.182   3.846   0.058 -0.3766 -0.8220 -0.2684
  292MOL0     O38470   8.293   3.908   0.011  0.0333 -0.0400 -1.4024
  292MOL0     C38471   8.414   3.850   0.038  0.1465 -1.0525  0.3723
  292MOL0     C38472   8.528   3.907  -0.055 -0.1894 -1.0810 -0.1910
  292MOL0     C38473   8.514   4.063  -0.087  0.3928  0.4786  0.3109
  292MOL0     C38474   8.615   4.106  -0.197 -0.2380  0.2632  0.4524
  292MOL0     C38475   8.752   4.079  -0.150  0.1522  0.2043  0.6126
  292MOL0     C38476   8.872   4.071  -0.129 -0.4101 -0.6458 -0.1250
  292MOL0     C38477   8.067   3.920   0.043  0.6944  0.0454 -0.0254
  292MOL0     C38478   7.952   3.862   0.083  1.0665  0.4254 -0.8290
  292MOL0     H38479   7.702   3.412   0.124  0.1677 -0.7775  0.5826
  292MOL0     H38480   7.494   3.313   0.167  2.8947  2.1284 -3.3216
  292MOL0     H38481   7.232   3.459   0.501 -1.0278  0.4492  2.7044
  292MOL0     H38482   7.346   3.345   0.586 -0.4815 -1.5051  1.0944
  292MOL0     H38483   7.121   3.251   0.629  3.1930 -2.7358  1.6807
  292MOL0     H38484   7.233   3.155   0.549 -0.8550 -0.7560  1.1215
  292MOL0     H38485   7.113   3.277   0.328  0.1665 -1.5159 -1.2060
  292MOL0     H38486   6.978   3.295   0.453 -1.5952 -2.4081 -0.4612
  292MOL0     H38487   7.109   3.035   0.390 -0.2506 -0.3972 -2.3608
  292MOL0     H38488   6.980   3.075   0.494  0.6310  1.5619  0.6330
  292MOL0     H38489   6.946   3.160   0.195  0.5115  2.0638  1.5529
  292MOL0     H38490   6.834   3.146   0.324  1.1061  0.5602  1.7703
  292MOL0     H38491   6.850   2.888   0.306  1.1482  0.9421  2.8036
  292MOL0     H38492   7.009   2.916   0.231  0.1572 -1.6553  0.7902
  292MOL0     H38493   6.747   3.005   0.094 -1.4417 -1.6839 -0.1163
  292MOL0     H38494   6.906   2.986   0.021 -0.3330  0.0093 -0.4043
  292MOL0     H38495   6.740   2.774   0.147  1.7493  2.1976  1.7289
  292MOL0     H38496   6.880   2.753   0.041 -2.2423 -2.0427  1.1258
  292MOL0     H38497   6.519   2.924   0.019  0.9824 -0.3403  1.9750
  292MOL0     H38498   6.431   3.048  -0.265 -1.3526 -0.2021 -0.6617
  292MOL0     H38499   6.342   2.956  -0.150  0.0017  1.2495  0.6710
  292MOL0     H38500   6.312   2.766  -0.304 -2.6225  0.6773  1.3804
  292MOL0     H38501   6.389   2.869  -0.429 -2.0984  2.2317 -0.7420
  292MOL0     H38502   6.152   2.859  -0.435  1.5761 -2.8051 -0.4455
  292MOL0     H38503   6.157   2.933  -0.269  2.2518  0.6666  0.9024
  292MOL0     H38504   6.259   3.068  -0.516 -1.2340  1.0426 -1.0326
  292MOL0     H38505   6.262   3.141  -0.348 -0.3513  1.8115 -1.8298
  292MOL0     H38506   5.875   3.250  -0.517 -0.9533  0.6206 -1.4469
  292MOL0     H38507   5.720   3.211  -0.692  0.4852  0.6137 -1.4173
  292MOL0     H38508   5.578   2.790  -0.837  0.7938  0.8333 -0.9007
  292MOL0     H38509   5.385   2.643  -0.913 -1.0977  0.5049 -0.2359
  292MOL0     H38510   5.209   2.608  -1.255 -1.3498  1.2766 -2.2896
  292MOL0     H38511   5.214   2.782  -1.271 -0.7306  2.1232  1.7753
  292MOL0     H38512   5.002   2.733  -1.336 -7.3621  2.4940  0.6198
  292MOL0     H38513   4.980   2.795  -1.167  2.7627  1.3238 -0.1845
  292MOL0     H38514   4.990   2.538  -1.096  4.8134  0.7436 -2.3288
  292MOL0     H38515   4.961   2.500  -1.269 -1.1741  0.0867 -0.9278
  292MOL0     H38516   4.783   2.662  -1.083 -0.3535 -2.3380  2.2067
  292MOL0     H38517   4.780   2.672  -1.254  1.7032  0.2795 -0.2328
  292MOL0     H38518   4.729   2.427  -1.065  1.7229 -1.4168 -0.4150
  292MOL0     H38519   4.766   2.378  -1.228 -0.5838 -0.2957 -0.7984
  292MOL0     H38520   4.580   2.540  -1.308 -1.2254  0.7527 -0.1608
  292MOL0     H38521   4.545   2.577  -1.133 -0.3862 -2.4569  2.4353
  292MOL0     H38522   4.537   2.312  -1.107  4.2615 -0.2227 -1.3058
  292MOL0     H38523   4.395   2.410  -1.180  0.6439  1.2389  1.6562
  292MOL0     H38524   4.609   2.254  -1.326  0.6392  0.0885  1.0764
  292MOL0     H38525   4.487   2.342  -1.407  0.9366 -0.5863 -0.2026
  292MOL0     H38526   5.189   2.985  -1.071 -0.7126 -1.5712 -0.8051
  292MOL0     H38527   5.370   3.126  -0.982 -0.5134  0.0713 -3.1100
  292MOL0     H38528   5.971   2.901  -0.849  1.6208  2.9104 -1.7075
  292MOL0     H38529   6.129   2.933  -0.656 -0.6072 -0.1252  1.0360
  292MOL0     H38530   7.498   3.498   0.566 -1.3448 -1.9529 -0.0767
  292MOL0     H38531   7.715   3.586   0.514  0.6791  0.5638 -0.6109
  292MOL0     H38532   8.082   3.571   0.223 -3.6902 -1.3643 -1.1695
  292MOL0     H38533   8.272   3.672   0.151  0.7477  0.0504 -0.3217
  292MOL0     H38534   8.415   3.744   0.009 -3.0520 -1.1254  0.1518
  292MOL0     H38535   8.442   3.860   0.143 -2.1831 -1.5092  1.1042
  292MOL0     H38536   8.622   3.887  -0.003 -0.7174 -2.3114  0.3241
  292MOL0     H38537   8.526   3.841  -0.142 -3.1027 -2.2630  0.6512
  292MOL0     H38538   8.536   4.113   0.008  1.0002 -1.5596  1.2873
  292MOL0     H38539   8.415   4.096  -0.118  0.6355  0.1139 -0.9251
  292MOL0     H38540   8.594   4.048  -0.287 -2.1792  1.6738 -0.0669
  292MOL0     H38541   8.613   4.214  -0.213 -0.3975  0.1935 -0.0051
  292MOL0     H38542   8.978   4.081  -0.118 -0.7914  2.4182  2.0886
  292MOL0     H38543   8.067   4.016  -0.009 -0.1614 -1.1010 -2.2665
  292MOL0     H38544   7.866   3.928   0.075  0.5411  0.0538  1.1235
  293MOL0     O38545  10.520   7.558   8.564 -0.2116  0.0701 -0.0382
  293MOL0     C38546  10.560   7.446   8.529  0.3889 -0.0702  0.3629
  293MOL0     O38547  10.488   7.358   8.469  0.3946 -0.2091 -0.1921
  293MOL0     C38548  10.353   7.367   8.455 -1.0041 -0.5676 -0.2741
  293MOL0     C38549  10.270   7.406   8.562  0.1183  0.0177  0.1665
  293MOL0     C38550  10.135   7.410   8.547 -0.3890 -0.3011 -0.4154
  293MOL0     C38551  10.072   7.372   8.432 -0.0317  1.1025  1.0796
  293MOL0     O38552   9.933   7.375   8.425  0.2298 -0.7812 -0.7059
  293MOL0     C38553   9.860   7.502   8.442 -0.7914  0.7754 -0.3274
  293MOL0     C38554   9.870   7.589   8.321  0.8464  0.0646  1.0698
  293MOL0     C38555   9.823   7.515   8.190 -0.0538 -0.5952 -0.0624
  293MOL0     C38556   9.857   7.598   8.064 -0.1400  0.2406  0.3920
  293MOL0     C38557  10.001   7.583   8.016  0.1520  0.1744 -1.0629
  293MOL0     C38558  10.030   7.650   7.878 -0.3995 -0.3000 -0.4040
  293MOL0     C38559  10.176   7.629   7.832 -0.5513 -0.3559  0.2735
  293MOL0     C38560  10.211   7.737   7.723  1.1276 -0.7719  0.7811
  293MOL0     N38561  10.263   7.869   7.765 -0.2799 -0.6728 -0.0376
  293MOL0     C38562  10.393   7.899   7.772 -0.6489 -0.9755 -0.9057
  293MOL0     C38563  10.406   8.032   7.778 -0.2381 -0.3799  0.4160
  293MOL0     C38564  10.530   8.120   7.793 -0.4460  0.8258  0.3194
  293MOL0     C38565  10.596   8.139   7.929  1.0683  0.1427 -0.1029
  293MOL0     C38566  10.534   8.256   7.998  0.4547  0.6469  0.3335
  293MOL0     C38567  10.569   8.258   8.147  1.1030 -0.2791  0.1289
  293MOL0     O38568  10.517   8.382   8.195 -0.0340  0.0679  0.1676
  293MOL0     C38569  10.398   8.387   8.258 -0.2858 -0.3882 -0.0428
  293MOL0     C38570  10.353   8.519   8.296 -0.2634  0.0165  0.1239
  293MOL0     C38571  10.236   8.534   8.361 -0.3096 -0.4756  0.3230
  293MOL0     C38572  10.152   8.422   8.382  0.4927  0.3682 -0.0205
  293MOL0     C38573  10.015   8.438   8.446 -0.0601 -0.0673 -0.5187
  293MOL0     O38574   9.920   8.343   8.439  0.0208 -0.3277 -0.1770
  293MOL0     C38575   9.795   8.366   8.499 -0.5304 -0.8540  0.2476
  293MOL0     C38576   9.746   8.288   8.597 -0.6682 -0.2864  0.0260
  293MOL0     C38577   9.613   8.309   8.647 -0.0701  0.6698 -0.0044
  293MOL0     C38578   9.529   8.403   8.582  0.6454  1.1176  0.1771
  293MOL0     O38579   9.388   8.418   8.603  0.0417 -0.1269 -0.6120
  293MOL0     C38580   9.328   8.329   8.707 -0.9765  0.3762  0.8365
  293MOL0     C38581   9.207   8.380   8.767  0.0379 -0.2105 -1.1957
  293MOL0     C38582   9.106   8.417   8.660 -0.7650  0.2495  0.1529
  293MOL0     C38583   8.964   8.403   8.706 -0.6932  0.0494 -0.3332
  293MOL0     C38584   8.919   8.525   8.793  0.5969  0.3425 -0.3012
  293MOL0     C38585   8.770   8.525   8.827  0.1096  0.2044  0.4431
  293MOL0     C38586   8.733   8.447   8.955  0.5844  0.7107 -0.1368
  293MOL0     C38587   8.583   8.459   8.969  0.2638 -0.1615  0.3977
  293MOL0    Cl38588   8.484   8.345   8.857  0.3916 -0.0917 -0.1778
  293MOL0     C38589   9.582   8.479   8.481  0.6692  0.0391 -0.6101
  293MOL0     C38590   9.717   8.462   8.444  0.6114  0.4928  0.6940
  293MOL0     O38591   9.996   8.547   8.490 -0.6259  0.1208 -0.8371
  293MOL0     C38592  10.195   8.299   8.339 -0.6442  1.0718 -0.2329
  293MOL0     C38593  10.310   8.282   8.271  0.4622  0.3418  0.2777
  293MOL0     N38594  10.275   8.089   7.800  0.3438  0.0826  0.6391
  293MOL0     N38595  10.193   7.985   7.795 -0.9952 -0.2615  0.2526
  293MOL0     C38596  10.154   7.334   8.325 -0.9274  0.5599  0.2408
  293MOL0     C38597  10.289   7.324   8.332  1.0289  0.2041  0.8025
  293MOL0     C38598  10.702   7.419   8.541  0.0234  0.1523  0.4275
  293MOL0     C38599  10.751   7.286   8.524 -0.1876 -0.2291 -0.3107
  293MOL0     C38600  10.889   7.256   8.557  0.4759 -0.3934 -0.0464
  293MOL0     C38601  10.972   7.358   8.609 -0.1467 -0.0336 -0.9049
  293MOL0     O38602  11.102   7.337   8.652  1.0668 -0.0905  0.0584
  293MOL0     C38603  11.171   7.224   8.589 -0.4120 -0.8669 -1.0632
  293MOL0     C38604  11.319   7.234   8.628  0.0185 -0.6198 -0.2068
  293MOL0     C38605  11.404   7.113   8.569 -0.2922 -0.0446  0.2316
  293MOL0     C38606  11.545   7.121   8.624 -0.1083  0.0622  0.4251
  293MOL0     C38607  11.603   6.987   8.606 -0.5162  0.1945 -0.2407
  293MOL0     C38608  11.650   6.873   8.588 -1.1061 -0.7033 -0.9555
  293MOL0     C38609  10.924   7.482   8.628 -0.0194 -0.0003 -0.3360
  293MOL0     C38610  10.794   7.516   8.583  0.3592  0.1538  0.1182
  293MOL0     H38611  10.313   7.447   8.654 -1.2383  0.7255  0.5063
  293MOL0     H38612  10.092   7.445   8.641 -2.6769 -0.7540 -1.2436
  293MOL0     H38613   9.889   7.556   8.532  0.1315  0.9013 -0.6941
  293MOL0     H38614   9.754   7.474   8.452 -0.1774 -0.9079  3.0340
  293MOL0     H38615   9.977   7.610   8.311  0.9148  0.2482  2.1012
  293MOL0     H38616   9.821   7.687   8.328 -1.3839 -0.9375  0.3254
  293MOL0     H38617   9.714   7.508   8.192 -0.3060  1.5586  3.5492
  293MOL0     H38618   9.876   7.420   8.191  0.3085 -0.5225  3.5339
  293MOL0     H38619   9.784   7.564   7.990 -1.5795  2.2177  0.8012
  293MOL0     H38620   9.849   7.705   8.088 -0.1249 -0.2477  2.7958
  293MOL0     H38621  10.029   7.478   8.009 -1.7241 -0.4940  0.6456
  293MOL0     H38622  10.066   7.626   8.094 -0.2563 -1.4646  0.2437
  293MOL0     H38623  10.009   7.756   7.896  0.4854 -0.0357 -0.8513
  293MOL0     H38624   9.955   7.634   7.800 -1.1469  1.0077  0.0016
  293MOL0     H38625  10.239   7.643   7.920 -2.3472  0.6643  1.4535
  293MOL0     H38626  10.192   7.530   7.788  1.0700  0.9468 -2.3358
  293MOL0     H38627  10.118   7.762   7.670  1.5937  1.5101  0.9417
  293MOL0     H38628  10.280   7.694   7.649  3.9600  0.0853  2.7719
  293MOL0     H38629  10.477   7.831   7.764  0.6644  0.6652 -1.7561
  293MOL0     H38630  10.522   8.224   7.759  2.4539  1.5912  1.6924
  293MOL0     H38631  10.601   8.072   7.725 -0.8408  0.7842 -0.0666
  293MOL0     H38632  10.705   8.155   7.923  1.4281 -1.3896  1.5290
  293MOL0     H38633  10.584   8.047   7.987  1.4569  0.7042  0.8958
  293MOL0     H38634  10.570   8.349   7.955 -0.0327 -0.1671 -1.9954
  293MOL0     H38635  10.425   8.254   7.984  0.1049  1.0662  2.6330
  293MOL0     H38636  10.678   8.264   8.153  1.0760  0.0989  0.2727
  293MOL0     H38637  10.540   8.168   8.203  3.2124 -0.9218  0.3023
  293MOL0     H38638  10.427   8.595   8.273 -2.2549  1.3685 -2.3580
  293MOL0     H38639  10.213   8.635   8.395  0.7662 -0.7991  2.1303
  293MOL0     H38640   9.814   8.216   8.640 -0.7347  0.3465  1.2155
  293MOL0     H38641   9.580   8.242   8.725  0.1952 -0.5673 -0.9295
  293MOL0     H38642   9.400   8.312   8.787 -2.1519 -0.6317  1.7392
  293MOL0     H38643   9.302   8.230   8.667 -0.8163 -0.2955  2.2858
  293MOL0     H38644   9.229   8.463   8.836  2.8043 -1.9900  0.2434
  293MOL0     H38645   9.163   8.307   8.835  0.0373  1.0800  0.2753
  293MOL0     H38646   9.108   8.337   8.585  1.0042  1.8149 -1.6145
  293MOL0     H38647   9.134   8.511   8.611 -0.4713  1.4147  2.4238
  293MOL0     H38648   8.905   8.400   8.614  1.0007 -2.6608 -1.4425
  293MOL0     H38649   8.945   8.311   8.763  0.3974  0.3248  0.5142
  293MOL0     H38650   8.935   8.615   8.733  1.5471  1.7916  1.9954
  293MOL0     H38651   8.975   8.525   8.887  2.2132 -1.3220 -1.2053
  293MOL0     H38652   8.721   8.478   8.742  0.3783  1.3664 -0.3825
  293MOL0     H38653   8.731   8.626   8.839  1.4583  0.8440 -0.3378
  293MOL0     H38654   8.769   8.345   8.938  0.1508  0.3905  0.8211
  293MOL0     H38655   8.785   8.486   9.043  1.8372 -0.6043 -0.2583
  293MOL0     H38656   8.556   8.564   8.955  2.0475  0.7738  3.1303
  293MOL0     H38657   8.550   8.437   9.071 -1.1609  0.3838  0.0813
  293MOL0     H38658   9.520   8.548   8.425 -0.0276  2.3502  2.7137
  293MOL0     H38659   9.758   8.526   8.366 -2.1198 -1.4721 -2.6705
  293MOL0     H38660  10.128   8.214   8.346 -1.1689  1.3511 -1.5796
  293MOL0     H38661  10.341   8.189   8.224  0.5230 -0.2421  1.4487
  293MOL0     H38662  10.100   7.298   8.238  2.3145  0.9788 -2.0984
  293MOL0     H38663  10.342   7.285   8.245 -0.9329  0.2689 -0.4857
  293MOL0     H38664  10.691   7.199   8.496 -1.0916 -0.0632  1.0362
  293MOL0     H38665  10.926   7.154   8.557  0.3623 -0.4343 -0.2291
  293MOL0     H38666  11.160   7.204   8.482  1.1842 -3.0668 -0.8803
  293MOL0     H38667  11.133   7.134   8.637  0.7251 -0.9516 -0.2728
  293MOL0     H38668  11.371   7.324   8.594 -0.3662 -0.5524 -0.6333
  293MOL0     H38669  11.326   7.230   8.737  0.5990  0.9076 -0.1583
  293MOL0     H38670  11.417   7.119   8.460  0.8316 -0.8993  0.3013
  293MOL0     H38671  11.355   7.019   8.595  2.0430 -1.3508  0.1794
  293MOL0     H38672  11.603   7.197   8.570 -0.9149 -0.3278 -1.0329
  293MOL0     H38673  11.541   7.131   8.733  0.7629 -1.8812  0.6753
  293MOL0     H38674  11.696   6.777   8.569  3.0987 -0.1960  4.2244
  293MOL0     H38675  10.993   7.548   8.679 -1.1094 -0.2733  1.5893
  293MOL0     H38676  10.753   7.616   8.593 -1.1284 -0.4486  0.2671
  294MOL0     O38677   4.642   8.482   7.374 -0.0029 -1.1098  0.3351
  294MOL0     C38678   4.708   8.380   7.381 -0.7844  0.2950  0.2222
  294MOL0     O38679   4.680   8.267   7.454 -0.1075  0.6052  0.3251
  294MOL0     C38680   4.563   8.251   7.535  1.0028  0.6020  0.4164
  294MOL0     C38681   4.522   8.119   7.566  0.7103  0.1688  0.3614
  294MOL0     C38682   4.402   8.091   7.633 -0.3442 -0.3184 -0.4783
  294MOL0     C38683   4.339   8.202   7.697  0.1788  0.0238  0.2734
  294MOL0     O38684   4.227   8.179   7.778 -0.4343  0.3612 -0.4413
  294MOL0     C38685   4.096   8.219   7.726 -1.6295  0.1354 -1.3008
  294MOL0     C38686   4.017   8.243   7.851  0.3113  0.5985 -1.6140
  294MOL0     C38687   3.871   8.282   7.827 -0.6577  0.4827  1.0948
  294MOL0     C38688   3.803   8.322   7.954  0.5180 -0.6870 -0.2060
  294MOL0     C38689   3.658   8.361   7.924 -0.1672 -0.3723 -0.2495
  294MOL0     C38690   3.569   8.394   8.042 -0.1029  0.2935  1.0169
  294MOL0     C38691   3.555   8.289   8.147 -0.3206 -0.8120 -0.2656
  294MOL0     C38692   3.503   8.146   8.107 -0.7102 -0.7776 -0.1351
  294MOL0     N38693   3.382   8.160   8.022  0.7231  0.4911 -0.5858
  294MOL0     C38694   3.250   8.172   8.074 -0.0251 -0.7943 -0.1628
  294MOL0     C38695   3.168   8.133   7.975  0.1055  0.1176 -0.0061
  294MOL0     C38696   3.023   8.102   7.997  0.1861 -0.1067 -0.1200
  294MOL0     C38697   2.953   8.067   7.867  0.5522 -0.9398  0.6120
  294MOL0     C38698   2.805   8.105   7.866  0.4738  0.1687  0.1528
  294MOL0     C38699   2.718   8.049   7.972 -0.4689  0.2779  0.0986
  294MOL0     O38700   2.705   7.902   7.960 -0.1501  0.1814 -0.1535
  294MOL0     C38701   2.585   7.856   7.897 -0.2762 -0.5945 -0.2435
  294MOL0     C38702   2.528   7.731   7.944  0.5136 -0.4124  0.4097
  294MOL0     C38703   2.408   7.680   7.889 -0.5351 -0.0163 -0.4503
  294MOL0     C38704   2.349   7.740   7.782  0.4802  0.8344 -0.3144
  294MOL0     C38705   2.226   7.678   7.720  0.0722  0.3169 -1.2137
  294MOL0     O38706   2.167   7.740   7.614  0.1362  0.2165 -0.3350
  294MOL0     C38707   2.036   7.721   7.568  0.2537 -0.1499 -0.4454
  294MOL0     C38708   1.934   7.811   7.621 -0.4379  0.3651 -0.2312
  294MOL0     C38709   1.796   7.779   7.594  0.3600 -0.5131  0.0185
  294MOL0     C38710   1.765   7.682   7.504  0.4522 -0.3493 -0.1136
  294MOL0     O38711   1.634   7.650   7.466 -0.0613  0.5386 -0.2633
  294MOL0     C38712   1.563   7.765   7.415 -0.7024  0.9250 -0.5058
  294MOL0     C38713   1.612   7.817   7.276 -0.4623  0.2694  0.3039
  294MOL0     C38714   1.523   7.934   7.229 -0.2838  0.3584 -0.5964
  294MOL0     C38715   1.552   7.982   7.088  0.4329  0.3141 -0.8316
  294MOL0     C38716   1.433   8.040   7.014  0.1617  0.1652  0.1732
  294MOL0     C38717   1.470   8.076   6.873  0.2978  0.2528  1.0101
  294MOL0     C38718   1.576   8.185   6.873 -0.0492 -0.0688  0.1460
  294MOL0     C38719   1.597   8.267   6.738  0.2908  0.6661 -0.5130
  294MOL0    Cl38720   1.446   8.343   6.679 -0.4159 -0.1035  0.2783
  294MOL0     C38721   1.864   7.608   7.442 -0.1420  0.0219  0.4743
  294MOL0     C38722   2.002   7.619   7.476 -0.4200 -0.2733 -0.2487
  294MOL0     O38723   2.175   7.579   7.781  0.3965 -0.0320  0.3454
  294MOL0     C38724   2.411   7.858   7.735 -1.2146 -0.8369  0.1459
  294MOL0     C38725   2.524   7.917   7.796 -0.1487 -0.0703 -0.1218
  294MOL0     N38726   3.235   8.102   7.862 -0.3430  0.1543  0.1239
  294MOL0     N38727   3.363   8.115   7.893 -0.4269 -0.2270 -0.6422
  294MOL0     C38728   4.371   8.329   7.667 -0.6887 -0.5545 -0.1084
  294MOL0     C38729   4.485   8.359   7.589 -1.5218 -0.3836  0.3850
  294MOL0     C38730   4.841   8.378   7.311  1.1906 -0.6664  0.0874
  294MOL0     C38731   4.948   8.288   7.335  0.0631 -0.3381 -0.2344
  294MOL0     C38732   5.063   8.296   7.254 -0.5146  0.1404  0.1608
  294MOL0     C38733   5.089   8.390   7.159  0.2973  0.0123 -0.0712
  294MOL0     O38734   5.212   8.389   7.108 -0.9307 -0.4752 -1.1680
  294MOL0     C38735   5.218   8.451   6.977 -1.1819 -0.1397 -0.0745
  294MOL0     C38736   5.352   8.418   6.903 -0.6612  0.0067  0.5125
  294MOL0     C38737   5.422   8.285   6.930 -0.5426  0.4902 -0.1098
  294MOL0     C38738   5.399   8.181   6.815  0.4775  0.1869  0.0674
  294MOL0     C38739   5.486   8.201   6.698 -0.5818  0.0477 -0.4009
  294MOL0     C38740   5.551   8.196   6.595  1.0800 -0.5056  0.2273
  294MOL0     C38741   4.986   8.484   7.133  0.4358  0.1923 -0.9721
  294MOL0     C38742   4.871   8.475   7.213  0.5710 -0.1607 -0.1436
  294MOL0     H38743   4.574   8.036   7.519  0.5043  1.7366 -2.8771
  294MOL0     H38744   4.364   7.989   7.641  1.8070 -1.3177 -1.9357
  294MOL0     H38745   4.062   8.143   7.655  3.3289 -2.0715 -1.7770
  294MOL0     H38746   4.107   8.318   7.683 -0.8200  0.0405 -1.3192
  294MOL0     H38747   4.065   8.314   7.919  0.2028  1.0569 -2.0053
  294MOL0     H38748   4.012   8.150   7.907 -0.3259  2.3382  1.4471
  294MOL0     H38749   3.811   8.205   7.777 -1.3110  1.9356 -0.4654
  294MOL0     H38750   3.874   8.379   7.777 -1.0385 -0.3033 -0.4947
  294MOL0     H38751   3.807   8.237   8.022  2.1791 -0.6692 -0.2446
  294MOL0     H38752   3.853   8.405   8.004 -3.2347  0.5876  1.8353
  294MOL0     H38753   3.608   8.287   7.861 -2.0027  1.1646 -0.7063
  294MOL0     H38754   3.658   8.448   7.857 -1.8304 -1.4900 -1.7861
  294MOL0     H38755   3.465   8.403   8.007  0.4799 -0.3562 -1.0482
  294MOL0     H38756   3.592   8.491   8.087  1.0719  0.5135 -0.0010
  294MOL0     H38757   3.649   8.288   8.202  0.7132  1.9661 -1.8150
  294MOL0     H38758   3.475   8.311   8.219  1.4532  0.9897  1.2600
  294MOL0     H38759   3.490   8.079   8.193 -1.8269  0.6830  0.9004
  294MOL0     H38760   3.574   8.085   8.051  0.4738 -0.9947  1.5319
  294MOL0     H38761   3.219   8.201   8.174 -2.7310 -0.8411 -0.9091
  294MOL0     H38762   2.968   8.195   8.017 -0.9343 -0.3077 -2.0703
  294MOL0     H38763   3.007   8.026   8.074 -0.0181  0.3062  0.2489
  294MOL0     H38764   2.967   7.960   7.847  0.2308 -0.9260  0.3084
  294MOL0     H38765   2.998   8.124   7.785 -0.8959  1.2263  1.2569
  294MOL0     H38766   2.787   8.212   7.859 -1.8936 -0.1874  0.1251
  294MOL0     H38767   2.768   8.076   7.767  1.5254 -3.6246  0.6918
  294MOL0     H38768   2.619   8.097   7.971 -0.5596  0.1922 -2.4522
  294MOL0     H38769   2.761   8.062   8.072  0.3398  0.2822 -0.2481
  294MOL0     H38770   2.580   7.663   8.010  2.4682 -0.4534 -1.0907
  294MOL0     H38771   2.371   7.587   7.931  2.1647 -2.4119 -2.9512
  294MOL0     H38772   1.965   7.882   7.697  0.5975 -1.3469  1.0103
  294MOL0     H38773   1.715   7.833   7.643  2.5813  2.9970  0.2163
  294MOL0     H38774   1.569   7.848   7.486 -0.3513  0.5763 -0.1189
  294MOL0     H38775   1.459   7.733   7.408 -0.3070  0.0105 -2.8530
  294MOL0     H38776   1.607   7.739   7.200  0.2032 -1.3226  1.8387
  294MOL0     H38777   1.716   7.852   7.286 -0.1525 -0.3646 -0.5759
  294MOL0     H38778   1.533   8.019   7.297 -0.4955 -0.5427  0.5950
  294MOL0     H38779   1.422   7.893   7.237  0.8412 -2.3260  2.1128
  294MOL0     H38780   1.625   8.063   7.094  0.0316  0.5681  1.5575
  294MOL0     H38781   1.585   7.897   7.027 -1.5599 -0.9892 -0.1883
  294MOL0     H38782   1.389   8.134   7.049 -0.5818  0.9384 -2.5769
  294MOL0     H38783   1.355   7.965   6.998 -2.4157  3.0365 -1.8363
  294MOL0     H38784   1.384   8.118   6.819  1.0566 -0.6746 -1.0346
  294MOL0     H38785   1.514   7.990   6.821  1.4972  0.9806  0.7861
  294MOL0     H38786   1.552   8.250   6.957 -0.3809 -1.7972  1.4618
  294MOL0     H38787   1.675   8.142   6.889 -0.0772  0.1879  1.0672
  294MOL0     H38788   1.639   8.195   6.667 -1.7083 -2.7241  1.4658
  294MOL0     H38789   1.672   8.343   6.762  2.1357 -0.7704 -1.4781
  294MOL0     H38790   1.841   7.545   7.357 -2.9578 -1.9034  2.4741
  294MOL0     H38791   2.076   7.553   7.434  0.8543  0.2818  1.0165
  294MOL0     H38792   2.369   7.901   7.645  3.4443  1.8149 -1.1152
  294MOL0     H38793   2.568   8.007   7.755 -2.7551  0.1573 -2.7572
  294MOL0     H38794   4.327   8.406   7.729  0.4966 -0.8074  1.0997
  294MOL0     H38795   4.511   8.464   7.587 -1.1512 -0.4846 -0.6872
  294MOL0     H38796   4.938   8.197   7.395 -1.0101 -0.9577 -1.3179
  294MOL0     H38797   5.133   8.219   7.283 -1.0647 -1.6064 -2.7395
  294MOL0     H38798   5.210   8.559   6.992 -1.5316 -0.3600  1.5160
  294MOL0     H38799   5.130   8.419   6.921  0.8387 -0.8414 -3.1261
  294MOL0     H38800   5.348   8.428   6.794  1.8734  2.4322  0.5447
  294MOL0     H38801   5.425   8.490   6.939 -0.5802  1.0250 -1.5718
  294MOL0     H38802   5.383   8.235   7.019 -0.6515 -1.9307 -1.4394
  294MOL0     H38803   5.527   8.303   6.956 -0.8539  3.9688 -0.7197
  294MOL0     H38804   5.422   8.080   6.851 -2.6378 -1.6278 -2.4229
  294MOL0     H38805   5.296   8.179   6.777  0.7660  1.2751 -0.8318
  294MOL0     H38806   5.597   8.193   6.498  0.6055  2.0156 -0.1505
  294MOL0     H38807   5.000   8.564   7.062  0.9742  1.7223  0.7735
  294MOL0     H38808   4.801   8.556   7.193 -0.4051 -1.2474 -1.3335
  295MOL0     O38809   5.712   1.910   6.019 -0.1458 -0.1095  0.3716
  295MOL0     C38810   5.721   2.028   6.017  0.1500 -0.6725  0.0999
  295MOL0     O38811   5.637   2.117   5.950  0.5111 -0.3772  0.0187
  295MOL0     C38812   5.513   2.082   5.892 -0.6279  0.1307 -0.6331
  295MOL0     C38813   5.446   2.194   5.839  0.4767 -0.5031 -0.5368
  295MOL0     C38814   5.327   2.186   5.769  0.1907 -0.0653  0.3060
  295MOL0     C38815   5.278   2.061   5.748 -0.0823 -0.4880  0.0573
  295MOL0     O38816   5.169   2.049   5.671 -0.3065  0.4650  0.0582
  295MOL0     C38817   5.045   2.068   5.746  0.5162  1.0569 -1.0473
  295MOL0     C38818   4.937   2.027   5.649  0.0884 -0.6020  0.1647
  295MOL0     C38819   4.801   1.992   5.719 -0.2870 -0.3187  0.5610
  295MOL0     C38820   4.682   1.959   5.626  0.1093  0.3152 -0.3664
  295MOL0     C38821   4.570   1.895   5.702 -0.6780 -0.0342  0.0464
  295MOL0     C38822   4.443   1.886   5.612  0.0430  0.1310 -0.5838
  295MOL0     C38823   4.339   1.798   5.690 -0.5067 -0.0863 -0.5390
  295MOL0     C38824   4.207   1.781   5.606  0.6240  0.1567  0.3678
  295MOL0     N38825   4.205   1.658   5.520  0.1273 -0.1262 -0.2879
  295MOL0     C38826   4.232   1.650   5.382  0.0937  0.3027 -0.6568
  295MOL0     C38827   4.220   1.520   5.341  0.5453 -0.7467  0.1164
  295MOL0     C38828   4.225   1.465   5.202  0.3967 -0.1749 -0.2998
  295MOL0     C38829   4.085   1.425   5.147  0.0169 -0.5790  0.2472
  295MOL0     C38830   4.101   1.375   5.002 -0.7970  0.0908 -0.8113
  295MOL0     C38831   4.109   1.488   4.903  0.0448 -0.0930 -0.1810
  295MOL0     O38832   4.006   1.590   4.930 -0.7580  0.2397  0.1204
  295MOL0     C38833   3.875   1.551   4.903  0.1015 -0.0008  0.4206
  295MOL0     C38834   3.795   1.600   5.006 -0.5275  0.5953 -0.8174
  295MOL0     C38835   3.656   1.578   5.016 -0.0634 -0.7607  0.0967
  295MOL0     C38836   3.591   1.532   4.903  0.1555  0.6788  0.6743
  295MOL0     C38837   3.444   1.527   4.895  0.2551  0.0900 -0.7577
  295MOL0     O38838   3.388   1.458   4.784  0.4716  0.1949 -0.3199
  295MOL0     C38839   3.254   1.458   4.760 -0.7318  0.6057 -0.4578
  295MOL0     C38840   3.227   1.394   4.642  0.1684  0.2342  0.4027
  295MOL0     C38841   3.095   1.381   4.591 -0.0111  0.3167  0.3649
  295MOL0     C38842   2.989   1.433   4.664 -0.3348  0.2113 -0.5742
  295MOL0     O38843   2.862   1.409   4.617 -0.9998 -0.5658  0.0941
  295MOL0     C38844   2.752   1.477   4.663  0.3592  0.1383  0.1430
  295MOL0     C38845   2.745   1.624   4.608 -0.4247  0.4606 -0.4721
  295MOL0     C38846   2.610   1.691   4.655  1.2219 -0.4326 -1.2200
  295MOL0     C38847   2.597   1.686   4.809 -0.5092 -0.5549  0.1084
  295MOL0     C38848   2.504   1.793   4.871 -0.6457 -0.1628 -0.2266
  295MOL0     C38849   2.526   1.945   4.839 -0.0146  0.3372 -0.3896
  295MOL0     C38850   2.429   2.033   4.916  0.4629  0.6872 -1.2047
  295MOL0     C38851   2.443   2.178   4.905 -0.2975 -0.4356 -0.0817
  295MOL0    Cl38852   2.614   2.234   4.923 -0.3114 -0.1875 -0.3762
  295MOL0     C38853   3.018   1.498   4.788 -0.1062  0.2657 -0.1325
  295MOL0     C38854   3.152   1.504   4.843  0.2164 -0.1539  0.3312
  295MOL0     O38855   3.383   1.582   4.989  0.1512  0.4864 -0.4848
  295MOL0     C38856   3.666   1.492   4.793 -1.5565  1.3910  0.1637
  295MOL0     C38857   3.809   1.500   4.794  0.4968 -1.0983  0.3334
  295MOL0     N38858   4.179   1.446   5.449 -0.2310 -0.1942  0.4343
  295MOL0     N38859   4.177   1.529   5.555 -0.0811  0.1226 -0.0126
  295MOL0     C38860   5.335   1.945   5.807  0.7496 -0.0839  1.1633
  295MOL0     C38861   5.454   1.954   5.872 -0.0289 -0.7716  0.1484
  295MOL0     C38862   5.840   2.084   6.094  0.5546  0.2516  0.0272
  295MOL0     C38863   5.924   2.011   6.179  0.1064 -0.8865  0.1978
  295MOL0     C38864   6.009   2.079   6.272 -1.0026 -0.1194  0.4602
  295MOL0     C38865   6.032   2.222   6.263  0.1749  0.7843  0.4108
  295MOL0     O38866   6.126   2.294   6.336  0.4661 -0.1649 -0.3734
  295MOL0     C38867   6.237   2.225   6.387  0.6418  0.2451  0.0266
  295MOL0     C38868   6.347   2.315   6.438 -0.0155  0.0019 -0.1949
  295MOL0     C38869   6.432   2.370   6.327  0.4865  0.1055 -0.3826
  295MOL0     C38870   6.430   2.520   6.311  0.2425 -0.0436 -0.7628
  295MOL0     C38871   6.316   2.562   6.222  0.3591  0.1485  0.2434
  295MOL0     C38872   6.229   2.576   6.137  0.0733 -0.1993 -0.7896
  295MOL0     C38873   5.955   2.297   6.180  0.5114 -0.2181  0.0031
  295MOL0     C38874   5.862   2.228   6.095  0.9282 -0.5416 -0.2595
  295MOL0     H38875   5.493   2.288   5.868 -0.9585  0.1358 -0.1857
  295MOL0     H38876   5.276   2.273   5.729  0.8037 -0.1413 -0.6676
  295MOL0     H38877   5.045   2.168   5.789  1.6990 -0.5083  3.0787
  295MOL0     H38878   5.056   1.996   5.828  1.1986  1.0648 -1.1209
  295MOL0     H38879   4.969   1.939   5.592  0.3513 -0.6411  0.3723
  295MOL0     H38880   4.910   2.114   5.588 -3.1991  0.7662  3.2616
  295MOL0     H38881   4.773   2.070   5.790 -0.0166  1.2476 -0.9859
  295MOL0     H38882   4.807   1.904   5.784 -1.3808  0.7084  2.1275
  295MOL0     H38883   4.651   2.047   5.568 -1.1100  0.8375  1.0387
  295MOL0     H38884   4.720   1.889   5.551 -0.6346 -0.7453  0.2296
  295MOL0     H38885   4.542   1.959   5.787 -1.9655  0.7837 -0.9541
  295MOL0     H38886   4.614   1.800   5.735  0.4884 -0.7530 -3.2195
  295MOL0     H38887   4.477   1.846   5.516 -1.4049  1.5610 -1.7471
  295MOL0     H38888   4.404   1.984   5.583  2.6218  1.2133 -0.6733
  295MOL0     H38889   4.376   1.696   5.707 -2.2732 -0.4623  1.5845
  295MOL0     H38890   4.310   1.830   5.791  4.7706 -0.6925  1.4900
  295MOL0     H38891   4.183   1.866   5.542 -0.7810 -2.6804 -3.2384
  295MOL0     H38892   4.124   1.765   5.675  0.9953  0.8283  0.9830
  295MOL0     H38893   4.272   1.732   5.324  2.0348 -0.5590 -0.6236
  295MOL0     H38894   4.287   1.375   5.206 -0.2789 -0.7594 -2.0649
  295MOL0     H38895   4.278   1.547   5.153  0.9671  1.2343  2.4448
  295MOL0     H38896   4.019   1.512   5.158  0.5354  0.1746 -2.0591
  295MOL0     H38897   4.039   1.348   5.208 -5.3369  1.3962 -0.7325
  295MOL0     H38898   4.186   1.306   5.008 -0.4422  0.6408  1.8597
  295MOL0     H38899   4.021   1.302   4.986  1.9910 -2.8376 -2.6442
  295MOL0     H38900   4.104   1.437   4.807  0.6697 -0.7340  0.1166
  295MOL0     H38901   4.210   1.531   4.914 -0.2975  0.2378  2.3769
  295MOL0     H38902   3.841   1.643   5.095  1.1079  0.2825 -1.4817
  295MOL0     H38903   3.598   1.612   5.102 -0.4294  1.6957 -1.0243
  295MOL0     H38904   3.312   1.352   4.589  0.7733  0.4881  1.1519
  295MOL0     H38905   3.073   1.331   4.497 -1.2041  0.8895  0.3243
  295MOL0     H38906   2.753   1.481   4.772 -1.2656  2.2540  0.1480
  295MOL0     H38907   2.667   1.426   4.616 -0.4772  1.5900  0.0111
  295MOL0     H38908   2.756   1.625   4.500 -1.2341 -2.2278 -0.6544
  295MOL0     H38909   2.832   1.671   4.656  0.6878 -1.4973 -0.5037
  295MOL0     H38910   2.519   1.639   4.623 -0.6540  2.3932 -0.8850
  295MOL0     H38911   2.609   1.800   4.640  0.7910 -0.0869  1.0613
  295MOL0     H38912   2.565   1.585   4.834  1.1286 -0.7680  1.6169
  295MOL0     H38913   2.697   1.698   4.852 -1.5488 -0.1919  2.6205
  295MOL0     H38914   2.516   1.785   4.979 -2.9332 -0.1209  0.0719
  295MOL0     H38915   2.399   1.780   4.843 -1.4958  0.1235  2.5219
  295MOL0     H38916   2.503   1.950   4.732 -0.6329 -1.1090 -0.3445
  295MOL0     H38917   2.629   1.969   4.868 -0.2894  0.4734  0.4983
  295MOL0     H38918   2.330   2.009   4.877  0.8030 -1.0407 -1.0577
  295MOL0     H38919   2.432   2.000   5.020  2.5571 -1.3153 -1.8143
  295MOL0     H38920   2.376   2.231   4.974 -0.3625 -0.8781  0.1973
  295MOL0     H38921   2.401   2.202   4.806 -1.7494 -0.1469  0.5873
  295MOL0     H38922   2.943   1.552   4.844 -0.6325 -1.6498  1.1150
  295MOL0     H38923   3.170   1.539   4.945 -0.4722  1.0817  0.0506
  295MOL0     H38924   3.625   1.473   4.694  1.1300 -0.8618 -0.6475
  295MOL0     H38925   3.865   1.458   4.711 -0.6315 -3.5308  0.7219
  295MOL0     H38926   5.292   1.847   5.789  0.7308  0.2099 -0.5858
  295MOL0     H38927   5.511   1.865   5.896 -0.4860 -1.0916  0.0450
  295MOL0     H38928   5.904   1.906   6.200 -0.6621 -0.0332  4.9536
  295MOL0     H38929   6.065   2.023   6.346  2.1762  1.6138 -0.4750
  295MOL0     H38930   6.278   2.153   6.316 -0.1625 -1.4133  1.1901
  295MOL0     H38931   6.197   2.179   6.478  1.3301 -0.0940  0.1655
  295MOL0     H38932   6.298   2.398   6.489 -2.7681 -0.1496 -2.3274
  295MOL0     H38933   6.405   2.255   6.508 -0.8061 -0.2329  0.2633
  295MOL0     H38934   6.400   2.322   6.234  0.1489 -2.9183  1.1544
  295MOL0     H38935   6.533   2.329   6.335  0.0148 -1.1096 -0.3416
  295MOL0     H38936   6.421   2.562   6.412  0.7722  0.0412 -0.7504
  295MOL0     H38937   6.521   2.560   6.266  2.2408  0.2743  3.1024
  295MOL0     H38938   6.154   2.595   6.063 -0.4960  2.4328  0.3491
  295MOL0     H38939   5.988   2.400   6.176  4.7047 -1.2577  1.8875
  295MOL0     H38940   5.791   2.285   6.036 -0.8911 -1.3066  1.0798
  296MOL0     O38941   5.132   7.155  10.883 -0.4201 -0.2854 -0.5450
  296MOL0     C38942   5.139   7.245  10.800  0.4103  0.0387  0.4571
  296MOL0     O38943   5.035   7.319  10.759  0.0947  0.2276 -0.0471
  296MOL0     C38944   4.907   7.283  10.785  0.1198  0.3375 -0.3175
  296MOL0     C38945   4.812   7.370  10.834  0.2828 -0.3698 -0.4289
  296MOL0     C38946   4.676   7.324  10.861 -0.2015 -0.0877 -0.2418
  296MOL0     C38947   4.645   7.189  10.831 -0.2131 -0.8027 -0.0708
  296MOL0     O38948   4.520   7.136  10.865  0.3830 -0.5472 -0.0221
  296MOL0     C38949   4.404   7.195  10.822  0.0477 -0.1775 -0.1191
  296MOL0     C38950   4.300   7.085  10.796  0.3665 -0.5463 -0.3414
  296MOL0     C38951   4.182   7.143  10.724 -0.5779  0.3252  0.5186
  296MOL0     C38952   4.063   7.046  10.758 -0.3256 -0.8511 -0.0349
  296MOL0     C38953   3.928   7.105  10.709 -0.3620 -0.0943  0.0505
  296MOL0     C38954   3.829   6.997  10.713  0.6935 -0.5811  0.4549
  296MOL0     C38955   3.697   7.044  10.653 -0.1245  0.3828 -0.1884
  296MOL0     C38956   3.588   6.937  10.673 -0.5460 -1.1605 -0.7201
  296MOL0     N38957   3.545   6.939  10.812  1.0219 -0.2188 -0.1673
  296MOL0     C38958   3.446   6.867  10.859  0.2932 -0.2727 -0.0974
  296MOL0     C38959   3.429   6.909  10.990  0.2335  0.8018  1.1695
  296MOL0     C38960   3.329   6.857  11.081  0.0370  0.3333  0.3608
  296MOL0     C38961   3.386   6.853  11.232 -0.3282 -0.8622  0.0640
  296MOL0     C38962   3.331   6.980  11.306 -0.3387  0.2664 -0.1082
  296MOL0     C38963   3.187   7.003  11.318 -0.8508  0.1874 -0.8807
  296MOL0     O38964   3.120   6.883  11.351  0.6034  0.8908 -0.2560
  296MOL0     C38965   2.984   6.878  11.373 -0.3050  0.3911 -0.3552
  296MOL0     C38966   2.909   6.991  11.379  0.3629  0.4040 -0.3893
  296MOL0     C38967   2.767   6.990  11.395  0.2513  0.4952 -0.8399
  296MOL0     C38968   2.705   6.863  11.407  0.2001 -0.3574  0.0395
  296MOL0     C38969   2.557   6.864  11.421 -0.3507 -0.4168 -0.3854
  296MOL0     O38970   2.503   6.749  11.467 -0.3583  0.0503 -0.3244
  296MOL0     C38971   2.365   6.721  11.457 -0.5513 -0.0079  0.0896
  296MOL0     C38972   2.270   6.772  11.365  0.0417 -0.2883 -0.9118
  296MOL0     C38973   2.132   6.730  11.369  0.1085  0.1317 -0.0155
  296MOL0     C38974   2.094   6.628  11.455  0.1954  0.3391 -0.0858
  296MOL0     O38975   1.960   6.600  11.456 -0.6919 -0.0520  0.5033
  296MOL0     C38976   1.922   6.458  11.453 -0.5317 -0.8435 -0.0746
  296MOL0     C38977   1.777   6.458  11.424 -0.5088  0.0123 -0.7289
  296MOL0     C38978   1.727   6.553  11.306 -0.1638 -0.4449  0.2908
  296MOL0     C38979   1.792   6.532  11.169  0.4995  0.0305  0.3244
  296MOL0     C38980   1.749   6.634  11.064 -0.0448  0.8749  0.5684
  296MOL0     C38981   1.840   6.757  11.078 -0.2597  0.4646 -0.6728
  296MOL0     C38982   1.818   6.858  10.966  0.2515  0.0525  0.8248
  296MOL0     C38983   1.864   7.000  11.000  0.6562  0.4437  0.9446
  296MOL0    Cl38984   2.031   6.991  11.029 -0.0659  0.1507  0.1376
  296MOL0     C38985   2.187   6.581  11.551  0.6194 -0.6715 -0.5852
  296MOL0     C38986   2.324   6.630  11.553 -0.1421  0.9849 -0.0071
  296MOL0     O38987   2.494   6.971  11.406  0.0428  0.2708 -0.3658
  296MOL0     C38988   2.783   6.740  11.390  0.1920 -0.4176 -0.2510
  296MOL0     C38989   2.923   6.757  11.371 -0.6634  0.0856 -0.4804
  296MOL0     N38990   3.520   7.008  11.016  0.8337  0.1612 -0.7839
  296MOL0     N38991   3.598   7.018  10.912 -0.5404 -0.0200 -0.1712
  296MOL0     C38992   4.730   7.111  10.774  0.6730  0.1612  1.3451
  296MOL0     C38993   4.861   7.156  10.753 -0.1215  0.0328  0.3427
  296MOL0     C38994   5.264   7.259  10.729 -0.2460 -0.8344 -0.4821
  296MOL0     C38995   5.301   7.382  10.676  0.5625 -0.3376 -0.2264
  296MOL0     C38996   5.416   7.403  10.602 -1.3365  0.7021  1.1799
  296MOL0     C38997   5.501   7.292  10.577  0.5767  0.5472  0.8624
  296MOL0     O38998   5.619   7.308  10.514  0.9300  0.1653  0.4949
  296MOL0     C38999   5.708   7.198  10.497  0.4709  0.5506 -0.7038
  296MOL0     C39000   5.834   7.249  10.428 -0.2697 -0.5219  0.1704
  296MOL0     C39001   5.876   7.392  10.475 -0.5608  0.1985  1.6974
  296MOL0     C39002   6.015   7.437  10.453  0.1639 -0.7245  0.0589
  296MOL0     C39003   6.044   7.573  10.510  0.2613 -0.3693  0.0141
  296MOL0     C39004   6.071   7.663  10.585 -0.0130  0.3775  0.3279
  296MOL0     C39005   5.466   7.167  10.631 -0.3771  0.3139  0.2010
  296MOL0     C39006   5.352   7.148  10.705  0.2582  0.0583  0.6784
  296MOL0     H39007   4.850   7.469  10.857 -2.9090  0.5883  1.3188
  296MOL0     H39008   4.596   7.385  10.904  0.3411  1.0674 -0.8249
  296MOL0     H39009   4.406   7.265  10.738 -2.6337  1.5516  1.1079
  296MOL0     H39010   4.368   7.250  10.910  2.1708  0.2049  0.5592
  296MOL0     H39011   4.281   7.047  10.897 -0.7106  0.9754  0.0683
  296MOL0     H39012   4.350   7.010  10.734  0.6154 -0.9914  0.3811
  296MOL0     H39013   4.200   7.137  10.616  1.7779  0.6818  0.8424
  296MOL0     H39014   4.154   7.244  10.753 -0.4568  2.2787 -5.0113
  296MOL0     H39015   4.086   6.953  10.706 -1.3249 -0.6831 -0.8053
  296MOL0     H39016   4.054   7.035  10.866  1.2666  0.1065  0.2315
  296MOL0     H39017   3.932   7.141  10.606  1.4113  1.2791  0.5438
  296MOL0     H39018   3.895   7.191  10.768  0.5480  2.0779 -2.4386
  296MOL0     H39019   3.813   6.959  10.814  2.0459 -1.5475  0.3281
  296MOL0     H39020   3.854   6.908  10.654 -0.2041 -1.4082  1.2792
  296MOL0     H39021   3.670   7.143  10.691 -1.7832  0.0084 -0.2805
  296MOL0     H39022   3.693   7.059  10.545  2.7210  3.0426 -0.0699
  296MOL0     H39023   3.628   6.836  10.659 -0.4836 -1.1160 -0.8606
  296MOL0     H39024   3.501   6.963  10.613 -0.9744  0.4556  0.5328
  296MOL0     H39025   3.373   6.802  10.810  1.7781 -2.8767  0.9125
  296MOL0     H39026   3.304   6.754  11.053  1.4749 -0.6075  2.2656
  296MOL0     H39027   3.244   6.925  11.074  1.3652  2.1147  0.8859
  296MOL0     H39028   3.495   6.856  11.236 -0.3646  1.4536  3.3615
  296MOL0     H39029   3.358   6.757  11.279 -0.0747  0.1528  2.4493
  296MOL0     H39030   3.369   6.981  11.409 -0.3574  2.6282 -0.0638
  296MOL0     H39031   3.372   7.069  11.257  3.3121 -0.9644  0.3826
  296MOL0     H39032   3.146   7.041  11.223 -1.1370  1.3892 -0.2967
  296MOL0     H39033   3.175   7.078  11.396 -0.3987 -0.4681 -0.1697
  296MOL0     H39034   2.955   7.089  11.374  1.0147  0.0829 -0.7775
  296MOL0     H39035   2.715   7.085  11.401 -1.1067 -0.0990 -2.3923
  296MOL0     H39036   2.311   6.847  11.298 -1.1671  0.1680 -1.1658
  296MOL0     H39037   2.071   6.764  11.286 -0.6003 -0.8012  0.1077
  296MOL0     H39038   1.936   6.417  11.554 -0.4295 -1.9193 -0.5148
  296MOL0     H39039   1.986   6.417  11.375  0.3149  1.5764 -0.7330
  296MOL0     H39040   1.728   6.477  11.521  1.9550  0.8433  0.4353
  296MOL0     H39041   1.750   6.355  11.400  1.8403 -0.5446 -1.1378
  296MOL0     H39042   1.753   6.656  11.330 -1.1956  0.6179 -2.6337
  296MOL0     H39043   1.619   6.538  11.296 -0.0130 -1.9999  0.6971
  296MOL0     H39044   1.901   6.521  11.173  0.8038  1.9236 -1.3535
  296MOL0     H39045   1.749   6.439  11.131  2.0887 -0.1810 -1.0721
  296MOL0     H39046   1.643   6.659  11.076  0.1332  1.2768  1.4112
  296MOL0     H39047   1.765   6.591  10.965  0.6648 -0.9701  1.4332
  296MOL0     H39048   1.946   6.731  11.087  0.2432  2.7671  1.0994
  296MOL0     H39049   1.825   6.799  11.178 -0.6890 -0.6152 -0.2769
  296MOL0     H39050   1.873   6.819  10.880 -2.9653  3.0969 -2.9870
  296MOL0     H39051   1.709   6.858  10.956 -0.0545 -3.0748  2.7696
  296MOL0     H39052   1.818   7.031  11.094  1.1162  1.9339  0.7093
  296MOL0     H39053   1.839   7.067  10.917 -0.9439 -0.9720  0.2168
  296MOL0     H39054   2.147   6.511  11.624  1.8283 -0.9104 -0.1168
  296MOL0     H39055   2.397   6.592  11.624 -0.6609  1.1392  0.6198
  296MOL0     H39056   2.729   6.646  11.386  1.0705 -0.8815 -2.9580
  296MOL0     H39057   2.977   6.666  11.348 -0.8990 -0.3100  0.4642
  296MOL0     H39058   4.689   7.013  10.752 -2.8547  1.9169 -0.6607
  296MOL0     H39059   4.939   7.099  10.703 -1.2073  0.1222 -1.5319
  296MOL0     H39060   5.224   7.458  10.683  0.2239 -0.6967 -0.0268
  296MOL0     H39061   5.439   7.506  10.577  0.7773  0.7711  3.0388
  296MOL0     H39062   5.665   7.120  10.434  3.0849 -2.8875  1.3567
  296MOL0     H39063   5.737   7.160  10.596  0.4699  0.8427 -0.5916
  296MOL0     H39064   5.921   7.185  10.445  0.3416  0.7034  1.8872
  296MOL0     H39065   5.816   7.255  10.320  2.8147  1.7512 -0.3370
  296MOL0     H39066   5.864   7.392  10.584 -1.1210  0.0332  1.6382
  296MOL0     H39067   5.802   7.463  10.438 -0.2702  1.2364  3.0319
  296MOL0     H39068   6.076   7.358  10.498 -0.0318  0.3750  2.3937
  296MOL0     H39069   6.041   7.444  10.346  1.4627  0.8061  0.4411
  296MOL0     H39070   6.082   7.745  10.653 -2.2843  3.0584 -2.1962
  296MOL0     H39071   5.531   7.081  10.620  0.9125  1.4651 -1.7376
  296MOL0     H39072   5.319   7.050  10.738 -0.6582 -0.4582 -1.5755
  297MOL0     O39073   3.533  11.194   8.631 -0.7825  0.3516  0.7000
  297MOL0     C39074   3.601  11.295   8.619  0.0148 -0.6045  1.0360
  297MOL0     O39075   3.544  11.420   8.610 -0.0169  0.2178  0.1336
  297MOL0     C39076   3.411  11.447   8.595  0.4363  0.2175  0.7160
  297MOL0     C39077   3.371  11.531   8.495  0.2884 -0.1610 -0.4005
  297MOL0     C39078   3.244  11.591   8.498  0.1735 -0.3963  0.0740
  297MOL0     C39079   3.152  11.559   8.597 -0.4843 -0.8769 -1.0265
  297MOL0     O39080   3.024  11.606   8.608  0.0082  0.2979  0.3260
  297MOL0     C39081   2.948  11.655   8.492  0.1445 -0.2059 -0.0757
  297MOL0     C39082   2.817  11.708   8.553 -0.2321 -0.1435  0.3297
  297MOL0     C39083   2.729  11.594   8.608  0.0823 -0.2862 -0.6668
  297MOL0     C39084   2.602  11.644   8.666 -0.2721 -0.2571 -1.0464
  297MOL0     C39085   2.490  11.631   8.580  0.9411 -0.3712  0.7050
  297MOL0     C39086   2.367  11.675   8.645  0.9582 -0.1325 -0.0068
  297MOL0     C39087   2.247  11.695   8.549 -0.1851  0.4654  0.3822
  297MOL0     C39088   2.238  11.614   8.420  0.0420 -0.1089 -0.1728
  297MOL0     N39089   2.102  11.608   8.351 -1.0380  0.2757 -0.3706
  297MOL0     C39090   1.996  11.539   8.412  0.2093  0.1683 -0.7084
  297MOL0     C39091   1.882  11.613   8.402 -0.2462  0.6369  0.1222
  297MOL0     C39092   1.741  11.583   8.444  0.1088 -0.3564  0.4587
  297MOL0     C39093   1.685  11.452   8.402  0.5575  0.0036  0.0785
  297MOL0     C39094   1.715  11.417   8.255  0.4786  0.1994  0.8373
  297MOL0     C39095   1.607  11.336   8.178 -0.5340  0.0689 -0.6652
  297MOL0     O39096   1.597  11.202   8.233 -0.1453 -0.0480  0.4731
  297MOL0     C39097   1.483  11.156   8.293  0.3803 -0.2509 -0.3986
  297MOL0     C39098   1.357  11.214   8.287  0.1044  0.3376  0.1968
  297MOL0     C39099   1.252  11.153   8.354  0.7935  0.1103 -0.3737
  297MOL0     C39100   1.264  11.027   8.428  0.1903 -0.0660  0.3436
  297MOL0     C39101   1.147  10.966   8.503  0.5281  0.3267  1.0286
  297MOL0     O39102   1.020  11.023   8.485  0.6562  0.3873  0.1957
  297MOL0     C39103   0.922  10.942   8.535 -0.1912 -0.4220  0.1084
  297MOL0     C39104   0.891  10.909   8.671 -0.4706 -0.0948 -0.2313
  297MOL0     C39105   0.789  10.819   8.696 -0.1541 -0.2433 -0.6519
  297MOL0     C39106   0.710  10.772   8.599  0.4113 -0.6806 -0.1648
  297MOL0     O39107   0.599  10.696   8.624  0.5993  0.8486 -0.4008
  297MOL0     C39108   0.568  10.651   8.757  0.4547  0.5181 -0.7142
  297MOL0     C39109   0.481  10.526   8.726 -0.5174  0.3622  0.5908
  297MOL0     C39110   0.440  10.457   8.860  0.8709  0.0407 -0.6805
  297MOL0     C39111   0.344  10.348   8.835  0.4386 -0.1910  0.3967
  297MOL0     C39112   0.290  10.271   8.960  0.0164  0.3038  0.3574
  297MOL0     C39113   0.300  10.360   9.092 -0.2424  0.3977 -0.2120
  297MOL0     C39114   0.261  10.287   9.222 -0.5029  0.8581  0.2660
  297MOL0     C39115   0.247  10.375   9.351  0.2495 -0.6717 -0.0118
  297MOL0    Cl39116   0.114  10.493   9.351  0.1020  0.0625 -0.0445
  297MOL0     C39117   0.730  10.808   8.466 -1.7132  0.4657 -0.0226
  297MOL0     C39118   0.840  10.885   8.434 -0.0351  0.2396  0.1863
  297MOL0     O39119   1.177  10.880   8.584  0.1696  0.4939 -0.4722
  297MOL0     C39120   1.395  10.980   8.440 -0.8417  0.1292  0.2854
  297MOL0     C39121   1.503  11.049   8.376 -0.2863  0.4258  0.5325
  297MOL0     N39122   1.917  11.719   8.325 -0.0753  0.3297  0.4971
  297MOL0     N39123   2.040  11.716   8.294  0.0512 -0.3765  0.5910
  297MOL0     C39124   3.195  11.479   8.705  0.6673  0.1786  0.1445
  297MOL0     C39125   3.332  11.427   8.706  0.0647  1.0977 -0.7394
  297MOL0     C39126   3.743  11.277   8.602 -0.3493 -0.1575 -0.3057
  297MOL0     C39127   3.810  11.147   8.581  0.7143 -0.2769  0.5451
  297MOL0     C39128   3.945  11.129   8.576  0.2695 -0.2404  0.0862
  297MOL0     C39129   4.026  11.248   8.588  0.1416  0.4668 -0.3076
  297MOL0     O39130   4.161  11.234   8.552  0.4753 -0.0925 -0.9027
  297MOL0     C39131   4.228  11.339   8.490 -0.5463  0.2264  0.0276
  297MOL0     C39132   4.332  11.410   8.579 -0.2861 -0.0718 -0.5488
  297MOL0     C39133   4.411  11.517   8.506  0.7440  0.1294 -0.6838
  297MOL0     C39134   4.462  11.637   8.596 -0.1434 -0.5528 -0.3629
  297MOL0     C39135   4.551  11.727   8.530 -0.1358  0.3521 -0.0370
  297MOL0     C39136   4.615  11.818   8.471  0.5454  1.1532  0.7965
  297MOL0     C39137   3.971  11.375   8.608 -0.0627  0.8801 -0.2371
  297MOL0     C39138   3.828  11.393   8.606 -0.1922 -0.2981 -0.1552
  297MOL0     H39139   3.446  11.559   8.422  0.3585  2.4962  0.6013
  297MOL0     H39140   3.208  11.650   8.414 -0.7599  0.8359  1.3007
  297MOL0     H39141   2.932  11.577   8.416  1.0696  0.0565 -0.5531
  297MOL0     H39142   3.010  11.735   8.450  3.8803 -2.2447  1.1652
  297MOL0     H39143   2.756  11.748   8.472  0.5220 -0.9317 -0.6563
  297MOL0     H39144   2.843  11.783   8.629  2.0322  1.5281 -1.9345
  297MOL0     H39145   2.785  11.549   8.691  2.6504  0.6851 -1.8003
  297MOL0     H39146   2.696  11.517   8.538 -0.9367  1.4871 -2.2152
  297MOL0     H39147   2.584  11.580   8.753 -2.1223 -3.6155 -3.6459
  297MOL0     H39148   2.623  11.744   8.704  1.4737 -1.0688  0.2748
  297MOL0     H39149   2.476  11.525   8.554 -3.2020 -0.3452  2.1196
  297MOL0     H39150   2.506  11.691   8.490 -3.4472 -0.4630 -0.3380
  297MOL0     H39151   2.371  11.772   8.696 -3.0426  0.2193 -0.0139
  297MOL0     H39152   2.351  11.590   8.712  1.9774 -0.8742 -0.6868
  297MOL0     H39153   2.153  11.683   8.604  0.6459  0.5683  1.8642
  297MOL0     H39154   2.253  11.798   8.513 -0.7978  0.0420 -0.9755
  297MOL0     H39155   2.267  11.513   8.450 -0.2215 -0.8604 -2.2874
  297MOL0     H39156   2.312  11.656   8.352 -1.8575  1.3688 -1.4505
  297MOL0     H39157   2.003  11.455   8.481 -0.9221  0.2576 -0.4690
  297MOL0     H39158   1.674  11.654   8.395  1.3187  0.0554 -0.6319
  297MOL0     H39159   1.725  11.595   8.552  0.5082  1.0684  0.3798
  297MOL0     H39160   1.578  11.450   8.424  0.4048  0.3597 -0.5912
  297MOL0     H39161   1.741  11.377   8.459  3.0964  1.2693 -0.5902
  297MOL0     H39162   1.721  11.505   8.190 -1.2025 -1.0499 -1.1093
  297MOL0     H39163   1.814  11.371   8.242  1.9091  2.6057  2.4008
  297MOL0     H39164   1.624  11.320   8.071  0.6281  1.0823 -0.6637
  297MOL0     H39165   1.512  11.387   8.195 -0.0574  0.5744  0.6411
  297MOL0     H39166   1.331  11.286   8.210 -1.9685 -2.6515 -2.1802
  297MOL0     H39167   1.153  11.199   8.354 -0.1396 -1.4311  3.6036
  297MOL0     H39168   0.961  10.949   8.744  1.8822 -2.0360 -1.2667
  297MOL0     H39169   0.761  10.792   8.798  0.6324  1.0606 -0.0741
  297MOL0     H39170   0.515  10.715   8.829  0.4186 -1.0728  0.7378
  297MOL0     H39171   0.658  10.609   8.801  0.4013 -1.0143 -1.9836
  297MOL0     H39172   0.522  10.452   8.657 -0.4007  0.6679  0.3326
  297MOL0     H39173   0.389  10.568   8.684 -0.3084  0.2741  0.0368
  297MOL0     H39174   0.387  10.525   8.926  1.3319 -0.9542  0.7604
  297MOL0     H39175   0.520  10.419   8.924 -0.0891  1.2288  1.3103
  297MOL0     H39176   0.254  10.397   8.797 -1.7894 -2.1821  2.8100
  297MOL0     H39177   0.376  10.278   8.757 -1.9926 -3.7930  2.3871
  297MOL0     H39178   0.347  10.178   8.967  1.9190  1.4718  1.0798
  297MOL0     H39179   0.183  10.258   8.940  0.0161  1.0655 -0.2335
  297MOL0     H39180   0.234  10.444   9.069 -0.9136 -0.9548 -4.0443
  297MOL0     H39181   0.403  10.393   9.108  0.6705 -1.2932 -2.1519
  297MOL0     H39182   0.165  10.246   9.191 -0.5991  1.0215  0.3461
  297MOL0     H39183   0.319  10.202   9.258 -1.1850  1.4078  2.8568
  297MOL0     H39184   0.343  10.426   9.363  1.3988 -3.3879  4.5013
  297MOL0     H39185   0.240  10.307   9.436  0.9242  0.4914  1.0020
  297MOL0     H39186   0.675  10.750   8.392  2.0702 -0.8644 -2.0699
  297MOL0     H39187   0.862  10.902   8.329  0.6104 -3.8294 -0.5083
  297MOL0     H39188   1.415  10.893   8.501  0.6462  0.5891  0.4856
  297MOL0     H39189   1.605  11.013   8.382 -0.4870 -0.5553 -1.3220
  297MOL0     H39190   3.121  11.448   8.778 -0.1380 -2.7879 -1.7201
  297MOL0     H39191   3.368  11.378   8.795 -0.9272  0.8935 -0.4403
  297MOL0     H39192   3.741  11.070   8.548  0.9324  0.2976 -1.3437
  297MOL0     H39193   3.997  11.035   8.563 -0.5220 -0.6477 -0.1395
  297MOL0     H39194   4.161  11.407   8.437  1.6601 -0.1843 -3.6819
  297MOL0     H39195   4.274  11.304   8.397 -1.7772  2.4691 -1.5347
  297MOL0     H39196   4.281  11.451   8.667 -0.0868  1.5765 -1.1822
  297MOL0     H39197   4.402  11.331   8.608  0.4977  0.7342 -0.1962
  297MOL0     H39198   4.347  11.557   8.426 -0.7932 -1.8150 -0.5180
  297MOL0     H39199   4.498  11.470   8.460  1.0842 -0.2497  0.3290
  297MOL0     H39200   4.386  11.702   8.642  2.3964  2.5236 -0.1498
  297MOL0     H39201   4.514  11.589   8.679  2.2067 -0.7754 -1.8759
  297MOL0     H39202   4.674  11.887   8.415  0.1423  0.0873 -1.0351
  297MOL0     H39203   4.041  11.453   8.633  2.4676 -2.3185  4.2448
  297MOL0     H39204   3.798  11.494   8.631 -1.4294 -0.8099  0.5304
  298MOL0     O39205   1.109   9.618   1.750 -0.0620 -0.1013  0.4347
  298MOL0     C39206   1.160   9.517   1.693  0.7702 -0.9797 -0.0410
  298MOL0     O39207   1.094   9.436   1.607  0.5072  0.3029 -0.9561
  298MOL0     C39208   0.960   9.452   1.580 -0.5053 -0.3918  0.0304
  298MOL0     C39209   0.923   9.422   1.451 -0.0426  0.0282 -0.0592
  298MOL0     C39210   0.795   9.443   1.408  0.7633 -0.0890 -0.4466
  298MOL0     C39211   0.696   9.500   1.489  0.0026 -0.0927  0.3101
  298MOL0     O39212   0.571   9.524   1.438 -1.3496 -0.6948  0.3486
  298MOL0     C39213   0.465   9.572   1.517  0.5916  0.1124 -0.2505
  298MOL0     C39214   0.361   9.611   1.414 -0.3850  0.0965 -1.2635
  298MOL0     C39215   0.238   9.669   1.496  0.3441  1.1237 -1.0011
  298MOL0     C39216   0.130   9.710   1.395 -0.1799 -0.3025 -0.5032
  298MOL0     C39217   0.005   9.787   1.448  0.7035  0.1144 -0.1354
  298MOL0     C39218  -0.101   9.787   1.336  0.3778 -0.0408 -0.4892
  298MOL0     C39219  -0.213   9.887   1.350  0.5004  0.1189 -0.6369
  298MOL0     C39220  -0.322   9.848   1.449  0.0536 -0.0848 -0.6218
  298MOL0     N39221  -0.421   9.954   1.472 -0.2278  0.2015 -0.1228
  298MOL0     C39222  -0.549   9.954   1.416 -0.7016  0.0398  0.8370
  298MOL0     C39223  -0.603  10.074   1.454 -0.6037  0.4335 -0.6161
  298MOL0     C39224  -0.745  10.119   1.429  0.1099 -0.2859 -0.6681
  298MOL0     C39225  -0.767  10.174   1.296 -1.0500 -0.0430  0.3270
  298MOL0     C39226  -0.904  10.154   1.237 -0.3057 -0.1717  1.5585
  298MOL0     C39227  -1.011  10.209   1.327 -1.0531  0.4995  0.3421
  298MOL0     O39228  -1.133  10.216   1.248 -0.2667 -1.3820 -0.3329
  298MOL0     C39229  -1.255  10.233   1.304  0.7313 -0.4718 -0.5369
  298MOL0     C39230  -1.369  10.234   1.215  0.3654  0.2654 -0.7258
  298MOL0     C39231  -1.497  10.238   1.265 -0.0559 -0.6362  0.2515
  298MOL0     C39232  -1.522  10.231   1.401 -0.0671 -0.6128  0.5785
  298MOL0     C39233  -1.665  10.213   1.443 -0.4495  0.0096  0.2282
  298MOL0     O39234  -1.754  10.150   1.354 -0.0832  0.1992 -0.7845
  298MOL0     C39235  -1.882  10.111   1.384  0.4281 -0.1222 -0.2496
  298MOL0     C39236  -1.953  10.077   1.268 -1.0458 -0.0571  0.5719
  298MOL0     C39237  -2.090  10.041   1.278  0.2865 -0.0583  0.0129
  298MOL0     C39238  -2.148  10.012   1.396 -0.3119 -0.1524  0.1717
  298MOL0     O39239  -2.279   9.993   1.389  0.5704 -0.4939  0.3408
  298MOL0     C39240  -2.344   9.986   1.516 -0.0226 -0.3865 -0.2159
  298MOL0     C39241  -2.499   9.987   1.479 -0.3575  1.0503 -0.4491
  298MOL0     C39242  -2.598   9.984   1.595 -0.3708 -0.2979 -1.4237
  298MOL0     C39243  -2.739   9.961   1.554  0.7998 -0.2269  0.2640
  298MOL0     C39244  -2.839   9.959   1.673  0.3940 -0.0430  0.8134
  298MOL0     C39245  -2.985   9.939   1.623  0.1678  0.4557 -0.1371
  298MOL0     C39246  -3.091   9.961   1.732 -0.5793 -0.3262  0.0859
  298MOL0     C39247  -3.234   9.950   1.693  0.2816 -0.1437  0.1753
  298MOL0    Cl39248  -3.277   9.792   1.622 -0.4278 -0.2428  0.1452
  298MOL0     C39249  -2.066  10.020   1.512  0.1287  0.1954  0.6680
  298MOL0     C39250  -1.944  10.083   1.507 -1.0053  0.8623 -0.4610
  298MOL0     O39251  -1.700  10.263   1.549 -0.7137 -0.0090  0.2247
  298MOL0     C39252  -1.410  10.243   1.487  0.6248 -0.4234  0.2727
  298MOL0     C39253  -1.276  10.251   1.436  0.4703  0.5016  0.5453
  298MOL0     N39254  -0.501  10.146   1.532 -0.4633 -0.1961 -0.3132
  298MOL0     N39255  -0.392  10.075   1.530 -0.6359  1.0287  0.2299
  298MOL0     C39256   0.738   9.524   1.622  0.0057  0.6378  0.4873
  298MOL0     C39257   0.866   9.496   1.672  0.1146 -0.8226  0.4011
  298MOL0     C39258   1.301   9.503   1.712 -1.0530 -0.4666  0.7655
  298MOL0     C39259   1.371   9.400   1.647  0.8639 -0.6603  0.1222
  298MOL0     C39260   1.513   9.397   1.647  0.4478 -0.8481  0.1999
  298MOL0     C39261   1.583   9.477   1.737 -0.4517 -0.5922  0.2440
  298MOL0     O39262   1.716   9.483   1.762  0.0914 -0.9388 -0.2854
  298MOL0     C39263   1.800   9.390   1.706  0.2379  0.2281  0.7719
  298MOL0     C39264   1.804   9.268   1.797 -0.9075 -0.2501 -0.3401
  298MOL0     C39265   1.916   9.162   1.755  0.5942 -0.0333 -0.2323
  298MOL0     C39266   1.929   9.051   1.869  0.0337 -0.2887  0.0515
  298MOL0     C39267   2.036   8.961   1.826 -0.4067  0.4495  0.5542
  298MOL0     C39268   2.113   8.893   1.769 -1.0794  1.1439 -0.1152
  298MOL0     C39269   1.516   9.577   1.795 -0.3238  0.2900  0.4840
  298MOL0     C39270   1.384   9.594   1.778  0.1585 -0.2889  0.6664
  298MOL0     H39271   0.991   9.400   1.370 -0.1963  2.0007 -0.7961
  298MOL0     H39272   0.775   9.424   1.303 -3.1260  1.0690 -0.0856
  298MOL0     H39273   0.489   9.660   1.577  1.9124 -0.8316  0.6456
  298MOL0     H39274   0.433   9.483   1.572  3.6301 -1.8361 -1.4115
  298MOL0     H39275   0.334   9.519   1.361 -0.9419 -0.1583 -0.5614
  298MOL0     H39276   0.398   9.683   1.340 -1.2479 -1.5432 -3.4226
  298MOL0     H39277   0.273   9.760   1.547 -2.8966  1.9219  0.0379
  298MOL0     H39278   0.202   9.596   1.569 -1.3032  1.2124 -1.6761
  298MOL0     H39279   0.178   9.777   1.323  1.7022  2.9763  3.4053
  298MOL0     H39280   0.114   9.615   1.343  0.6477 -1.5550  1.4462
  298MOL0     H39281   0.037   9.891   1.462 -1.4369  0.6222  1.4352
  298MOL0     H39282  -0.041   9.751   1.540 -0.3653 -3.0918 -1.7537
  298MOL0     H39283  -0.139   9.684   1.326  1.0288 -0.3209 -0.1616
  298MOL0     H39284  -0.043   9.804   1.245  2.0171 -0.9731  0.3377
  298MOL0     H39285  -0.173   9.983   1.386 -1.6260  0.8515 -0.0890
  298MOL0     H39286  -0.247   9.905   1.248  1.5912  0.0179 -1.0291
  298MOL0     H39287  -0.282   9.807   1.542 -1.0987  1.0207  0.4077
  298MOL0     H39288  -0.384   9.766   1.411  0.7688 -1.0460  0.2510
  298MOL0     H39289  -0.596   9.876   1.357 -0.2900  0.3303  0.1125
  298MOL0     H39290  -0.768  10.193   1.506  0.6566  2.6481 -3.1805
  298MOL0     H39291  -0.819  10.045   1.463  0.4513 -0.4942 -0.3707
  298MOL0     H39292  -0.691  10.151   1.221  0.5785  1.1478  1.5404
  298MOL0     H39293  -0.750  10.281   1.311 -1.9548  0.1607 -0.0235
  298MOL0     H39294  -0.918  10.189   1.134  1.9284 -1.9866  0.5398
  298MOL0     H39295  -0.926  10.048   1.223  0.0881  0.0835 -2.2106
  298MOL0     H39296  -0.981  10.308   1.361  0.0949  0.0642  0.6236
  298MOL0     H39297  -1.024  10.139   1.409  1.4819 -0.6318 -0.1424
  298MOL0     H39298  -1.357  10.227   1.107 -0.7386 -0.8156 -0.8009
  298MOL0     H39299  -1.584  10.248   1.201  1.4683  1.1187 -1.6474
  298MOL0     H39300  -1.910  10.096   1.170  0.6650 -1.8393  0.8912
  298MOL0     H39301  -2.144  10.038   1.183 -1.2132  2.1378  0.7340
  298MOL0     H39302  -2.333  10.083   1.565 -0.6898  0.6574 -2.0446
  298MOL0     H39303  -2.313   9.893   1.564 -1.9347 -1.8698 -1.6736
  298MOL0     H39304  -2.518   9.912   1.402 -3.0067  2.0666 -0.9053
  298MOL0     H39305  -2.522  10.082   1.430  0.6699  1.9612  0.7529
  298MOL0     H39306  -2.598  10.073   1.660  2.2952  0.9107 -2.9186
  298MOL0     H39307  -2.572   9.899   1.659  0.1986  0.9779  0.1220
  298MOL0     H39308  -2.772  10.050   1.498  1.1604  0.7814  1.6119
  298MOL0     H39309  -2.744   9.870   1.493 -1.2009 -0.8476  1.2523
  298MOL0     H39310  -2.834  10.061   1.712 -0.9115  1.2850 -2.1722
  298MOL0     H39311  -2.814   9.887   1.751  1.6124 -0.1637  0.3416
  298MOL0     H39312  -3.006   9.842   1.576  0.5492  0.7784 -0.9924
  298MOL0     H39313  -3.010  10.010   1.544  1.8821 -0.6937 -1.8128
  298MOL0     H39314  -3.061   9.902   1.819  1.8362  0.3562 -0.1992
  298MOL0     H39315  -3.076  10.065   1.763  2.6547 -0.7792  0.3831
  298MOL0     H39316  -3.250  10.032   1.622  1.3118 -0.2321 -0.1719
  298MOL0     H39317  -3.302   9.979   1.774 -0.2478 -0.1271 -0.2675
  298MOL0     H39318  -2.115  10.005   1.608 -3.7709 -0.1259 -1.1734
  298MOL0     H39319  -1.895  10.099   1.602 -0.2446 -1.1509 -0.4826
  298MOL0     H39320  -1.424  10.266   1.592  3.4045  3.3360  0.0047
  298MOL0     H39321  -1.210  10.270   1.520 -1.5527 -0.0594  2.3829
  298MOL0     H39322   0.667   9.561   1.696 -0.1823 -0.5328  0.9092
  298MOL0     H39323   0.898   9.537   1.768  2.1257  1.0342 -0.9780
  298MOL0     H39324   1.312   9.339   1.580 -3.1922  0.5371  2.2969
  298MOL0     H39325   1.566   9.318   1.595  1.4958 -1.0922  1.5597
  298MOL0     H39326   1.905   9.421   1.702  2.1086 -5.1297  0.8809
  298MOL0     H39327   1.772   9.358   1.606  1.2774 -0.0957  0.5724
  298MOL0     H39328   1.807   9.276   1.906  0.3940 -4.0512  0.0643
  298MOL0     H39329   1.713   9.214   1.769 -1.0135  0.1384 -0.7633
  298MOL0     H39330   2.006   9.220   1.735 -1.0957  2.6137 -0.5869
  298MOL0     H39331   1.888   9.111   1.662 -0.2434 -1.8616  0.9600
  298MOL0     H39332   1.969   9.102   1.958  2.4021  1.1810 -1.7281
  298MOL0     H39333   1.836   8.996   1.878  0.3116 -0.9986 -1.2372
  298MOL0     H39334   2.183   8.827   1.723 -2.9014 -1.3098  0.4101
  298MOL0     H39335   1.572   9.651   1.852  4.9008 -2.1348 -0.9036
  298MOL0     H39336   1.339   9.684   1.820  0.3699  1.0194 -1.6934
  299MOL0     O39337   4.722   3.457   6.391  0.1885 -0.5050 -0.3237
  299MOL0     C39338   4.813   3.386   6.341 -0.0292  0.7755 -0.0467
  299MOL0     O39339   4.805   3.308   6.227  0.4496  0.5019  0.5465
  299MOL0     C39340   4.695   3.291   6.155  0.1342  0.4256 -1.0505
  299MOL0     C39341   4.633   3.160   6.162  0.8114 -0.5866  0.4025
  299MOL0     C39342   4.520   3.147   6.071 -0.6362  0.2489 -0.2533
  299MOL0     C39343   4.471   3.254   5.998 -0.0643  0.6404  0.5410
  299MOL0     O39344   4.367   3.228   5.900 -0.3615 -0.1136  0.2165
  299MOL0     C39345   4.297   3.343   5.842  0.6768  0.3052 -0.5296
  299MOL0     C39346   4.171   3.312   5.770 -0.2866 -0.2751  0.0089
  299MOL0     C39347   4.078   3.220   5.852 -0.7243 -0.7082 -0.2863
  299MOL0     C39348   3.933   3.239   5.792  0.0057  0.3336  0.3076
  299MOL0     C39349   3.821   3.189   5.890 -0.0495 -0.3962  0.2080
  299MOL0     C39350   3.680   3.241   5.838  0.1084  0.1880  0.1792
  299MOL0     C39351   3.568   3.160   5.905 -0.6139 -0.4977 -0.2119
  299MOL0     C39352   3.438   3.236   5.877  0.3993  0.4680  0.6544
  299MOL0     N39353   3.312   3.145   5.894 -0.2606 -0.0220  0.2915
  299MOL0     C39354   3.220   3.150   5.998  0.5166  0.3493 -0.5474
  299MOL0     C39355   3.120   3.070   5.964  1.4264 -0.6302  0.4712
  299MOL0     C39356   2.999   3.042   6.036 -0.1690 -0.4735  0.7343
  299MOL0     C39357   2.871   3.100   5.973  0.4010 -0.0998 -0.7981
  299MOL0     C39358   2.813   3.013   5.864 -0.5802  1.2621  0.3545
  299MOL0     C39359   2.682   3.060   5.809  0.0316  0.2184 -0.3935
  299MOL0     O39360   2.582   3.064   5.911  0.1888  0.2634  0.3553
  299MOL0     C39361   2.455   3.106   5.886  0.1955 -0.6161 -0.2884
  299MOL0     C39362   2.398   3.157   5.776 -0.6453  0.3057  0.3969
  299MOL0     C39363   2.268   3.212   5.763 -0.2588 -0.0735 -0.6395
  299MOL0     C39364   2.182   3.200   5.877 -0.8816 -0.1813  0.3224
  299MOL0     C39365   2.036   3.233   5.864  0.0443 -0.3006  0.4450
  299MOL0     O39366   1.949   3.199   5.969 -0.1926 -0.6396  0.2024
  299MOL0     C39367   1.818   3.231   5.951 -0.1809  0.9863  0.2872
  299MOL0     C39368   1.724   3.135   5.925  0.3637 -0.0084  0.8761
  299MOL0     C39369   1.583   3.159   5.930 -0.4502  1.0259 -0.6740
  299MOL0     C39370   1.543   3.286   5.972 -0.0319  0.4803  0.0824
  299MOL0     O39371   1.408   3.308   5.981  0.1402 -0.1985  0.1185
  299MOL0     C39372   1.367   3.379   6.099 -0.1755 -0.7587  0.7701
  299MOL0     C39373   1.216   3.367   6.112 -0.5386 -0.0813  0.5958
  299MOL0     C39374   1.143   3.378   5.977  0.0759 -0.8025 -0.1982
  299MOL0     C39375   1.010   3.322   5.995  0.6643  0.0627 -0.5119
  299MOL0     C39376   0.899   3.368   5.900  0.1134 -0.0938  0.9591
  299MOL0     C39377   0.937   3.385   5.757 -0.6379 -0.2054 -0.1746
  299MOL0     C39378   0.843   3.442   5.646 -0.3952  1.0691 -0.3309
  299MOL0     C39379   0.885   3.433   5.498 -0.8592 -0.0692  0.0221
  299MOL0    Cl39380   1.058   3.452   5.470  0.3917 -0.0963  0.5243
  299MOL0     C39381   1.638   3.383   5.999  0.1346  0.2034 -0.1150
  299MOL0     C39382   1.776   3.358   5.988 -0.4059 -0.6571  0.4970
  299MOL0     O39383   2.000   3.291   5.760  0.5900 -0.0049 -0.1870
  299MOL0     C39384   2.236   3.162   5.996 -0.0784 -0.5495  0.2207
  299MOL0     C39385   2.371   3.120   6.000 -0.0993  0.5654 -0.0430
  299MOL0     N39386   3.147   3.019   5.839 -0.6335  0.4616  0.2308
  299MOL0     N39387   3.264   3.063   5.801  0.0999  0.5639  0.1879
  299MOL0     C39388   4.531   3.384   5.999 -0.5757  0.3349  0.3512
  299MOL0     C39389   4.639   3.394   6.084  0.7189 -1.0340  0.5755
  299MOL0     C39390   4.948   3.383   6.406 -0.0032 -0.0098 -0.1905
  299MOL0     C39391   5.065   3.320   6.347  0.7593  0.6130 -0.1054
  299MOL0     C39392   5.195   3.299   6.399 -0.2500 -0.1367 -0.2387
  299MOL0     C39393   5.208   3.365   6.516 -2.0281  0.5604  0.1876
  299MOL0     O39394   5.344   3.346   6.572  0.3753  0.0638  0.0500
  299MOL0     C39395   5.373   3.444   6.673 -0.3835  0.5148  0.6766
  299MOL0     C39396   5.518   3.471   6.671 -0.3050 -0.9101  0.8776
  299MOL0     C39397   5.548   3.586   6.562 -0.5476  0.9137  0.3364
  299MOL0     C39398   5.699   3.602   6.556 -0.5153  0.4164  0.4066
  299MOL0     C39399   5.756   3.642   6.682 -0.5430  0.3054 -1.0979
  299MOL0     C39400   5.804   3.687   6.789  0.1242  0.0923  0.8856
  299MOL0     C39401   5.100   3.434   6.587 -0.0953  0.7260  0.3236
  299MOL0     C39402   4.978   3.441   6.534 -0.1732  1.5277  0.1757
  299MOL0     H39403   4.683   3.084   6.220  0.6847 -1.4576 -0.6083
  299MOL0     H39404   4.462   3.055   6.073  0.1294 -0.3170 -1.9088
  299MOL0     H39405   4.363   3.392   5.771  0.6373  0.6730 -0.3120
  299MOL0     H39406   4.262   3.417   5.914  0.9874  1.7171 -1.7914
  299MOL0     H39407   4.193   3.263   5.674 -0.2235  0.9226 -0.6160
  299MOL0     H39408   4.120   3.407   5.752 -0.4997 -0.2089  0.9167
  299MOL0     H39409   4.067   3.255   5.955 -1.4825 -5.1118  1.3846
  299MOL0     H39410   4.113   3.116   5.855 -2.1791 -1.2150  2.0754
  299MOL0     H39411   3.903   3.345   5.796 -1.4596 -0.0712  0.6465
  299MOL0     H39412   3.907   3.207   5.691 -0.4623  0.9685  0.2210
  299MOL0     H39413   3.839   3.226   5.992 -2.0841  1.7114 -0.1290
  299MOL0     H39414   3.817   3.080   5.895  3.5850 -0.6346  0.1556
  299MOL0     H39415   3.683   3.222   5.730  0.0224 -0.9070  0.3578
  299MOL0     H39416   3.669   3.347   5.862 -0.6900  1.2636 -4.0551
  299MOL0     H39417   3.560   3.055   5.876 -1.8271 -0.6572  0.6362
  299MOL0     H39418   3.577   3.161   6.015  2.6305  2.6278 -0.2986
  299MOL0     H39419   3.448   3.269   5.773 -0.5624  1.4591  0.8564
  299MOL0     H39420   3.425   3.323   5.942  3.5085  0.1687  1.8444
  299MOL0     H39421   3.229   3.202   6.092  0.3937 -2.0033  0.8445
  299MOL0     H39422   3.005   3.093   6.133  4.0566  1.1249 -0.1576
  299MOL0     H39423   2.992   2.935   6.059  0.0814 -0.2865  1.7529
  299MOL0     H39424   2.899   3.200   5.937 -0.3591  0.0789 -0.9139
  299MOL0     H39425   2.799   3.126   6.050  0.4491  0.0285 -0.7962
  299MOL0     H39426   2.883   3.003   5.780  0.1417 -0.8680  1.1522
  299MOL0     H39427   2.797   2.912   5.902 -1.5006  0.4456 -1.9907
  299MOL0     H39428   2.649   3.001   5.723  2.7086 -0.3770 -1.0828
  299MOL0     H39429   2.701   3.163   5.778 -0.1371  1.3516  2.8404
  299MOL0     H39430   2.452   3.165   5.682 -0.0542  2.6431  0.8532
  299MOL0     H39431   2.223   3.258   5.676 -1.5805  1.9299  1.0083
  299MOL0     H39432   1.758   3.032   5.922 -1.1871 -0.5264  0.0837
  299MOL0     H39433   1.509   3.084   5.905  0.6368 -0.1568 -0.4354
  299MOL0     H39434   1.393   3.484   6.084 -1.0847 -0.7547 -1.1086
  299MOL0     H39435   1.418   3.344   6.189  3.5976 -0.8555 -1.2179
  299MOL0     H39436   1.172   3.445   6.175  1.5524  0.5714  1.3225
  299MOL0     H39437   1.198   3.264   6.144 -0.3124 -1.2119 -2.6195
  299MOL0     H39438   1.184   3.304   5.909  3.3091 -0.0324  0.7454
  299MOL0     H39439   1.138   3.479   5.934 -2.5887 -1.7356 -2.3667
  299MOL0     H39440   1.022   3.213   5.985 -0.2552  0.0368 -1.4790
  299MOL0     H39441   0.969   3.323   6.096 -1.7272 -2.6273 -1.2972
  299MOL0     H39442   0.874   3.468   5.937  2.7082  1.7494 -1.7817
  299MOL0     H39443   0.811   3.304   5.913 -0.3524  0.3497  0.0537
  299MOL0     H39444   0.968   3.282   5.736  0.3246 -0.4866  2.2730
  299MOL0     H39445   1.032   3.440   5.754 -0.0329 -0.8374  3.0824
  299MOL0     H39446   0.749   3.389   5.665 -0.8569  2.6290  2.2974
  299MOL0     H39447   0.833   3.549   5.668  0.2089  0.9646  0.5105
  299MOL0     H39448   0.839   3.520   5.450  0.7936 -0.4063 -2.3265
  299MOL0     H39449   0.851   3.339   5.454 -0.1357  0.6783 -2.3180
  299MOL0     H39450   1.604   3.483   6.024 -0.8443 -0.4681  1.3492
  299MOL0     H39451   1.854   3.430   6.007  1.4364 -2.3661 -0.1437
  299MOL0     H39452   2.170   3.165   6.083 -1.1229 -1.3967 -0.5206
  299MOL0     H39453   2.418   3.087   6.092  1.5845 -1.9811 -1.6535
  299MOL0     H39454   4.493   3.468   5.942 -1.1277 -0.5879 -0.6790
  299MOL0     H39455   4.700   3.484   6.084 -1.4890  0.5757 -1.6815
  299MOL0     H39456   5.051   3.276   6.249  1.3421 -1.2484  0.6188
  299MOL0     H39457   5.282   3.254   6.352  1.3816  0.9629  1.5765
  299MOL0     H39458   5.335   3.409   6.769  0.1275 -0.6551  0.4632
  299MOL0     H39459   5.320   3.539   6.660  0.6177  1.0753  0.5925
  299MOL0     H39460   5.541   3.505   6.772 -1.8538  2.7722  0.1606
  299MOL0     H39461   5.568   3.377   6.644  0.7054 -1.4765  4.2302
  299MOL0     H39462   5.511   3.680   6.605 -2.3589 -0.9440  3.0975
  299MOL0     H39463   5.516   3.550   6.464 -2.4739 -1.1996  1.6783
  299MOL0     H39464   5.724   3.499   6.528 -2.6836 -0.1268  0.2811
  299MOL0     H39465   5.734   3.671   6.478  1.9402 -1.5748 -0.4038
  299MOL0     H39466   5.830   3.726   6.885 -2.5383  3.0463  0.5947
  299MOL0     H39467   5.119   3.483   6.683  0.7424  1.9373 -0.4252
  299MOL0     H39468   4.901   3.481   6.600 -0.2998  0.3538  0.7817
  300MOL0     O39469   5.208   8.294   0.561  0.1835 -0.4527 -0.0075
  300MOL0     C39470   5.314   8.308   0.505  0.6355  0.6485  1.1830
  300MOL0     O39471   5.342   8.400   0.398  0.3009 -0.2746 -0.2521
  300MOL0     C39472   5.253   8.481   0.327  0.4606  0.8403 -0.1358
  300MOL0     C39473   5.110   8.488   0.345  0.4150 -0.2336 -0.6299
  300MOL0     C39474   5.032   8.582   0.272 -0.0762  0.2784  0.5316
  300MOL0     C39475   5.091   8.679   0.194  0.5084  0.1384  0.5693
  300MOL0     O39476   5.025   8.770   0.111 -0.3303 -0.7396 -0.4669
  300MOL0     C39477   4.882   8.796   0.122  0.3224 -0.3975 -0.7163
  300MOL0     C39478   4.816   8.769  -0.008  0.3843 -0.6858  0.0738
  300MOL0     C39479   4.810   8.617  -0.011  0.0798  0.4052 -0.3865
  300MOL0     C39480   4.735   8.562  -0.134 -0.2054  0.1941 -1.3013
  300MOL0     C39481   4.780   8.599  -0.275  0.0748  0.1175 -1.2638
  300MOL0     C39482   4.680   8.537  -0.374 -0.2198  0.1863  0.2822
  300MOL0     C39483   4.719   8.579  -0.520  0.1804 -0.1970  0.3760
  300MOL0     C39484   4.640   8.511  -0.636  0.1213 -0.6240 -0.2243
  300MOL0     N39485   4.647   8.368  -0.622  0.9246  0.1310 -0.0717
  300MOL0     C39486   4.556   8.282  -0.566  0.4930 -0.1125 -0.5187
  300MOL0     C39487   4.605   8.157  -0.588 -0.7988 -0.2754  1.2250
  300MOL0     C39488   4.555   8.026  -0.553 -0.5786  0.0761  0.0998
  300MOL0     C39489   4.474   7.969  -0.666 -0.0629  0.9900  0.0135
  300MOL0     C39490   4.329   8.015  -0.692 -0.1206 -0.6731 -0.1325
  300MOL0     C39491   4.253   7.932  -0.797 -0.1170  0.4984 -0.4654
  300MOL0     O39492   4.106   7.962  -0.791 -0.2129  0.3941 -0.2705
  300MOL0     C39493   4.006   7.893  -0.846 -0.4899  1.2691  0.2644
  300MOL0     C39494   4.021   7.789  -0.934 -0.5816 -0.4584 -0.1169
  300MOL0     C39495   3.910   7.702  -0.968  0.2183  0.3971  0.2463
  300MOL0     C39496   3.784   7.740  -0.935  0.1338 -0.5651  0.6331
  300MOL0     C39497   3.668   7.658  -0.969  0.4829  1.1974  0.1390
  300MOL0     O39498   3.550   7.698  -0.920  0.1018  0.1987 -0.1442
  300MOL0     C39499   3.438   7.674  -0.993 -0.7583 -0.2418 -0.8059
  300MOL0     C39500   3.350   7.573  -0.953  0.4322 -0.0930 -0.3211
  300MOL0     C39501   3.222   7.565  -1.010  0.5526 -0.0744  0.5175
  300MOL0     C39502   3.186   7.644  -1.121  0.1319  0.1820  0.0524
  300MOL0     O39503   3.083   7.631  -1.202  0.0851  0.4022 -0.1823
  300MOL0     C39504   2.994   7.524  -1.181 -0.8408  0.4022 -0.3046
  300MOL0     C39505   2.897   7.525  -1.296  1.0130  0.6822 -0.2953
  300MOL0     C39506   2.784   7.418  -1.264 -0.4676 -0.3185  0.4611
  300MOL0     C39507   2.671   7.423  -1.354 -0.7924  0.5009  0.4111
  300MOL0     C39508   2.581   7.307  -1.326  0.0613 -0.3890 -0.6761
  300MOL0     C39509   2.458   7.287  -1.417  0.5476 -0.1311 -0.3814
  300MOL0     C39510   2.321   7.309  -1.347  0.2455 -0.0117  0.4361
  300MOL0     C39511   2.324   7.447  -1.284  0.6145 -0.3585 -0.8652
  300MOL0    Cl39512   2.338   7.557  -1.424 -0.4115  0.3374 -0.3851
  300MOL0     C39513   3.280   7.739  -1.169  0.5370  0.4725  0.0857
  300MOL0     C39514   3.398   7.755  -1.105 -1.0530 -0.1002 -0.2369
  300MOL0     O39515   3.681   7.562  -1.040 -0.4760 -0.0294 -0.1566
  300MOL0     C39516   3.765   7.855  -0.856  0.2270  0.1231 -0.2575
  300MOL0     C39517   3.878   7.925  -0.811  0.0719 -0.9764  0.6154
  300MOL0     N39518   4.738   8.175  -0.638  0.1674 -0.3325  0.0452
  300MOL0     N39519   4.755   8.297  -0.667 -0.4836 -0.1670 -0.4615
  300MOL0     C39520   5.226   8.672   0.175 -0.4136  0.6299 -0.4191
  300MOL0     C39521   5.308   8.576   0.240  0.3584  0.3468  0.5630
  300MOL0     C39522   5.428   8.225   0.545  0.0269 -0.4555 -0.3059
  300MOL0     C39523   5.551   8.230   0.475  0.8434  0.7334 -0.7665
  300MOL0     C39524   5.662   8.164   0.521  0.4855  0.9110 -0.3718
  300MOL0     C39525   5.647   8.075   0.631 -0.8147 -0.1055  0.0842
  300MOL0     O39526   5.747   7.990   0.679 -0.7207  0.5490  0.5989
  300MOL0     C39527   5.878   8.019   0.648  0.3305 -0.1038 -0.4667
  300MOL0     C39528   5.976   7.950   0.738 -0.2173  1.1009  0.2955
  300MOL0     C39529   6.115   7.990   0.682  0.5870 -0.0689 -0.0491
  300MOL0     C39530   6.233   7.952   0.772  0.2134 -0.5761  0.2572
  300MOL0     C39531   6.224   8.062   0.874 -0.3845 -0.8127 -0.7726
  300MOL0     C39532   6.207   8.141   0.962  0.2964 -0.9042  0.1101
  300MOL0     C39533   5.530   8.062   0.696 -0.0516 -0.1815 -0.5463
  300MOL0     C39534   5.422   8.138   0.654  0.3293  0.0700  0.0573
  300MOL0     H39535   5.066   8.415   0.413  1.7819 -1.6021 -1.1428
  300MOL0     H39536   4.925   8.572   0.285 -0.2310 -1.9679 -1.6968
  300MOL0     H39537   4.877   8.903   0.148 -2.5743 -1.4540  4.4164
  300MOL0     H39538   4.835   8.743   0.205 -1.2670  1.2244 -0.5246
  300MOL0     H39539   4.881   8.805  -0.089  1.0341 -0.2949  0.7601
  300MOL0     H39540   4.719   8.819  -0.020 -0.3850 -2.5311 -2.3356
  300MOL0     H39541   4.752   8.587   0.077  0.8962  0.1189  0.0668
  300MOL0     H39542   4.913   8.579  -0.008  1.0761  2.7174 -1.7857
  300MOL0     H39543   4.741   8.454  -0.125  0.9383  0.4308  1.9309
  300MOL0     H39544   4.628   8.578  -0.123 -0.6745 -3.3333  0.2724
  300MOL0     H39545   4.884   8.567  -0.289 -0.2212 -1.0324 -1.0049
  300MOL0     H39546   4.773   8.708  -0.279 -2.3550  0.0427 -0.2266
  300MOL0     H39547   4.581   8.580  -0.357 -0.4683  0.2187 -1.1357
  300MOL0     H39548   4.662   8.430  -0.366  1.9001 -0.1841  0.5245
  300MOL0     H39549   4.720   8.687  -0.537  1.4097 -0.2520 -0.0564
  300MOL0     H39550   4.826   8.556  -0.529 -0.1113 -1.4607 -0.0241
  300MOL0     H39551   4.674   8.559  -0.728 -3.5596  2.4562 -0.2523
  300MOL0     H39552   4.536   8.545  -0.640 -0.0034 -1.1023 -2.8820
  300MOL0     H39553   4.464   8.313  -0.519  0.0960  0.6898 -1.7842
  300MOL0     H39554   4.484   8.045  -0.473  0.4539  1.8712  0.6421
  300MOL0     H39555   4.633   7.952  -0.532 -1.4113 -0.4612  1.3834
  300MOL0     H39556   4.457   7.864  -0.639 -2.7448  1.9889  2.8907
  300MOL0     H39557   4.531   7.973  -0.758 -0.7739  3.4821 -0.3962
  300MOL0     H39558   4.277   8.019  -0.596 -2.0753 -3.5371 -0.9324
  300MOL0     H39559   4.332   8.118  -0.729 -0.2313 -0.7624 -0.3877
  300MOL0     H39560   4.261   7.827  -0.765 -0.9244  0.8723  1.0757
  300MOL0     H39561   4.284   7.953  -0.900  1.5472 -0.8491 -0.2928
  300MOL0     H39562   4.119   7.751  -0.964 -1.5538 -2.5364 -0.8914
  300MOL0     H39563   3.928   7.611  -1.024  1.2724  1.5054 -1.3122
  300MOL0     H39564   3.360   7.512  -0.863 -2.8054 -0.1371  0.1110
  300MOL0     H39565   3.142   7.499  -0.979  0.5303 -1.7130 -2.5360
  300MOL0     H39566   2.942   7.540  -1.086 -2.1738 -2.0849 -0.5165
  300MOL0     H39567   3.043   7.426  -1.189 -3.5603 -1.0370 -0.5566
  300MOL0     H39568   2.942   7.488  -1.389 -0.6094 -2.1453 -0.0579
  300MOL0     H39569   2.865   7.629  -1.305  2.4200  1.4111  2.2503
  300MOL0     H39570   2.736   7.433  -1.166  0.4242  0.0615  0.8450
  300MOL0     H39571   2.825   7.316  -1.264 -3.9189 -1.9723 -2.7054
  300MOL0     H39572   2.626   7.523  -1.357 -0.4675  0.6938 -3.6332
  300MOL0     H39573   2.708   7.402  -1.455 -0.3334  1.5181  0.3526
  300MOL0     H39574   2.546   7.298  -1.223 -2.6750 -1.8956 -1.6457
  300MOL0     H39575   2.642   7.218  -1.346 -0.6936 -0.9636 -0.4594
  300MOL0     H39576   2.465   7.183  -1.449 -0.3264 -0.2852 -0.0820
  300MOL0     H39577   2.467   7.349  -1.508  1.4846  0.7667  0.2904
  300MOL0     H39578   2.244   7.302  -1.424  1.2455  1.1142 -0.7111
  300MOL0     H39579   2.312   7.234  -1.268  1.9532 -2.5909 -1.6723
  300MOL0     H39580   2.398   7.466  -1.205 -1.0738  0.9368  0.4957
  300MOL0     H39581   2.227   7.468  -1.238  0.7041 -3.2807  0.9650
  300MOL0     H39582   3.262   7.807  -1.251  0.2867  1.1160  0.6612
  300MOL0     H39583   3.466   7.833  -1.137  0.3897 -1.1013  0.3093
  300MOL0     H39584   3.664   7.883  -0.828  0.1045 -0.3311 -0.2381
  300MOL0     H39585   3.868   8.014  -0.750  0.2090  1.7519 -3.0418
  300MOL0     H39586   5.268   8.734   0.096  2.4724 -1.7940 -0.9388
  300MOL0     H39587   5.414   8.584   0.214  0.1088  3.2830  0.0552
  300MOL0     H39588   5.560   8.296   0.389  2.0807 -1.6846 -2.6091
  300MOL0     H39589   5.760   8.174   0.475  0.8336 -0.3882  0.0331
  300MOL0     H39590   5.886   8.127   0.663 -3.5251  0.0309  2.1503
  300MOL0     H39591   5.893   7.978   0.548 -0.6433 -2.2563  0.1991
  300MOL0     H39592   5.953   7.988   0.838  1.5407  0.1091  1.1237
  300MOL0     H39593   5.972   7.841   0.733  0.0161  1.1579 -2.4532
  300MOL0     H39594   6.122   8.094   0.649  0.4820  1.0272  3.0403
  300MOL0     H39595   6.133   7.933   0.591  0.0369  1.1463 -0.9291
  300MOL0     H39596   6.228   7.849   0.807  0.4639 -0.5181  0.4653
  300MOL0     H39597   6.332   7.945   0.725 -1.1578 -0.4279 -2.8929
  300MOL0     H39598   6.216   8.209   1.044 -1.6183 -0.5887  0.1199
  300MOL0     H39599   5.528   7.983   0.771  4.1016 -0.8159 -0.9176
  300MOL0     H39600   5.330   8.123   0.709  0.3166  3.8705  1.2947
  301MOL0     O39601   0.439   9.129   4.950 -0.8389  0.8987  0.3928
  301MOL0     C39602   0.433   9.250   4.961 -1.6291 -0.5031 -0.1149
  301MOL0     O39603   0.317   9.319   4.956  0.2986  0.3765 -0.2020
  301MOL0     C39604   0.203   9.251   4.959 -0.3717 -0.0546  0.0901
  301MOL0     C39605   0.119   9.256   4.846 -0.6023  0.7051  0.0488
  301MOL0     C39606  -0.015   9.187   4.851 -0.5064  0.2946 -0.3117
  301MOL0     C39607  -0.063   9.132   4.972 -0.4758 -0.3091 -0.1331
  301MOL0     O39608  -0.173   9.067   5.000  0.0037 -0.3095  0.8164
  301MOL0     C39609  -0.263   9.007   4.903  0.2265  0.7069 -0.6949
  301MOL0     C39610  -0.403   9.065   4.927  1.2586 -0.4578 -0.5449
  301MOL0     C39611  -0.504   9.015   4.828  0.2697 -0.6942 -0.1259
  301MOL0     C39612  -0.652   9.034   4.879  0.8027 -0.3088 -0.6438
  301MOL0     C39613  -0.762   8.968   4.792  0.3904  0.0901  0.2078
  301MOL0     C39614  -0.897   8.984   4.866 -0.0607 -0.4155 -0.8597
  301MOL0     C39615  -1.010   8.916   4.787  0.1131  0.2431 -0.9185
  301MOL0     C39616  -1.130   8.885   4.879 -0.3085  0.2706 -0.0299
  301MOL0     N39617  -1.260   8.858   4.805 -0.8528 -0.3030  0.0537
  301MOL0     C39618  -1.304   8.930   4.696  0.3154  0.4599  0.0579
  301MOL0     C39619  -1.408   8.862   4.642 -0.4619  0.3652  0.0319
  301MOL0     C39620  -1.502   8.903   4.538  0.7197  0.0903 -0.2718
  301MOL0     C39621  -1.647   8.938   4.603 -0.1920  0.1808 -0.2392
  301MOL0     C39622  -1.646   9.041   4.722  0.3915 -0.1025  0.4251
  301MOL0     C39623  -1.766   9.069   4.802 -0.2494 -0.3769 -1.1485
  301MOL0     O39624  -1.887   9.069   4.712  0.2757 -0.4320 -0.0906
  301MOL0     C39625  -2.006   9.089   4.776  0.2205 -0.5522 -0.1134
  301MOL0     C39626  -2.041   9.126   4.915 -0.5456  0.0471  0.1948
  301MOL0     C39627  -2.163   9.135   4.971 -0.0889  0.7018 -0.2715
  301MOL0     C39628  -2.270   9.099   4.894  0.2773  0.2040  0.4897
  301MOL0     C39629  -2.413   9.109   4.945 -0.3866 -0.2392 -0.0871
  301MOL0     O39630  -2.434   9.088   5.081 -0.8911  0.3925  0.2286
  301MOL0     C39631  -2.556   9.126   5.136 -1.4325 -0.0375  0.1329
  301MOL0     C39632  -2.662   9.043   5.111  0.2496 -0.1221 -0.2102
  301MOL0     C39633  -2.793   9.076   5.156  0.7143 -0.1494 -0.2109
  301MOL0     C39634  -2.811   9.196   5.238 -1.0597  0.5580  0.4632
  301MOL0     O39635  -2.929   9.242   5.278  0.1511 -0.0924 -0.6145
  301MOL0     C39636  -3.019   9.284   5.169 -0.4808  0.1553 -0.6665
  301MOL0     C39637  -3.066   9.428   5.185 -0.3602  0.4210  0.4662
  301MOL0     C39638  -3.091   9.493   5.046 -0.1956 -0.3758 -0.2912
  301MOL0     C39639  -3.156   9.635   5.049  0.3025  0.1595 -0.0706
  301MOL0     C39640  -3.190   9.683   4.906  0.3267  0.0823 -0.1744
  301MOL0     C39641  -3.275   9.811   4.875 -0.3520  0.6371 -0.3411
  301MOL0     C39642  -3.338   9.807   4.734  0.0606 -0.5011 -0.2367
  301MOL0     C39643  -3.415   9.940   4.722 -0.8011  0.4085  0.6184
  301MOL0    Cl39644  -3.548   9.945   4.847  0.3558  0.2132 -0.3390
  301MOL0     C39645  -2.695   9.266   5.276  0.7000 -0.2836  0.3417
  301MOL0     C39646  -2.569   9.230   5.226  0.0091  0.3433 -0.1010
  301MOL0     O39647  -2.496   9.132   4.861 -0.2870 -0.7602 -0.3312
  301MOL0     C39648  -2.251   9.056   4.756  0.6149 -0.6697 -0.0940
  301MOL0     C39649  -2.121   9.052   4.707 -0.3611  0.4988 -0.3159
  301MOL0     N39650  -1.429   8.748   4.717 -0.2667  0.6665 -0.4123
  301MOL0     N39651  -1.329   8.739   4.801 -0.6406  0.4911  0.6354
  301MOL0     C39652   0.026   9.132   5.080  0.0609  0.4948 -0.0970
  301MOL0     C39653   0.153   9.194   5.078  0.1695 -0.0655 -0.5316
  301MOL0     C39654   0.558   9.341   4.926  0.8912  0.5267  0.8028
  301MOL0     C39655   0.557   9.488   4.922 -0.3880 -0.8839  0.1070
  301MOL0     C39656   0.667   9.562   4.889  0.3034  0.4645 -0.5540
  301MOL0     C39657   0.791   9.495   4.860 -0.3005 -0.6440  0.2765
  301MOL0     O39658   0.905   9.575   4.858 -0.1352 -0.6833  0.6982
  301MOL0     C39659   0.920   9.657   4.731 -0.7257 -0.0855  0.8614
  301MOL0     C39660   0.977   9.566   4.616  0.2749 -0.5516 -0.3278
  301MOL0     C39661   1.097   9.476   4.661  1.0104 -0.1335  0.9548
  301MOL0     C39662   1.156   9.390   4.546 -0.0807 -0.2634  0.3303
  301MOL0     C39663   1.062   9.293   4.486  0.4212 -0.8991 -0.9429
  301MOL0     C39664   1.016   9.203   4.423  0.6376 -0.0194  0.4304
  301MOL0     C39665   0.796   9.357   4.866 -0.0014 -0.2084 -0.0134
  301MOL0     C39666   0.676   9.282   4.897 -0.6212  0.2889 -0.8156
  301MOL0     H39667   0.152   9.301   4.753 -1.3075 -0.3193 -0.6959
  301MOL0     H39668  -0.080   9.187   4.764  0.8885 -0.5833 -1.4053
  301MOL0     H39669  -0.270   8.900   4.927 -0.5635  1.4158  2.7279
  301MOL0     H39670  -0.239   9.040   4.801 -1.2537  3.7842 -0.1515
  301MOL0     H39671  -0.389   9.172   4.910 -2.7796  0.7153  2.1988
  301MOL0     H39672  -0.437   9.054   5.030 -0.5972  0.4497 -1.0211
  301MOL0     H39673  -0.486   8.908   4.815  1.0949 -0.5377 -0.3244
  301MOL0     H39674  -0.498   9.061   4.729 -1.8971 -1.8092 -0.8527
  301MOL0     H39675  -0.646   8.988   4.978  0.4939  1.2318  0.1248
  301MOL0     H39676  -0.665   9.141   4.898 -0.8402 -0.9468  2.3276
  301MOL0     H39677  -0.735   8.862   4.788  0.6600  0.1851 -2.0422
  301MOL0     H39678  -0.766   9.017   4.694 -2.0056  0.9759  0.6791
  301MOL0     H39679  -0.920   9.090   4.880  1.3886  0.1679 -2.5018
  301MOL0     H39680  -0.893   8.941   4.966  1.5711  1.3327 -0.1014
  301MOL0     H39681  -1.048   8.987   4.713 -0.1222  0.4240 -0.6252
  301MOL0     H39682  -0.970   8.827   4.737 -0.2782 -1.4371  1.5507
  301MOL0     H39683  -1.144   8.970   4.946 -0.4626  0.9558 -0.9101
  301MOL0     H39684  -1.090   8.797   4.930 -2.2471 -0.5485  0.1454
  301MOL0     H39685  -1.270   9.022   4.650 -1.5752  1.4480  0.5378
  301MOL0     H39686  -1.519   8.822   4.466 -0.8823 -1.4363  1.7162
  301MOL0     H39687  -1.464   8.996   4.493 -1.8296  0.6225 -1.5497
  301MOL0     H39688  -1.687   8.846   4.646  1.3976 -0.6766 -0.5075
  301MOL0     H39689  -1.706   8.968   4.516  2.1087 -1.1913 -2.4037
  301MOL0     H39690  -1.553   9.024   4.778  2.1734 -1.1448 -2.6384
  301MOL0     H39691  -1.626   9.135   4.669  1.6620  0.0503  1.1402
  301MOL0     H39692  -1.755   9.157   4.865  0.7442 -0.3486 -1.3454
  301MOL0     H39693  -1.778   8.994   4.881 -1.6073  1.7048  0.7585
  301MOL0     H39694  -1.958   9.149   4.982 -1.8420 -1.6065  2.5475
  301MOL0     H39695  -2.177   9.167   5.074  2.3929 -0.4155  0.4916
  301MOL0     H39696  -2.644   8.967   5.036  2.1356  1.3903 -1.4065
  301MOL0     H39697  -2.881   9.014   5.145 -0.1962  0.7610  1.4252
  301MOL0     H39698  -3.111   9.227   5.154 -0.5274  0.6396 -2.5181
  301MOL0     H39699  -2.968   9.275   5.073  1.9135 -0.7438  0.5940
  301MOL0     H39700  -2.993   9.492   5.234 -1.5995  2.9579 -0.8191
  301MOL0     H39701  -3.162   9.432   5.238 -0.2021  0.7822  0.7306
  301MOL0     H39702  -3.150   9.426   4.981 -0.7632 -0.3007  0.1386
  301MOL0     H39703  -2.990   9.506   5.006  0.6204 -2.6285  0.9005
  301MOL0     H39704  -3.246   9.617   5.109 -0.4107 -3.3064 -1.9141
  301MOL0     H39705  -3.093   9.709   5.098 -2.1983  2.1493  0.3624
  301MOL0     H39706  -3.250   9.600   4.866  0.2313 -2.2482  4.1522
  301MOL0     H39707  -3.107   9.686   4.836 -0.6166  0.7135 -1.2991
  301MOL0     H39708  -3.217   9.902   4.891 -0.9269  1.2284 -1.5206
  301MOL0     H39709  -3.351   9.810   4.953  2.1204 -1.5458  2.2996
  301MOL0     H39710  -3.263   9.803   4.655  0.6923  2.5055  0.0660
  301MOL0     H39711  -3.414   9.728   4.733  0.7654 -1.2490  1.6573
  301MOL0     H39712  -3.446   9.941   4.617  2.2317 -6.4914 -0.8317
  301MOL0     H39713  -3.341  10.019   4.740 -1.3104  0.9667  0.3221
  301MOL0     H39714  -2.697   9.345   5.350 -2.0370  1.0163 -0.9883
  301MOL0     H39715  -2.476   9.269   5.265 -0.3443  0.5562  0.5462
  301MOL0     H39716  -2.326   9.020   4.687  2.0796  0.3963 -2.3474
  301MOL0     H39717  -2.103   9.011   4.608 -0.2659 -0.5661  0.1370
  301MOL0     H39718   0.000   9.084   5.174 -0.0191  0.9535  0.1200
  301MOL0     H39719   0.201   9.202   5.175  0.8136 -2.3371 -0.6147
  301MOL0     H39720   0.464   9.541   4.941 -1.3407 -3.4357  3.5352
  301MOL0     H39721   0.673   9.669   4.903  1.9327  0.1289  2.0034
  301MOL0     H39722   0.978   9.748   4.745 -2.7369  1.4877 -0.4100
  301MOL0     H39723   0.820   9.691   4.700 -0.7750 -1.2057 -0.3355
  301MOL0     H39724   0.905   9.498   4.569  0.6272 -0.9041 -0.3604
  301MOL0     H39725   1.019   9.625   4.535  0.9857  1.8941  1.6959
  301MOL0     H39726   1.050   9.413   4.738 -3.2861  1.0181 -0.4247
  301MOL0     H39727   1.179   9.543   4.689  0.3870  1.2167 -0.3131
  301MOL0     H39728   1.192   9.453   4.465 -0.0579 -0.9415 -0.2028
  301MOL0     H39729   1.241   9.327   4.574 -1.1793 -2.7403 -1.5313
  301MOL0     H39730   0.990   9.108   4.380 -0.5896  0.6874 -0.4557
  301MOL0     H39731   0.881   9.295   4.841 -0.2929  0.1369 -1.9755
  301MOL0     H39732   0.672   9.175   4.913 -1.8874  0.5594  0.8968
  302MOL0     O39733   0.596   6.696   9.324 -0.2016  0.3208  0.4601
  302MOL0     C39734   0.642   6.579   9.354  1.1747  0.2207 -0.1325
  302MOL0     O39735   0.563   6.468   9.393 -0.4053  0.4126 -0.1246
  302MOL0     C39736   0.435   6.460   9.364  0.3483 -0.2941  0.3800
  302MOL0     C39737   0.334   6.552   9.425 -0.9105 -0.7630 -0.1856
  302MOL0     C39738   0.202   6.539   9.385  0.6228  0.0202 -0.2366
  302MOL0     C39739   0.162   6.440   9.300 -0.3077  0.1541  0.4143
  302MOL0     O39740   0.027   6.435   9.264 -0.2609  0.2602  0.4701
  302MOL0     C39741  -0.025   6.566   9.215 -0.2088  0.2635  0.4690
  302MOL0     C39742  -0.162   6.555   9.156  0.3195 -0.2279  0.5773
  302MOL0     C39743  -0.273   6.573   9.253  0.2140 -0.8193  0.5676
  302MOL0     C39744  -0.414   6.547   9.202  0.8469  0.7180 -0.9509
  302MOL0     C39745  -0.467   6.614   9.075  0.2784 -0.2850  0.2025
  302MOL0     C39746  -0.464   6.771   9.095  0.6126  0.1629 -1.2438
  302MOL0     C39747  -0.574   6.840   9.020 -0.0712 -0.6686  0.1829
  302MOL0     C39748  -0.596   6.809   8.867 -0.7799 -0.3958  0.4376
  302MOL0     N39749  -0.706   6.890   8.814  0.2923 -0.1603  0.1385
  302MOL0     C39750  -0.836   6.843   8.807 -0.6471  0.0607 -0.5717
  302MOL0     C39751  -0.900   6.931   8.727 -0.9416 -0.2038  0.7849
  302MOL0     C39752  -1.040   6.924   8.690 -0.1068  1.2389  0.1127
  302MOL0     C39753  -1.079   7.037   8.593  0.0782  0.3340  0.0591
  302MOL0     C39754  -1.202   7.004   8.505 -0.3193  0.1538  0.4683
  302MOL0     C39755  -1.325   6.955   8.584 -0.0865  0.0845 -0.4285
  302MOL0     O39756  -1.384   7.063   8.657  0.0925  0.0496  0.5268
  302MOL0     C39757  -1.506   7.028   8.714  0.1153 -0.4020 -0.0436
  302MOL0     C39758  -1.570   7.142   8.781  0.5923  0.1143  0.6607
  302MOL0     C39759  -1.699   7.133   8.832  0.8608  0.2435  0.4038
  302MOL0     C39760  -1.769   7.018   8.828  0.5192 -0.7472 -0.3809
  302MOL0     C39761  -1.909   7.010   8.879 -0.3811 -0.2774  0.9768
  302MOL0     O39762  -1.980   7.116   8.860 -0.3384  0.2060 -0.1847
  302MOL0     C39763  -2.116   7.112   8.872  0.0107 -0.5801  0.5306
  302MOL0     C39764  -2.177   7.091   9.002  0.4023 -0.0426  0.7076
  302MOL0     C39765  -2.319   7.072   9.014  0.3649 -0.3363 -0.3477
  302MOL0     C39766  -2.402   7.097   8.899 -0.0511  1.0611  0.1244
  302MOL0     O39767  -2.538   7.076   8.885  0.6194 -0.4776  0.4003
  302MOL0     C39768  -2.619   7.064   8.999 -0.3841 -0.1656 -0.0135
  302MOL0     C39769  -2.768   7.069   8.948 -0.2474  0.1193 -0.6049
  302MOL0     C39770  -2.866   7.103   9.063 -0.3438 -0.3745  0.3840
  302MOL0     C39771  -3.018   7.077   9.020 -1.2195 -0.0117 -0.1619
  302MOL0     C39772  -3.108   7.150   9.112 -1.3197  0.0405 -0.3303
  302MOL0     C39773  -3.256   7.157   9.066 -0.1254  0.5599 -0.3528
  302MOL0     C39774  -3.323   7.272   9.139  0.6151  0.7332 -0.3434
  302MOL0     C39775  -3.469   7.269   9.096  0.4870 -0.1304  0.7558
  302MOL0    Cl39776  -3.574   7.368   9.205  0.5763 -0.5385  0.0252
  302MOL0     C39777  -2.340   7.136   8.786 -0.0918  0.4151  0.9889
  302MOL0     C39778  -2.203   7.143   8.768 -0.4108 -0.0428 -0.2676
  302MOL0     O39779  -1.939   6.894   8.913 -0.5157  0.1144  0.2033
  302MOL0     C39780  -1.706   6.908   8.770  0.1323  0.7089 -1.0182
  302MOL0     C39781  -1.579   6.906   8.715 -0.1655 -0.0587  0.0166
  302MOL0     N39782  -0.803   7.022   8.679  0.1109  0.9738  0.2398
  302MOL0     N39783  -0.685   7.001   8.734  0.6930  0.1983 -0.5087
  302MOL0     C39784   0.255   6.344   9.261  0.5987  0.7113  0.3442
  302MOL0     C39785   0.384   6.354   9.295  0.3185  0.0832  0.0185
  302MOL0     C39786   0.787   6.560   9.350 -0.4006  0.6423  0.6353
  302MOL0     C39787   0.840   6.436   9.387 -0.2886  0.0501  0.2856
  302MOL0     C39788   0.980   6.417   9.385 -0.5321 -0.2466 -0.4106
  302MOL0     C39789   1.069   6.518   9.348 -0.1658  0.1857 -0.4545
  302MOL0     O39790   1.204   6.497   9.362  0.3858  0.4215  0.1182
  302MOL0     C39791   1.292   6.601   9.364 -0.2005  0.4381  0.5657
  302MOL0     C39792   1.435   6.547   9.393  0.5712  0.8677  0.5898
  302MOL0     C39793   1.533   6.666   9.383  0.0048 -0.7052  0.2864
  302MOL0     C39794   1.678   6.616   9.402 -0.3179  0.5140  0.6980
  302MOL0     C39795   1.696   6.553   9.529 -0.1403 -0.4938  0.4872
  302MOL0     C39796   1.709   6.509   9.637 -0.0566 -0.0600  0.2040
  302MOL0     C39797   1.016   6.640   9.312 -0.4373  1.0060  0.1359
  302MOL0     C39798   0.879   6.657   9.298 -0.3890  0.2973 -0.3976
  302MOL0     H39799   0.348   6.641   9.485 -1.4506  1.1276 -2.6867
  302MOL0     H39800   0.134   6.613   9.426  0.9988  1.7016 -2.4347
  302MOL0     H39801   0.034   6.603   9.131 -2.3654  2.4369 -0.2083
  302MOL0     H39802  -0.027   6.637   9.299  1.3296  1.5248 -0.4989
  302MOL0     H39803  -0.181   6.452   9.124 -1.3555 -0.1356  1.1551
  302MOL0     H39804  -0.172   6.633   9.080  2.0728  2.0533  2.5483
  302MOL0     H39805  -0.267   6.672   9.300 -1.4189  0.8518 -2.4630
  302MOL0     H39806  -0.260   6.500   9.334  2.5527 -0.8017  0.2766
  302MOL0     H39807  -0.425   6.440   9.181 -2.7405  0.6560  0.5204
  302MOL0     H39808  -0.487   6.561   9.283  2.6768 -1.5289  1.2567
  302MOL0     H39809  -0.567   6.578   9.051  0.8699 -1.0723 -1.1847
  302MOL0     H39810  -0.407   6.576   8.992 -0.1074 -0.8490  0.1803
  302MOL0     H39811  -0.364   6.812   9.080  1.9452 -2.6982 -0.7651
  302MOL0     H39812  -0.484   6.792   9.200  2.0618 -0.7444 -0.7551
  302MOL0     H39813  -0.672   6.814   9.060 -0.3111 -2.7060 -1.5317
  302MOL0     H39814  -0.560   6.948   9.034 -0.2079 -0.2792 -2.2906
  302MOL0     H39815  -0.613   6.704   8.841 -0.2214 -0.0780 -1.4031
  302MOL0     H39816  -0.509   6.843   8.810 -0.3957 -1.3406  0.4302
  302MOL0     H39817  -0.882   6.753   8.848  3.6016 -2.2381 -0.3247
  302MOL0     H39818  -1.107   6.926   8.776 -2.8205  3.3389 -1.8548
  302MOL0     H39819  -1.064   6.833   8.635  0.9527  1.7316 -1.2221
  302MOL0     H39820  -0.998   7.054   8.521 -0.6996  1.0000 -0.6818
  302MOL0     H39821  -1.098   7.126   8.653 -2.0769 -1.0301  1.5571
  302MOL0     H39822  -1.231   7.094   8.448 -2.0096  0.1464  1.2422
  302MOL0     H39823  -1.177   6.924   8.435  0.8081 -0.2759  1.3289
  302MOL0     H39824  -1.291   6.873   8.648 -0.9977  0.7449  0.9413
  302MOL0     H39825  -1.402   6.921   8.514 -1.9533  1.9239  0.6095
  302MOL0     H39826  -1.519   7.237   8.772 -3.9839  2.7437 -0.7644
  302MOL0     H39827  -1.744   7.223   8.874 -2.0078 -1.7059  1.8233
  302MOL0     H39828  -2.105   7.075   9.081  1.6229 -0.8521 -0.5299
  302MOL0     H39829  -2.364   7.039   9.107 -3.3187  3.6377 -0.4441
  302MOL0     H39830  -2.604   7.155   9.057  2.6904 -0.2122 -0.5932
  302MOL0     H39831  -2.601   6.978   9.064 -0.6596 -1.2092 -1.2678
  302MOL0     H39832  -2.796   6.973   8.904  1.1734 -1.6140  1.9925
  302MOL0     H39833  -2.776   7.150   8.875 -0.3739  1.2419  0.6176
  302MOL0     H39834  -2.848   7.211   9.071 -0.8817 -0.2805  0.3952
  302MOL0     H39835  -2.834   7.057   9.157  2.4135  0.2780 -0.1418
  302MOL0     H39836  -3.035   7.114   8.918 -0.5755  0.4646 -0.1026
  302MOL0     H39837  -3.032   6.969   9.025  1.6500 -0.4738 -0.2916
  302MOL0     H39838  -3.070   7.248   9.140  0.4673 -0.6832 -0.0884
  302MOL0     H39839  -3.104   7.086   9.201  2.4816 -1.0859 -1.1098
  302MOL0     H39840  -3.304   7.061   9.087 -4.2853  1.9013 -2.6802
  302MOL0     H39841  -3.258   7.169   8.957 -2.7546 -1.6314 -0.6387
  302MOL0     H39842  -3.313   7.265   9.248  1.0830 -3.2655 -0.4676
  302MOL0     H39843  -3.275   7.366   9.110 -0.3744  1.1696 -0.6028
  302MOL0     H39844  -3.508   7.168   9.112  0.8938 -0.7482 -1.8133
  302MOL0     H39845  -3.479   7.287   8.989  1.1773  0.2941  0.7573
  302MOL0     H39846  -2.399   7.155   8.697  0.0594  0.8310  0.9752
  302MOL0     H39847  -2.171   7.173   8.669  0.9163 -0.1507  0.1148
  302MOL0     H39848  -1.760   6.814   8.773  0.6488  0.4303  0.5874
  302MOL0     H39849  -1.529   6.816   8.683  3.4278  0.8291  2.5322
  302MOL0     H39850   0.219   6.259   9.204  0.5296 -0.7741  2.4665
  302MOL0     H39851   0.446   6.268   9.271 -0.9347 -1.2549  1.3525
  302MOL0     H39852   0.782   6.351   9.420  1.3947 -1.0405  0.5723
  302MOL0     H39853   1.017   6.321   9.420  1.5174  0.7481  0.3184
  302MOL0     H39854   1.261   6.669   9.444  2.9165  1.2160  1.2589
  302MOL0     H39855   1.284   6.652   9.267  0.8236 -0.6094 -0.0951
  302MOL0     H39856   1.424   6.502   9.493 -2.4027 -0.5744 -0.2593
  302MOL0     H39857   1.461   6.467   9.323 -1.4239  1.4430 -0.9262
  302MOL0     H39858   1.513   6.733   9.468  1.8509 -0.5133  0.6025
  302MOL0     H39859   1.513   6.723   9.292  3.1060 -1.7376 -1.1801
  302MOL0     H39860   1.705   6.561   9.312  1.1993 -0.9618  1.9888
  302MOL0     H39861   1.749   6.699   9.397  0.4455 -0.1927 -1.6724
  302MOL0     H39862   1.724   6.476   9.738  0.3390  2.2869  0.9727
  302MOL0     H39863   1.084   6.715   9.273  0.3253  0.1865 -0.1641
  302MOL0     H39864   0.844   6.756   9.269  0.8008  0.5781 -0.9310
  303MOL0     O39865   8.095   6.023   3.136 -0.4753  0.2502 -0.4141
  303MOL0     C39866   8.169   6.117   3.140  0.8248 -0.0611  0.6017
  303MOL0     O39867   8.132   6.242   3.100  0.5230 -0.3953 -0.1837
  303MOL0     C39868   7.995   6.279   3.088 -0.1785 -0.2529 -1.1149
  303MOL0     C39869   7.921   6.235   2.982  0.1637 -0.2819  0.5847
  303MOL0     C39870   7.794   6.288   2.960 -0.1257  0.3179  0.4046
  303MOL0     C39871   7.730   6.370   3.056  0.8122 -0.2106 -0.6053
  303MOL0     O39872   7.608   6.421   3.021 -0.6717 -0.0419  0.3455
  303MOL0     C39873   7.514   6.349   2.942 -0.6177 -0.0406 -0.4580
  303MOL0     C39874   7.380   6.411   2.945 -0.0048  0.2318  0.3317
  303MOL0     C39875   7.318   6.391   3.082 -0.1170 -0.2532  0.3603
  303MOL0     C39876   7.181   6.460   3.103  0.3187  0.1538  0.2141
  303MOL0     C39877   7.071   6.420   3.009  1.3200  0.3832  0.4835
  303MOL0     C39878   6.934   6.478   3.058 -0.2536 -0.9691  0.6661
  303MOL0     C39879   6.855   6.397   3.169 -0.1180 -0.2705  0.6953
  303MOL0     C39880   6.720   6.456   3.208  0.5749 -0.7881  0.0376
  303MOL0     N39881   6.617   6.431   3.110  0.2728 -0.2301  0.5885
  303MOL0     C39882   6.570   6.516   3.013 -0.1140  0.5151  0.3459
  303MOL0     C39883   6.466   6.441   2.951 -0.3963  0.6505 -0.1525
  303MOL0     C39884   6.380   6.499   2.837  0.6253 -0.6536  0.4082
  303MOL0     C39885   6.223   6.485   2.859 -0.1301 -0.3151 -0.6578
  303MOL0     C39886   6.184   6.577   2.984 -0.6610  0.4606  0.4437
  303MOL0     C39887   6.044   6.552   3.029  0.6857  0.7824  0.3166
  303MOL0     O39888   6.043   6.440   3.123 -0.2531  1.3112 -0.1381
  303MOL0     C39889   5.925   6.394   3.164 -0.2993  0.2424  0.0172
  303MOL0     C39890   5.798   6.434   3.125  0.7252  0.3762 -0.2887
  303MOL0     C39891   5.687   6.382   3.183 -0.3942 -0.9073  0.6337
  303MOL0     C39892   5.688   6.275   3.278 -0.2292  0.3432  0.1430
  303MOL0     C39893   5.567   6.224   3.355  0.1430  0.7704  0.6001
  303MOL0     O39894   5.455   6.298   3.355  0.1856 -0.5205  0.5866
  303MOL0     C39895   5.356   6.256   3.437  0.2093 -0.2215  0.1833
  303MOL0     C39896   5.347   6.302   3.571  0.3229 -0.3424 -0.1778
  303MOL0     C39897   5.238   6.272   3.657  1.4950 -0.3334  0.4833
  303MOL0     C39898   5.141   6.179   3.612  0.1880 -0.3093  0.0412
  303MOL0     O39899   5.052   6.119   3.694 -0.5345  0.8029  0.4329
  303MOL0     C39900   5.024   6.169   3.827 -0.6029 -0.1961 -1.4045
  303MOL0     C39901   4.927   6.091   3.913  0.7062 -0.0465  0.4256
  303MOL0     C39902   4.790   6.064   3.840 -0.6939 -0.2936 -0.5465
  303MOL0     C39903   4.680   6.039   3.946 -0.1438 -0.0868  0.0050
  303MOL0     C39904   4.543   6.030   3.876 -0.7269 -1.2654  0.1484
  303MOL0     C39905   4.425   5.985   3.965  0.3894  0.6708 -0.0252
  303MOL0     C39906   4.295   6.008   3.910  0.8304 -0.4187  0.3302
  303MOL0     C39907   4.177   5.977   4.005  0.0506  0.8012  0.1969
  303MOL0    Cl39908   4.200   5.806   4.070  0.1371 -0.2834 -0.1704
  303MOL0     C39909   5.156   6.131   3.474  0.8203  0.1790 -0.8823
  303MOL0     C39910   5.259   6.166   3.388  0.3297  0.3652 -0.3312
  303MOL0     O39911   5.584   6.121   3.417 -0.1278 -0.3598 -0.4325
  303MOL0     C39912   5.825   6.227   3.306  1.2444 -0.8297 -0.4840
  303MOL0     C39913   5.941   6.291   3.256  0.1685  1.3492 -0.2263
  303MOL0     N39914   6.462   6.316   3.015  0.2618 -0.1038  0.4505
  303MOL0     N39915   6.550   6.318   3.107 -0.0222 -0.0545  0.5810
  303MOL0     C39916   7.799   6.408   3.170 -0.1190  0.6176 -0.6338
  303MOL0     C39917   7.934   6.363   3.186 -0.1537  0.4273 -0.1486
  303MOL0     C39918   8.315   6.106   3.138 -0.5011  0.6134  0.1615
  303MOL0     C39919   8.384   5.987   3.146 -1.0310 -0.7229  1.1609
  303MOL0     C39920   8.524   5.977   3.146 -0.5525 -0.8558  1.1730
  303MOL0     C39921   8.600   6.100   3.132  0.2924 -0.0292 -1.1184
  303MOL0     O39922   8.733   6.107   3.148 -0.0648 -0.0298 -0.1972
  303MOL0     C39923   8.810   5.986   3.184  0.6402  1.1720 -0.3039
  303MOL0     C39924   8.951   6.016   3.226  0.1663 -0.1037  0.2308
  303MOL0     C39925   9.062   6.016   3.122  0.5207 -0.4356 -0.1145
  303MOL0     C39926   9.201   6.023   3.182  0.6984 -0.6523 -0.8996
  303MOL0     C39927   9.219   6.163   3.235 -0.1972 -0.0986  0.3349
  303MOL0     C39928   9.227   6.281   3.269 -0.0074 -0.6992  0.9144
  303MOL0     C39929   8.531   6.223   3.127 -0.4242  0.3892  0.5176
  303MOL0     C39930   8.392   6.228   3.119  0.2685 -0.1428 -0.7864
  303MOL0     H39931   7.975   6.170   2.913 -0.4085 -0.7319  0.5492
  303MOL0     H39932   7.749   6.269   2.863  3.7639  3.6127 -2.3866
  303MOL0     H39933   7.501   6.247   2.979 -1.4076  0.8289  1.9191
  303MOL0     H39934   7.555   6.346   2.841  1.4224  3.3810  0.1116
  303MOL0     H39935   7.319   6.355   2.874 -0.9748 -2.2006  2.8890
  303MOL0     H39936   7.385   6.512   2.905  1.1196 -0.0630 -0.3128
  303MOL0     H39937   7.378   6.423   3.167  0.6693 -0.4881 -0.1000
  303MOL0     H39938   7.311   6.283   3.099 -0.2335 -0.3093 -0.0461
  303MOL0     H39939   7.152   6.434   3.205  3.0671  0.8492  1.2614
  303MOL0     H39940   7.206   6.566   3.088  0.5263 -0.2721 -3.2701
  303MOL0     H39941   7.057   6.312   3.002 -0.1024  0.6244 -2.4604
  303MOL0     H39942   7.090   6.459   2.908  1.1376  1.0584  0.6992
  303MOL0     H39943   6.871   6.488   2.970  0.3301 -0.3722  0.3061
  303MOL0     H39944   6.960   6.580   3.086 -0.1641 -0.3641 -1.4240
  303MOL0     H39945   6.852   6.292   3.138  2.7650 -0.7693  1.7632
  303MOL0     H39946   6.913   6.394   3.262  1.9070  1.1713 -0.4567
  303MOL0     H39947   6.723   6.565   3.224  0.8391 -1.0059  1.5860
  303MOL0     H39948   6.697   6.408   3.303 -0.2219 -0.7886 -0.1442
  303MOL0     H39949   6.607   6.616   2.994  2.2040 -0.5143 -1.0778
  303MOL0     H39950   6.406   6.436   2.752 -3.3225 -1.6900 -0.2270
  303MOL0     H39951   6.402   6.601   2.804 -1.3374 -0.9954 -2.3270
  303MOL0     H39952   6.210   6.378   2.879 -1.3242 -0.0077  0.2855
  303MOL0     H39953   6.166   6.534   2.780  0.7340  2.0133  0.1011
  303MOL0     H39954   6.260   6.567   3.062 -0.4366 -2.5735 -0.0364
  303MOL0     H39955   6.178   6.681   2.949  0.0221 -0.3176 -2.2486
  303MOL0     H39956   5.979   6.539   2.942  0.6658  1.6664  0.1811
  303MOL0     H39957   6.006   6.648   3.067  1.1850  0.8628  0.6188
  303MOL0     H39958   5.776   6.520   3.062 -0.4556  0.2276 -0.0890
  303MOL0     H39959   5.596   6.434   3.153  1.3923  0.3785 -3.1217
  303MOL0     H39960   5.412   6.379   3.611 -2.2979  2.6572 -1.2950
  303MOL0     H39961   5.228   6.319   3.755 -2.4931  2.6300 -1.0753
  303MOL0     H39962   5.008   6.277   3.828  1.6310  0.2606  2.2643
  303MOL0     H39963   5.122   6.167   3.875 -0.9785 -1.4109 -0.6341
  303MOL0     H39964   4.909   6.141   4.008 -1.9840  1.7251 -0.8893
  303MOL0     H39965   4.982   5.997   3.927 -2.6051 -2.4437 -1.2844
  303MOL0     H39966   4.792   5.970   3.785  0.0130 -0.9764  0.5872
  303MOL0     H39967   4.776   6.151   3.774  1.8918 -0.5241 -1.5386
  303MOL0     H39968   4.704   5.948   4.001  1.7400  0.3128 -0.0785
  303MOL0     H39969   4.692   6.122   4.016  1.8814  0.7218 -1.2269
  303MOL0     H39970   4.552   5.959   3.793 -1.9319 -3.1240  1.5297
  303MOL0     H39971   4.522   6.127   3.830  2.2176  0.9664  3.0687
  303MOL0     H39972   4.425   6.009   4.072  0.3316 -3.2609  1.0270
  303MOL0     H39973   4.446   5.878   3.969 -0.9267  0.4166  0.6225
  303MOL0     H39974   4.276   6.111   3.879 -0.2180 -0.9372 -0.8470
  303MOL0     H39975   4.290   5.960   3.812  1.6432 -3.3881  1.6305
  303MOL0     H39976   4.081   5.985   3.953  0.3428  1.2258 -0.2855
  303MOL0     H39977   4.169   6.036   4.096  0.6028 -0.5924  1.1873
  303MOL0     H39978   5.083   6.055   3.446 -2.4006  3.0915 -1.0453
  303MOL0     H39979   5.279   6.127   3.289 -0.6679 -0.5073 -0.2083
  303MOL0     H39980   5.836   6.151   3.382 -2.6730 -0.6049  0.5597
  303MOL0     H39981   6.038   6.259   3.293 -2.3203 -0.4555  5.9962
  303MOL0     H39982   7.764   6.462   3.258  3.1995  0.5000  0.9177
  303MOL0     H39983   7.987   6.391   3.277 -0.0766  1.8588 -0.6130
  303MOL0     H39984   8.322   5.901   3.167 -0.8811 -2.2979 -3.7180
  303MOL0     H39985   8.561   5.876   3.157  2.4530 -0.0384 -0.2686
  303MOL0     H39986   8.811   5.903   3.113  1.9971  0.0228  0.9976
  303MOL0     H39987   8.758   5.940   3.269  0.2272 -0.4636 -1.3862
  303MOL0     H39988   8.952   6.114   3.275  3.6801  1.2152 -1.9998
  303MOL0     H39989   8.991   5.946   3.299 -1.3737  1.7712  3.0422
  303MOL0     H39990   9.041   6.105   3.062 -1.3678 -0.8260 -0.0686
  303MOL0     H39991   9.054   5.926   3.060  0.8158  0.9363 -2.2531
  303MOL0     H39992   9.224   5.953   3.263 -1.1356  0.4196  0.6530
  303MOL0     H39993   9.278   6.001   3.108  1.0377  0.5865 -0.9516
  303MOL0     H39994   9.235   6.386   3.290  3.3690 -1.1080  2.4013
  303MOL0     H39995   8.586   6.316   3.116 -1.2556  0.5853 -4.2717
  303MOL0     H39996   8.335   6.320   3.113 -0.4065  0.3626  5.6351
  304MOL0     O39997   7.341   2.085   3.682  0.2494 -0.5707  0.2575
  304MOL0     C39998   7.420   2.147   3.755  0.1197  0.5911  0.2991
  304MOL0     O39999   7.412   2.275   3.785 -0.3127 -1.2579  0.0202
  304MOL0     C40000   7.311   2.349   3.725 -0.2596  1.6006 -0.2622
  304MOL0     C40001   7.323   2.390   3.597 -0.3496  0.8090 -0.5382
  304MOL0     C40002   7.212   2.451   3.539  0.1029  0.0911 -0.8652
  304MOL0     C40003   7.101   2.476   3.604 -0.0470  0.7912  0.3793
  304MOL0     O40004   7.007   2.552   3.536 -0.4419 -0.9544 -0.5113
  304MOL0     C40005   6.869   2.529   3.550  0.4444 -0.0059 -0.1265
  304MOL0     C40006   6.786   2.615   3.458  0.1563 -0.9810 -0.2107
  304MOL0     C40007   6.643   2.568   3.465  0.0992  0.1540  0.1534
  304MOL0     C40008   6.557   2.653   3.389  0.9146  0.3489  0.0048
  304MOL0     C40009   6.411   2.629   3.392  0.0333  0.7929  0.0809
  304MOL0     C40010   6.327   2.684   3.512  0.2569 -0.2192  0.0353
  304MOL0     C40011   6.194   2.607   3.519  0.3762 -0.6421 -0.6448
  304MOL0     C40012   6.115   2.633   3.647 -1.1547 -0.8717  0.2746
  304MOL0     N40013   5.992   2.548   3.649  0.2080  0.3254 -0.2861
  304MOL0     C40014   5.944   2.492   3.757  0.3858  0.0977 -0.4591
  304MOL0     C40015   5.821   2.448   3.724 -0.0021 -0.4216  0.5685
  304MOL0     C40016   5.743   2.362   3.818 -0.3271  0.2492 -0.0599
  304MOL0     C40017   5.779   2.208   3.825  0.5662  0.3526  0.5054
  304MOL0     C40018   5.745   2.136   3.698  0.4666 -0.1652  0.4066
  304MOL0     C40019   5.600   2.104   3.661 -0.1735  0.2129 -0.6117
  304MOL0     O40020   5.558   1.991   3.743 -0.6013  0.1528 -0.0670
  304MOL0     C40021   5.430   1.954   3.737 -0.3424 -0.3769  0.1578
  304MOL0     C40022   5.390   1.868   3.840  0.1070 -0.0515  1.1572
  304MOL0     C40023   5.259   1.818   3.846 -0.3560  0.5508  0.2710
  304MOL0     C40024   5.168   1.849   3.745  0.4319 -0.0100  0.4786
  304MOL0     C40025   5.038   1.788   3.750  0.0336  0.2893  0.6290
  304MOL0     O40026   4.961   1.812   3.645 -0.1494  0.5504  0.0978
  304MOL0     C40027   4.848   1.741   3.622  0.2952  0.6160  0.6326
  304MOL0     C40028   4.833   1.602   3.634 -0.4487 -0.3945 -0.1783
  304MOL0     C40029   4.706   1.545   3.631  0.3234  0.9357  0.1755
  304MOL0     C40030   4.592   1.620   3.592 -0.4138 -0.1085 -0.8778
  304MOL0     O40031   4.471   1.569   3.581 -0.3715 -0.0674 -0.2473
  304MOL0     C40032   4.425   1.488   3.690  0.2406  0.2377  0.3276
  304MOL0     C40033   4.279   1.502   3.709 -0.7794  0.2851 -0.0212
  304MOL0     C40034   4.206   1.413   3.610 -0.8007 -0.1094  0.6281
  304MOL0     C40035   4.051   1.437   3.613 -0.2839 -0.1925  0.9529
  304MOL0     C40036   3.984   1.357   3.508  0.8316 -0.1178  0.0451
  304MOL0     C40037   3.845   1.410   3.498  0.4919 -0.5642 -0.9238
  304MOL0     C40038   3.773   1.409   3.629  0.7677  0.1591 -0.1167
  304MOL0     C40039   3.620   1.398   3.602 -0.0047 -0.6775  0.4294
  304MOL0    Cl40040   3.553   1.522   3.471  0.3806 -0.0851  0.2581
  304MOL0     C40041   4.609   1.751   3.577 -0.2014  0.0928 -0.8500
  304MOL0     C40042   4.730   1.812   3.603  0.4285  0.8071 -0.0603
  304MOL0     O40043   5.005   1.715   3.842 -0.2099  0.5242  0.5866
  304MOL0     C40044   5.207   1.936   3.631 -0.1740 -0.2282  0.2871
  304MOL0     C40045   5.338   1.990   3.630 -0.3576 -0.0229 -0.8642
  304MOL0     N40046   5.792   2.491   3.595 -0.0693 -0.5660  0.4253
  304MOL0     N40047   5.895   2.549   3.549 -0.3960  0.0555 -0.4856
  304MOL0     C40048   7.089   2.425   3.728 -0.0315 -0.7644  0.4257
  304MOL0     C40049   7.191   2.364   3.798  0.4073  0.3942 -0.3232
  304MOL0     C40050   7.540   2.082   3.791 -0.4827 -0.5029 -0.1715
  304MOL0     C40051   7.647   2.145   3.855  0.4840  0.0305 -0.1281
  304MOL0     C40052   7.766   2.077   3.882  0.3468  0.3992  0.4307
  304MOL0     C40053   7.787   1.949   3.846  0.3497  0.5262 -0.9164
  304MOL0     O40054   7.908   1.897   3.883 -0.3839  0.2491  0.1016
  304MOL0     C40055   7.956   1.773   3.835  0.3299  0.1935 -0.5996
  304MOL0     C40056   8.109   1.751   3.850  0.8574  0.3001  1.5366
  304MOL0     C40057   8.153   1.717   3.993  0.4104 -0.7881  0.0568
  304MOL0     C40058   8.312   1.698   4.002 -0.0616  0.0379  0.6661
  304MOL0     C40059   8.368   1.666   4.131 -0.0636 -0.6854  0.1344
  304MOL0     C40060   8.416   1.617   4.230 -0.2469 -0.1136  0.9492
  304MOL0     C40061   7.683   1.878   3.783  1.2201  0.3233 -0.5905
  304MOL0     C40062   7.558   1.940   3.761  0.6182 -0.9531 -0.8276
  304MOL0     H40063   7.417   2.363   3.551 -0.3796  2.4185 -1.6159
  304MOL0     H40064   7.208   2.477   3.434  0.2924 -2.0041 -1.4386
  304MOL0     H40065   6.831   2.544   3.651 -0.1169 -0.0016 -0.3345
  304MOL0     H40066   6.866   2.426   3.515 -1.6135 -0.6842  1.8101
  304MOL0     H40067   6.815   2.612   3.353  0.2721  1.8141 -0.3418
  304MOL0     H40068   6.793   2.717   3.498 -2.3452 -1.1214  0.7697
  304MOL0     H40069   6.610   2.574   3.570 -0.7069 -3.0656  0.1938
  304MOL0     H40070   6.633   2.466   3.426 -2.3069  0.5130 -0.3331
  304MOL0     H40071   6.568   2.758   3.421  1.6618  1.6686 -3.9723
  304MOL0     H40072   6.590   2.645   3.285  2.9197 -0.7643  0.6734
  304MOL0     H40073   6.403   2.520   3.390 -1.4086  0.8893 -0.0045
  304MOL0     H40074   6.368   2.664   3.298  0.2479 -2.1039 -1.2161
  304MOL0     H40075   6.325   2.793   3.509  1.9608 -0.0819  1.9730
  304MOL0     H40076   6.381   2.651   3.601  2.5102  2.4258 -0.2304
  304MOL0     H40077   6.129   2.643   3.438  1.0265  0.1685 -0.8174
  304MOL0     H40078   6.207   2.500   3.502  1.1482 -0.5283 -0.7839
  304MOL0     H40079   6.095   2.741   3.657  0.8464 -0.6251  2.5060
  304MOL0     H40080   6.178   2.604   3.732  0.8479 -0.7193 -1.0946
  304MOL0     H40081   5.999   2.462   3.845 -0.5178  3.7597  1.5387
  304MOL0     H40082   5.637   2.365   3.793  0.0619  1.7524 -1.7292
  304MOL0     H40083   5.754   2.412   3.915  0.3638  0.5540 -0.2888
  304MOL0     H40084   5.716   2.169   3.905 -0.6069  1.1829  0.0160
  304MOL0     H40085   5.881   2.185   3.858  0.2949 -1.8926 -0.0443
  304MOL0     H40086   5.779   2.199   3.615  0.8861  2.8004  2.6539
  304MOL0     H40087   5.813   2.050   3.701 -0.5797 -0.9766  1.4237
  304MOL0     H40088   5.587   2.072   3.557 -1.5016 -0.2337 -0.3295
  304MOL0     H40089   5.529   2.187   3.668 -3.5800 -2.3302 -2.0500
  304MOL0     H40090   5.464   1.844   3.915  1.3140 -0.7285 -0.1977
  304MOL0     H40091   5.232   1.767   3.937  2.7002  1.0183  1.5701
  304MOL0     H40092   4.927   1.550   3.645  0.7405  1.9451  1.3012
  304MOL0     H40093   4.693   1.438   3.648 -0.9385  0.7201 -1.8201
  304MOL0     H40094   4.475   1.509   3.785 -1.7652 -1.1704  1.7808
  304MOL0     H40095   4.447   1.382   3.675  0.0486  0.0546  1.2662
  304MOL0     H40096   4.256   1.607   3.688 -1.6661 -0.0163 -0.5810
  304MOL0     H40097   4.254   1.482   3.814 -2.4929  0.2444 -0.4154
  304MOL0     H40098   4.236   1.310   3.636  2.8944  0.5656 -0.3875
  304MOL0     H40099   4.251   1.431   3.512 -1.6373 -0.0574  0.2452
  304MOL0     H40100   4.017   1.411   3.714 -1.3229  1.0592  0.9546
  304MOL0     H40101   4.029   1.544   3.611 -0.4762 -0.2410 -0.3695
  304MOL0     H40102   3.988   1.254   3.544 -0.0839  0.1234  0.8751
  304MOL0     H40103   4.028   1.368   3.408  2.7126  1.6957  0.9977
  304MOL0     H40104   3.790   1.339   3.436  0.7585 -2.8364  1.2993
  304MOL0     H40105   3.835   1.512   3.460 -3.2024  1.2141  3.8152
  304MOL0     H40106   3.802   1.321   3.687  0.2684  0.1839  0.1695
  304MOL0     H40107   3.791   1.499   3.688  1.0099  0.5716 -0.8095
  304MOL0     H40108   3.577   1.419   3.700 -0.8115 -1.7838  0.3307
  304MOL0     H40109   3.595   1.296   3.573  0.4892 -0.0245 -2.6225
  304MOL0     H40110   4.528   1.819   3.550  0.1958  0.8842 -0.0723
  304MOL0     H40111   4.742   1.918   3.586  1.3228  0.7230  0.0141
  304MOL0     H40112   5.137   1.970   3.555 -0.9422  1.1429  1.5612
  304MOL0     H40113   5.365   2.057   3.549  1.7140  0.1732 -0.0685
  304MOL0     H40114   6.989   2.432   3.770 -0.4121 -1.6640 -0.3036
  304MOL0     H40115   7.169   2.334   3.900 -2.6167  1.1097 -0.6868
  304MOL0     H40116   7.635   2.252   3.866 -2.5037  0.3247 -3.9509
  304MOL0     H40117   7.851   2.124   3.930  1.3226 -0.4128 -0.4572
  304MOL0     H40118   7.946   1.773   3.726 -0.0163  4.9786 -0.8079
  304MOL0     H40119   7.888   1.696   3.874  2.0627 -0.8179  0.5176
  304MOL0     H40120   8.133   1.663   3.791  0.5794  2.1518 -1.5455
  304MOL0     H40121   8.165   1.837   3.812  1.1380 -0.5302  0.0015
  304MOL0     H40122   8.112   1.618   4.013 -0.2042 -0.6984 -0.7154
  304MOL0     H40123   8.115   1.800   4.053 -0.3903 -0.0849 -1.3635
  304MOL0     H40124   8.337   1.610   3.942 -0.8030 -0.8274  1.5959
  304MOL0     H40125   8.363   1.789   3.969  3.5014 -1.7853  0.6899
  304MOL0     H40126   8.465   1.564   4.309  2.4131 -1.0115 -1.1195
  304MOL0     H40127   7.684   1.770   3.774 -1.9998  0.0352  1.0311
  304MOL0     H40128   7.466   1.888   3.736 -0.3181 -0.2291  0.9172
  305MOL0     O40129   6.030   9.826   0.082 -0.5499 -0.3438  0.1090
  305MOL0     C40130   6.024   9.912   0.168 -0.7152  0.2491 -0.3134
  305MOL0     O40131   5.908   9.978   0.206 -0.5915  0.6392 -0.0204
  305MOL0     C40132   5.789   9.927   0.153 -0.3875  0.9126 -0.5584
  305MOL0     C40133   5.752   9.789   0.159 -0.1536 -0.4414 -0.7930
  305MOL0     C40134   5.636   9.742   0.095  0.8941 -0.4615 -0.5040
  305MOL0     C40135   5.546   9.828   0.024 -0.4679  0.3280 -0.4707
  305MOL0     O40136   5.435   9.776  -0.039  0.7871 -0.3614  0.1966
  305MOL0     C40137   5.353   9.877  -0.103  0.6231 -0.7358  0.4470
  305MOL0     C40138   5.242   9.792  -0.162  0.0640  0.4996  0.3059
  305MOL0     C40139   5.161   9.881  -0.248  0.5452 -0.1531 -0.1245
  305MOL0     C40140   5.051   9.799  -0.308  0.5797 -0.0895  0.0530
  305MOL0     C40141   4.949   9.881  -0.395 -0.3358 -0.1746 -0.4851
  305MOL0     C40142   4.809   9.811  -0.439 -0.1379 -0.2195 -0.1389
  305MOL0     C40143   4.706   9.899  -0.491  0.4531 -0.6382 -0.8749
  305MOL0     C40144   4.755   9.999  -0.599 -0.2219 -1.2103  0.9968
  305MOL0     N40145   4.645  10.075  -0.666 -0.3652  0.3515 -0.5612
  305MOL0     C40146   4.624  10.066  -0.797 -0.9065 -1.1107 -0.1918
  305MOL0     C40147   4.552  10.178  -0.817  0.1857 -0.1108  0.1741
  305MOL0     C40148   4.497  10.220  -0.950 -0.8337  0.8663  0.7289
  305MOL0     C40149   4.349  10.190  -0.951 -1.4559 -0.7402 -0.3042
  305MOL0     C40150   4.297  10.219  -1.095  0.0122 -0.3859 -0.5055
  305MOL0     C40151   4.147  10.210  -1.110 -0.0670  0.2934 -0.9569
  305MOL0     O40152   4.093  10.192  -0.971  0.1505  0.1504 -0.2505
  305MOL0     C40153   3.981  10.247  -0.918  0.2848 -0.2658  0.1780
  305MOL0     C40154   3.963  10.262  -0.784  0.5777 -0.5479  0.4757
  305MOL0     C40155   3.850  10.333  -0.731  0.5358 -0.0352 -0.2399
  305MOL0     C40156   3.752  10.391  -0.814 -0.4223 -0.4645 -0.0287
  305MOL0     C40157   3.654  10.484  -0.763 -0.3386  0.4539  0.5792
  305MOL0     O40158   3.558  10.506  -0.853  0.4598 -0.4129  0.2722
  305MOL0     C40159   3.441  10.560  -0.802  0.2756 -0.2912  1.0110
  305MOL0     C40160   3.415  10.696  -0.829  0.5375 -0.1401 -0.0142
  305MOL0     C40161   3.302  10.755  -0.773 -0.2228  0.4676  0.1124
  305MOL0     C40162   3.209  10.679  -0.693 -0.6338  0.6331  1.1824
  305MOL0     O40163   3.103  10.742  -0.632  0.1673 -0.0040  0.5867
  305MOL0     C40164   3.025  10.680  -0.527  0.6906  0.8367 -0.2992
  305MOL0     C40165   2.918  10.769  -0.477  0.3376 -0.0161  0.2990
  305MOL0     C40166   2.825  10.818  -0.589  0.4018  0.2033 -0.2428
  305MOL0     C40167   2.700  10.867  -0.523 -0.7023 -0.4799 -0.1550
  305MOL0     C40168   2.728  11.010  -0.470  0.0349 -0.4125 -0.0876
  305MOL0     C40169   2.601  11.080  -0.417 -0.5796 -0.2915  0.1873
  305MOL0     C40170   2.508  11.136  -0.518  0.7148  0.0595  0.8474
  305MOL0     C40171   2.374  11.176  -0.457 -0.3439  0.7396  0.3525
  305MOL0    Cl40172   2.293  11.281  -0.595  0.2991 -0.0535 -0.2034
  305MOL0     C40173   3.240  10.547  -0.675  0.3833  0.0602 -0.7846
  305MOL0     C40174   3.357  10.486  -0.731 -0.9254 -0.8388  0.2011
  305MOL0     O40175   3.657  10.521  -0.646 -0.5926 -0.6561 -0.1164
  305MOL0     C40176   3.766  10.361  -0.949  0.0588  0.8541 -0.2368
  305MOL0     C40177   3.880  10.302  -1.000  0.0934  0.8721  0.1073
  305MOL0     N40178   4.523  10.248  -0.704 -0.0415 -0.6146 -0.4852
  305MOL0     N40179   4.584  10.177  -0.610  1.2640  0.6093 -0.9014
  305MOL0     C40180   5.581   9.970   0.026 -0.1990 -0.7274 -0.2885
  305MOL0     C40181   5.694  10.016   0.095  0.3097 -0.0429 -0.9361
  305MOL0     C40182   6.154   9.955   0.232  0.5910  0.3626 -0.0963
  305MOL0     C40183   6.161  10.032   0.352 -0.6967 -0.3469 -0.2302
  305MOL0     C40184   6.290  10.058   0.404 -0.7004  0.5673  0.7736
  305MOL0     C40185   6.402  10.004   0.349 -0.5500  0.2203  0.2399
  305MOL0     O40186   6.527  10.039   0.398  0.0925 -0.6373  0.1037
  305MOL0     C40187   6.619   9.927   0.413  0.3987  0.1316 -0.5531
  305MOL0     C40188   6.748   9.974   0.480  0.2633  0.1249 -0.5967
  305MOL0     C40189   6.711  10.018   0.616 -0.0944 -0.2716 -0.6957
  305MOL0     C40190   6.837  10.066   0.693 -0.1884 -0.7594 -0.1214
  305MOL0     C40191   6.946   9.974   0.701  0.6024  0.5318  0.3247
  305MOL0     C40192   7.030   9.885   0.710 -0.4135 -0.2935 -0.2956
  305MOL0     C40193   6.389   9.933   0.232 -0.0925  1.3121  0.3819
  305MOL0     C40194   6.267   9.906   0.171 -0.2511 -0.3911  0.2056
  305MOL0     H40195   5.820   9.720   0.208  1.0729  1.1785 -0.0980
  305MOL0     H40196   5.613   9.637   0.112  2.6933 -0.8446 -0.2481
  305MOL0     H40197   5.412   9.926  -0.180 -0.4858  0.9378  0.6028
  305MOL0     H40198   5.318   9.951  -0.030  3.1703 -0.4923  1.5249
  305MOL0     H40199   5.180   9.748  -0.083  1.3707  1.5968  2.0112
  305MOL0     H40200   5.284   9.707  -0.218 -0.3741 -1.1677  2.3807
  305MOL0     H40201   5.221   9.919  -0.330  2.7397 -0.9609  1.0291
  305MOL0     H40202   5.126   9.965  -0.188  0.3065 -1.0099  0.9837
  305MOL0     H40203   5.089   9.724  -0.379 -1.0300 -0.0905 -0.8547
  305MOL0     H40204   5.000   9.744  -0.228 -1.0791  1.5183  0.1760
  305MOL0     H40205   4.988   9.906  -0.494 -1.1858  0.4532 -0.6727
  305MOL0     H40206   4.927   9.974  -0.342 -0.4653 -0.5411  0.1164
  305MOL0     H40207   4.760   9.757  -0.358 -0.2530 -0.8662 -0.6279
  305MOL0     H40208   4.838   9.745  -0.522 -1.0134  1.2635 -1.6614
  305MOL0     H40209   4.631   9.832  -0.533 -1.0739  0.8762 -0.6525
  305MOL0     H40210   4.643   9.953  -0.420 -0.1945  2.1669 -3.3759
  305MOL0     H40211   4.821   9.952  -0.672 -1.0172 -1.0049  0.1366
  305MOL0     H40212   4.819  10.077  -0.555  1.4634 -1.0725 -1.5069
  305MOL0     H40213   4.671  10.002  -0.871  0.3110 -1.4459  0.8235
  305MOL0     H40214   4.545  10.168  -1.033 -2.2127  0.4481  0.1597
  305MOL0     H40215   4.523  10.326  -0.964  1.9811 -0.1014 -3.2769
  305MOL0     H40216   4.305  10.254  -0.874  0.3362  0.6831 -0.3775
  305MOL0     H40217   4.350  10.081  -0.942 -0.2862 -1.1775 -3.9631
  305MOL0     H40218   4.330  10.316  -1.133 -0.2907 -0.2987 -0.5485
  305MOL0     H40219   4.346  10.144  -1.158  1.6363 -0.8355  1.1781
  305MOL0     H40220   4.119  10.128  -1.177 -0.3724  0.1559 -0.6664
  305MOL0     H40221   4.118  10.304  -1.158 -1.5630 -0.3245 -1.3140
  305MOL0     H40222   4.044  10.218  -0.727 -0.8325 -1.6551  1.7160
  305MOL0     H40223   3.835  10.344  -0.624  0.3753  0.4741 -0.3112
  305MOL0     H40224   3.480  10.748  -0.899  0.0709 -0.3954 -0.6458
  305MOL0     H40225   3.286  10.860  -0.793 -3.1560  0.1555  0.4625
  305MOL0     H40226   3.093  10.656  -0.445  1.5128 -1.2638 -1.5472
  305MOL0     H40227   2.983  10.583  -0.554  0.5422  0.8863 -0.2534
  305MOL0     H40228   2.957  10.849  -0.414 -1.4830 -1.6396  3.8002
  305MOL0     H40229   2.853  10.713  -0.409 -1.3442  0.7829 -0.5906
  305MOL0     H40230   2.794  10.740  -0.660 -2.2053  1.0229 -0.1148
  305MOL0     H40231   2.879  10.901  -0.635  2.8996  0.0692  2.2185
  305MOL0     H40232   2.618  10.871  -0.596 -0.5891  1.4854 -0.2490
  305MOL0     H40233   2.668  10.800  -0.444 -2.8025  0.2705 -0.3047
  305MOL0     H40234   2.774  11.073  -0.547 -1.3017  0.9669  0.1924
  305MOL0     H40235   2.793  11.010  -0.382 -0.4015  2.7420  0.3333
  305MOL0     H40236   2.629  11.167  -0.357 -1.3206 -0.2030  0.4191
  305MOL0     H40237   2.544  11.021  -0.345 -0.0464  1.1483  1.8473
  305MOL0     H40238   2.558  11.221  -0.565 -0.5685  0.8781  0.9355
  305MOL0     H40239   2.493  11.071  -0.604  0.1788  0.3115  0.7491
  305MOL0     H40240   2.376  11.221  -0.358  0.7855  1.1288  0.1670
  305MOL0     H40241   2.303  11.095  -0.443 -1.3396  1.4054 -0.5943
  305MOL0     H40242   3.167  10.483  -0.627  0.0667 -1.1443 -2.7946
  305MOL0     H40243   3.382  10.380  -0.728  0.5819 -0.5466 -0.8207
  305MOL0     H40244   3.698  10.407  -1.021 -4.0793 -1.1604  1.9927
  305MOL0     H40245   3.900  10.304  -1.107  1.3348 -1.7549  0.2100
  305MOL0     H40246   5.531  10.058  -0.013 -0.5564 -0.5808  0.4821
  305MOL0     H40247   5.718  10.122   0.095  1.5178 -0.2868 -2.0274
  305MOL0     H40248   6.075  10.068   0.407 -1.9784  2.2730 -3.5673
  305MOL0     H40249   6.298  10.120   0.493 -0.6531  2.2711 -0.3661
  305MOL0     H40250   6.649   9.873   0.323 -2.2612  1.7744 -2.5841
  305MOL0     H40251   6.563   9.857   0.475  0.3202  1.6449  1.1746
  305MOL0     H40252   6.824   9.896   0.496  0.4159  0.7361  2.2470
  305MOL0     H40253   6.787  10.056   0.420  0.6812 -1.2814 -2.3370
  305MOL0     H40254   6.657   9.936   0.665 -1.5845  1.4845  0.7280
  305MOL0     H40255   6.641  10.102   0.610  3.0779  2.7271  0.7932
  305MOL0     H40256   6.868  10.164   0.655 -2.6107 -0.0520 -0.3994
  305MOL0     H40257   6.807  10.074   0.797 -3.9096 -0.6418 -1.0660
  305MOL0     H40258   7.108   9.812   0.719  0.0706 -0.0171 -1.8015
  305MOL0     H40259   6.481   9.891   0.192 -0.6383  1.3486 -0.9632
  305MOL0     H40260   6.262   9.845   0.081 -2.0105 -1.9162  1.2467
  306MOL0     O40261  10.626   9.960   0.395 -0.6633  0.1530 -0.1328
  306MOL0     C40262  10.718   9.899   0.450 -0.3914  0.1214  0.0267
  306MOL0     O40263  10.705   9.782   0.521  0.3993  0.4711  0.0855
  306MOL0     C40264  10.583   9.731   0.548 -0.1046  0.4376 -1.5379
  306MOL0     C40265  10.594   9.590   0.561 -0.1193  0.4800  0.3663
  306MOL0     C40266  10.485   9.511   0.568 -0.0227 -0.3950  0.0837
  306MOL0     C40267  10.354   9.570   0.558  0.3799  1.2427 -0.4772
  306MOL0     O40268  10.246   9.476   0.550  0.0061  0.5244  0.0608
  306MOL0     C40269  10.114   9.515   0.518 -0.7883 -0.3049 -0.2504
  306MOL0     C40270  10.034   9.551   0.642  0.0508 -0.3902  1.2618
  306MOL0     C40271   9.915   9.629   0.595 -0.5513 -0.2896 -0.5565
  306MOL0     C40272   9.802   9.635   0.694  0.2329  0.4807 -0.1730
  306MOL0     C40273   9.698   9.747   0.655  0.6814  0.5146 -0.3136
  306MOL0     C40274   9.651   9.756   0.503  0.2758 -0.0460 -0.6624
  306MOL0     C40275   9.584   9.626   0.467  0.8435  0.1693 -0.2081
  306MOL0     C40276   9.556   9.615   0.314 -0.2080 -0.3387 -0.3956
  306MOL0     N40277   9.679   9.617   0.234  0.3113 -0.1434 -0.5409
  306MOL0     C40278   9.717   9.702   0.134  0.4094 -0.5873  0.1678
  306MOL0     C40279   9.826   9.641   0.069 -0.0605 -0.5259 -0.7784
  306MOL0     C40280   9.929   9.700  -0.027  1.0803  0.7041 -0.5968
  306MOL0     C40281   9.883   9.820  -0.098  0.8927 -0.0932 -0.2898
  306MOL0     C40282   9.918   9.806  -0.256  0.2806  0.7417 -0.0926
  306MOL0     C40283  10.069   9.782  -0.291  0.0757 -0.5266 -1.4655
  306MOL0     O40284  10.133   9.881  -0.215 -0.2463  0.2860  0.1364
  306MOL0     C40285  10.270   9.892  -0.234 -0.4201  0.2426  0.7185
  306MOL0     C40286  10.326  10.003  -0.172  0.5503 -0.6370  0.1655
  306MOL0     C40287  10.461  10.027  -0.173 -0.0448  0.7468  0.5409
  306MOL0     C40288  10.550   9.941  -0.240  0.2992 -0.3458 -0.2902
  306MOL0     C40289  10.694   9.978  -0.240 -0.0738 -0.3620  0.4821
  306MOL0     O40290  10.741  10.084  -0.166 -0.4181 -0.3475 -0.2955
  306MOL0     C40291  10.869  10.108  -0.136 -0.0774 -0.9653 -0.6820
  306MOL0     C40292  10.901  10.245  -0.117  1.2133 -0.0241  0.3120
  306MOL0     C40293  11.019  10.291  -0.078 -0.0136  0.2453 -1.1650
  306MOL0     C40294  11.124  10.196  -0.067 -0.0563  0.9381 -0.0126
  306MOL0     O40295  11.253  10.220  -0.032 -0.2263 -0.2608  0.1467
  306MOL0     C40296  11.308  10.354  -0.037  0.7312 -0.0840  0.0074
  306MOL0     C40297  11.460  10.367  -0.042  0.5550 -1.4089 -0.5538
  306MOL0     C40298  11.504  10.520  -0.050  0.2979 -0.2208 -0.2797
  306MOL0     C40299  11.642  10.542   0.014 -0.1761  0.9561  0.0350
  306MOL0     C40300  11.620  10.568   0.163  0.0545 -1.0372  0.0521
  306MOL0     C40301  11.754  10.563   0.245  0.0379 -0.3669  0.0681
  306MOL0     C40302  11.727  10.574   0.401 -0.2131  0.2928 -0.2247
  306MOL0     C40303  11.845  10.528   0.485 -0.3402  0.6377 -0.3280
  306MOL0    Cl40304  11.992  10.630   0.455 -0.5121 -0.3926 -0.4296
  306MOL0     C40305  11.096  10.054  -0.092 -0.5566 -0.0128 -0.0589
  306MOL0     C40306  10.971  10.010  -0.123 -0.4278  0.3621  0.4002
  306MOL0     O40307  10.767   9.918  -0.322  0.0837  1.4241  0.1454
  306MOL0     C40308  10.488   9.820  -0.293 -0.4201 -0.6199  0.5167
  306MOL0     C40309  10.351   9.797  -0.295 -0.2275  0.1416 -0.5177
  306MOL0     N40310   9.846   9.525   0.132  0.2623 -0.1940  0.1547
  306MOL0     N40311   9.751   9.507   0.222 -0.0578  0.3495  0.8974
  306MOL0     C40312  10.344   9.710   0.543  0.0316  1.0699  0.4314
  306MOL0     C40313  10.458   9.792   0.546 -0.3741 -0.2113  0.6911
  306MOL0     C40314  10.856   9.924   0.421 -0.4749 -0.9773  0.1923
  306MOL0     C40315  10.961   9.857   0.489  0.8319  0.0475  0.4761
  306MOL0     C40316  11.091   9.886   0.464 -0.4653  0.0795 -0.6769
  306MOL0     C40317  11.137   9.971   0.368  0.9632 -1.0135  0.7913
  306MOL0     O40318  11.271   9.975   0.342 -0.6086  0.3024 -0.2640
  306MOL0     C40319  11.307  10.024   0.216  0.2656  0.0931  0.2247
  306MOL0     C40320  11.463  10.025   0.221  0.1787  0.0294  1.4307
  306MOL0     C40321  11.528  10.114   0.321  0.1729 -0.7986  0.4718
  306MOL0     C40322  11.680  10.072   0.354 -0.5295  0.0406  0.4012
  306MOL0     C40323  11.757  10.011   0.231  0.2658 -1.1707 -0.1259
  306MOL0     C40324  11.820   9.961   0.144 -0.0926  0.3900  0.2165
  306MOL0     C40325  11.031  10.029   0.275  0.7035 -0.4291 -0.6091
  306MOL0     C40326  10.893  10.016   0.316  0.7287 -0.1635  0.4534
  306MOL0     H40327  10.693   9.544   0.564 -0.8690 -1.1732  1.5007
  306MOL0     H40328  10.477   9.404   0.583 -2.2084 -0.1465  0.9751
  306MOL0     H40329  10.067   9.427   0.473  0.9246  0.0326 -2.9759
  306MOL0     H40330  10.107   9.592   0.440 -3.9731  1.5917  1.6995
  306MOL0     H40331  10.092   9.617   0.707 -1.6395  3.5315 -0.8814
  306MOL0     H40332   9.998   9.462   0.695 -0.7063  0.6941  2.6404
  306MOL0     H40333   9.873   9.590   0.502 -1.8392 -1.7497  0.5989
  306MOL0     H40334   9.945   9.730   0.566  1.7524 -0.4878  0.8038
  306MOL0     H40335   9.752   9.539   0.683 -0.7528  0.9246  0.3804
  306MOL0     H40336   9.844   9.656   0.793 -0.7344 -1.8280  0.7905
  306MOL0     H40337   9.758   9.838   0.663  1.2972  0.2277 -1.4110
  306MOL0     H40338   9.615   9.746   0.726  0.5497 -2.4021 -0.3714
  306MOL0     H40339   9.739   9.771   0.440  0.2427  0.2210 -0.6459
  306MOL0     H40340   9.579   9.835   0.480 -1.2270 -1.2764 -0.4066
  306MOL0     H40341   9.652   9.546   0.493  3.3907  2.3103  0.1226
  306MOL0     H40342   9.490   9.615   0.522  0.7448 -2.1647 -0.7420
  306MOL0     H40343   9.487   9.692   0.279 -1.8862 -1.2535  0.7815
  306MOL0     H40344   9.507   9.518   0.298 -3.4333  0.9614  0.8371
  306MOL0     H40345   9.679   9.800   0.106 -0.5158 -1.0352 -0.1828
  306MOL0     H40346   9.946   9.613  -0.092  1.1419  0.0045  0.3370
  306MOL0     H40347  10.026   9.722   0.019  0.6516  1.0903  0.1469
  306MOL0     H40348   9.931   9.911  -0.060 -0.3118  0.3422  0.2267
  306MOL0     H40349   9.774   9.817  -0.088  0.8896 -0.6912 -0.4664
  306MOL0     H40350   9.868   9.717  -0.296  3.9416 -2.0757  1.0654
  306MOL0     H40351   9.873   9.885  -0.317  0.0897  0.0877 -0.8097
  306MOL0     H40352  10.082   9.787  -0.399 -1.7406 -1.5573 -1.7784
  306MOL0     H40353  10.097   9.683  -0.252  1.7455  0.6107  0.4330
  306MOL0     H40354  10.266  10.079  -0.123 -0.0179 -0.9905  0.0292
  306MOL0     H40355  10.493  10.114  -0.117 -0.3050  1.0280  0.2578
  306MOL0     H40356  10.817  10.312  -0.130  0.2816 -1.3452 -0.7630
  306MOL0     H40357  11.049  10.393  -0.058  0.2206 -0.1843  0.9492
  306MOL0     H40358  11.278  10.412   0.051 -0.7151 -0.4605 -0.2191
  306MOL0     H40359  11.262  10.402  -0.124  1.5815  1.3409  0.3063
  306MOL0     H40360  11.504  10.322  -0.131  0.8044  2.3651 -2.5213
  306MOL0     H40361  11.496  10.319   0.050 -2.3190 -2.7952 -0.0362
  306MOL0     H40362  11.443  10.592   0.006 -0.1644 -0.9997  0.2484
  306MOL0     H40363  11.506  10.541  -0.157  1.0769  0.7187 -0.0940
  306MOL0     H40364  11.701  10.449   0.010  0.2513  0.9690  3.2978
  306MOL0     H40365  11.696  10.627  -0.028  0.3637  0.7869  0.3704
  306MOL0     H40366  11.560  10.487   0.204  1.0937 -0.3034  3.2548
  306MOL0     H40367  11.574  10.667   0.173  0.6086 -0.4536 -2.3438
  306MOL0     H40368  11.806  10.654   0.213 -1.6922  0.1843 -1.3244
  306MOL0     H40369  11.817  10.479   0.216  0.0543 -1.4483  2.8837
  306MOL0     H40370  11.699  10.676   0.429  2.5651  1.5245 -1.5592
  306MOL0     H40371  11.640  10.516   0.432 -0.1751  1.3506  2.0483
  306MOL0     H40372  11.871  10.425   0.457 -0.0931  0.2911  1.0935
  306MOL0     H40373  11.819  10.530   0.591  1.7537 -2.7425  0.4146
  306MOL0     H40374  11.178   9.987  -0.069  0.7231  1.5772  0.2070
  306MOL0     H40375  10.954   9.904  -0.138  1.0661 -0.4810  3.6736
  306MOL0     H40376  10.557   9.754  -0.344 -0.0546  0.2054 -0.0674
  306MOL0     H40377  10.312   9.706  -0.338 -0.8503  0.0895  0.1531
  306MOL0     H40378  10.244   9.748   0.526 -0.3666 -1.0144 -2.7122
  306MOL0     H40379  10.434   9.896   0.529  1.6275  0.2217  0.1625
  306MOL0     H40380  10.941   9.774   0.557  1.2308 -0.8529 -0.4668
  306MOL0     H40381  11.166   9.826   0.514 -1.5603 -0.4105  0.4324
  306MOL0     H40382  11.281  10.130   0.217  0.9441  0.3139  3.0488
  306MOL0     H40383  11.284   9.962   0.129  3.6040 -1.4528  0.2900
  306MOL0     H40384  11.501   9.922   0.230  1.6792  0.2964 -1.0324
  306MOL0     H40385  11.496  10.052   0.120  3.1547 -2.5753  1.5583
  306MOL0     H40386  11.469  10.127   0.412  0.1096 -1.0609  0.4693
  306MOL0     H40387  11.540  10.211   0.271  1.9937 -1.9667 -1.5080
  306MOL0     H40388  11.736  10.153   0.402 -2.2311  0.3242  1.9716
  306MOL0     H40389  11.671   9.988   0.423  0.4313  1.0332  1.8021
  306MOL0     H40390  11.864   9.912   0.059 -1.6002  0.8815 -0.8844
  306MOL0     H40391  11.069  10.096   0.199 -1.1028  0.9091 -0.4030
  306MOL0     H40392  10.812  10.067   0.264 -0.2490 -1.8004  0.2971
  307MOL0     O40393   4.043   2.076   3.403 -0.2500  0.3312  0.0519
  307MOL0     C40394   4.114   2.053   3.504 -0.0420  0.7068 -0.3952
  307MOL0     O40395   4.075   1.987   3.623  0.0879 -0.5143 -0.0674
  307MOL0     C40396   3.948   1.949   3.620  0.0855  0.6751  0.6417
  307MOL0     C40397   3.854   2.043   3.665 -0.2237 -0.3925 -0.3148
  307MOL0     C40398   3.714   2.021   3.675 -0.3633  0.3136  0.5977
  307MOL0     C40399   3.665   1.898   3.621 -0.0811 -0.2640 -0.5263
  307MOL0     O40400   3.528   1.888   3.602  0.4555 -0.1601 -0.0133
  307MOL0     C40401   3.437   1.958   3.685  0.6542  0.1630  0.5670
  307MOL0     C40402   3.306   1.908   3.646 -0.5651 -0.0577 -0.5841
  307MOL0     C40403   3.199   1.940   3.743  0.3664 -0.5495  0.9132
  307MOL0     C40404   3.069   1.926   3.667  0.3395 -0.1396  0.0599
  307MOL0     C40405   2.947   1.936   3.759 -0.6537 -0.8008 -0.5042
  307MOL0     C40406   2.810   1.898   3.705  0.5738  0.2043 -0.3734
  307MOL0     C40407   2.800   1.778   3.623 -0.2640 -0.3265  0.6647
  307MOL0     C40408   2.661   1.722   3.616  0.2022  0.3964  0.2126
  307MOL0     N40409   2.649   1.583   3.566 -0.1826 -0.5627  0.2970
  307MOL0     C40410   2.678   1.467   3.633 -0.7980  0.2198  0.4600
  307MOL0     C40411   2.655   1.375   3.544 -0.0555  0.0353 -0.8653
  307MOL0     C40412   2.671   1.227   3.582 -0.9535  0.2018  0.3132
  307MOL0     C40413   2.608   1.140   3.479 -0.3809 -0.0641  0.4068
  307MOL0     C40414   2.451   1.141   3.456 -0.3044 -1.1916  0.2039
  307MOL0     C40415   2.365   1.110   3.580  0.1957  0.4760 -0.2907
  307MOL0     O40416   2.230   1.120   3.542 -0.5205  0.5027 -0.2005
  307MOL0     C40417   2.130   1.098   3.637  0.5248 -0.0043  0.1035
  307MOL0     C40418   2.006   1.134   3.601  0.0872 -0.4071 -0.1090
  307MOL0     C40419   1.891   1.101   3.679  0.8888  0.4280 -0.2844
  307MOL0     C40420   1.907   1.025   3.792 -0.3313  0.1798  0.4380
  307MOL0     C40421   1.792   0.984   3.877  0.1658 -0.2145 -0.2467
  307MOL0     O40422   1.666   1.033   3.837 -0.3422  0.1601 -0.0291
  307MOL0     C40423   1.564   0.988   3.919  0.3445  0.0727  0.0123
  307MOL0     C40424   1.494   0.877   3.887  0.0338  0.3607  0.5439
  307MOL0     C40425   1.376   0.848   3.948  1.0109 -0.5941  0.9495
  307MOL0     C40426   1.322   0.920   4.052  0.3237  0.3801  0.1852
  307MOL0     O40427   1.216   0.878   4.123  0.1184 -0.5413 -0.5194
  307MOL0     C40428   1.114   0.819   4.049  0.3714  0.5124  0.3610
  307MOL0     C40429   0.992   0.788   4.139  0.4730 -0.6417 -0.4731
  307MOL0     C40430   0.912   0.670   4.068 -0.7153  0.1811  0.6945
  307MOL0     C40431   0.782   0.637   4.143  0.1009 -0.4212 -0.2316
  307MOL0     C40432   0.717   0.515   4.083  1.2389 -0.5292  0.1776
  307MOL0     C40433   0.575   0.493   4.137  0.4700 -0.1356  0.1485
  307MOL0     C40434   0.458   0.558   4.071 -0.8267  0.4225  0.1440
  307MOL0     C40435   0.396   0.453   3.961 -0.4524  0.4740  0.0940
  307MOL0    Cl40436   0.242   0.523   3.900 -0.0701 -0.0904  0.0467
  307MOL0     C40437   1.393   1.038   4.091  0.0574 -0.2803  0.0213
  307MOL0     C40438   1.515   1.069   4.025  0.0669 -0.2536 -0.8052
  307MOL0     O40439   1.803   0.896   3.953  0.8534 -0.1809 -0.1346
  307MOL0     C40440   2.044   0.985   3.835  0.1540 -0.0534  0.0212
  307MOL0     C40441   2.150   1.020   3.756 -0.1783 -1.3410 -1.3094
  307MOL0     N40442   2.622   1.430   3.422 -0.3914  0.2989  0.0804
  307MOL0     N40443   2.615   1.556   3.436  0.3189  0.6825  0.3580
  307MOL0     C40444   3.751   1.804   3.563 -0.4030  0.5464 -0.3858
  307MOL0     C40445   3.898   1.830   3.567  0.3403  0.4633  0.0538
  307MOL0     C40446   4.257   2.105   3.503 -0.1929 -0.4698  0.4929
  307MOL0     C40447   4.319   2.153   3.393 -0.7551  0.2606  0.6222
  307MOL0     C40448   4.456   2.170   3.389 -0.0333 -0.2144 -0.8275
  307MOL0     C40449   4.532   2.172   3.513  0.1009 -1.4811 -0.7704
  307MOL0     O40450   4.662   2.208   3.530 -0.0250  0.7049  0.1653
  307MOL0     C40451   4.740   2.264   3.425  0.2846  0.5451  0.7450
  307MOL0     C40452   4.725   2.414   3.427 -0.3921  0.1870 -0.0348
  307MOL0     C40453   4.840   2.495   3.363 -0.3966  0.0950  0.9493
  307MOL0     C40454   4.826   2.642   3.390  0.4262  0.1786 -0.4904
  307MOL0     C40455   4.706   2.696   3.321 -0.3039 -0.3383 -0.4202
  307MOL0     C40456   4.600   2.715   3.262 -0.2921 -0.3567 -0.0826
  307MOL0     C40457   4.463   2.133   3.625  0.4589 -0.2225 -0.0413
  307MOL0     C40458   4.330   2.095   3.626  0.3017 -0.5370 -0.6157
  307MOL0     H40459   3.886   2.143   3.693 -2.3970  0.4702 -0.7354
  307MOL0     H40460   3.656   2.108   3.705  1.2821  0.5333  3.5549
  307MOL0     H40461   3.439   2.067   3.676  0.3666  0.0265 -1.9460
  307MOL0     H40462   3.449   1.929   3.790 -1.5341 -0.3624  0.7100
  307MOL0     H40463   3.303   1.804   3.613 -1.3380  0.4707 -2.3067
  307MOL0     H40464   3.282   1.966   3.556  3.6058  1.9640 -0.6040
  307MOL0     H40465   3.202   2.038   3.792  0.1532 -0.7853  1.3995
  307MOL0     H40466   3.206   1.872   3.828 -1.3103  0.6065  2.0398
  307MOL0     H40467   3.062   2.001   3.587 -0.6812 -1.2357 -0.9231
  307MOL0     H40468   3.068   1.828   3.618 -1.6368  0.9013 -2.2134
  307MOL0     H40469   2.939   2.037   3.800  0.8084 -1.4008  1.4293
  307MOL0     H40470   2.963   1.866   3.841  0.9690  1.4791  1.2284
  307MOL0     H40471   2.772   1.984   3.649  0.5037 -0.4179 -1.3050
  307MOL0     H40472   2.737   1.896   3.787  1.7376 -1.5832  0.6705
  307MOL0     H40473   2.841   1.792   3.522 -1.3029  0.4072  0.3162
  307MOL0     H40474   2.870   1.708   3.668 -1.0539 -0.5661  1.5381
  307MOL0     H40475   2.602   1.793   3.557  0.2796  1.8063  1.7433
  307MOL0     H40476   2.613   1.733   3.714  0.4320  2.5576  0.1331
  307MOL0     H40477   2.708   1.445   3.735 -0.6954 -0.3578  0.3066
  307MOL0     H40478   2.624   1.217   3.681 -0.5098  0.2410  0.5306
  307MOL0     H40479   2.779   1.213   3.593 -1.0344 -1.3973 -0.7071
  307MOL0     H40480   2.631   1.036   3.505  4.3834  0.2134 -1.6435
  307MOL0     H40481   2.651   1.170   3.383  0.2040 -0.4488  0.5452
  307MOL0     H40482   2.420   1.239   3.420  2.4011 -0.3980 -0.1927
  307MOL0     H40483   2.436   1.070   3.374  0.9791 -2.9566  1.4116
  307MOL0     H40484   2.395   1.174   3.664  1.0139  1.0118 -0.9703
  307MOL0     H40485   2.390   1.007   3.606 -1.2064 -0.2533 -1.6438
  307MOL0     H40486   1.997   1.193   3.510  3.5319  0.9466  0.2880
  307MOL0     H40487   1.790   1.123   3.646 -0.7714 -2.5751  2.2712
  307MOL0     H40488   1.528   0.820   3.801  1.3460  0.3944  1.0072
  307MOL0     H40489   1.339   0.756   3.902  2.6345 -0.8424  0.0773
  307MOL0     H40490   1.156   0.724   4.014  2.9672  1.8412 -0.3534
  307MOL0     H40491   1.080   0.868   3.957 -2.1564 -0.8504  0.4534
  307MOL0     H40492   0.930   0.875   4.161  0.9105 -0.4816  0.1364
  307MOL0     H40493   1.037   0.751   4.231  0.0763 -0.8576 -0.3655
  307MOL0     H40494   0.968   0.576   4.076 -1.8579 -0.5039  0.7706
  307MOL0     H40495   0.894   0.689   3.962 -0.0611 -0.4516  0.4562
  307MOL0     H40496   0.801   0.612   4.248 -0.7419  2.0604  0.5832
  307MOL0     H40497   0.715   0.723   4.140  0.8154  0.1423 -0.5426
  307MOL0     H40498   0.770   0.427   4.119 -0.6073 -0.3918  3.6209
  307MOL0     H40499   0.711   0.518   3.974 -1.5526 -2.0729  0.2125
  307MOL0     H40500   0.564   0.524   4.242  0.8797 -0.1896  0.2090
  307MOL0     H40501   0.570   0.384   4.142  0.7859 -0.1325  0.5909
  307MOL0     H40502   0.386   0.590   4.146 -1.6337  2.6423 -1.4522
  307MOL0     H40503   0.493   0.648   4.019  2.3611 -0.3155  0.7908
  307MOL0     H40504   0.367   0.359   4.007 -3.1179  0.3694 -1.6041
  307MOL0     H40505   0.461   0.424   3.878  0.1050  2.0750 -0.0661
  307MOL0     H40506   1.365   1.099   4.176  2.3508 -0.3310  0.8763
  307MOL0     H40507   1.589   1.140   4.060  0.6305 -1.8809  1.5417
  307MOL0     H40508   2.061   0.938   3.932 -2.7260 -0.3739  0.4736
  307MOL0     H40509   2.248   0.983   3.786 -0.4036 -0.9871 -0.0737
  307MOL0     H40510   3.710   1.715   3.516  0.4595 -0.6858  1.1159
  307MOL0     H40511   3.980   1.770   3.529  2.9365  3.5199  0.4569
  307MOL0     H40512   4.270   2.169   3.297  1.2162  4.2236  0.0737
  307MOL0     H40513   4.516   2.197   3.303  2.3120  0.0356  0.7778
  307MOL0     H40514   4.712   2.228   3.326 -1.5581  2.9034  0.3013
  307MOL0     H40515   4.846   2.242   3.441  0.7904  2.8767  0.9751
  307MOL0     H40516   4.638   2.439   3.366  0.8466  2.1798 -1.0866
  307MOL0     H40517   4.707   2.448   3.529  1.5108 -0.1176  0.4343
  307MOL0     H40518   4.837   2.480   3.255  3.1125  3.4016  0.1402
  307MOL0     H40519   4.940   2.462   3.396 -0.2477 -1.5664 -0.9819
  307MOL0     H40520   4.816   2.657   3.498  0.5026  1.3663 -0.6380
  307MOL0     H40521   4.914   2.697   3.358 -0.4719  2.3737  0.6102
  307MOL0     H40522   4.504   2.737   3.220 -0.1771  0.3413  0.0187
  307MOL0     H40523   4.528   2.120   3.710  2.2285  1.5900 -1.0240
  307MOL0     H40524   4.285   2.056   3.717  0.1417  1.5536  0.2556
  308MOL0     O40525   7.411   4.093  10.350 -0.2522  0.0004  0.4402
  308MOL0     C40526   7.449   4.210  10.351  0.2050 -0.1994 -0.0259
  308MOL0     O40527   7.366   4.319  10.384 -0.2101  0.9072  0.1961
  308MOL0     C40528   7.237   4.309  10.438 -0.2534 -0.3330  0.5247
  308MOL0     C40529   7.180   4.201  10.500  0.4508  0.8717  1.1638
  308MOL0     C40530   7.068   4.207  10.582  0.0734  0.5643  0.1534
  308MOL0     C40531   6.983   4.320  10.559 -0.9883 -0.2967  0.7268
  308MOL0     O40532   6.858   4.314  10.611  0.1446  0.5974 -0.0586
  308MOL0     C40533   6.807   4.420  10.689  0.0472  0.8667  0.7798
  308MOL0     C40534   6.692   4.360  10.777 -0.2723  1.6079  0.7371
  308MOL0     C40535   6.623   4.478  10.848  0.0245  0.5231  0.4743
  308MOL0     C40536   6.529   4.419  10.947  1.0371  0.1861 -0.6239
  308MOL0     C40537   6.412   4.517  10.952 -0.3712 -0.5821  0.3814
  308MOL0     C40538   6.322   4.512  11.079  0.2807 -1.2438  0.0151
  308MOL0     C40539   6.195   4.601  11.073  0.1163 -0.4658 -1.3080
  308MOL0     C40540   6.116   4.591  11.213 -0.4082  0.5951 -0.1160
  308MOL0     N40541   6.051   4.458  11.220  1.1061 -0.1046  0.1634
  308MOL0     C40542   6.065   4.356  11.306 -0.1134 -0.2735  1.1470
  308MOL0     C40543   5.965   4.278  11.276 -0.3060  0.8276 -0.7879
  308MOL0     C40544   5.946   4.146  11.353 -0.4561  0.2959 -0.8979
  308MOL0     C40545   5.809   4.113  11.391  0.2897  0.0113 -0.0052
  308MOL0     C40546   5.814   3.968  11.447  0.3440  0.5490  0.5633
  308MOL0     C40547   5.684   3.929  11.504  0.4494  0.3818  0.5109
  308MOL0     O40548   5.643   4.007  11.619 -0.0118  0.4260 -0.0463
  308MOL0     C40549   5.502   4.003  11.626 -0.2499  0.8871 -0.2137
  308MOL0     C40550   5.434   3.887  11.645 -0.3044  0.1424  0.2601
  308MOL0     C40551   5.299   3.887  11.658  0.5127  0.7693  0.4899
  308MOL0     C40552   5.224   4.008  11.666 -0.3111 -0.9057  0.1719
  308MOL0     C40553   5.074   3.998  11.686 -0.8536 -0.3487 -0.3250
  308MOL0     O40554   5.001   4.115  11.661  0.2367 -0.3162  0.5509
  308MOL0     C40555   4.867   4.113  11.651 -0.0434  0.8182  0.3955
  308MOL0     C40556   4.794   4.192  11.735  1.3241  0.3816 -0.3039
  308MOL0     C40557   4.655   4.208  11.716 -0.0657  0.0813  0.0323
  308MOL0     C40558   4.588   4.136  11.615 -1.0498  0.6196 -0.3535
  308MOL0     O40559   4.460   4.133  11.581  0.9068  0.2698 -0.9194
  308MOL0     C40560   4.356   4.188  11.667  0.8352 -0.7295  0.0437
  308MOL0     C40561   4.333   4.112  11.799 -0.4825 -0.0692  0.9773
  308MOL0     C40562   4.296   3.965  11.784 -0.0610 -0.4146  0.2299
  308MOL0     C40563   4.147   3.960  11.743 -0.3718 -0.2441 -0.7293
  308MOL0     C40564   4.049   3.975  11.862 -0.7609 -0.0864  0.4823
  308MOL0     C40565   3.910   3.939  11.820 -0.1387 -0.1315 -0.7652
  308MOL0     C40566   3.848   4.023  11.701 -0.0847  0.0926 -0.0445
  308MOL0     C40567   3.835   4.169  11.744 -0.2160  0.3833 -0.2236
  308MOL0    Cl40568   3.709   4.258  11.648 -0.0395  0.2672 -0.3863
  308MOL0     C40569   4.659   4.058  11.533  0.2568  0.7696 -0.5194
  308MOL0     C40570   4.798   4.044  11.544  0.5188 -0.8234  0.1384
  308MOL0     O40571   5.030   3.890  11.715 -0.0787  0.2238  0.0882
  308MOL0     C40572   5.294   4.133  11.666  0.6719  0.0850  0.3049
  308MOL0     C40573   5.433   4.124  11.643 -0.3642  0.9248  0.6254
  308MOL0     N40574   5.891   4.320  11.173  0.2072 -0.4126 -0.3370
  308MOL0     N40575   5.936   4.437  11.142  1.0651  0.4120  0.9037
  308MOL0     C40576   7.030   4.429  10.488  0.4412  0.0083 -0.5181
  308MOL0     C40577   7.154   4.419  10.427 -0.4981  0.3874 -0.5399
  308MOL0     C40578   7.587   4.223  10.300  0.6154  0.6889 -0.5914
  308MOL0     C40579   7.667   4.112  10.261  0.2763  0.4872  0.1701
  308MOL0     C40580   7.801   4.134  10.227 -0.4889 -0.1144  0.8660
  308MOL0     C40581   7.867   4.258  10.231  0.5243 -0.2410  0.7679
  308MOL0     O40582   8.002   4.272  10.208  0.1245 -0.6565  0.2855
  308MOL0     C40583   8.073   4.386  10.259 -0.3618  0.1871 -0.1336
  308MOL0     C40584   8.212   4.360  10.225 -0.2641  0.4918 -0.2701
  308MOL0     C40585   8.308   4.478  10.262 -0.6679  0.9368 -0.0369
  308MOL0     C40586   8.452   4.433  10.234  0.1921  0.3105  0.0695
  308MOL0     C40587   8.497   4.314  10.303 -0.1302 -0.1499 -0.4516
  308MOL0     C40588   8.566   4.223  10.356 -0.1764 -0.7361  0.5009
  308MOL0     C40589   7.778   4.369  10.271 -0.6354 -0.3870 -0.4237
  308MOL0     C40590   7.643   4.343  10.304  0.1114 -1.2837  0.5480
  308MOL0     H40591   7.243   4.113  10.502  0.5004  0.7492 -1.5836
  308MOL0     H40592   7.032   4.117  10.632 -0.6023  1.3200  1.0608
  308MOL0     H40593   6.772   4.496  10.619 -2.1540 -0.6899  0.1003
  308MOL0     H40594   6.882   4.464  10.756  3.2276  0.4772 -2.2446
  308MOL0     H40595   6.741   4.285  10.841 -2.0553  0.8981  1.3127
  308MOL0     H40596   6.623   4.308  10.711  1.1656 -0.4187  0.7404
  308MOL0     H40597   6.569   4.539  10.775  4.6153  2.3914 -1.7245
  308MOL0     H40598   6.696   4.546  10.892  0.0621  1.1317 -0.4940
  308MOL0     H40599   6.498   4.319  10.916 -0.4020  0.6152 -0.5963
  308MOL0     H40600   6.576   4.396  11.043  1.0160 -3.8858 -1.4076
  308MOL0     H40601   6.359   4.503  10.857 -0.2319 -0.5105  0.2933
  308MOL0     H40602   6.455   4.617  10.955  0.7947 -1.0451 -0.0700
  308MOL0     H40603   6.386   4.548  11.160  0.0562  2.1563 -1.1653
  308MOL0     H40604   6.294   4.409  11.105  1.4031 -0.8799  3.0543
  308MOL0     H40605   6.225   4.706  11.067 -1.3873  0.2901  1.8567
  308MOL0     H40606   6.137   4.588  10.981 -0.8680  3.5631 -1.4476
  308MOL0     H40607   6.048   4.676  11.225  0.2797  0.8268  3.6770
  308MOL0     H40608   6.192   4.589  11.292 -1.2600 -2.3098  0.7588
  308MOL0     H40609   6.135   4.342  11.388 -0.5131 -2.8546  1.1320
  308MOL0     H40610   6.006   4.153  11.444 -0.8088  0.2565 -0.6629
  308MOL0     H40611   5.995   4.073  11.287 -0.9601  1.9014 -3.1933
  308MOL0     H40612   5.740   4.124  11.306 -1.4126  1.2941  1.4605
  308MOL0     H40613   5.775   4.185  11.466  0.8011 -0.7447  0.9695
  308MOL0     H40614   5.859   3.908  11.367  1.4688  1.7380  0.2758
  308MOL0     H40615   5.884   3.979  11.530  2.8441 -0.3961 -1.2791
  308MOL0     H40616   5.682   3.824  11.535  0.6852  0.9065  2.4507
  308MOL0     H40617   5.617   3.922  11.418  1.1470  1.0842 -0.1035
  308MOL0     H40618   5.482   3.791  11.661  0.5907  0.3727 -0.8905
  308MOL0     H40619   5.250   3.791  11.652  0.6761  0.7859 -3.4600
  308MOL0     H40620   4.845   4.243  11.817  0.1044  0.1784  0.6180
  308MOL0     H40621   4.597   4.274  11.779  0.0924  1.7052 -1.4385
  308MOL0     H40622   4.260   4.205  11.617  1.3311  0.8059 -0.4333
  308MOL0     H40623   4.379   4.293  11.688  0.0898 -0.0943 -2.0180
  308MOL0     H40624   4.255   4.161  11.859 -3.0291 -1.0948 -1.3099
  308MOL0     H40625   4.425   4.128  11.855  1.6731  0.3380 -2.4103
  308MOL0     H40626   4.312   3.902  11.872 -2.2807 -3.2252 -1.1888
  308MOL0     H40627   4.368   3.928  11.711  0.4792  1.4788 -0.2361
  308MOL0     H40628   4.132   4.044  11.675  1.5777 -0.4353 -1.4555
  308MOL0     H40629   4.137   3.861  11.696  1.2656 -0.9014  0.2226
  308MOL0     H40630   4.033   4.078  11.896 -0.6423  0.3215 -0.6657
  308MOL0     H40631   4.085   3.905  11.938 -1.6453 -1.5538 -0.4124
  308MOL0     H40632   3.848   3.955  11.908  0.9168  2.5711 -0.4111
  308MOL0     H40633   3.906   3.832  11.800  2.2566 -0.4135 -0.0195
  308MOL0     H40634   3.911   4.020  11.611 -0.3268  2.4912 -0.3521
  308MOL0     H40635   3.748   3.991  11.670  0.3850 -0.6813 -0.8166
  308MOL0     H40636   3.938   4.199  11.727 -0.4483  0.0276 -2.7023
  308MOL0     H40637   3.798   4.178  11.846  3.7662  3.0643  1.2107
  308MOL0     H40638   4.598   3.999  11.465  0.8538  0.4314 -0.7757
  308MOL0     H40639   4.856   3.983  11.476  0.8698 -2.1223  1.5469
  308MOL0     H40640   5.238   4.225  11.681  0.0344  0.0698 -1.7628
  308MOL0     H40641   5.489   4.217  11.642  0.1268  0.6959  2.3545
  308MOL0     H40642   6.962   4.514  10.484 -2.1290 -1.9256 -0.2418
  308MOL0     H40643   7.196   4.504  10.375 -1.3452  0.7690 -0.6134
  308MOL0     H40644   7.630   4.010  10.267  1.7899 -0.0256  1.3857
  308MOL0     H40645   7.866   4.052  10.196 -0.3842  1.5453 -4.2072
  308MOL0     H40646   8.063   4.385  10.368  0.3234 -2.1235 -0.0353
  308MOL0     H40647   8.040   4.475  10.204 -0.4078 -0.5263 -1.3070
  308MOL0     H40648   8.240   4.283  10.297  0.4712  1.3165  0.3492
  308MOL0     H40649   8.222   4.325  10.122 -0.3024 -1.2332  0.2900
  308MOL0     H40650   8.310   4.496  10.369  3.8306 -2.3814  0.7321
  308MOL0     H40651   8.288   4.568  10.203 -0.0527  1.2093  0.1661
  308MOL0     H40652   8.458   4.410  10.128  0.9003 -2.4569  0.6349
  308MOL0     H40653   8.522   4.517  10.250  1.8613 -1.3614  2.2351
  308MOL0     H40654   8.614   4.138  10.400 -1.2146 -1.7742 -0.3059
  308MOL0     H40655   7.822   4.467  10.285 -3.0709  0.7891 -0.5256
  308MOL0     H40656   7.579   4.425  10.334  0.2758 -1.5452  1.6415
  309MOL0     O40657   4.226  10.494   4.303 -0.0220  0.2676  0.4469
  309MOL0     C40658   4.176  10.465   4.406 -0.4752  0.0973 -0.6178
  309MOL0     O40659   4.246  10.390   4.500 -0.2449  0.4505  0.6142
  309MOL0     C40660   4.383  10.367   4.477 -0.2533 -1.8299 -0.2070
  309MOL0     C40661   4.448  10.238   4.504 -0.0734  0.9436 -0.0878
  309MOL0     C40662   4.584  10.227   4.484 -0.3859  0.2646  0.3477
  309MOL0     C40663   4.675  10.332   4.452  0.2325 -0.1600  0.4585
  309MOL0     O40664   4.810  10.321   4.449 -0.5131  0.6071  0.2401
  309MOL0     C40665   4.887  10.220   4.512  0.9238  0.9125  0.0659
  309MOL0     C40666   5.022  10.267   4.561  1.1729  0.8192  1.0070
  309MOL0     C40667   5.018  10.369   4.676 -0.1050  0.3097  0.0960
  309MOL0     C40668   5.003  10.514   4.626  1.1075 -0.1096 -0.1756
  309MOL0     C40669   5.010  10.611   4.745 -0.3158 -0.2403  0.9436
  309MOL0     C40670   4.985  10.753   4.693  0.9289  0.3416 -0.1018
  309MOL0     C40671   4.829  10.781   4.679 -0.9914 -0.0159 -0.0120
  309MOL0     C40672   4.760  10.802   4.814 -0.2787 -0.5082 -0.3957
  309MOL0     N40673   4.622  10.811   4.809 -0.2279  0.3215 -0.0675
  309MOL0     C40674   4.535  10.714   4.760  0.4212  0.1995  0.6353
  309MOL0     C40675   4.412  10.744   4.802  0.0358  0.1670 -0.5831
  309MOL0     C40676   4.277  10.674   4.786  0.3292 -0.0478 -0.0554
  309MOL0     C40677   4.161  10.764   4.804 -0.4363 -0.5839  0.0902
  309MOL0     C40678   4.019  10.703   4.795 -0.1235  0.0963  0.5310
  309MOL0     C40679   4.013  10.576   4.891 -0.6286 -0.1680 -0.2204
  309MOL0     O40680   3.880  10.530   4.887  0.3530 -0.1686  0.1597
  309MOL0     C40681   3.782  10.575   4.975 -0.1303 -0.1927 -0.5391
  309MOL0     C40682   3.651  10.519   4.966 -1.4141  0.5321  0.2181
  309MOL0     C40683   3.538  10.565   5.039 -0.4938 -0.2001 -0.5701
  309MOL0     C40684   3.561  10.628   5.157 -0.5928 -0.6548  0.1096
  309MOL0     C40685   3.448  10.668   5.250 -0.1672 -0.6919  0.4285
  309MOL0     O40686   3.323  10.631   5.210  0.0112  0.3783  0.5079
  309MOL0     C40687   3.214  10.682   5.274  0.6848  0.9069 -0.2124
  309MOL0     C40688   3.151  10.796   5.224  0.6832 -0.3885 -0.2574
  309MOL0     C40689   3.045  10.848   5.289 -0.4117  1.0160  0.3008
  309MOL0     C40690   2.981  10.773   5.388  0.4345  0.6308  0.9222
  309MOL0     O40691   2.877  10.824   5.454  0.5457  0.5718 -0.6989
  309MOL0     C40692   2.751  10.840   5.382 -0.5602  0.5014 -0.7413
  309MOL0     C40693   2.669  10.706   5.388  0.2980  0.9928 -0.1357
  309MOL0     C40694   2.527  10.737   5.342 -0.8618 -0.7908 -0.1127
  309MOL0     C40695   2.446  10.604   5.334 -0.2898  0.4736 -1.1717
  309MOL0     C40696   2.297  10.638   5.297  0.1466  0.1450  0.4964
  309MOL0     C40697   2.225  10.693   5.406 -0.2298 -0.4949  0.3648
  309MOL0     C40698   2.070  10.677   5.380 -0.7869 -0.4879  0.5660
  309MOL0     C40699   2.007  10.808   5.333 -0.6886  1.0774 -0.2919
  309MOL0    Cl40700   2.097  10.915   5.211  0.1160 -0.0925 -0.1769
  309MOL0     C40701   3.038  10.653   5.437  0.3322 -0.5672  0.6089
  309MOL0     C40702   3.159  10.608   5.383  0.5395  0.3318 -0.3062
  309MOL0     O40703   3.476  10.741   5.339  0.1550 -0.1517 -0.0640
  309MOL0     C40704   3.694  10.672   5.188  0.2422 -0.5261  0.3082
  309MOL0     C40705   3.798  10.653   5.090 -0.1975  0.7504 -0.8258
  309MOL0     N40706   4.440  10.861   4.886 -0.4091  0.3263  0.8974
  309MOL0     N40707   4.560  10.903   4.878  0.5356 -0.2736  0.1078
  309MOL0     C40708   4.607  10.456   4.427  0.1153  0.3258 -0.6568
  309MOL0     C40709   4.472  10.474   4.447  0.1965 -0.2085 -0.1179
  309MOL0     C40710   4.037  10.503   4.424  0.0136  0.1150  0.4365
  309MOL0     C40711   3.973  10.595   4.338  0.4019  0.0358  0.3852
  309MOL0     C40712   3.847  10.652   4.363 -0.0178  0.8957  0.1762
  309MOL0     C40713   3.774  10.594   4.467 -0.2845  0.5571 -0.5281
  309MOL0     O40714   3.642  10.634   4.482  0.4503 -0.0973  0.9459
  309MOL0     C40715   3.562  10.575   4.591 -1.1554  0.5182 -0.0828
  309MOL0     C40716   3.425  10.634   4.586 -0.5228  0.6788 -0.4913
  309MOL0     C40717   3.349  10.608   4.718 -0.1258 -0.7646  0.5403
  309MOL0     C40718   3.228  10.527   4.717  0.5762  0.5410 -0.9103
  309MOL0     C40719   3.169  10.515   4.854  0.6052 -0.1257 -0.1455
  309MOL0     C40720   3.097  10.513   4.945  0.1462  0.8069 -0.6651
  309MOL0     C40721   3.837  10.502   4.556 -0.3264  0.4260  0.0878
  309MOL0     C40722   3.969  10.449   4.534  0.5792 -0.9755  0.1439
  309MOL0     H40723   4.395  10.147   4.532  2.1571 -0.9577 -1.7182
  309MOL0     H40724   4.620  10.126   4.496 -3.0234 -0.8228 -0.3421
  309MOL0     H40725   4.899  10.140   4.438  1.4801  0.5254  0.5551
  309MOL0     H40726   4.836  10.179   4.600  2.4880  0.2291  0.7110
  309MOL0     H40727   5.076  10.299   4.471  3.2518 -0.1074  1.8635
  309MOL0     H40728   5.078  10.179   4.595  0.8686 -0.6165 -1.8543
  309MOL0     H40729   5.118  10.365   4.720  0.8605 -1.3670 -2.0565
  309MOL0     H40730   4.942  10.340   4.749 -0.6963 -0.4890 -0.8208
  309MOL0     H40731   5.079  10.540   4.552 -0.9829  0.8621 -2.0588
  309MOL0     H40732   4.902  10.527   4.586  1.3262  0.4642 -0.5491
  309MOL0     H40733   5.113  10.601   4.781 -0.2419  0.9285  1.0885
  309MOL0     H40734   4.943  10.583   4.827 -2.0813 -1.9072 -0.9625
  309MOL0     H40735   5.030  10.772   4.595  1.0581  2.1177  0.2779
  309MOL0     H40736   5.015  10.826   4.769  1.2936  2.3761 -2.0837
  309MOL0     H40737   4.810  10.867   4.614 -2.7057 -2.4096 -2.9180
  309MOL0     H40738   4.786  10.701   4.619 -0.6427 -0.1989 -0.0207
  309MOL0     H40739   4.799  10.900   4.844  0.0231  0.6801 -4.1319
  309MOL0     H40740   4.794  10.723   4.881  1.4249 -0.5888 -1.3014
  309MOL0     H40741   4.575  10.634   4.700  1.4089  0.2968  1.1441
  309MOL0     H40742   4.264  10.584   4.847 -2.2388  1.6123  2.0774
  309MOL0     H40743   4.272  10.645   4.681 -1.9169 -0.6044  0.1543
  309MOL0     H40744   4.162  10.826   4.714  0.9953 -0.1521  0.3697
  309MOL0     H40745   4.166  10.822   4.896  3.1296  1.1530 -1.0026
  309MOL0     H40746   3.944  10.775   4.829 -0.6986 -0.9102  1.4608
  309MOL0     H40747   4.003  10.681   4.689 -1.0720  0.5562  0.5698
  309MOL0     H40748   4.045  10.600   4.992  0.2785  4.6533 -1.4226
  309MOL0     H40749   4.077  10.496   4.851  0.1667  0.0219  0.6410
  309MOL0     H40750   3.636  10.457   4.879 -0.9318  2.1432 -1.0565
  309MOL0     H40751   3.437  10.546   5.005 -0.2069  0.8436 -2.0961
  309MOL0     H40752   3.199  10.852   5.144 -1.2133  1.5318 -0.1598
  309MOL0     H40753   3.021  10.945   5.247  0.4499  0.5995 -1.2377
  309MOL0     H40754   2.773  10.867   5.278 -0.5942  3.2543 -0.1245
  309MOL0     H40755   2.685  10.921   5.416 -1.2634  0.6872 -2.4604
  309MOL0     H40756   2.677  10.685   5.495  0.8367  0.9275 -0.1825
  309MOL0     H40757   2.716  10.626   5.329 -1.5141  1.8456 -2.9014
  309MOL0     H40758   2.525  10.787   5.245 -2.1423  2.2298  1.3504
  309MOL0     H40759   2.486  10.807   5.415  2.0049 -1.6561  2.5677
  309MOL0     H40760   2.499  10.534   5.269  0.2158  0.6779 -0.9865
  309MOL0     H40761   2.447  10.556   5.433  1.4387  1.0496 -0.8800
  309MOL0     H40762   2.244  10.548   5.264 -1.9578  1.3102  0.4653
  309MOL0     H40763   2.304  10.711   5.215  3.2978  0.9586  1.3648
  309MOL0     H40764   2.257  10.798   5.413  0.5134 -0.7594  0.9890
  309MOL0     H40765   2.256  10.648   5.500  0.2834 -0.1032  0.3871
  309MOL0     H40766   2.050  10.609   5.297 -1.5995 -0.1377  0.4610
  309MOL0     H40767   2.020  10.632   5.466  2.6488 -0.8224  2.5532
  309MOL0     H40768   1.998  10.870   5.422 -0.0419 -2.1438  2.2234
  309MOL0     H40769   1.904  10.791   5.302 -1.0694 -0.1437  1.5337
  309MOL0     H40770   2.985  10.615   5.524 -0.3302  2.3897  1.6392
  309MOL0     H40771   3.205  10.517   5.420 -1.2341 -0.3709  0.2539
  309MOL0     H40772   3.718  10.728   5.278  0.6828 -0.0648 -0.0899
  309MOL0     H40773   3.891  10.695   5.126 -2.4477  2.3483  4.1309
  309MOL0     H40774   4.669  10.544   4.415 -1.3621  1.5551  0.3769
  309MOL0     H40775   4.439  10.576   4.434  0.2551 -0.4217 -2.3407
  309MOL0     H40776   4.031  10.624   4.251 -1.9502 -2.9518 -2.4002
  309MOL0     H40777   3.808  10.731   4.300  0.1101  2.1456  1.5868
  309MOL0     H40778   3.618  10.597   4.683  0.1798 -1.0510 -0.4716
  309MOL0     H40779   3.560  10.467   4.576 -0.6137  0.8066 -2.8753
  309MOL0     H40780   3.447  10.737   4.558 -0.0669  0.3403 -1.4018
  309MOL0     H40781   3.376  10.588   4.500 -1.5157  0.5810  0.1159
  309MOL0     H40782   3.309  10.705   4.751 -3.8518 -2.9867  3.3514
  309MOL0     H40783   3.413  10.575   4.801  0.2129  2.7658  1.8878
  309MOL0     H40784   3.156  10.573   4.648 -0.1232 -0.1411 -0.6466
  309MOL0     H40785   3.232  10.424   4.679 -2.6439  1.2844 -3.7718
  309MOL0     H40786   3.030  10.505   5.028 -1.2834 -1.0088 -1.9173
  309MOL0     H40787   3.785  10.453   4.637 -2.1253  1.2999 -0.4931
  309MOL0     H40788   4.006  10.366   4.593 -0.8191 -1.5756  0.1892
  310MOL0     O40789  10.793   8.589   4.722  0.1524 -0.1639  0.7415
  310MOL0     C40790  10.771   8.468   4.717 -0.2223 -0.5206 -0.1684
  310MOL0     O40791  10.862   8.367   4.711  0.1376 -0.2675  0.1457
  310MOL0     C40792  10.998   8.398   4.697  0.3866  0.3756 -0.1974
  310MOL0     C40793  11.074   8.407   4.809 -0.6846  0.1794 -0.1725
  310MOL0     C40794  11.209   8.436   4.803 -0.9686 -0.6159  0.7638
  310MOL0     C40795  11.271   8.451   4.680  0.1042  0.0679  0.4544
  310MOL0     O40796  11.411   8.463   4.685 -0.4291 -0.5445  0.1796
  310MOL0     C40797  11.477   8.451   4.551  0.3393 -0.4090  0.9297
  310MOL0     C40798  11.626   8.433   4.565  0.9771 -0.0370  0.4931
  310MOL0     C40799  11.668   8.577   4.608 -0.3843  0.7260 -0.0340
  310MOL0     C40800  11.819   8.572   4.606 -0.2864  0.6034  0.1725
  310MOL0     C40801  11.886   8.704   4.660 -0.3761 -0.4475 -0.4723
  310MOL0     C40802  11.835   8.837   4.595  0.0686 -0.3836 -0.5643
  310MOL0     C40803  11.847   8.958   4.691 -0.3006  0.7710 -0.7101
  310MOL0     C40804  11.773   9.075   4.643  0.7840  0.3984 -0.2543
  310MOL0     N40805  11.633   9.036   4.618 -0.5869  0.5130  0.8236
  310MOL0     C40806  11.552   8.964   4.699 -0.0970  0.5603 -0.2465
  310MOL0     C40807  11.438   8.936   4.630 -0.2378  0.3501  0.0503
  310MOL0     C40808  11.322   8.862   4.690 -0.7064  0.2376  0.0960
  310MOL0     C40809  11.224   8.823   4.581  0.5902  0.3776  0.1377
  310MOL0     C40810  11.148   8.943   4.528 -0.0203  0.1812 -1.0912
  310MOL0     C40811  11.089   8.892   4.385 -1.6297 -0.3573  0.1126
  310MOL0     O40812  10.996   8.986   4.338 -0.5322 -0.2151  0.4256
  310MOL0     C40813  10.866   8.957   4.361 -0.5370 -1.0028 -0.5421
  310MOL0     C40814  10.776   9.008   4.273  0.1011 -0.2081  0.5545
  310MOL0     C40815  10.635   8.991   4.293 -0.5161  0.6766  0.4134
  310MOL0     C40816  10.576   8.918   4.400 -0.2062  0.8130 -0.2915
  310MOL0     C40817  10.428   8.894   4.407 -0.4251 -0.3733 -0.7471
  310MOL0     O40818  10.350   8.933   4.302 -0.5318 -0.7442  0.5245
  310MOL0     C40819  10.220   8.908   4.286 -0.1155 -0.0883  0.9166
  310MOL0     C40820  10.162   8.793   4.324  0.5090  0.1943  0.2561
  310MOL0     C40821  10.027   8.774   4.288  0.7770  0.0630 -0.1527
  310MOL0     C40822   9.955   8.872   4.215 -1.2542 -0.1988 -0.5723
  310MOL0     O40823   9.815   8.860   4.207  0.4168  0.6307  1.2120
  310MOL0     C40824   9.785   8.742   4.133 -0.3070 -0.0005  0.0246
  310MOL0     C40825   9.639   8.763   4.092 -0.9537  0.3340 -0.4467
  310MOL0     C40826   9.559   8.800   4.213  0.5802 -0.1324  0.4932
  310MOL0     C40827   9.410   8.804   4.175  0.8798  0.1590 -0.6964
  310MOL0     C40828   9.332   8.663   4.170 -0.9801 -0.4953  0.0179
  310MOL0     C40829   9.378   8.574   4.291  0.1281  0.1017  0.0875
  310MOL0     C40830   9.274   8.458   4.316  0.4980  0.7968 -0.2225
  310MOL0     C40831   9.144   8.516   4.355  0.5066 -0.2122 -0.8776
  310MOL0    Cl40832   9.050   8.403   4.461  0.1740 -0.4660 -0.0870
  310MOL0     C40833  10.018   8.994   4.179  0.4718 -0.8491  0.4812
  310MOL0     C40834  10.152   9.006   4.204  0.3291  0.6223  0.0598
  310MOL0     O40835  10.393   8.831   4.504  0.0737  0.2709  0.2880
  310MOL0     C40836  10.674   8.861   4.489 -0.1555 -0.8208 -1.0350
  310MOL0     C40837  10.817   8.880   4.473 -0.0782  0.0546  0.1684
  310MOL0     N40838  11.451   8.989   4.501  0.3651 -0.1312 -0.0811
  310MOL0     N40839  11.573   9.044   4.498 -0.4295 -0.1062 -0.0059
  310MOL0     C40840  11.196   8.445   4.560 -0.3936  0.0572  0.6056
  310MOL0     C40841  11.058   8.411   4.570 -0.2893 -0.2359 -0.1999
  310MOL0     C40842  10.627   8.429   4.725 -0.9237  0.2792 -0.5742
  310MOL0     C40843  10.590   8.308   4.782  0.0847 -0.2187 -0.0379
  310MOL0     C40844  10.456   8.269   4.793  0.5110  0.4882 -0.1858
  310MOL0     C40845  10.347   8.349   4.754 -0.2142 -0.1975 -0.3919
  310MOL0     O40846  10.223   8.292   4.764  0.0429 -0.4678  0.6083
  310MOL0     C40847  10.121   8.396   4.773 -0.0198  0.4669  0.4910
  310MOL0     C40848  10.011   8.332   4.852  0.3759  0.2264 -0.7454
  310MOL0     C40849   9.909   8.427   4.918  1.2545 -0.0795 -0.3669
  310MOL0     C40850   9.801   8.345   5.008 -0.1988 -0.4922 -0.3627
  310MOL0     C40851   9.851   8.335   5.146  0.3097 -0.0309 -0.7949
  310MOL0     C40852   9.898   8.345   5.256 -0.7683 -0.1499 -0.6751
  310MOL0     C40853  10.388   8.474   4.709  0.4697 -0.5081  0.5985
  310MOL0     C40854  10.519   8.514   4.702 -1.4979 -0.3208 -0.5415
  310MOL0     H40855  11.011   8.408   4.897 -0.6308  3.0569 -0.0781
  310MOL0     H40856  11.273   8.425   4.890 -0.2782  0.5231  0.4278
  310MOL0     H40857  11.463   8.543   4.495  0.3817 -1.7453 -1.4222
  310MOL0     H40858  11.443   8.366   4.490 -1.3620  1.5750 -1.0181
  310MOL0     H40859  11.669   8.417   4.466  1.0761  1.7745  0.2002
  310MOL0     H40860  11.642   8.351   4.635 -2.3851 -2.0772 -0.9004
  310MOL0     H40861  11.636   8.605   4.709  0.6198  0.8880  0.2510
  310MOL0     H40862  11.639   8.655   4.537  0.9868  1.5389  0.2409
  310MOL0     H40863  11.849   8.490   4.672  2.4462 -1.3560 -3.1687
  310MOL0     H40864  11.863   8.549   4.509 -0.4877 -2.2156  0.6766
  310MOL0     H40865  11.995   8.701   4.647 -0.1847  1.0239  0.5468
  310MOL0     H40866  11.873   8.697   4.768  2.9994 -1.7868 -0.0247
  310MOL0     H40867  11.734   8.821   4.555 -0.6511  0.1406  0.9834
  310MOL0     H40868  11.887   8.854   4.500  1.4670  0.5779  0.3378
  310MOL0     H40869  11.812   8.936   4.792 -4.6179  4.8666 -0.9705
  310MOL0     H40870  11.949   8.995   4.702 -0.6662  1.7995 -0.6900
  310MOL0     H40871  11.816   9.109   4.549  1.6460 -1.7463 -0.6906
  310MOL0     H40872  11.756   9.163   4.706 -5.7088 -0.1042 -0.5763
  310MOL0     H40873  11.576   8.931   4.799  0.9422 -1.1740 -1.0161
  310MOL0     H40874  11.273   8.912   4.774 -1.3243 -1.3598  0.7245
  310MOL0     H40875  11.354   8.767   4.733  1.8639  1.2019  0.5149
  310MOL0     H40876  11.153   8.753   4.626 -0.9408  1.9364  0.2441
  310MOL0     H40877  11.281   8.787   4.494 -1.4024 -5.0090  0.6414
  310MOL0     H40878  11.066   8.960   4.599 -0.1477 -3.7666 -0.0638
  310MOL0     H40879  11.217   9.024   4.503 -1.8014  2.7788  1.7372
  310MOL0     H40880  11.045   8.791   4.387  1.3866 -1.8140 -0.3127
  310MOL0     H40881  11.177   8.885   4.320 -0.3119  0.0549  1.8000
  310MOL0     H40882  10.798   9.068   4.186 -2.4427  0.1753  0.1097
  310MOL0     H40883  10.571   9.031   4.214  0.6340  1.0058 -0.3785
  310MOL0     H40884  10.212   8.712   4.376 -1.4321 -0.0242  1.9314
  310MOL0     H40885   9.975   8.687   4.325 -1.7947  1.4525 -0.2682
  310MOL0     H40886   9.783   8.656   4.201 -0.6920  1.0603  1.3915
  310MOL0     H40887   9.851   8.730   4.046 -0.1671 -0.4645  0.1921
  310MOL0     H40888   9.621   8.662   4.054  2.3460 -1.1867  1.6284
  310MOL0     H40889   9.635   8.835   4.010 -1.0473 -0.9755 -1.6462
  310MOL0     H40890   9.589   8.900   4.244 -0.1258  1.0727 -2.3858
  310MOL0     H40891   9.581   8.739   4.301  2.6935  1.9006  1.4664
  310MOL0     H40892   9.375   8.875   4.251  2.3182 -1.2508  1.3692
  310MOL0     H40893   9.394   8.858   4.081 -0.1749 -0.2369 -0.7621
  310MOL0     H40894   9.344   8.609   4.076 -2.6850  0.1805 -0.6345
  310MOL0     H40895   9.229   8.697   4.181 -1.7855 -3.1230  1.4213
  310MOL0     H40896   9.395   8.634   4.380 -2.6308  0.3711  0.5217
  310MOL0     H40897   9.470   8.522   4.264 -0.0516  1.9912 -5.3081
  310MOL0     H40898   9.269   8.406   4.221  2.6214  0.3258 -0.1110
  310MOL0     H40899   9.313   8.395   4.397  4.8755  0.7777 -2.0647
  310MOL0     H40900   9.094   8.551   4.265 -0.4149 -0.5418 -0.4982
  310MOL0     H40901   9.165   8.608   4.412 -2.2731 -1.0710  1.8115
  310MOL0     H40902   9.972   9.077   4.126  3.6935  0.5692 -0.3317
  310MOL0     H40903  10.212   9.090   4.171 -0.8126  1.4506  0.0179
  310MOL0     H40904  10.658   8.789   4.568  1.0335 -1.3261 -1.2404
  310MOL0     H40905  10.886   8.831   4.541  1.6912  1.5819 -0.4530
  310MOL0     H40906  11.240   8.462   4.462 -1.0128  1.7103  0.5777
  310MOL0     H40907  10.998   8.407   4.480 -0.8433 -2.6517  0.2002
  310MOL0     H40908  10.666   8.237   4.815 -0.5046 -1.0077 -0.3352
  310MOL0     H40909  10.423   8.176   4.837 -2.2595  0.5673 -1.8494
  310MOL0     H40910  10.088   8.440   4.678  0.3239  0.1881  0.2421
  310MOL0     H40911  10.147   8.482   4.835  1.4058 -1.4704  2.7468
  310MOL0     H40912   9.957   8.260   4.791 -0.6152 -0.8159  1.2474
  310MOL0     H40913  10.062   8.273   4.929 -0.5912  0.4506  0.0989
  310MOL0     H40914   9.857   8.480   4.837 -1.0750  1.4341  1.9703
  310MOL0     H40915   9.961   8.502   4.976  0.8638 -1.0975  1.3760
  310MOL0     H40916   9.701   8.388   5.004 -0.5561 -1.2613  0.0467
  310MOL0     H40917   9.786   8.243   4.971 -0.6261 -0.3843 -0.4822
  310MOL0     H40918   9.949   8.377   5.344 -1.7391 -1.8618  0.5871
  310MOL0     H40919  10.317   8.547   4.672  2.0091  0.8877  0.2737
  310MOL0     H40920  10.530   8.613   4.656 -2.7723  0.5024  0.8421
  311MOL0     O40921  10.397   3.299   0.252  0.7035  0.6554  0.1985
  311MOL0     C40922  10.284   3.242   0.243 -0.6314  0.1467 -0.0454
  311MOL0     O40923  10.174   3.305   0.190  0.1035 -0.3434 -0.4173
  311MOL0     C40924  10.144   3.430   0.151 -0.3128 -0.0497 -0.2489
  311MOL0     C40925  10.237   3.508   0.072  0.4718 -0.5231  0.2065
  311MOL0     C40926  10.216   3.646   0.044 -0.4714  0.1795 -0.5613
  311MOL0     C40927  10.092   3.702   0.082 -0.3118  0.1149 -0.2556
  311MOL0     O40928  10.057   3.829   0.069  0.1819  0.7612  0.2439
  311MOL0     C40929  10.045   3.863  -0.071 -0.3003 -0.7667  0.2326
  311MOL0     C40930  10.015   4.017  -0.082 -0.2050 -0.0832  0.1830
  311MOL0     C40931   9.871   4.061  -0.056 -0.0329  0.0328  0.2953
  311MOL0     C40932   9.806   4.014   0.064 -0.1176 -0.3828 -0.1406
  311MOL0     C40933   9.658   4.059   0.076 -0.3841 -0.0876  0.1135
  311MOL0     C40934   9.633   4.204   0.073  0.0877 -0.1306  0.2919
  311MOL0     C40935   9.685   4.271   0.198 -0.1861  0.0592  0.7423
  311MOL0     C40936   9.606   4.402   0.216 -0.0138  0.2344 -0.4446
  311MOL0     N40937   9.473   4.397   0.284 -0.2798 -0.2442  0.7312
  311MOL0     C40938   9.369   4.304   0.275  0.0905 -0.1057 -0.0245
  311MOL0     C40939   9.277   4.346   0.352 -0.4775 -1.3307  0.5534
  311MOL0     C40940   9.150   4.272   0.384 -0.3227  0.5186  0.0942
  311MOL0     C40941   9.036   4.335   0.311 -0.2355 -0.7611 -0.1455
  311MOL0     C40942   8.925   4.223   0.295  0.6182 -0.1530 -0.6742
  311MOL0     C40943   8.798   4.290   0.233 -0.0714 -0.3079  0.7209
  311MOL0     O40944   8.694   4.188   0.237  0.6070  0.0549  0.6384
  311MOL0     C40945   8.606   4.217   0.333  0.0988 -0.1829 -0.9594
  311MOL0     C40946   8.482   4.153   0.319 -0.1134  0.1482  0.6088
  311MOL0     C40947   8.368   4.187   0.401 -0.0033  0.2557  0.5388
  311MOL0     C40948   8.382   4.284   0.502  0.5397 -0.3774 -0.8585
  311MOL0     C40949   8.263   4.318   0.577 -0.5270 -0.9220  0.0017
  311MOL0     O40950   8.273   4.362   0.704 -0.3594  0.3430  0.2967
  311MOL0     C40951   8.168   4.424   0.756  1.5393  0.4649  0.7267
  311MOL0     C40952   8.051   4.365   0.803  0.8843  0.5340 -0.9491
  311MOL0     C40953   7.942   4.431   0.865  0.2797 -0.9229  0.4909
  311MOL0     C40954   7.947   4.571   0.883 -0.8322 -0.1017 -0.3398
  311MOL0     O40955   7.843   4.650   0.908 -0.5878 -0.8149 -0.6152
  311MOL0     C40956   7.709   4.587   0.906 -0.0620 -0.7846  0.0342
  311MOL0     C40957   7.611   4.709   0.890  0.6126  0.8574  0.8973
  311MOL0     C40958   7.471   4.667   0.921 -0.3272  0.6201 -0.3239
  311MOL0     C40959   7.439   4.544   0.835  0.5181  0.0144 -0.3396
  311MOL0     C40960   7.293   4.500   0.845 -0.5595 -0.1995  0.2702
  311MOL0     C40961   7.195   4.623   0.865 -0.4542  0.1037  0.3281
  311MOL0     C40962   7.049   4.581   0.866  0.0311  0.4011  0.1974
  311MOL0     C40963   7.012   4.489   0.986 -0.6023 -1.0125  0.1304
  311MOL0    Cl40964   7.053   4.576   1.131 -0.1449  0.1545  0.4016
  311MOL0     C40965   8.060   4.634   0.824  0.1479  0.2786 -0.8532
  311MOL0     C40966   8.171   4.564   0.764 -0.0126 -0.2070 -0.2030
  311MOL0     O40967   8.153   4.316   0.513 -0.1667 -0.1941  0.0547
  311MOL0     C40968   8.506   4.328   0.534  0.4562 -0.1011  0.5485
  311MOL0     C40969   8.615   4.298   0.451 -0.0746  1.0713  0.2495
  311MOL0     N40970   9.315   4.464   0.409  0.3101 -0.0825 -0.4469
  311MOL0     N40971   9.430   4.496   0.368 -0.1462 -0.8366  0.2941
  311MOL0     C40972   9.995   3.619   0.146 -0.0122 -0.2979  0.1274
  311MOL0     C40973  10.022   3.487   0.178 -0.0347 -0.9129  0.1864
  311MOL0     C40974  10.267   3.099   0.285  0.0310  0.3789 -0.6458
  311MOL0     C40975  10.143   3.051   0.306  0.3287  1.3984  0.0554
  311MOL0     C40976  10.132   2.911   0.333  0.4956  0.7957 -0.3329
  311MOL0     C40977  10.239   2.828   0.362 -0.4734  0.2571  0.6482
  311MOL0     O40978  10.234   2.700   0.409  0.5336 -0.2889  0.2628
  311MOL0     C40979  10.098   2.643   0.427 -0.5304  0.1394 -0.1137
  311MOL0     C40980  10.128   2.495   0.465 -0.3715  0.1913 -0.4772
  311MOL0     C40981  10.158   2.391   0.359  0.3626  0.4886 -0.4072
  311MOL0     C40982  10.040   2.359   0.262  0.7237 -0.4929 -0.2305
  311MOL0     C40983  10.088   2.243   0.181  0.9930 -0.7224  0.5506
  311MOL0     C40984  10.145   2.160   0.109  0.4430  0.2245 -0.1823
  311MOL0     C40985  10.370   2.882   0.341  0.0388 -0.5415 -0.2407
  311MOL0     C40986  10.378   3.015   0.297 -0.4478  0.4937 -0.1833
  311MOL0     H40987  10.329   3.463   0.037  1.7264 -0.2349  2.9399
  311MOL0     H40988  10.281   3.707  -0.017  1.1018 -0.9140 -0.0360
  311MOL0     H40989   9.955   3.813  -0.109  1.1649 -2.9353 -0.5396
  311MOL0     H40990  10.130   3.832  -0.132 -1.0951 -0.5496 -1.0236
  311MOL0     H40991  10.035   4.056  -0.182 -0.6305  1.2716  0.5958
  311MOL0     H40992  10.081   4.070  -0.012  0.3625 -1.8972  1.0891
  311MOL0     H40993   9.806   4.021  -0.135 -0.2756  3.6384 -1.5582
  311MOL0     H40994   9.864   4.169  -0.070 -2.0123 -0.0254  0.5244
  311MOL0     H40995   9.814   3.905   0.066  0.1037 -0.3767 -0.5971
  311MOL0     H40996   9.858   4.033   0.158  2.1570  0.9228 -1.5572
  311MOL0     H40997   9.616   4.026   0.171 -1.1049  1.4171  0.3440
  311MOL0     H40998   9.600   4.009  -0.003 -0.1107 -4.0667  2.1676
  311MOL0     H40999   9.524   4.212   0.075  0.1179  2.4029 -1.8010
  311MOL0     H41000   9.678   4.257  -0.012  1.6661  2.5620  2.5800
  311MOL0     H41001   9.681   4.207   0.286  0.3455 -0.6687  0.2523
  311MOL0     H41002   9.791   4.293   0.184  1.1358 -5.7854 -1.3546
  311MOL0     H41003   9.575   4.437   0.118 -3.6941 -1.3572 -0.0199
  311MOL0     H41004   9.668   4.478   0.265  0.4690 -0.0267 -0.6423
  311MOL0     H41005   9.369   4.215   0.213  1.6471 -1.0567  1.2784
  311MOL0     H41006   9.125   4.292   0.489 -0.2485  1.2835 -0.0328
  311MOL0     H41007   9.153   4.163   0.373 -1.7424  0.2282  2.0353
  311MOL0     H41008   9.064   4.369   0.211 -1.2295 -1.5630 -0.7133
  311MOL0     H41009   8.988   4.420   0.360 -4.1344 -0.3474 -4.0000
  311MOL0     H41010   8.959   4.144   0.228 -0.8062 -2.8502  1.6002
  311MOL0     H41011   8.903   4.180   0.393  0.4281 -2.7780 -1.7886
  311MOL0     H41012   8.826   4.307   0.129  2.0884 -0.8368  1.1728
  311MOL0     H41013   8.767   4.389   0.268  1.4981  0.3605  0.3115
  311MOL0     H41014   8.477   4.083   0.236 -0.2448  1.3903 -0.4656
  311MOL0     H41015   8.277   4.133   0.377 -0.7087  1.9925 -0.9567
  311MOL0     H41016   8.056   4.257   0.797 -0.3070  0.5361 -2.4809
  311MOL0     H41017   7.850   4.384   0.896 -0.8208  0.5369 -0.4190
  311MOL0     H41018   7.694   4.520   0.992 -0.7948 -2.2445 -1.1858
  311MOL0     H41019   7.695   4.535   0.811  1.5301  1.7327 -1.7095
  311MOL0     H41020   7.603   4.755   0.791  0.1583  0.9575  0.9751
  311MOL0     H41021   7.649   4.791   0.952  3.1261  0.0915  0.4784
  311MOL0     H41022   7.403   4.750   0.898 -0.2435 -0.0104 -3.2909
  311MOL0     H41023   7.466   4.632   1.024  0.6429 -1.1834 -0.8420
  311MOL0     H41024   7.462   4.572   0.732  0.3754  0.9898 -0.1184
  311MOL0     H41025   7.496   4.457   0.868  2.3987  0.2655 -2.6162
  311MOL0     H41026   7.273   4.430   0.927  0.9952 -1.3241 -0.2863
  311MOL0     H41027   7.276   4.447   0.751  2.6670 -0.5373 -0.2379
  311MOL0     H41028   7.204   4.698   0.786 -2.2175  0.1918  0.1905
  311MOL0     H41029   7.214   4.681   0.955  0.1731  2.3312 -1.1748
  311MOL0     H41030   6.986   4.669   0.883 -0.2434  0.1268  0.6129
  311MOL0     H41031   7.012   4.537   0.773 -0.8896  1.5246  0.0037
  311MOL0     H41032   7.068   4.396   0.979  0.6821 -0.1687 -1.8222
  311MOL0     H41033   6.906   4.463   0.988 -0.1211 -3.1724  0.0303
  311MOL0     H41034   8.055   4.742   0.827 -1.6949  0.2176  1.9840
  311MOL0     H41035   8.256   4.614   0.719 -1.7076  2.0757 -1.0649
  311MOL0     H41036   8.521   4.383   0.627  0.0212 -0.0456  0.5884
  311MOL0     H41037   8.710   4.338   0.485 -0.0542  0.5781  0.7907
  311MOL0     H41038   9.902   3.667   0.177 -0.8838 -1.7834 -0.0841
  311MOL0     H41039   9.936   3.441   0.224 -1.6322  1.0580 -0.6258
  311MOL0     H41040  10.066   3.124   0.281  1.4456  1.8753 -2.3115
  311MOL0     H41041  10.032   2.870   0.341 -0.2351  2.7092  5.2525
  311MOL0     H41042  10.039   2.662   0.337 -0.2810 -1.1543 -0.5784
  311MOL0     H41043  10.025   2.681   0.499 -4.8823 -0.0732 -3.9565
  311MOL0     H41044  10.205   2.485   0.542 -1.2909 -2.2163  0.2192
  311MOL0     H41045  10.033   2.465   0.510 -1.3374  3.0402 -0.4131
  311MOL0     H41046  10.187   2.299   0.411 -2.4179  1.3737  3.1706
  311MOL0     H41047  10.246   2.418   0.300  1.8779 -4.0429 -0.6093
  311MOL0     H41048   9.953   2.338   0.325  1.1935  3.4800  2.0999
  311MOL0     H41049  10.019   2.449   0.204  1.1359 -0.0316  0.3173
  311MOL0     H41050  10.184   2.077   0.054  0.0490  0.1732 -0.3854
  311MOL0     H41051  10.465   2.832   0.359 -0.0788 -0.4609  0.6809
  311MOL0     H41052  10.474   3.061   0.275 -0.1673  1.9947  3.4870
  312MOL0     O41053   6.909  10.773   4.023 -0.0153  0.6935 -1.0601
  312MOL0     C41054   6.892  10.850   4.120  0.5627  0.0159  0.1057
  312MOL0     O41055   6.767  10.918   4.155  0.5614  0.1077 -0.9741
  312MOL0     C41056   6.655  10.896   4.075  0.5964 -0.2938 -0.5406
  312MOL0     C41057   6.652  10.935   3.937  0.8393 -0.0388 -0.0203
  312MOL0     C41058   6.540  10.909   3.858 -0.2809 -0.3321 -0.1646
  312MOL0     C41059   6.421  10.858   3.913 -0.5544 -0.1486  0.1254
  312MOL0     O41060   6.313  10.878   3.833  0.0676  0.2413 -0.2108
  312MOL0     C41061   6.180  10.872   3.892  0.5911 -0.4415 -0.3559
  312MOL0     C41062   6.124  10.987   3.969  1.5909  0.3390 -0.7814
  312MOL0     C41063   5.971  10.957   3.974  0.8192  0.1927 -0.3155
  312MOL0     C41064   5.892  11.051   4.070 -0.1893  0.3384  0.0381
  312MOL0     C41065   5.753  10.994   4.088 -0.2543 -0.2636 -0.1664
  312MOL0     C41066   5.651  11.024   3.973 -0.9131  0.3261  0.1588
  312MOL0     C41067   5.532  10.942   4.008  0.0264 -0.2390 -0.7135
  312MOL0     C41068   5.418  10.986   3.919  0.7037  0.2496 -0.3207
  312MOL0     N41069   5.282  10.927   3.954  0.1105  0.3768  0.6564
  312MOL0     C41070   5.234  10.891   4.077  0.7146 -0.4689  0.3379
  312MOL0     C41071   5.115  10.825   4.040 -0.5371  0.0442 -0.1810
  312MOL0     C41072   5.025  10.775   4.141  0.2501 -0.2017 -0.2726
  312MOL0     C41073   4.888  10.839   4.145 -0.6849 -0.4505 -0.1857
  312MOL0     C41074   4.803  10.795   4.271 -0.5092  0.2728  0.0546
  312MOL0     C41075   4.682  10.886   4.289  0.0650  0.2020  0.9617
  312MOL0     O41076   4.611  10.833   4.405 -0.0934  0.6249  0.0399
  312MOL0     C41077   4.480  10.861   4.404  0.6278  0.3109  0.7158
  312MOL0     C41078   4.398  10.821   4.300  0.4583 -0.3999 -0.4013
  312MOL0     C41079   4.261  10.835   4.302  0.0511  0.1616 -0.6189
  312MOL0     C41080   4.204  10.910   4.411 -1.0624  0.0419 -0.2783
  312MOL0     C41081   4.068  10.940   4.406  0.5402 -0.2406 -0.2713
  312MOL0     O41082   4.009  10.999   4.520  0.1998 -0.2068 -0.2057
  312MOL0     C41083   3.873  11.028   4.510 -1.0515  0.1158  0.3695
  312MOL0     C41084   3.792  10.935   4.560  0.9297  0.3828  0.0274
  312MOL0     C41085   3.655  10.955   4.576 -0.1902 -0.5186 -0.1706
  312MOL0     C41086   3.591  11.078   4.542 -0.4607 -0.3040  0.1289
  312MOL0     O41087   3.455  11.083   4.571 -0.5391 -0.5563  0.3916
  312MOL0     C41088   3.384  11.202   4.539 -0.7170 -1.2192  0.7595
  312MOL0     C41089   3.232  11.178   4.547  0.2297  0.1508 -0.4519
  312MOL0     C41090   3.179  11.058   4.464  0.0780  0.2622  0.3915
  312MOL0     C41091   3.029  11.040   4.501 -0.8358  0.2499 -0.3268
  312MOL0     C41092   2.966  10.922   4.425  0.6997 -0.7626 -0.4721
  312MOL0     C41093   3.021  10.781   4.435 -0.1146  0.3482 -0.9495
  312MOL0     C41094   2.931  10.683   4.369  0.2192 -0.2763  0.4580
  312MOL0     C41095   2.972  10.538   4.421 -0.0563 -0.1279 -0.4084
  312MOL0    Cl41096   2.920  10.499   4.583  0.3456  0.4125 -0.1272
  312MOL0     C41097   3.682  11.178   4.497  0.2005  0.2632 -0.1254
  312MOL0     C41098   3.820  11.155   4.475  1.4514 -0.2523  0.0846
  312MOL0     O41099   4.012  10.922   4.303  0.4208  0.4859  0.1566
  312MOL0     C41100   4.286  10.966   4.509 -1.3343  0.3813  0.7844
  312MOL0     C41101   4.429  10.943   4.501  0.6647  0.5561 -0.9892
  312MOL0     N41102   5.105  10.804   3.901 -0.1966 -0.3895  0.7274
  312MOL0     N41103   5.200  10.871   3.855  0.5387 -0.0010 -0.3655
  312MOL0     C41104   6.415  10.832   4.050  0.4654 -0.1323 -0.7478
  312MOL0     C41105   6.534  10.841   4.130  0.1742 -0.1263 -0.4161
  312MOL0     C41106   7.016  10.899   4.189  1.0619  0.2151  0.7985
  312MOL0     C41107   7.007  10.993   4.291 -0.3392  0.0343  0.9895
  312MOL0     C41108   7.116  11.022   4.368 -0.5240 -0.8434 -0.0471
  312MOL0     C41109   7.241  10.960   4.348  0.7738 -0.4967 -0.7895
  312MOL0     O41110   7.359  10.984   4.418  0.2470  0.2501  0.6263
  312MOL0     C41111   7.372  11.107   4.486 -0.2753  0.5230 -0.8102
  312MOL0     C41112   7.505  11.111   4.565  0.1246 -0.1393  0.0129
  312MOL0     C41113   7.559  11.254   4.601 -0.9158 -0.3228 -0.5958
  312MOL0     C41114   7.678  11.255   4.702 -0.9906  0.3757 -0.0874
  312MOL0     C41115   7.631  11.231   4.836 -0.2284  0.5766 -0.9092
  312MOL0     C41116   7.585  11.212   4.951 -0.7221  0.0200 -0.3291
  312MOL0     C41117   7.250  10.871   4.248 -0.2768 -0.4177 -0.4100
  312MOL0     C41118   7.140  10.839   4.170  0.0668 -0.0250 -1.0439
  312MOL0     H41119   6.741  10.986   3.902 -0.9628  2.2900 -1.4627
  312MOL0     H41120   6.533  10.951   3.758  1.5333  0.1861 -0.0981
  312MOL0     H41121   6.162  10.777   3.945 -2.3368 -0.5593 -1.3961
  312MOL0     H41122   6.116  10.869   3.804  0.4277  0.7680 -0.2903
  312MOL0     H41123   6.135  11.083   3.917  0.1984  2.0958  1.9393
  312MOL0     H41124   6.160  10.997   4.071  2.2156 -0.1586 -0.9477
  312MOL0     H41125   5.964  10.859   4.021 -0.3909 -0.5064 -1.8737
  312MOL0     H41126   5.940  10.943   3.870  0.0668 -3.6840  0.2598
  312MOL0     H41127   5.937  11.064   4.169  0.0717 -0.2554  0.0080
  312MOL0     H41128   5.889  11.155   4.037 -2.3018  0.0673 -0.7317
  312MOL0     H41129   5.715  11.045   4.177  4.0933 -1.4214  2.6902
  312MOL0     H41130   5.754  10.886   4.103  1.2623 -0.3302 -0.5448
  312MOL0     H41131   5.695  10.995   3.877  0.0998 -0.4043  0.8195
  312MOL0     H41132   5.632  11.132   3.974  1.2579  0.8096 -1.8844
  312MOL0     H41133   5.550  10.836   3.988  1.6399 -0.5419  1.8998
  312MOL0     H41134   5.511  10.962   4.114  1.2896  0.2109 -0.5309
  312MOL0     H41135   5.442  10.961   3.816 -4.1090 -0.0293 -1.6377
  312MOL0     H41136   5.409  11.095   3.922 -1.2318  0.1120  1.2864
  312MOL0     H41137   5.267  10.919   4.176 -0.0608  4.1914 -0.4397
  312MOL0     H41138   5.069  10.778   4.241 -0.2441 -0.2420 -0.0532
  312MOL0     H41139   5.009  10.668   4.124 -1.7705 -0.1606  1.0077
  312MOL0     H41140   4.832  10.808   4.056 -0.3205 -0.9056 -0.2592
  312MOL0     H41141   4.904  10.947   4.141  0.0982 -0.5550 -0.0971
  312MOL0     H41142   4.761  10.696   4.253 -3.1746  1.0910  1.2301
  312MOL0     H41143   4.869  10.799   4.359 -0.5235 -0.3238  0.0931
  312MOL0     H41144   4.626  10.878   4.196 -0.4094 -1.8062  1.3734
  312MOL0     H41145   4.718  10.988   4.307  2.2584 -0.6440  1.6845
  312MOL0     H41146   4.446  10.771   4.217 -2.2233 -1.1982 -1.5839
  312MOL0     H41147   4.206  10.807   4.213 -3.1319 -0.0432  1.2598
  312MOL0     H41148   3.831  10.842   4.601  0.1073  0.9998  2.3344
  312MOL0     H41149   3.593  10.876   4.615 -0.1860 -1.4389 -1.9061
  312MOL0     H41150   3.400  11.227   4.434 -2.7665  1.9278  1.0468
  312MOL0     H41151   3.412  11.284   4.606 -2.6326  1.9285 -2.0074
  312MOL0     H41152   3.184  11.265   4.501 -3.0271 -0.1587  2.0150
  312MOL0     H41153   3.201  11.181   4.652  3.1189  0.4417  0.4926
  312MOL0     H41154   3.241  10.975   4.500  2.1736  1.0750 -1.1031
  312MOL0     H41155   3.191  11.074   4.356 -2.5750  1.1165  0.1615
  312MOL0     H41156   3.014  11.033   4.609  1.5670  2.8713  0.3050
  312MOL0     H41157   2.984  11.132   4.462  0.7445  0.6432 -1.3074
  312MOL0     H41158   2.968  10.952   4.320  0.6030  1.1486  0.0364
  312MOL0     H41159   2.862  10.915   4.458  0.6566  0.3240 -0.3181
  312MOL0     H41160   3.020  10.751   4.540  2.0078  0.6160 -0.8080
  312MOL0     H41161   3.122  10.780   4.393  0.1686  3.6826 -0.6419
  312MOL0     H41162   2.827  10.711   4.390  0.7401  1.3545  1.0196
  312MOL0     H41163   2.945  10.692   4.261  1.4320 -1.3117  0.5093
  312MOL0     H41164   3.081  10.546   4.421 -0.0455 -0.2621 -0.4738
  312MOL0     H41165   2.935  10.462   4.351 -0.4290  1.3927 -1.9201
  312MOL0     H41166   3.653  11.280   4.472 -0.0137  0.2887  0.2118
  312MOL0     H41167   3.880  11.237   4.437  1.1233 -1.6153 -3.7637
  312MOL0     H41168   4.255  11.033   4.589 -0.6029 -0.7877  2.0927
  312MOL0     H41169   4.492  10.986   4.579 -1.4931  0.0208  1.1699
  312MOL0     H41170   6.319  10.816   4.100  0.4904  0.1578 -0.6019
  312MOL0     H41171   6.519  10.826   4.237 -0.3787 -1.8923 -0.7095
  312MOL0     H41172   6.909  11.033   4.312 -0.8749  0.0244 -1.2199
  312MOL0     H41173   7.109  11.091   4.451  0.8634 -3.0243  2.0066
  312MOL0     H41174   7.292  11.130   4.556  0.5615 -2.6842  1.4071
  312MOL0     H41175   7.370  11.187   4.411 -0.7991  0.5336 -0.7870
  312MOL0     H41176   7.479  11.055   4.655  1.0702 -1.5678 -0.5697
  312MOL0     H41177   7.578  11.060   4.501  0.8036 -0.3256  0.9286
  312MOL0     H41178   7.475  11.304   4.651 -0.4965  0.4031 -0.6004
  312MOL0     H41179   7.576  11.306   4.506 -1.6113  1.1420  0.0499
  312MOL0     H41180   7.758  11.187   4.670 -0.2326 -0.3937  3.0881
  312MOL0     H41181   7.722  11.355   4.705 -0.4030  0.0923  1.2345
  312MOL0     H41182   7.562  11.202   5.055  2.5372  0.2030  0.5079
  312MOL0     H41183   7.353  10.840   4.237  0.8885  2.4582  1.3545
  312MOL0     H41184   7.144  10.763   4.093 -3.2549 -1.8324  0.3513
  313MOL0     O41185   2.224   5.745  10.192 -0.0910  0.0076  0.8525
  313MOL0     C41186   2.177   5.800  10.093  0.0737 -0.8940 -0.5268
  313MOL0     O41187   2.073   5.758  10.018 -0.0883  0.3016 -0.4357
  313MOL0     C41188   1.974   5.680  10.056 -0.4103  0.8155  0.3083
  313MOL0     C41189   1.962   5.629  10.186  0.8100 -0.5753 -0.0210
  313MOL0     C41190   1.846   5.550  10.213  0.0690 -0.0812 -0.7600
  313MOL0     C41191   1.761   5.505  10.114  0.1007 -0.5977  1.2542
  313MOL0     O41192   1.660   5.414  10.142 -0.0487  0.0434 -0.0872
  313MOL0     C41193   1.532   5.442  10.087  0.5554  0.9445  0.9359
  313MOL0     C41194   1.413   5.445  10.184 -0.5311 -0.1215 -0.1798
  313MOL0     C41195   1.273   5.478  10.114 -0.1139  0.8916  0.0144
  313MOL0     C41196   1.214   5.342  10.063  0.0808  0.1551 -0.5117
  313MOL0     C41197   1.081   5.363   9.992 -0.9428  0.3836  0.1856
  313MOL0     C41198   1.027   5.235   9.946  0.7308 -0.1013  0.0182
  313MOL0     C41199   0.882   5.237   9.927 -0.1404  0.6537  0.3908
  313MOL0     C41200   0.817   5.098   9.912  0.0624 -0.5720 -0.4988
  313MOL0     N41201   0.672   5.100   9.877  0.8577  0.3519  0.4819
  313MOL0     C41202   0.563   5.145   9.938 -0.4010 -0.5813  0.3520
  313MOL0     C41203   0.456   5.123   9.858  0.4919 -0.4999  0.1211
  313MOL0     C41204   0.306   5.152   9.891 -0.4731 -0.1292  0.3890
  313MOL0     C41205   0.212   5.151   9.773  0.2921 -0.8086  0.4765
  313MOL0     C41206   0.079   5.215   9.821  0.0335 -0.1370  0.1197
  313MOL0     C41207  -0.018   5.212   9.706  0.3056  0.1421  0.3585
  313MOL0     O41208  -0.150   5.251   9.739 -0.0676  0.6167 -0.3853
  313MOL0     C41209  -0.259   5.181   9.693 -0.6543 -0.4158  0.0224
  313MOL0     C41210  -0.372   5.258   9.650 -0.5217  0.3085  0.1048
  313MOL0     C41211  -0.479   5.193   9.588  0.4000 -0.2595 -0.4762
  313MOL0     C41212  -0.483   5.058   9.574  0.5836 -0.3364 -0.1698
  313MOL0     C41213  -0.591   4.985   9.497  0.5369  0.6518 -0.3338
  313MOL0     O41214  -0.672   5.063   9.418 -0.4026  0.7174  0.6187
  313MOL0     C41215  -0.798   5.021   9.379  1.1948  1.1470  0.2466
  313MOL0     C41216  -0.883   4.944   9.466  1.2125 -0.8584 -0.5419
  313MOL0     C41217  -1.019   4.942   9.432  0.0518  0.2212  0.0185
  313MOL0     C41218  -1.072   5.004   9.322  0.3336  0.6342  0.5988
  313MOL0     O41219  -1.204   5.012   9.283  0.2541 -0.1494  0.6117
  313MOL0     C41220  -1.310   4.999   9.381 -0.0427 -0.6517  0.1913
  313MOL0     C41221  -1.361   5.131   9.443 -0.5724  0.3306 -1.1959
  313MOL0     C41222  -1.269   5.211   9.535 -0.0087 -0.4892 -0.4241
  313MOL0     C41223  -1.179   5.309   9.462 -0.0034 -0.0052  0.7481
  313MOL0     C41224  -1.053   5.341   9.547  0.8432  0.0943 -0.5849
  313MOL0     C41225  -0.933   5.400   9.468 -0.5516 -0.2139 -0.0862
  313MOL0     C41226  -0.798   5.384   9.552  0.3727  1.3007  0.2966
  313MOL0     C41227  -0.812   5.450   9.691  0.5767 -0.0531  0.1540
  313MOL0    Cl41228  -0.662   5.431   9.787 -0.5006  0.1134  0.2998
  313MOL0     C41229  -0.990   5.066   9.235 -1.0213 -0.2729 -0.0633
  313MOL0     C41230  -0.855   5.078   9.268 -0.1184 -0.1079  0.0670
  313MOL0     O41231  -0.599   4.860   9.512  0.0647 -0.1470  0.9614
  313MOL0     C41232  -0.381   4.983   9.631  0.8850 -0.5357 -0.6699
  313MOL0     C41233  -0.263   5.037   9.682 -0.1495 -1.1091 -0.1174
  313MOL0     N41234   0.504   5.070   9.741 -0.0495 -0.3922 -0.3261
  313MOL0     N41235   0.630   5.067   9.749  0.0015  0.8466 -0.6335
  313MOL0     C41236   1.780   5.554   9.985  0.4962 -0.3494  0.2066
  313MOL0     C41237   1.884   5.641   9.957  0.3932  1.1109  0.2702
  313MOL0     C41238   2.250   5.914  10.032  0.2855 -0.0245  0.2530
  313MOL0     C41239   2.252   5.929   9.894  0.0103 -0.0930  0.8137
  313MOL0     C41240   2.333   6.020   9.837  0.5922 -1.7013  0.5707
  313MOL0     C41241   2.409   6.117   9.907 -0.4966 -0.0638 -0.8606
  313MOL0     O41242   2.481   6.219   9.848  0.3401 -0.5126  0.1213
  313MOL0     C41243   2.486   6.348   9.906  0.5170 -0.3662 -0.4088
  313MOL0     C41244   2.521   6.442   9.792 -0.3893 -0.1418  1.1121
  313MOL0     C41245   2.667   6.427   9.757  0.0040  0.6584 -0.1006
  313MOL0     C41246   2.696   6.500   9.627 -0.3401  0.1482  0.3200
  313MOL0     C41247   2.839   6.501   9.594  0.0347  0.0181  0.4959
  313MOL0     C41248   2.959   6.493   9.576 -1.0570 -0.0724 -0.0231
  313MOL0     C41249   2.396   6.110  10.046 -0.3488  0.5495  0.0551
  313MOL0     C41250   2.328   5.998  10.106 -0.5505  1.0663  0.6460
  313MOL0     H41251   2.019   5.673  10.267  2.9157  4.5648 -3.7882
  313MOL0     H41252   1.829   5.519  10.316 -4.3307  3.4316 -0.1407
  313MOL0     H41253   1.516   5.365  10.011  2.7743  2.6056 -1.3678
  313MOL0     H41254   1.538   5.537  10.033 -0.6522  0.0861 -0.7933
  313MOL0     H41255   1.424   5.529  10.253  0.3182  2.2074 -2.9390
  313MOL0     H41256   1.396   5.351  10.237  1.2286  0.2166  1.0654
  313MOL0     H41257   1.287   5.538  10.024 -1.9530 -2.0785 -2.4834
  313MOL0     H41258   1.198   5.524  10.178 -0.2308 -1.2583  1.5417
  313MOL0     H41259   1.273   5.283   9.992 -2.6844 -2.3150 -0.9897
  313MOL0     H41260   1.204   5.271  10.146  2.9062  0.1361 -0.1076
  313MOL0     H41261   1.091   5.432   9.907 -1.8754 -0.9697 -1.0777
  313MOL0     H41262   1.012   5.410  10.063  1.2353  0.9736  2.0102
  313MOL0     H41263   1.050   5.163  10.025 -0.4933 -3.8714 -2.7429
  313MOL0     H41264   1.082   5.192   9.862 -0.1641 -2.3595  0.5205
  313MOL0     H41265   0.838   5.290  10.011 -0.5956  1.5304 -0.3838
  313MOL0     H41266   0.850   5.302   9.845 -1.9223 -1.5170 -0.7809
  313MOL0     H41267   0.843   5.040  10.002 -2.7864  1.1788  1.6204
  313MOL0     H41268   0.862   5.037   9.833 -1.7971 -2.0284 -0.5147
  313MOL0     H41269   0.557   5.183  10.040 -0.1395  0.9324 -0.1654
  313MOL0     H41270   0.303   5.249   9.940 -0.7263  0.2129 -0.2927
  313MOL0     H41271   0.279   5.072   9.961  0.6929  0.4027  1.5080
  313MOL0     H41272   0.196   5.049   9.739  0.7905 -0.8392  0.3230
  313MOL0     H41273   0.263   5.219   9.704 -0.1817 -1.2265 -0.3037
  313MOL0     H41274   0.033   5.169   9.909 -0.6144  0.8937  0.3366
  313MOL0     H41275   0.100   5.319   9.851 -2.0450  0.2401  0.4133
  313MOL0     H41276  -0.010   5.114   9.659 -1.5933 -0.4944  1.2890
  313MOL0     H41277   0.016   5.287   9.633 -0.0911  1.4351  1.4773
  313MOL0     H41278  -0.369   5.365   9.667  3.2318  0.2121  0.7829
  313MOL0     H41279  -0.572   5.243   9.563  0.8970 -0.7009 -3.5034
  313MOL0     H41280  -0.847   4.880   9.546 -2.7610 -3.3038 -0.4174
  313MOL0     H41281  -1.079   4.888   9.505  0.5519  2.8248  2.5388
  313MOL0     H41282  -1.290   4.924   9.458 -0.4143 -0.5710  0.3653
  313MOL0     H41283  -1.392   4.947   9.331 -1.9003 -1.0695  3.3668
  313MOL0     H41284  -1.449   5.097   9.500  0.8119  0.1077  0.9244
  313MOL0     H41285  -1.393   5.201   9.365  0.4071  0.6087 -1.3604
  313MOL0     H41286  -1.212   5.141   9.598 -2.7391 -1.1894  1.4593
  313MOL0     H41287  -1.340   5.265   9.597 -0.5310  0.4745 -1.8366
  313MOL0     H41288  -1.144   5.275   9.365  0.4057  4.2291 -0.8220
  313MOL0     H41289  -1.237   5.399   9.438  0.9306  0.8002  1.4449
  313MOL0     H41290  -1.012   5.251   9.594 -0.3166 -0.6036 -0.8587
  313MOL0     H41291  -1.083   5.413   9.623 -3.6905  0.2217 -2.1974
  313MOL0     H41292  -0.944   5.505   9.440  1.3123 -0.2556 -1.1310
  313MOL0     H41293  -0.913   5.347   9.375  0.8111  1.4310 -0.7875
  313MOL0     H41294  -0.793   5.275   9.561 -1.2953  0.9982 -1.7774
  313MOL0     H41295  -0.712   5.424   9.497 -0.4066  5.1569  1.5912
  313MOL0     H41296  -0.896   5.406   9.747 -0.3110 -0.3736 -1.3660
  313MOL0     H41297  -0.848   5.552   9.678 -1.4334 -0.8194 -0.7034
  313MOL0     H41298  -1.030   5.110   9.144 -1.6807  1.1214  0.8673
  313MOL0     H41299  -0.805   5.148   9.202 -2.3137  3.4144  1.7708
  313MOL0     H41300  -0.376   4.875   9.640  0.9286 -0.5369 -0.7054
  313MOL0     H41301  -0.193   4.979   9.742 -3.2685 -2.3064  2.6589
  313MOL0     H41302   1.722   5.543   9.894 -2.6407  2.3700  1.6344
  313MOL0     H41303   1.906   5.677   9.857  0.8458 -1.9454 -0.8432
  313MOL0     H41304   2.199   5.851   9.840  0.9316 -0.5809  0.6013
  313MOL0     H41305   2.353   6.011   9.731  3.0324 -1.6349  0.9723
  313MOL0     H41306   2.563   6.342   9.984  1.2948  2.4167 -0.8465
  313MOL0     H41307   2.400   6.377   9.968  1.7409  0.8511  0.8130
  313MOL0     H41308   2.459   6.425   9.703 -0.1632  1.9008  0.5072
  313MOL0     H41309   2.493   6.546   9.809  0.4954  0.5244 -1.1279
  313MOL0     H41310   2.680   6.322   9.731  0.2770  0.6776 -0.0380
  313MOL0     H41311   2.722   6.463   9.844 -0.7089  1.6641 -0.0507
  313MOL0     H41312   2.663   6.451   9.534  4.7267 -1.3292 -0.9815
  313MOL0     H41313   2.646   6.598   9.629  0.1938  0.4142  0.7142
  313MOL0     H41314   3.062   6.492   9.545 -0.8337  0.4314  0.6583
  313MOL0     H41315   2.458   6.168  10.112 -0.8171 -0.7070  1.6599
  313MOL0     H41316   2.339   5.975  10.212  0.7655 -1.3070  0.0610
  314MOL0     O41317  10.486   4.022   8.891 -0.4031  0.2286  0.0118
  314MOL0     C41318  10.601   3.988   8.912  0.2596  1.0133  0.9235
  314MOL0     O41319  10.648   3.865   8.950 -1.1709  0.0850  0.0949
  314MOL0     C41320  10.563   3.776   9.013  0.3701 -0.5138  0.0980
  314MOL0     C41321  10.603   3.720   9.131 -1.6266 -0.2490 -0.7966
  314MOL0     C41322  10.526   3.636   9.209  1.2806  0.4343 -0.7202
  314MOL0     C41323  10.399   3.598   9.164 -0.2341  0.1634 -0.2373
  314MOL0     O41324  10.323   3.509   9.242  0.2990  0.4098  0.0782
  314MOL0     C41325  10.223   3.435   9.167  0.5399 -0.4408  0.1282
  314MOL0     C41326  10.084   3.509   9.170 -0.0758 -0.0806  0.3213
  314MOL0     C41327   9.955   3.427   9.125  0.3860  0.0824 -0.1959
  314MOL0     C41328   9.946   3.393   8.977  1.1214 -0.0005  0.1025
  314MOL0     C41329   9.801   3.357   8.931 -0.5329  0.6204  0.4982
  314MOL0     C41330   9.808   3.279   8.796 -0.0793  0.2804  0.2767
  314MOL0     C41331   9.865   3.139   8.792 -0.1096  0.2202  0.7060
  314MOL0     C41332   9.810   3.043   8.897  0.2484 -0.2283 -0.1102
  314MOL0     N41333   9.670   3.007   8.871  1.0398  0.0844  0.1284
  314MOL0     C41334   9.633   2.907   8.785 -0.0067 -0.6370 -0.2225
  314MOL0     C41335   9.498   2.935   8.772  0.1047 -0.0509  0.7875
  314MOL0     C41336   9.405   2.866   8.685 -0.0962 -0.1197  0.3773
  314MOL0     C41337   9.347   2.734   8.742  0.2298 -0.7609  0.7484
  314MOL0     C41338   9.260   2.761   8.872  0.0534  0.4488 -1.3039
  314MOL0     C41339   9.164   2.880   8.886 -0.7242 -0.6087  0.9631
  314MOL0     O41340   9.062   2.867   8.780  0.2174  0.0373  0.1714
  314MOL0     C41341   8.942   2.804   8.808 -0.0520  1.3207 -0.4463
  314MOL0     C41342   8.844   2.821   8.710  0.5923 -0.3036 -0.2207
  314MOL0     C41343   8.718   2.751   8.727 -0.0895 -1.1838 -0.5292
  314MOL0     C41344   8.699   2.671   8.841  0.2707 -0.6891 -0.6874
  314MOL0     C41345   8.561   2.625   8.866  0.1674  0.0369  0.8007
  314MOL0     O41346   8.459   2.662   8.775 -0.1350  0.0223 -0.3508
  314MOL0     C41347   8.337   2.596   8.768 -0.4733 -0.9598 -0.7990
  314MOL0     C41348   8.224   2.670   8.732 -0.0335 -0.5562  1.0160
  314MOL0     C41349   8.099   2.611   8.721  0.0993 -0.1733  0.2733
  314MOL0     C41350   8.084   2.471   8.741  0.0033 -0.2355 -0.8067
  314MOL0     O41351   7.966   2.407   8.722 -0.1647 -0.4221  0.9569
  314MOL0     C41352   7.853   2.464   8.654  0.4949 -0.6312 -0.3885
  314MOL0     C41353   7.753   2.354   8.616  0.7430 -0.4941  0.2790
  314MOL0     C41354   7.670   2.331   8.742  0.1246 -0.0166  0.0378
  314MOL0     C41355   7.579   2.207   8.724  0.5582  0.1645 -0.8881
  314MOL0     C41356   7.475   2.195   8.830  1.1137  0.2792 -0.0773
  314MOL0     C41357   7.379   2.078   8.786 -0.0942 -0.3007 -0.0535
  314MOL0     C41358   7.258   2.074   8.874  0.7301 -0.3594  0.2939
  314MOL0     C41359   7.278   2.042   9.030  0.1982 -0.0477 -0.2602
  314MOL0    Cl41360   7.131   2.044   9.128 -0.2738  0.0997 -0.1123
  314MOL0     C41361   8.195   2.392   8.772  0.0525  0.5712  0.1899
  314MOL0     C41362   8.323   2.459   8.789  0.0586  0.5905  0.6739
  314MOL0     O41363   8.538   2.559   8.965  0.3384  0.0127 -0.3173
  314MOL0     C41364   8.797   2.651   8.932 -0.3966 -0.0786 -0.0804
  314MOL0     C41365   8.920   2.714   8.916 -0.5431  0.1687  0.2201
  314MOL0     N41366   9.468   3.046   8.845  0.0206 -0.4442 -0.1652
  314MOL0     N41367   9.574   3.092   8.903  0.3907 -0.3715  0.1917
  314MOL0     C41368  10.366   3.654   9.035  0.9228  0.2765 -0.3532
  314MOL0     C41369  10.451   3.733   8.957 -0.0932  0.7342 -0.3907
  314MOL0     C41370  10.706   4.094   8.878 -0.1269  0.3769 -0.2585
  314MOL0     C41371  10.841   4.080   8.910  0.7764  0.7246  0.3704
  314MOL0     C41372  10.929   4.179   8.872 -0.9875 -0.0818 -0.2085
  314MOL0     C41373  10.887   4.284   8.793 -0.4158 -0.7530  0.1184
  314MOL0     O41374  10.985   4.379   8.755  0.3229  0.0039  0.2962
  314MOL0     C41375  10.956   4.519   8.762  0.7144  0.5258 -0.1760
  314MOL0     C41376  11.082   4.600   8.734  0.1479 -0.3137  0.3350
  314MOL0     C41377  11.207   4.550   8.819  0.0864  0.3588 -0.0341
  314MOL0     C41378  11.334   4.621   8.767  0.3617  0.1357  0.5703
  314MOL0     C41379  11.357   4.581   8.627  0.0243  0.8097  0.0793
  314MOL0     C41380  11.390   4.573   8.505 -0.3935 -0.2567 -0.2617
  314MOL0     C41381  10.756   4.295   8.745 -0.2581  0.4043 -0.0155
  314MOL0     C41382  10.662   4.200   8.788 -0.4620  0.6598  0.9032
  314MOL0     H41383  10.700   3.748   9.171 -1.5565 -3.0223  1.3119
  314MOL0     H41384  10.560   3.610   9.309  2.7095 -0.4048 -1.4072
  314MOL0     H41385  10.193   3.348   9.227  0.1241 -0.4579 -0.1007
  314MOL0     H41386  10.249   3.403   9.066 -0.1131  2.7339 -1.1942
  314MOL0     H41387  10.094   3.605   9.120  0.9127 -1.0359 -1.4201
  314MOL0     H41388  10.059   3.533   9.274 -0.6799  0.2788  0.0944
  314MOL0     H41389   9.863   3.483   9.143  1.0991  1.6708 -1.2670
  314MOL0     H41390   9.959   3.340   9.190  2.7901  0.3651  0.1361
  314MOL0     H41391   9.966   3.482   8.918 -0.4161 -0.0353 -0.4944
  314MOL0     H41392  10.026   3.323   8.950 -0.2986 -1.8581  0.4752
  314MOL0     H41393   9.747   3.451   8.918 -1.7046 -0.4454 -4.1460
  314MOL0     H41394   9.755   3.294   9.008 -0.9780 -2.2104 -1.8944
  314MOL0     H41395   9.851   3.349   8.724  0.0697  2.2128  2.1617
  314MOL0     H41396   9.707   3.285   8.756  0.0423 -0.9083 -0.2507
  314MOL0     H41397   9.846   3.105   8.689 -2.4799  0.6527  0.9576
  314MOL0     H41398   9.972   3.150   8.813  0.3473 -1.2251 -0.6100
  314MOL0     H41399   9.822   3.083   8.998  0.3820 -1.5149  0.4058
  314MOL0     H41400   9.862   2.947   8.884 -2.3077 -1.5934 -0.9995
  314MOL0     H41401   9.692   2.828   8.740  1.3524 -0.7456  1.6262
  314MOL0     H41402   9.457   2.839   8.593 -3.5668 -1.4531 -1.3710
  314MOL0     H41403   9.321   2.929   8.653  0.1361 -0.3794 -0.7672
  314MOL0     H41404   9.432   2.674   8.775  1.1598  0.3383  0.4544
  314MOL0     H41405   9.287   2.673   8.674 -2.8600  2.8016 -0.0414
  314MOL0     H41406   9.206   2.670   8.895  2.7800 -0.9610  0.0451
  314MOL0     H41407   9.326   2.786   8.956 -3.7763 -1.6014  2.6764
  314MOL0     H41408   9.218   2.974   8.871 -1.3710 -0.1461  1.4579
  314MOL0     H41409   9.122   2.891   8.986  0.2684  1.6818  1.1806
  314MOL0     H41410   8.875   2.877   8.622 -0.1369 -1.0184 -0.9506
  314MOL0     H41411   8.644   2.748   8.648 -2.2618  1.8740  1.1863
  314MOL0     H41412   8.224   2.778   8.724 -2.1751 -0.5809  0.1142
  314MOL0     H41413   8.006   2.658   8.693 -0.0423 -1.6742 -2.0490
  314MOL0     H41414   7.891   2.503   8.560 -3.6834 -0.1123 -2.0542
  314MOL0     H41415   7.808   2.546   8.712  1.4944  1.8358 -2.8580
  314MOL0     H41416   7.805   2.266   8.578  2.3543  1.4913 -2.5865
  314MOL0     H41417   7.688   2.387   8.535  0.3380  0.5530  0.9981
  314MOL0     H41418   7.600   2.412   8.761 -0.0145  0.0462 -0.7141
  314MOL0     H41419   7.750   2.301   8.811 -0.5461 -2.7285 -0.2376
  314MOL0     H41420   7.517   2.214   8.634 -1.5060 -0.5013  0.4004
  314MOL0     H41421   7.629   2.110   8.720  0.0592 -0.1321 -0.1231
  314MOL0     H41422   7.424   2.292   8.834  1.8989  0.6983 -0.0003
  314MOL0     H41423   7.526   2.169   8.923  0.3818  0.9017  0.5088
  314MOL0     H41424   7.430   1.981   8.785  3.7986  1.5346 -1.4225
  314MOL0     H41425   7.356   2.111   8.685  3.9271  3.1734 -0.1253
  314MOL0     H41426   7.210   2.172   8.879  1.3185 -0.1194  1.5577
  314MOL0     H41427   7.183   2.005   8.834 -1.7925  1.0067  2.3419
  314MOL0     H41428   7.354   2.107   9.073  0.6624 -0.8585  0.1638
  314MOL0     H41429   7.329   1.946   9.039  0.3098  0.1960  2.2826
  314MOL0     H41430   8.168   2.288   8.783 -0.0069  0.5824  0.1534
  314MOL0     H41431   8.415   2.403   8.799  3.5567  5.0145 -2.3262
  314MOL0     H41432   8.779   2.586   9.017  0.6528 -0.3558 -0.0609
  314MOL0     H41433   8.999   2.685   8.984 -0.8869 -2.8284 -0.4997
  314MOL0     H41434  10.267   3.645   8.993  0.9709 -0.1052 -0.3851
  314MOL0     H41435  10.416   3.764   8.859 -2.9196 -1.7443 -0.3168
  314MOL0     H41436  10.864   3.982   8.952 -3.6430 -1.7017 -2.0788
  314MOL0     H41437  11.032   4.162   8.901 -1.8919 -4.3079  1.1645
  314MOL0     H41438  10.918   4.557   8.857 -3.9950 -0.0956 -1.5753
  314MOL0     H41439  10.878   4.541   8.689 -1.1090 -0.6873  1.3351
  314MOL0     H41440  11.105   4.585   8.628 -0.2008  2.0138 -0.1202
  314MOL0     H41441  11.058   4.705   8.751  1.2087  0.2379 -1.3227
  314MOL0     H41442  11.221   4.443   8.805 -2.6982  0.1221 -1.7527
  314MOL0     H41443  11.186   4.588   8.919 -1.1811  0.7141 -0.4122
  314MOL0     H41444  11.322   4.729   8.776  0.6740  0.2355 -0.1876
  314MOL0     H41445  11.427   4.589   8.816 -1.0671 -4.3242  0.8502
  314MOL0     H41446  11.430   4.584   8.407  0.6788  0.2944  0.2167
  314MOL0     H41447  10.730   4.370   8.672 -0.5828 -0.0860 -0.4158
  314MOL0     H41448  10.564   4.190   8.743 -0.0133 -1.9632  0.3377
  315MOL0     O41449   2.823   9.072   2.967 -0.5946  0.1330  0.5075
  315MOL0     C41450   2.930   9.095   2.910  0.7048 -0.3418  1.0780
  315MOL0     O41451   2.963   9.208   2.833  0.2573  1.0060  0.0395
  315MOL0     C41452   2.861   9.298   2.819  0.2969  0.5579  0.0961
  315MOL0     C41453   2.745   9.278   2.736  0.0819 -1.4684 -0.6546
  315MOL0     C41454   2.664   9.391   2.703  0.3038  0.4946  0.1109
  315MOL0     C41455   2.688   9.515   2.765 -0.0107  1.1567  0.5230
  315MOL0     O41456   2.611   9.625   2.731 -0.3261  0.4629  0.3281
  315MOL0     C41457   2.577   9.707   2.844 -0.2271 -0.7859  0.2675
  315MOL0     C41458   2.471   9.805   2.796 -0.8463 -0.1014  0.6880
  315MOL0     C41459   2.500   9.888   2.673  0.2762 -0.3599 -0.5034
  315MOL0     C41460   2.396   9.991   2.631  0.0169  0.0746  0.0606
  315MOL0     C41461   2.448  10.106   2.549 -0.3460  0.0642  0.0363
  315MOL0     C41462   2.376  10.236   2.589 -0.8175 -0.8752  0.2487
  315MOL0     C41463   2.224  10.240   2.556 -0.5221  0.2439 -0.1247
  315MOL0     C41464   2.172  10.382   2.572 -0.1929 -0.0272  0.1145
  315MOL0     N41465   2.069  10.411   2.473  0.7412 -0.5670  0.4161
  315MOL0     C41466   1.941  10.445   2.491 -0.6894 -0.3289 -0.5108
  315MOL0     C41467   1.892  10.506   2.383 -0.5355  0.4470  0.9977
  315MOL0     C41468   1.770  10.590   2.374  0.7653 -0.2672  0.5227
  315MOL0     C41469   1.660  10.515   2.295  1.0509 -0.1002  0.8328
  315MOL0     C41470   1.673  10.540   2.146  0.0150  0.2242  0.4457
  315MOL0     C41471   1.569  10.454   2.074 -0.4288  0.3295 -0.7115
  315MOL0     O41472   1.448  10.530   2.063 -0.5016 -0.0781  0.3503
  315MOL0     C41473   1.343  10.488   1.994 -0.4915  1.1745  0.1811
  315MOL0     C41474   1.339  10.362   1.926 -0.5900  0.2493  0.5689
  315MOL0     C41475   1.227  10.314   1.863  0.6225 -0.0111 -0.5546
  315MOL0     C41476   1.107  10.390   1.865 -0.3224 -0.2838 -0.0094
  315MOL0     C41477   0.986  10.347   1.798  0.1439 -0.2250  0.3112
  315MOL0     O41478   0.868  10.376   1.854  0.6768 -0.3031  0.1881
  315MOL0     C41479   0.749  10.373   1.777 -0.5946  0.1809 -0.7304
  315MOL0     C41480   0.647  10.460   1.813  0.2727 -0.7689  0.1601
  315MOL0     C41481   0.518  10.466   1.748  0.7108 -0.0841 -0.2176
  315MOL0     C41482   0.481  10.376   1.653  0.3597 -0.5586  0.5869
  315MOL0     O41483   0.378  10.396   1.565  0.4245 -0.4884  0.1324
  315MOL0     C41484   0.304  10.520   1.570  1.0257  0.4898  0.2547
  315MOL0     C41485   0.183  10.509   1.661  0.3778  0.1356  0.4364
  315MOL0     C41486   0.099  10.390   1.636 -1.0671 -0.8540  0.1762
  315MOL0     C41487   0.019  10.377   1.504 -0.0413 -0.6473  0.7981
  315MOL0     C41488  -0.135  10.354   1.511 -1.2000 -0.6053 -0.6349
  315MOL0     C41489  -0.205  10.456   1.611 -0.8146 -0.0916  0.1206
  315MOL0     C41490  -0.355  10.461   1.593 -0.9422  0.5765  0.4136
  315MOL0     C41491  -0.428  10.566   1.672 -0.5387 -1.1508 -0.1777
  315MOL0    Cl41492  -0.388  10.735   1.631  0.2814 -0.4875  0.2007
  315MOL0     C41493   0.577  10.275   1.625 -0.6866  0.1204  0.2374
  315MOL0     C41494   0.709  10.277   1.681  0.1544 -0.4537  0.2066
  315MOL0     O41495   1.006  10.317   1.678 -0.3910 -0.0015 -0.0367
  315MOL0     C41496   1.114  10.522   1.929 -0.1413  0.8455 -0.3020
  315MOL0     C41497   1.224  10.568   1.993 -1.4090  0.6990 -0.5819
  315MOL0     N41498   1.985  10.490   2.288  0.2814  0.0886  0.0301
  315MOL0     N41499   2.095  10.445   2.336  0.2627  0.7259 -0.4922
  315MOL0     C41500   2.803   9.528   2.841  0.1019 -0.3767 -1.0448
  315MOL0     C41501   2.889   9.423   2.869 -0.2980  0.3577  1.0538
  315MOL0     C41502   3.049   9.000   2.922  0.5167  0.1376  0.0774
  315MOL0     C41503   3.169   9.030   2.864  0.3055  0.7838  0.2230
  315MOL0     C41504   3.283   8.946   2.866  0.9114  0.4071  0.3497
  315MOL0     C41505   3.269   8.822   2.918 -0.6760 -0.2421 -0.7602
  315MOL0     O41506   3.371   8.735   2.932  0.3694 -0.0319 -0.4363
  315MOL0     C41507   3.510   8.773   2.908  0.4512  0.4553  0.9568
  315MOL0     C41508   3.577   8.762   2.766  0.2598 -0.1989 -0.2882
  315MOL0     C41509   3.605   8.623   2.722  0.2882 -0.6793 -0.6497
  315MOL0     C41510   3.679   8.633   2.582  0.0626 -0.0668 -0.2764
  315MOL0     C41511   3.829   8.644   2.602 -0.3066  0.2984  0.5724
  315MOL0     C41512   3.949   8.643   2.627 -0.4556  0.3511  1.0033
  315MOL0     C41513   3.147   8.781   2.975 -0.6043  0.0946  0.1651
  315MOL0     C41514   3.040   8.869   2.970 -0.0176  0.3717 -0.1062
  315MOL0     H41515   2.709   9.180   2.704 -1.8893 -1.0923  0.2072
  315MOL0     H41516   2.584   9.370   2.632 -0.2150  1.6629  0.3381
  315MOL0     H41517   2.658   9.776   2.872 -0.6415 -0.3899  0.5116
  315MOL0     H41518   2.543   9.650   2.931 -3.2842 -0.3802 -0.5568
  315MOL0     H41519   2.443   9.861   2.886  0.3898 -1.0290  1.6787
  315MOL0     H41520   2.384   9.747   2.761 -0.0974 -0.5679 -0.4549
  315MOL0     H41521   2.530   9.836   2.582  1.2404 -0.8865  0.0968
  315MOL0     H41522   2.591   9.945   2.696  0.7778 -1.0781 -0.6593
  315MOL0     H41523   2.311   9.956   2.572  1.3473  1.0065 -2.5686
  315MOL0     H41524   2.356  10.033   2.724  1.1497  0.1623  0.5308
  315MOL0     H41525   2.426  10.079   2.445  0.4323  0.1237 -0.1468
  315MOL0     H41526   2.557  10.114   2.547 -0.4155  1.0001 -1.3999
  315MOL0     H41527   2.432  10.311   2.533  0.5908 -0.3445  2.2652
  315MOL0     H41528   2.378  10.262   2.695  0.7537  1.2022 -0.2287
  315MOL0     H41529   2.207  10.211   2.452 -0.2543  4.2803 -1.4618
  315MOL0     H41530   2.188  10.174   2.635 -1.9522  0.9767 -0.1387
  315MOL0     H41531   2.259  10.447   2.557  0.0878  0.0637  1.9651
  315MOL0     H41532   2.125  10.408   2.667 -3.4504 -0.1778 -1.3002
  315MOL0     H41533   1.891  10.443   2.587 -0.5936  2.5550 -0.3121
  315MOL0     H41534   1.802  10.683   2.325 -0.2442 -0.2064 -0.0481
  315MOL0     H41535   1.736  10.616   2.474 -0.0505 -0.2673  0.2495
  315MOL0     H41536   1.563  10.549   2.334 -0.0699 -0.9742 -1.0340
  315MOL0     H41537   1.665  10.408   2.315  0.1627 -0.3001  0.0666
  315MOL0     H41538   1.666  10.646   2.120 -0.3661  1.2368  4.1566
  315MOL0     H41539   1.774  10.505   2.123  0.2896  0.8356  0.7056
  315MOL0     H41540   1.553  10.359   2.126  0.9970 -0.3433 -1.4134
  315MOL0     H41541   1.610  10.425   1.976  1.7989 -1.3906  0.6283
  315MOL0     H41542   1.425  10.298   1.910  1.1814  2.2351  1.7619
  315MOL0     H41543   1.220  10.213   1.822  0.9166  0.0447 -0.7502
  315MOL0     H41544   0.662  10.523   1.900  0.1098  0.5461 -0.7239
  315MOL0     H41545   0.459  10.552   1.776  0.1553  0.0401 -1.6676
  315MOL0     H41546   0.258  10.532   1.472 -1.1972  1.8944  1.3832
  315MOL0     H41547   0.367  10.607   1.593 -0.2040  1.0291  1.7747
  315MOL0     H41548   0.124  10.599   1.644 -0.3552  0.0645  2.3507
  315MOL0     H41549   0.213  10.511   1.766  0.4440  3.1457  0.4513
  315MOL0     H41550   0.027  10.377   1.718 -0.6303 -2.6206  0.3155
  315MOL0     H41551   0.172  10.309   1.637 -0.6062 -0.4450  1.0092
  315MOL0     H41552   0.041  10.464   1.442 -1.4899  0.2560  1.4780
  315MOL0     H41553   0.055  10.291   1.447  0.5191 -0.3262  0.6667
  315MOL0     H41554  -0.149  10.249   1.539 -0.1409 -0.8888 -1.1544
  315MOL0     H41555  -0.174  10.371   1.410 -0.0508 -2.4232 -1.4262
  315MOL0     H41556  -0.171  10.552   1.573 -2.0253 -1.0813 -4.0095
  315MOL0     H41557  -0.191  10.430   1.716 -0.8475 -1.4396 -0.1873
  315MOL0     H41558  -0.367  10.483   1.486  0.7915 -0.6881 -0.0956
  315MOL0     H41559  -0.388  10.362   1.625  1.8108 -0.7184 -0.3923
  315MOL0     H41560  -0.408  10.542   1.777  0.5901 -0.0242 -0.1140
  315MOL0     H41561  -0.532  10.537   1.656 -0.2259 -2.1875 -0.4606
  315MOL0     H41562   0.551  10.203   1.549  0.8168 -0.2168  0.0013
  315MOL0     H41563   0.787  10.208   1.651 -0.0113 -0.7442  0.4467
  315MOL0     H41564   1.018  10.571   1.945 -1.0811 -0.5594 -1.3748
  315MOL0     H41565   1.219  10.658   2.054  0.0564  0.7217 -0.4515
  315MOL0     H41566   2.826   9.626   2.880 -1.3904 -0.8909  1.3465
  315MOL0     H41567   2.983   9.449   2.915  0.9006 -0.1624 -0.9774
  315MOL0     H41568   3.192   9.131   2.834  0.0898  1.3789  1.9862
  315MOL0     H41569   3.377   8.979   2.822 -0.3528  0.1841 -2.8076
  315MOL0     H41570   3.576   8.721   2.978  0.7578 -1.3240 -0.5699
  315MOL0     H41571   3.526   8.879   2.928  1.8979  0.2888  0.7919
  315MOL0     H41572   3.506   8.809   2.698  0.9741  0.2267 -0.7477
  315MOL0     H41573   3.661   8.831   2.765 -1.4031  1.9320 -1.3232
  315MOL0     H41574   3.511   8.566   2.718  0.9481 -2.2412  2.6277
  315MOL0     H41575   3.667   8.578   2.800 -0.8781 -0.4237  0.4544
  315MOL0     H41576   3.651   8.538   2.536 -0.6501  1.4289 -3.1333
  315MOL0     H41577   3.648   8.706   2.507  1.4328  0.3860 -0.4474
  315MOL0     H41578   4.054   8.639   2.647  0.3595 -1.1404 -2.7338
  315MOL0     H41579   3.140   8.681   3.016  0.0576  0.1917  0.5366
  315MOL0     H41580   2.942   8.835   3.003  0.4483 -2.8958 -1.6043
  316MOL0     O41581   6.798   2.481   4.227 -0.0350  1.1167 -0.0813
  316MOL0     C41582   6.822   2.437   4.114 -1.0625 -0.3841 -0.1155
  316MOL0     O41583   6.948   2.400   4.069 -0.0714 -0.1712  0.5960
  316MOL0     C41584   7.050   2.401   4.160  0.5882  0.1253 -0.0710
  316MOL0     C41585   7.041   2.313   4.264  0.1565 -0.4627 -0.4751
  316MOL0     C41586   7.132   2.325   4.369 -0.6628  0.4203  0.9711
  316MOL0     C41587   7.246   2.415   4.365 -0.3439 -0.0059  0.3188
  316MOL0     O41588   7.331   2.416   4.476  0.1243  0.1802  0.1715
  316MOL0     C41589   7.454   2.485   4.467  1.1989  0.1888 -0.1483
  316MOL0     C41590   7.522   2.496   4.604 -0.7317  0.4224  1.0565
  316MOL0     C41591   7.669   2.482   4.566 -0.2135  0.6160  0.3312
  316MOL0     C41592   7.731   2.592   4.495 -1.0173 -0.0090 -0.4052
  316MOL0     C41593   7.873   2.555   4.431 -0.4162 -0.7280 -0.1475
  316MOL0     C41594   8.000   2.577   4.526  0.0911  0.0634 -0.7119
  316MOL0     C41595   8.131   2.583   4.441  0.5144 -0.9153 -0.2267
  316MOL0     C41596   8.248   2.539   4.525 -0.0794 -0.4837 -0.4704
  316MOL0     N41597   8.371   2.536   4.446  0.2979 -0.6032  0.1478
  316MOL0     C41598   8.453   2.645   4.422  0.0244  0.6248 -0.4794
  316MOL0     C41599   8.558   2.588   4.356  0.2170  0.0755 -0.4110
  316MOL0     C41600   8.679   2.647   4.287  0.0636 -0.7358 -0.6218
  316MOL0     C41601   8.668   2.801   4.296 -0.0896  0.1760  0.0303
  316MOL0     C41602   8.556   2.851   4.211  0.6873 -0.3142  0.5006
  316MOL0     C41603   8.526   2.995   4.221  0.1217 -0.0695  0.4859
  316MOL0     O41604   8.497   3.035   4.362  0.3777 -0.3625  0.4566
  316MOL0     C41605   8.375   3.017   4.411  0.5485 -0.3571  0.1633
  316MOL0     C41606   8.257   2.974   4.347 -1.0343  0.9275  0.2309
  316MOL0     C41607   8.143   2.965   4.422  0.5425 -0.5754 -0.1069
  316MOL0     C41608   8.137   3.000   4.555  0.4150 -1.1175 -0.5492
  316MOL0     C41609   8.017   2.982   4.637 -0.4080 -0.2773 -0.4513
  316MOL0     O41610   7.916   2.921   4.570 -0.6005 -0.9713  0.9922
  316MOL0     C41611   7.794   2.959   4.611  0.1174 -0.6097  0.5083
  316MOL0     C41612   7.731   3.060   4.540 -0.0234 -0.2006  0.1870
  316MOL0     C41613   7.597   3.091   4.559  0.2473 -0.3256 -0.7155
  316MOL0     C41614   7.519   3.026   4.661 -0.2634  0.6501 -0.3622
  316MOL0     O41615   7.385   3.054   4.668  0.1807 -0.4749 -0.6460
  316MOL0     C41616   7.317   3.056   4.794 -0.3565  0.7277  0.8413
  316MOL0     C41617   7.199   3.155   4.786 -0.3305  0.1962 -0.1941
  316MOL0     C41618   7.072   3.111   4.720  0.3987 -0.3644  0.6762
  316MOL0     C41619   6.950   3.206   4.726 -0.1385 -0.1685  0.1756
  316MOL0     C41620   6.826   3.164   4.649 -0.2078  0.1685  0.0563
  316MOL0     C41621   6.806   3.236   4.521  0.3660 -0.7475  0.1733
  316MOL0     C41622   6.669   3.196   4.463 -0.4381 -0.3793  0.1102
  316MOL0     C41623   6.640   3.259   4.323  0.0459  0.5356 -0.1396
  316MOL0    Cl41624   6.500   3.196   4.240  0.3191 -0.0715 -0.1497
  316MOL0     C41625   7.590   2.927   4.740 -0.4245 -1.1254 -0.3435
  316MOL0     C41626   7.728   2.884   4.709 -0.1100 -0.1823 -0.1563
  316MOL0     O41627   8.009   3.021   4.752  0.3810  0.3823  0.0842
  316MOL0     C41628   8.262   3.037   4.621  0.1387 -0.4761  0.7520
  316MOL0     C41629   8.379   3.046   4.540 -0.4699  0.2763  0.0008
  316MOL0     N41630   8.531   2.455   4.342  0.4647  0.0466 -0.0150
  316MOL0     N41631   8.419   2.424   4.391  0.1225  0.6588  0.5279
  316MOL0     C41632   7.253   2.504   4.257 -0.0464  0.6420 -0.8616
  316MOL0     C41633   7.154   2.493   4.159 -0.2406 -0.2733 -0.2774
  316MOL0     C41634   6.711   2.415   4.017  0.0317 -0.3740  0.8980
  316MOL0     C41635   6.581   2.470   4.022  0.0697  0.4931  0.3230
  316MOL0     C41636   6.484   2.458   3.919 -0.5234 -0.7333 -0.1392
  316MOL0     C41637   6.520   2.396   3.804  0.0517 -0.1996  0.5629
  316MOL0     O41638   6.421   2.408   3.701 -0.5289 -0.8806 -0.9677
  316MOL0     C41639   6.416   2.306   3.602 -0.3301  0.7991  0.6167
  316MOL0     C41640   6.387   2.162   3.646 -0.0299 -0.8521 -0.3252
  316MOL0     C41641   6.232   2.128   3.667  0.2602  0.1359  0.7087
  316MOL0     C41642   6.137   2.220   3.735  0.1315  0.1535 -0.8130
  316MOL0     C41643   6.143   2.231   3.887 -0.6843 -0.6384  0.3414
  316MOL0     C41644   6.153   2.228   4.009  0.1820 -0.2107  0.4078
  316MOL0     C41645   6.640   2.326   3.798 -0.2754 -0.0847 -0.6014
  316MOL0     C41646   6.734   2.337   3.899  0.7542 -0.3635 -0.9389
  316MOL0     H41647   6.971   2.231   4.275 -0.7072  0.5316  2.0149
  316MOL0     H41648   7.144   2.253   4.449 -1.3352 -1.0154 -0.1918
  316MOL0     H41649   7.444   2.590   4.440  1.7597  0.2570 -0.1006
  316MOL0     H41650   7.512   2.436   4.388  2.5699 -0.8962  1.4603
  316MOL0     H41651   7.489   2.412   4.667  2.2595 -0.7138  1.2708
  316MOL0     H41652   7.501   2.598   4.637 -0.9195  1.0362 -0.8423
  316MOL0     H41653   7.679   2.388   4.511  1.1760  0.1761  1.2796
  316MOL0     H41654   7.723   2.468   4.660 -0.7427 -3.1867  0.2591
  316MOL0     H41655   7.672   2.628   4.410 -2.5084 -1.1282  0.0993
  316MOL0     H41656   7.751   2.674   4.563 -0.9718 -0.7423  0.4785
  316MOL0     H41657   7.890   2.622   4.346 -0.9481 -0.3845  0.0074
  316MOL0     H41658   7.884   2.456   4.388  0.2586 -1.1927  1.0469
  316MOL0     H41659   8.001   2.491   4.594  0.3387 -2.0386 -3.1968
  316MOL0     H41660   7.991   2.660   4.596 -1.5068 -1.3294  0.8198
  316MOL0     H41661   8.124   2.514   4.357 -1.3327  1.2442 -1.9865
  316MOL0     H41662   8.128   2.684   4.399 -3.0911 -0.5730  0.5383
  316MOL0     H41663   8.216   2.439   4.556 -3.5882  0.5255 -0.4283
  316MOL0     H41664   8.258   2.608   4.609 -0.9909  0.0167 -0.7676
  316MOL0     H41665   8.424   2.749   4.434 -2.4475  0.2219 -2.2887
  316MOL0     H41666   8.684   2.621   4.181 -1.7595  0.1723 -0.9809
  316MOL0     H41667   8.769   2.625   4.345 -0.2040  0.9542  0.4932
  316MOL0     H41668   8.754   2.829   4.235 -1.6957 -1.2613 -3.1774
  316MOL0     H41669   8.662   2.841   4.397  1.8382  1.2787 -0.2439
  316MOL0     H41670   8.586   2.830   4.108 -0.0504  2.8339 -0.4873
  316MOL0     H41671   8.459   2.809   4.241 -1.0237  2.8598 -0.0326
  316MOL0     H41672   8.440   3.021   4.160 -0.9116 -0.0102  1.9015
  316MOL0     H41673   8.601   3.061   4.177  0.1998 -0.3660  0.1790
  316MOL0     H41674   8.252   2.962   4.239 -2.8370 -1.3509  0.5065
  316MOL0     H41675   8.058   2.958   4.355  0.7335  0.0782 -0.4287
  316MOL0     H41676   7.793   3.123   4.478  2.1737  0.1668  2.5672
  316MOL0     H41677   7.537   3.161   4.502 -2.4193 -1.6895  0.2614
  316MOL0     H41678   7.389   3.081   4.873  0.0413 -2.6424  1.6830
  316MOL0     H41679   7.276   2.959   4.824  0.6522  1.1552  4.0420
  316MOL0     H41680   7.243   3.242   4.736  2.4918 -0.6049  0.7376
  316MOL0     H41681   7.186   3.180   4.892  4.0343 -0.0705  0.5771
  316MOL0     H41682   7.043   3.018   4.769 -2.1899  0.6820  1.2986
  316MOL0     H41683   7.093   3.088   4.615  0.6109 -0.6546  0.7817
  316MOL0     H41684   6.914   3.218   4.828 -1.2765 -1.0012 -0.1102
  316MOL0     H41685   6.988   3.302   4.690 -1.1645  0.5878  1.0395
  316MOL0     H41686   6.739   3.190   4.711  0.5745  1.9143  0.4894
  316MOL0     H41687   6.817   3.057   4.628  0.8609  0.0725  0.0706
  316MOL0     H41688   6.878   3.200   4.447 -1.2685 -2.4773 -0.6782
  316MOL0     H41689   6.802   3.344   4.537 -0.7114 -0.4224 -1.8938
  316MOL0     H41690   6.673   3.087   4.450 -4.8442 -0.7118  0.1394
  316MOL0     H41691   6.589   3.218   4.534 -0.4611  0.2574 -0.1074
  316MOL0     H41692   6.733   3.256   4.265 -0.3286 -0.1623 -0.7170
  316MOL0     H41693   6.614   3.365   4.327 -3.7014 -0.2865  2.1661
  316MOL0     H41694   7.525   2.875   4.809 -1.4574  0.1912 -0.2836
  316MOL0     H41695   7.771   2.796   4.756  1.1316  0.7519  0.5004
  316MOL0     H41696   8.267   3.052   4.729  3.2709  1.2628  0.4659
  316MOL0     H41697   8.470   3.067   4.595 -1.1610  1.1194  0.8725
  316MOL0     H41698   7.333   2.577   4.249 -0.0396  0.4623 -3.2274
  316MOL0     H41699   7.150   2.563   4.077 -0.1129  1.2082  0.9365
  316MOL0     H41700   6.557   2.527   4.111  0.9164 -0.0377  0.8998
  316MOL0     H41701   6.386   2.505   3.920 -1.2060 -2.1030 -0.3552
  316MOL0     H41702   6.518   2.302   3.563 -0.2697 -3.1634  0.7806
  316MOL0     H41703   6.355   2.340   3.517  1.4321  0.9416 -0.6534
  316MOL0     H41704   6.433   2.088   3.580  0.5893 -2.5930  1.9392
  316MOL0     H41705   6.446   2.143   3.736  0.2256 -1.1374 -0.5517
  316MOL0     H41706   6.215   2.031   3.713 -1.6261 -0.0085 -0.2128
  316MOL0     H41707   6.197   2.129   3.563  2.0853  1.1662  0.0496
  316MOL0     H41708   6.160   2.321   3.698  3.4930  1.0288  2.9763
  316MOL0     H41709   6.036   2.183   3.716 -0.1521 -0.0683  0.9816
  316MOL0     H41710   6.177   2.231   4.113  1.3287  3.1562  0.1673
  316MOL0     H41711   6.667   2.268   3.710  1.1084 -5.2594  2.8205
  316MOL0     H41712   6.825   2.282   3.876  1.6225  1.3097 -1.6277
  317MOL0     O41713   7.674   9.705  10.927  0.1587  0.6272  0.3493
  317MOL0     C41714   7.786   9.660  10.961  1.0465  0.3624 -0.6032
  317MOL0     O41715   7.833   9.528  10.948  0.7460 -0.4988  0.2411
  317MOL0     C41716   7.739   9.427  10.927 -0.2814 -0.4233  0.5985
  317MOL0     C41717   7.774   9.314  10.849  0.5892 -0.2913 -0.1117
  317MOL0     C41718   7.682   9.208  10.831  0.2327 -0.3112 -0.3223
  317MOL0     C41719   7.559   9.200  10.905 -0.9050 -0.0797 -0.0655
  317MOL0     O41720   7.467   9.105  10.908  0.2521  0.5451  0.0587
  317MOL0     C41721   7.514   8.989  10.851 -0.6339 -1.1996 -1.0306
  317MOL0     C41722   7.405   8.893  10.874  0.9309  0.3351 -0.0941
  317MOL0     C41723   7.364   8.870  11.018  0.4920  0.5144  0.0655
  317MOL0     C41724   7.218   8.922  11.044  0.7446  0.4618 -0.7627
  317MOL0     C41725   7.191   8.885  11.189  1.4325  0.0170  0.5242
  317MOL0     C41726   7.045   8.909  11.230  0.5026  0.3662  0.3152
  317MOL0     C41727   6.935   8.811  11.180  0.3836 -0.5316 -0.2567
  317MOL0     C41728   6.972   8.665  11.187  0.4209 -0.0784  0.2026
  317MOL0     N41729   7.025   8.618  11.314 -0.0805  0.5892  0.8226
  317MOL0     C41730   7.147   8.541  11.328  0.4223  0.1724 -0.5938
  317MOL0     C41731   7.162   8.535  11.466 -0.6248  0.5865 -0.5004
  317MOL0     C41732   7.273   8.465  11.547 -0.0741 -0.9978 -0.5703
  317MOL0     C41733   7.411   8.505  11.491 -0.9201 -0.2837 -0.0500
  317MOL0     C41734   7.426   8.659  11.495  0.0739  0.3986 -0.2155
  317MOL0     C41735   7.557   8.716  11.434  0.7913 -0.3853  1.7426
  317MOL0     O41736   7.560   8.684  11.295 -0.3653  0.3054 -0.2522
  317MOL0     C41737   7.654   8.732  11.209 -0.3394 -0.4892  0.5460
  317MOL0     C41738   7.757   8.818  11.241 -0.0602 -0.0923 -0.5298
  317MOL0     C41739   7.832   8.886  11.148  0.0290  0.4090  0.3136
  317MOL0     C41740   7.830   8.842  11.013  0.7064  0.1980  0.0050
  317MOL0     C41741   7.929   8.904  10.918  0.6197 -0.1046 -0.4281
  317MOL0     O41742   7.999   9.006  10.953  0.5346  0.8170  0.6764
  317MOL0     C41743   8.107   9.046  10.873  0.8141 -0.2213  0.3378
  317MOL0     C41744   8.230   9.067  10.942 -0.7085  0.3052  0.2462
  317MOL0     C41745   8.332   9.124  10.872 -0.9008  0.4578  0.9595
  317MOL0     C41746   8.312   9.173  10.738  0.9434 -0.1358 -0.3386
  317MOL0     O41747   8.417   9.243  10.680 -0.2782 -0.0174  0.2012
  317MOL0     C41748   8.394   9.326  10.572  0.1588  0.4852 -0.7158
  317MOL0     C41749   8.518   9.412  10.531  0.2197 -0.5696 -0.3493
  317MOL0     C41750   8.575   9.471  10.663  0.8320  0.0753  0.0820
  317MOL0     C41751   8.685   9.573  10.627  0.9138 -0.0493  0.0878
  317MOL0     C41752   8.744   9.650  10.750 -0.3100  0.6850 -0.2021
  317MOL0     C41753   8.882   9.734  10.739  0.4708  1.1330  0.5210
  317MOL0     C41754   8.932   9.789  10.875 -0.7168  0.7794 -0.3811
  317MOL0     C41755   9.057   9.871  10.861  0.5909  0.3947 -0.4444
  317MOL0    Cl41756   9.043  10.007  10.745 -0.6022  0.0956  0.2853
  317MOL0     C41757   8.196   9.140  10.667  0.4134  0.0690  1.3296
  317MOL0     C41758   8.089   9.079  10.738  0.7080 -0.0047  0.2394
  317MOL0     O41759   7.929   8.853  10.805 -0.2298  0.5993 -0.3592
  317MOL0     C41760   7.734   8.742  10.984  0.6320  0.4004 -0.2577
  317MOL0     C41761   7.635   8.698  11.083 -0.0464 -0.3017 -0.5485
  317MOL0     N41762   7.060   8.597  11.525  0.3192 -0.0327  0.4013
  317MOL0     N41763   6.978   8.644  11.438  0.3799 -0.5415 -0.1563
  317MOL0     C41764   7.528   9.314  10.981 -0.1130  0.6438 -0.1969
  317MOL0     C41765   7.619   9.419  10.999  0.6042 -0.5267  0.5257
  317MOL0     C41766   7.898   9.745  11.019  0.5009  0.7587 -0.1108
  317MOL0     C41767   7.902   9.884  10.999  0.1772  0.6443  0.4619
  317MOL0     C41768   7.995   9.972  11.049  0.3318 -0.3362 -0.0714
  317MOL0     C41769   8.104   9.921  11.117 -0.4388 -0.5361 -0.3448
  317MOL0     O41770   8.190  10.001  11.181 -0.0571  0.4706 -0.0326
  317MOL0     C41771   8.255  10.105  11.103 -0.9135 -0.8572 -0.3621
  317MOL0     C41772   8.358  10.041  11.007 -0.1960  0.5700 -0.3662
  317MOL0     C41773   8.416  10.139  10.907  0.3358  0.9849 -0.3365
  317MOL0     C41774   8.539  10.209  10.965  0.8027 -0.6695  1.2635
  317MOL0     C41775   8.664  10.137  10.965  0.4159 -0.0954 -0.3905
  317MOL0     C41776   8.777  10.082  10.987 -0.3803  0.3102  0.2480
  317MOL0     C41777   8.098   9.781  11.144 -0.4989 -0.0739 -0.5247
  317MOL0     C41778   8.000   9.693  11.101 -0.2214  0.5254 -0.2670
  317MOL0     H41779   7.857   9.314  10.779  1.8883 -0.6675  1.3678
  317MOL0     H41780   7.731   9.130  10.773  0.9942 -0.6176  0.6966
  317MOL0     H41781   7.604   8.964  10.907  1.9785  1.1298 -3.8153
  317MOL0     H41782   7.535   8.993  10.744 -0.1990  0.2271 -0.9124
  317MOL0     H41783   7.445   8.795  10.847  1.7705 -0.2059  2.8448
  317MOL0     H41784   7.317   8.910  10.810  0.1103 -2.1687  0.2638
  317MOL0     H41785   7.432   8.923  11.086  1.4254 -1.7194  0.9445
  317MOL0     H41786   7.367   8.764  11.043 -0.8262  0.7237  1.2309
  317MOL0     H41787   7.211   9.031  11.030  0.0707  0.4494 -0.5829
  317MOL0     H41788   7.150   8.871  10.976  1.6397  0.2329 -1.5075
  317MOL0     H41789   7.253   8.954  11.246  1.5831 -1.3594  2.1168
  317MOL0     H41790   7.232   8.784  11.204  1.5435 -0.7337 -3.5360
  317MOL0     H41791   7.017   9.012  11.208 -0.9507  0.2508  1.4612
  317MOL0     H41792   7.043   8.894  11.338  0.4424  0.2309  0.2962
  317MOL0     H41793   6.847   8.824  11.244 -0.9830  1.2264 -2.3450
  317MOL0     H41794   6.903   8.844  11.081 -0.8443 -0.3353  0.1863
  317MOL0     H41795   7.052   8.654  11.113  0.3725 -0.0540  0.1463
  317MOL0     H41796   6.882   8.610  11.157  0.9160 -0.4182 -0.7169
  317MOL0     H41797   7.222   8.496  11.264  1.0476 -0.9601  0.8806
  317MOL0     H41798   7.253   8.357  11.547  0.2725 -1.0609 -0.4787
  317MOL0     H41799   7.276   8.485  11.654 -0.4607 -0.5331 -0.6432
  317MOL0     H41800   7.427   8.480  11.386 -0.1903  0.4762 -0.1287
  317MOL0     H41801   7.490   8.471  11.559 -0.1943  0.4099 -0.5248
  317MOL0     H41802   7.351   8.718  11.441 -0.6336 -0.6901 -0.4400
  317MOL0     H41803   7.418   8.686  11.601 -2.9091  0.7590 -0.4445
  317MOL0     H41804   7.646   8.661  11.467  3.2802  1.8542 -0.6844
  317MOL0     H41805   7.570   8.823  11.453  0.4530 -0.1711  0.8515
  317MOL0     H41806   7.770   8.844  11.345  0.5196 -2.2619 -0.0078
  317MOL0     H41807   7.909   8.956  11.177 -0.7312  1.0455  0.8466
  317MOL0     H41808   8.236   9.048  11.049 -4.9627  0.8422  0.7587
  317MOL0     H41809   8.431   9.141  10.915  0.0948 -1.3295 -0.4826
  317MOL0     H41810   8.313   9.395  10.597 -1.1960 -2.2499  3.5683
  317MOL0     H41811   8.360   9.265  10.488 -2.4872 -0.5796  1.0003
  317MOL0     H41812   8.488   9.493  10.464 -4.2382  0.7070  2.7024
  317MOL0     H41813   8.593   9.347  10.485  0.6344 -2.3827  2.6256
  317MOL0     H41814   8.621   9.396  10.728 -0.6454 -0.9203  0.0102
  317MOL0     H41815   8.493   9.525  10.711  1.1618  1.2493 -0.6329
  317MOL0     H41816   8.765   9.521  10.573 -1.5729  0.4584 -4.6987
  317MOL0     H41817   8.651   9.647  10.553  2.6362 -0.0788 -0.7887
  317MOL0     H41818   8.766   9.573  10.825  2.1510  1.8395  0.3810
  317MOL0     H41819   8.667   9.706  10.804 -1.3129  0.9082 -1.8063
  317MOL0     H41820   8.862   9.822  10.678 -0.2748  0.7518  0.2064
  317MOL0     H41821   8.956   9.682  10.678 -0.6667  1.6761 -1.4117
  317MOL0     H41822   8.847   9.848  10.910 -0.1689  0.6924  1.2043
  317MOL0     H41823   8.953   9.718  10.956 -0.3870  1.2364 -0.0649
  317MOL0     H41824   9.147   9.812  10.841  1.5597  1.6847 -0.1062
  317MOL0     H41825   9.079   9.920  10.957  3.3971 -0.5671 -0.5156
  317MOL0     H41826   8.168   9.178  10.569 -0.2651 -0.3642  1.3462
  317MOL0     H41827   7.990   9.071  10.695  0.2064  2.3897  0.8148
  317MOL0     H41828   7.722   8.710  10.880 -0.9931 -0.2691  0.1015
  317MOL0     H41829   7.552   8.632  11.059  0.8082 -1.7326  0.3107
  317MOL0     H41830   7.429   9.331  11.023 -1.2084 -1.1488 -1.8883
  317MOL0     H41831   7.592   9.495  11.073  1.7005  0.2234  0.1757
  317MOL0     H41832   7.811   9.916  10.950 -1.7978 -1.0421  2.7480
  317MOL0     H41833   7.976  10.079  11.044  0.1420  0.0050  4.0544
  317MOL0     H41834   8.304  10.179  11.167  2.9471 -1.6082 -2.1137
  317MOL0     H41835   8.187  10.175  11.054  2.4714  3.3095  0.2518
  317MOL0     H41836   8.443  10.005  11.066 -0.9769  0.4125  0.6739
  317MOL0     H41837   8.303   9.967  10.947 -1.1344  2.3986 -1.8614
  317MOL0     H41838   8.331  10.204  10.888 -1.7066 -1.0202  1.3829
  317MOL0     H41839   8.440  10.096  10.810  0.6455  0.7693 -0.1693
  317MOL0     H41840   8.550  10.297  10.902 -1.8996 -1.8377 -1.0508
  317MOL0     H41841   8.520  10.240  11.068 -0.0406  1.2651  0.5545
  317MOL0     H41842   8.869  10.043  11.025 -0.8373 -1.1045 -0.0338
  317MOL0     H41843   8.174   9.742  11.211 -1.1375 -0.7806 -0.1849
  317MOL0     H41844   7.993   9.588  11.126 -0.6546 -0.0188 -2.4808
  318MOL0     O41845   6.798   6.333   9.269 -0.5451 -0.0197 -0.0930
  318MOL0     C41846   6.848   6.231   9.222  0.0762  0.8686  0.3609
  318MOL0     O41847   6.781   6.110   9.205  0.2178  0.6797 -0.1925
  318MOL0     C41848   6.647   6.111   9.229  0.2314 -0.2369  0.1557
  318MOL0     C41849   6.606   6.010   9.310  0.5499 -0.0552 -0.9059
  318MOL0     C41850   6.468   5.996   9.345 -0.5089  0.1303 -0.4204
  318MOL0     C41851   6.373   6.088   9.303  0.6878 -0.3405 -0.0136
  318MOL0     O41852   6.236   6.082   9.331 -0.3367  0.7758 -0.3125
  318MOL0     C41853   6.191   5.992   9.434 -0.5171  0.2510 -0.4219
  318MOL0     C41854   6.050   6.046   9.464  0.4675 -0.6942  0.4394
  318MOL0     C41855   5.956   6.026   9.343 -1.2584  0.4610  0.4731
  318MOL0     C41856   5.814   6.069   9.356  0.2807  0.1241 -0.0424
  318MOL0     C41857   5.715   5.971   9.422 -0.2717  0.1621 -0.6821
  318MOL0     C41858   5.743   5.941   9.576  0.7082  0.2008  0.8322
  318MOL0     C41859   5.743   6.060   9.673 -0.1661 -0.2813 -0.3304
  318MOL0     C41860   5.612   6.132   9.652 -1.0572  0.4487  0.3545
  318MOL0     N41861   5.502   6.043   9.675 -0.5080 -0.2667  0.1133
  318MOL0     C41862   5.501   5.948   9.781 -0.4944 -0.4277  0.7556
  318MOL0     C41863   5.372   5.911   9.803  0.5156  0.6557  0.0515
  318MOL0     C41864   5.317   5.818   9.910  0.6523 -0.3335 -0.4216
  318MOL0     C41865   5.249   5.701   9.843  0.8746 -0.0172 -0.5125
  318MOL0     C41866   5.219   5.586   9.949 -0.3815 -0.3695 -0.2432
  318MOL0     C41867   5.138   5.646  10.072  0.2328  0.5310  0.7760
  318MOL0     O41868   5.088   5.528  10.133 -0.2196  0.1630 -0.0639
  318MOL0     C41869   4.961   5.495  10.164  0.7490  0.3877 -0.5620
  318MOL0     C41870   4.946   5.365  10.215  0.5038 -0.6442  0.0599
  318MOL0     C41871   4.818   5.331  10.257  1.2300  0.2121  0.4199
  318MOL0     C41872   4.704   5.426  10.259 -0.1528  0.7651 -0.1295
  318MOL0     C41873   4.573   5.388  10.311  0.0239  0.3072  0.4610
  318MOL0     O41874   4.506   5.488  10.357 -0.3399  0.9067 -0.2756
  318MOL0     C41875   4.376   5.477  10.406 -0.4011 -0.0432 -0.0813
  318MOL0     C41876   4.328   5.599  10.460 -0.1493 -0.8190 -0.1573
  318MOL0     C41877   4.200   5.618  10.508 -0.2661  0.2709 -0.3683
  318MOL0     C41878   4.111   5.506  10.506  0.4881  0.2856 -0.3251
  318MOL0     O41879   3.982   5.509  10.539  0.4865  0.8219 -0.1106
  318MOL0     C41880   3.931   5.631  10.603 -0.2714  0.2403  0.2581
  318MOL0     C41881   3.784   5.620  10.653  0.1081  0.3224 -0.0376
  318MOL0     C41882   3.728   5.741  10.725  0.2888 -0.1416 -0.8335
  318MOL0     C41883   3.600   5.703  10.799 -0.5276 -0.5191 -0.3538
  318MOL0     C41884   3.630   5.661  10.934  0.2451 -0.0610  0.1955
  318MOL0     C41885   3.511   5.588  10.993  0.6998 -0.5053 -0.0852
  318MOL0     C41886   3.492   5.448  10.930 -0.4077  0.5909  0.0826
  318MOL0     C41887   3.424   5.342  11.028 -0.2000 -0.1770  0.4321
  318MOL0    Cl41888   3.255   5.392  11.045 -0.3185  0.7182 -0.2218
  318MOL0     C41889   4.145   5.385  10.448 -0.7953 -0.4862  0.6898
  318MOL0     C41890   4.280   5.366  10.406  1.0903 -0.8783 -0.4361
  318MOL0     O41891   4.537   5.265  10.298  0.0403 -0.1982  0.0178
  318MOL0     C41892   4.729   5.553  10.218 -0.2513  0.4892  0.4491
  318MOL0     C41893   4.859   5.588  10.179 -0.3332 -0.4771  0.0043
  318MOL0     N41894   5.302   5.971   9.699 -0.5310  1.2768  0.0156
  318MOL0     N41895   5.379   6.053   9.631 -0.0948 -0.1274  0.5097
  318MOL0     C41896   6.412   6.183   9.207  0.7800 -0.7060 -0.4602
  318MOL0     C41897   6.550   6.200   9.176 -0.1452 -0.0231  0.8546
  318MOL0     C41898   6.992   6.241   9.190  0.1548  0.1795  0.2012
  318MOL0     C41899   7.055   6.137   9.120  0.0270 -1.7021 -0.0209
  318MOL0     C41900   7.193   6.144   9.116 -0.3640  1.1685 -0.0053
  318MOL0     C41901   7.270   6.254   9.171  0.4846 -0.0270  0.3896
  318MOL0     O41902   7.405   6.255   9.156  0.5601 -1.0127 -0.0692
  318MOL0     C41903   7.470   6.136   9.170 -0.1124  0.1844  0.3820
  318MOL0     C41904   7.626   6.164   9.213  0.7966 -0.0264  0.1735
  318MOL0     C41905   7.700   6.196   9.084  0.7137  0.4041  0.4105
  318MOL0     C41906   7.843   6.159   9.104 -0.1660 -0.5095 -0.0273
  318MOL0     C41907   7.925   6.223   8.989 -0.3850  0.4410 -0.6413
  318MOL0     C41908   7.987   6.290   8.914  0.8020 -0.4818 -0.0490
  318MOL0     C41909   7.206   6.350   9.244 -0.0480 -0.0891  0.5521
  318MOL0     C41910   7.065   6.348   9.242  0.8374 -0.6815  0.2225
  318MOL0     H41911   6.682   5.935   9.324  0.6477  0.1454 -0.3082
  318MOL0     H41912   6.444   5.907   9.401  1.1512  0.3011  0.6473
  318MOL0     H41913   6.247   6.013   9.525  0.3650  0.4324 -0.9870
  318MOL0     H41914   6.202   5.889   9.400  2.0198  0.2362  0.2563
  318MOL0     H41915   6.057   6.154   9.480  0.0236 -0.6122  0.1225
  318MOL0     H41916   6.023   6.006   9.562 -2.2091  0.7190  0.3699
  318MOL0     H41917   5.958   5.917   9.328 -1.8214  0.2469  1.8053
  318MOL0     H41918   6.006   6.073   9.257 -1.5791  0.3743  0.2373
  318MOL0     H41919   5.802   6.167   9.402 -0.2309 -0.3661  0.9110
  318MOL0     H41920   5.787   6.083   9.251  2.6128  2.6035 -0.4238
  318MOL0     H41921   5.706   5.881   9.361 -1.4792 -0.2973  0.1368
  318MOL0     H41922   5.613   6.008   9.408 -2.0848 -3.1704  2.2474
  318MOL0     H41923   5.830   5.876   9.591 -0.5503 -1.6281  0.5983
  318MOL0     H41924   5.664   5.870   9.604  0.3308 -0.5559 -1.8325
  318MOL0     H41925   5.753   6.030   9.778 -0.8933  2.1931  0.5258
  318MOL0     H41926   5.821   6.133   9.651  0.3245 -0.6084  0.2755
  318MOL0     H41927   5.608   6.180   9.554  0.3404  2.1323  1.0679
  318MOL0     H41928   5.598   6.216   9.721  0.8787  1.2305 -0.1286
  318MOL0     H41929   5.581   5.934   9.853  1.5820 -1.2124 -1.5425
  318MOL0     H41930   5.248   5.869   9.978  0.1596 -2.6554  0.9334
  318MOL0     H41931   5.404   5.790   9.970  0.4737  0.4836  0.2360
  318MOL0     H41932   5.316   5.658   9.768  0.2849  0.2997 -1.2338
  318MOL0     H41933   5.156   5.725   9.791  0.6396 -0.2370 -0.1946
  318MOL0     H41934   5.172   5.500   9.900  0.9811 -2.0463  1.2064
  318MOL0     H41935   5.320   5.550   9.974 -0.2203  0.9117  1.1132
  318MOL0     H41936   5.058   5.711  10.035 -0.5982 -0.8310  0.0801
  318MOL0     H41937   5.193   5.704  10.147 -0.4144 -1.7197  3.1514
  318MOL0     H41938   5.034   5.303  10.202 -0.4543 -2.0275 -0.0613
  318MOL0     H41939   4.791   5.234  10.296  1.6347 -0.3175 -0.5872
  318MOL0     H41940   4.403   5.677  10.456  1.3354 -2.2014 -0.3131
  318MOL0     H41941   4.167   5.715  10.545  2.1849  0.9874  0.1255
  318MOL0     H41942   3.939   5.713  10.531 -1.2672 -0.7040 -0.9701
  318MOL0     H41943   3.990   5.654  10.692 -1.6481 -0.8073  1.4874
  318MOL0     H41944   3.782   5.536  10.723 -0.5961 -1.1821 -1.7696
  318MOL0     H41945   3.712   5.592  10.575  1.6476 -4.0274 -0.1447
  318MOL0     H41946   3.694   5.811  10.647  0.4904 -0.6592 -1.3935
  318MOL0     H41947   3.797   5.777  10.801 -0.2207  1.7188 -1.1843
  318MOL0     H41948   3.539   5.790  10.823  2.3525  0.8509  2.7856
  318MOL0     H41949   3.543   5.631  10.740  0.2935 -1.7070  0.2617
  318MOL0     H41950   3.648   5.748  10.999  0.4378  0.7258 -0.8874
  318MOL0     H41951   3.705   5.582  10.943 -1.7023 -1.9452  0.7470
  318MOL0     H41952   3.410   5.632  10.991 -0.6935 -3.4041  0.7850
  318MOL0     H41953   3.534   5.576  11.099 -0.9896 -0.2121  0.3481
  318MOL0     H41954   3.439   5.461  10.836  0.6802  1.1052 -0.4813
  318MOL0     H41955   3.593   5.420  10.900  0.6357  2.8431  1.1678
  318MOL0     H41956   3.465   5.339  11.130  1.4302  0.0744 -0.1887
  318MOL0     H41957   3.427   5.242  10.983  1.3187 -0.6882  1.5555
  318MOL0     H41958   4.064   5.312  10.445 -1.7027  0.5268 -0.1347
  318MOL0     H41959   4.301   5.272  10.355  0.3175 -0.0284 -2.4022
  318MOL0     H41960   4.641   5.617  10.211 -1.9722 -1.8748 -1.2536
  318MOL0     H41961   4.872   5.693  10.155  2.1729  0.0211  2.8100
  318MOL0     H41962   6.340   6.247   9.157 -0.3647 -0.3372  1.5640
  318MOL0     H41963   6.571   6.282   9.109 -1.3876 -1.0746 -0.9186
  318MOL0     H41964   6.997   6.052   9.085 -2.4958 -1.0107  2.1768
  318MOL0     H41965   7.254   6.079   9.054 -1.6541  0.0289 -0.1230
  318MOL0     H41966   7.464   6.069   9.083  1.5577 -0.0499  0.3977
  318MOL0     H41967   7.434   6.078   9.255 -0.1282  0.1174  0.3297
  318MOL0     H41968   7.641   6.248   9.281  0.9060  2.3741 -2.6037
  318MOL0     H41969   7.674   6.079   9.261 -0.8295 -2.2454 -1.9007
  318MOL0     H41970   7.683   6.301   9.058  1.1477 -0.0798 -1.9839
  318MOL0     H41971   7.663   6.151   8.992  0.7847  1.4300 -0.1272
  318MOL0     H41972   7.881   6.200   9.198  0.6455 -1.5470  0.1209
  318MOL0     H41973   7.862   6.051   9.098 -2.2199 -0.9609  0.6996
  318MOL0     H41974   8.040   6.362   8.856 -1.4576  3.9022  2.7365
  318MOL0     H41975   7.265   6.427   9.292 -0.0301 -0.8346  1.7443
  318MOL0     H41976   7.022   6.427   9.302  1.1029 -2.1009  2.3792
  319MOL0     O41977   2.544   1.053   6.826  0.1317  0.3493 -0.5090
  319MOL0     C41978   2.548   1.015   6.944 -0.1308  0.3922 -0.0981
  319MOL0     O41979   2.453   0.934   7.003  0.6746 -1.0160  0.1249
  319MOL0     C41980   2.330   0.911   6.951  0.7012  0.1567 -0.2933
  319MOL0     C41981   2.305   0.887   6.817  0.0402 -0.1270 -0.3530
  319MOL0     C41982   2.175   0.846   6.773  0.2211  0.4783 -0.0561
  319MOL0     C41983   2.075   0.836   6.865 -0.8953  0.0689  0.6499
  319MOL0     O41984   1.945   0.798   6.836 -0.1072 -0.1895  0.0455
  319MOL0     C41985   1.898   0.821   6.701  0.3162 -0.8524  0.3830
  319MOL0     C41986   1.746   0.839   6.699 -0.3391 -0.3399 -0.2811
  319MOL0     C41987   1.702   0.981   6.741  0.6737 -0.3296 -0.3769
  319MOL0     C41988   1.548   0.982   6.720  0.3329  0.4485 -0.6751
  319MOL0     C41989   1.474   0.903   6.834  0.0898  0.5100 -0.0825
  319MOL0     C41990   1.341   0.977   6.846  0.2853  0.2923 -0.1766
  319MOL0     C41991   1.235   0.899   6.921 -0.3581  1.0250 -0.2778
  319MOL0     C41992   1.277   0.860   7.061  0.1952 -0.3073 -0.1081
  319MOL0     N41993   1.160   0.822   7.142 -0.1097 -0.1175 -0.0537
  319MOL0     C41994   1.077   0.725   7.121 -0.5047 -0.2341 -0.6174
  319MOL0     C41995   1.008   0.704   7.238 -0.3701  0.6326 -0.2629
  319MOL0     C41996   0.893   0.596   7.239  0.0804  0.5423 -0.6898
  319MOL0     C41997   0.751   0.652   7.219  0.1677  0.0450 -0.0937
  319MOL0     C41998   0.641   0.550   7.176  0.6660  0.3326 -0.0041
  319MOL0     C41999   0.587   0.466   7.291  0.3242 -0.1494  0.2359
  319MOL0     O42000   0.675   0.369   7.348 -0.6347  0.0511  0.2015
  319MOL0     C42001   0.636   0.293   7.460  1.0100  0.2054  0.1465
  319MOL0     C42002   0.735   0.221   7.533 -0.2513  0.3977  0.6594
  319MOL0     C42003   0.697   0.142   7.642  0.7682  0.2083  0.4931
  319MOL0     C42004   0.561   0.130   7.674 -0.3003 -0.8818  0.1423
  319MOL0     C42005   0.513   0.034   7.770  0.0234  0.6121 -1.1587
  319MOL0     O42006   0.591  -0.002   7.870 -0.5606  0.7272  0.4134
  319MOL0     C42007   0.570  -0.123   7.938 -0.4725  1.0760 -0.1715
  319MOL0     C42008   0.447  -0.161   7.987  0.0396 -0.1799 -0.0921
  319MOL0     C42009   0.432  -0.283   8.049 -0.5776  0.9466 -0.0795
  319MOL0     C42010   0.540  -0.373   8.069 -0.5794  1.2987  0.0018
  319MOL0     O42011   0.523  -0.490   8.134 -0.5135 -0.0119 -0.0825
  319MOL0     C42012   0.383  -0.543   8.146 -0.0225 -0.0967  0.6625
  319MOL0     C42013   0.378  -0.674   8.223 -0.1903 -0.1868 -0.4379
  319MOL0     C42014   0.237  -0.710   8.275  0.2921 -0.7668  1.6570
  319MOL0     C42015   0.218  -0.840   8.360 -0.5602 -0.1254  0.1584
  319MOL0     C42016   0.069  -0.871   8.384 -0.0696  0.4026 -0.7281
  319MOL0     C42017   0.002  -0.766   8.481 -0.5161  0.5146  0.3728
  319MOL0     C42018  -0.148  -0.749   8.446  0.3760  0.1947  0.9164
  319MOL0     C42019  -0.171  -0.662   8.330 -0.4446 -0.2517  0.0462
  319MOL0    Cl42020  -0.106  -0.504   8.348  0.0803 -0.0459  0.1346
  319MOL0     C42021   0.669  -0.336   8.024  0.2990  0.9213  0.1512
  319MOL0     C42022   0.679  -0.208   7.960  0.4665 -0.0122  0.2154
  319MOL0     O42023   0.407  -0.020   7.747  0.5897  0.1753 -0.1976
  319MOL0     C42024   0.461   0.206   7.606 -0.6063 -0.2910  0.6140
  319MOL0     C42025   0.501   0.275   7.493  1.2203 -0.5479  0.5210
  319MOL0     N42026   1.067   0.781   7.334 -0.0786  0.2251  0.8676
  319MOL0     N42027   1.157   0.858   7.272 -0.1551 -0.7562 -0.3895
  319MOL0     C42028   2.109   0.854   7.004  0.2796  0.3490 -0.6108
  319MOL0     C42029   2.233   0.892   7.050  0.4034  0.0512  0.1471
  319MOL0     C42030   2.673   1.040   7.022 -0.4523 -0.1871  0.1571
  319MOL0     C42031   2.719   0.954   7.129  0.0360 -0.9458 -0.4796
  319MOL0     C42032   2.829   0.989   7.200  0.9548  0.1838 -0.4710
  319MOL0     C42033   2.924   1.085   7.157  1.3542 -1.1399 -0.0654
  319MOL0     O42034   3.039   1.119   7.222 -0.5015  0.3375  0.7106
  319MOL0     C42035   3.087   1.058   7.332  0.3926  0.0914 -0.4125
  319MOL0     C42036   3.219   1.133   7.376  0.8625 -0.6150  1.0502
  319MOL0     C42037   3.320   1.143   7.266 -0.5525  0.8489 -0.4059
  319MOL0     C42038   3.448   1.204   7.330  0.0866  0.5648  0.0563
  319MOL0     C42039   3.566   1.188   7.251 -0.1305 -0.3918 -0.1580
  319MOL0     C42040   3.668   1.189   7.190  0.0368 -0.0196 -0.5395
  319MOL0     C42041   2.894   1.154   7.033 -0.4100 -0.0038 -0.6953
  319MOL0     C42042   2.765   1.135   6.975 -0.6238 -0.2147  0.3728
  319MOL0     H42043   2.379   0.901   6.739 -1.5166 -0.0465 -1.8927
  319MOL0     H42044   2.176   0.815   6.669  1.1839 -1.0284  0.3781
  319MOL0     H42045   1.937   0.740   6.639  0.1457  0.9322 -2.1799
  319MOL0     H42046   1.942   0.910   6.657 -0.7107 -1.0753 -1.1505
  319MOL0     H42047   1.711   0.764   6.770  1.4835 -0.2043  0.8423
  319MOL0     H42048   1.720   0.813   6.596 -1.6209 -2.0314  0.4388
  319MOL0     H42049   1.747   1.050   6.669  0.0130  1.9161  1.2535
  319MOL0     H42050   1.722   1.011   6.844 -1.5873  3.2819 -0.8344
  319MOL0     H42051   1.519   1.087   6.709  1.1276  0.7051 -0.4562
  319MOL0     H42052   1.519   0.928   6.630 -2.1929 -1.8500  1.3429
  319MOL0     H42053   1.544   0.900   6.918 -1.1825  0.8967  1.0288
  319MOL0     H42054   1.452   0.804   6.792  1.3000 -0.3479  1.2106
  319MOL0     H42055   1.302   0.994   6.745  1.0646 -1.4602 -0.8175
  319MOL0     H42056   1.358   1.072   6.898  0.2751 -0.2987  0.9279
  319MOL0     H42057   1.155   0.970   6.943  0.0098  1.0655  1.0106
  319MOL0     H42058   1.200   0.811   6.866  0.8800  2.0077 -2.8378
  319MOL0     H42059   1.324   0.942   7.116 -0.9693 -0.1828  0.7278
  319MOL0     H42060   1.340   0.770   7.050  1.5248  0.6072 -0.2046
  319MOL0     H42061   1.069   0.677   7.024  1.3211 -0.5408 -0.6497
  319MOL0     H42062   0.896   0.533   7.329 -1.2418  0.2747 -0.8214
  319MOL0     H42063   0.909   0.533   7.151  0.6835  3.3423 -2.7328
  319MOL0     H42064   0.763   0.740   7.156  1.9412 -0.6724 -0.8405
  319MOL0     H42065   0.723   0.686   7.318 -0.1641 -3.2964  1.0949
  319MOL0     H42066   0.554   0.610   7.148  0.8678 -0.3076 -2.1575
  319MOL0     H42067   0.676   0.493   7.090  3.6770 -0.3630  1.5365
  319MOL0     H42068   0.491   0.419   7.267 -1.0233  1.0571  2.8007
  319MOL0     H42069   0.557   0.537   7.369 -0.3081 -1.5512  1.3360
  319MOL0     H42070   0.836   0.233   7.494 -1.0483  0.6838 -1.5026
  319MOL0     H42071   0.772   0.091   7.701  2.2929  0.5194 -1.0966
  319MOL0     H42072   0.355  -0.106   7.973  0.1525  0.1711  0.4999
  319MOL0     H42073   0.332  -0.303   8.085 -0.3943 -0.0351 -0.1017
  319MOL0     H42074   0.342  -0.552   8.045 -0.9778  2.1101  0.7922
  319MOL0     H42075   0.318  -0.473   8.200 -0.0486 -0.9674  1.7797
  319MOL0     H42076   0.444  -0.664   8.311  1.6546  4.4033 -2.0295
  319MOL0     H42077   0.412  -0.752   8.154  2.2720 -1.4954  2.0083
  319MOL0     H42078   0.172  -0.718   8.187  2.5361  1.3887 -0.3556
  319MOL0     H42079   0.218  -0.631   8.347  2.5971 -1.5335  3.2388
  319MOL0     H42080   0.263  -0.926   8.309 -2.3582 -2.5334  2.3470
  319MOL0     H42081   0.267  -0.825   8.456  1.7845  2.8118 -1.3344
  319MOL0     H42082   0.052  -0.969   8.429 -1.1471  1.3487  1.0577
  319MOL0     H42083   0.012  -0.872   8.291  0.8633  2.1933 -1.3576
  319MOL0     H42084   0.056  -0.672   8.479 -0.8139  0.6853  0.1671
  319MOL0     H42085   0.018  -0.805   8.582 -0.9987  2.6412  1.3150
  319MOL0     H42086  -0.198  -0.846   8.434  0.2595  0.0045  2.7099
  319MOL0     H42087  -0.199  -0.708   8.533 -1.5639 -1.9009  0.8839
  319MOL0     H42088  -0.276  -0.647   8.306 -0.5006  2.0882  1.4870
  319MOL0     H42089  -0.131  -0.701   8.236 -0.8152  0.9071 -0.6126
  319MOL0     H42090   0.756  -0.398   8.043  0.1234  0.6976  0.2354
  319MOL0     H42091   0.775  -0.180   7.918  0.0901  2.5031  0.8509
  319MOL0     H42092   0.355   0.186   7.613 -1.1460  1.4237 -1.5151
  319MOL0     H42093   0.423   0.311   7.426  0.2538 -2.4698  0.5548
  319MOL0     H42094   2.034   0.833   7.079  0.8017 -2.0156 -0.6839
  319MOL0     H42095   2.242   0.928   7.152 -0.2270 -0.7473  0.4864
  319MOL0     H42096   2.656   0.871   7.158  1.1498 -1.7317 -0.2579
  319MOL0     H42097   2.863   0.934   7.287 -1.4813  0.3165  0.6450
  319MOL0     H42098   3.105   0.951   7.324 -1.1328 -0.3446  1.2787
  319MOL0     H42099   3.005   1.065   7.404  0.3072 -2.2504 -0.2274
  319MOL0     H42100   3.194   1.238   7.391  0.8370 -0.4516 -0.0230
  319MOL0     H42101   3.253   1.082   7.467  1.0464 -1.6816  0.4000
  319MOL0     H42102   3.279   1.204   7.185  2.0501 -0.1490 -2.6196
  319MOL0     H42103   3.344   1.044   7.226  3.0601 -0.0453  3.2532
  319MOL0     H42104   3.434   1.307   7.364  1.3461  0.1216  2.1077
  319MOL0     H42105   3.458   1.145   7.422  1.8700  0.5069 -0.1400
  319MOL0     H42106   3.763   1.186   7.140  1.6573 -1.0432  2.4157
  319MOL0     H42107   2.965   1.220   6.985 -0.2617 -0.8175 -1.6337
  319MOL0     H42108   2.742   1.179   6.878 -0.4594 -0.7396  0.0938
  320MOL0     O42109   3.262   0.749   4.077 -0.2748  0.7983 -0.5238
  320MOL0     C42110   3.305   0.723   4.188  0.9624 -0.4405 -0.3938
  320MOL0     O42111   3.235   0.688   4.298 -0.0272  0.3267  0.0574
  320MOL0     C42112   3.099   0.685   4.278 -0.2218 -0.5369  0.6677
  320MOL0     C42113   3.026   0.804   4.253 -0.7609 -1.0565  0.8747
  320MOL0     C42114   2.889   0.802   4.232 -0.0092  0.4832  1.0263
  320MOL0     C42115   2.820   0.676   4.229  0.0772 -0.5250 -1.2906
  320MOL0     O42116   2.684   0.660   4.220 -0.3228 -0.1223  0.2952
  320MOL0     C42117   2.594   0.773   4.259 -0.7633 -0.5010  1.2416
  320MOL0     C42118   2.447   0.738   4.228 -0.3914  0.1235  0.3750
  320MOL0     C42119   2.361   0.849   4.290 -0.2271  0.5645 -0.2149
  320MOL0     C42120   2.221   0.821   4.230 -0.3413 -1.0378  0.2242
  320MOL0     C42121   2.111   0.871   4.326  0.4898 -1.1240 -0.7170
  320MOL0     C42122   1.964   0.864   4.267 -0.8937  0.1535  0.2696
  320MOL0     C42123   1.869   0.935   4.362 -0.7792  0.0642 -0.0942
  320MOL0     C42124   1.736   0.932   4.294 -0.0527  0.7196  0.0399
  320MOL0     N42125   1.630   1.016   4.357  0.8582  0.2005  0.6681
  320MOL0     C42126   1.520   0.967   4.424  0.2111 -0.3345 -0.4664
  320MOL0     C42127   1.441   1.079   4.434 -0.2402  0.5943  0.7431
  320MOL0     C42128   1.308   1.094   4.505  0.5975  0.6592 -0.0498
  320MOL0     C42129   1.220   0.976   4.530  0.7491 -0.4165 -0.0038
  320MOL0     C42130   1.094   1.032   4.609  0.3703  0.8115  0.2883
  320MOL0     C42131   0.992   0.918   4.639 -0.4022 -0.3743  0.2525
  320MOL0     O42132   0.924   0.882   4.516  0.3142 -0.7745 -0.0737
  320MOL0     C42133   0.812   0.803   4.529 -0.2801  0.4006 -0.2359
  320MOL0     C42134   0.735   0.788   4.416 -0.3885  0.1530 -0.4562
  320MOL0     C42135   0.613   0.721   4.411  0.3192 -0.1478 -0.6633
  320MOL0     C42136   0.570   0.655   4.530  0.6000  0.2207 -0.4427
  320MOL0     C42137   0.440   0.588   4.545  0.4409  0.1324 -0.5701
  320MOL0     O42138   0.377   0.579   4.422  0.2994  0.0610 -0.0000
  320MOL0     C42139   0.247   0.538   4.419 -0.1940 -0.2878  0.2934
  320MOL0     C42140   0.150   0.604   4.496 -0.2993  0.5503  0.4700
  320MOL0     C42141   0.023   0.552   4.497  0.3412 -0.0671  0.4426
  320MOL0     C42142  -0.015   0.445   4.415  0.2996 -0.9767  0.3173
  320MOL0     O42143  -0.144   0.386   4.419 -0.2611  0.4953  0.4413
  320MOL0     C42144  -0.194   0.358   4.551  0.3550 -0.1264  0.9004
  320MOL0     C42145  -0.304   0.254   4.539 -0.3798  0.2272 -0.2641
  320MOL0     C42146  -0.349   0.226   4.682 -0.7408 -0.3759  0.1021
  320MOL0     C42147  -0.464   0.121   4.683  0.6283 -0.7476  0.8861
  320MOL0     C42148  -0.518   0.099   4.824 -0.1699 -0.6055  0.4550
  320MOL0     C42149  -0.640   0.003   4.808 -1.2459 -0.6445 -0.1997
  320MOL0     C42150  -0.683  -0.050   4.942 -0.2407  0.6255  0.1624
  320MOL0     C42151  -0.813  -0.122   4.932  0.7768  0.4434 -0.9983
  320MOL0    Cl42152  -0.945  -0.011   4.960 -0.3096  0.0130  0.5714
  320MOL0     C42153   0.081   0.395   4.321 -0.3687  0.2624  0.3344
  320MOL0     C42154   0.210   0.450   4.324  0.3790  0.0395  0.1507
  320MOL0     O42155   0.398   0.531   4.647 -0.1926  0.0636 -0.4492
  320MOL0     C42156   0.654   0.658   4.643 -0.8097 -0.5885 -0.8269
  320MOL0     C42157   0.780   0.728   4.646 -0.1226  0.1510 -0.2256
  320MOL0     N42158   1.514   1.189   4.396  0.3037 -0.6661 -0.1800
  320MOL0     N42159   1.631   1.150   4.346 -0.1429 -0.4074 -0.4280
  320MOL0     C42160   2.888   0.560   4.251  0.2643 -0.3597  0.2461
  320MOL0     C42161   3.028   0.569   4.272 -0.1369  0.7313 -0.1828
  320MOL0     C42162   3.457   0.725   4.194  0.1837 -0.4998 -0.5414
  320MOL0     C42163   3.510   0.730   4.318  0.0559 -0.4910  0.1416
  320MOL0     C42164   3.643   0.735   4.330 -0.4313  0.1985 -1.0838
  320MOL0     C42165   3.731   0.735   4.229 -0.4908 -0.5853  0.1703
  320MOL0     O42166   3.865   0.721   4.257 -0.5418  0.4658 -0.5603
  320MOL0     C42167   3.941   0.630   4.169  0.2894 -0.6328  0.4779
  320MOL0     C42168   4.051   0.709   4.099 -0.5988 -0.1796  0.1666
  320MOL0     C42169   4.169   0.722   4.199 -0.4908 -0.5663  0.6324
  320MOL0     C42170   4.275   0.821   4.146 -0.4372 -0.1057 -0.0622
  320MOL0     C42171   4.351   0.777   4.028 -0.2233 -1.4335  0.2801
  320MOL0     C42172   4.424   0.740   3.937  0.0255  0.0008  0.2248
  320MOL0     C42173   3.678   0.756   4.101  0.0967  0.1075 -0.4167
  320MOL0     C42174   3.538   0.742   4.085  0.6325  0.3099 -0.4998
  320MOL0     H42175   3.069   0.903   4.248 -0.1919 -1.3497 -0.3833
  320MOL0     H42176   2.843   0.898   4.214  0.8893  0.6903 -0.2651
  320MOL0     H42177   2.632   0.860   4.204  1.8837 -2.7793 -0.8847
  320MOL0     H42178   2.602   0.798   4.365 -3.0935 -1.2850  1.6475
  320MOL0     H42179   2.417   0.638   4.263 -4.5524  1.0584  0.0413
  320MOL0     H42180   2.438   0.748   4.120 -2.1784  1.8404  0.6365
  320MOL0     H42181   2.390   0.951   4.267  0.7140  0.6887  1.3625
  320MOL0     H42182   2.367   0.846   4.399  0.4266 -0.5441 -0.2694
  320MOL0     H42183   2.205   0.873   4.135  0.0965 -0.3591  0.5119
  320MOL0     H42184   2.202   0.715   4.210 -1.4645 -0.8290  0.1316
  320MOL0     H42185   2.127   0.976   4.352  1.1376 -0.6026 -3.0119
  320MOL0     H42186   2.107   0.815   4.420  1.7955  1.1770  0.8206
  320MOL0     H42187   1.925   0.768   4.232  0.7711  0.4305 -2.6531
  320MOL0     H42188   1.970   0.924   4.176  0.6362  0.2008  0.3698
  320MOL0     H42189   1.854   0.890   4.461 -0.8771  1.4085  0.5335
  320MOL0     H42190   1.899   1.040   4.370 -2.2419  0.6590 -1.7020
  320MOL0     H42191   1.714   0.825   4.300  1.9200  0.2659 -0.1659
  320MOL0     H42192   1.738   0.951   4.186 -2.3099  2.2705  0.2012
  320MOL0     H42193   1.500   0.866   4.459  0.5571 -0.0338  0.6409
  320MOL0     H42194   1.244   1.165   4.451  1.8427  2.2898  0.5391
  320MOL0     H42195   1.319   1.148   4.600  1.6397  2.1671 -0.9855
  320MOL0     H42196   1.268   0.910   4.603  1.6062  0.3587  0.1443
  320MOL0     H42197   1.188   0.919   4.442 -3.6094  1.9336 -0.2655
  320MOL0     H42198   1.130   1.073   4.703  2.6760  1.9225 -0.9797
  320MOL0     H42199   1.047   1.114   4.554  1.6974  2.0845  0.9750
  320MOL0     H42200   0.919   0.953   4.712 -2.9722 -0.5772 -2.0451
  320MOL0     H42201   1.039   0.823   4.668  1.0163  0.6325  1.4000
  320MOL0     H42202   0.771   0.837   4.327  0.4354 -2.4142 -1.6496
  320MOL0     H42203   0.558   0.714   4.318 -0.5443 -1.0344 -0.1088
  320MOL0     H42204   0.182   0.679   4.568 -1.2555  0.4951  0.9646
  320MOL0     H42205  -0.044   0.596   4.570 -0.4384 -0.0458 -0.2779
  320MOL0     H42206  -0.238   0.454   4.580 -1.1453  0.8252 -3.7146
  320MOL0     H42207  -0.113   0.325   4.617  1.0928 -0.7636 -0.2918
  320MOL0     H42208  -0.274   0.158   4.496 -0.7437 -0.4672  0.9764
  320MOL0     H42209  -0.386   0.299   4.483 -1.3623 -1.7720 -0.5438
  320MOL0     H42210  -0.396   0.317   4.719 -0.7536  0.2583 -1.4149
  320MOL0     H42211  -0.270   0.207   4.755  1.1579  1.1793 -1.4310
  320MOL0     H42212  -0.545   0.165   4.626  1.9355  0.7854  0.1313
  320MOL0     H42213  -0.420   0.032   4.637  4.4462  1.4308 -0.1310
  320MOL0     H42214  -0.544   0.199   4.861 -2.7678  0.0321 -2.6067
  320MOL0     H42215  -0.447   0.063   4.899 -1.8440  1.3062  3.1569
  320MOL0     H42216  -0.617  -0.088   4.752  0.2812 -1.1843  1.2416
  320MOL0     H42217  -0.717   0.057   4.752 -2.0935 -1.1678  0.4516
  320MOL0     H42218  -0.597  -0.113   4.966  0.7988  2.0158  0.2324
  320MOL0     H42219  -0.684   0.034   5.012 -0.3518  2.5973 -2.0599
  320MOL0     H42220  -0.812  -0.207   5.001  0.5981  1.0529 -0.2271
  320MOL0     H42221  -0.820  -0.173   4.836  0.3274 -3.7011  0.9822
  320MOL0     H42222   0.048   0.317   4.252 -1.3299 -2.0593  3.2215
  320MOL0     H42223   0.292   0.414   4.262  1.5532 -0.8106  2.0819
  320MOL0     H42224   0.612   0.609   4.730 -1.0966  1.6523  0.3719
  320MOL0     H42225   0.825   0.726   4.745 -1.7509 -1.5258  0.5363
  320MOL0     H42226   2.841   0.462   4.246 -0.6823  0.0558  0.7992
  320MOL0     H42227   3.091   0.483   4.292  0.3129  0.6613 -1.7725
  320MOL0     H42228   3.452   0.705   4.407  1.5711 -1.9143  0.7934
  320MOL0     H42229   3.687   0.725   4.429  1.9987  1.2842 -2.0018
  320MOL0     H42230   3.875   0.582   4.097 -1.4658  1.0920  0.8433
  320MOL0     H42231   3.980   0.541   4.220  0.9129 -1.3030 -1.1151
  320MOL0     H42232   4.097   0.661   4.013 -2.1484 -1.8599  0.2179
  320MOL0     H42233   4.005   0.807   4.079 -2.5850 -0.6398  2.0497
  320MOL0     H42234   4.224   0.627   4.203 -0.3224 -0.4923  0.1777
  320MOL0     H42235   4.133   0.756   4.296  0.3680  0.6598  0.5506
  320MOL0     H42236   4.225   0.915   4.120  0.3957  0.3614 -0.0142
  320MOL0     H42237   4.353   0.824   4.222  0.0841 -4.2689 -0.2284
  320MOL0     H42238   4.494   0.707   3.862  2.5817  1.9889  1.5826
  320MOL0     H42239   3.752   0.762   4.022  0.8241  1.7337  0.3388
  320MOL0     H42240   3.499   0.740   3.984 -2.2099  1.3990  0.4939
  321MOL0     O42241   6.433   8.357  10.274 -0.0600  0.0056 -0.2077
  321MOL0     C42242   6.382   8.337  10.382 -0.8075  0.2614  0.4489
  321MOL0     O42243   6.244   8.330  10.402 -0.4904 -0.3395  0.0706
  321MOL0     C42244   6.151   8.364  10.310 -0.1848 -0.0228  0.8073
  321MOL0     C42245   6.151   8.483  10.232 -0.5095  0.4941 -0.3986
  321MOL0     C42246   6.045   8.528  10.150  0.0684  0.7798  0.2004
  321MOL0     C42247   5.920   8.454  10.140  0.0436 -0.4598  0.4401
  321MOL0     O42248   5.805   8.500  10.075 -0.0331 -0.6760  0.1905
  321MOL0     C42249   5.677   8.432  10.087  0.2148  0.0418 -0.3387
  321MOL0     C42250   5.578   8.519  10.017  0.6125  0.4745 -0.5559
  321MOL0     C42251   5.472   8.442   9.942 -0.0728 -0.0528 -0.1789
  321MOL0     C42252   5.386   8.353  10.015 -0.3926 -0.5608  1.2024
  321MOL0     C42253   5.297   8.263   9.922 -0.0765  0.0307  0.3840
  321MOL0     C42254   5.172   8.344   9.877 -0.6906  0.4055  0.3618
  321MOL0     C42255   5.083   8.255   9.787  0.5915 -1.0074 -0.3800
  321MOL0     C42256   5.015   8.146   9.866 -0.5574  0.5786 -1.0010
  321MOL0     N42257   4.912   8.077   9.794  0.4757 -0.0247 -0.2751
  321MOL0     C42258   4.921   7.961   9.724 -0.6513 -0.3520 -0.0036
  321MOL0     C42259   4.804   7.905   9.719 -0.4362 -0.4352 -0.2746
  321MOL0     C42260   4.777   7.767   9.676 -0.1245  0.0074 -1.0582
  321MOL0     C42261   4.637   7.722   9.685  0.4733  0.3791 -0.3180
  321MOL0     C42262   4.624   7.569   9.655  0.0300 -0.2064 -0.4015
  321MOL0     C42263   4.473   7.533   9.645 -0.4841  0.2972 -0.2005
  321MOL0     O42264   4.464   7.395   9.647 -0.4605 -1.0220 -0.8709
  321MOL0     C42265   4.344   7.334   9.689  0.1684 -0.6245  0.0587
  321MOL0     C42266   4.302   7.340   9.816  0.3530  0.2443 -0.0890
  321MOL0     C42267   4.188   7.267   9.850 -0.5091  0.6356  0.4688
  321MOL0     C42268   4.107   7.207   9.751  0.0329  0.8200 -0.0394
  321MOL0     C42269   3.972   7.152   9.785 -0.6243 -0.7999  0.1030
  321MOL0     O42270   3.928   7.031   9.729 -0.9524 -0.4230  0.5955
  321MOL0     C42271   3.795   7.009   9.747 -0.3488  0.6310  0.7326
  321MOL0     C42272   3.765   6.868   9.754  0.3238  0.0556 -0.3347
  321MOL0     C42273   3.627   6.839   9.754 -0.2435 -0.3085 -0.5608
  321MOL0     C42274   3.519   6.928   9.756 -0.2976 -0.1565 -0.1100
  321MOL0     O42275   3.387   6.886   9.758 -0.8189  0.0309  0.1215
  321MOL0     C42276   3.353   6.742   9.753 -0.2351 -0.4825  0.2701
  321MOL0     C42277   3.204   6.727   9.736 -0.1543 -0.1395 -0.0641
  321MOL0     C42278   3.124   6.784   9.854 -0.0184 -0.1754  0.4129
  321MOL0     C42279   2.974   6.733   9.854  0.5145  0.3861  0.4645
  321MOL0     C42280   2.889   6.826   9.944 -0.7864 -0.0833 -0.0604
  321MOL0     C42281   2.737   6.797   9.940  0.3130 -0.4995  0.2473
  321MOL0     C42282   2.684   6.875  10.066 -0.2796  0.3314  0.1568
  321MOL0     C42283   2.535   6.851  10.096  0.2430  0.4843  0.3214
  321MOL0    Cl42284   2.442   6.922   9.958  0.1915  0.1873 -0.4513
  321MOL0     C42285   3.560   7.064   9.763  0.6103  0.1041  0.3122
  321MOL0     C42286   3.692   7.106   9.744 -0.5774 -0.7685 -0.9909
  321MOL0     O42287   3.911   7.219   9.868  0.0890  0.0528  0.6001
  321MOL0     C42288   4.146   7.215   9.618  0.2498 -0.3320  0.2557
  321MOL0     C42289   4.266   7.269   9.592 -0.5002  0.4450  0.2548
  321MOL0     N42290   4.712   7.994   9.771 -0.8668  0.9052  0.5099
  321MOL0     N42291   4.774   8.098   9.816 -0.3266  0.3466  0.3015
  321MOL0     C42292   5.920   8.336  10.214  0.3195  0.5386 -0.9172
  321MOL0     C42293   6.028   8.294  10.299 -0.1687  0.4396 -1.0827
  321MOL0     C42294   6.470   8.308  10.494  0.2534 -0.0438 -0.1710
  321MOL0     C42295   6.610   8.322  10.488 -0.9988 -0.6318 -0.6514
  321MOL0     C42296   6.694   8.278  10.591 -0.6739  0.1007 -0.7046
  321MOL0     C42297   6.643   8.215  10.710 -0.3649  0.5374  0.7108
  321MOL0     O42298   6.719   8.167  10.812 -0.6893 -0.0988  0.4271
  321MOL0     C42299   6.841   8.243  10.841 -0.3720 -0.4009 -0.3095
  321MOL0     C42300   6.887   8.200  10.984 -0.5240  0.0295 -0.4367
  321MOL0     C42301   6.792   8.253  11.095 -0.5703  0.1619 -0.0884
  321MOL0     C42302   6.860   8.238  11.234  0.9477 -0.2383 -0.1882
  321MOL0     C42303   6.764   8.282  11.340  0.4073 -0.8227  0.1556
  321MOL0     C42304   6.681   8.319  11.421 -0.0203 -0.1560  0.1588
  321MOL0     C42305   6.502   8.192  10.706  0.0331 -0.1271 -1.0816
  321MOL0     C42306   6.419   8.247  10.610  0.4004 -0.2775  0.0169
  321MOL0     H42307   6.246   8.537  10.228 -0.1690  0.2030  2.1427
  321MOL0     H42308   6.043   8.621  10.095 -1.5188  0.0613 -1.0122
  321MOL0     H42309   5.647   8.410  10.189 -2.4523  3.1346 -0.3358
  321MOL0     H42310   5.679   8.335  10.036 -0.1487  0.1992 -0.6603
  321MOL0     H42311   5.633   8.571   9.938  0.2103  2.4131  0.3634
  321MOL0     H42312   5.537   8.591  10.089  1.9422  1.1523 -0.4436
  321MOL0     H42313   5.517   8.389   9.857 -0.5881 -1.4001  0.3604
  321MOL0     H42314   5.404   8.515   9.897 -1.1301 -1.1087 -0.3204
  321MOL0     H42315   5.452   8.296  10.080 -0.6777 -0.1182  1.8889
  321MOL0     H42316   5.321   8.402  10.088  0.2862  2.3122  0.0162
  321MOL0     H42317   5.264   8.177   9.981  0.7636 -4.1544 -4.5758
  321MOL0     H42318   5.346   8.221   9.834 -0.8921 -1.6488  0.6992
  321MOL0     H42319   5.221   8.414   9.808 -1.7746  1.4918  0.6607
  321MOL0     H42320   5.125   8.400   9.958  1.0202  1.5301  0.6267
  321MOL0     H42321   5.001   8.311   9.742  1.2947  0.7820  0.4484
  321MOL0     H42322   5.126   8.219   9.693 -2.3888 -1.7711 -1.5550
  321MOL0     H42323   4.985   8.179   9.965  2.4599 -2.6720  1.2647
  321MOL0     H42324   5.095   8.074   9.887 -0.8756  0.3012 -0.7261
  321MOL0     H42325   5.013   7.918   9.686  1.3973  2.7800  1.0478
  321MOL0     H42326   4.841   7.693   9.724  1.2472 -0.8063 -3.9393
  321MOL0     H42327   4.818   7.768   9.575  1.0262  0.1775 -0.5996
  321MOL0     H42328   4.575   7.766   9.606 -1.3729 -3.4720 -1.2324
  321MOL0     H42329   4.586   7.746   9.779 -0.9381 -0.1164 -0.9285
  321MOL0     H42330   4.676   7.532   9.566 -1.2686 -0.2121 -1.1776
  321MOL0     H42331   4.668   7.520   9.742 -1.4483 -0.5203  0.2029
  321MOL0     H42332   4.424   7.570   9.554 -0.8722 -0.2008 -0.2019
  321MOL0     H42333   4.420   7.568   9.734 -0.1391 -1.4579  0.7313
  321MOL0     H42334   4.365   7.394   9.886  2.2846 -2.4009  0.3797
  321MOL0     H42335   4.172   7.262   9.958  3.7316 -0.2563  1.2074
  321MOL0     H42336   3.837   6.787   9.761  0.2905  0.1939  3.5943
  321MOL0     H42337   3.610   6.736   9.725  1.3505 -0.3085 -1.5918
  321MOL0     H42338   3.379   6.693   9.847  3.0893  2.9079  1.3506
  321MOL0     H42339   3.398   6.688   9.669 -2.2312 -0.6779 -0.7541
  321MOL0     H42340   3.171   6.625   9.712 -0.6594  0.1140 -0.4733
  321MOL0     H42341   3.178   6.783   9.645  2.4481  1.4877  0.0740
  321MOL0     H42342   3.123   6.893   9.839  2.6196 -0.0252  1.0029
  321MOL0     H42343   3.169   6.760   9.951 -0.3786  0.7353  0.8211
  321MOL0     H42344   2.928   6.743   9.756  0.0574  2.2358  0.8120
  321MOL0     H42345   2.956   6.629   9.882 -0.8706  0.3161 -0.6180
  321MOL0     H42346   2.915   6.925   9.906 -1.0557 -0.7042 -1.9912
  321MOL0     H42347   2.929   6.813  10.045  1.5862 -1.8732 -1.1325
  321MOL0     H42348   2.702   6.694   9.945 -1.5172  0.0144 -0.7832
  321MOL0     H42349   2.689   6.822   9.844 -2.0952 -1.0775  1.2298
  321MOL0     H42350   2.735   6.839  10.156  0.0547 -1.4733 -0.7180
  321MOL0     H42351   2.697   6.983  10.060 -2.4189  0.6644  0.7388
  321MOL0     H42352   2.501   6.896  10.189 -1.5682  0.0533 -0.0825
  321MOL0     H42353   2.505   6.747  10.107  0.0430  0.5251  0.1787
  321MOL0     H42354   3.479   7.136   9.765  1.2188  0.9353 -1.9739
  321MOL0     H42355   3.698   7.213   9.729 -2.1192 -0.4630  0.3715
  321MOL0     H42356   4.082   7.174   9.541  1.1903  0.9376 -1.2685
  321MOL0     H42357   4.304   7.266   9.490 -0.7323 -0.5634  0.1883
  321MOL0     H42358   5.829   8.281  10.195  0.1351  1.0382 -1.4881
  321MOL0     H42359   6.021   8.206  10.362  0.7958  0.3692 -1.0653
  321MOL0     H42360   6.654   8.370  10.401 -2.6833  1.7782 -0.2615
  321MOL0     H42361   6.800   8.291  10.575 -0.8248 -0.3215 -2.1881
  321MOL0     H42362   6.819   8.350  10.841 -2.3864 -0.7008 -2.7955
  321MOL0     H42363   6.916   8.227  10.763 -2.4502  1.3063 -2.7871
  321MOL0     H42364   6.894   8.092  10.995 -1.4913 -0.0842 -0.8028
  321MOL0     H42365   6.985   8.247  10.993 -0.5312 -0.1595  0.7939
  321MOL0     H42366   6.703   8.189  11.089 -0.8314  0.4936  0.1934
  321MOL0     H42367   6.756   8.356  11.100 -1.0261  0.0550  5.5152
  321MOL0     H42368   6.881   8.132  11.251 -3.8035 -2.0174 -3.5336
  321MOL0     H42369   6.948   8.300  11.253 -0.9025  1.1366  5.9603
  321MOL0     H42370   6.612   8.355  11.495  2.1632  1.0806  1.7247
  321MOL0     H42371   6.465   8.139  10.793 -0.5832 -1.4263 -2.0893
  321MOL0     H42372   6.318   8.209  10.625  0.2737  1.1091  3.5574
  322MOL0     O42373   8.103   2.576   5.327  0.2188 -0.1182 -0.4199
  322MOL0     C42374   8.187   2.631   5.402  0.6682 -0.7076 -0.2473
  322MOL0     O42375   8.164   2.734   5.486  0.0966  0.1163  0.2239
  322MOL0     C42376   8.034   2.774   5.493  0.4170  0.5012  0.4695
  322MOL0     C42377   7.958   2.829   5.394  0.0998 -0.2651  0.3449
  322MOL0     C42378   7.821   2.866   5.423 -0.2136 -0.1266  0.5107
  322MOL0     C42379   7.756   2.839   5.549 -0.1300  1.1340  1.1502
  322MOL0     O42380   7.626   2.858   5.580  0.2451 -0.5167 -0.5365
  322MOL0     C42381   7.538   2.777   5.495 -0.1061 -0.2903 -0.8922
  322MOL0     C42382   7.395   2.754   5.560 -0.0662 -0.5634  0.0876
  322MOL0     C42383   7.324   2.886   5.576  0.5114 -0.0980 -0.2405
  322MOL0     C42384   7.181   2.884   5.585  0.7558 -0.3098 -0.3143
  322MOL0     C42385   7.121   3.032   5.612 -1.1082  0.0687 -0.2593
  322MOL0     C42386   6.972   3.011   5.623 -0.2162 -0.5262  0.4473
  322MOL0     C42387   6.909   2.988   5.482  0.7057  0.0549 -0.0541
  322MOL0     C42388   6.833   3.104   5.417 -0.1181  1.0052 -1.0211
  322MOL0     N42389   6.772   3.064   5.288 -0.3951  0.0082  0.0413
  322MOL0     C42390   6.672   3.137   5.224  0.4305  0.3295  0.6794
  322MOL0     C42391   6.662   3.075   5.103 -0.5023  0.4926 -0.1663
  322MOL0     C42392   6.571   3.124   4.991 -0.3325 -0.2032 -0.1940
  322MOL0     C42393   6.454   3.025   4.979 -0.1216  0.5463  0.5030
  322MOL0     C42394   6.367   3.029   4.852 -0.6209 -0.2464 -0.4928
  322MOL0     C42395   6.254   2.929   4.876  0.1178  0.4953  0.2179
  322MOL0     O42396   6.171   2.973   4.978 -0.1963  0.3683  0.2268
  322MOL0     C42397   6.053   2.899   4.985  0.4649  0.1604 -0.4166
  322MOL0     C42398   5.941   2.945   4.912 -0.3204 -0.9258 -0.3139
  322MOL0     C42399   5.829   2.865   4.894  0.6661  0.1048 -0.8179
  322MOL0     C42400   5.824   2.735   4.948  0.1588 -0.0003  0.5628
  322MOL0     C42401   5.698   2.659   4.927 -0.0248 -0.0090  0.0794
  322MOL0     O42402   5.600   2.725   4.850  0.6379  0.8723 -0.4626
  322MOL0     C42403   5.494   2.661   4.793  0.1728 -0.1342 -0.4655
  322MOL0     C42404   5.489   2.522   4.773  0.6322  0.3826  0.0339
  322MOL0     C42405   5.377   2.466   4.697 -0.5877  0.1738 -0.4132
  322MOL0     C42406   5.281   2.546   4.639  0.0150 -0.2150 -1.0199
  322MOL0     O42407   5.176   2.489   4.570 -0.1338 -0.5608 -0.2110
  322MOL0     C42408   5.159   2.348   4.580  1.0609 -0.0828  0.1179
  322MOL0     C42409   5.028   2.307   4.514  1.1249 -0.6820  0.2868
  322MOL0     C42410   4.917   2.414   4.540  0.2074 -0.3877 -0.0880
  322MOL0     C42411   4.780   2.352   4.511 -0.0143 -0.1905 -0.1464
  322MOL0     C42412   4.673   2.468   4.517 -0.3795  1.0609 -0.6311
  322MOL0     C42413   4.529   2.398   4.493 -0.0481  0.2638  0.1101
  322MOL0     C42414   4.420   2.516   4.493  0.2565 -0.4764 -0.1843
  322MOL0     C42415   4.398   2.579   4.623 -0.7085 -0.2093  0.5027
  322MOL0    Cl42416   4.230   2.650   4.621 -0.3990 -0.7509  0.1579
  322MOL0     C42417   5.282   2.676   4.675 -0.0585  0.2997 -0.3404
  322MOL0     C42418   5.384   2.730   4.749  0.4239  0.0542 -0.3245
  322MOL0     O42419   5.689   2.553   4.989 -0.4952 -0.1761  0.4323
  322MOL0     C42420   5.934   2.687   5.026 -0.6471 -0.1726 -0.5308
  322MOL0     C42421   6.044   2.774   5.049 -1.0024 -0.1520  0.1408
  322MOL0     N42422   6.745   2.969   5.094 -0.1869  0.0919 -0.2313
  322MOL0     N42423   6.811   2.955   5.205  0.4034 -0.8461  0.4924
  322MOL0     C42424   7.840   2.789   5.645  0.1651 -0.3331  0.2494
  322MOL0     C42425   7.977   2.757   5.620  0.0675 -0.3936 -0.1143
  322MOL0     C42426   8.321   2.611   5.374 -0.4670 -0.5919  0.8063
  322MOL0     C42427   8.423   2.625   5.482 -0.0612 -0.2043  0.1736
  322MOL0     C42428   8.560   2.618   5.465  0.6761  0.7285  0.0103
  322MOL0     C42429   8.605   2.595   5.333 -0.2472  0.6038 -0.4506
  322MOL0     O42430   8.746   2.592   5.322 -0.3046  0.0070 -0.3996
  322MOL0     C42431   8.799   2.515   5.212 -0.0264 -0.0414 -0.1459
  322MOL0     C42432   8.945   2.473   5.240  0.4492 -0.1842  0.0166
  322MOL0     C42433   9.007   2.362   5.153  0.2766  0.4815 -0.6967
  322MOL0     C42434   9.071   2.415   5.022 -0.9483  0.1089 -0.6629
  322MOL0     C42435   9.119   2.309   4.938  0.6611  0.2943 -0.3765
  322MOL0     C42436   9.163   2.218   4.870 -0.7044  0.0830  0.3597
  322MOL0     C42437   8.512   2.569   5.227 -0.0931 -0.0207 -0.2005
  322MOL0     C42438   8.375   2.579   5.250  0.7514  0.1056  0.1263
  322MOL0     H42439   8.011   2.863   5.306 -1.4025  1.1265 -0.0721
  322MOL0     H42440   7.770   2.929   5.351 -0.3930  0.4167  1.1019
  322MOL0     H42441   7.596   2.688   5.469  1.0176 -1.8340  5.1742
  322MOL0     H42442   7.527   2.835   5.403  0.5638  0.4152 -0.5423
  322MOL0     H42443   7.421   2.715   5.659  0.1966 -0.5597  0.0230
  322MOL0     H42444   7.327   2.692   5.501 -1.6021  0.5014  0.6805
  322MOL0     H42445   7.352   2.948   5.490  0.8219 -1.2916 -1.0307
  322MOL0     H42446   7.352   2.937   5.668 -0.2533  0.2435 -0.1881
  322MOL0     H42447   7.140   2.840   5.494 -1.5424 -0.4191  0.6915
  322MOL0     H42448   7.155   2.815   5.665  1.4392 -0.9316 -0.6205
  322MOL0     H42449   7.150   3.098   5.530  2.7261 -3.3658 -2.0116
  322MOL0     H42450   7.163   3.066   5.707 -2.6712  0.6382  0.2594
  322MOL0     H42451   6.933   3.106   5.661  2.0059  0.5930  0.0876
  322MOL0     H42452   6.940   2.926   5.684 -0.0570 -0.5016  0.5669
  322MOL0     H42453   6.982   2.952   5.409 -1.7965 -0.7662 -2.2891
  322MOL0     H42454   6.833   2.912   5.500  1.0158 -0.4323 -0.7466
  322MOL0     H42455   6.912   3.175   5.390  1.0454 -0.6955 -2.3669
  322MOL0     H42456   6.749   3.137   5.479 -0.3625 -0.5498 -0.4803
  322MOL0     H42457   6.609   3.219   5.257  1.8276  1.1208  1.5475
  322MOL0     H42458   6.624   3.123   4.896 -1.1352  1.9282 -0.7187
  322MOL0     H42459   6.536   3.226   5.007 -1.3772  0.2075 -4.1287
  322MOL0     H42460   6.391   3.024   5.069 -0.4248 -0.3071  0.2921
  322MOL0     H42461   6.508   2.930   4.981 -2.1686 -0.9038 -3.4565
  322MOL0     H42462   6.316   3.125   4.841 -1.1482 -0.4732 -0.0549
  322MOL0     H42463   6.432   3.006   4.767  1.3378 -1.8963  1.3228
  322MOL0     H42464   6.295   2.828   4.889 -1.4906 -1.1918 -4.9686
  322MOL0     H42465   6.199   2.917   4.782  0.5192 -3.2122  0.3200
  322MOL0     H42466   5.952   3.040   4.862  0.9964 -0.6662  0.4267
  322MOL0     H42467   5.745   2.898   4.834 -1.2584 -1.2226  1.0063
  322MOL0     H42468   5.559   2.452   4.818 -0.7437  0.2179  2.1060
  322MOL0     H42469   5.373   2.358   4.709 -0.1779  0.2132  0.1058
  322MOL0     H42470   5.153   2.315   4.684 -3.5654  1.6825  0.6362
  322MOL0     H42471   5.243   2.289   4.541  0.9260 -0.2010  0.0086
  322MOL0     H42472   4.997   2.211   4.556 -0.2986 -0.7206 -0.7786
  322MOL0     H42473   5.042   2.290   4.407 -1.7942  0.0789 -0.3022
  322MOL0     H42474   4.942   2.497   4.473  0.5089  0.9746  1.6440
  322MOL0     H42475   4.927   2.445   4.644 -0.3099  1.1463 -0.4669
  322MOL0     H42476   4.778   2.309   4.411  0.6378 -2.9667  0.9414
  322MOL0     H42477   4.757   2.273   4.583 -0.5334  0.3719  0.3129
  322MOL0     H42478   4.697   2.548   4.446  0.2225 -1.2774 -3.2779
  322MOL0     H42479   4.667   2.502   4.621 -1.0570 -2.2453  0.5232
  322MOL0     H42480   4.507   2.327   4.573 -1.4129  0.6040  0.0574
  322MOL0     H42481   4.526   2.351   4.394  0.3705  3.3978 -1.5144
  322MOL0     H42482   4.457   2.583   4.414  3.1371  0.4918  1.8374
  322MOL0     H42483   4.325   2.472   4.460  0.6520  0.0562 -2.1680
  322MOL0     H42484   4.477   2.654   4.640  1.0794 -1.8442 -0.2064
  322MOL0     H42485   4.412   2.512   4.709  3.9429  1.6422  1.5113
  322MOL0     H42486   5.207   2.740   4.629 -2.7514 -2.5603 -0.2716
  322MOL0     H42487   5.371   2.832   4.784 -1.8388  0.0273 -0.9355
  322MOL0     H42488   5.921   2.589   5.071 -1.1898  1.4481  3.1397
  322MOL0     H42489   6.123   2.735   5.113 -1.7156  1.4060  2.0719
  322MOL0     H42490   7.799   2.790   5.746 -0.2321 -0.1253  0.0889
  322MOL0     H42491   8.037   2.726   5.705  1.0956  0.1908 -0.6130
  322MOL0     H42492   8.385   2.656   5.579 -2.9301 -2.2654 -0.1568
  322MOL0     H42493   8.628   2.610   5.549  0.1671 -2.5943  0.2397
  322MOL0     H42494   8.778   2.575   5.124 -2.7646 -1.0740 -0.2960
  322MOL0     H42495   8.741   2.424   5.193  0.2340 -0.1493 -0.4315
  322MOL0     H42496   9.007   2.562   5.228 -1.3387  1.1854  0.6102
  322MOL0     H42497   8.952   2.443   5.346 -2.2370  1.9111  0.8814
  322MOL0     H42498   8.932   2.290   5.120  0.0931  1.8540 -3.5393
  322MOL0     H42499   9.090   2.313   5.205  0.0797  0.6789 -0.1865
  322MOL0     H42500   9.008   2.487   4.969 -0.3477  0.2123 -1.2341
  322MOL0     H42501   9.163   2.463   5.055 -0.1153 -0.1536 -2.5301
  322MOL0     H42502   9.187   2.131   4.811  2.5279  1.1425 -0.1052
  322MOL0     H42503   8.553   2.547   5.128 -1.5773 -1.6454 -0.5013
  322MOL0     H42504   8.302   2.567   5.171 -0.4401  2.7420  0.7404
  323MOL0     O42505   5.663   8.602   6.283 -0.0307  0.2399 -0.2269
  323MOL0     C42506   5.687   8.704   6.223 -0.5795 -0.0467  0.4691
  323MOL0     O42507   5.594   8.788   6.171 -0.3516 -0.7632 -0.2449
  323MOL0     C42508   5.465   8.748   6.163  0.1641  0.0848  0.2718
  323MOL0     C42509   5.415   8.674   6.059  0.0756 -0.8403  1.0602
  323MOL0     C42510   5.276   8.648   6.061  0.3175  0.2737 -0.0608
  323MOL0     C42511   5.190   8.706   6.155  0.5062 -0.4456  0.5348
  323MOL0     O42512   5.054   8.666   6.151  0.8790  0.2475  0.2609
  323MOL0     C42513   4.968   8.704   6.254 -0.0109 -0.6438  0.5983
  323MOL0     C42514   4.828   8.660   6.240 -0.0438 -0.3002 -1.6042
  323MOL0     C42515   4.739   8.735   6.325  1.2191  0.5148  0.0215
  323MOL0     C42516   4.588   8.721   6.295 -0.5287  0.8829 -0.5738
  323MOL0     C42517   4.546   8.598   6.367 -0.6107  0.3467  0.1307
  323MOL0     C42518   4.395   8.575   6.344 -0.3714 -0.2357 -0.0815
  323MOL0     C42519   4.355   8.437   6.396  0.1892  0.1412 -0.2388
  323MOL0     C42520   4.308   8.434   6.541 -0.1703  0.3572 -0.9270
  323MOL0     N42521   4.387   8.512   6.640  0.8534 -0.2845 -0.5383
  323MOL0     C42522   4.365   8.642   6.660 -0.1351 -0.1198  0.2042
  323MOL0     C42523   4.462   8.686   6.745  0.3323  0.1178  0.4748
  323MOL0     C42524   4.477   8.829   6.777 -0.5402  0.0066 -0.5071
  323MOL0     C42525   4.465   8.927   6.661 -0.1557 -0.3295  0.4647
  323MOL0     C42526   4.533   9.063   6.687  0.2941  0.5064 -0.0331
  323MOL0     C42527   4.682   9.062   6.712 -0.1757  0.7124 -0.0951
  323MOL0     O42528   4.733   9.190   6.725  0.0360 -1.0363  0.2627
  323MOL0     C42529   4.872   9.195   6.742 -0.2342  0.3644 -0.4028
  323MOL0     C42530   4.947   9.264   6.644 -0.0733  0.1704 -1.4467
  323MOL0     C42531   5.084   9.294   6.666 -0.4069 -0.8203 -0.1435
  323MOL0     C42532   5.153   9.249   6.783  0.7656  0.6181 -0.5988
  323MOL0     C42533   5.297   9.280   6.821  0.0535 -0.9399  0.8914
  323MOL0     O42534   5.364   9.358   6.732  0.4460  0.0453 -0.0329
  323MOL0     C42535   5.500   9.363   6.756 -0.4195  0.1121 -0.8465
  323MOL0     C42536   5.568   9.482   6.783  0.0551  0.5821 -0.1613
  323MOL0     C42537   5.705   9.479   6.802 -0.0612  1.0292  0.5459
  323MOL0     C42538   5.777   9.358   6.802 -0.0618 -1.0564  0.1334
  323MOL0     O42539   5.907   9.372   6.826 -0.7311 -0.1475  0.8354
  323MOL0     C42540   5.984   9.340   6.707  0.3305  0.3334  0.6412
  323MOL0     C42541   6.133   9.381   6.737  0.9108 -0.3791  0.0645
  323MOL0     C42542   6.226   9.342   6.631  0.6643 -0.5001 -0.1025
  323MOL0     C42543   6.373   9.362   6.674 -0.3053 -0.0220  0.6701
  323MOL0     C42544   6.460   9.263   6.592  1.1077 -0.0387  0.2706
  323MOL0     C42545   6.608   9.299   6.591 -0.4902 -0.7861  0.0692
  323MOL0     C42546   6.679   9.190   6.509  0.1393 -0.0657 -0.1790
  323MOL0     C42547   6.823   9.181   6.527 -0.3753  0.6544  0.0852
  323MOL0    Cl42548   6.878   9.041   6.443  0.0342  0.0888  0.6203
  323MOL0     C42549   5.713   9.236   6.782 -0.3351 -0.4899 -0.1288
  323MOL0     C42550   5.574   9.239   6.758  0.3588 -0.7057  0.1768
  323MOL0     O42551   5.350   9.218   6.909  0.4264  1.4866 -0.2772
  323MOL0     C42552   5.077   9.171   6.868  0.0529  0.5681  0.2900
  323MOL0     C42553   4.944   9.138   6.850  0.2472  0.7349  0.0622
  323MOL0     N42554   4.533   8.574   6.785 -0.1843 -0.8549  0.4632
  323MOL0     N42555   4.488   8.469   6.718  0.5559  0.0178 -0.6767
  323MOL0     C42556   5.240   8.795   6.247  0.3851  0.9476 -0.1492
  323MOL0     C42557   5.375   8.814   6.255 -0.9974 -0.9475 -0.6556
  323MOL0     C42558   5.837   8.736   6.204  0.0801 -1.0257  0.6099
  323MOL0     C42559   5.878   8.863   6.148  1.1226 -0.0650  0.3803
  323MOL0     C42560   6.013   8.882   6.128 -0.7516 -0.1694  0.4822
  323MOL0     C42561   6.111   8.797   6.174 -0.0242 -0.4678  0.4457
  323MOL0     O42562   6.236   8.835   6.152 -0.6367  0.5864 -0.7217
  323MOL0     C42563   6.350   8.749   6.173  0.0520  0.4842 -0.6791
  323MOL0     C42564   6.406   8.745   6.322 -0.4479 -0.0680  0.3525
  323MOL0     C42565   6.544   8.672   6.330 -0.9615  0.2084  0.0106
  323MOL0     C42566   6.537   8.520   6.370 -0.4390 -0.1195 -0.3803
  323MOL0     C42567   6.674   8.474   6.377 -0.0130  0.2993  0.0277
  323MOL0     C42568   6.790   8.436   6.376  0.5694 -0.8512  0.7024
  323MOL0     C42569   6.067   8.671   6.230 -0.4135 -0.4625 -0.9613
  323MOL0     C42570   5.934   8.643   6.237  0.0448 -0.0916  0.2343
  323MOL0     H42571   5.475   8.642   5.975 -0.0256  2.4111 -0.4054
  323MOL0     H42572   5.233   8.588   5.982  1.7492 -0.7226 -0.1286
  323MOL0     H42573   4.964   8.813   6.245  0.0463 -0.7966 -2.2031
  323MOL0     H42574   5.017   8.679   6.348 -0.8040 -2.3365  0.5892
  323MOL0     H42575   4.828   8.552   6.260 -0.0118 -0.4644 -2.4495
  323MOL0     H42576   4.792   8.669   6.137 -1.8039  2.0637 -0.8605
  323MOL0     H42577   4.752   8.842   6.305 -3.6980  0.8214 -3.2192
  323MOL0     H42578   4.766   8.716   6.430  0.9957 -1.3468 -0.2289
  323MOL0     H42579   4.530   8.808   6.326 -1.5026  0.7283 -1.8641
  323MOL0     H42580   4.566   8.706   6.189  2.1079  0.2381 -1.1173
  323MOL0     H42581   4.566   8.597   6.474 -1.5395  1.8636  0.3346
  323MOL0     H42582   4.611   8.518   6.329 -0.0577 -0.6149  2.9059
  323MOL0     H42583   4.377   8.577   6.236  0.3354  0.3225 -0.1989
  323MOL0     H42584   4.335   8.657   6.385  2.0757  1.7911 -0.2806
  323MOL0     H42585   4.272   8.395   6.337  0.2578 -2.2643  1.2576
  323MOL0     H42586   4.433   8.363   6.380 -0.4536 -0.7544  0.6489
  323MOL0     H42587   4.297   8.327   6.565 -0.7855  0.5179 -0.4851
  323MOL0     H42588   4.208   8.474   6.554 -0.1847  0.1677 -0.4214
  323MOL0     H42589   4.285   8.706   6.622 -0.4815 -0.5149  0.2632
  323MOL0     H42590   4.578   8.830   6.820 -1.3301  0.1170  1.4459
  323MOL0     H42591   4.416   8.860   6.862  1.3889 -0.5657  1.1527
  323MOL0     H42592   4.362   8.961   6.653  0.4152  0.9702 -3.6308
  323MOL0     H42593   4.500   8.879   6.569 -0.0783 -6.1665  3.0657
  323MOL0     H42594   4.519   9.120   6.594  0.3476 -0.8819 -0.9276
  323MOL0     H42595   4.483   9.113   6.770  1.5581  5.5390 -1.8800
  323MOL0     H42596   4.727   9.008   6.628 -2.7689  1.7974 -2.3651
  323MOL0     H42597   4.712   9.001   6.797  0.4645  1.4381  0.2000
  323MOL0     H42598   4.895   9.299   6.556 -5.8884 -2.7026  0.3056
  323MOL0     H42599   5.128   9.360   6.592 -2.8358  0.2603 -0.7249
  323MOL0     H42600   5.527   9.583   6.792  2.7919  1.9430 -1.7301
  323MOL0     H42601   5.747   9.574   6.832 -0.5594  1.2484  0.5505
  323MOL0     H42602   5.948   9.381   6.613 -2.0046 -1.9857  0.4230
  323MOL0     H42603   5.972   9.232   6.699  1.1979  0.2916 -0.2211
  323MOL0     H42604   6.162   9.331   6.829 -0.8362 -0.8647  0.3956
  323MOL0     H42605   6.139   9.489   6.751  1.5998  0.0106 -2.5986
  323MOL0     H42606   6.202   9.389   6.535 -0.2334  0.3118  0.5004
  323MOL0     H42607   6.210   9.237   6.605 -2.2897  0.0187 -0.7212
  323MOL0     H42608   6.412   9.460   6.646  1.5572 -0.5036  1.4388
  323MOL0     H42609   6.389   9.345   6.781 -2.6896  0.5127  1.1652
  323MOL0     H42610   6.429   9.246   6.488  2.4644 -3.5367  0.3083
  323MOL0     H42611   6.452   9.168   6.645  0.1434  0.2877  0.7345
  323MOL0     H42612   6.647   9.311   6.692  2.3097 -3.2093 -0.5946
  323MOL0     H42613   6.617   9.392   6.534 -1.2143 -0.2307  0.8413
  323MOL0     H42614   6.633   9.095   6.539 -2.1773  1.1930  0.5459
  323MOL0     H42615   6.666   9.206   6.402  0.2285  3.2510  0.2168
  323MOL0     H42616   6.852   9.169   6.632 -1.5995  0.4224  0.4103
  323MOL0     H42617   6.870   9.273   6.492  0.3245 -0.2582 -1.4862
  323MOL0     H42618   5.764   9.142   6.768  1.1005  0.4121 -1.3227
  323MOL0     H42619   5.521   9.147   6.733 -0.4499  0.2099 -1.7394
  323MOL0     H42620   5.122   9.146   6.963  2.3851  1.7949 -0.4225
  323MOL0     H42621   4.880   9.083   6.919 -2.0473  1.1727 -1.6032
  323MOL0     H42622   5.179   8.843   6.323  1.6369  0.2348  1.3586
  323MOL0     H42623   5.417   8.873   6.336 -0.7807 -0.0637 -1.3916
  323MOL0     H42624   5.801   8.934   6.117 -2.4356 -2.7123  2.3186
  323MOL0     H42625   6.049   8.973   6.082  1.0984 -1.5576 -0.9335
  323MOL0     H42626   6.432   8.785   6.112  0.0843  0.7302 -0.4944
  323MOL0     H42627   6.325   8.651   6.131 -1.3273  0.1886  0.7047
  323MOL0     H42628   6.435   8.845   6.353 -0.2833 -0.1426  0.4376
  323MOL0     H42629   6.339   8.705   6.399 -0.5983  2.8285  1.8533
  323MOL0     H42630   6.607   8.715   6.409  2.2593  0.1459 -2.3176
  323MOL0     H42631   6.606   8.678   6.240  0.7533 -0.5977  1.0853
  323MOL0     H42632   6.491   8.518   6.469 -2.4970  0.2781 -1.2825
  323MOL0     H42633   6.478   8.478   6.289 -1.2516  1.8681 -0.8798
  323MOL0     H42634   6.895   8.419   6.370  0.3048 -1.9330 -1.5436
  323MOL0     H42635   6.116   8.583   6.272 -1.8766 -0.3893  1.0724
  323MOL0     H42636   5.897   8.550   6.279  1.2521 -1.6213 -1.9093
  324MOL0     O42637   2.147   3.838   3.283  0.7426  0.3785  0.7201
  324MOL0     C42638   2.204   3.942   3.277 -0.0809  0.2159 -0.5356
  324MOL0     O42639   2.144   4.064   3.285  0.4807  0.8538  0.2762
  324MOL0     C42640   2.008   4.055   3.290  0.3832 -0.4183  0.0121
  324MOL0     C42641   1.926   3.983   3.197  0.5510 -0.8285  0.5711
  324MOL0     C42642   1.786   3.971   3.219  0.1356  0.0231 -1.2783
  324MOL0     C42643   1.731   4.045   3.317 -0.3214 -0.2034  0.7397
  324MOL0     O42644   1.594   4.041   3.336  0.1175 -0.2661 -0.4248
  324MOL0     C42645   1.507   4.043   3.220 -0.2961 -0.0683  0.0240
  324MOL0     C42646   1.352   4.063   3.254  0.1065  0.0031 -0.1340
  324MOL0     C42647   1.304   3.949   3.343 -0.1419 -0.1461  1.0514
  324MOL0     C42648   1.160   3.962   3.386  0.4708 -0.3703  0.8218
  324MOL0     C42649   1.107   3.840   3.477  0.3999 -0.2734 -0.1944
  324MOL0     C42650   0.956   3.867   3.491 -0.9557  0.4831 -0.4465
  324MOL0     C42651   0.896   3.773   3.592  0.7953 -0.1513 -0.2755
  324MOL0     C42652   0.739   3.783   3.562  0.0910  0.6624  1.0531
  324MOL0     N42653   0.664   3.692   3.634  0.1993  0.0139 -0.2408
  324MOL0     C42654   0.591   3.732   3.744 -0.2413 -0.2487 -0.2158
  324MOL0     C42655   0.568   3.615   3.807  0.3748 -0.3079  0.1601
  324MOL0     C42656   0.500   3.604   3.947 -0.0426 -0.1694 -0.2542
  324MOL0     C42657   0.348   3.610   3.926 -0.3891  0.3702 -0.7951
  324MOL0     C42658   0.287   3.753   3.928 -0.6129  0.1761  0.1030
  324MOL0     C42659   0.135   3.759   3.922  1.0447  0.0647 -0.0763
  324MOL0     O42660   0.110   3.799   4.057  0.0740  0.1249 -0.0133
  324MOL0     C42661  -0.020   3.841   4.085 -0.7520 -0.7803 -0.5183
  324MOL0     C42662  -0.136   3.832   4.012 -0.3331  0.4026 -0.0248
  324MOL0     C42663  -0.258   3.895   4.054 -0.5536  0.5948  0.5359
  324MOL0     C42664  -0.265   3.958   4.177  0.4136  0.0905  0.0457
  324MOL0     C42665  -0.390   4.015   4.231 -0.7781 -0.1795  0.0119
  324MOL0     O42666  -0.490   4.031   4.135  0.4857  0.0395 -0.3563
  324MOL0     C42667  -0.616   4.074   4.184 -1.3470  0.3577 -0.9527
  324MOL0     C42668  -0.670   4.200   4.154 -0.1597  0.0526  0.2256
  324MOL0     C42669  -0.793   4.232   4.201  0.3722 -0.0301 -0.7407
  324MOL0     C42670  -0.874   4.143   4.274 -0.8921  0.0202  0.1272
  324MOL0     O42671  -1.003   4.189   4.292 -0.3650 -0.2302 -0.4671
  324MOL0     C42672  -1.100   4.089   4.307 -0.2796  0.0710 -0.0096
  324MOL0     C42673  -1.223   4.142   4.388 -0.5268  0.2402 -0.2933
  324MOL0     C42674  -1.346   4.051   4.394  0.5455  0.1278 -0.0538
  324MOL0     C42675  -1.473   4.107   4.448 -0.4414  0.2393  0.0617
  324MOL0     C42676  -1.596   4.086   4.370  0.8827  0.0572  0.2849
  324MOL0     C42677  -1.619   4.183   4.253  0.9704  0.6984 -0.9723
  324MOL0     C42678  -1.757   4.157   4.183 -1.0111  0.2589  0.2929
  324MOL0     C42679  -1.873   4.241   4.243  0.9108 -0.0619  0.6005
  324MOL0    Cl42680  -2.027   4.153   4.193 -0.0824  0.1459 -0.3330
  324MOL0     C42681  -0.811   4.022   4.310  0.0545 -0.2156  0.4377
  324MOL0     C42682  -0.684   3.988   4.271 -0.2463 -0.1480  0.7646
  324MOL0     O42683  -0.402   4.060   4.349  0.0979  0.1981  0.9929
  324MOL0     C42684  -0.151   3.963   4.260 -0.2163  0.0074  0.4156
  324MOL0     C42685  -0.029   3.900   4.212  0.0461  0.5283 -0.4551
  324MOL0     N42686   0.622   3.510   3.740  0.1867  0.1593 -1.0676
  324MOL0     N42687   0.679   3.553   3.636  0.1488  0.2142  0.2750
  324MOL0     C42688   1.808   4.128   3.403  0.8920  0.1613  0.3118
  324MOL0     C42689   1.947   4.129   3.390  0.8785 -0.4060 -0.9664
  324MOL0     C42690   2.356   3.943   3.281  0.7620  0.7276  0.8068
  324MOL0     C42691   2.425   3.823   3.234 -0.3341 -0.6004  0.4883
  324MOL0     C42692   2.573   3.823   3.227 -0.1131  0.5261 -0.6214
  324MOL0     C42693   2.641   3.945   3.258 -1.3705 -0.2621 -0.4095
  324MOL0     O42694   2.781   3.940   3.246 -0.4645 -1.0833  0.4460
  324MOL0     C42695   2.850   4.065   3.239 -0.1380 -0.0413  0.3939
  324MOL0     C42696   2.978   4.037   3.162 -0.2655  0.1947  0.4821
  324MOL0     C42697   3.068   4.156   3.169 -0.5428 -0.5283  1.0050
  324MOL0     C42698   3.189   4.122   3.072 -0.3355 -0.3725  0.2850
  324MOL0     C42699   3.246   4.240   3.010 -0.6027  0.1055  0.5438
  324MOL0     C42700   3.304   4.323   2.942 -0.8269  0.9956 -0.3743
  324MOL0     C42701   2.566   4.046   3.315 -0.5423  0.0042  0.5688
  324MOL0     C42702   2.430   4.045   3.335 -0.0090 -0.2065  0.3382
  324MOL0     H42703   1.965   3.926   3.113  1.2178  1.0548 -0.4728
  324MOL0     H42704   1.720   3.908   3.160  0.1315 -0.8957 -0.3224
  324MOL0     H42705   1.515   3.944   3.175 -0.1188  0.1114 -0.3423
  324MOL0     H42706   1.551   4.109   3.144  2.6896 -1.8221  0.0419
  324MOL0     H42707   1.293   4.066   3.162 -1.3597 -0.9329  0.7295
  324MOL0     H42708   1.332   4.155   3.310 -0.9753  0.0400 -0.5456
  324MOL0     H42709   1.367   3.942   3.432 -2.1277 -1.8991  2.4236
  324MOL0     H42710   1.314   3.857   3.285 -3.5668 -0.1477  0.2404
  324MOL0     H42711   1.164   4.059   3.436  0.6638  0.0597 -0.0099
  324MOL0     H42712   1.102   3.976   3.294  2.1620 -2.7469 -0.7202
  324MOL0     H42713   1.162   3.841   3.572  1.1888  1.5532 -0.6153
  324MOL0     H42714   1.126   3.749   3.420  0.3914 -1.8018  2.0830
  324MOL0     H42715   0.902   3.861   3.396 -2.1278 -0.1403  0.2283
  324MOL0     H42716   0.934   3.969   3.522 -1.1435  0.7039 -1.2679
  324MOL0     H42717   0.936   3.678   3.557 -0.4532 -1.0018  0.5067
  324MOL0     H42718   0.922   3.791   3.696 -0.8480  0.0056  0.1411
  324MOL0     H42719   0.726   3.755   3.457  2.0958  1.5674  0.5161
  324MOL0     H42720   0.706   3.888   3.562  2.6882  1.5611  0.4852
  324MOL0     H42721   0.571   3.835   3.772  3.7154  0.6784 -0.2489
  324MOL0     H42722   0.539   3.682   4.013  0.2932 -1.1326  0.7064
  324MOL0     H42723   0.529   3.512   3.998 -2.2556  0.0730  1.5916
  324MOL0     H42724   0.314   3.546   4.008 -0.9692  0.8262 -0.6770
  324MOL0     H42725   0.333   3.564   3.828  0.9809 -2.2086  0.0797
  324MOL0     H42726   0.321   3.796   4.023 -1.3009 -0.5369  0.6858
  324MOL0     H42727   0.334   3.807   3.845  1.2500 -2.7735 -0.8868
  324MOL0     H42728   0.088   3.660   3.916 -0.5453  0.7004  1.1328
  324MOL0     H42729   0.100   3.818   3.837 -0.6454  1.8720  1.7541
  324MOL0     H42730  -0.131   3.783   3.915 -1.1337  1.2709 -0.5135
  324MOL0     H42731  -0.339   3.899   3.982 -3.2116 -0.6483  3.2266
  324MOL0     H42732  -0.618   4.276   4.096 -1.4427  2.4091  1.9940
  324MOL0     H42733  -0.814   4.334   4.169  0.4346  0.0074 -0.6630
  324MOL0     H42734  -1.066   4.002   4.366  0.9563 -0.9033 -2.0579
  324MOL0     H42735  -1.117   4.035   4.214  0.0792  0.6854 -0.4346
  324MOL0     H42736  -1.251   4.235   4.337  0.6179  2.2785  2.5193
  324MOL0     H42737  -1.194   4.170   4.490  1.5658  1.6130 -1.1760
  324MOL0     H42738  -1.319   3.965   4.456  2.1819  2.0003  1.9744
  324MOL0     H42739  -1.373   4.023   4.292 -4.0165  0.5782  0.8127
  324MOL0     H42740  -1.502   4.061   4.543  1.0776 -1.4938 -0.2511
  324MOL0     H42741  -1.451   4.213   4.464 -1.4845  0.2327  1.7333
  324MOL0     H42742  -1.673   4.103   4.446  0.0047 -0.4712 -0.4654
  324MOL0     H42743  -1.613   3.984   4.335  1.0254  0.9819 -2.8260
  324MOL0     H42744  -1.539   4.170   4.179  0.2165  0.1576 -1.7086
  324MOL0     H42745  -1.621   4.286   4.288  0.3548  0.6553 -0.8656
  324MOL0     H42746  -1.747   4.189   4.079 -0.3435 -1.7328 -0.2941
  324MOL0     H42747  -1.772   4.049   4.182  2.3437 -0.3223  0.4203
  324MOL0     H42748  -1.888   4.340   4.201 -0.2217  0.7048  2.6719
  324MOL0     H42749  -1.851   4.248   4.350  1.9785 -0.0303  0.3917
  324MOL0     H42750  -0.871   3.947   4.360  1.4258 -3.1149 -1.9773
  324MOL0     H42751  -0.633   3.894   4.292  1.0338  0.9426  2.9037
  324MOL0     H42752  -0.159   4.011   4.358 -1.4145 -0.3501  0.5112
  324MOL0     H42753   0.061   3.904   4.272  0.7796 -2.9968 -1.1058
  324MOL0     H42754   1.757   4.171   3.489 -1.6313 -2.9736  0.5418
  324MOL0     H42755   2.018   4.182   3.454  0.5942 -2.7799  1.5081
  324MOL0     H42756   2.360   3.745   3.195 -1.5390  0.8989 -0.6495
  324MOL0     H42757   2.619   3.734   3.186 -2.5594 -1.1217 -0.0237
  324MOL0     H42758   2.875   4.094   3.341  0.4256 -1.9802  0.8533
  324MOL0     H42759   2.789   4.138   3.185  0.0344 -0.8712 -0.9927
  324MOL0     H42760   3.033   3.956   3.211 -0.2988  0.2529  0.6155
  324MOL0     H42761   2.944   4.011   3.061  0.5929  0.7496  0.0467
  324MOL0     H42762   3.103   4.178   3.270  0.0550  1.6070  0.3777
  324MOL0     H42763   3.010   4.241   3.134 -0.5523 -0.3625  1.4231
  324MOL0     H42764   3.267   4.068   3.126  0.1012 -1.1846 -1.1043
  324MOL0     H42765   3.156   4.060   2.989  0.7266  1.8983 -1.9848
  324MOL0     H42766   3.337   4.402   2.879 -1.5700  2.4102  0.9569
  324MOL0     H42767   2.616   4.140   3.336  1.1827 -0.8584  0.5087
  324MOL0     H42768   2.377   4.133   3.371 -0.7588 -0.1294 -0.9205
  325MOL0     O42769   2.683   8.545   4.010 -0.9479 -0.0608 -0.3471
  325MOL0     C42770   2.757   8.481   4.087  0.4820 -0.3542 -0.5005
  325MOL0     O42771   2.816   8.363   4.056  0.0361 -0.3500  0.2934
  325MOL0     C42772   2.758   8.274   3.965  0.8627  0.1693 -0.5526
  325MOL0     C42773   2.840   8.175   3.908  0.4966 -1.2040  0.3009
  325MOL0     C42774   2.797   8.084   3.817  0.4725 -0.1623  0.0762
  325MOL0     C42775   2.663   8.075   3.786  0.7240 -0.6108 -0.5927
  325MOL0     O42776   2.630   7.971   3.705 -0.1097  0.6727 -0.3214
  325MOL0     C42777   2.497   7.944   3.679 -0.2734 -0.7196 -0.6526
  325MOL0     C42778   2.512   7.823   3.599  0.0531  0.9277  0.4989
  325MOL0     C42779   2.392   7.782   3.523  0.4254 -0.1712 -0.1940
  325MOL0     C42780   2.391   7.840   3.379  0.6242  0.5353  0.2320
  325MOL0     C42781   2.248   7.857   3.317 -0.2094  0.0055  0.4229
  325MOL0     C42782   2.269   7.855   3.168  0.1650  0.6663  0.1643
  325MOL0     C42783   2.139   7.843   3.094 -0.0198 -0.2384 -0.3706
  325MOL0     C42784   2.058   7.966   3.115  0.1348 -0.1875  0.3396
  325MOL0     N42785   1.923   7.939   3.077  0.0505 -0.5060  0.4353
  325MOL0     C42786   1.825   7.876   3.141  0.2633 -0.1696 -0.4441
  325MOL0     C42787   1.712   7.895   3.063 -0.8187  0.5871  0.0845
  325MOL0     C42788   1.578   7.833   3.085 -0.2575  0.0952 -0.2471
  325MOL0     C42789   1.608   7.684   3.050 -0.0360 -0.5985  0.6886
  325MOL0     C42790   1.480   7.608   3.036 -0.1014 -0.8751 -0.8444
  325MOL0     C42791   1.501   7.478   2.967 -0.2535 -0.0168  0.3543
  325MOL0     O42792   1.427   7.379   3.035  0.9204 -0.4126  0.2086
  325MOL0     C42793   1.291   7.364   3.013 -0.0233 -0.1116 -0.0033
  325MOL0     C42794   1.217   7.425   2.909 -0.4977 -0.5476 -0.0679
  325MOL0     C42795   1.083   7.398   2.901 -0.0802  0.7394 -0.1964
  325MOL0     C42796   1.008   7.335   3.002 -0.0434 -0.0669 -0.4581
  325MOL0     C42797   0.860   7.317   2.993 -0.8403  1.3479 -0.4355
  325MOL0     O42798   0.802   7.224   3.084  0.3061 -0.4189  0.4709
  325MOL0     C42799   0.674   7.239   3.124 -0.0736  0.0290 -0.2295
  325MOL0     C42800   0.601   7.124   3.166 -0.6426 -0.4258 -0.0297
  325MOL0     C42801   0.473   7.133   3.229 -0.1451  0.2953 -0.4071
  325MOL0     C42802   0.424   7.259   3.261  0.4525  0.3567 -0.5973
  325MOL0     O42803   0.303   7.274   3.334  0.5367  0.4979  0.0264
  325MOL0     C42804   0.203   7.168   3.346  0.2522  0.4910 -0.1125
  325MOL0     C42805   0.153   7.136   3.210  0.4997  0.0038  0.2029
  325MOL0     C42806   0.038   7.033   3.216 -0.3376  0.7660  0.5312
  325MOL0     C42807  -0.102   7.091   3.252 -0.6546  0.0024  0.2013
  325MOL0     C42808  -0.215   7.017   3.182  0.6752  1.0811 -0.7193
  325MOL0     C42809  -0.345   7.096   3.224 -0.2591  0.3066 -0.5397
  325MOL0     C42810  -0.470   7.026   3.174  0.6068 -0.2827  0.3001
  325MOL0     C42811  -0.586   7.116   3.131  0.5130  0.4716  0.7093
  325MOL0    Cl42812  -0.725   7.023   3.071  0.4359  0.1028 -0.6135
  325MOL0     C42813   0.493   7.368   3.221 -0.3729  0.2497  0.1400
  325MOL0     C42814   0.617   7.360   3.158 -0.2478 -0.8146 -0.4194
  325MOL0     O42815   0.807   7.402   2.918  0.3327  0.6419 -0.2403
  325MOL0     C42816   1.078   7.286   3.115 -0.4439  0.3210  0.0053
  325MOL0     C42817   1.214   7.295   3.121  0.2858 -0.4926  0.8404
  325MOL0     N42818   1.749   7.969   2.953 -0.0545 -0.3799 -0.8034
  325MOL0     N42819   1.872   8.003   2.968 -0.3285  0.0888 -0.8238
  325MOL0     C42820   2.579   8.174   3.835 -0.2028 -0.1901  0.4989
  325MOL0     C42821   2.621   8.279   3.925  0.4032  0.4700  0.4618
  325MOL0     C42822   2.797   8.556   4.207 -0.1102 -0.0099 -0.1903
  325MOL0     C42823   2.745   8.683   4.235 -0.3775  0.5956  0.3687
  325MOL0     C42824   2.790   8.760   4.337 -0.2869  0.0192  0.7661
  325MOL0     C42825   2.887   8.719   4.422  0.4422 -0.5213  0.4425
  325MOL0     O42826   2.915   8.802   4.535 -0.3247  0.6237 -0.1139
  325MOL0     C42827   3.017   8.756   4.623  0.1339  0.1181  0.0150
  325MOL0     C42828   3.021   8.834   4.748 -0.6802 -0.1416  0.6846
  325MOL0     C42829   3.144   8.791   4.830  0.4027 -1.0485 -0.1470
  325MOL0     C42830   3.113   8.832   4.980  0.2776  0.1893 -0.4982
  325MOL0     C42831   3.013   8.736   5.032 -0.0851 -0.1448  0.5569
  325MOL0     C42832   2.923   8.656   5.051  1.0732 -0.5317  0.1990
  325MOL0     C42833   2.950   8.596   4.396  0.4754  0.8330  0.2927
  325MOL0     C42834   2.907   8.513   4.295 -0.0925  0.0653  0.7271
  325MOL0     H42835   2.929   8.154   3.968 -0.6742 -3.2639  1.4415
  325MOL0     H42836   2.873   8.010   3.793  1.0610  0.1698  0.8929
  325MOL0     H42837   2.439   8.019   3.625 -3.1028 -1.3131  1.2880
  325MOL0     H42838   2.439   7.920   3.768 -1.7165 -0.3798 -1.4685
  325MOL0     H42839   2.539   7.742   3.669  0.9651  1.0969  0.3631
  325MOL0     H42840   2.593   7.833   3.526 -0.0875 -2.2910 -0.2614
  325MOL0     H42841   2.308   7.825   3.579  2.6959  1.9769  1.8170
  325MOL0     H42842   2.381   7.674   3.524 -0.0365 -0.1431 -1.1448
  325MOL0     H42843   2.443   7.936   3.371 -0.0051  0.8888  0.2814
  325MOL0     H42844   2.445   7.774   3.311  0.9842 -0.3902  1.3724
  325MOL0     H42845   2.214   7.948   3.367  1.4919 -0.2516  2.1632
  325MOL0     H42846   2.177   7.778   3.344 -1.5255  0.8780 -0.3586
  325MOL0     H42847   2.314   7.759   3.142 -1.9385 -0.5232  0.6061
  325MOL0     H42848   2.335   7.932   3.127  1.6311 -1.0626 -0.8695
  325MOL0     H42849   2.163   7.837   2.987  2.1383  1.0291 -0.0199
  325MOL0     H42850   2.087   7.753   3.126  0.3374 -0.1713  0.4261
  325MOL0     H42851   2.106   8.040   3.049  0.2233 -1.0141 -0.5394
  325MOL0     H42852   2.064   7.998   3.220 -3.5818 -0.0911  0.6426
  325MOL0     H42853   1.842   7.803   3.219  2.6464 -0.1505 -0.8445
  325MOL0     H42854   1.494   7.870   3.026 -1.0602  0.0395  0.8357
  325MOL0     H42855   1.549   7.840   3.190  1.6689  2.7945  0.1920
  325MOL0     H42856   1.678   7.648   3.126  1.6827 -0.0690 -0.5850
  325MOL0     H42857   1.651   7.683   2.949 -2.3533  0.4865 -0.3840
  325MOL0     H42858   1.447   7.586   3.138  5.2359 -2.0012  0.9570
  325MOL0     H42859   1.398   7.666   2.991 -0.5801 -0.9967 -0.1458
  325MOL0     H42860   1.608   7.454   2.965 -0.6771 -2.1172 -1.3337
  325MOL0     H42861   1.480   7.471   2.860  1.4085 -0.0010 -0.0073
  325MOL0     H42862   1.260   7.489   2.833 -1.7440  1.7375  1.0327
  325MOL0     H42863   1.037   7.443   2.813  0.2044 -2.0943 -1.9173
  325MOL0     H42864   0.670   7.041   3.152  2.6963  2.3948 -1.8857
  325MOL0     H42865   0.456   7.043   3.288  1.1745  0.2651 -0.0417
  325MOL0     H42866   0.113   7.183   3.406 -0.1432  0.2180 -0.6343
  325MOL0     H42867   0.247   7.087   3.404 -1.7315  0.8390  2.0294
  325MOL0     H42868   0.237   7.101   3.149  0.2906 -0.8888  0.4096
  325MOL0     H42869   0.123   7.230   3.163 -0.1131  0.3923  1.3300
  325MOL0     H42870   0.054   6.943   3.276 -3.2207 -1.0010 -1.1217
  325MOL0     H42871   0.026   7.001   3.112  1.5495 -0.2900  0.6120
  325MOL0     H42872  -0.114   7.060   3.356  3.5339 -0.9529  0.6089
  325MOL0     H42873  -0.113   7.199   3.242  2.4494  0.4391  0.3666
  325MOL0     H42874  -0.228   6.916   3.224 -0.7531  1.4602 -0.2002
  325MOL0     H42875  -0.199   7.010   3.074  1.8417 -1.3742 -0.4725
  325MOL0     H42876  -0.331   7.193   3.176  0.3489  0.5659  0.1485
  325MOL0     H42877  -0.330   7.109   3.332  1.6221 -0.0958 -0.7306
  325MOL0     H42878  -0.451   6.970   3.082  0.7610 -0.6627  0.5633
  325MOL0     H42879  -0.503   6.965   3.259  3.1352 -2.3431 -0.0838
  325MOL0     H42880  -0.551   7.189   3.056 -1.0046 -1.1462 -1.7076
  325MOL0     H42881  -0.611   7.164   3.225 -0.5230 -1.8603  1.6911
  325MOL0     H42882   0.448   7.465   3.240 -0.8602  0.1676 -0.5464
  325MOL0     H42883   0.669   7.453   3.134  2.3617 -1.7916  0.9412
  325MOL0     H42884   1.013   7.244   3.192  1.3519 -0.6753  1.0340
  325MOL0     H42885   1.282   7.263   3.199 -0.1026 -2.0392  0.5642
  325MOL0     H42886   2.481   8.169   3.790 -1.2378  0.8818  2.4786
  325MOL0     H42887   2.542   8.345   3.960 -0.8563 -2.0686  2.8055
  325MOL0     H42888   2.671   8.738   4.178 -3.6788 -1.4767  2.2908
  325MOL0     H42889   2.729   8.849   4.352 -0.5800  0.0242 -0.3275
  325MOL0     H42890   3.114   8.768   4.573 -0.0005 -1.1945 -0.6206
  325MOL0     H42891   3.012   8.648   4.640 -0.5959  0.0971 -0.2917
  325MOL0     H42892   3.038   8.940   4.727 -0.4969 -0.5218 -1.2531
  325MOL0     H42893   2.930   8.818   4.805 -2.6741 -0.5226 -2.3799
  325MOL0     H42894   3.231   8.847   4.794 -0.5627 -0.5275 -1.8010
  325MOL0     H42895   3.164   8.684   4.819 -2.5291 -1.5547 -1.4582
  325MOL0     H42896   3.204   8.818   5.039 -1.6116  1.4472  3.0189
  325MOL0     H42897   3.083   8.937   4.990 -0.7311 -0.1643  0.3743
  325MOL0     H42898   2.836   8.594   5.058 -0.8225  2.1912  2.6577
  325MOL0     H42899   3.026   8.559   4.463 -0.1441 -0.0061  0.5519
  325MOL0     H42900   2.945   8.413   4.276  0.3150  0.7758 -2.7930
  326MOL0     O42901   9.066   0.687   0.866 -0.4479  0.5688 -0.5068
  326MOL0     C42902   9.177   0.738   0.851 -0.2268  0.0678  0.0206
  326MOL0     O42903   9.203   0.869   0.814  0.5419 -0.2914 -0.0333
  326MOL0     C42904   9.092   0.945   0.804 -0.8344  0.2112  0.4673
  326MOL0     C42905   9.052   1.050   0.892 -0.0895  0.0078 -0.4305
  326MOL0     C42906   8.938   1.129   0.858 -0.1460 -0.3947 -0.0344
  326MOL0     C42907   8.864   1.106   0.742  0.4831  1.3012 -0.7351
  326MOL0     O42908   8.752   1.176   0.703 -0.9432 -0.7068 -0.1902
  326MOL0     C42909   8.712   1.291   0.778  0.6572  0.0511  0.7098
  326MOL0     C42910   8.593   1.364   0.726 -0.3628 -0.2487  0.5556
  326MOL0     C42911   8.468   1.281   0.707 -0.3768 -0.3670  0.3361
  326MOL0     C42912   8.347   1.360   0.666  0.1727 -0.1245 -0.1290
  326MOL0     C42913   8.230   1.259   0.654  0.2413 -0.2449 -0.2782
  326MOL0     C42914   8.093   1.340   0.628 -0.2503 -0.1494 -0.4625
  326MOL0     C42915   7.965   1.252   0.618  0.5697  0.3071 -0.8073
  326MOL0     C42916   7.957   1.154   0.501  1.1032 -0.1918  0.2590
  326MOL0     N42917   7.833   1.072   0.522  0.0957  0.1766  0.3325
  326MOL0     C42918   7.816   0.971   0.617  0.2033 -0.2327  0.6846
  326MOL0     C42919   7.688   0.930   0.604 -0.0385  1.0561  0.4058
  326MOL0     C42920   7.630   0.812   0.689  1.2661 -0.2359  0.1591
  326MOL0     C42921   7.638   0.833   0.839  0.9180 -0.2030 -0.3127
  326MOL0     C42922   7.545   0.934   0.897 -0.2685  1.0289 -1.0661
  326MOL0     C42923   7.401   0.879   0.914 -0.8214  0.1690  0.0795
  326MOL0     O42924   7.362   0.888   1.051  0.1888  1.0612 -0.3207
  326MOL0     C42925   7.240   0.823   1.068  0.8155 -0.4439  0.1706
  326MOL0     C42926   7.225   0.681   1.081 -1.0285  0.3126  0.3623
  326MOL0     C42927   7.104   0.613   1.088  0.5233 -0.3477  0.7936
  326MOL0     C42928   6.983   0.686   1.093 -0.0438 -0.6171 -0.2093
  326MOL0     C42929   6.852   0.622   1.113  0.0161  0.0065 -0.5528
  326MOL0     O42930   6.743   0.695   1.112  0.0638  0.3953 -0.0394
  326MOL0     C42931   6.615   0.644   1.147 -0.5328 -0.2794  0.6826
  326MOL0     C42932   6.516   0.721   1.086  0.3708 -0.3086  0.3651
  326MOL0     C42933   6.379   0.713   1.101  0.0066 -0.0310 -0.9718
  326MOL0     C42934   6.333   0.614   1.189 -0.0744  0.2587  0.0665
  326MOL0     O42935   6.203   0.600   1.205  0.2011  0.5163 -0.3680
  326MOL0     C42936   6.143   0.478   1.257 -0.2220  0.1861  0.5873
  326MOL0     C42937   5.989   0.478   1.265 -0.2696  0.0392  0.6308
  326MOL0     C42938   5.936   0.356   1.344 -0.2752 -0.8709  0.4024
  326MOL0     C42939   5.784   0.381   1.348 -0.9262  1.0500 -0.6899
  326MOL0     C42940   5.716   0.239   1.361  0.1796 -0.7984  0.3167
  326MOL0     C42941   5.762   0.161   1.480  0.5554  0.5774  1.5596
  326MOL0     C42942   5.728   0.228   1.613  0.3932 -0.6092 -0.0818
  326MOL0     C42943   5.739   0.118   1.726  0.0967 -0.6346  0.4016
  326MOL0    Cl42944   5.899   0.047   1.742  0.2963  0.1871  0.0590
  326MOL0     C42945   6.432   0.541   1.270 -0.0204 -0.1941  0.2101
  326MOL0     C42946   6.570   0.555   1.247 -0.4431 -0.0434 -0.4069
  326MOL0     O42947   6.849   0.506   1.150 -0.1186  0.3988 -0.2374
  326MOL0     C42948   7.000   0.829   1.074  0.8224  0.1256 -0.2564
  326MOL0     C42949   7.121   0.899   1.071  0.3411 -0.2277 -0.7137
  326MOL0     N42950   7.621   0.999   0.502 -0.3030 -0.2760 -0.4839
  326MOL0     N42951   7.705   1.089   0.463 -0.2846 -0.8660  0.1415
  326MOL0     C42952   8.906   0.999   0.661 -0.2586 -0.9802  0.2280
  326MOL0     C42953   9.025   0.924   0.688  0.1322 -0.3685  0.3859
  326MOL0     C42954   9.293   0.654   0.868 -1.0279 -0.2007 -0.7120
  326MOL0     C42955   9.280   0.531   0.931  0.5916 -0.2716 -0.4783
  326MOL0     C42956   9.390   0.449   0.950 -0.8535 -0.4497  0.2088
  326MOL0     C42957   9.521   0.490   0.903 -0.1684  0.8568 -0.9491
  326MOL0     O42958   9.619   0.396   0.909 -0.9189 -0.3813 -0.3338
  326MOL0     C42959   9.753   0.428   0.872  0.0375 -0.1378 -0.1609
  326MOL0     C42960   9.811   0.522   0.975 -0.1100  0.3818 -0.4911
  326MOL0     C42961   9.959   0.527   0.955 -0.4715  0.2737  0.0219
  326MOL0     C42962   9.992   0.642   0.869  0.3474  0.4903  0.4763
  326MOL0     C42963   9.992   0.764   0.960 -0.9581  0.5944  0.1269
  326MOL0     C42964   9.993   0.869   1.024  0.2904  0.6543  0.1777
  326MOL0     C42965   9.532   0.620   0.850  0.2741  0.6658  0.6406
  326MOL0     C42966   9.421   0.695   0.830 -0.9871  0.1712 -0.3807
  326MOL0     H42967   9.105   1.061   0.986  1.0699  0.3903 -1.1134
  326MOL0     H42968   8.905   1.199   0.934  1.3550 -0.9575  1.1903
  326MOL0     H42969   8.791   1.367   0.774  0.6976 -0.0497 -1.1585
  326MOL0     H42970   8.680   1.264   0.879 -1.4317  1.0470  0.3541
  326MOL0     H42971   8.618   1.403   0.627 -3.3908  1.2855  0.2827
  326MOL0     H42972   8.561   1.452   0.782  0.3249  0.3039  0.1011
  326MOL0     H42973   8.456   1.219   0.797 -1.7886 -3.8624 -2.0348
  326MOL0     H42974   8.477   1.200   0.635 -1.5182 -0.2967  0.0934
  326MOL0     H42975   8.321   1.431   0.744 -1.7881 -4.0338  3.1853
  326MOL0     H42976   8.361   1.418   0.574 -1.6825  1.1264  0.3186
  326MOL0     H42977   8.208   1.197   0.742  1.0450  0.4658  0.4381
  326MOL0     H42978   8.247   1.185   0.576  0.1336 -0.1535 -0.3882
  326MOL0     H42979   8.108   1.396   0.535  0.8106 -0.1290 -0.2967
  326MOL0     H42980   8.072   1.410   0.709 -1.5223 -1.9806  0.8933
  326MOL0     H42981   7.954   1.194   0.710  1.5379 -1.4767 -1.7570
  326MOL0     H42982   7.876   1.316   0.617 -0.4788 -1.1025 -1.2545
  326MOL0     H42983   8.043   1.089   0.481  1.1411  0.1563 -0.7676
  326MOL0     H42984   7.948   1.211   0.408  2.0959 -0.5185 -0.0541
  326MOL0     H42985   7.887   0.912   0.674  1.1237 -1.3183 -1.4643
  326MOL0     H42986   7.700   0.731   0.668  0.9305 -0.7399  0.9499
  326MOL0     H42987   7.528   0.782   0.661  1.0962  0.3463  0.1488
  326MOL0     H42988   7.740   0.866   0.862  0.5566  1.3964 -0.8468
  326MOL0     H42989   7.613   0.738   0.887 -1.3917 -0.5020 -1.9313
  326MOL0     H42990   7.586   0.969   0.992  1.1013 -0.5839 -1.0150
  326MOL0     H42991   7.537   1.022   0.833 -1.1166 -1.0615 -4.0873
  326MOL0     H42992   7.393   0.781   0.866  1.5412  0.0830 -0.2397
  326MOL0     H42993   7.335   0.936   0.847 -0.3766 -2.1279 -2.5358
  326MOL0     H42994   7.316   0.622   1.084  0.0330  1.9138  2.5067
  326MOL0     H42995   7.112   0.506   1.078  3.7977 -0.0970 -0.3157
  326MOL0     H42996   6.540   0.805   1.021 -2.8275  0.4203 -0.0554
  326MOL0     H42997   6.308   0.778   1.051 -0.7374 -1.5216 -1.9347
  326MOL0     H42998   6.185   0.460   1.356  0.2318  0.2722  0.4149
  326MOL0     H42999   6.168   0.393   1.192 -1.2695  0.0786  0.3098
  326MOL0     H43000   5.957   0.490   1.161  0.6632 -2.5240 -0.0318
  326MOL0     H43001   5.953   0.565   1.321 -1.2583 -1.1517  1.9230
  326MOL0     H43002   5.976   0.350   1.446 -0.2763 -0.8977  0.4010
  326MOL0     H43003   5.966   0.268   1.286  1.8870 -0.2283  0.4407
  326MOL0     H43004   5.745   0.439   1.432 -0.8728 -0.9789  0.8037
  326MOL0     H43005   5.757   0.421   1.249  1.9642 -0.2986 -2.1372
  326MOL0     H43006   5.740   0.191   1.266 -0.1016 -1.9658  0.8168
  326MOL0     H43007   5.610   0.257   1.382  0.0617 -2.5534  1.3767
  326MOL0     H43008   5.867   0.132   1.465 -0.0716 -1.1911  0.2438
  326MOL0     H43009   5.701   0.070   1.480  1.9639 -0.4590  3.8523
  326MOL0     H43010   5.787   0.312   1.649 -0.1917 -0.5302  0.7285
  326MOL0     H43011   5.623   0.257   1.602  0.7072 -0.0708 -1.9049
  326MOL0     H43012   5.655   0.052   1.702 -0.6589  0.5914 -0.4941
  326MOL0     H43013   5.715   0.160   1.824  2.1067 -0.0731  0.6807
  326MOL0     H43014   6.410   0.456   1.335 -2.1881  2.4065  3.2037
  326MOL0     H43015   6.645   0.510   1.311  0.0890 -0.1540 -1.0913
  326MOL0     H43016   6.905   0.881   1.074 -2.1291 -4.6635  0.4738
  326MOL0     H43017   7.121   1.007   1.075 -0.1266 -0.2512  0.1840
  326MOL0     H43018   8.848   0.990   0.570 -1.2959  1.7848  0.5376
  326MOL0     H43019   9.061   0.859   0.609 -0.9533  0.0805 -0.4999
  326MOL0     H43020   9.180   0.506   0.965  2.0326 -2.0833  3.0797
  326MOL0     H43021   9.380   0.356   1.005  0.4286 -0.9185 -0.3285
  326MOL0     H43022   9.759   0.468   0.770 -0.2121 -0.8835 -0.4775
  326MOL0     H43023   9.803   0.331   0.867 -0.6337 -0.7057  2.5317
  326MOL0     H43024   9.764   0.621   0.974 -1.2410 -0.1373 -1.7693
  326MOL0     H43025   9.788   0.499   1.079 -2.6127  4.2238  0.0107
  326MOL0     H43026   9.998   0.437   0.906 -0.1305  0.9832 -1.0672
  326MOL0     H43027  10.003   0.540   1.054 -2.8479  0.9234  1.0507
  326MOL0     H43028  10.081   0.642   0.805 -1.3089  1.0760 -1.9694
  326MOL0     H43029   9.903   0.661   0.808  1.7953  1.5696 -1.4121
  326MOL0     H43030  10.000   0.971   1.057  0.1600  1.4083 -1.9571
  326MOL0     H43031   9.624   0.668   0.818 -1.4133  4.1296  0.4328
  326MOL0     H43032   9.429   0.793   0.786  0.5313 -0.1889 -0.9604
  327MOL0     O43033   3.638   3.794   9.375  0.2863 -0.5657 -0.1354
  327MOL0     C43034   3.577   3.706   9.437 -0.8221 -0.5485  0.3959
  327MOL0     O43035   3.446   3.673   9.425  0.4081  0.1758  0.7090
  327MOL0     C43036   3.377   3.694   9.307  0.6109 -1.2009  0.5407
  327MOL0     C43037   3.239   3.719   9.304  0.4765 -0.3785 -0.8760
  327MOL0     C43038   3.167   3.748   9.192  0.2481  0.2919  0.0718
  327MOL0     C43039   3.230   3.740   9.064 -0.4454 -0.3543  0.0564
  327MOL0     O43040   3.144   3.770   8.960 -0.2496  0.3815 -0.7169
  327MOL0     C43041   3.194   3.701   8.838 -0.3028  0.1964  0.6181
  327MOL0     C43042   3.077   3.686   8.737 -1.0360  0.1819 -0.1842
  327MOL0     C43043   3.137   3.613   8.613 -0.5232  0.4901 -0.0838
  327MOL0     C43044   3.036   3.591   8.494  0.7590 -0.1540  0.3900
  327MOL0     C43045   2.975   3.727   8.448 -0.5943 -0.3355 -0.3828
  327MOL0     C43046   2.911   3.698   8.308 -0.2215  0.3207 -0.8380
  327MOL0     C43047   2.830   3.805   8.242  0.2764  1.5519  0.3970
  327MOL0     C43048   2.926   3.914   8.203 -0.3805 -0.1565 -0.1510
  327MOL0     N43049   2.852   4.003   8.115  0.2673  1.2789  0.4946
  327MOL0     C43050   2.795   3.977   7.986 -0.3890 -0.7557  0.2215
  327MOL0     C43051   2.767   4.098   7.939 -0.5525  0.7953  0.5459
  327MOL0     C43052   2.696   4.116   7.812  0.7073 -0.6288  0.4837
  327MOL0     C43053   2.569   4.037   7.785 -0.3072  0.7994  0.1685
  327MOL0     C43054   2.466   4.063   7.898  0.0436 -0.7235 -0.0221
  327MOL0     C43055   2.323   4.024   7.863  0.2092 -0.2078  0.2676
  327MOL0     O43056   2.278   4.110   7.759  0.0197  0.4027 -0.0681
  327MOL0     C43057   2.142   4.101   7.713 -1.6136 -0.0747 -0.5832
  327MOL0     C43058   2.097   4.206   7.624 -0.0121  0.3653 -0.6346
  327MOL0     C43059   1.964   4.223   7.584 -0.4412 -0.3446  0.4710
  327MOL0     C43060   1.873   4.117   7.615 -0.0418 -0.0093 -0.1244
  327MOL0     C43061   1.727   4.131   7.568  0.4640  0.2132  0.2984
  327MOL0     O43062   1.690   4.236   7.478  0.0296 -0.1969  0.2050
  327MOL0     C43063   1.562   4.237   7.425 -0.4632 -0.8816 -0.6895
  327MOL0     C43064   1.544   4.210   7.286 -0.8144 -0.1505 -0.1311
  327MOL0     C43065   1.414   4.199   7.237 -0.7737 -0.0191 -0.2444
  327MOL0     C43066   1.302   4.225   7.317 -0.5965 -0.7333 -0.8179
  327MOL0     O43067   1.169   4.216   7.291 -0.2231  0.3185 -0.2943
  327MOL0     C43068   1.130   4.196   7.155  0.3213  0.4348 -0.3349
  327MOL0     C43069   0.985   4.195   7.145  0.6895 -0.1696 -0.6765
  327MOL0     C43070   0.916   4.332   7.147  0.7301 -0.2921 -0.3063
  327MOL0     C43071   0.765   4.335   7.113  0.4679  0.4565 -0.0208
  327MOL0     C43072   0.704   4.479   7.104 -0.2927 -0.2981 -0.4964
  327MOL0     C43073   0.698   4.528   6.958  0.0904 -0.5447  0.8282
  327MOL0     C43074   0.640   4.667   6.944  0.0028  0.2755 -0.7829
  327MOL0     C43075   0.672   4.711   6.802  0.2876 -0.0056  0.0463
  327MOL0    Cl43076   0.598   4.627   6.659 -0.3601 -0.3030 -0.2261
  327MOL0     C43077   1.329   4.272   7.448  0.5382  0.4918  0.7333
  327MOL0     C43078   1.458   4.279   7.504 -0.5240  0.4311  0.0966
  327MOL0     O43079   1.650   4.040   7.604 -0.1191 -1.2618  0.5462
  327MOL0     C43080   1.915   4.008   7.697 -0.2891 -0.0470 -0.5238
  327MOL0     C43081   2.046   4.009   7.757  0.0733  0.0465  0.9650
  327MOL0     N43082   2.809   4.195   8.030  0.2752  1.2185  0.1268
  327MOL0     N43083   2.858   4.135   8.129  0.3752  0.7141 -0.6720
  327MOL0     C43084   3.367   3.701   9.056  1.3017 -0.0477  0.3237
  327MOL0     C43085   3.434   3.681   9.176 -0.8253 -0.1437  0.0310
  327MOL0     C43086   3.650   3.644   9.552 -0.5085 -0.1151  0.4858
  327MOL0     C43087   3.577   3.574   9.652 -0.4877 -0.9693  0.2066
  327MOL0     C43088   3.651   3.501   9.748  0.9415 -0.3035  0.6394
  327MOL0     C43089   3.787   3.507   9.763  0.0399  0.5278 -1.4223
  327MOL0     O43090   3.852   3.431   9.866 -0.4352 -0.1035  0.0582
  327MOL0     C43091   3.989   3.457   9.893 -0.4679 -0.0340  0.7517
  327MOL0     C43092   4.028   3.406  10.031  0.0081 -0.2775 -0.2801
  327MOL0     C43093   4.003   3.255  10.053  0.3378 -0.2191  0.2216
  327MOL0     C43094   4.117   3.174  10.122  0.2753 -0.9126 -0.0370
  327MOL0     C43095   4.243   3.183  10.061  0.1266  0.4607 -0.3238
  327MOL0     C43096   4.348   3.193  10.002  0.7057 -0.2064 -0.0544
  327MOL0     C43097   3.858   3.578   9.664 -0.3831  0.2570 -0.4678
  327MOL0     C43098   3.799   3.647   9.560 -0.1210 -1.0434 -0.1696
  327MOL0     H43099   3.182   3.716   9.397  0.1904  1.2685 -0.9654
  327MOL0     H43100   3.061   3.770   9.205 -0.0148 -0.1709 -1.1606
  327MOL0     H43101   3.229   3.598   8.854 -0.3774 -0.3662 -2.1738
  327MOL0     H43102   3.276   3.761   8.796 -2.0838  1.5879 -1.0647
  327MOL0     H43103   3.046   3.790   8.723 -1.4528  0.4527  2.2120
  327MOL0     H43104   2.992   3.648   8.796 -0.7916  1.5042  1.0761
  327MOL0     H43105   3.175   3.512   8.632  1.4457  1.2757  0.4601
  327MOL0     H43106   3.221   3.673   8.574 -0.7593 -0.9470 -3.0805
  327MOL0     H43107   3.086   3.550   8.407  0.0153  0.1353 -0.1907
  327MOL0     H43108   2.953   3.522   8.514  1.4598 -1.0533  0.2007
  327MOL0     H43109   3.051   3.802   8.424 -0.1594 -1.2094 -1.8920
  327MOL0     H43110   2.899   3.760   8.519 -1.7053  0.0679 -1.7179
  327MOL0     H43111   2.835   3.620   8.316 -0.7942  0.8713 -0.8143
  327MOL0     H43112   2.979   3.658   8.232 -3.0409 -1.6648 -2.4906
  327MOL0     H43113   2.772   3.762   8.160  0.9563  3.6405 -1.2636
  327MOL0     H43114   2.758   3.849   8.311 -0.6288  0.3566  0.2435
  327MOL0     H43115   3.017   3.882   8.152  0.0077 -0.7969  0.8981
  327MOL0     H43116   2.971   3.966   8.289  1.8564 -1.4593 -0.4504
  327MOL0     H43117   2.786   3.882   7.933  0.9094 -2.4741  2.8602
  327MOL0     H43118   2.764   4.105   7.727  0.8232  3.5001 -0.1728
  327MOL0     H43119   2.666   4.221   7.808 -1.7054 -1.0312  3.8446
  327MOL0     H43120   2.594   3.932   7.771 -2.1250  0.5603 -1.9051
  327MOL0     H43121   2.527   4.073   7.690 -2.9862  0.4570  1.1515
  327MOL0     H43122   2.492   4.005   7.987  1.8800  0.8624  0.5358
  327MOL0     H43123   2.460   4.170   7.921 -2.1731 -1.2302  2.2098
  327MOL0     H43124   2.255   4.029   7.949 -1.1089 -1.6608 -0.6559
  327MOL0     H43125   2.324   3.924   7.821  0.2945  0.5553 -1.6221
  327MOL0     H43126   2.160   4.291   7.603 -0.3834  0.2952 -2.1582
  327MOL0     H43127   1.943   4.317   7.534  2.7595  0.7998  1.0605
  327MOL0     H43128   1.629   4.195   7.220 -0.2717 -1.2606  0.7803
  327MOL0     H43129   1.409   4.182   7.130  0.2536  0.3430 -0.3629
  327MOL0     H43130   1.168   4.097   7.129  1.6058 -0.1252  3.0713
  327MOL0     H43131   1.157   4.276   7.087 -2.3220 -0.1756 -2.2674
  327MOL0     H43132   0.948   4.137   7.230  2.2761 -1.1195 -0.5985
  327MOL0     H43133   0.952   4.138   7.057 -1.1147  0.8310 -0.7125
  327MOL0     H43134   0.974   4.401   7.084  4.1532 -1.5822  1.1474
  327MOL0     H43135   0.910   4.374   7.248  4.2698  1.7952 -0.7989
  327MOL0     H43136   0.736   4.291   7.017 -1.2666 -3.6475  2.1173
  327MOL0     H43137   0.703   4.276   7.181  4.2138 -0.3323  3.0168
  327MOL0     H43138   0.754   4.557   7.161 -2.9945 -0.1525  1.8988
  327MOL0     H43139   0.606   4.466   7.151  1.7760 -0.8302  4.2936
  327MOL0     H43140   0.631   4.463   6.902 -0.8698  1.5644 -0.5674
  327MOL0     H43141   0.800   4.525   6.918 -0.5184  1.4512 -1.0475
  327MOL0     H43142   0.532   4.668   6.956  0.2070 -1.4965  1.7843
  327MOL0     H43143   0.675   4.735   7.022 -0.5628  0.6705 -0.8650
  327MOL0     H43144   0.781   4.713   6.797  0.2664  0.7300 -0.3766
  327MOL0     H43145   0.632   4.814   6.801  0.6047  0.1209  0.2526
  327MOL0     H43146   1.255   4.327   7.505 -0.0065  4.5319 -3.2398
  327MOL0     H43147   1.475   4.323   7.602  0.0117  0.8022 -0.1559
  327MOL0     H43148   1.843   3.932   7.724  0.0607 -1.2036 -2.5802
  327MOL0     H43149   2.062   3.928   7.828 -2.4809 -0.2933  1.2558
  327MOL0     H43150   3.417   3.682   8.962 -3.3366 -1.5418 -2.1810
  327MOL0     H43151   3.541   3.661   9.169 -0.1750  2.6627  0.7519
  327MOL0     H43152   3.468   3.573   9.656 -0.5135 -3.0600  4.2077
  327MOL0     H43153   3.590   3.445   9.819  0.8822 -1.6067 -0.3987
  327MOL0     H43154   4.019   3.561   9.884 -0.1989 -0.1228  0.5963
  327MOL0     H43155   4.052   3.413   9.815 -0.8994 -2.5070  1.6832
  327MOL0     H43156   4.135   3.429  10.035 -0.2553  1.4252 -1.6955
  327MOL0     H43157   3.983   3.464  10.112 -2.4066  0.6574 -2.1531
  327MOL0     H43158   3.983   3.193   9.964  2.3799  0.1786 -0.5774
  327MOL0     H43159   3.915   3.245  10.116 -0.2907  1.9283 -0.2471
  327MOL0     H43160   4.125   3.210  10.225  3.4281  0.4246 -0.6250
  327MOL0     H43161   4.097   3.067  10.130 -1.0520 -0.5666  1.9064
  327MOL0     H43162   4.440   3.200   9.948 -0.2662  0.8486 -1.6562
  327MOL0     H43163   3.966   3.582   9.670 -0.3350 -1.8667  3.5981
  327MOL0     H43164   3.848   3.724   9.501 -2.4255  0.0512 -0.7675
  328MOL0     O43165   0.568   1.948   2.926  0.9325  0.2682  0.4694
  328MOL0     C43166   0.524   2.059   2.909 -0.8397  0.0618  1.2447
  328MOL0     O43167   0.385   2.095   2.917  1.2342 -0.1742 -0.0526
  328MOL0     C43168   0.290   2.003   2.959  1.2794  0.9837 -0.0975
  328MOL0     C43169   0.295   1.924   3.076 -0.2591  0.4192 -0.1119
  328MOL0     C43170   0.185   1.864   3.126 -0.2069 -0.3003  0.0068
  328MOL0     C43171   0.065   1.865   3.059 -0.2389  0.3421  0.1391
  328MOL0     O43172  -0.033   1.784   3.113  0.1333  0.0460  0.4456
  328MOL0     C43173  -0.162   1.760   3.046  0.2622  0.1316 -0.1147
  328MOL0     C43174  -0.159   1.666   2.924 -0.3556 -0.7784 -0.0492
  328MOL0     C43175  -0.075   1.539   2.939 -0.0330 -0.9279 -0.6721
  328MOL0     C43176  -0.080   1.444   2.824  0.4924 -0.0232 -0.4881
  328MOL0     C43177  -0.218   1.389   2.775  0.1902 -0.2030  0.0569
  328MOL0     C43178  -0.293   1.310   2.883 -0.0995  0.1677  0.3730
  328MOL0     C43179  -0.410   1.230   2.815 -0.6617 -0.2528  1.6930
  328MOL0     C43180  -0.460   1.132   2.912  0.4130 -0.2167 -0.2490
  328MOL0     N43181  -0.583   1.068   2.878 -0.1721  0.8980 -0.9472
  328MOL0     C43182  -0.704   1.120   2.903  0.1055  0.0915  0.2136
  328MOL0     C43183  -0.791   1.046   2.825 -0.2278  0.0341  0.4114
  328MOL0     C43184  -0.943   1.077   2.821 -0.1135 -0.0716  0.1689
  328MOL0     C43185  -1.002   1.037   2.948  0.4830 -0.2904 -0.3803
  328MOL0     C43186  -1.053   0.879   2.936 -0.2538  0.5081  0.1012
  328MOL0     C43187  -1.102   0.815   3.062 -0.0461 -0.2881 -0.5186
  328MOL0     O43188  -1.223   0.882   3.100 -0.3263  0.1680 -0.2973
  328MOL0     C43189  -1.340   0.821   3.136  0.9146 -0.1253 -0.9295
  328MOL0     C43190  -1.358   0.685   3.157  0.6668 -0.1071  0.0678
  328MOL0     C43191  -1.488   0.631   3.199 -0.1404 -0.3302  0.1333
  328MOL0     C43192  -1.590   0.718   3.222 -0.1158 -0.0474 -0.0371
  328MOL0     C43193  -1.716   0.668   3.281 -0.0791 -0.6281  0.3773
  328MOL0     O43194  -1.731   0.538   3.314 -0.4246 -0.5802  0.6623
  328MOL0     C43195  -1.841   0.495   3.377 -0.5525  0.0750  1.2457
  328MOL0     C43196  -1.969   0.514   3.319  0.2821 -0.3292 -0.0462
  328MOL0     C43197  -2.081   0.460   3.383 -0.0410 -0.3993 -0.2255
  328MOL0     C43198  -2.062   0.391   3.502 -0.4695 -0.7121  0.5871
  328MOL0     O43199  -2.161   0.338   3.572 -0.2589 -0.0604 -0.9259
  328MOL0     C43200  -2.297   0.370   3.542 -0.1482  0.1163  0.2093
  328MOL0     C43201  -2.393   0.304   3.635  0.3823  0.0867  0.0425
  328MOL0     C43202  -2.410   0.378   3.763 -0.5921 -0.3413 -0.1545
  328MOL0     C43203  -2.492   0.313   3.876  0.1495 -0.3924  0.4908
  328MOL0     C43204  -2.489   0.388   4.003 -0.3641  0.6532 -0.3386
  328MOL0     C43205  -2.553   0.318   4.124  0.3405  0.1591  0.3555
  328MOL0     C43206  -2.539   0.411   4.242  0.1780 -0.0247 -0.1804
  328MOL0     C43207  -2.481   0.337   4.368 -0.1568 -1.0663  0.0381
  328MOL0    Cl43208  -2.541   0.416   4.514  0.1003  0.1060  0.4269
  328MOL0     C43209  -1.932   0.379   3.552  0.5695  0.6080 -0.6307
  328MOL0     C43210  -1.823   0.421   3.490  0.5926 -0.1836  0.0297
  328MOL0     O43211  -1.801   0.754   3.311  0.1685  0.8121  0.0180
  328MOL0     C43212  -1.566   0.850   3.202 -0.7455 -0.0487  0.1175
  328MOL0     C43213  -1.445   0.903   3.157 -0.3211  0.0665 -0.3104
  328MOL0     N43214  -0.721   0.951   2.755  0.1812 -0.2848 -0.4855
  328MOL0     N43215  -0.598   0.958   2.795  0.9101 -0.1252 -0.4922
  328MOL0     C43216   0.059   1.936   2.936 -0.5196  0.5153  0.3006
  328MOL0     C43217   0.158   2.014   2.898 -0.3740 -0.9496 -1.2018
  328MOL0     C43218   0.619   2.162   2.866  0.5433  0.2794 -0.2741
  328MOL0     C43219   0.572   2.278   2.809 -0.1913  0.5065  0.4418
  328MOL0     C43220   0.653   2.374   2.760 -0.1461  0.2143  0.0217
  328MOL0     C43221   0.794   2.357   2.773  0.9766  0.3440 -0.5337
  328MOL0     O43222   0.864   2.464   2.728  0.1639 -0.0274 -0.8349
  328MOL0     C43223   1.013   2.466   2.736  0.2974 -0.3166 -0.8511
  328MOL0     C43224   1.073   2.603   2.691 -0.3849 -0.0103  0.0019
  328MOL0     C43225   1.063   2.612   2.540  0.5399 -0.4623  1.1251
  328MOL0     C43226   1.122   2.753   2.502  0.5004 -0.1936  0.0650
  328MOL0     C43227   1.267   2.740   2.460  0.4786 -0.2843 -0.2171
  328MOL0     C43228   1.377   2.721   2.422  0.6052  0.3903  0.1308
  328MOL0     C43229   0.839   2.236   2.830 -0.6715  0.1177  0.3380
  328MOL0     C43230   0.754   2.144   2.879 -0.0085  0.6334  0.8432
  328MOL0     H43231   0.392   1.923   3.126 -0.2944  0.9683 -0.0233
  328MOL0     H43232   0.199   1.800   3.213 -0.9448 -0.8954 -0.3003
  328MOL0     H43233  -0.206   1.857   3.022 -1.3585 -1.2314 -3.3017
  328MOL0     H43234  -0.220   1.708   3.124  1.4523  1.1608  1.5162
  328MOL0     H43235  -0.131   1.718   2.831 -1.2424  0.1980  0.2133
  328MOL0     H43236  -0.264   1.642   2.906 -0.2417 -1.0299 -0.3872
  328MOL0     H43237  -0.113   1.491   3.029  1.6612 -1.4376 -0.1808
  328MOL0     H43238   0.025   1.577   2.965 -0.5274 -0.9060  1.3460
  328MOL0     H43239  -0.033   1.498   2.741  0.6736 -0.5419 -0.7300
  328MOL0     H43240  -0.021   1.354   2.843 -1.2225 -1.1503 -0.3146
  328MOL0     H43241  -0.202   1.341   2.679 -0.4317  1.2136 -0.7914
  328MOL0     H43242  -0.281   1.478   2.765 -1.7923 -1.4866  0.7301
  328MOL0     H43243  -0.328   1.386   2.953 -0.8739  0.0176  0.1504
  328MOL0     H43244  -0.221   1.241   2.928  1.2741 -0.5597 -2.6218
  328MOL0     H43245  -0.491   1.295   2.781 -1.4588 -2.1367 -0.2602
  328MOL0     H43246  -0.375   1.184   2.721 -0.7403  1.9561  0.5232
  328MOL0     H43247  -0.481   1.176   3.010 -3.7371 -1.9451 -0.1350
  328MOL0     H43248  -0.390   1.049   2.924  1.8855  1.2203  1.6464
  328MOL0     H43249  -0.725   1.214   2.952  0.1165  1.1835 -1.7634
  328MOL0     H43250  -0.983   1.019   2.738  0.9662 -2.0155  0.9429
  328MOL0     H43251  -0.957   1.185   2.805 -0.2614 -0.2361 -0.8742
  328MOL0     H43252  -1.089   1.097   2.975  0.0909 -0.5005 -1.1684
  328MOL0     H43253  -0.931   1.058   3.029  0.5649  1.1794 -0.8009
  328MOL0     H43254  -1.138   0.879   2.867 -1.2451  1.6932  1.2649
  328MOL0     H43255  -0.974   0.817   2.892  0.1195  1.1950 -0.2016
  328MOL0     H43256  -1.033   0.819   3.147  0.7372 -3.2182 -0.8971
  328MOL0     H43257  -1.118   0.708   3.046  0.7240 -0.6062  0.6868
  328MOL0     H43258  -1.281   0.613   3.131  1.5417  0.6425  0.5461
  328MOL0     H43259  -1.493   0.523   3.208  1.2884 -0.2341  3.4655
  328MOL0     H43260  -1.974   0.557   3.220  0.5991 -1.9029 -0.7768
  328MOL0     H43261  -2.177   0.484   3.337 -0.0503 -0.6503 -0.3385
  328MOL0     H43262  -2.307   0.332   3.440  0.3196 -0.0828  0.2346
  328MOL0     H43263  -2.327   0.475   3.546 -0.0803  0.3041 -2.6107
  328MOL0     H43264  -2.369   0.198   3.646 -0.7778 -0.3509 -1.4300
  328MOL0     H43265  -2.488   0.307   3.582  0.7404 -2.6942 -0.8970
  328MOL0     H43266  -2.439   0.480   3.738 -1.1018 -0.1370  1.1935
  328MOL0     H43267  -2.310   0.389   3.807 -0.4247  2.7116 -1.0839
  328MOL0     H43268  -2.593   0.307   3.833  0.3654  1.5170 -0.3631
  328MOL0     H43269  -2.468   0.208   3.899  0.1574 -0.2242  1.3043
  328MOL0     H43270  -2.538   0.484   3.982 -1.2049  0.4243  0.4881
  328MOL0     H43271  -2.385   0.398   4.034 -0.7132  0.1756  1.0520
  328MOL0     H43272  -2.503   0.225   4.150 -0.3226  0.1534  1.7016
  328MOL0     H43273  -2.658   0.292   4.107  0.7170 -2.0399  1.0464
  328MOL0     H43274  -2.487   0.506   4.230 -1.5494  1.0108  0.2070
  328MOL0     H43275  -2.643   0.440   4.259 -0.3560 -2.2430  0.7301
  328MOL0     H43276  -2.372   0.335   4.363 -0.1685 -1.7055 -0.0280
  328MOL0     H43277  -2.519   0.235   4.374 -0.9980 -0.7135  1.4508
  328MOL0     H43278  -1.933   0.317   3.641  1.6558  2.7929  0.9959
  328MOL0     H43279  -1.724   0.394   3.525  0.9686 -1.3107 -1.7868
  328MOL0     H43280  -1.633   0.935   3.210 -0.6263 -0.0890  1.9723
  328MOL0     H43281  -1.435   1.010   3.138  2.3581  0.5088  2.6012
  328MOL0     H43282  -0.033   1.935   2.879 -0.8677 -1.3110  0.8251
  328MOL0     H43283   0.143   2.097   2.830  0.3732 -0.0781 -0.3399
  328MOL0     H43284   0.468   2.299   2.786 -0.5053 -1.1251  0.2788
  328MOL0     H43285   0.606   2.466   2.727 -0.5425  0.2280  0.5907
  328MOL0     H43286   1.053   2.393   2.665  1.6373 -2.0000  1.5199
  328MOL0     H43287   1.035   2.441   2.840 -2.3942  1.1255  0.1715
  328MOL0     H43288   1.015   2.683   2.737 -1.3769 -0.9155  0.3787
  328MOL0     H43289   1.174   2.605   2.732 -0.4258 -0.5876  0.1368
  328MOL0     H43290   0.959   2.609   2.507  0.2552  2.4162  1.5162
  328MOL0     H43291   1.118   2.538   2.481 -1.6978 -0.1952 -1.4647
  328MOL0     H43292   1.066   2.791   2.416 -0.5370 -0.7717  0.4652
  328MOL0     H43293   1.131   2.817   2.590  0.6725 -0.7495  0.4618
  328MOL0     H43294   1.480   2.722   2.394  0.4896  3.8951 -0.5364
  328MOL0     H43295   0.945   2.215   2.842 -0.6468 -0.2687 -0.5081
  328MOL0     H43296   0.781   2.049   2.924 -1.1070 -1.1732 -2.0637
  329MOL0     O43297   4.516   9.100   1.172  0.1805  0.5865 -0.7653
  329MOL0     C43298   4.591   9.149   1.088 -1.1953 -1.2541 -0.1584
  329MOL0     O43299   4.556   9.217   0.980  0.7055 -0.1183  0.2053
  329MOL0     C43300   4.423   9.242   0.956 -0.0193 -0.2121  0.6047
  329MOL0     C43301   4.399   9.359   0.893  0.3622  0.2052 -0.1876
  329MOL0     C43302   4.263   9.399   0.862  0.3459 -0.5930 -0.3129
  329MOL0     C43303   4.151   9.313   0.886 -1.0169  0.9153  0.0787
  329MOL0     O43304   4.023   9.349   0.875  0.4895 -0.1313 -0.5322
  329MOL0     C43305   3.996   9.432   0.762  0.2289 -0.2223 -0.0113
  329MOL0     C43306   3.848   9.464   0.757  0.0399  0.3628 -0.3195
  329MOL0     C43307   3.754   9.344   0.726  0.8471  0.6057  0.6087
  329MOL0     C43308   3.613   9.380   0.700  0.8088 -0.4198  0.6963
  329MOL0     C43309   3.514   9.309   0.796 -1.1482 -0.7682 -0.4875
  329MOL0     C43310   3.370   9.366   0.787 -0.0168  0.0050 -0.5515
  329MOL0     C43311   3.291   9.319   0.670  0.3536  0.3174 -0.3434
  329MOL0     C43312   3.156   9.401   0.672 -0.0321 -0.2378  0.4900
  329MOL0     N43313   3.048   9.341   0.585  0.3454  0.1900  0.6157
  329MOL0     C43314   2.992   9.220   0.617  0.1404 -0.4232  0.3977
  329MOL0     C43315   2.889   9.204   0.531  0.3060  0.5597  1.0997
  329MOL0     C43316   2.806   9.072   0.517  0.0906  0.1830 -0.2365
  329MOL0     C43317   2.661   9.100   0.488  0.7477  0.3856 -0.2004
  329MOL0     C43318   2.588   8.961   0.509  0.0620  0.2383  0.0850
  329MOL0     C43319   2.439   8.985   0.498 -0.4976 -0.0257  0.5806
  329MOL0     O43320   2.369   8.860   0.494 -0.1419 -0.0391  0.0846
  329MOL0     C43321   2.236   8.864   0.480  0.5737 -0.6064  0.5596
  329MOL0     C43322   2.160   8.762   0.539 -0.2547 -0.6546 -0.6398
  329MOL0     C43323   2.022   8.751   0.520  0.0927  0.0791  0.6077
  329MOL0     C43324   1.956   8.855   0.455 -0.2496  0.1525 -0.4625
  329MOL0     C43325   1.805   8.842   0.455 -0.3327 -0.2963  0.3053
  329MOL0     O43326   1.756   8.720   0.500 -0.1185 -0.4971 -0.3393
  329MOL0     C43327   1.627   8.688   0.508 -0.1625  0.0704  0.5450
  329MOL0     C43328   1.521   8.773   0.509  1.2686 -0.7207  0.1917
  329MOL0     C43329   1.390   8.729   0.507  0.2283 -0.0948  0.1534
  329MOL0     C43330   1.361   8.595   0.498 -0.0224  1.4434  0.3463
  329MOL0     O43331   1.233   8.551   0.478  0.1329  0.0518  0.0724
  329MOL0     C43332   1.203   8.404   0.474  0.2228  0.0564  0.0162
  329MOL0     C43333   1.060   8.382   0.426  0.7227 -0.0525 -0.3991
  329MOL0     C43334   0.960   8.395   0.542  0.0732  0.2382  0.2251
  329MOL0     C43335   0.818   8.355   0.500  0.1398 -0.1534  0.2985
  329MOL0     C43336   0.707   8.392   0.600 -0.5053  0.1098  0.4183
  329MOL0     C43337   0.595   8.280   0.594  0.0460 -0.3870  0.2084
  329MOL0     C43338   0.467   8.324   0.660  1.2113  0.5219 -0.2959
  329MOL0     C43339   0.366   8.214   0.673 -1.0041  0.2487 -0.2507
  329MOL0    Cl43340   0.211   8.276   0.739  0.1538  0.3311  0.2265
  329MOL0     C43341   1.471   8.505   0.504 -0.1365  0.7490  0.3546
  329MOL0     C43342   1.598   8.554   0.500 -0.2907 -0.2768 -0.2749
  329MOL0     O43343   1.744   8.933   0.397  0.5873  0.1350  0.1511
  329MOL0     C43344   2.019   8.969   0.407 -0.5066 -0.0632 -0.3360
  329MOL0     C43345   2.159   8.970   0.417 -0.2299 -0.2195  0.9526
  329MOL0     N43346   2.898   9.302   0.437 -0.2386 -0.9707 -0.5496
  329MOL0     N43347   2.981   9.396   0.478 -0.3665  0.5883 -0.5181
  329MOL0     C43348   4.179   9.187   0.939  1.0594 -1.2567  0.0984
  329MOL0     C43349   4.310   9.157   0.975  0.2414  0.0753 -0.2559
  329MOL0     C43350   4.739   9.119   1.093 -0.9036 -0.1247  0.0213
  329MOL0     C43351   4.835   9.216   1.064 -1.2450  0.7679 -0.0721
  329MOL0     C43352   4.976   9.183   1.066  0.5104 -0.4665  0.5825
  329MOL0     C43353   5.011   9.059   1.118 -0.4907 -0.0791  0.2955
  329MOL0     O43354   5.139   8.997   1.110 -0.1674  0.2601  0.0849
  329MOL0     C43355   5.249   9.073   1.050 -0.2588 -0.5671  0.0210
  329MOL0     C43356   5.350   8.981   0.998 -0.1578  0.2326  0.1015
  329MOL0     C43357   5.472   9.048   0.937  0.2351 -0.6171  0.1190
  329MOL0     C43358   5.579   8.944   0.892  0.0980  0.1465  0.3176
  329MOL0     C43359   5.670   8.902   1.002  0.6238 -0.3813  0.4419
  329MOL0     C43360   5.748   8.878   1.096 -0.2040  0.5363 -0.0875
  329MOL0     C43361   4.913   8.970   1.141  0.3138  0.0220  0.1760
  329MOL0     C43362   4.779   8.994   1.133  0.1135 -0.8194  0.8399
  329MOL0     H43363   4.483   9.425   0.872  2.0080 -2.0037 -1.0603
  329MOL0     H43364   4.256   9.493   0.807 -1.4613 -0.8821 -0.6295
  329MOL0     H43365   4.018   9.370   0.674  1.0105  1.4115 -0.9937
  329MOL0     H43366   4.063   9.518   0.763  0.1593 -0.1553 -0.6959
  329MOL0     H43367   3.838   9.549   0.688 -0.5013 -0.6757 -1.5594
  329MOL0     H43368   3.823   9.501   0.857 -1.8117  2.5448 -1.4879
  329MOL0     H43369   3.767   9.258   0.792  0.8431 -0.1953 -0.4068
  329MOL0     H43370   3.793   9.302   0.632 -1.1166  0.7205 -0.3135
  329MOL0     H43371   3.591   9.487   0.706 -0.6057 -0.6260 -0.4253
  329MOL0     H43372   3.598   9.345   0.597  3.9710  1.0665 -0.4148
  329MOL0     H43373   3.536   9.325   0.901 -2.3757  0.9087 -0.4570
  329MOL0     H43374   3.522   9.199   0.797  1.8319 -0.6610  1.8534
  329MOL0     H43375   3.383   9.474   0.797 -0.5344 -0.0138  0.4125
  329MOL0     H43376   3.315   9.329   0.874 -0.3048 -1.3627 -1.2829
  329MOL0     H43377   3.336   9.351   0.576 -1.4628  2.8802 -0.4550
  329MOL0     H43378   3.285   9.210   0.678  1.0769 -0.2503 -5.0192
  329MOL0     H43379   3.166   9.507   0.646 -2.4538 -0.6255 -2.7331
  329MOL0     H43380   3.121   9.403   0.775  1.9737 -3.6521  1.3932
  329MOL0     H43381   3.026   9.163   0.703 -2.2345  0.0335  1.7249
  329MOL0     H43382   2.821   9.001   0.598  1.6023 -1.3237 -1.7717
  329MOL0     H43383   2.838   9.013   0.431 -0.6476 -1.2689  0.4540
  329MOL0     H43384   2.651   9.135   0.385  1.5033 -2.3908 -1.3125
  329MOL0     H43385   2.617   9.174   0.554 -0.7174 -3.0402  3.0302
  329MOL0     H43386   2.625   8.890   0.434 -0.6259 -0.0378 -0.0027
  329MOL0     H43387   2.606   8.911   0.605  0.5807 -0.4211 -0.3476
  329MOL0     H43388   2.421   9.044   0.407 -1.3641  1.5055  1.6950
  329MOL0     H43389   2.413   9.047   0.584  1.1034  1.2406  0.2002
  329MOL0     H43390   2.210   8.682   0.592 -1.2581 -0.1885  1.0719
  329MOL0     H43391   1.972   8.666   0.566 -1.3560  0.6468  0.1054
  329MOL0     H43392   1.539   8.878   0.532  3.2532 -0.4841 -2.0930
  329MOL0     H43393   1.305   8.795   0.522 -0.2238 -0.7760  0.6547
  329MOL0     H43394   1.235   8.355   0.566  0.1910  0.4707  0.2546
  329MOL0     H43395   1.274   8.364   0.401  4.4664  0.8073  3.3101
  329MOL0     H43396   1.052   8.276   0.397 -1.5817 -0.5367  1.6377
  329MOL0     H43397   1.038   8.452   0.346 -0.7591 -2.4171 -2.2000
  329MOL0     H43398   0.968   8.500   0.570  2.4003  0.0896  0.2930
  329MOL0     H43399   0.981   8.328   0.626 -1.3763  2.3394  2.3916
  329MOL0     H43400   0.791   8.396   0.403  0.1709  0.1132  0.4009
  329MOL0     H43401   0.820   8.245   0.503  2.7392 -0.1462  1.8136
  329MOL0     H43402   0.669   8.493   0.580  2.2484  0.8712 -1.6588
  329MOL0     H43403   0.737   8.402   0.704 -0.1554  3.2361  0.1150
  329MOL0     H43404   0.647   8.198   0.645 -0.0884  0.8472  2.4074
  329MOL0     H43405   0.579   8.252   0.489 -1.0354  2.1075 -0.3670
  329MOL0     H43406   0.496   8.362   0.758 -0.4597  2.0124 -0.3419
  329MOL0     H43407   0.426   8.402   0.596  2.5413 -0.0261 -1.8881
  329MOL0     H43408   0.402   8.140   0.746 -2.2738 -1.2735 -1.1208
  329MOL0     H43409   0.343   8.170   0.576  1.7239  3.2625 -2.4991
  329MOL0     H43410   1.457   8.397   0.499 -2.0122  0.9857 -0.4112
  329MOL0     H43411   1.670   8.474   0.506  0.7636  0.6608 -0.1851
  329MOL0     H43412   1.967   9.045   0.349  1.5135  1.1093 -0.7206
  329MOL0     H43413   2.210   9.053   0.368  2.8201 -1.6026  1.6068
  329MOL0     H43414   4.094   9.126   0.969  0.5467 -1.0676 -0.9140
  329MOL0     H43415   4.339   9.065   1.023  3.5549 -0.5575 -3.0123
  329MOL0     H43416   4.802   9.311   1.026  0.1505  1.1453 -0.4023
  329MOL0     H43417   5.043   9.259   1.027  0.8732 -0.2177  1.6635
  329MOL0     H43418   5.292   9.135   1.129 -2.2683  1.9355 -0.7538
  329MOL0     H43419   5.212   9.118   0.957  0.5389 -5.9721 -3.4291
  329MOL0     H43420   5.379   8.904   1.070  2.6579 -1.2944 -2.4184
  329MOL0     H43421   5.303   8.922   0.919  2.2474  2.3348 -3.1450
  329MOL0     H43422   5.508   9.126   1.005  3.6125 -1.5973 -0.3665
  329MOL0     H43423   5.434   9.111   0.856 -0.9877  3.1086  3.3041
  329MOL0     H43424   5.539   8.855   0.844  2.9210  1.6207 -5.6108
  329MOL0     H43425   5.642   8.984   0.813 -2.7876  0.6846 -1.8746
  329MOL0     H43426   5.822   8.874   1.173  0.5393  1.6976 -0.7097
  329MOL0     H43427   4.945   8.868   1.160  0.3287  0.2973  1.7301
  329MOL0     H43428   4.714   8.909   1.150  0.0825 -0.8666  0.4881
  330MOL0     O43429   1.124   3.940  10.866 -0.3888 -0.4509 -0.2426
  330MOL0     C43430   1.096   3.827  10.897  0.3784  0.1332  0.4239
  330MOL0     O43431   0.971   3.775  10.898  0.4955 -0.1271  0.1572
  330MOL0     C43432   0.855   3.838  10.853  0.1663  0.0451  0.5325
  330MOL0     C43433   0.818   3.973  10.865  0.4003  0.2748 -0.7869
  330MOL0     C43434   0.700   4.018  10.807 -0.9264 -0.4220  1.3317
  330MOL0     C43435   0.619   3.936  10.734  0.2281  0.5089  0.3737
  330MOL0     O43436   0.496   3.968  10.680 -0.9027  0.1652 -0.2369
  330MOL0     C43437   0.422   4.073  10.742 -0.7410 -0.4069 -0.0460
  330MOL0     C43438   0.277   4.024  10.756 -0.5137 -0.7461 -0.4976
  330MOL0     C43439   0.189   4.109  10.851 -0.4247 -0.2556  0.6681
  330MOL0     C43440   0.040   4.079  10.825  0.0193  0.0593  0.2055
  330MOL0     C43441  -0.016   3.954  10.891  0.3903  0.5826  0.5581
  330MOL0     C43442  -0.167   3.936  10.884 -0.3784 -0.3456 -0.1259
  330MOL0     C43443  -0.262   4.037  10.962 -0.1367 -0.2292  0.0473
  330MOL0     C43444  -0.413   4.028  10.920 -0.2091  0.2660 -0.7728
  330MOL0     N43445  -0.482   4.134  10.991 -0.1302 -0.4208  0.0388
  330MOL0     C43446  -0.483   4.270  10.941  0.2557  0.2590 -0.1239
  330MOL0     C43447  -0.589   4.320  11.005 -0.1366  0.4534  0.3106
  330MOL0     C43448  -0.639   4.463  10.999 -0.7619  0.6219  0.8922
  330MOL0     C43449  -0.606   4.555  11.120 -0.2853  0.6532  0.7079
  330MOL0     C43450  -0.456   4.586  11.135 -0.4195  0.7216  0.2887
  330MOL0     C43451  -0.370   4.595  11.006  0.4099  0.5330 -0.2733
  330MOL0     O43452  -0.257   4.686  11.023  0.7803  0.9024 -0.1052
  330MOL0     C43453  -0.138   4.611  11.029 -0.4651 -1.0575  0.1510
  330MOL0     C43454  -0.114   4.476  11.063  0.1530 -0.3460  0.5851
  330MOL0     C43455   0.015   4.415  11.055  0.6485 -0.1751 -0.6364
  330MOL0     C43456   0.132   4.497  11.030  0.8629  0.4592  0.1942
  330MOL0     C43457   0.266   4.448  11.016  1.1723  0.8139 -0.1444
  330MOL0     O43458   0.343   4.507  10.932  0.4815 -0.1084  0.6489
  330MOL0     C43459   0.472   4.452  10.906 -0.2651  0.0524 -0.1328
  330MOL0     C43460   0.507   4.427  10.773 -0.5472  0.0965  0.3267
  330MOL0     C43461   0.647   4.402  10.741 -0.6568 -0.1006  0.2068
  330MOL0     C43462   0.745   4.402  10.843 -0.3526 -0.2612 -0.3737
  330MOL0     O43463   0.877   4.387  10.800 -0.3296  0.2826  0.1085
  330MOL0     C43464   0.983   4.388  10.891  0.2531  0.0001 -0.5336
  330MOL0     C43465   1.087   4.302  10.817  0.3546  0.1879  0.3824
  330MOL0     C43466   1.215   4.326  10.894  0.2665 -0.5124 -0.5201
  330MOL0     C43467   1.320   4.224  10.849  0.3809  0.5461  0.6639
  330MOL0     C43468   1.465   4.257  10.880 -0.2962 -0.2845 -0.3974
  330MOL0     C43469   1.568   4.162  10.822 -0.3743 -0.7229 -0.2573
  330MOL0     C43470   1.583   4.188  10.680 -2.1482  0.1069  0.3362
  330MOL0     C43471   1.693   4.092  10.617  0.2750  0.3674 -0.1073
  330MOL0    Cl43472   1.707   4.108  10.432  0.1229  0.0793  0.1484
  330MOL0     C43473   0.702   4.414  10.979  0.3076  0.6871 -0.1878
  330MOL0     C43474   0.568   4.436  11.008  0.8624 -0.8982  0.2674
  330MOL0     O43475   0.291   4.351  11.084  0.0252 -0.4419 -0.8179
  330MOL0     C43476   0.105   4.642  11.013 -0.6125  0.4748 -0.1794
  330MOL0     C43477  -0.022   4.689  11.010 -0.7750  0.5174  0.0837
  330MOL0     N43478  -0.653   4.220  11.075  0.2483  0.2858 -0.2484
  330MOL0     N43479  -0.583   4.110  11.073  0.6378 -0.1502  0.1662
  330MOL0     C43480   0.653   3.801  10.725  0.5214 -0.2583  0.5476
  330MOL0     C43481   0.772   3.752  10.780  0.3450 -0.5861  0.4155
  330MOL0     C43482   1.205   3.733  10.910 -0.3717  0.3612 -0.4231
  330MOL0     C43483   1.175   3.595  10.931 -0.8396 -0.4492  0.4796
  330MOL0     C43484   1.273   3.504  10.934 -0.4716  0.6178  0.3945
  330MOL0     C43485   1.405   3.539  10.926 -0.7875  0.2435  0.2324
  330MOL0     O43486   1.497   3.443  10.954 -0.2827 -0.3256  0.3665
  330MOL0     C43487   1.496   3.325  10.865 -0.7060  0.0744 -0.2554
  330MOL0     C43488   1.641   3.263  10.858  0.7399  0.4017 -0.3810
  330MOL0     C43489   1.732   3.355  10.779  0.2832 -0.6588  0.4017
  330MOL0     C43490   1.878   3.352  10.817  0.6057  0.5705 -0.3103
  330MOL0     C43491   1.970   3.414  10.730 -0.1925 -0.6419 -0.2895
  330MOL0     C43492   2.072   3.456  10.673 -0.2936 -0.9490 -0.0171
  330MOL0     C43493   1.441   3.662  10.903 -0.8837  0.0047  0.1278
  330MOL0     C43494   1.341   3.762  10.893 -0.7187  0.0105 -0.3483
  330MOL0     H43495   0.877   4.045  10.920 -0.0809  1.2556 -1.5187
  330MOL0     H43496   0.673   4.123  10.803 -1.9772 -0.7017  0.7724
  330MOL0     H43497   0.423   4.162  10.678  1.8503  0.6219  1.2544
  330MOL0     H43498   0.464   4.110  10.836 -0.7450  1.6737 -0.8127
  330MOL0     H43499   0.272   3.920  10.792 -0.3988 -0.5346  0.1321
  330MOL0     H43500   0.230   4.025  10.657 -2.4039 -0.2261  0.3762
  330MOL0     H43501   0.196   4.214  10.823  0.0477 -0.8845 -1.8561
  330MOL0     H43502   0.212   4.083  10.955 -0.2776 -0.2742  0.6310
  330MOL0     H43503  -0.023   4.162  10.860  0.5214  0.0494  1.1487
  330MOL0     H43504   0.036   4.080  10.715  0.1700 -0.2859  0.1969
  330MOL0     H43505   0.004   3.947  10.999  0.2812 -0.7405  0.5041
  330MOL0     H43506   0.022   3.860  10.851  1.7410  0.5405  1.8560
  330MOL0     H43507  -0.205   3.835  10.901 -2.6821 -0.2722 -3.7347
  330MOL0     H43508  -0.184   3.962  10.779  0.5640 -0.7310 -0.3813
  330MOL0     H43509  -0.267   4.028  11.071 -1.3304 -0.5081 -0.0172
  330MOL0     H43510  -0.234   4.139  10.936  0.2430  0.4517  2.8133
  330MOL0     H43511  -0.445   3.928  10.952 -0.1903  0.9599  1.5113
  330MOL0     H43512  -0.409   4.039  10.811  3.3725  0.7336 -0.7340
  330MOL0     H43513  -0.419   4.329  10.875 -1.7206  1.3204 -1.1870
  330MOL0     H43514  -0.748   4.455  10.992 -0.6887 -0.4499  0.8119
  330MOL0     H43515  -0.595   4.507  10.909 -1.9657  1.0021  0.4582
  330MOL0     H43516  -0.649   4.507  11.208  1.4941  1.1669  1.9176
  330MOL0     H43517  -0.660   4.649  11.106 -1.9114 -0.3686 -0.2221
  330MOL0     H43518  -0.462   4.677  11.196  2.6560 -1.8316  5.1101
  330MOL0     H43519  -0.411   4.520  11.210 -0.2346  0.2735 -0.2112
  330MOL0     H43520  -0.436   4.646  10.934 -3.0676 -0.3830  2.0038
  330MOL0     H43521  -0.345   4.498  10.962  0.5774  1.2416 -1.8138
  330MOL0     H43522  -0.192   4.404  11.088  1.5567 -0.8010  4.3675
  330MOL0     H43523   0.020   4.308  11.077  0.9113 -0.1716 -0.6804
  330MOL0     H43524   0.452   4.444  10.681  0.6730  1.6688 -0.1771
  330MOL0     H43525   0.675   4.395  10.637 -1.6906  0.6449 -0.1349
  330MOL0     H43526   0.947   4.345  10.986  0.6048  0.0592 -0.3725
  330MOL0     H43527   1.009   4.493  10.907 -0.2814 -0.2714  3.1286
  330MOL0     H43528   1.097   4.320  10.709 -0.4532 -1.9810 -0.1247
  330MOL0     H43529   1.047   4.200  10.822 -1.0733  0.5785 -1.6937
  330MOL0     H43530   1.200   4.313  11.002  0.2947  1.2110 -0.2748
  330MOL0     H43531   1.244   4.432  10.891 -0.6346 -0.2690 -0.6494
  330MOL0     H43532   1.288   4.130  10.896 -4.0887  1.6829  0.3413
  330MOL0     H43533   1.302   4.218  10.741 -2.5724  0.7679  1.0606
  330MOL0     H43534   1.461   4.250  10.990 -2.1033 -2.2789 -0.5157
  330MOL0     H43535   1.479   4.358  10.841  0.2353 -1.4222 -3.3730
  330MOL0     H43536   1.525   4.062  10.836 -1.3988 -0.1502  0.9342
  330MOL0     H43537   1.665   4.158  10.871  0.5851 -1.5843 -2.1303
  330MOL0     H43538   1.489   4.175  10.625 -1.3291 -0.8598 -0.9080
  330MOL0     H43539   1.610   4.291  10.658 -4.0044  1.2581  2.9419
  330MOL0     H43540   1.662   3.989  10.636 -1.9401  1.2643  1.5378
  330MOL0     H43541   1.787   4.113  10.668  0.3562  2.1038 -0.8979
  330MOL0     H43542   0.769   4.412  11.064  1.1400  1.2305 -0.8231
  330MOL0     H43543   0.525   4.456  11.106 -2.8844  0.9546 -1.5529
  330MOL0     H43544   0.186   4.713  11.000  2.5422 -2.6569  0.5475
  330MOL0     H43545  -0.033   4.796  10.998  1.1315  0.6513 -0.7030
  330MOL0     H43546   0.580   3.734  10.680  1.2684  0.3223 -1.6808
  330MOL0     H43547   0.808   3.655  10.748  1.6140 -0.1551  0.4541
  330MOL0     H43548   1.074   3.560  10.949 -0.0723 -2.5443  0.9776
  330MOL0     H43549   1.248   3.400  10.951 -1.6704  0.7372 -0.4982
  330MOL0     H43550   1.455   3.352  10.767  0.2088 -0.2630 -0.7393
  330MOL0     H43551   1.427   3.248  10.899  1.4005 -2.4474 -1.3230
  330MOL0     H43552   1.675   3.249  10.961  1.8790  0.5947 -0.7201
  330MOL0     H43553   1.645   3.165  10.810  1.6425  0.6002 -0.7359
  330MOL0     H43554   1.702   3.453  10.817  1.3394 -0.0098 -0.4091
  330MOL0     H43555   1.725   3.330  10.673  2.4155 -0.6327  0.2248
  330MOL0     H43556   1.881   3.395  10.918 -3.4618 -0.2037  0.2940
  330MOL0     H43557   1.911   3.250  10.841  0.2243  0.8841  1.8078
  330MOL0     H43558   2.148   3.491  10.605  1.5026 -1.5374  1.5797
  330MOL0     H43559   1.547   3.683  10.898 -0.8813  0.0757  0.4753
  330MOL0     H43560   1.366   3.867  10.883  1.2456 -0.2694  1.1962
  331MOL0     O43561   1.085   8.161   1.416 -0.2956 -0.2549  0.0897
  331MOL0     C43562   1.183   8.099   1.467  0.5382  0.1544  0.0928
  331MOL0     O43563   1.172   8.001   1.563  0.3722  0.1488 -0.2440
  331MOL0     C43564   1.043   7.956   1.601 -0.1103 -1.0914  0.0808
  331MOL0     C43565   0.971   7.868   1.521 -0.0397 -0.1880 -0.5888
  331MOL0     C43566   0.844   7.817   1.562 -0.0335  0.2498 -0.1880
  331MOL0     C43567   0.796   7.852   1.692 -0.3156 -0.1799  0.9956
  331MOL0     O43568   0.686   7.798   1.749 -0.3245  0.3542 -0.2327
  331MOL0     C43569   0.563   7.863   1.720 -0.1906 -0.2900 -0.3748
  331MOL0     C43570   0.457   7.797   1.811  0.1435  0.1282 -0.3412
  331MOL0     C43571   0.399   7.892   1.921 -0.5011 -0.0878 -0.4419
  331MOL0     C43572   0.339   7.818   2.033 -0.0898 -0.3939 -0.1360
  331MOL0     C43573   0.215   7.891   2.094  0.3206  0.4691 -0.1458
  331MOL0     C43574   0.143   7.792   2.204 -0.6198 -0.0432 -0.2865
  331MOL0     C43575   0.205   7.814   2.346 -0.7869 -0.1857  0.1026
  331MOL0     C43576   0.118   7.762   2.458  0.0073  0.1695 -0.3220
  331MOL0     N43577  -0.021   7.809   2.447  0.3204 -0.2875 -1.3363
  331MOL0     C43578  -0.070   7.941   2.471 -0.3228 -0.3549 -0.5860
  331MOL0     C43579  -0.202   7.930   2.487  1.5059  0.7597 -0.3579
  331MOL0     C43580  -0.302   8.044   2.512 -0.1257  0.3183  0.5787
  331MOL0     C43581  -0.435   8.000   2.576  1.0444  0.1414  0.3515
  331MOL0     C43582  -0.552   8.097   2.555 -0.5076  1.4715  0.2504
  331MOL0     C43583  -0.680   8.021   2.577  0.1351 -0.4988  0.4926
  331MOL0     O43584  -0.776   8.131   2.564 -0.2270 -0.3272 -0.6446
  331MOL0     C43585  -0.899   8.103   2.585  0.0524 -0.2031 -0.0987
  331MOL0     C43586  -0.979   8.210   2.616 -0.3165  0.5774  0.0737
  331MOL0     C43587  -1.113   8.188   2.657  0.2665 -0.0739 -0.0974
  331MOL0     C43588  -1.168   8.056   2.674  0.2849 -0.1842 -0.0080
  331MOL0     C43589  -1.311   8.050   2.721 -0.0383 -0.7691  0.5555
  331MOL0     O43590  -1.362   8.169   2.749 -0.1489  0.4475 -0.4859
  331MOL0     C43591  -1.482   8.182   2.808 -0.6417 -0.3704 -0.4075
  331MOL0     C43592  -1.485   8.231   2.941  0.2966 -0.0554 -0.5551
  331MOL0     C43593  -1.611   8.243   3.010 -0.5309  0.6856  0.4002
  331MOL0     C43594  -1.720   8.235   2.931  0.3060  1.0424 -0.9452
  331MOL0     O43595  -1.845   8.266   2.981 -0.4140  0.5836  0.2588
  331MOL0     C43596  -1.894   8.184   3.087 -0.6448  0.5158 -0.1669
  331MOL0     C43597  -1.978   8.280   3.166  0.8174 -0.7541  0.1178
  331MOL0     C43598  -1.911   8.406   3.217 -0.1262 -0.2261 -0.0138
  331MOL0     C43599  -2.008   8.474   3.312 -0.6614  0.2577 -0.3423
  331MOL0     C43600  -1.960   8.601   3.386 -0.0281  0.2144 -0.1298
  331MOL0     C43601  -2.047   8.626   3.503 -0.3534 -0.1700 -0.2282
  331MOL0     C43602  -2.038   8.777   3.548  0.2052 -0.5032  0.8874
  331MOL0     C43603  -2.093   8.792   3.688 -0.1858 -0.0288  0.6955
  331MOL0    Cl43604  -1.991   8.693   3.807 -0.2114 -0.1819 -0.1127
  331MOL0     C43605  -1.720   8.184   2.802  0.0882 -0.6209 -0.1687
  331MOL0     C43606  -1.596   8.152   2.737 -0.4863 -0.7520  0.0097
  331MOL0     O43607  -1.370   7.947   2.737 -0.2334  0.4638  0.0291
  331MOL0     C43608  -1.090   7.948   2.640 -0.3202 -0.3237 -0.6365
  331MOL0     C43609  -0.957   7.975   2.594 -0.4391  0.5140 -0.4161
  331MOL0     N43610  -0.237   7.789   2.480  0.3206 -0.1370 -0.3051
  331MOL0     N43611  -0.127   7.726   2.454  1.2447  0.6606  0.6974
  331MOL0     C43612   0.869   7.941   1.767  0.4128  0.0802 -0.1809
  331MOL0     C43613   0.997   7.979   1.730 -0.2372  0.2345  0.8396
  331MOL0     C43614   1.319   8.136   1.433 -0.4065 -0.3423  0.3777
  331MOL0     C43615   1.332   8.235   1.339 -0.3461 -0.1962  0.2924
  331MOL0     C43616   1.461   8.280   1.305  0.2977 -0.1145 -0.0179
  331MOL0     C43617   1.582   8.221   1.352  0.2434 -0.3705 -0.5004
  331MOL0     O43618   1.705   8.281   1.327  0.1741  0.6004 -0.9978
  331MOL0     C43619   1.718   8.310   1.190 -1.1666 -0.8376 -0.0205
  331MOL0     C43620   1.863   8.333   1.147 -0.1219 -0.8473 -0.2626
  331MOL0     C43621   1.941   8.199   1.161 -0.1982  0.4927 -0.0005
  331MOL0     C43622   1.917   8.114   1.032  0.2800 -0.6196 -0.4999
  331MOL0     C43623   2.010   8.003   1.040  0.3578  0.8282  0.8501
  331MOL0     C43624   2.080   7.901   1.044 -0.2736  0.1760 -0.3609
  331MOL0     C43625   1.562   8.115   1.442  0.8043  0.0184 -0.2609
  331MOL0     C43626   1.432   8.068   1.477 -0.0944 -0.0480 -0.7210
  331MOL0     H43627   1.013   7.846   1.423 -0.4261 -0.1947 -0.7546
  331MOL0     H43628   0.785   7.748   1.503  0.6152 -1.9608  1.6319
  331MOL0     H43629   0.527   7.844   1.618 -0.4284 -2.9785  0.1457
  331MOL0     H43630   0.573   7.968   1.748  2.7843 -0.4479 -0.5987
  331MOL0     H43631   0.501   7.711   1.863  0.3447  0.4763  0.0655
  331MOL0     H43632   0.365   7.767   1.760 -1.7152  4.8402 -0.2123
  331MOL0     H43633   0.333   7.968   1.879  1.1441  1.7705  0.2197
  331MOL0     H43634   0.483   7.948   1.962  0.4730 -1.7099 -0.1086
  331MOL0     H43635   0.307   7.719   2.001 -0.3347 -0.3145 -0.1392
  331MOL0     H43636   0.408   7.817   2.118 -2.7371  2.1027  2.2832
  331MOL0     H43637   0.147   7.925   2.015 -0.9689  3.3437  2.0286
  331MOL0     H43638   0.239   7.984   2.146 -2.3548  1.4806 -0.5556
  331MOL0     H43639   0.157   7.687   2.178  1.2249  0.4941 -1.5982
  331MOL0     H43640   0.038   7.822   2.199 -0.0035  2.0087 -2.9012
  331MOL0     H43641   0.308   7.777   2.345 -0.5211  0.3737 -2.9475
  331MOL0     H43642   0.215   7.920   2.368  1.2276 -0.4301  0.5155
  331MOL0     H43643   0.153   7.796   2.556 -0.4658 -0.0527 -0.0705
  331MOL0     H43644   0.122   7.653   2.460  0.4779  0.1909  0.1751
  331MOL0     H43645  -0.016   8.034   2.458 -0.0316 -0.3562  0.4535
  331MOL0     H43646  -0.323   8.084   2.413 -1.1067  0.4173  0.8172
  331MOL0     H43647  -0.253   8.122   2.572  1.0187 -0.8733  1.2552
  331MOL0     H43648  -0.428   7.980   2.684 -4.8329 -2.4331  0.6745
  331MOL0     H43649  -0.462   7.904   2.529 -4.5348  0.9879  1.0786
  331MOL0     H43650  -0.532   8.172   2.633  1.6757  0.8427  0.3516
  331MOL0     H43651  -0.545   8.161   2.466  3.0480  0.7852 -0.0953
  331MOL0     H43652  -0.670   7.969   2.672  2.2951  1.5552  1.4842
  331MOL0     H43653  -0.698   7.941   2.504  1.4738  0.9343 -1.5332
  331MOL0     H43654  -0.948   8.314   2.610  3.0458 -0.3900 -4.0649
  331MOL0     H43655  -1.176   8.274   2.677 -0.6602  0.6505 -4.8226
  331MOL0     H43656  -1.394   8.274   2.982  0.5324 -0.5090 -0.6000
  331MOL0     H43657  -1.607   8.281   3.111  0.8355 -0.8635  0.9753
  331MOL0     H43658  -1.815   8.146   3.153  0.0183 -0.0656 -1.2439
  331MOL0     H43659  -1.951   8.100   3.045  1.3945 -1.4048  0.6467
  331MOL0     H43660  -2.006   8.225   3.257 -0.1538  1.7277  1.4079
  331MOL0     H43661  -2.069   8.304   3.110  1.8782 -0.7339 -1.6792
  331MOL0     H43662  -1.889   8.471   3.131  0.2377 -1.0867 -0.5870
  331MOL0     H43663  -1.815   8.381   3.263  1.1092  0.9723 -1.8012
  331MOL0     H43664  -2.101   8.497   3.260 -0.7903  0.3511 -0.0688
  331MOL0     H43665  -2.018   8.399   3.391  2.6592 -0.4470 -0.4295
  331MOL0     H43666  -1.958   8.688   3.319  3.5830  1.8416  1.7758
  331MOL0     H43667  -1.857   8.596   3.422  0.2603 -0.4364 -1.0109
  331MOL0     H43668  -2.012   8.569   3.589  0.8161  2.1954  0.9510
  331MOL0     H43669  -2.152   8.598   3.488 -0.3367 -1.4432  1.6584
  331MOL0     H43670  -1.936   8.817   3.555 -0.3131  0.6444  2.7348
  331MOL0     H43671  -2.105   8.832   3.482 -3.2703 -0.8552  3.7922
  331MOL0     H43672  -2.195   8.753   3.686  0.5618 -2.1723  0.8789
  331MOL0     H43673  -2.095   8.893   3.729  3.6530  0.5821 -0.1884
  331MOL0     H43674  -1.813   8.172   2.748  1.1277 -3.9497 -1.5351
  331MOL0     H43675  -1.598   8.116   2.635  1.7114 -0.5940 -0.1342
  331MOL0     H43676  -1.122   7.845   2.647  1.6402 -0.8429  1.8491
  331MOL0     H43677  -0.902   7.887   2.562  2.2457  2.2896 -0.9746
  331MOL0     H43678   0.824   7.968   1.861 -0.7392  0.0203 -0.6923
  331MOL0     H43679   1.059   8.033   1.801 -1.0337  0.5796  1.2830
  331MOL0     H43680   1.253   8.302   1.309 -0.0663  0.6795  1.4504
  331MOL0     H43681   1.474   8.367   1.242 -0.5469 -0.4045 -0.6263
  331MOL0     H43682   1.665   8.402   1.164  0.2148 -0.2724 -0.9726
  331MOL0     H43683   1.676   8.236   1.122 -1.2386 -1.9334  1.1770
  331MOL0     H43684   1.858   8.373   1.045  1.2772 -1.4329 -0.5938
  331MOL0     H43685   1.918   8.405   1.208 -1.5885  0.7544 -0.7630
  331MOL0     H43686   1.904   8.130   1.238  0.9797 -2.2264 -1.6951
  331MOL0     H43687   2.048   8.217   1.177  0.7693 -3.1278 -1.4071
  331MOL0     H43688   1.817   8.079   1.003  0.6987  1.3460 -5.1672
  331MOL0     H43689   1.941   8.174   0.944  0.8968 -0.0153  0.0621
  331MOL0     H43690   2.137   7.811   1.047 -0.4382  0.0974  2.1288
  331MOL0     H43691   1.642   8.078   1.507 -1.2737  1.2566  3.2874
  331MOL0     H43692   1.428   7.997   1.559 -0.9476  1.7575  0.8676
  332MOL0     O43693   9.080  10.944   7.007 -0.0278  0.3157 -0.5317
  332MOL0     C43694   9.146  11.042   6.976  0.1342 -0.2920  0.5236
  332MOL0     O43695   9.104  11.154   6.910 -0.0059 -0.1151 -0.2813
  332MOL0     C43696   8.971  11.151   6.863 -0.1705 -0.6463 -0.1847
  332MOL0     C43697   8.867  11.201   6.947 -0.0873  0.5782  0.1981
  332MOL0     C43698   8.731  11.198   6.895  0.0601  0.6384 -0.0536
  332MOL0     C43699   8.706  11.162   6.762  0.4219  1.1187  0.3338
  332MOL0     O43700   8.584  11.171   6.705 -0.1409 -0.2642 -0.0813
  332MOL0     C43701   8.473  11.233   6.770 -0.3224 -0.1796  0.4797
  332MOL0     C43702   8.357  11.226   6.676 -0.4013  0.5553 -0.5553
  332MOL0     C43703   8.304  11.085   6.668  0.8492 -0.5154 -0.7049
  332MOL0     C43704   8.227  11.059   6.534 -0.4527  0.4351 -0.4626
  332MOL0     C43705   8.153  10.925   6.536  0.3802  0.2523  0.5545
  332MOL0     C43706   8.098  10.897   6.397 -0.3028 -0.5443  0.7218
  332MOL0     C43707   8.022  10.765   6.397  0.0342 -0.1636 -0.3158
  332MOL0     C43708   7.882  10.785   6.446  0.9528 -0.4232  0.0185
  332MOL0     N43709   7.786  10.848   6.344  0.2418  0.4540  0.1421
  332MOL0     C43710   7.744  10.985   6.335  0.6655 -0.7026 -0.5914
  332MOL0     C43711   7.652  10.991   6.239  0.2048  0.4293  0.1391
  332MOL0     C43712   7.569  11.114   6.205  0.3960  0.1148 -0.9880
  332MOL0     C43713   7.639  11.195   6.090 -0.1881  0.3085 -0.1279
  332MOL0     C43714   7.695  11.114   5.963  0.2201  0.9636 -0.5989
  332MOL0     C43715   7.789  11.197   5.877  1.1310 -0.9708  0.0173
  332MOL0     O43716   7.862  11.115   5.789 -0.2145 -0.4105  0.2609
  332MOL0     C43717   7.995  11.096   5.819 -0.7384 -0.1070  0.4792
  332MOL0     C43718   8.035  11.074   5.954 -0.9959 -0.0690 -0.4605
  332MOL0     C43719   8.171  11.073   5.992  1.2710  0.1771  0.4991
  332MOL0     C43720   8.267  11.093   5.890  0.0475 -0.5340  0.3772
  332MOL0     C43721   8.409  11.084   5.920  0.0145  0.4344 -0.5690
  332MOL0     O43722   8.439  11.110   6.050 -0.4145  0.8411 -0.0567
  332MOL0     C43723   8.555  11.134   6.110 -0.2975 -0.2107  0.3914
  332MOL0     C43724   8.552  11.121   6.251 -0.3361  0.0546 -0.0718
  332MOL0     C43725   8.663  11.134   6.337  0.4962  0.4633 -0.0887
  332MOL0     C43726   8.789  11.150   6.277 -0.2676  0.9488  0.5125
  332MOL0     O43727   8.892  11.180   6.365 -0.4939 -0.5892  0.0454
  332MOL0     C43728   9.024  11.139   6.305  0.0102  0.2332 -0.1979
  332MOL0     C43729   9.136  11.192   6.397  0.1109  0.6911  0.1241
  332MOL0     C43730   9.282  11.161   6.358  0.9519 -1.1361 -0.7204
  332MOL0     C43731   9.365  11.218   6.470 -0.6234 -0.0046  0.1830
  332MOL0     C43732   9.505  11.165   6.451 -0.7632 -0.3740  0.0557
  332MOL0     C43733   9.590  11.226   6.554 -0.1291 -0.3571  0.7011
  332MOL0     C43734   9.742  11.197   6.529  0.0620 -0.1539  0.1733
  332MOL0     C43735   9.839  11.270   6.630 -0.1810 -0.3962 -0.5068
  332MOL0    Cl43736   9.818  11.197   6.792  0.3926  0.0974 -0.3019
  332MOL0     C43737   8.793  11.159   6.132 -0.9121  0.3037  0.5067
  332MOL0     C43738   8.677  11.161   6.057  0.0981  0.7242 -0.2182
  332MOL0     O43739   8.490  11.059   5.834  0.0534 -0.1488 -0.0201
  332MOL0     C43740   8.224  11.114   5.757  0.0794  0.0278 -0.4651
  332MOL0     C43741   8.090  11.114   5.722  1.4698 -0.1540 -0.5926
  332MOL0     N43742   7.634  10.862   6.185  0.3525  0.4748  0.8623
  332MOL0     N43743   7.721  10.780   6.239  0.4605  0.5240 -0.3483
  332MOL0     C43744   8.819  11.106   6.679 -0.1105 -0.3520  0.1110
  332MOL0     C43745   8.951  11.104   6.731  0.7332 -0.4120  0.0563
  332MOL0     C43746   9.294  11.046   7.016  0.4688 -0.4151 -0.7366
  332MOL0     C43747   9.386  11.148   6.999  0.4112 -0.2097 -0.0916
  332MOL0     C43748   9.518  11.136   7.053 -0.3419 -0.4718  0.0642
  332MOL0     C43749   9.558  11.034   7.132  0.0926  0.0514 -0.2543
  332MOL0     O43750   9.683  11.030   7.192  0.0966  0.1804  0.0140
  332MOL0     C43751   9.784  11.123   7.166 -0.3022  1.1339  0.3611
  332MOL0     C43752   9.893  11.081   7.249 -0.1111  0.0421  0.2207
  332MOL0     C43753   9.960  10.948   7.208  0.7013 -0.6341 -0.3266
  332MOL0     C43754  10.088  10.906   7.286  0.1084 -0.3240  0.4417
  332MOL0     C43755  10.194  11.009   7.296  1.3648 -0.6396  0.5672
  332MOL0     C43756  10.274  11.096   7.305  0.4291 -0.0383 -0.8618
  332MOL0     C43757   9.474  10.929   7.151 -0.2443  0.0472  0.2882
  332MOL0     C43758   9.345  10.932   7.096  0.1204 -0.0957  0.8946
  332MOL0     H43759   8.894  11.249   7.041 -1.5054  2.0030 -0.0618
  332MOL0     H43760   8.658  11.252   6.955  0.1941  0.8547 -0.0851
  332MOL0     H43761   8.512  11.332   6.797  2.5757 -1.1881  0.4065
  332MOL0     H43762   8.444  11.178   6.860  1.3131  2.4826  2.7792
  332MOL0     H43763   8.386  11.261   6.577  0.7548  0.3342 -0.3119
  332MOL0     H43764   8.281  11.293   6.718  1.4478  1.8649  0.8801
  332MOL0     H43765   8.228  11.077   6.746 -2.0384 -0.4445 -3.3161
  332MOL0     H43766   8.385  11.013   6.685  2.4724  1.3300 -0.1789
  332MOL0     H43767   8.150  11.135   6.521 -2.1217 -0.6060  2.4572
  332MOL0     H43768   8.296  11.069   6.449  1.6690 -0.5141  1.0476
  332MOL0     H43769   8.067  10.925   6.603  0.8234 -0.4702  1.1453
  332MOL0     H43770   8.222  10.849   6.576 -0.4813 -0.1395  1.3295
  332MOL0     H43771   8.188  10.894   6.334  0.9893  0.9857  2.3814
  332MOL0     H43772   8.037  10.977   6.355  2.6485  0.4032 -2.1176
  332MOL0     H43773   8.021  10.708   6.303 -0.1991 -1.5165  0.4734
  332MOL0     H43774   8.073  10.709   6.476  0.4406  0.7411  0.0704
  332MOL0     H43775   7.876  10.834   6.544  1.8265 -0.2510  0.0028
  332MOL0     H43776   7.839  10.685   6.451 -2.3683  0.6635 -2.9904
  332MOL0     H43777   7.773  11.057   6.411  1.1161 -0.0984 -1.3151
  332MOL0     H43778   7.572  11.164   6.302  1.1003 -1.1785 -0.3074
  332MOL0     H43779   7.468  11.083   6.176 -0.1858 -0.2879  1.2941
  332MOL0     H43780   7.722  11.246   6.139 -0.0713 -0.9759  1.0467
  332MOL0     H43781   7.569  11.272   6.054 -2.1707 -1.0064  0.7468
  332MOL0     H43782   7.748  11.026   5.999 -1.4897 -0.1324 -0.6527
  332MOL0     H43783   7.611  11.076   5.903  1.2461 -1.3630 -0.6483
  332MOL0     H43784   7.856  11.267   5.928  0.9570  0.5814 -1.7649
  332MOL0     H43785   7.720  11.260   5.821 -0.8118 -1.0819  2.1763
  332MOL0     H43786   7.956  11.067   6.028 -0.3602  0.5979  0.2968
  332MOL0     H43787   8.194  11.055   6.097 -2.9035 -1.1290  1.3898
  332MOL0     H43788   8.460  11.105   6.307  0.2328 -2.5940  0.2276
  332MOL0     H43789   8.643  11.133   6.444  0.3704  0.9434 -0.1072
  332MOL0     H43790   9.050  11.183   6.208 -0.5269 -0.9083 -0.8791
  332MOL0     H43791   9.022  11.030   6.299  1.9878  0.1651 -0.0516
  332MOL0     H43792   9.117  11.149   6.495  3.1855  0.7513  0.8599
  332MOL0     H43793   9.117  11.300   6.398  0.8774  1.1000 -4.4463
  332MOL0     H43794   9.294  11.226   6.271 -1.7268  2.8923  1.6012
  332MOL0     H43795   9.289  11.051   6.356 -0.7276 -1.2602 -1.5441
  332MOL0     H43796   9.359  11.327   6.473  1.9980  0.2837 -1.5421
  332MOL0     H43797   9.329  11.189   6.570  0.5398  1.5596  1.1048
  332MOL0     H43798   9.533  11.199   6.351 -2.1207  0.3543 -0.1086
  332MOL0     H43799   9.496  11.058   6.473 -0.5059 -0.4377 -0.1391
  332MOL0     H43800   9.557  11.181   6.648 -5.9989 -1.6857 -1.5562
  332MOL0     H43801   9.557  11.330   6.558 -2.1930 -0.9606  0.7306
  332MOL0     H43802   9.752  11.088   6.532  0.2623 -0.1259  0.6081
  332MOL0     H43803   9.772  11.236   6.432 -1.7720  2.6422  0.6022
  332MOL0     H43804   9.816  11.377   6.639  1.0855 -0.0620 -1.0134
  332MOL0     H43805   9.941  11.255   6.593  1.3736  1.3675  2.6472
  332MOL0     H43806   8.879  11.178   6.069 -0.6971 -1.8922  0.0460
  332MOL0     H43807   8.683  11.178   5.950 -1.3794 -1.6289 -0.7303
  332MOL0     H43808   8.302  11.143   5.687  2.0986 -0.7677  1.3468
  332MOL0     H43809   8.053  11.147   5.625  3.3035  2.2948 -0.5820
  332MOL0     H43810   8.807  11.069   6.578  0.7623  3.5857 -1.6065
  332MOL0     H43811   9.036  11.062   6.679 -0.2864 -1.7395 -0.6111
  332MOL0     H43812   9.351  11.228   6.935 -0.8958  0.9855  2.0210
  332MOL0     H43813   9.584  11.221   7.037 -2.4110  1.1023 -0.5546
  332MOL0     H43814   9.752  11.226   7.183 -2.2760  0.6986 -0.4342
  332MOL0     H43815   9.816  11.124   7.062 -0.1058 -0.2473  0.3831
  332MOL0     H43816   9.974  11.154   7.238 -1.0587  1.2487  0.9904
  332MOL0     H43817   9.874  11.069   7.356  0.7806  1.7461  0.6139
  332MOL0     H43818   9.990  10.936   7.103 -0.3183 -0.9327 -0.6002
  332MOL0     H43819   9.886  10.874   7.240  1.0760 -0.7603  0.2653
  332MOL0     H43820  10.057  10.894   7.390  2.6919  3.6750  1.9450
  332MOL0     H43821  10.133  10.814   7.249  2.1924  1.7221 -2.6639
  332MOL0     H43822  10.343  11.178   7.311 -0.4398  0.7024 -0.7659
  332MOL0     H43823   9.508  10.846   7.212 -0.9422 -2.5545 -2.6058
  332MOL0     H43824   9.286  10.841   7.105  5.5900 -4.0846  1.8902
  333MOL0     O43825   3.927   1.928   9.232 -0.9366  0.1993  0.3713
  333MOL0     C43826   3.875   1.823   9.180  0.0518 -0.5301 -1.1508
  333MOL0     O43827   3.745   1.822   9.134  1.2821  0.1885  0.2043
  333MOL0     C43828   3.674   1.938   9.110 -0.0167  0.8065  0.0197
  333MOL0     C43829   3.564   1.912   9.029  0.4983  0.0603  1.0307
  333MOL0     C43830   3.468   2.014   9.006 -0.8085 -0.6572  0.1131
  333MOL0     C43831   3.498   2.143   9.033  0.8409 -0.4172  0.2039
  333MOL0     O43832   3.421   2.258   9.001 -0.1569  0.0437 -0.6090
  333MOL0     C43833   3.287   2.249   8.958  0.0552  0.0812  0.2176
  333MOL0     C43834   3.255   2.369   8.872 -0.6289 -0.1218 -0.2682
  333MOL0     C43835   3.113   2.353   8.810  0.2295  0.2269  0.4982
  333MOL0     C43836   3.006   2.271   8.894 -0.3735  0.3243 -0.5229
  333MOL0     C43837   2.896   2.234   8.793  0.1630 -0.1656  0.7313
  333MOL0     C43838   2.777   2.168   8.872  0.0846  0.1382 -0.2123
  333MOL0     C43839   2.675   2.127   8.769  0.9207 -0.1753  0.5880
  333MOL0     C43840   2.555   2.059   8.830  0.3651 -0.5286  0.4034
  333MOL0     N43841   2.455   2.029   8.724  0.3596 -0.0558  0.2576
  333MOL0     C43842   2.384   2.129   8.656  0.6074  0.0316  0.4434
  333MOL0     C43843   2.289   2.063   8.585  0.3040  0.7354  0.4194
  333MOL0     C43844   2.188   2.111   8.481  0.2779 -0.0830  0.5119
  333MOL0     C43845   2.069   2.173   8.556  0.9116  0.1333 -0.2509
  333MOL0     C43846   1.973   2.242   8.454 -0.4124 -0.1910  0.3120
  333MOL0     C43847   1.831   2.233   8.476  0.3818 -0.2483  0.4494
  333MOL0     O43848   1.754   2.319   8.380 -0.0446 -0.8637 -0.4037
  333MOL0     C43849   1.620   2.309   8.389  0.0113  0.7518  0.7191
  333MOL0     C43850   1.543   2.218   8.478 -0.8949 -0.2993  0.1469
  333MOL0     C43851   1.401   2.231   8.482 -0.4947 -1.2074 -0.1011
  333MOL0     C43852   1.343   2.334   8.398  0.0550 -0.0556  0.6322
  333MOL0     C43853   1.200   2.360   8.405 -0.8486  0.4087  0.0841
  333MOL0     O43854   1.155   2.465   8.324  0.4182 -0.4809 -0.6008
  333MOL0     C43855   1.016   2.494   8.333 -0.4967  0.8197 -0.0453
  333MOL0     C43856   0.932   2.450   8.226  0.3754  0.5578  0.3158
  333MOL0     C43857   0.791   2.461   8.236  0.7289  0.5931 -0.2137
  333MOL0     C43858   0.727   2.519   8.344  0.4406  0.5386  0.0426
  333MOL0     O43859   0.596   2.542   8.329  0.1066 -0.0197  0.2616
  333MOL0     C43860   0.511   2.571   8.442  0.8310 -0.9261 -0.4853
  333MOL0     C43861   0.366   2.599   8.391 -0.0836  0.1153  0.0854
  333MOL0     C43862   0.295   2.686   8.496  0.5645 -0.4763  0.2531
  333MOL0     C43863   0.168   2.740   8.449 -0.2339  0.6694 -0.4034
  333MOL0     C43864   0.136   2.870   8.503  0.3917  0.4025  0.8469
  333MOL0     C43865  -0.007   2.911   8.497  0.5802  0.7232  0.4215
  333MOL0     C43866  -0.069   2.912   8.357 -0.0647  0.3755  0.1274
  333MOL0     C43867  -0.224   2.944   8.351  0.0060  0.0056 -0.2803
  333MOL0    Cl43868  -0.267   3.084   8.448 -0.0844  0.0437 -0.0472
  333MOL0     C43869   0.817   2.566   8.446  0.1458  0.2206 -0.0559
  333MOL0     C43870   0.954   2.564   8.440 -0.2950  0.2409 -0.4936
  333MOL0     O43871   1.131   2.289   8.478 -0.2011  0.2435  0.1271
  333MOL0     C43872   1.424   2.415   8.309  0.8966 -0.0737 -0.2185
  333MOL0     C43873   1.556   2.396   8.301 -0.0171 -0.0073 -0.5696
  333MOL0     N43874   2.299   1.935   8.607 -0.5232  0.2260 -0.3827
  333MOL0     N43875   2.392   1.910   8.698  0.2139  0.2067 -0.0072
  333MOL0     C43876   3.617   2.176   9.105  0.9557  0.1195 -0.0618
  333MOL0     C43877   3.702   2.073   9.142  0.0747  0.2524 -0.3096
  333MOL0     C43878   3.952   1.697   9.182 -0.0616  0.1705 -0.1667
  333MOL0     C43879   4.067   1.698   9.263 -1.2252 -0.1191  0.1472
  333MOL0     C43880   4.150   1.580   9.272 -0.2867 -0.2305  0.3295
  333MOL0     C43881   4.106   1.451   9.236 -0.6906 -0.4514 -0.9281
  333MOL0     O43882   4.172   1.331   9.242  0.6140 -0.4313 -0.2411
  333MOL0     C43883   4.283   1.322   9.320 -0.6584  0.6226  0.5257
  333MOL0     C43884   4.352   1.186   9.315 -0.2885 -0.8377  0.9090
  333MOL0     C43885   4.395   1.159   9.172 -0.8360 -0.7231  0.4543
  333MOL0     C43886   4.483   1.032   9.191  0.5313 -0.9296 -0.0316
  333MOL0     C43887   4.404   0.919   9.248  0.2832 -0.1941 -0.9908
  333MOL0     C43888   4.340   0.819   9.281 -1.1029 -0.6106 -0.6259
  333MOL0     C43889   3.979   1.440   9.171 -0.1183 -0.6576 -0.2591
  333MOL0     C43890   3.910   1.568   9.149  0.0672 -0.2608  0.2775
  333MOL0     H43891   3.551   1.810   8.992  1.9639 -0.5757  2.1766
  333MOL0     H43892   3.370   1.987   8.966 -1.4270  1.6373 -0.0600
  333MOL0     H43893   3.233   2.246   9.054  1.2339  0.1609  0.8944
  333MOL0     H43894   3.266   2.165   8.892 -1.0308  2.0738 -2.1588
  333MOL0     H43895   3.337   2.387   8.802 -0.6647  1.7888  0.1115
  333MOL0     H43896   3.252   2.456   8.938  1.6629 -0.3312  0.1812
  333MOL0     H43897   3.132   2.313   8.710  1.3817  0.4587  0.6019
  333MOL0     H43898   3.073   2.455   8.805 -0.7889 -0.1993 -0.3019
  333MOL0     H43899   3.044   2.178   8.935 -0.5995 -0.5274 -2.1607
  333MOL0     H43900   2.967   2.314   8.987 -1.0187 -1.8158  0.2451
  333MOL0     H43901   2.941   2.170   8.716 -0.3270  2.1812 -1.6579
  333MOL0     H43902   2.866   2.318   8.729  1.3240 -1.5162 -1.7558
  333MOL0     H43903   2.718   2.234   8.936 -0.7020 -0.3668 -0.4082
  333MOL0     H43904   2.812   2.082   8.930  1.7046  0.1659 -1.0749
  333MOL0     H43905   2.637   2.215   8.716 -2.5294 -0.6691  1.9856
  333MOL0     H43906   2.727   2.057   8.703 -0.2084 -0.3236 -0.1682
  333MOL0     H43907   2.509   2.125   8.903 -1.0649  2.7828 -3.1085
  333MOL0     H43908   2.577   1.963   8.877  0.3447  0.4536  2.5108
  333MOL0     H43909   2.406   2.235   8.644  0.3734  0.3648  2.4942
  333MOL0     H43910   2.156   2.032   8.413  0.2111  0.2455  0.1555
  333MOL0     H43911   2.231   2.195   8.426 -3.3412  2.4176  1.1229
  333MOL0     H43912   2.102   2.244   8.632  0.2212  2.6392 -2.1461
  333MOL0     H43913   2.020   2.087   8.602 -0.4398  0.9159 -0.1838
  333MOL0     H43914   2.011   2.343   8.470  1.1025 -0.6741 -0.0028
  333MOL0     H43915   2.000   2.216   8.350  2.6153  1.3351  0.5964
  333MOL0     H43916   1.803   2.263   8.578  2.0389  1.4056  0.4750
  333MOL0     H43917   1.813   2.126   8.465  1.2805 -0.2489 -1.2474
  333MOL0     H43918   1.590   2.148   8.546  3.7476 -0.1327 -2.4578
  333MOL0     H43919   1.341   2.163   8.542 -1.8630 -1.4195 -1.6521
  333MOL0     H43920   0.977   2.402   8.140 -1.9714 -0.1627 -0.5998
  333MOL0     H43921   0.739   2.407   8.158  2.1520 -0.6539 -0.3455
  333MOL0     H43922   0.541   2.664   8.491  2.9787 -0.9633 -1.6166
  333MOL0     H43923   0.519   2.499   8.524 -0.4000  0.7097  1.1632
  333MOL0     H43924   0.314   2.504   8.376  0.1488  0.0218 -0.1376
  333MOL0     H43925   0.370   2.653   8.296  0.6796 -0.9330 -0.5114
  333MOL0     H43926   0.362   2.769   8.522 -1.3955  1.0268  0.7753
  333MOL0     H43927   0.275   2.623   8.583  0.3824 -0.8896 -0.0836
  333MOL0     H43928   0.183   2.746   8.341 -0.7033 -1.7180 -0.6683
  333MOL0     H43929   0.082   2.676   8.470 -0.0072  0.1913 -0.9034
  333MOL0     H43930   0.185   2.946   8.441 -1.0428 -0.2216 -1.1683
  333MOL0     H43931   0.172   2.864   8.605 -0.8813 -1.9750  1.2165
  333MOL0     H43932  -0.017   3.013   8.537 -1.1951  0.6154  0.3203
  333MOL0     H43933  -0.068   2.840   8.553 -0.4156  2.4343  1.6126
  333MOL0     H43934  -0.028   2.983   8.285 -1.2261  1.1375  0.1861
  333MOL0     H43935  -0.070   2.806   8.330  1.3447  0.0747  1.1117
  333MOL0     H43936  -0.291   2.861   8.375 -0.4893 -0.5763 -3.2261
  333MOL0     H43937  -0.247   2.958   8.245  1.2178 -0.1327 -0.5805
  333MOL0     H43938   0.792   2.613   8.541  1.6685 -1.7744  1.4228
  333MOL0     H43939   1.029   2.609   8.504 -0.4018  0.6296 -0.6390
  333MOL0     H43940   1.380   2.501   8.260 -0.3447 -0.1887  0.6427
  333MOL0     H43941   1.620   2.463   8.244  3.6862 -2.2156  0.6927
  333MOL0     H43942   3.642   2.278   9.131 -0.3509  0.7827 -1.2948
  333MOL0     H43943   3.792   2.103   9.195 -0.9555  1.4070  0.8630
  333MOL0     H43944   4.095   1.784   9.324 -1.4211  0.7251 -0.9369
  333MOL0     H43945   4.246   1.593   9.321 -0.4871 -1.9515  1.2482
  333MOL0     H43946   4.254   1.340   9.424  2.2279 -0.8795  1.7073
  333MOL0     H43947   4.360   1.395   9.292 -2.1934  3.0002  2.1223
  333MOL0     H43948   4.443   1.195   9.375 -2.7170  1.9882  4.6220
  333MOL0     H43949   4.287   1.109   9.357 -1.3132 -0.6816 -0.3012
  333MOL0     H43950   4.456   1.236   9.124 -0.7446 -0.3884  1.0984
  333MOL0     H43951   4.321   1.143   9.094  0.2631 -0.1925 -0.7297
  333MOL0     H43952   4.525   1.006   9.093 -0.2972  1.4014 -1.0924
  333MOL0     H43953   4.567   1.063   9.253 -0.6104  1.1860  0.5488
  333MOL0     H43954   4.306   0.727   9.324 -1.9298  0.5135  1.2195
  333MOL0     H43955   3.941   1.343   9.141 -1.2314 -0.7794  1.4103
  333MOL0     H43956   3.826   1.544   9.085  0.3467 -1.2174  0.2634
  334MOL0     O43957   2.936   9.285   9.368 -0.5070 -0.4747 -0.2494
  334MOL0     C43958   2.904   9.398   9.321  0.7303 -0.0803  0.4159
  334MOL0     O43959   2.898   9.426   9.185  0.2896  0.0546 -0.8537
  334MOL0     C43960   2.912   9.318   9.097  0.4914  0.2065 -0.4201
  334MOL0     C43961   2.823   9.212   9.073  0.7267  0.7418 -0.0390
  334MOL0     C43962   2.870   9.101   8.989  0.0629 -0.4785 -0.0482
  334MOL0     C43963   2.993   9.110   8.925 -0.4761  0.0284  0.0191
  334MOL0     O43964   3.041   9.016   8.836  0.0144 -0.7022  0.1741
  334MOL0     C43965   2.954   8.942   8.748  0.3227  0.5329 -0.1010
  334MOL0     C43966   2.863   9.030   8.662  0.2990  0.2642 -0.7519
  334MOL0     C43967   2.809   8.968   8.528 -0.6422 -0.3871 -0.1305
  334MOL0     C43968   2.767   8.826   8.556  0.5897  0.8080  0.4661
  334MOL0     C43969   2.706   8.773   8.433  0.6913 -0.7001 -0.0077
  334MOL0     C43970   2.552   8.819   8.425 -1.2429  0.0024  0.7159
  334MOL0     C43971   2.492   8.757   8.289 -0.0177  0.4893 -0.2954
  334MOL0     C43972   2.364   8.833   8.244  0.4557  0.6692 -0.2214
  334MOL0     N43973   2.292   8.773   8.135  0.3754  0.4424  0.4074
  334MOL0     C43974   2.193   8.678   8.139  0.0719  0.2089  0.0937
  334MOL0     C43975   2.175   8.637   8.011  0.6115 -0.1213 -0.5532
  334MOL0     C43976   2.082   8.526   7.966  0.0912 -0.0445 -0.1720
  334MOL0     C43977   2.087   8.507   7.813  0.4608  0.9904  0.4895
  334MOL0     C43978   1.999   8.383   7.776 -0.5593 -1.0414  0.9461
  334MOL0     C43979   1.974   8.360   7.627 -0.4216  0.0341 -0.1497
  334MOL0     O43980   1.904   8.242   7.622  0.0428  0.1462 -0.4489
  334MOL0     C43981   1.765   8.241   7.579 -0.7860 -0.6532 -0.8128
  334MOL0     C43982   1.673   8.246   7.678 -0.0199 -0.5525 -1.4431
  334MOL0     C43983   1.536   8.263   7.646  0.4495  0.3271 -0.8887
  334MOL0     C43984   1.493   8.274   7.513 -0.0414 -0.5315 -0.1015
  334MOL0     C43985   1.354   8.301   7.483  0.9711  0.8954 -0.5930
  334MOL0     O43986   1.330   8.318   7.355 -0.5118 -0.4552  0.5300
  334MOL0     C43987   1.203   8.335   7.308 -0.5664  0.1137  0.3572
  334MOL0     C43988   1.125   8.435   7.359 -0.1829 -0.5045  0.3018
  334MOL0     C43989   0.991   8.459   7.311 -0.7137  0.6700 -1.4839
  334MOL0     C43990   0.943   8.376   7.212 -0.3582  0.0572 -0.0009
  334MOL0     O43991   0.818   8.378   7.159  0.0161 -0.1999  0.9286
  334MOL0     C43992   0.713   8.425   7.238 -0.6279 -0.1453  0.6964
  334MOL0     C43993   0.579   8.373   7.189  0.4859  0.8638  0.1020
  334MOL0     C43994   0.469   8.427   7.273  0.1762  0.1557 -0.5946
  334MOL0     C43995   0.334   8.372   7.217 -0.6590  0.6601 -0.6693
  334MOL0     C43996   0.215   8.446   7.274  0.4945 -0.1756 -0.3799
  334MOL0     C43997   0.087   8.394   7.207 -0.2237 -0.5446  0.0791
  334MOL0     C43998  -0.043   8.477   7.239  0.8555 -0.8879  0.1067
  334MOL0     C43999  -0.157   8.478   7.133 -0.3319 -0.5012 -0.1471
  334MOL0    Cl44000  -0.230   8.322   7.119  0.2371 -0.3147 -0.5969
  334MOL0     C44001   1.017   8.273   7.159 -0.2764  0.0733 -0.0129
  334MOL0     C44002   1.149   8.257   7.203  0.3256  0.2036 -0.5812
  334MOL0     O44003   1.271   8.288   7.570  0.0467  0.5087  0.4142
  334MOL0     C44004   1.590   8.262   7.408 -0.5065  0.0224 -0.0299
  334MOL0     C44005   1.725   8.254   7.441 -0.1296 -0.2353 -0.8436
  334MOL0     N44006   2.257   8.719   7.932 -0.0289 -0.2592 -0.1893
  334MOL0     N44007   2.333   8.786   8.009 -0.2088 -0.7746  0.3789
  334MOL0     C44008   3.069   9.216   8.953  0.1367 -0.7454  0.1655
  334MOL0     C44009   3.031   9.318   9.035  0.4698 -0.2608 -0.5775
  334MOL0     C44010   2.878   9.512   9.421  0.5054  0.3280  0.3893
  334MOL0     C44011   2.890   9.487   9.555  0.2211  0.4825 -1.3213
  334MOL0     C44012   2.849   9.582   9.649  0.1660 -0.6388 -0.1905
  334MOL0     C44013   2.814   9.710   9.610  0.6741  0.5903 -0.4729
  334MOL0     O44014   2.765   9.802   9.695 -0.1524  0.5051  0.5788
  334MOL0     C44015   2.842   9.813   9.818 -0.6382  0.7702  0.3111
  334MOL0     C44016   2.818   9.954   9.879 -0.4864  0.5749 -0.1256
  334MOL0     C44017   2.870   9.968  10.019  0.2622  0.2004 -0.2310
  334MOL0     C44018   2.896  10.115  10.063 -0.1568 -0.8454  0.5805
  334MOL0     C44019   2.773  10.196  10.070  0.4639 -0.1270  0.7483
  334MOL0     C44020   2.671  10.260  10.067 -0.4592  0.2787 -0.4498
  334MOL0     C44021   2.793   9.731   9.468  0.4016  0.5260 -0.2470
  334MOL0     C44022   2.824   9.637   9.377 -1.3337 -0.7385 -0.2045
  334MOL0     H44023   2.728   9.215   9.127  0.7612 -1.2250  0.2170
  334MOL0     H44024   2.800   9.018   8.981  0.0974 -0.2793 -4.9711
  334MOL0     H44025   2.885   8.877   8.802 -0.1378  1.2111  0.1418
  334MOL0     H44026   3.022   8.889   8.681  0.6283  1.6421 -0.6969
  334MOL0     H44027   2.922   9.118   8.633  1.3136 -0.1501  0.0177
  334MOL0     H44028   2.779   9.064   8.725 -1.5419 -2.3838 -1.6094
  334MOL0     H44029   2.893   8.954   8.460 -0.6208  0.2552 -0.2406
  334MOL0     H44030   2.738   9.038   8.485  1.4517 -0.0231 -3.3804
  334MOL0     H44031   2.854   8.765   8.583 -0.7784 -2.0569 -1.1597
  334MOL0     H44032   2.693   8.825   8.637  0.1838  2.8899  0.1673
  334MOL0     H44033   2.707   8.664   8.432 -1.6632 -0.7791 -1.3722
  334MOL0     H44034   2.766   8.801   8.345  0.5933 -0.4274  0.0133
  334MOL0     H44035   2.536   8.927   8.413 -1.7910 -0.0015  1.3665
  334MOL0     H44036   2.495   8.783   8.511 -3.0327  0.7562 -0.1093
  334MOL0     H44037   2.562   8.758   8.205 -0.2968 -0.4339 -0.5502
  334MOL0     H44038   2.485   8.648   8.285  2.7304  0.2678 -2.8366
  334MOL0     H44039   2.395   8.933   8.214  0.4468  1.1781  1.3800
  334MOL0     H44040   2.298   8.840   8.331  1.3261  1.5094  0.3889
  334MOL0     H44041   2.150   8.638   8.231  1.2557 -1.4422 -0.0340
  334MOL0     H44042   1.977   8.555   7.982 -0.5387 -2.1217 -0.1688
  334MOL0     H44043   2.114   8.434   8.015  0.1726  0.1051  0.0602
  334MOL0     H44044   2.188   8.491   7.773 -2.0006 -2.8212 -5.7223
  334MOL0     H44045   2.046   8.595   7.763 -0.5870 -0.7017 -1.8376
  334MOL0     H44046   2.040   8.293   7.822 -0.2755 -1.5783 -0.2971
  334MOL0     H44047   1.899   8.402   7.816 -0.6741  0.1971  0.1522
  334MOL0     H44048   2.069   8.351   7.574 -1.5691 -2.0819 -1.9814
  334MOL0     H44049   1.928   8.446   7.577 -0.8930 -0.2769 -0.2475
  334MOL0     H44050   1.712   8.242   7.779 -0.0636 -2.9811 -1.4557
  334MOL0     H44051   1.462   8.284   7.722 -1.0047  2.6398 -2.8057
  334MOL0     H44052   1.178   8.500   7.428  0.3988  1.9059 -2.2371
  334MOL0     H44053   0.953   8.548   7.359 -0.2004 -0.2052  0.6694
  334MOL0     H44054   0.706   8.534   7.228  2.2417  0.3398  2.6764
  334MOL0     H44055   0.723   8.403   7.345  1.2010 -1.2516  0.3332
  334MOL0     H44056   0.587   8.264   7.199 -0.7863  0.6299 -1.1497
  334MOL0     H44057   0.564   8.399   7.084 -2.6846 -2.7360 -0.5475
  334MOL0     H44058   0.479   8.535   7.280  0.6934  0.2267 -2.0542
  334MOL0     H44059   0.472   8.387   7.374 -1.0620 -0.0823 -0.6406
  334MOL0     H44060   0.340   8.381   7.108  1.7086 -1.5751 -0.8294
  334MOL0     H44061   0.332   8.268   7.252 -1.4295  1.9028  3.5756
  334MOL0     H44062   0.213   8.553   7.251  0.4414 -0.4964 -2.0054
  334MOL0     H44063   0.211   8.425   7.381 -1.4071 -1.1813 -0.6164
  334MOL0     H44064   0.072   8.286   7.221  1.0824 -0.5175  2.0303
  334MOL0     H44065   0.109   8.403   7.100  1.2280 -4.3065 -0.1235
  334MOL0     H44066  -0.093   8.444   7.331 -1.0196 -1.8200 -1.1873
  334MOL0     H44067  -0.016   8.580   7.265  3.4158 -1.2508 -0.8995
  334MOL0     H44068  -0.114   8.511   7.038 -2.2489  1.7459 -0.3146
  334MOL0     H44069  -0.233   8.554   7.155 -0.4992 -0.6178 -0.3313
  334MOL0     H44070   0.966   8.197   7.101  0.0959 -0.4404  0.3221
  334MOL0     H44071   1.214   8.181   7.160 -1.7942 -1.8029 -0.3951
  334MOL0     H44072   1.564   8.288   7.306  1.2357 -0.1391 -0.5524
  334MOL0     H44073   1.798   8.259   7.361 -0.2911 -1.1371 -1.0531
  334MOL0     H44074   3.162   9.225   8.899  0.0281 -2.7744 -0.4221
  334MOL0     H44075   3.097   9.403   9.050 -2.3185  1.8842  0.4113
  334MOL0     H44076   2.933   9.394   9.590 -1.0258  1.1631  2.5651
  334MOL0     H44077   2.859   9.554   9.754 -1.1361  1.5697  0.5998
  334MOL0     H44078   2.948   9.801   9.792 -0.6485  0.5236  0.3805
  334MOL0     H44079   2.819   9.729   9.884  2.4079  1.0719  1.9539
  334MOL0     H44080   2.880  10.010   9.808  0.8303 -1.6398 -0.8082
  334MOL0     H44081   2.712   9.980   9.877 -1.0399 -1.3910  1.0883
  334MOL0     H44082   2.964   9.915  10.038  1.7085  2.4779 -0.6391
  334MOL0     H44083   2.798   9.917  10.083  1.8958 -3.8313 -1.2873
  334MOL0     H44084   2.941  10.101  10.162  1.7410  0.5769 -0.0177
  334MOL0     H44085   2.963  10.163   9.991 -2.3789  1.6309  0.0189
  334MOL0     H44086   2.582  10.318  10.052 -0.5518  0.9019  2.0538
  334MOL0     H44087   2.750   9.823   9.431  2.1735  1.0852 -1.0446
  334MOL0     H44088   2.815   9.666   9.273  0.1108  4.7705  0.8906
  335MOL0     O44089   4.413  11.126   9.918 -0.3258 -0.0962 -0.1214
  335MOL0     C44090   4.512  11.202   9.905  0.5455  1.2607  0.0668
  335MOL0     O44091   4.513  11.334   9.891 -0.1744 -0.3901  0.0722
  335MOL0     C44092   4.391  11.395   9.913  0.5569  0.1754 -0.1091
  335MOL0     C44093   4.353  11.424  10.038 -0.4746 -0.1731 -0.3107
  335MOL0     C44094   4.233  11.475  10.066  0.0290 -0.1856  0.1595
  335MOL0     C44095   4.149  11.528   9.967 -0.9720  0.5714  0.8301
  335MOL0     O44096   4.026  11.580   9.999 -0.4923  0.1142  0.1468
  335MOL0     C44097   3.916  11.566   9.908  0.0324 -0.2695  0.3629
  335MOL0     C44098   3.796  11.642   9.983  0.3764 -0.2324 -1.2287
  335MOL0     C44099   3.664  11.654   9.898  0.3230 -0.3671 -0.5688
  335MOL0     C44100   3.673  11.788   9.819  0.0895  0.6758  1.1491
  335MOL0     C44101   3.551  11.829   9.729 -0.3412  0.5543  0.0582
  335MOL0     C44102   3.415  11.818   9.803 -0.2127 -0.3257  0.0356
  335MOL0     C44103   3.294  11.857   9.703  0.0578 -0.8325 -0.2546
  335MOL0     C44104   3.163  11.854   9.773 -0.1423 -0.2160  0.0311
  335MOL0     N44105   3.043  11.872   9.680  0.0025 -0.4302 -0.5157
  335MOL0     C44106   3.014  11.780   9.588 -0.3624  0.4749  0.1265
  335MOL0     C44107   2.918  11.843   9.512  0.2075 -0.7530 -0.9984
  335MOL0     C44108   2.847  11.787   9.395  0.8079 -0.3575  0.2128
  335MOL0     C44109   2.812  11.638   9.430 -0.0492 -0.5776 -0.3175
  335MOL0     C44110   2.711  11.590   9.317 -0.2028 -0.0394  0.0666
  335MOL0     C44111   2.700  11.437   9.298  0.3786  0.1038  0.5724
  335MOL0     O44112   2.637  11.362   9.398 -0.2859  0.2502 -0.2617
  335MOL0     C44113   2.504  11.359   9.433  0.2770  0.0187 -0.4325
  335MOL0     C44114   2.406  11.438   9.358 -0.1661  0.5079 -1.1510
  335MOL0     C44115   2.274  11.450   9.405 -0.1588  0.4308 -0.1020
  335MOL0     C44116   2.232  11.383   9.523  0.6123 -1.3603 -0.0359
  335MOL0     C44117   2.095  11.406   9.574  0.0683  0.5373 -0.0359
  335MOL0     O44118   2.072  11.347   9.698  0.0756  0.3431 -0.7426
  335MOL0     C44119   1.954  11.354   9.772 -0.5960 -0.1533 -0.5979
  335MOL0     C44120   1.951  11.330   9.909  0.4497  0.9834  0.5132
  335MOL0     C44121   1.828  11.316   9.985 -0.3155  1.0786 -0.9586
  335MOL0     C44122   1.710  11.358   9.926  0.4614  0.0278  0.5089
  335MOL0     O44123   1.598  11.345   9.999 -0.0168 -0.8951 -0.5556
  335MOL0     C44124   1.475  11.311   9.937 -0.6845 -1.1718 -0.5703
  335MOL0     C44125   1.431  11.184  10.011 -0.1900 -0.0555  0.7131
  335MOL0     C44126   1.283  11.203  10.036  0.4663 -0.3034 -0.6614
  335MOL0     C44127   1.232  11.104  10.136  0.3673  1.4010 -0.2233
  335MOL0     C44128   1.079  11.083  10.133  0.1056  0.2613 -0.7155
  335MOL0     C44129   1.000  11.213  10.130  1.0155 -0.5721 -1.0484
  335MOL0     C44130   0.854  11.192  10.176 -0.9714 -0.9281 -0.2464
  335MOL0     C44131   0.759  11.297  10.127  0.0590  0.0550 -0.7447
  335MOL0    Cl44132   0.594  11.263  10.184 -0.0912  0.0344 -0.5285
  335MOL0     C44133   1.710  11.387   9.789  0.7428 -1.0301 -0.2022
  335MOL0     C44134   1.826  11.388   9.714  0.0888  0.1955  0.8967
  335MOL0     O44135   2.020  11.489   9.512 -0.1183 -0.0742  0.1953
  335MOL0     C44136   2.323  11.300   9.590 -0.7324  0.3701 -0.3720
  335MOL0     C44137   2.459  11.292   9.550  0.1089 -0.5330 -0.2086
  335MOL0     N44138   2.887  11.970   9.568  0.3353 -0.5190  0.1715
  335MOL0     N44139   2.973  11.994   9.665  0.3823 -0.1804 -0.1992
  335MOL0     C44140   4.188  11.510   9.842  0.2422  0.0353 -0.7636
  335MOL0     C44141   4.301  11.436   9.811  0.1522 -0.4332  0.6732
  335MOL0     C44142   4.646  11.140   9.880  1.2376 -0.1004  0.0457
  335MOL0     C44143   4.768  11.217   9.875 -0.2870 -0.1220  0.2077
  335MOL0     C44144   4.888  11.160   9.847  0.0483 -0.6642  0.4438
  335MOL0     C44145   4.893  11.026   9.824  0.3120 -0.3721  0.3217
  335MOL0     O44146   5.012  10.965   9.818 -0.6703  0.4499  0.9622
  335MOL0     C44147   5.039  10.872   9.716  0.2868  0.0361  0.3611
  335MOL0     C44148   5.065  10.738   9.772  0.7769  0.9271 -0.1873
  335MOL0     C44149   5.167  10.743   9.878 -0.1454 -0.7197 -1.4692
  335MOL0     C44150   5.227  10.606   9.920 -1.1744  0.7322 -0.3627
  335MOL0     C44151   5.308  10.551   9.812 -0.2898  0.5619 -0.3347
  335MOL0     C44152   5.358  10.499   9.710 -0.0637  0.0551  0.7602
  335MOL0     C44153   4.771  10.947   9.821  0.0622  0.2335 -0.2523
  335MOL0     C44154   4.650  11.006   9.842 -0.0328 -0.1239 -0.0083
  335MOL0     H44155   4.404  11.387  10.126  0.7986 -2.8358 -2.0278
  335MOL0     H44156   4.192  11.469  10.166 -0.5300 -1.0707 -0.1075
  335MOL0     H44157   3.877  11.464   9.909 -0.4998 -0.0811  2.6569
  335MOL0     H44158   3.935  11.618   9.813 -2.4900 -0.3864 -0.2837
  335MOL0     H44159   3.830  11.742  10.012 -1.3955 -0.2608  1.1743
  335MOL0     H44160   3.779  11.586  10.075  1.2970  1.6046  0.1186
  335MOL0     H44161   3.584  11.658   9.973  1.6497  1.2323  0.8480
  335MOL0     H44162   3.633  11.567   9.839 -1.5584  0.4400 -0.8581
  335MOL0     H44163   3.685  11.866   9.894  0.2970  0.3849  1.4198
  335MOL0     H44164   3.764  11.783   9.758 -1.4787 -0.9998 -1.2450
  335MOL0     H44165   3.550  11.771   9.636  2.8779 -2.3251  1.5816
  335MOL0     H44166   3.565  11.932   9.696 -1.8515 -0.3517 -3.9315
  335MOL0     H44167   3.418  11.875   9.896  3.4479 -1.9222  1.0981
  335MOL0     H44168   3.409  11.716   9.842 -1.8554 -0.1636  0.2649
  335MOL0     H44169   3.305  11.961   9.671  2.1584  0.3170  3.5011
  335MOL0     H44170   3.289  11.788   9.619  0.4445  0.9855 -1.8325
  335MOL0     H44171   3.163  11.925   9.856  1.6688  0.0647 -0.1840
  335MOL0     H44172   3.160  11.759   9.828  0.3043 -0.7130 -0.7774
  335MOL0     H44173   3.059  11.682   9.577  0.1189  0.8551 -1.5773
  335MOL0     H44174   2.901  11.786   9.300 -0.5752 -0.4056 -0.5900
  335MOL0     H44175   2.757  11.845   9.372  1.5448  0.1670 -1.5092
  335MOL0     H44176   2.748  11.633   9.519 -0.7143 -3.2369 -0.8732
  335MOL0     H44177   2.898  11.571   9.442 -0.9603 -1.7037  0.1185
  335MOL0     H44178   2.613  11.633   9.340 -0.5066 -0.8359  0.3040
  335MOL0     H44179   2.751  11.621   9.220  2.7967 -1.4222  0.7378
  335MOL0     H44180   2.795  11.396   9.265  0.9182  0.9165  1.0977
  335MOL0     H44181   2.633  11.419   9.213 -0.7877 -0.9253  1.6684
  335MOL0     H44182   2.435  11.480   9.262 -0.7183  0.5521 -1.3037
  335MOL0     H44183   2.209  11.511   9.344  2.1012  1.7789 -1.3306
  335MOL0     H44184   2.048  11.316   9.955 -0.6627 -0.9340  2.4292
  335MOL0     H44185   1.828  11.288  10.089 -2.7221 -0.8090 -1.3691
  335MOL0     H44186   1.488  11.293   9.830  1.3893  0.0259 -0.5781
  335MOL0     H44187   1.413  11.401   9.930  2.1945  0.8020 -3.5139
  335MOL0     H44188   1.488  11.152  10.099  1.0518 -3.5277 -1.1383
  335MOL0     H44189   1.458  11.103   9.942  1.3962  0.3266  0.8395
  335MOL0     H44190   1.225  11.194   9.943 -2.5904  2.7184  0.7430
  335MOL0     H44191   1.255  11.302  10.072 -3.3404 -1.1633 -0.7978
  335MOL0     H44192   1.286  11.010  10.126  3.0724  2.6144  1.6293
  335MOL0     H44193   1.260  11.125  10.240  0.9125 -1.9911  0.4220
  335MOL0     H44194   1.043  11.022  10.216  1.6123  1.2935  0.7540
  335MOL0     H44195   1.054  11.039  10.036  3.4862 -0.0568 -1.5555
  335MOL0     H44196   1.001  11.263  10.032 -0.2251  0.6293 -0.4771
  335MOL0     H44197   1.029  11.282  10.209 -2.3807 -1.8741  1.5894
  335MOL0     H44198   0.820  11.097  10.132  0.2676 -3.1270  3.1777
  335MOL0     H44199   0.847  11.186  10.285  1.6957 -0.2800  0.0175
  335MOL0     H44200   0.752  11.309  10.019  3.2548 -0.8460 -1.1632
  335MOL0     H44201   0.796  11.389  10.173  4.2453 -2.6515  2.0449
  335MOL0     H44202   1.616  11.414   9.740 -0.3242  0.2382  2.3856
  335MOL0     H44203   1.820  11.396   9.606  0.6630 -1.6873  0.6937
  335MOL0     H44204   2.296  11.244   9.679  1.4443 -1.8914 -1.0269
  335MOL0     H44205   2.529  11.229   9.604 -0.1830 -0.5051  0.2017
  335MOL0     H44206   4.134  11.551   9.757 -2.1956  1.8374  1.5153
  335MOL0     H44207   4.329  11.417   9.708 -0.9413  0.2523  0.2224
  335MOL0     H44208   4.766  11.321   9.905 -1.0011  0.0869 -0.5489
  335MOL0     H44209   4.982  11.214   9.858  1.3611 -2.9750  1.4172
  335MOL0     H44210   5.125  10.901   9.656  0.5608  1.0094  1.1976
  335MOL0     H44211   4.953  10.858   9.649 -0.4548 -1.7717  1.6180
  335MOL0     H44212   4.974  10.692   9.812  2.8038 -1.9997  1.3877
  335MOL0     H44213   5.095  10.683   9.682  1.4227  0.4635  0.3074
  335MOL0     H44214   5.123  10.808   9.953  0.2626 -2.1347  0.0649
  335MOL0     H44215   5.246  10.800   9.828 -0.6172  0.1024 -1.2898
  335MOL0     H44216   5.278  10.595  10.016 -2.9686 -2.7160  0.3537
  335MOL0     H44217   5.147  10.536   9.943 -0.7074  1.5308  4.9350
  335MOL0     H44218   5.399  10.458   9.620  0.8131  0.7678  0.8206
  335MOL0     H44219   4.767  10.839   9.808  0.7358  0.1345  0.3211
  335MOL0     H44220   4.555  10.956   9.821 -0.2909 -0.1770  1.2194
  336MOL0     O44221   0.859  10.488   6.644 -0.0927 -0.3192  0.8708
  336MOL0     C44222   0.828  10.523   6.530 -0.0830  0.7495  0.3750
  336MOL0     O44223   0.702  10.554   6.490  0.4215 -0.2098  0.9355
  336MOL0     C44224   0.584  10.554   6.562 -0.3003 -0.3725 -0.4150
  336MOL0     C44225   0.558  10.488   6.686  0.1836  0.4045 -0.3011
  336MOL0     C44226   0.428  10.488   6.741  0.4124 -0.1725 -0.3032
  336MOL0     C44227   0.327  10.567   6.688 -0.3043 -1.1298  0.1484
  336MOL0     O44228   0.196  10.575   6.733  0.3786 -0.1999  0.1060
  336MOL0     C44229   0.112  10.453   6.725 -0.6518  0.4185  0.2422
  336MOL0     C44230  -0.043  10.483   6.719 -0.2023  0.1515 -0.8226
  336MOL0     C44231  -0.090  10.604   6.817  0.4629  0.7055 -0.2145
  336MOL0     C44232  -0.071  10.562   6.962 -0.7730 -0.1911  0.0512
  336MOL0     C44233  -0.144  10.663   7.068 -0.3284  0.4650  0.2839
  336MOL0     C44234  -0.083  10.802   7.084  0.1639 -0.0631 -0.5168
  336MOL0     C44235  -0.156  10.863   7.210  0.9754 -0.4615 -0.2176
  336MOL0     C44236  -0.315  10.876   7.204  0.4428  0.4387  0.2044
  336MOL0     N44237  -0.354  10.949   7.083  0.4585 -0.4002  0.2764
  336MOL0     C44238  -0.372  11.091   7.086  0.2086  0.6307  0.4223
  336MOL0     C44239  -0.464  11.121   6.991 -0.1572  0.5723 -0.1774
  336MOL0     C44240  -0.519  11.254   6.954 -0.2750 -0.6296  0.1064
  336MOL0     C44241  -0.617  11.298   7.065  0.5678 -0.2477 -0.3506
  336MOL0     C44242  -0.719  11.411   7.020 -0.2535  0.4645 -0.2813
  336MOL0     C44243  -0.846  11.411   7.115 -0.0921  0.1108  0.9464
  336MOL0     O44244  -0.909  11.532   7.066  0.6338  0.4465  0.5450
  336MOL0     C44245  -1.042  11.521   7.064  0.4730 -0.2971 -0.3010
  336MOL0     C44246  -1.096  11.612   6.974  1.0649 -0.6906  0.6290
  336MOL0     C44247  -1.232  11.620   6.943  0.5699 -0.1365 -0.4609
  336MOL0     C44248  -1.316  11.536   7.021  0.1585 -0.5025  0.2735
  336MOL0     C44249  -1.466  11.539   6.989 -0.7380 -0.3573  0.0126
  336MOL0     O44250  -1.505  11.566   6.859 -0.0575 -0.2466 -0.6555
  336MOL0     C44251  -1.630  11.547   6.818 -0.3578  1.3065 -0.4904
  336MOL0     C44252  -1.660  11.598   6.687  0.0681  0.2651 -0.6387
  336MOL0     C44253  -1.785  11.580   6.629 -0.5502  0.6152  0.0419
  336MOL0     C44254  -1.884  11.519   6.698  0.9261 -0.2339 -0.4018
  336MOL0     O44255  -2.004  11.512   6.635  0.2294 -0.0560 -0.4207
  336MOL0     C44256  -2.114  11.533   6.731 -0.4182 -0.4031 -0.6529
  336MOL0     C44257  -2.250  11.524   6.660  0.6351  0.2495  0.5133
  336MOL0     C44258  -2.263  11.622   6.528  0.5319  0.5638 -0.0263
  336MOL0     C44259  -2.253  11.772   6.562 -0.0424  0.8158 -0.9472
  336MOL0     C44260  -2.372  11.837   6.629 -0.3247 -0.0820 -1.3422
  336MOL0     C44261  -2.495  11.823   6.548 -0.0913  1.5618  0.4948
  336MOL0     C44262  -2.585  11.937   6.573  0.1965  0.7147  0.6522
  336MOL0     C44263  -2.723  11.899   6.504 -0.4831 -0.2977  0.9424
  336MOL0    Cl44264  -2.724  11.934   6.330 -0.1255 -1.1677  0.2103
  336MOL0     C44265  -1.860  11.461   6.825 -0.4174 -0.2724  0.6741
  336MOL0     C44266  -1.729  11.469   6.875  0.8154 -0.0718  0.1997
  336MOL0     O44267  -1.529  11.493   7.082  0.3475  0.1911 -0.2672
  336MOL0     C44268  -1.259  11.456   7.134  0.4930 -0.3622  0.1061
  336MOL0     C44269  -1.123  11.445   7.152 -0.2612 -0.4368  0.0637
  336MOL0     N44270  -0.492  11.002   6.919  0.1252 -0.4743 -0.3055
  336MOL0     N44271  -0.428  10.902   6.973  0.4586 -0.6188 -0.2914
  336MOL0     C44272   0.354  10.649   6.572  0.3914  0.8827 -0.1131
  336MOL0     C44273   0.478  10.636   6.502  0.0917 -0.0301  0.7972
  336MOL0     C44274   0.937  10.540   6.435 -0.3396 -0.4579 -0.2084
  336MOL0     C44275   0.903  10.591   6.308  0.6920 -0.0939 -0.6744
  336MOL0     C44276   1.005  10.633   6.224  0.7202 -1.1523  0.4748
  336MOL0     C44277   1.136  10.637   6.271  1.0352 -0.3939  0.3990
  336MOL0     O44278   1.217  10.701   6.186 -0.3331 -1.0441 -1.0795
  336MOL0     C44279   1.349  10.725   6.238 -0.0843 -0.4403 -0.4462
  336MOL0     C44280   1.419  10.804   6.119 -0.4403  0.3292 -0.0132
  336MOL0     C44281   1.567  10.835   6.157  0.1918 -1.0423  0.3382
  336MOL0     C44282   1.620  10.936   6.054  0.4679  0.4807 -0.1998
  336MOL0     C44283   1.761  10.986   6.077  0.3466 -0.1685 -0.1620
  336MOL0     C44284   1.859  11.042   6.118  0.0011  0.5405 -0.2401
  336MOL0     C44285   1.168  10.573   6.394 -0.1743 -0.1977  0.2008
  336MOL0     C44286   1.072  10.533   6.482 -0.2975 -0.7414 -0.3378
  336MOL0     H44287   0.637  10.440   6.743 -0.8201  0.2930  1.0346
  336MOL0     H44288   0.414  10.419   6.824 -0.7044 -2.3581 -2.2136
  336MOL0     H44289   0.132  10.397   6.817 -3.1951 -2.5157 -0.8174
  336MOL0     H44290   0.136  10.387   6.641 -2.1847 -0.6591  0.6063
  336MOL0     H44291  -0.097  10.394   6.753  2.3258 -1.1776 -0.0290
  336MOL0     H44292  -0.073  10.512   6.618  0.1560  1.8115 -0.4953
  336MOL0     H44293  -0.198  10.611   6.803  0.6918  0.4471 -2.4058
  336MOL0     H44294  -0.039  10.700   6.809  1.4272  0.1495 -0.9299
  336MOL0     H44295  -0.116  10.463   6.974  1.4242 -1.1776  0.7331
  336MOL0     H44296   0.036  10.551   6.981 -1.0136 -3.0893  0.2095
  336MOL0     H44297  -0.144  10.630   7.172  0.8696 -0.2374  0.0783
  336MOL0     H44298  -0.250  10.679   7.046 -0.0863  0.1011 -1.2632
  336MOL0     H44299  -0.099  10.866   6.997  0.6391  0.4246 -0.2503
  336MOL0     H44300   0.021  10.805   7.118  0.4976 -2.0135 -1.2809
  336MOL0     H44301  -0.109  10.833   7.304 -0.9934 -1.0422  0.6257
  336MOL0     H44302  -0.117  10.964   7.221 -0.1055 -0.2180  1.7746
  336MOL0     H44303  -0.342  10.933   7.293  1.8107 -0.8884  1.5279
  336MOL0     H44304  -0.356  10.775   7.211  2.0666 -0.3986 -1.2906
  336MOL0     H44305  -0.322  11.160   7.154  0.8926  0.0558  0.5205
  336MOL0     H44306  -0.566  11.256   6.855 -0.8681 -2.2341  0.3116
  336MOL0     H44307  -0.443  11.332   6.955 -2.1837  1.5104 -2.9182
  336MOL0     H44308  -0.563  11.346   7.147 -0.1455 -1.4183  0.8251
  336MOL0     H44309  -0.677  11.211   7.091  0.3591 -0.2556 -0.8494
  336MOL0     H44310  -0.678  11.512   7.016  0.6799  0.0760 -3.5496
  336MOL0     H44311  -0.770  11.392   6.926 -2.3275 -1.5464  1.1398
  336MOL0     H44312  -0.833  11.409   7.223  2.8900 -0.6399  0.6572
  336MOL0     H44313  -0.895  11.318   7.082 -0.2037 -0.8097  3.5095
  336MOL0     H44314  -1.031  11.673   6.913 -0.3428  0.6653  0.4400
  336MOL0     H44315  -1.286  11.682   6.873 -1.6652 -2.0558 -0.5578
  336MOL0     H44316  -1.593  11.658   6.627  2.4115 -0.2265  1.3379
  336MOL0     H44317  -1.808  11.634   6.538  2.0834 -0.1762 -1.1982
  336MOL0     H44318  -2.106  11.631   6.779  1.0013 -0.1881 -1.2840
  336MOL0     H44319  -2.115  11.461   6.812 -0.8713  1.7673  1.3849
  336MOL0     H44320  -2.331  11.537   6.733  0.5559 -1.2822  0.7491
  336MOL0     H44321  -2.262  11.421   6.623  1.9205 -0.2950  1.5046
  336MOL0     H44322  -2.361  11.598   6.486 -1.3581  0.4052  3.9780
  336MOL0     H44323  -2.184  11.589   6.460 -0.7731  1.1615 -1.9227
  336MOL0     H44324  -2.163  11.779   6.624 -1.6431 -0.9778  1.7852
  336MOL0     H44325  -2.223  11.828   6.473 -1.9295 -2.1490 -3.6842
  336MOL0     H44326  -2.353  11.943   6.649  0.4739 -0.7716  2.2964
  336MOL0     H44327  -2.387  11.784   6.723 -1.5410  1.2472 -0.7570
  336MOL0     H44328  -2.545  11.735   6.590  0.0549  1.9442  1.4993
  336MOL0     H44329  -2.472  11.810   6.442 -2.0733 -0.8797  0.2804
  336MOL0     H44330  -2.607  11.937   6.680 -2.7219 -3.0401  0.2909
  336MOL0     H44331  -2.540  12.030   6.539  1.1776 -0.4917 -1.5765
  336MOL0     H44332  -2.788  11.962   6.565 -4.3797 -1.3271 -1.8033
  336MOL0     H44333  -2.750  11.793   6.514  1.9691 -1.0762 -0.0281
  336MOL0     H44334  -1.944  11.429   6.886 -1.2629  3.4570  1.7332
  336MOL0     H44335  -1.724  11.432   6.977 -2.0939  2.3730  1.3908
  336MOL0     H44336  -1.336  11.408   7.194 -1.7674 -0.7100 -2.8103
  336MOL0     H44337  -1.081  11.373   7.222 -0.7215  0.3287  1.1631
  336MOL0     H44338   0.266  10.702   6.536 -1.1008 -3.2155 -3.4217
  336MOL0     H44339   0.484  10.691   6.408  0.1326 -0.4397  0.5532
  336MOL0     H44340   0.799  10.604   6.277 -0.6571  0.1358  3.3933
  336MOL0     H44341   0.981  10.687   6.133  1.0045  1.1402  1.6840
  336MOL0     H44342   1.394  10.629   6.264  0.1017  0.0849  1.2735
  336MOL0     H44343   1.347  10.790   6.326 -0.2810 -0.8067 -0.1736
  336MOL0     H44344   1.415  10.735   6.034 -0.3862 -1.2925  1.2367
  336MOL0     H44345   1.371  10.896   6.087 -0.8366  0.4449  0.8966
  336MOL0     H44346   1.633  10.748   6.143  0.4743 -0.5053 -2.2639
  336MOL0     H44347   1.573  10.882   6.255 -0.2937  0.3110 -0.2672
  336MOL0     H44348   1.610  10.887   5.957 -0.1749 -0.6095  0.4088
  336MOL0     H44349   1.550  11.020   6.044 -0.4610 -0.2868 -0.2756
  336MOL0     H44350   1.956  11.067   6.157 -0.3736 -1.2148  2.0393
  336MOL0     H44351   1.270  10.564   6.430 -0.7371  0.1304  2.0218
  336MOL0     H44352   1.086  10.490   6.581 -0.4423  1.6398  0.8007
  337MOL0     O44353   7.834   2.574   8.042 -0.1513 -0.6129 -0.3236
  337MOL0     C44354   7.845   2.646   7.942 -0.6932  1.0448  0.3812
  337MOL0     O44355   7.742   2.686   7.858 -0.4156 -0.1648  0.2452
  337MOL0     C44356   7.612   2.676   7.903 -0.6634  0.1418 -0.7834
  337MOL0     C44357   7.569   2.675   8.039  0.4521 -0.1159  0.5246
  337MOL0     C44358   7.432   2.661   8.074  0.3029  0.0787  0.3736
  337MOL0     C44359   7.334   2.663   7.972  0.1466  0.5612  0.1340
  337MOL0     O44360   7.199   2.660   7.989 -0.4484  0.3408 -0.7394
  337MOL0     C44361   7.145   2.638   8.121 -0.4493  0.5768 -0.1667
  337MOL0     C44362   6.997   2.595   8.111  0.4045  0.3108  0.0420
  337MOL0     C44363   6.945   2.600   8.246 -0.1790  0.4267  0.2092
  337MOL0     C44364   6.824   2.500   8.262  0.4529  0.1389  0.3081
  337MOL0     C44365   6.800   2.467   8.416 -0.2753 -0.6295 -0.1580
  337MOL0     C44366   6.655   2.444   8.443  0.1463  0.2235 -0.4259
  337MOL0     C44367   6.628   2.404   8.587  0.2159 -0.7352  0.3129
  337MOL0     C44368   6.485   2.380   8.606  0.1814  0.1629  0.7162
  337MOL0     N44369   6.463   2.348   8.746  0.4320 -0.4639  0.0899
  337MOL0     C44370   6.474   2.439   8.845  0.0727  0.1762  0.0470
  337MOL0     C44371   6.433   2.376   8.954  0.8236  0.0779 -0.1080
  337MOL0     C44372   6.408   2.439   9.080  0.7252  0.2247 -0.1188
  337MOL0     C44373   6.468   2.355   9.199 -0.2052 -0.6962 -0.1758
  337MOL0     C44374   6.478   2.447   9.323 -0.8064 -0.9902  0.0145
  337MOL0     C44375   6.348   2.460   9.397 -0.4579  0.1282  0.3743
  337MOL0     O44376   6.309   2.340   9.477 -0.5939  0.3863 -0.8580
  337MOL0     C44377   6.183   2.287   9.475 -0.0932  1.2666  0.4903
  337MOL0     C44378   6.123   2.279   9.599  0.2356  0.5098  0.3766
  337MOL0     C44379   5.998   2.223   9.605  0.4767  0.4900 -0.5231
  337MOL0     C44380   5.932   2.148   9.505 -0.0826  0.1371 -0.3005
  337MOL0     C44381   5.805   2.078   9.527 -0.2447 -0.2408  0.2498
  337MOL0     O44382   5.772   2.011   9.411 -0.1167  0.6933  1.0849
  337MOL0     C44383   5.668   1.918   9.413  0.2647  0.2732  0.6350
  337MOL0     C44384   5.558   1.949   9.329  0.0076 -0.4197  0.4749
  337MOL0     C44385   5.449   1.866   9.325 -0.3013  0.0985 -0.2648
  337MOL0     C44386   5.443   1.749   9.414 -0.2104 -0.6205 -0.8850
  337MOL0     O44387   5.336   1.654   9.414 -0.0133 -0.0457  0.5487
  337MOL0     C44388   5.304   1.583   9.538 -0.3716 -0.5907  0.7445
  337MOL0     C44389   5.158   1.535   9.547 -0.0610  0.8479 -1.4656
  337MOL0     C44390   5.120   1.511   9.691  0.4225  0.7110 -1.3645
  337MOL0     C44391   4.971   1.462   9.708 -0.2938  0.3570  0.2271
  337MOL0     C44392   4.941   1.470   9.853 -0.6860 -0.0655  1.5105
  337MOL0     C44393   5.007   1.355   9.938  0.1305  0.9748  0.6042
  337MOL0     C44394   4.941   1.356  10.079  0.1610 -0.4777  0.3506
  337MOL0     C44395   5.023   1.268  10.174  0.4566  1.0359  0.1254
  337MOL0    Cl44396   5.054   1.102  10.092  0.1108 -0.2955 -0.2442
  337MOL0     C44397   5.556   1.725   9.498 -0.2942  0.8159  0.5123
  337MOL0     C44398   5.669   1.803   9.490 -0.1389 -0.1418 -0.5356
  337MOL0     O44399   5.755   2.069   9.635  0.5698  0.9999 -0.1708
  337MOL0     C44400   6.000   2.146   9.387 -0.4637 -0.4504  0.0442
  337MOL0     C44401   6.120   2.219   9.369 -0.3968  0.6804 -0.3384
  337MOL0     N44402   6.384   2.257   8.917  0.6805 -0.5282  0.3048
  337MOL0     N44403   6.397   2.244   8.790  0.8153  0.8381 -0.5599
  337MOL0     C44404   7.375   2.670   7.841 -0.2771 -0.0745  0.3595
  337MOL0     C44405   7.508   2.659   7.810 -0.3998  0.1928 -0.0198
  337MOL0     C44406   7.984   2.696   7.925 -0.2201 -1.0216 -0.1779
  337MOL0     C44407   8.096   2.636   7.985 -0.4677  0.2274  0.6059
  337MOL0     C44408   8.226   2.684   7.950  0.3352  0.7070 -1.1161
  337MOL0     C44409   8.245   2.803   7.880 -0.1287  0.4936  0.3020
  337MOL0     O44410   8.369   2.854   7.838 -0.4389  0.1292 -0.2667
  337MOL0     C44411   8.485   2.816   7.911 -0.6374 -0.1921  0.6456
  337MOL0     C44412   8.486   2.844   8.064  0.4071  0.8667 -0.3930
  337MOL0     C44413   8.630   2.878   8.127  1.0527  0.0801  0.2463
  337MOL0     C44414   8.695   2.741   8.153  0.4361 -1.0797 -0.0684
  337MOL0     C44415   8.641   2.674   8.270 -0.5357  0.6000 -0.2552
  337MOL0     C44416   8.601   2.606   8.362 -0.5698 -0.5170 -0.1053
  337MOL0     C44417   8.130   2.859   7.820  0.5887 -0.6086 -0.2186
  337MOL0     C44418   7.999   2.814   7.843 -0.9464  0.2476 -0.0679
  337MOL0     H44419   7.638   2.686   8.122 -0.0090 -2.4523  1.2903
  337MOL0     H44420   7.407   2.665   8.179 -2.1292  0.6475 -0.1695
  337MOL0     H44421   7.164   2.729   8.177  0.2157 -0.7067  1.7980
  337MOL0     H44422   7.201   2.565   8.180  0.8019  0.5591 -1.3114
  337MOL0     H44423   6.982   2.493   8.075 -2.2801 -0.4355  2.8168
  337MOL0     H44424   6.941   2.659   8.043 -1.0769 -1.2612 -0.2810
  337MOL0     H44425   6.920   2.701   8.279  0.1066  0.5727 -0.0139
  337MOL0     H44426   7.011   2.563   8.325 -1.9177 -1.3553  0.9093
  337MOL0     H44427   6.739   2.555   8.222 -1.0580 -1.9128  0.5418
  337MOL0     H44428   6.841   2.414   8.197 -0.0374  0.1444  0.1721
  337MOL0     H44429   6.826   2.549   8.484 -0.1759 -2.0279  1.5465
  337MOL0     H44430   6.863   2.389   8.460  0.3908  0.1548  0.3328
  337MOL0     H44431   6.641   2.353   8.383  3.3076  1.6681 -3.7061
  337MOL0     H44432   6.588   2.526   8.415 -0.8078 -0.8262 -1.3379
  337MOL0     H44433   6.682   2.314   8.616 -2.7545 -3.4019 -1.7048
  337MOL0     H44434   6.663   2.486   8.651  0.5309  0.3321 -1.1703
  337MOL0     H44435   6.454   2.292   8.549  0.6128 -1.2145  2.5079
  337MOL0     H44436   6.434   2.471   8.572 -0.2076 -0.3674 -0.1688
  337MOL0     H44437   6.515   2.540   8.845 -0.6442  0.6403  3.7212
  337MOL0     H44438   6.302   2.462   9.086  0.3992 -0.4857 -2.2152
  337MOL0     H44439   6.469   2.530   9.071  1.5058 -0.4025 -1.5620
  337MOL0     H44440   6.571   2.322   9.182 -0.1795 -1.4561  1.2849
  337MOL0     H44441   6.406   2.269   9.225  3.0229 -2.9798  0.6725
  337MOL0     H44442   6.549   2.409   9.396 -0.8502 -0.6166  0.2561
  337MOL0     H44443   6.508   2.550   9.303 -0.4298 -1.2358 -0.7350
  337MOL0     H44444   6.278   2.496   9.321 -3.6411 -0.3140  2.8814
  337MOL0     H44445   6.355   2.549   9.461 -3.1169  2.1750 -1.9313
  337MOL0     H44446   6.158   2.331   9.687  1.5305  3.2705 -1.6157
  337MOL0     H44447   5.948   2.230   9.702  0.3116 -1.5559 -0.4208
  337MOL0     H44448   5.555   2.047   9.282 -1.5733  1.5475  4.2314
  337MOL0     H44449   5.365   1.892   9.262 -1.0380  2.0505  1.3904
  337MOL0     H44450   5.330   1.635   9.631 -1.8502  1.0437  0.3008
  337MOL0     H44451   5.353   1.486   9.544 -1.7521 -1.3064  1.0633
  337MOL0     H44452   5.156   1.439   9.495 -1.7859 -0.1675  0.3445
  337MOL0     H44453   5.087   1.604   9.500 -1.9955  1.0694  1.5136
  337MOL0     H44454   5.147   1.602   9.744  0.4626 -1.0488  1.9167
  337MOL0     H44455   5.187   1.441   9.741 -1.4545 -0.0269  0.2659
  337MOL0     H44456   4.909   1.522   9.641 -0.5657  1.5112  1.4643
  337MOL0     H44457   4.946   1.361   9.675 -1.3950  0.8879 -0.5981
  337MOL0     H44458   4.833   1.453   9.850 -1.0073  1.7713  1.7282
  337MOL0     H44459   4.966   1.564   9.901 -1.2530 -1.2865  4.3968
  337MOL0     H44460   5.114   1.378   9.942  0.6559 -0.9463 -0.8293
  337MOL0     H44461   4.997   1.259   9.887  2.2141  1.0384 -0.0001
  337MOL0     H44462   4.928   1.459  10.114 -0.3506 -0.7209  0.8772
  337MOL0     H44463   4.843   1.321  10.048  0.2628  1.7787 -3.1253
  337MOL0     H44464   4.976   1.255  10.272  4.0569 -1.8209  1.7289
  337MOL0     H44465   5.120   1.315  10.191 -0.0375  2.1650 -0.1116
  337MOL0     H44466   5.558   1.644   9.570 -2.0072  1.1229  0.9342
  337MOL0     H44467   5.763   1.779   9.539  0.9954  1.3741 -1.8385
  337MOL0     H44468   5.964   2.100   9.295  0.0572 -0.2877 -0.2438
  337MOL0     H44469   6.175   2.212   9.276 -0.9094 -0.3681 -0.5798
  337MOL0     H44470   7.301   2.668   7.761  1.0754  0.4031 -0.9665
  337MOL0     H44471   7.536   2.655   7.705 -0.9058  1.0234 -0.1967
  337MOL0     H44472   8.080   2.545   8.042 -1.6337 -0.0293 -0.0855
  337MOL0     H44473   8.314   2.632   7.989 -1.6413  1.2538  5.2731
  337MOL0     H44474   8.570   2.875   7.875 -1.2319  0.7990  0.8413
  337MOL0     H44475   8.507   2.712   7.887  0.5532 -0.1959  1.6114
  337MOL0     H44476   8.427   2.935   8.081  0.0015  0.2714  1.6608
  337MOL0     H44477   8.442   2.766   8.127 -0.5286  1.5830 -0.1310
  337MOL0     H44478   8.621   2.935   8.220  0.8415  0.4767 -0.0099
  337MOL0     H44479   8.692   2.937   8.059 -1.2327  0.8680 -1.2594
  337MOL0     H44480   8.683   2.688   8.058  0.1771 -0.7369 -0.2291
  337MOL0     H44481   8.800   2.765   8.171  0.7763 -0.6331 -2.3234
  337MOL0     H44482   8.562   2.543   8.440 -1.7947 -1.5483 -1.4996
  337MOL0     H44483   8.131   2.945   7.753 -1.0768 -1.1369 -0.9799
  337MOL0     H44484   7.913   2.861   7.795 -2.1576 -0.9552  0.8449
  338MOL0     O44485   7.449   2.964   1.299 -0.1875  0.1350  0.2281
  338MOL0     C44486   7.459   2.895   1.405 -1.0486 -0.5097 -0.5993
  338MOL0     O44487   7.386   2.780   1.433 -0.8182  0.1445 -0.3110
  338MOL0     C44488   7.265   2.779   1.376  0.0408 -0.5916 -0.3463
  338MOL0     C44489   7.191   2.895   1.346  0.0900 -0.3399 -0.1285
  338MOL0     C44490   7.071   2.876   1.277  0.8816  0.2031  0.1967
  338MOL0     C44491   7.012   2.752   1.262  0.0321 -0.2410 -0.0735
  338MOL0     O44492   6.891   2.722   1.204 -0.3843 -0.3754 -0.0465
  338MOL0     C44493   6.840   2.808   1.102  1.0350 -0.4346 -0.3353
  338MOL0     C44494   6.752   2.734   0.998  0.2636  0.7442 -0.9965
  338MOL0     C44495   6.748   2.818   0.869  0.6562  0.1292  0.2218
  338MOL0     C44496   6.612   2.834   0.806  0.7591 -0.3361 -0.8454
  338MOL0     C44497   6.618   2.902   0.665 -0.2880  0.7738 -0.1950
  338MOL0     C44498   6.639   3.047   0.681  0.0119 -0.8405  0.0889
  338MOL0     C44499   6.613   3.114   0.545 -0.3724  1.0251  0.4052
  338MOL0     C44500   6.469   3.112   0.508  0.6143 -0.0185  0.1542
  338MOL0     N44501   6.461   3.155   0.369 -0.4048  0.1095  0.2729
  338MOL0     C44502   6.369   3.238   0.305  1.1917  0.1032  0.6489
  338MOL0     C44503   6.383   3.233   0.171 -0.2997 -0.1197 -0.5289
  338MOL0     C44504   6.314   3.318   0.068 -0.7304 -0.2201  0.0845
  338MOL0     C44505   6.173   3.272   0.039  0.1590 -0.7640 -0.0424
  338MOL0     C44506   6.169   3.134  -0.036  0.5696 -0.9688  0.2641
  338MOL0     C44507   6.032   3.061  -0.044 -0.1481 -0.6259  0.6934
  338MOL0     O44508   5.930   3.142  -0.108  0.5612  0.7286 -0.1972
  338MOL0     C44509   5.801   3.103  -0.116 -0.2285  0.3259 -0.3583
  338MOL0     C44510   5.716   3.193  -0.175 -1.0861  0.0780  0.0708
  338MOL0     C44511   5.587   3.166  -0.181  0.3636 -0.7864  0.5490
  338MOL0     C44512   5.537   3.044  -0.141  0.7783  1.7163 -0.0343
  338MOL0     C44513   5.398   3.013  -0.186  0.5791 -0.6512  0.6521
  338MOL0     O44514   5.333   3.119  -0.252  0.1415 -0.1455  0.4746
  338MOL0     C44515   5.200   3.120  -0.254  0.3193  0.0019  1.0504
  338MOL0     C44516   5.130   3.224  -0.194  0.1309 -0.3081 -0.4856
  338MOL0     C44517   4.994   3.234  -0.222 -0.6671  0.1897  0.1823
  338MOL0     C44518   4.919   3.142  -0.299 -0.5423 -0.8718 -0.6513
  338MOL0     O44519   4.786   3.152  -0.339  0.2061 -0.5437  0.0555
  338MOL0     C44520   4.772   3.228  -0.456  0.2244  0.0813  0.7146
  338MOL0     C44521   4.755   3.379  -0.439  0.1011 -0.5400 -0.5357
  338MOL0     C44522   4.641   3.429  -0.350 -0.0651 -0.0057  0.3168
  338MOL0     C44523   4.601   3.563  -0.401  0.3748  0.2620  0.3816
  338MOL0     C44524   4.709   3.675  -0.399 -0.1322 -0.5379  0.5496
  338MOL0     C44525   4.771   3.695  -0.263 -1.0767  0.2340 -0.8528
  338MOL0     C44526   4.900   3.762  -0.283 -0.1677  0.2184 -0.7788
  338MOL0     C44527   5.008   3.656  -0.313 -0.0870  0.4654  1.0654
  338MOL0    Cl44528   5.171   3.713  -0.345  0.4322 -0.1295  0.2862
  338MOL0     C44529   4.995   3.041  -0.352  0.8968 -0.7001 -0.0945
  338MOL0     C44530   5.132   3.034  -0.331 -0.3094 -0.2151 -1.2794
  338MOL0     O44531   5.348   2.907  -0.157  0.3623  0.4317 -0.3276
  338MOL0     C44532   5.619   2.944  -0.086 -0.0616 -0.9922 -0.1379
  338MOL0     C44533   5.755   2.978  -0.065  0.4105  0.6929 -0.0521
  338MOL0     N44534   6.490   3.153   0.145  0.3952 -0.0770  0.3611
  338MOL0     N44535   6.524   3.097   0.256  0.3932  0.1011  0.6809
  338MOL0     C44536   7.086   2.637   1.304  0.4119 -0.8146 -0.2705
  338MOL0     C44537   7.209   2.651   1.354 -0.2628 -0.2643  0.4263
  338MOL0     C44538   7.545   2.942   1.524  0.5352 -0.1010 -0.5664
  338MOL0     C44539   7.615   3.068   1.523  0.2260  0.2853  0.9102
  338MOL0     C44540   7.702   3.092   1.627 -0.0675 -0.2420  0.3044
  338MOL0     C44541   7.723   3.009   1.736  0.3644 -0.4878  0.5644
  338MOL0     O44542   7.822   3.035   1.827  0.4840 -0.4780  0.1879
  338MOL0     C44543   7.817   2.968   1.958  0.1068 -0.7871  1.3126
  338MOL0     C44544   7.929   3.013   2.045  0.2273  0.0830 -0.8078
  338MOL0     C44545   8.068   3.014   1.989 -0.5184  0.4144  1.1815
  338MOL0     C44546   8.120   2.870   1.972 -0.0164  0.1387 -0.1305
  338MOL0     C44547   8.110   2.838   1.830  0.1066 -0.0444 -0.4200
  338MOL0     C44548   8.074   2.806   1.718 -0.5079  0.0363 -0.4243
  338MOL0     C44549   7.641   2.895   1.744 -0.4447  1.3503  1.4120
  338MOL0     C44550   7.559   2.860   1.638  0.5621  0.4129 -0.4376
  338MOL0     H44551   7.222   2.999   1.354 -0.7717 -0.1715  1.4842
  338MOL0     H44552   7.014   2.964   1.254  3.4917  0.9660 -5.0035
  338MOL0     H44553   6.927   2.851   1.053  0.0733  0.1168 -1.5955
  338MOL0     H44554   6.784   2.881   1.162 -0.1601  0.1966 -2.1397
  338MOL0     H44555   6.652   2.735   1.043  2.1525  0.6451  3.7591
  338MOL0     H44556   6.792   2.636   0.971  0.6627  0.7053 -0.2764
  338MOL0     H44557   6.809   2.769   0.792  0.7745  0.0016  0.3981
  338MOL0     H44558   6.781   2.922   0.880 -0.2635  0.5203 -0.5378
  338MOL0     H44559   6.580   2.730   0.790  0.6300 -0.7173  1.4140
  338MOL0     H44560   6.543   2.893   0.868  2.2079  0.9038 -0.3532
  338MOL0     H44561   6.523   2.891   0.611  0.3416  1.8620 -1.5957
  338MOL0     H44562   6.695   2.850   0.606  3.0071  1.5783  3.0523
  338MOL0     H44563   6.744   3.060   0.710  0.2553 -0.0095 -1.0724
  338MOL0     H44564   6.571   3.096   0.751  2.0264  3.8593 -0.8689
  338MOL0     H44565   6.650   3.217   0.546 -1.8604  1.5881 -0.1147
  338MOL0     H44566   6.660   3.054   0.466 -4.1649 -2.3863  0.4229
  338MOL0     H44567   6.421   3.178   0.581 -0.6136  2.1748 -2.4257
  338MOL0     H44568   6.413   3.018   0.516  0.2569 -0.1453 -2.7122
  338MOL0     H44569   6.281   3.280   0.353  0.8671 -0.9359  0.9758
  338MOL0     H44570   6.366   3.310  -0.027 -2.5320  2.5331 -1.2535
  338MOL0     H44571   6.329   3.420   0.105  2.5523  0.0931 -1.8014
  338MOL0     H44572   6.135   3.356  -0.020  0.4939 -1.5362 -1.3766
  338MOL0     H44573   6.115   3.260   0.131 -0.9009 -2.0169 -0.8402
  338MOL0     H44574   6.211   3.153  -0.136 -0.0389 -0.2534  0.1317
  338MOL0     H44575   6.248   3.074   0.009  0.3619 -1.0336  0.5389
  338MOL0     H44576   6.001   3.034   0.057  0.3792 -1.2335  0.6967
  338MOL0     H44577   6.042   2.961  -0.086 -1.9912 -0.6462  0.2218
  338MOL0     H44578   5.759   3.286  -0.211 -1.3847  0.5450  0.9076
  338MOL0     H44579   5.518   3.237  -0.226 -0.9071 -1.7070  0.9846
  338MOL0     H44580   5.184   3.295  -0.133 -1.2486 -0.5293  1.0467
  338MOL0     H44581   4.946   3.321  -0.177  0.0627  0.5024  0.3724
  338MOL0     H44582   4.679   3.188  -0.497  2.2844 -3.4772 -1.0141
  338MOL0     H44583   4.856   3.209  -0.523 -0.3404  1.1406 -0.3343
  338MOL0     H44584   4.734   3.411  -0.542  2.0386 -0.3738 -0.9206
  338MOL0     H44585   4.847   3.428  -0.406 -0.2367 -0.7457  0.7600
  338MOL0     H44586   4.658   3.414  -0.243 -0.4668 -1.3995  0.1970
  338MOL0     H44587   4.564   3.354  -0.367  2.9592 -3.2109 -0.5655
  338MOL0     H44588   4.564   3.559  -0.504 -0.8024 -3.9059  0.7749
  338MOL0     H44589   4.518   3.596  -0.338  1.4406  0.5761  1.6683
  338MOL0     H44590   4.664   3.770  -0.430  0.6279 -0.5030 -0.5025
  338MOL0     H44591   4.784   3.651  -0.475 -0.9898  1.4123 -1.0242
  338MOL0     H44592   4.789   3.605  -0.203 -0.7419  0.5851 -0.4186
  338MOL0     H44593   4.704   3.761  -0.207 -1.1399  0.4530 -1.1871
  338MOL0     H44594   4.907   3.829  -0.369  1.0680  0.2923 -0.6415
  338MOL0     H44595   4.925   3.813  -0.189 -1.6913 -0.7633  0.2002
  338MOL0     H44596   4.990   3.607  -0.409  2.2993  1.9104 -0.2114
  338MOL0     H44597   5.016   3.579  -0.236 -1.5120 -0.3482  0.4409
  338MOL0     H44598   4.950   2.974  -0.424 -0.5705  0.9721 -0.8125
  338MOL0     H44599   5.184   2.948  -0.373  0.9932 -1.0167  1.6784
  338MOL0     H44600   5.578   2.849  -0.054  4.4832 -3.2616 -0.2517
  338MOL0     H44601   5.824   2.910  -0.017  0.9214  2.9983  2.7380
  338MOL0     H44602   7.045   2.537   1.294  0.2240 -0.8878  1.0256
  338MOL0     H44603   7.266   2.567   1.394 -1.2221 -0.5024  1.3357
  338MOL0     H44604   7.610   3.132   1.436 -4.8684 -0.8787  0.0200
  338MOL0     H44605   7.751   3.188   1.620  0.2785 -0.3907  0.6746
  338MOL0     H44606   7.820   2.859   1.945 -2.9979 -0.8225 -0.0092
  338MOL0     H44607   7.720   2.985   2.005 -0.5329 -1.4935  0.3002
  338MOL0     H44608   7.902   3.119   2.049  2.5502  0.7023 -0.1589
  338MOL0     H44609   7.930   2.964   2.142  2.3972  0.4347 -0.5934
  338MOL0     H44610   8.133   3.060   2.065  0.8456  0.6079 -0.0587
  338MOL0     H44611   8.062   3.071   1.896  0.2807 -0.2595  0.7097
  338MOL0     H44612   8.222   2.869   2.011 -0.0233  1.8603  0.0108
  338MOL0     H44613   8.052   2.800   2.022 -2.1257  2.3994  0.3764
  338MOL0     H44614   8.041   2.786   1.618  1.1348  0.8078 -1.1677
  338MOL0     H44615   7.654   2.823   1.824 -2.9531  0.3258  0.9942
  338MOL0     H44616   7.510   2.764   1.642  0.3572  0.5285  3.5999
  339MOL0     O44617   5.990   4.067   2.982 -0.1928 -0.0713  0.4086
  339MOL0     C44618   5.989   4.177   3.036 -0.2423 -0.1238 -0.0743
  339MOL0     O44619   5.879   4.238   3.082 -0.5571  0.0800 -0.6659
  339MOL0     C44620   5.757   4.202   3.046  0.6315 -0.5619 -0.0831
  339MOL0     C44621   5.716   4.069   3.039  0.0921 -0.0736 -0.4192
  339MOL0     C44622   5.576   4.042   3.041 -0.1041  0.8652 -0.5688
  339MOL0     C44623   5.476   4.131   3.030  0.0379 -0.7255  0.4121
  339MOL0     O44624   5.341   4.096   3.038  0.6031  0.3348 -0.9543
  339MOL0     C44625   5.305   3.994   3.132  0.0792  0.2828 -0.1931
  339MOL0     C44626   5.149   3.984   3.164  0.4387 -1.1257  0.1240
  339MOL0     C44627   5.077   3.939   3.037 -0.6173  0.1230 -0.2546
  339MOL0     C44628   4.932   3.943   3.069 -0.0063  0.5953  0.7739
  339MOL0     C44629   4.848   3.920   2.944  1.2069 -0.6404  0.5022
  339MOL0     C44630   4.700   3.917   2.975  0.5197 -0.0754 -0.2571
  339MOL0     C44631   4.617   3.856   2.862 -0.3112  0.5797 -0.0728
  339MOL0     C44632   4.471   3.816   2.894 -0.2577 -1.2781 -0.2859
  339MOL0     N44633   4.399   3.780   2.765  0.4838 -0.1218 -0.0899
  339MOL0     C44634   4.442   3.681   2.674 -0.2970 -0.3101  0.3858
  339MOL0     C44635   4.339   3.678   2.588  0.1860 -0.2921  1.0723
  339MOL0     C44636   4.343   3.586   2.476 -0.4820  0.4108  0.6141
  339MOL0     C44637   4.207   3.549   2.412  0.1512 -0.8926  0.2350
  339MOL0     C44638   4.116   3.467   2.506  0.0510 -0.1144 -0.1573
  339MOL0     C44639   3.978   3.513   2.476 -0.0014 -0.6292  0.3230
  339MOL0     O44640   3.887   3.438   2.551  1.0017  0.4533 -0.0269
  339MOL0     C44641   3.754   3.452   2.547  0.8160 -0.2313  1.1477
  339MOL0     C44642   3.678   3.349   2.598  0.3579  0.3899  0.1975
  339MOL0     C44643   3.537   3.337   2.586  0.7600 -0.3806  0.3076
  339MOL0     C44644   3.465   3.445   2.523  0.0564 -0.5772 -0.5543
  339MOL0     C44645   3.317   3.444   2.513  0.0706 -1.4095 -0.3800
  339MOL0     O44646   3.248   3.549   2.451 -0.4140  0.1604 -0.5814
  339MOL0     C44647   3.117   3.539   2.431 -0.3046 -0.4569 -0.6976
  339MOL0     C44648   3.072   3.549   2.303 -0.3052  0.3647  0.1248
  339MOL0     C44649   2.934   3.541   2.278 -0.0807 -0.8935 -0.5847
  339MOL0     C44650   2.838   3.493   2.381 -0.8409 -0.7614  0.2484
  339MOL0     O44651   2.708   3.482   2.348  0.8069 -0.1677  0.7530
  339MOL0     C44652   2.651   3.619   2.356  0.0755 -0.3349  0.2905
  339MOL0     C44653   2.534   3.640   2.253  0.4104 -0.6715  0.0921
  339MOL0     C44654   2.403   3.580   2.305  1.0508 -0.2642  0.1357
  339MOL0     C44655   2.282   3.592   2.208  0.6381  0.3846 -0.5094
  339MOL0     C44656   2.159   3.655   2.277  0.2511 -0.1311  0.7888
  339MOL0     C44657   2.037   3.687   2.184 -0.5791 -0.2916  0.2523
  339MOL0     C44658   1.908   3.714   2.256  0.5795  0.3320  0.4023
  339MOL0     C44659   1.792   3.729   2.162  0.0233  0.9787  0.5558
  339MOL0    Cl44660   1.660   3.745   2.271  0.1831 -0.6465  0.4314
  339MOL0     C44661   2.889   3.473   2.512  0.6170 -0.5428 -0.5946
  339MOL0     C44662   3.028   3.499   2.528  0.7209 -0.2308  0.5924
  339MOL0     O44663   3.266   3.346   2.564 -0.4286 -0.4480 -0.1063
  339MOL0     C44664   3.538   3.550   2.474 -1.1408  0.0567 -0.9569
  339MOL0     C44665   3.679   3.557   2.483  0.1869 -0.1473 -0.6925
  339MOL0     N44666   4.232   3.761   2.627  0.5557  0.6160 -0.4373
  339MOL0     N44667   4.279   3.834   2.724  0.1807 -0.1064  0.0106
  339MOL0     C44668   5.518   4.265   3.028 -0.9048 -0.3380 -0.2916
  339MOL0     C44669   5.659   4.297   3.034  0.4310 -0.1449 -0.0108
  339MOL0     C44670   6.116   4.249   3.083 -0.7751  0.2456 -0.3284
  339MOL0     C44671   6.106   4.383   3.136 -0.1092 -0.3359 -1.1079
  339MOL0     C44672   6.223   4.438   3.192 -0.3188  0.0754  0.1202
  339MOL0     C44673   6.352   4.380   3.167  0.3670  0.1932  0.0261
  339MOL0     O44674   6.453   4.464   3.189 -0.1099  0.6382 -0.3286
  339MOL0     C44675   6.590   4.416   3.184  0.0843  0.4801  1.1246
  339MOL0     C44676   6.673   4.516   3.246 -0.6040  0.5857  0.1688
  339MOL0     C44677   6.704   4.638   3.151 -0.1547 -0.1382 -0.6980
  339MOL0     C44678   6.847   4.620   3.094  0.3422  0.3977  0.7340
  339MOL0     C44679   6.879   4.727   3.007 -0.1099 -0.5958  0.9121
  339MOL0     C44680   6.906   4.815   2.931 -0.1613 -0.0097  0.6526
  339MOL0     C44681   6.359   4.260   3.103  0.0245  0.1027  0.1744
  339MOL0     C44682   6.244   4.192   3.066 -0.2862 -0.1051 -0.0503
  339MOL0     H44683   5.792   3.992   3.051  2.4231  2.1068 -0.4747
  339MOL0     H44684   5.551   3.937   3.034 -0.9535  1.0796 -0.8950
  339MOL0     H44685   5.354   4.021   3.226 -1.6633  2.7192  0.1404
  339MOL0     H44686   5.327   3.893   3.096 -3.1168 -0.7134  0.3750
  339MOL0     H44687   5.114   4.081   3.198  1.2360 -1.9390  3.6050
  339MOL0     H44688   5.133   3.912   3.245  0.9089  0.4960  1.7091
  339MOL0     H44689   5.105   3.838   3.006  1.6596  0.5181  0.2938
  339MOL0     H44690   5.107   4.012   2.962  1.3715  0.6018  0.9325
  339MOL0     H44691   4.908   3.868   3.145 -1.8526  0.5979  0.2516
  339MOL0     H44692   4.905   4.038   3.116  0.4067  0.8860  0.4181
  339MOL0     H44693   4.884   3.833   2.888 -0.3536  1.2722 -3.9390
  339MOL0     H44694   4.874   3.998   2.872  0.9240 -1.8060 -0.9392
  339MOL0     H44695   4.662   4.015   3.005  0.6949 -0.7450  2.4265
  339MOL0     H44696   4.688   3.853   3.063  2.2970 -0.9190 -0.5622
  339MOL0     H44697   4.627   3.922   2.776 -0.4514  1.3935  0.5147
  339MOL0     H44698   4.671   3.769   2.824  0.6987  0.9723  0.4338
  339MOL0     H44699   4.419   3.891   2.954  0.6541 -1.7895  1.1751
  339MOL0     H44700   4.476   3.722   2.950  1.4498 -0.7180  0.5614
  339MOL0     H44701   4.542   3.641   2.660  0.4158  2.1899 -3.1049
  339MOL0     H44702   4.384   3.493   2.516 -1.0469  0.4400  1.2841
  339MOL0     H44703   4.420   3.624   2.409 -0.6525 -0.3730 -0.0395
  339MOL0     H44704   4.220   3.482   2.326  0.6131  0.6696 -0.9778
  339MOL0     H44705   4.165   3.644   2.377  1.2224 -0.8741 -1.1029
  339MOL0     H44706   4.127   3.363   2.474  1.1609  0.0668 -0.4261
  339MOL0     H44707   4.137   3.481   2.612 -1.9792 -0.7244  0.3716
  339MOL0     H44708   3.963   3.505   2.368 -1.1282 -0.6910  0.4763
  339MOL0     H44709   3.965   3.615   2.514  0.3415  0.0828 -1.3483
  339MOL0     H44710   3.724   3.275   2.663 -0.3353 -0.8756 -0.6963
  339MOL0     H44711   3.495   3.243   2.620 -0.5904 -0.0825 -0.4616
  339MOL0     H44712   3.138   3.573   2.220  0.2530 -2.8815 -0.4993
  339MOL0     H44713   2.889   3.571   2.184 -2.0578  1.6328  1.0422
  339MOL0     H44714   2.722   3.699   2.340  0.3542 -1.0001 -2.2358
  339MOL0     H44715   2.609   3.636   2.456 -0.0741  3.4165 -0.2735
  339MOL0     H44716   2.574   3.584   2.168  1.3668 -1.9012  1.3072
  339MOL0     H44717   2.523   3.745   2.224 -1.2656 -1.6243 -3.3074
  339MOL0     H44718   2.370   3.608   2.406 -1.5078 -1.1308 -0.3827
  339MOL0     H44719   2.419   3.472   2.315 -1.3547 -1.0377 -2.7600
  339MOL0     H44720   2.311   3.665   2.131  1.7236  1.1074  0.5456
  339MOL0     H44721   2.249   3.501   2.158 -0.9369  1.7427 -2.0918
  339MOL0     H44722   2.191   3.757   2.300 -0.3338  0.0995  0.5938
  339MOL0     H44723   2.124   3.600   2.365 -1.0059  2.8307  2.2813
  339MOL0     H44724   2.024   3.608   2.110  2.1777  0.0323 -0.6996
  339MOL0     H44725   2.074   3.765   2.117 -1.5404 -0.2193 -0.2037
  339MOL0     H44726   1.894   3.626   2.318  2.1327  0.3598  0.8373
  339MOL0     H44727   1.920   3.790   2.334 -0.5705  0.0830  0.8407
  339MOL0     H44728   1.788   3.637   2.103 -0.0168  1.6811 -0.5611
  339MOL0     H44729   1.799   3.817   2.098  2.3273  1.3406  1.2166
  339MOL0     H44730   2.823   3.451   2.595  0.8906 -2.0650 -0.7528
  339MOL0     H44731   3.068   3.469   2.624  1.3660 -4.2614 -0.7694
  339MOL0     H44732   3.496   3.637   2.423 -0.8673  0.4910 -0.4523
  339MOL0     H44733   3.725   3.645   2.438 -0.9956  0.8027 -0.0938
  339MOL0     H44734   5.444   4.344   3.021 -0.1849  0.5198  1.1777
  339MOL0     H44735   5.677   4.403   3.034 -0.4239  0.0220 -1.3714
  339MOL0     H44736   6.010   4.432   3.146  0.4639  0.6807 -0.4106
  339MOL0     H44737   6.201   4.535   3.234 -2.3035 -0.3511  0.1587
  339MOL0     H44738   6.621   4.405   3.079 -2.2660  0.6374  0.3650
  339MOL0     H44739   6.594   4.317   3.230  0.9991 -0.7825 -1.4883
  339MOL0     H44740   6.628   4.548   3.340  1.2240  2.7043  0.4040
  339MOL0     H44741   6.769   4.474   3.277 -1.2771 -0.3666  1.0044
  339MOL0     H44742   6.713   4.723   3.220 -0.4376  0.6969 -1.6592
  339MOL0     H44743   6.625   4.647   3.076 -1.5624 -5.7704 -0.2831
  339MOL0     H44744   6.919   4.601   3.175 -0.5760  0.3910  1.5620
  339MOL0     H44745   6.856   4.531   3.032  0.4004  0.8460  0.0861
  339MOL0     H44746   6.926   4.897   2.865 -2.4020 -1.2418 -1.7125
  339MOL0     H44747   6.452   4.211   3.078  1.2177  2.1655  0.3683
  339MOL0     H44748   6.249   4.093   3.023 -2.2639 -0.5313  0.6421
  340MOL0     O44749   2.060   1.555   2.337  0.1804 -0.7068  0.8687
  340MOL0     C44750   2.079   1.646   2.256 -1.0703 -0.1463 -0.3577
  340MOL0     O44751   1.994   1.743   2.213  0.0387 -0.5218 -1.0521
  340MOL0     C44752   1.858   1.732   2.237 -0.0017 -0.5041 -0.6320
  340MOL0     C44753   1.780   1.636   2.173 -0.2003  0.4355 -0.8365
  340MOL0     C44754   1.645   1.628   2.199  0.1803 -1.3217 -0.3014
  340MOL0     C44755   1.577   1.717   2.286 -0.2328 -0.2132 -0.0083
  340MOL0     O44756   1.447   1.721   2.328  0.1911 -0.1400  0.1382
  340MOL0     C44757   1.367   1.607   2.292  0.0684  0.2003 -0.7612
  340MOL0     C44758   1.235   1.623   2.367  0.6436  0.1683  0.9729
  340MOL0     C44759   1.116   1.543   2.301 -0.1438 -0.3835 -0.1643
  340MOL0     C44760   0.992   1.587   2.379 -0.1868  0.9000  0.4019
  340MOL0     C44761   0.855   1.543   2.315 -0.1523  0.1356 -0.3781
  340MOL0     C44762   0.742   1.537   2.412  0.0138  0.2707 -0.3903
  340MOL0     C44763   0.714   1.660   2.502 -0.0650  0.0709 -0.8354
  340MOL0     C44764   0.657   1.782   2.417  0.8667 -0.0173 -0.4993
  340MOL0     N44765   0.556   1.750   2.322 -0.4404  0.8943 -0.2698
  340MOL0     C44766   0.431   1.697   2.351  0.0014  0.0816 -0.1233
  340MOL0     C44767   0.396   1.631   2.236 -0.9373  0.0684  0.5305
  340MOL0     C44768   0.268   1.552   2.218 -0.2001  0.1940  0.8793
  340MOL0     C44769   0.205   1.549   2.072 -0.8688  0.2000 -0.2646
  340MOL0     C44770   0.163   1.692   2.023 -1.4055  0.6581 -0.4644
  340MOL0     C44771   0.094   1.683   1.884 -0.1643 -0.2323  0.2177
  340MOL0     O44772  -0.006   1.580   1.894  0.9920  0.4052  0.3064
  340MOL0     C44773  -0.139   1.608   1.930 -0.0434  0.0172 -0.1302
  340MOL0     C44774  -0.243   1.523   1.885 -0.1590 -0.4882 -0.3114
  340MOL0     C44775  -0.379   1.547   1.911 -0.7633 -0.4801  0.1330
  340MOL0     C44776  -0.413   1.663   1.985 -1.3777  0.5793 -0.8620
  340MOL0     C44777  -0.552   1.705   2.012  0.0816 -0.2087 -0.0912
  340MOL0     O44778  -0.648   1.631   1.942  0.0486 -0.1176  0.1570
  340MOL0     C44779  -0.778   1.662   1.982 -0.1790 -0.4557  0.1697
  340MOL0     C44780  -0.846   1.593   2.090 -0.0401 -0.2441 -0.3698
  340MOL0     C44781  -0.978   1.624   2.119 -0.1185  0.3703  0.1225
  340MOL0     C44782  -1.040   1.727   2.046 -0.0581 -0.0515  0.7173
  340MOL0     O44783  -1.161   1.781   2.086  0.0262  0.0152 -0.3093
  340MOL0     C44784  -1.260   1.681   2.119  0.1053  0.1026  0.3326
  340MOL0     C44785  -1.397   1.736   2.089 -0.0475 -0.3444 -0.3381
  340MOL0     C44786  -1.512   1.658   2.141  0.1437 -0.2585 -0.4025
  340MOL0     C44787  -1.644   1.732   2.122  0.4838  0.3044  0.4532
  340MOL0     C44788  -1.773   1.644   2.148 -0.4708 -1.0162 -0.9220
  340MOL0     C44789  -1.906   1.725   2.157  0.4227 -0.6426  0.4534
  340MOL0     C44790  -2.026   1.638   2.183  0.0383 -2.0671  0.1205
  340MOL0     C44791  -2.153   1.719   2.159 -0.2772  0.0212  0.1856
  340MOL0    Cl44792  -2.277   1.604   2.093  0.2913 -0.0882 -0.5623
  340MOL0     C44793  -0.978   1.796   1.947  0.4595  1.0477  0.2843
  340MOL0     C44794  -0.851   1.760   1.906  0.0865 -0.5579 -0.1932
  340MOL0     O44795  -0.569   1.796   2.092  0.0900 -0.4135  0.4395
  340MOL0     C44796  -0.301   1.745   2.036  0.7398  0.4928 -0.0798
  340MOL0     C44797  -0.170   1.718   2.010 -0.7195  0.3694 -0.2543
  340MOL0     N44798   0.487   1.678   2.138  0.3746  0.3304 -1.0566
  340MOL0     N44799   0.588   1.734   2.190  0.3920 -0.0252 -1.4090
  340MOL0     C44800   1.654   1.807   2.354 -0.1171  0.3563  0.3890
  340MOL0     C44801   1.793   1.821   2.325  0.4252  0.1898  0.0617
  340MOL0     C44802   2.220   1.637   2.199 -0.2918  0.4041  0.3273
  340MOL0     C44803   2.283   1.513   2.184  0.6056  0.1275 -1.2118
  340MOL0     C44804   2.417   1.512   2.145  0.7599  0.9630 -0.2920
  340MOL0     C44805   2.490   1.628   2.122  0.6483 -0.3795  0.2454
  340MOL0     O44806   2.618   1.613   2.085  0.1188  0.3824 -0.1761
  340MOL0     C44807   2.639   1.650   1.943 -0.7150 -0.6569  0.2862
  340MOL0     C44808   2.791   1.661   1.904  0.5682 -0.2514  0.5113
  340MOL0     C44809   2.861   1.756   2.003  0.6884  0.8145 -1.0685
  340MOL0     C44810   3.004   1.784   1.966 -0.3265 -0.8588 -0.0498
  340MOL0     C44811   3.109   1.695   1.998 -0.2952  0.5064 -0.4332
  340MOL0     C44812   3.188   1.613   2.039 -1.3174 -0.0551  0.3512
  340MOL0     C44813   2.428   1.756   2.136  0.4266  0.2002 -0.2760
  340MOL0     C44814   2.287   1.758   2.170 -0.1389  0.0825 -0.3134
  340MOL0     H44815   1.825   1.558   2.112  1.6114  0.4464  0.4053
  340MOL0     H44816   1.580   1.556   2.149 -3.2188  1.6810 -0.6742
  340MOL0     H44817   1.406   1.514   2.333 -1.3918 -0.2970 -0.4472
  340MOL0     H44818   1.358   1.593   2.184 -0.2100 -1.4909 -0.5363
  340MOL0     H44819   1.218   1.731   2.354  1.9729  0.2036 -0.9177
  340MOL0     H44820   1.244   1.595   2.473 -1.3941  2.3856  1.8222
  340MOL0     H44821   1.139   1.436   2.306  0.2801 -0.4255 -2.0883
  340MOL0     H44822   1.116   1.562   2.193 -1.4553 -1.7803 -0.4457
  340MOL0     H44823   0.988   1.544   2.480 -0.8975 -0.4519 -0.1636
  340MOL0     H44824   0.988   1.696   2.389 -3.5729  0.9350 -0.0383
  340MOL0     H44825   0.874   1.447   2.267 -1.3596  0.0419 -0.6974
  340MOL0     H44826   0.841   1.620   2.239  0.5690 -0.7295 -1.4207
  340MOL0     H44827   0.776   1.454   2.475 -0.2402  1.0107  0.7416
  340MOL0     H44828   0.644   1.513   2.370 -0.3034  1.6888 -0.5070
  340MOL0     H44829   0.643   1.636   2.581  2.6654  2.1725  2.5809
  340MOL0     H44830   0.803   1.696   2.555  0.0951 -0.8897 -0.4306
  340MOL0     H44831   0.736   1.831   2.360 -1.8548  2.2989 -2.6483
  340MOL0     H44832   0.609   1.851   2.487  1.6742  0.7498 -0.6832
  340MOL0     H44833   0.379   1.700   2.446 -1.5457  0.4508 -0.9572
  340MOL0     H44834   0.195   1.598   2.285  1.2940 -0.1494  2.8485
  340MOL0     H44835   0.295   1.453   2.257  4.7582  0.6891 -0.5291
  340MOL0     H44836   0.122   1.479   2.059 -0.6968  0.1047 -0.9298
  340MOL0     H44837   0.283   1.500   2.012  1.0623 -0.6325  2.6902
  340MOL0     H44838   0.107   1.737   2.105  1.5129 -0.2034  2.2214
  340MOL0     H44839   0.248   1.760   2.014 -2.5589  2.5956  2.2207
  340MOL0     H44840   0.163   1.659   1.802 -1.5632 -0.3194 -0.9670
  340MOL0     H44841   0.042   1.778   1.872 -3.9803 -2.1395  0.2573
  340MOL0     H44842  -0.222   1.433   1.827 -1.7116 -0.8520 -0.3502
  340MOL0     H44843  -0.447   1.470   1.877  0.7616 -2.0392  0.4653
  340MOL0     H44844  -0.783   1.528   2.151 -2.0356 -2.5099 -0.5974
  340MOL0     H44845  -1.034   1.573   2.196 -1.1562  2.3062  0.7246
  340MOL0     H44846  -1.249   1.651   2.223 -0.5248  0.8327  0.6181
  340MOL0     H44847  -1.246   1.589   2.061  0.4081  0.8024 -0.7325
  340MOL0     H44848  -1.401   1.747   1.980  1.6798  2.5734 -0.2092
  340MOL0     H44849  -1.413   1.836   2.130 -2.1100  0.9570 -3.7884
  340MOL0     H44850  -1.494   1.625   2.244  1.8399  1.4046 -0.1317
  340MOL0     H44851  -1.516   1.563   2.086  0.2864 -2.0129  2.3879
  340MOL0     H44852  -1.646   1.822   2.185 -2.2239  0.6025  0.0303
  340MOL0     H44853  -1.649   1.755   2.016 -0.5192  0.6254  0.5665
  340MOL0     H44854  -1.750   1.604   2.247 -1.6739  1.5209  0.4555
  340MOL0     H44855  -1.777   1.564   2.073 -3.7937  0.0072 -2.0126
  340MOL0     H44856  -1.922   1.785   2.068 -0.7655 -0.0095  1.0798
  340MOL0     H44857  -1.895   1.786   2.247  0.8309 -1.5432  1.0353
  340MOL0     H44858  -2.028   1.559   2.106  1.7239 -1.1165 -0.9696
  340MOL0     H44859  -2.027   1.605   2.287 -1.1658 -2.8840 -0.1301
  340MOL0     H44860  -2.138   1.802   2.088 -0.1145  1.2446  1.6054
  340MOL0     H44861  -2.178   1.766   2.255  2.9378 -0.8766  1.5782
  340MOL0     H44862  -1.030   1.881   1.903 -1.6936 -2.0532 -3.9807
  340MOL0     H44863  -0.790   1.805   1.828  1.5638 -4.8428 -1.7916
  340MOL0     H44864  -0.322   1.824   2.108  1.3907 -0.3873  1.1150
  340MOL0     H44865  -0.089   1.785   2.035 -1.5644  1.4877 -0.4722
  340MOL0     H44866   1.605   1.866   2.431  1.5415  1.2344  0.8114
  340MOL0     H44867   1.851   1.896   2.378  0.4732 -0.8161  1.4976
  340MOL0     H44868   2.234   1.416   2.195 -0.0139  0.3347 -2.0058
  340MOL0     H44869   2.476   1.421   2.138  3.6077  2.7911 -1.9395
  340MOL0     H44870   2.596   1.750   1.928 -1.4487 -1.0853 -0.4864
  340MOL0     H44871   2.592   1.578   1.875 -1.7458  1.7827 -1.7545
  340MOL0     H44872   2.828   1.558   1.898  2.3622  0.3859  0.2166
  340MOL0     H44873   2.803   1.705   1.805  2.4679  2.3240  1.7957
  340MOL0     H44874   2.861   1.713   2.104  2.7670  1.0101 -0.9422
  340MOL0     H44875   2.798   1.843   1.983 -2.9386 -0.6580  2.4125
  340MOL0     H44876   3.000   1.791   1.857 -0.9499 -1.8866 -0.1120
  340MOL0     H44877   3.030   1.880   2.013 -2.4051 -0.7651  1.0132
  340MOL0     H44878   3.264   1.541   2.062 -0.6621 -0.9979 -3.8915
  340MOL0     H44879   2.477   1.851   2.123 -0.8113  1.1745  1.6342
  340MOL0     H44880   2.237   1.852   2.195  1.3802  0.5046  1.3716
  341MOL0     O44881   2.178  10.862   6.053  0.7865  0.2230 -0.2586
  341MOL0     C44882   2.226  10.846   5.940  0.2540  0.4198  0.0932
  341MOL0     O44883   2.159  10.795   5.828 -0.1281 -0.2735  0.9396
  341MOL0     C44884   2.033  10.748   5.818 -0.0743 -0.7099 -0.3952
  341MOL0     C44885   1.990  10.659   5.909  0.1264  0.2583 -0.2174
  341MOL0     C44886   1.865  10.602   5.900  0.1030  0.2430  0.9305
  341MOL0     C44887   1.770  10.663   5.812 -0.6496 -0.0003  0.7209
  341MOL0     O44888   1.639  10.625   5.789 -0.1340 -0.2374 -0.1804
  341MOL0     C44889   1.596  10.504   5.860 -0.3842 -0.3263 -0.2126
  341MOL0     C44890   1.449  10.496   5.835 -1.4547  0.2497 -0.0184
  341MOL0     C44891   1.392  10.416   5.950  0.4370  0.0028  0.7013
  341MOL0     C44892   1.237  10.420   5.937  0.4701  0.2713 -0.1668
  341MOL0     C44893   1.167  10.363   6.056  0.0134  0.1277 -0.3213
  341MOL0     C44894   1.209  10.219   6.098  1.0503  0.9499 -0.9768
  341MOL0     C44895   1.164  10.195   6.245  0.2623 -0.1030  0.1409
  341MOL0     C44896   1.224  10.072   6.311  0.4191 -0.5413 -0.3894
  341MOL0     N44897   1.363  10.100   6.350 -0.4918 -0.8724  0.7474
  341MOL0     C44898   1.480  10.090   6.278 -0.4946  0.1247 -0.3406
  341MOL0     C44899   1.578  10.112   6.372 -0.6144  0.0008  0.0284
  341MOL0     C44900   1.723  10.122   6.343 -0.3041  0.4441 -0.6268
  341MOL0     C44901   1.794   9.986   6.334  0.5501 -0.1948 -0.0946
  341MOL0     C44902   1.810   9.911   6.466  0.1117 -0.1542  0.7528
  341MOL0     C44903   1.953   9.939   6.505 -0.4923 -0.3936 -1.4460
  341MOL0     O44904   2.045   9.847   6.447  0.1369  0.0073 -0.1980
  341MOL0     C44905   2.173   9.825   6.499 -0.0390 -0.1657 -0.4302
  341MOL0     C44906   2.255   9.733   6.436  0.0490 -0.0546 -0.2945
  341MOL0     C44907   2.385   9.700   6.479  0.8873 -0.2871  0.4129
  341MOL0     C44908   2.439   9.768   6.584 -0.8358 -0.5728  0.4359
  341MOL0     C44909   2.578   9.742   6.633  0.3424  0.0637 -0.1314
  341MOL0     O44910   2.631   9.838   6.722 -0.6222 -0.2212  0.4206
  341MOL0     C44911   2.767   9.838   6.757  0.4050  0.0262 -0.1022
  341MOL0     C44912   2.862   9.808   6.663 -0.1267 -0.2297  0.2670
  341MOL0     C44913   2.995   9.813   6.691 -0.4464 -0.9722  0.8786
  341MOL0     C44914   3.043   9.836   6.817  0.5728 -0.1235 -0.8717
  341MOL0     O44915   3.176   9.840   6.853 -0.8024  0.2296  0.0858
  341MOL0     C44916   3.276   9.783   6.756  0.2196 -0.6003  0.6734
  341MOL0     C44917   3.409   9.762   6.814  0.0623 -0.2767 -0.4343
  341MOL0     C44918   3.390   9.666   6.929 -0.4364  0.2869  0.1949
  341MOL0     C44919   3.516   9.582   6.944  0.4913 -0.1877  0.3334
  341MOL0     C44920   3.508   9.473   7.054  0.3279 -0.4438 -0.0974
  341MOL0     C44921   3.592   9.349   7.030 -0.0136 -0.4142  0.6012
  341MOL0     C44922   3.559   9.235   7.127  0.1656  0.2174  0.0225
  341MOL0     C44923   3.585   9.260   7.271 -0.4850 -0.0027 -0.5224
  341MOL0    Cl44924   3.762   9.269   7.288 -0.7982  0.4893 -0.4899
  341MOL0     C44925   2.942   9.855   6.919 -0.2829  0.5306  0.8332
  341MOL0     C44926   2.807   9.856   6.886  0.0113 -0.2921 -0.4253
  341MOL0     O44927   2.640   9.642   6.598  0.1499 -0.5759  0.4371
  341MOL0     C44928   2.363   9.859   6.650  0.1786  0.6654 -0.3208
  341MOL0     C44929   2.225   9.877   6.617 -0.4257 -0.0778  0.8980
  341MOL0     N44930   1.520  10.128   6.493 -0.2163 -0.2748  0.4354
  341MOL0     N44931   1.391  10.115   6.482 -0.2235 -0.9620 -0.5078
  341MOL0     C44932   1.812  10.760   5.714 -0.5283 -0.0099 -0.1476
  341MOL0     C44933   1.951  10.803   5.717  0.2252  0.0407 -0.2462
  341MOL0     C44934   2.366  10.880   5.927  0.1405 -0.3291  0.4772
  341MOL0     C44935   2.451  10.826   5.820  0.1407 -0.6833 -0.8123
  341MOL0     C44936   2.585  10.851   5.830 -0.2791  0.1709 -0.2404
  341MOL0     C44937   2.640  10.937   5.924  0.0704 -0.0011  0.1191
  341MOL0     O44938   2.779  10.955   5.925  0.0360 -0.3796 -0.1605
  341MOL0     C44939   2.834  11.085   5.955 -0.4481 -1.0066 -0.5642
  341MOL0     C44940   2.768  11.192   5.871 -0.1732 -0.4622 -0.9213
  341MOL0     C44941   2.770  11.169   5.720 -0.6565  0.1678 -0.6540
  341MOL0     C44942   2.910  11.165   5.658  0.3551  0.4614 -0.5163
  341MOL0     C44943   2.911  11.175   5.514  0.4712 -0.1494  0.2109
  341MOL0     C44944   2.903  11.188   5.395  0.7998  1.2126 -0.7909
  341MOL0     C44945   2.558  10.994   6.024 -1.1611  0.0455  0.2172
  341MOL0     C44946   2.429  10.955   6.024  0.0399  0.7114 -0.7470
  341MOL0     H44947   2.054  10.621   5.988 -1.8236 -1.2959  0.7046
  341MOL0     H44948   1.834  10.524   5.969 -1.6182  0.8658  0.9097
  341MOL0     H44949   1.615  10.502   5.967  1.6851 -2.8362 -0.5371
  341MOL0     H44950   1.646  10.417   5.817  1.0131  0.7939 -0.9163
  341MOL0     H44951   1.447  10.441   5.741  1.9648  0.1503 -0.1780
  341MOL0     H44952   1.397  10.592   5.833  2.8581  3.0185  2.3749
  341MOL0     H44953   1.419  10.459   6.047  0.8351 -0.7413  0.9293
  341MOL0     H44954   1.426  10.312   5.949 -0.2210 -0.2161  1.0428
  341MOL0     H44955   1.196  10.521   5.930  2.2174  0.9490 -0.9417
  341MOL0     H44956   1.200  10.367   5.848  0.4187  0.0361 -0.0053
  341MOL0     H44957   1.059  10.380   6.049 -0.1181 -0.8354 -0.8380
  341MOL0     H44958   1.211  10.421   6.137  1.8771 -0.5357 -0.8149
  341MOL0     H44959   1.317  10.203   6.104  0.8552  0.0585  0.9768
  341MOL0     H44960   1.161  10.153   6.026 -0.4421 -0.2760  1.0443
  341MOL0     H44961   1.198  10.285   6.297 -1.6906  1.6259 -1.4010
  341MOL0     H44962   1.056  10.208   6.259  0.3544  0.4429  0.3855
  341MOL0     H44963   1.221   9.984   6.246 -0.3785 -1.8184  1.3032
  341MOL0     H44964   1.165  10.043   6.398  1.1196  0.1276  0.3193
  341MOL0     H44965   1.493  10.056   6.176 -2.4294 -1.2554 -0.1712
  341MOL0     H44966   1.750  10.183   6.430 -2.0713 -2.5368  2.2222
  341MOL0     H44967   1.730  10.183   6.252 -3.4072  1.4661 -0.2983
  341MOL0     H44968   1.894   9.994   6.291  0.8057  0.2052  0.5479
  341MOL0     H44969   1.742   9.918   6.266 -3.5427  3.5019 -1.1186
  341MOL0     H44970   1.730   9.949   6.531 -1.3098  0.3184 -1.1484
  341MOL0     H44971   1.797   9.804   6.445 -0.2672 -0.4367  2.3240
  341MOL0     H44972   1.946   9.920   6.613 -3.3601 -1.4310 -1.7218
  341MOL0     H44973   1.984  10.041   6.483  0.0434 -0.3768 -0.6585
  341MOL0     H44974   2.214   9.691   6.344 -0.3864  1.8569 -1.0058
  341MOL0     H44975   2.440   9.628   6.419  0.8146  0.4552 -0.5822
  341MOL0     H44976   2.834   9.790   6.559 -0.1166  0.9610  0.0468
  341MOL0     H44977   3.065   9.798   6.610 -0.3806  2.0603  0.2395
  341MOL0     H44978   3.283   9.850   6.670 -0.5817  1.4876  2.1406
  341MOL0     H44979   3.246   9.683   6.723  3.4552 -1.1429 -0.9770
  341MOL0     H44980   3.443   9.857   6.857  0.6980 -0.3803 -0.7036
  341MOL0     H44981   3.466   9.720   6.731 -0.2891 -0.2538 -0.6923
  341MOL0     H44982   3.314   9.589   6.921 -1.2194  0.9745  0.7743
  341MOL0     H44983   3.382   9.715   7.027 -0.2053  0.5741  0.0705
  341MOL0     H44984   3.556   9.539   6.852  1.3377 -1.3554  1.2277
  341MOL0     H44985   3.596   9.649   6.977  1.5610 -0.6550 -1.2188
  341MOL0     H44986   3.406   9.433   7.061  0.3952 -0.2868  2.5641
  341MOL0     H44987   3.535   9.516   7.150 -2.0933 -1.2841  1.0365
  341MOL0     H44988   3.698   9.378   7.026 -0.5871  1.6769 -1.9429
  341MOL0     H44989   3.576   9.317   6.927  0.1275 -0.1142  0.4829
  341MOL0     H44990   3.452   9.212   7.123 -0.4926  3.0336 -2.9719
  341MOL0     H44991   3.617   9.149   7.093  1.0733  0.5534  0.6973
  341MOL0     H44992   3.540   9.189   7.341  1.0392  0.4282  0.9494
  341MOL0     H44993   3.535   9.356   7.290  0.7175  0.2819  1.5434
  341MOL0     H44994   2.989   9.862   7.017 -0.3025 -2.4212  1.1231
  341MOL0     H44995   2.730   9.883   6.958  0.3040 -0.7050  0.0487
  341MOL0     H44996   2.406   9.917   6.731  1.9632 -0.8737 -0.0840
  341MOL0     H44997   2.174   9.949   6.681 -0.1420  0.8312  0.1227
  341MOL0     H44998   1.746  10.797   5.637  4.0013  1.7292 -3.6625
  341MOL0     H44999   1.996  10.874   5.649  3.0266 -1.2615  0.1328
  341MOL0     H45000   2.403  10.757   5.752 -3.7521  1.2921 -0.3346
  341MOL0     H45001   2.651  10.811   5.754 -1.7734  1.7810 -2.5007
  341MOL0     H45002   2.942  11.098   5.943 -0.0340  1.1362  3.6907
  341MOL0     H45003   2.816  11.095   6.062 -1.9004 -0.2791 -0.8517
  341MOL0     H45004   2.660  11.199   5.883 -0.0970 -0.0898 -0.3991
  341MOL0     H45005   2.816  11.286   5.901  2.6467 -1.2685 -2.4831
  341MOL0     H45006   2.711  11.247   5.671 -1.5318 -1.6109 -2.5624
  341MOL0     H45007   2.721  11.074   5.696 -3.4752  1.7770 -1.6864
  341MOL0     H45008   2.962  11.253   5.696  0.7913 -0.7568  1.9022
  341MOL0     H45009   2.960  11.072   5.687  0.7177  0.5889 -0.7247
  341MOL0     H45010   2.893  11.189   5.288  0.4741  0.7859 -0.7669
  341MOL0     H45011   2.591  11.063   6.101  0.1401 -2.7809  2.4031
  341MOL0     H45012   2.362  10.982   6.104  0.4374 -2.3297  0.7499
  342MOL0     O45013   0.579   2.385   0.930  0.1519 -0.3175  0.7631
  342MOL0     C45014   0.609   2.302   0.845  0.2763 -0.4925  0.3039
  342MOL0     O45015   0.528   2.249   0.751 -0.2942 -0.4638 -0.8724
  342MOL0     C45016   0.403   2.299   0.752  0.4631 -1.3547  1.0215
  342MOL0     C45017   0.372   2.426   0.690  0.2945 -0.2780  0.1429
  342MOL0     C45018   0.245   2.484   0.704  0.1930 -0.5495 -0.9122
  342MOL0     C45019   0.145   2.403   0.758 -0.0932  0.0952  0.7359
  342MOL0     O45020   0.013   2.440   0.758  0.3222 -0.0878 -0.0158
  342MOL0     C45021  -0.028   2.563   0.697  0.4644  0.6423  0.2603
  342MOL0     C45022  -0.182   2.589   0.729  0.0173 -0.6710  0.8933
  342MOL0     C45023  -0.265   2.493   0.641 -0.3345 -0.6115 -0.3161
  342MOL0     C45024  -0.415   2.511   0.678  0.4647 -0.2642 -0.1985
  342MOL0     C45025  -0.507   2.394   0.620 -0.5313 -0.1414 -0.0725
  342MOL0     C45026  -0.656   2.407   0.650 -0.3971 -0.2863  0.1876
  342MOL0     C45027  -0.744   2.332   0.558  0.7157 -0.7948  0.3533
  342MOL0     C45028  -0.710   2.188   0.556 -0.4693  0.2836  0.3138
  342MOL0     N45029  -0.718   2.124   0.687  0.0916 -0.0342 -0.9423
  342MOL0     C45030  -0.621   2.093   0.775  0.0651 -1.0714  0.1127
  342MOL0     C45031  -0.675   2.048   0.884 -0.7321 -0.5550  0.3393
  342MOL0     C45032  -0.583   2.008   1.002 -0.0759 -0.0514 -0.7092
  342MOL0     C45033  -0.555   1.856   0.996  0.1092  0.4570 -0.4166
  342MOL0     C45034  -0.461   1.822   1.119 -0.2844  0.1370  0.3579
  342MOL0     C45035  -0.462   1.671   1.147  0.4889  0.8562  0.5366
  342MOL0     O45036  -0.386   1.611   1.041 -0.1578  0.0867 -0.3432
  342MOL0     C45037  -0.248   1.605   1.037 -0.2392  0.3590  0.0706
  342MOL0     C45038  -0.163   1.629   1.148  0.3236 -0.6541  0.0545
  342MOL0     C45039  -0.030   1.584   1.151  0.5981 -1.0469 -0.3112
  342MOL0     C45040   0.029   1.524   1.032 -0.0007 -0.0827  0.1379
  342MOL0     C45041   0.173   1.490   1.027 -0.4305 -1.0063 -0.0929
  342MOL0     O45042   0.245   1.531   1.129 -0.2957 -0.2534 -0.9330
  342MOL0     C45043   0.386   1.553   1.119  0.3538  0.7447 -0.0273
  342MOL0     C45044   0.455   1.595   1.006 -0.0997 -1.1378  0.0283
  342MOL0     C45045   0.594   1.616   1.018 -0.1144 -0.0720  0.0599
  342MOL0     C45046   0.665   1.608   1.140 -0.3414 -0.2295  0.4528
  342MOL0     O45047   0.798   1.628   1.156  0.6185 -0.2993  0.0530
  342MOL0     C45048   0.889   1.658   1.052  1.5059 -0.0936  0.4646
  342MOL0     C45049   1.018   1.587   1.088  0.3364  0.3178  0.1632
  342MOL0     C45050   1.128   1.598   0.986 -0.0440  0.0109  0.8652
  342MOL0     C45051   1.254   1.497   1.016  1.0136 -0.5062  0.8483
  342MOL0     C45052   1.363   1.506   0.907 -0.5396 -0.8213 -0.1967
  342MOL0     C45053   1.495   1.452   0.962  0.3398  0.2577  0.1393
  342MOL0     C45054   1.591   1.414   0.842 -0.1855  0.0363 -0.3889
  342MOL0     C45055   1.681   1.293   0.876  0.9312  0.2809 -1.4770
  342MOL0    Cl45056   1.778   1.327   1.029 -0.3203  0.2413  0.0336
  342MOL0     C45057   0.593   1.558   1.245 -0.0675 -0.4147 -0.6670
  342MOL0     C45058   0.462   1.524   1.238  0.2058  0.7895  0.3787
  342MOL0     O45059   0.216   1.435   0.923 -0.3886 -0.8929 -0.0664
  342MOL0     C45060  -0.058   1.505   0.925 -1.0130  0.1694  0.1434
  342MOL0     C45061  -0.193   1.546   0.928  0.7098 -0.3809 -0.7686
  342MOL0     N45062  -0.809   2.027   0.857  0.2223  0.3845  0.0774
  342MOL0     N45063  -0.836   2.077   0.742 -0.2699 -0.3087 -1.1701
  342MOL0     C45064   0.166   2.271   0.814 -1.2606 -0.4519  0.6379
  342MOL0     C45065   0.297   2.227   0.810  0.6611  0.0490 -0.1478
  342MOL0     C45066   0.748   2.265   0.832 -0.0933 -0.3439 -0.4866
  342MOL0     C45067   0.800   2.191   0.718  0.0851  0.0467 -0.1118
  342MOL0     C45068   0.934   2.162   0.718 -0.7985 -0.8035 -0.8812
  342MOL0     C45069   1.020   2.191   0.822 -0.3331 -0.2754 -0.2396
  342MOL0     O45070   1.156   2.155   0.798  0.0049  0.7305 -0.2644
  342MOL0     C45071   1.249   2.197   0.899 -0.0460 -0.4789 -0.4322
  342MOL0     C45072   1.385   2.132   0.885  0.1641  0.1670 -0.6036
  342MOL0     C45073   1.434   2.123   0.745 -0.5314 -0.0925 -0.5745
  342MOL0     C45074   1.403   1.989   0.678 -0.6986  0.3428  0.4726
  342MOL0     C45075   1.489   1.883   0.727 -0.0527 -0.3152  0.5630
  342MOL0     C45076   1.558   1.791   0.764 -0.1121  0.1985 -0.3789
  342MOL0     C45077   0.976   2.262   0.929  0.4396 -0.5430  0.1640
  342MOL0     C45078   0.845   2.298   0.934 -0.0271 -0.6638  0.1597
  342MOL0     H45079   0.456   2.474   0.641 -1.0056 -1.5237 -3.6477
  342MOL0     H45080   0.224   2.579   0.658  0.1593 -0.5654 -0.9298
  342MOL0     H45081  -0.016   2.573   0.588 -0.3415 -0.5645  0.0451
  342MOL0     H45082   0.032   2.646   0.736  0.0354 -0.2270  2.9091
  342MOL0     H45083  -0.212   2.690   0.698 -2.2596 -1.8485 -1.0201
  342MOL0     H45084  -0.198   2.583   0.837 -0.4705 -1.0973  0.7996
  342MOL0     H45085  -0.244   2.387   0.660 -1.5955 -0.6899  0.7633
  342MOL0     H45086  -0.245   2.504   0.534 -1.1207 -1.2864 -0.5410
  342MOL0     H45087  -0.435   2.527   0.785  0.0726  1.2912 -0.4799
  342MOL0     H45088  -0.448   2.603   0.630  1.0664 -1.1497 -2.4094
  342MOL0     H45089  -0.460   2.309   0.672  0.3891  2.0950  3.0878
  342MOL0     H45090  -0.495   2.384   0.512 -1.2598  2.0130 -0.3866
  342MOL0     H45091  -0.691   2.511   0.650  2.2357  0.6874 -0.2948
  342MOL0     H45092  -0.673   2.377   0.754  0.2685  1.9929  1.0163
  342MOL0     H45093  -0.845   2.329   0.600  0.3950 -1.9378 -0.4489
  342MOL0     H45094  -0.756   2.382   0.461  1.6402 -0.4227  0.4175
  342MOL0     H45095  -0.607   2.183   0.520 -0.5503  2.8569 -0.4913
  342MOL0     H45096  -0.786   2.144   0.491  0.4691  1.1591 -1.4403
  342MOL0     H45097  -0.516   2.117   0.762 -0.3324 -0.5897 -3.1568
  342MOL0     H45098  -0.631   2.025   1.098  0.0223  2.5375 -1.0594
  342MOL0     H45099  -0.493   2.070   1.010 -0.3044  0.1453  0.4569
  342MOL0     H45100  -0.517   1.819   0.900 -3.4592  0.3258 -1.9218
  342MOL0     H45101  -0.651   1.809   1.020  0.3287 -0.3060 -0.9793
  342MOL0     H45102  -0.364   1.867   1.097 -0.9837  0.5973 -2.1057
  342MOL0     H45103  -0.499   1.874   1.207  1.0107 -2.9964  2.9877
  342MOL0     H45104  -0.563   1.629   1.152  0.7257  0.1083 -0.5274
  342MOL0     H45105  -0.405   1.656   1.240 -1.6169  1.0487  1.9219
  342MOL0     H45106  -0.197   1.693   1.229  3.5688  1.5982 -0.1430
  342MOL0     H45107   0.026   1.593   1.243 -2.4179 -2.2470  1.8206
  342MOL0     H45108   0.409   1.617   0.911 -0.2929  1.4938  0.6537
  342MOL0     H45109   0.641   1.667   0.935 -1.5468 -1.2631 -1.5476
  342MOL0     H45110   0.908   1.766   1.043 -1.0423  0.7586  3.4984
  342MOL0     H45111   0.846   1.623   0.958 -4.0398  1.5715  2.0013
  342MOL0     H45112   0.998   1.479   1.085  0.6606  0.2718 -0.4921
  342MOL0     H45113   1.055   1.618   1.186 -1.2973 -2.5152  1.8166
  342MOL0     H45114   1.168   1.700   0.980  3.2356 -1.1466  0.8704
  342MOL0     H45115   1.093   1.590   0.883  1.3684 -1.1395  0.4330
  342MOL0     H45116   1.302   1.526   1.110  2.2125  0.7180 -0.1110
  342MOL0     H45117   1.212   1.397   1.033  0.2333 -0.6735 -1.6478
  342MOL0     H45118   1.377   1.611   0.878 -0.8850 -0.4295  0.9951
  342MOL0     H45119   1.329   1.448   0.820 -0.9510 -0.7190 -0.1081
  342MOL0     H45120   1.468   1.365   1.022  1.5333  1.0930  1.9752
  342MOL0     H45121   1.540   1.522   1.033 -0.1135 -1.3022  2.0501
  342MOL0     H45122   1.533   1.379   0.756 -0.5038 -1.7332  0.4884
  342MOL0     H45123   1.657   1.495   0.813 -1.4096  0.5418 -1.9433
  342MOL0     H45124   1.748   1.274   0.792  0.5591 -1.9592 -1.3214
  342MOL0     H45125   1.622   1.204   0.901  1.0195  0.5909 -0.0777
  342MOL0     H45126   0.650   1.549   1.337  2.5124  1.2980 -1.9923
  342MOL0     H45127   0.411   1.488   1.326 -3.1213 -1.3127 -2.1578
  342MOL0     H45128  -0.044   1.448   0.834 -0.9930 -1.2540  0.9903
  342MOL0     H45129  -0.248   1.527   0.836  0.2205  0.1255 -0.5818
  342MOL0     H45130   0.084   2.214   0.856 -1.6637  0.1529  0.6671
  342MOL0     H45131   0.321   2.138   0.868 -0.3106 -1.4941 -1.9881
  342MOL0     H45132   0.734   2.160   0.638  1.2259 -5.1783  0.5936
  342MOL0     H45133   0.966   2.115   0.626  2.0978 -2.5218  0.8575
  342MOL0     H45134   1.206   2.150   0.988  0.1041 -1.1693 -0.7158
  342MOL0     H45135   1.253   2.305   0.914  3.4668 -0.8667  3.3455
  342MOL0     H45136   1.447   2.203   0.941 -1.8546  1.7143 -0.2404
  342MOL0     H45137   1.377   2.031   0.927  2.2255 -0.9085 -2.5825
  342MOL0     H45138   1.543   2.126   0.743 -0.3992 -2.3669  0.5051
  342MOL0     H45139   1.384   2.194   0.678 -2.1582 -2.4383 -1.9858
  342MOL0     H45140   1.298   1.963   0.697 -0.3257 -0.7430  1.1294
  342MOL0     H45141   1.420   1.998   0.571 -3.2825  4.0875  0.1854
  342MOL0     H45142   1.611   1.709   0.809 -1.7843 -0.9508 -0.4130
  342MOL0     H45143   1.038   2.296   1.012 -0.5199 -1.3760  1.2538
  342MOL0     H45144   0.796   2.354   1.012  2.1383  0.0268  1.1042
  343MOL0     O45145   4.025   3.977  11.152  0.3047  0.5499  0.1002
  343MOL0     C45146   3.966   3.928  11.060 -0.4789  0.3469  0.2343
  343MOL0     O45147   3.837   3.951  11.032  0.7433 -0.2516  0.1362
  343MOL0     C45148   3.762   4.048  11.093 -0.1037  0.0120 -0.2953
  343MOL0     C45149   3.733   4.173  11.038 -0.5806  0.2124 -0.5585
  343MOL0     C45150   3.664   4.271  11.107 -0.1823  0.4665  0.7893
  343MOL0     C45151   3.591   4.241  11.217  0.5230  0.1835 -0.9310
  343MOL0     O45152   3.522   4.343  11.284 -0.3139  0.0332 -0.3343
  343MOL0     C45153   3.417   4.307  11.374  0.2860  0.1965 -0.3783
  343MOL0     C45154   3.320   4.424  11.368 -0.2487 -0.9408  0.3521
  343MOL0     C45155   3.395   4.557  11.410  1.1371  0.1740  1.4274
  343MOL0     C45156   3.298   4.673  11.430 -0.5577 -0.4852 -0.1999
  343MOL0     C45157   3.353   4.781  11.528 -1.0850 -0.4828 -0.1135
  343MOL0     C45158   3.239   4.870  11.585  0.3569  0.0798  0.6712
  343MOL0     C45159   3.289   4.997  11.661  0.0794 -0.5771 -1.1560
  343MOL0     C45160   3.294   5.121  11.580 -0.1081 -0.2478  0.0496
  343MOL0     N45161   3.165   5.177  11.551  0.4059  0.3392  0.4485
  343MOL0     C45162   3.145   5.277  11.460  0.1949  0.3794  0.9022
  343MOL0     C45163   3.008   5.285  11.445 -0.0620 -0.1326 -0.1387
  343MOL0     C45164   2.937   5.394  11.381  0.4732 -0.2094  0.4775
  343MOL0     C45165   2.780   5.353  11.372 -0.6528 -0.2832 -1.2275
  343MOL0     C45166   2.700   5.474  11.310  0.2418  0.0874  0.2127
  343MOL0     C45167   2.552   5.465  11.327  0.0052 -0.3471 -0.4067
  343MOL0     O45168   2.507   5.338  11.293 -0.6460 -0.4129  0.5502
  343MOL0     C45169   2.368   5.321  11.297 -0.4354  0.3843  0.5632
  343MOL0     C45170   2.273   5.407  11.362  0.6946  0.1819  0.8437
  343MOL0     C45171   2.136   5.397  11.337  0.1226 -0.3605  0.1611
  343MOL0     C45172   2.082   5.296  11.256  0.3223 -0.3730  0.0415
  343MOL0     C45173   1.937   5.290  11.228  0.6175 -0.1332  0.0717
  343MOL0     O45174   1.852   5.359  11.308 -0.3728  0.2524  0.0661
  343MOL0     C45175   1.719   5.357  11.270 -0.4604 -0.2486 -0.0308
  343MOL0     C45176   1.673   5.409  11.154 -0.2276 -0.8574 -0.0586
  343MOL0     C45177   1.543   5.413  11.121 -0.3470  0.0170  0.5592
  343MOL0     C45178   1.442   5.359  11.204  0.4183  0.3209 -0.3541
  343MOL0     O45179   1.309   5.374  11.167 -0.1288  0.5666 -0.0323
  343MOL0     C45180   1.210   5.337  11.263 -1.4048  0.2218 -0.6121
  343MOL0     C45181   1.072   5.383  11.231 -0.0611  0.3079 -0.6991
  343MOL0     C45182   1.060   5.542  11.255 -0.4764 -0.0395  0.7693
  343MOL0     C45183   0.950   5.608  11.176 -0.1394  0.1699  0.6254
  343MOL0     C45184   0.926   5.760  11.200 -1.2701  0.6552  0.7456
  343MOL0     C45185   0.786   5.807  11.165  0.1374 -0.7823  0.2478
  343MOL0     C45186   0.760   5.948  11.211 -0.1682  0.1665 -0.2316
  343MOL0     C45187   0.731   5.940  11.362  0.3118 -0.0570 -0.6887
  343MOL0    Cl45188   0.700   6.106  11.424 -0.3309 -0.0508  0.1927
  343MOL0     C45189   1.477   5.320  11.338 -0.1349  0.3575 -0.1109
  343MOL0     C45190   1.622   5.318  11.364  0.5214  0.6599 -0.6294
  343MOL0     O45191   1.909   5.233  11.126  0.2427 -0.0546 -0.3877
  343MOL0     C45192   2.180   5.206  11.194  0.2206 -0.7364  0.0718
  343MOL0     C45193   2.323   5.218  11.218  0.6925 -0.3612 -0.3955
  343MOL0     N45194   2.956   5.191  11.537  0.0149  0.4103  0.4254
  343MOL0     N45195   3.051   5.128  11.600  0.3565 -0.4520 -0.0309
  343MOL0     C45196   3.607   4.107  11.270 -0.6331  0.6081 -0.2954
  343MOL0     C45197   3.703   4.019  11.215 -0.2666  0.4166 -0.3680
  343MOL0     C45198   4.045   3.826  10.984 -0.0125 -0.1828 -0.6110
  343MOL0     C45199   3.992   3.741  10.892  0.1591  0.4478 -0.1243
  343MOL0     C45200   4.065   3.635  10.845  0.2165 -0.4905 -0.1210
  343MOL0     C45201   4.189   3.611  10.891 -0.9488  0.8655 -0.5159
  343MOL0     O45202   4.274   3.509  10.853  0.3653 -0.4485 -0.5861
  343MOL0     C45203   4.230   3.403  10.767 -0.0839  0.0394 -0.2530
  343MOL0     C45204   4.153   3.294  10.849  0.3802 -0.7818  0.0422
  343MOL0     C45205   4.095   3.196  10.748  0.4854  0.3278 -1.0123
  343MOL0     C45206   4.025   3.080  10.820 -1.1594  0.1494  0.3295
  343MOL0     C45207   3.917   3.129  10.905 -0.9050 -0.1083 -0.4770
  343MOL0     C45208   3.825   3.167  10.975  0.0443 -0.2932  0.5017
  343MOL0     C45209   4.247   3.694  10.986 -0.0458 -0.8288  0.5684
  343MOL0     C45210   4.179   3.801  11.029 -0.2146  0.5751  0.4455
  343MOL0     H45211   3.768   4.189  10.937 -1.0019  2.9123 -0.3506
  343MOL0     H45212   3.647   4.377  11.087 -0.0516  1.2433  4.2704
  343MOL0     H45213   3.459   4.304  11.475  1.0126 -0.6553 -0.6976
  343MOL0     H45214   3.369   4.214  11.343 -0.4150  0.3554  0.1925
  343MOL0     H45215   3.231   4.406  11.430 -0.9766 -1.2785 -0.7633
  343MOL0     H45216   3.270   4.449  11.274  1.8235  4.0555  0.2420
  343MOL0     H45217   3.465   4.579  11.329  1.6206  0.9619  2.0460
  343MOL0     H45218   3.447   4.530  11.502  2.7474  1.0111  0.8103
  343MOL0     H45219   3.284   4.708  11.328  0.4362 -1.3981 -0.6750
  343MOL0     H45220   3.198   4.646  11.464 -1.3510  1.2514 -1.0265
  343MOL0     H45221   3.415   4.852  11.472 -1.5434  0.0160 -0.0046
  343MOL0     H45222   3.417   4.731  11.601 -1.6776 -1.7902 -0.4598
  343MOL0     H45223   3.188   4.802  11.654 -0.2671 -0.1445  0.0071
  343MOL0     H45224   3.160   4.900  11.515  3.2551  0.8303 -2.5105
  343MOL0     H45225   3.232   5.027  11.749  1.9099  1.4028 -0.5354
  343MOL0     H45226   3.386   4.967  11.702  0.8083  3.9688  1.0449
  343MOL0     H45227   3.338   5.092  11.484  1.0378  1.3956  0.0383
  343MOL0     H45228   3.361   5.187  11.636 -2.4274  2.1530  0.1863
  343MOL0     H45229   3.222   5.332  11.408 -0.2394 -0.5126 -0.7655
  343MOL0     H45230   2.981   5.396  11.281  1.1256 -0.1322  0.7560
  343MOL0     H45231   2.944   5.489  11.435 -0.7509 -0.2724  0.7615
  343MOL0     H45232   2.742   5.327  11.471  1.4209 -3.9626 -1.2496
  343MOL0     H45233   2.774   5.266  11.307  0.0899 -1.0748 -0.2601
  343MOL0     H45234   2.728   5.572  11.348 -3.5381  1.2642  0.3659
  343MOL0     H45235   2.714   5.475  11.202 -0.5778 -2.0374  0.0265
  343MOL0     H45236   2.519   5.541  11.256  3.7488 -0.0394 -1.9967
  343MOL0     H45237   2.524   5.487  11.431 -2.1849 -1.1360 -0.7683
  343MOL0     H45238   2.308   5.499  11.406  0.0101 -0.0800  1.9661
  343MOL0     H45239   2.066   5.471  11.374 -0.3215 -0.6071 -0.1808
  343MOL0     H45240   1.750   5.457  11.094 -0.6431 -0.5619 -0.3595
  343MOL0     H45241   1.520   5.451  11.022 -3.3988  1.4612  1.6685
  343MOL0     H45242   1.238   5.380  11.360 -1.4601 -0.2718 -0.3763
  343MOL0     H45243   1.217   5.230  11.284  1.0311  0.7565  1.9016
  343MOL0     H45244   1.003   5.324  11.294  2.1971  1.2402  2.9452
  343MOL0     H45245   1.051   5.361  11.126  0.6799 -0.9465 -0.6048
  343MOL0     H45246   1.149   5.581  11.204 -0.8354 -0.3298 -0.1081
  343MOL0     H45247   1.067   5.568  11.361  1.0949 -0.1031  0.7046
  343MOL0     H45248   0.952   5.585  11.069 -1.6126 -1.0436  0.8371
  343MOL0     H45249   0.859   5.556  11.207  1.3278 -1.8086  1.8966
  343MOL0     H45250   1.006   5.816  11.151 -1.8108 -0.7695 -1.9528
  343MOL0     H45251   0.944   5.777  11.307  2.1949 -2.1925  0.8063
  343MOL0     H45252   0.706   5.747  11.207 -0.7158 -0.1726 -0.4640
  343MOL0     H45253   0.770   5.796  11.057  1.1729 -0.3397  0.0352
  343MOL0     H45254   0.851   6.007  11.197  0.5829 -1.1413 -1.2147
  343MOL0     H45255   0.672   5.991  11.162 -1.8735 -1.9830  0.7481
  343MOL0     H45256   0.805   5.901  11.433 -2.1262 -0.9477  1.5778
  343MOL0     H45257   0.643   5.876  11.373  0.0636  0.4831  0.7374
  343MOL0     H45258   1.416   5.288  11.421  2.2105  0.1699  1.6339
  343MOL0     H45259   1.647   5.303  11.468 -0.2494  1.9233 -0.2240
  343MOL0     H45260   2.143   5.136  11.119  1.0428 -2.7966  1.5217
  343MOL0     H45261   2.396   5.152  11.173 -0.8855 -1.9483 -0.7496
  343MOL0     H45262   3.542   4.074  11.350 -0.5733  1.9335  0.3178
  343MOL0     H45263   3.726   3.928  11.270  0.5219  1.3339  0.8530
  343MOL0     H45264   3.892   3.766  10.859 -0.2870 -2.6435 -1.4233
  343MOL0     H45265   4.016   3.569  10.774 -0.8276 -1.8871  1.8126
  343MOL0     H45266   4.315   3.361  10.712 -0.8532 -0.7618 -0.8710
  343MOL0     H45267   4.166   3.444  10.688 -2.0883 -0.2831  1.1254
  343MOL0     H45268   4.217   3.269  10.934 -1.9224  1.3364  2.5806
  343MOL0     H45269   4.074   3.346  10.904  2.2233  2.0275  0.2932
  343MOL0     H45270   4.190   3.160  10.706  1.3676  0.6373  0.6403
  343MOL0     H45271   4.029   3.240  10.673 -0.0472 -0.3896 -0.9818
  343MOL0     H45272   3.988   3.009  10.745 -0.2553  0.6275 -0.6002
  343MOL0     H45273   4.101   3.026  10.877 -0.3872  1.9026  1.0289
  343MOL0     H45274   3.739   3.199  11.032  1.3388 -1.5759  3.3596
  343MOL0     H45275   4.351   3.687  11.017  0.1634  1.8230  0.6461
  343MOL0     H45276   4.230   3.859  11.105 -1.9366 -1.7048  3.5909
  344MOL0     O45277  11.201   1.388   6.900  0.0448 -0.3958  0.2550
  344MOL0     C45278  11.202   1.273   6.930 -0.0291  0.0104  0.2162
  344MOL0     O45279  11.113   1.209   7.012  0.4883  0.1999  0.2279
  344MOL0     C45280  10.986   1.250   7.046 -0.2039  0.7915  0.2305
  344MOL0     C45281  10.921   1.350   6.989  0.0772  0.3703 -0.2462
  344MOL0     C45282  10.801   1.391   7.035 -0.0179 -0.4696  0.1921
  344MOL0     C45283  10.740   1.331   7.142  0.3613 -0.9454 -0.6180
  344MOL0     O45284  10.620   1.373   7.192  0.3014  0.3945  0.1517
  344MOL0     C45285  10.554   1.497   7.147  0.6130 -0.9027  0.4603
  344MOL0     C45286  10.424   1.517   7.220 -0.0743  0.6687  0.2746
  344MOL0     C45287  10.423   1.482   7.367  0.0131  0.2522  0.5260
  344MOL0     C45288  10.281   1.512   7.424  0.4239  0.0107  0.0888
  344MOL0     C45289  10.236   1.426   7.543 -0.0283 -0.1296  0.6437
  344MOL0     C45290  10.093   1.464   7.590  0.6350 -1.0601  0.0541
  344MOL0     C45291  10.054   1.357   7.695 -1.3704  0.7361 -0.2332
  344MOL0     C45292  10.033   1.216   7.628 -0.2772 -0.4821  0.2479
  344MOL0     N45293   9.959   1.119   7.708  0.3722 -0.1249  0.1450
  344MOL0     C45294   9.825   1.129   7.748  0.8020 -0.1279  0.0004
  344MOL0     C45295   9.788   1.003   7.774  0.2333 -0.0853  0.2859
  344MOL0     C45296   9.647   0.957   7.812 -1.0378 -0.2167  0.1226
  344MOL0     C45297   9.554   0.896   7.709  0.3900 -0.2329 -0.2405
  344MOL0     C45298   9.423   0.847   7.766 -0.9173 -0.6232  0.3601
  344MOL0     C45299   9.329   0.785   7.666 -1.0422  0.6529 -0.0636
  344MOL0     O45300   9.199   0.835   7.675 -0.1925 -0.7541 -0.4703
  344MOL0     C45301   9.091   0.771   7.625  0.6547  0.1878  0.4177
  344MOL0     C45302   9.101   0.675   7.520  0.2390 -0.2833 -0.3449
  344MOL0     C45303   8.980   0.608   7.479 -1.5497 -1.0422 -0.1266
  344MOL0     C45304   8.857   0.632   7.537 -0.4530 -0.9636 -0.2952
  344MOL0     C45305   8.730   0.573   7.494  0.8989  1.1114  0.0367
  344MOL0     O45306   8.625   0.581   7.580  0.9092  0.5107  0.2041
  344MOL0     C45307   8.496   0.548   7.553 -0.8817  0.2336  0.2712
  344MOL0     C45308   8.434   0.631   7.451  0.8683  0.3099  0.1222
  344MOL0     C45309   8.304   0.592   7.421 -0.3163  0.3109 -0.1851
  344MOL0     C45310   8.244   0.492   7.484  1.6253  0.1650 -1.0067
  344MOL0     O45311   8.117   0.469   7.440  0.4768 -0.1361  0.4011
  344MOL0     C45312   8.005   0.464   7.537 -0.7440 -0.2700  0.4119
  344MOL0     C45313   7.874   0.460   7.463  0.5025 -0.4958  0.0103
  344MOL0     C45314   7.763   0.465   7.570 -1.1570  0.2282 -0.2950
  344MOL0     C45315   7.626   0.484   7.508 -0.1567 -0.3135  0.4711
  344MOL0     C45316   7.517   0.457   7.623 -0.8495 -0.3138  0.3845
  344MOL0     C45317   7.372   0.491   7.563  0.4807 -1.0112  0.6284
  344MOL0     C45318   7.263   0.500   7.675 -1.2487  0.4378  0.4522
  344MOL0     C45319   7.129   0.522   7.596  0.4429  0.2418 -0.1588
  344MOL0    Cl45320   7.082   0.693   7.563 -0.5546 -0.2556  0.0465
  344MOL0     C45321   8.300   0.436   7.598 -0.5270  0.6234  0.1002
  344MOL0     C45322   8.431   0.460   7.632 -0.3407 -0.2629  0.5700
  344MOL0     O45323   8.730   0.504   7.385 -0.3868 -0.8484 -0.5989
  344MOL0     C45324   8.851   0.728   7.641 -0.6043  0.3703  0.0090
  344MOL0     C45325   8.970   0.790   7.685  0.3590  0.3709 -0.9579
  344MOL0     N45326   9.891   0.916   7.749  0.1959  0.7891 -0.0295
  344MOL0     N45327  10.001   0.985   7.712  0.4039  0.2492  0.0248
  344MOL0     C45328  10.803   1.228   7.202  0.1110  0.1176 -0.2251
  344MOL0     C45329  10.923   1.181   7.148 -0.2667 -0.6092  0.1018
  344MOL0     C45330  11.324   1.193   6.888  0.6961 -0.1956 -0.4467
  344MOL0     C45331  11.401   1.222   6.783  0.1426 -0.1496  1.0040
  344MOL0     C45332  11.510   1.144   6.751 -0.2694 -0.2043 -0.0151
  344MOL0     C45333  11.545   1.025   6.828 -0.3870 -0.2945 -0.4057
  344MOL0     O45334  11.662   0.949   6.798 -0.0452 -0.5264  0.8749
  344MOL0     C45335  11.732   0.912   6.915  0.1464  0.5431 -0.5239
  344MOL0     C45336  11.874   0.893   6.897 -0.2834  0.7878 -0.1004
  344MOL0     C45337  11.903   0.772   6.805 -0.7798 -0.0128  0.2472
  344MOL0     C45338  12.051   0.720   6.806  0.1032  0.1317  0.7514
  344MOL0     C45339  12.153   0.816   6.766 -0.4691 -0.7158  0.3431
  344MOL0     C45340  12.229   0.893   6.707  0.0738  0.3756  0.1055
  344MOL0     C45341  11.451   0.987   6.926 -0.3849  0.0824  0.9867
  344MOL0     C45342  11.343   1.066   6.955  0.2333  0.6100 -0.0108
  344MOL0     H45343  10.953   1.401   6.899 -1.9794  1.9533 -0.1627
  344MOL0     H45344  10.746   1.473   6.990  1.4302  0.4625  0.0563
  344MOL0     H45345  10.540   1.508   7.039  0.2587  0.5392  0.6244
  344MOL0     H45346  10.614   1.584   7.176 -0.0286  1.1243 -3.5908
  344MOL0     H45347  10.357   1.457   7.158 -1.3777  4.2201 -2.1295
  344MOL0     H45348  10.388   1.619   7.201 -3.5411  0.1660  3.0679
  344MOL0     H45349  10.498   1.549   7.412  1.8081  0.7578 -2.9088
  344MOL0     H45350  10.451   1.380   7.393 -0.5209 -0.1582 -0.4600
  344MOL0     H45351  10.283   1.615   7.461  1.3118  0.3295 -0.8176
  344MOL0     H45352  10.206   1.503   7.345 -2.9717 -1.8384  3.1776
  344MOL0     H45353  10.307   1.447   7.623 -0.6758 -0.0735  1.2085
  344MOL0     H45354  10.245   1.321   7.516  0.7746  0.5577 -2.1392
  344MOL0     H45355  10.023   1.474   7.507  1.0005  0.6961 -0.0891
  344MOL0     H45356  10.089   1.555   7.652 -0.1298 -1.0262 -0.0255
  344MOL0     H45357  10.120   1.339   7.780  0.7681 -0.8241 -2.1097
  344MOL0     H45358   9.952   1.385   7.721 -1.7639 -0.1771 -0.7156
  344MOL0     H45359  10.127   1.170   7.594  1.1908  2.2246  0.3937
  344MOL0     H45360   9.973   1.245   7.541 -2.3036  0.0685  1.7586
  344MOL0     H45361   9.754   1.211   7.749 -0.4580 -1.1873  1.0846
  344MOL0     H45362   9.604   1.047   7.858 -0.7282  0.8357 -1.5653
  344MOL0     H45363   9.667   0.885   7.892  1.3724 -0.2220 -0.3890
  344MOL0     H45364   9.606   0.812   7.663  1.2727  0.2531 -0.1479
  344MOL0     H45365   9.543   0.973   7.632  0.6764  0.0578  0.0058
  344MOL0     H45366   9.450   0.782   7.850  1.1756  0.1368  0.3410
  344MOL0     H45367   9.373   0.932   7.813  1.2060  0.0738  1.4807
  344MOL0     H45368   9.335   0.677   7.676 -0.1763  0.6784 -0.2265
  344MOL0     H45369   9.356   0.811   7.563 -0.2566  2.0424  0.4547
  344MOL0     H45370   9.193   0.646   7.470 -0.0342 -3.2127  0.6781
  344MOL0     H45371   8.981   0.543   7.392  0.5010 -0.1285 -0.8435
  344MOL0     H45372   8.492   0.716   7.414  2.5566  0.1387  2.1539
  344MOL0     H45373   8.253   0.641   7.340 -0.5641 -1.0395 -0.8866
  344MOL0     H45374   8.010   0.556   7.595  1.9756 -0.9733  1.4253
  344MOL0     H45375   8.022   0.376   7.600  1.0844 -2.3874 -2.7651
  344MOL0     H45376   7.863   0.369   7.403  0.0503 -1.3215  1.3078
  344MOL0     H45377   7.875   0.545   7.394  1.6598  1.0909  1.8825
  344MOL0     H45378   7.790   0.536   7.648  0.1579 -2.3180  1.6977
  344MOL0     H45379   7.758   0.377   7.634 -0.3423  0.7339  0.4879
  344MOL0     H45380   7.612   0.583   7.463 -0.0214 -1.2001 -1.6307
  344MOL0     H45381   7.605   0.420   7.422 -2.3369  2.8821 -1.6253
  344MOL0     H45382   7.547   0.536   7.692  0.7448  1.4149 -2.1187
  344MOL0     H45383   7.519   0.357   7.666  0.7282  0.8078  3.1953
  344MOL0     H45384   7.350   0.413   7.490 -1.2190  0.9973 -1.1450
  344MOL0     H45385   7.381   0.592   7.522 -1.6180  0.2829  3.0168
  344MOL0     H45386   7.268   0.411   7.739  1.5662 -0.8602 -1.3728
  344MOL0     H45387   7.289   0.588   7.735  0.8624 -0.8137  1.4838
  344MOL0     H45388   7.045   0.489   7.657 -0.1874  0.5183 -0.8595
  344MOL0     H45389   7.132   0.468   7.501 -1.4180 -2.5343  1.2358
  344MOL0     H45390   8.237   0.368   7.654  0.3009 -0.3209 -0.0900
  344MOL0     H45391   8.475   0.409   7.716 -1.2326 -0.7347  0.7604
  344MOL0     H45392   8.757   0.745   7.693 -1.2516  3.2544 -1.8687
  344MOL0     H45393   8.958   0.879   7.745  2.1030  0.4784 -0.7220
  344MOL0     H45394  10.765   1.163   7.280  1.3017  2.2137  2.2711
  344MOL0     H45395  10.977   1.093   7.181 -0.6319 -2.2269 -3.2133
  344MOL0     H45396  11.375   1.299   6.711  0.1440 -1.2257 -0.1912
  344MOL0     H45397  11.572   1.172   6.666 -0.6965 -1.2073 -0.6680
  344MOL0     H45398  11.689   0.817   6.947 -0.9629  0.5564 -1.8950
  344MOL0     H45399  11.707   0.977   7.000 -4.8281 -4.2718  2.3136
  344MOL0     H45400  11.905   0.988   6.852 -0.0184  0.1976 -1.2157
  344MOL0     H45401  11.938   0.885   6.985  1.2801 -0.3651 -1.2896
  344MOL0     H45402  11.885   0.792   6.699  0.7426 -1.6455 -0.3707
  344MOL0     H45403  11.842   0.686   6.834  0.2039 -1.0368 -0.6541
  344MOL0     H45404  12.075   0.683   6.906  2.1753 -2.2319 -0.5007
  344MOL0     H45405  12.058   0.644   6.728 -1.4783 -0.3701  1.0753
  344MOL0     H45406  12.304   0.964   6.679  1.1681 -0.1771  1.5307
  344MOL0     H45407  11.477   0.898   6.983  1.1660  0.9012  1.6426
  344MOL0     H45408  11.283   1.041   7.042  0.4228  1.8736  0.5178
  345MOL0     O45409   7.577   8.319   6.728 -0.7538  0.2311 -0.4550
  345MOL0     C45410   7.651   8.334   6.825  0.9556  0.2376 -0.5056
  345MOL0     O45411   7.645   8.260   6.936  0.2098  0.0704 -0.5011
  345MOL0     C45412   7.525   8.200   6.961 -0.2398  0.0017 -0.1928
  345MOL0     C45413   7.497   8.068   6.916  0.5010  0.6181 -0.4588
  345MOL0     C45414   7.373   8.008   6.951  0.5366 -0.4857 -0.4676
  345MOL0     C45415   7.276   8.076   7.029  0.0642  0.2523 -0.1773
  345MOL0     O45416   7.151   8.027   7.063  0.0375 -0.3044  0.5362
  345MOL0     C45417   7.129   7.880   7.065 -0.1628 -0.2214  0.3036
  345MOL0     C45418   7.043   7.857   6.948 -0.1016 -0.3207 -0.0589
  345MOL0     C45419   6.898   7.799   6.970  0.8161  0.4730 -0.4138
  345MOL0     C45420   6.807   7.881   7.056  0.0778 -0.4991 -0.3352
  345MOL0     C45421   6.667   7.829   7.094 -0.2705  1.0373 -0.5133
  345MOL0     C45422   6.573   7.779   6.998 -0.7224  0.2888  0.4218
  345MOL0     C45423   6.456   7.715   7.063  0.4450 -0.8384  0.4127
  345MOL0     C45424   6.345   7.698   6.952  0.7178  0.6613  0.7576
  345MOL0     N45425   6.214   7.663   7.012  0.1978  0.4321 -0.0334
  345MOL0     C45426   6.188   7.591   7.130 -0.8910  0.0340  0.2486
  345MOL0     C45427   6.061   7.616   7.153 -0.1561 -0.4292  0.3165
  345MOL0     C45428   5.982   7.588   7.272 -0.2404 -0.2106 -0.0230
  345MOL0     C45429   5.913   7.459   7.269  0.3635  1.6096 -1.1070
  345MOL0     C45430   5.786   7.468   7.183  0.5588  0.2788 -0.4705
  345MOL0     C45431   5.765   7.336   7.112  0.5537 -0.2478  1.2527
  345MOL0     O45432   5.636   7.323   7.058  1.1343 -0.3303  0.4220
  345MOL0     C45433   5.530   7.313   7.144 -0.7230  0.0552 -0.5782
  345MOL0     C45434   5.405   7.368   7.098 -0.0201  0.1777 -0.6343
  345MOL0     C45435   5.294   7.373   7.180  1.4649 -0.0429 -0.1418
  345MOL0     C45436   5.297   7.304   7.312 -0.2024 -0.0271  0.3941
  345MOL0     C45437   5.173   7.307   7.391  0.0550  0.8203 -0.6360
  345MOL0     O45438   5.061   7.370   7.339  0.3146  0.1159  0.3811
  345MOL0     C45439   4.934   7.358   7.397 -0.1434 -0.5032  0.4699
  345MOL0     C45440   4.881   7.242   7.466 -0.7606 -0.6683 -0.0027
  345MOL0     C45441   4.745   7.235   7.495 -0.0415 -0.5777 -0.2088
  345MOL0     C45442   4.649   7.334   7.475  0.5922  1.0340 -0.1830
  345MOL0     O45443   4.513   7.313   7.517 -0.0711  0.2490  0.1652
  345MOL0     C45444   4.404   7.394   7.455 -0.5370  0.1230  0.1442
  345MOL0     C45445   4.369   7.496   7.566  0.3394 -0.1979  0.5855
  345MOL0     C45446   4.228   7.555   7.550 -0.5991  0.0989  0.7292
  345MOL0     C45447   4.191   7.639   7.677  0.2261 -0.2191  0.3928
  345MOL0     C45448   4.063   7.713   7.655 -0.4495 -1.1282  0.1466
  345MOL0     C45449   4.040   7.825   7.767 -0.0761 -0.2217 -0.4617
  345MOL0     C45450   4.018   7.743   7.899 -0.0297  1.1236  0.1921
  345MOL0     C45451   3.994   7.832   8.020 -0.1129  0.2751 -0.6166
  345MOL0    Cl45452   3.843   7.926   7.984  0.1089 -0.1708  0.3103
  345MOL0     C45453   4.708   7.453   7.426  0.2211 -0.1042  0.0456
  345MOL0     C45454   4.842   7.464   7.391  0.1681 -0.0605 -0.7752
  345MOL0     O45455   5.182   7.247   7.498 -0.3785  0.3335  0.1705
  345MOL0     C45456   5.415   7.236   7.344 -0.3452  0.1486  0.1761
  345MOL0     C45457   5.533   7.257   7.267  0.6784  0.2658  0.2413
  345MOL0     N45458   6.011   7.715   7.066 -0.3813 -0.6212  0.0341
  345MOL0     N45459   6.104   7.732   6.972  1.0004 -0.0310  0.2703
  345MOL0     C45460   7.308   8.195   7.081 -0.2584 -0.9716  0.1174
  345MOL0     C45461   7.423   8.265   7.044 -0.3266 -0.0658  0.4609
  345MOL0     C45462   7.774   8.407   6.820 -0.3867  0.5162  0.3454
  345MOL0     C45463   7.872   8.411   6.922 -0.7079  0.1136  0.0627
  345MOL0     C45464   7.989   8.476   6.901 -0.0654  0.0478  0.9377
  345MOL0     C45465   8.027   8.541   6.786  0.7693 -0.0877 -0.8463
  345MOL0     O45466   8.158   8.587   6.769  0.0754 -0.4899 -0.0753
  345MOL0     C45467   8.215   8.603   6.637  0.1575 -0.4198 -0.3806
  345MOL0     C45468   8.365   8.614   6.664  0.6136  0.0709  0.0944
  345MOL0     C45469   8.453   8.597   6.536 -0.8162  0.0489  0.3479
  345MOL0     C45470   8.447   8.472   6.452  0.1756  0.3616  0.2016
  345MOL0     C45471   8.469   8.351   6.540  0.2129 -0.6372 -0.1608
  345MOL0     C45472   8.475   8.261   6.613 -0.1359  0.6134 -0.4682
  345MOL0     C45473   7.931   8.542   6.682 -0.2704  0.4987 -0.5084
  345MOL0     C45474   7.810   8.469   6.695  0.1942 -0.4268  0.8376
  345MOL0     H45475   7.577   8.011   6.869  2.5906  1.1544  2.1479
  345MOL0     H45476   7.343   7.914   6.905 -3.9794  1.2587 -1.6476
  345MOL0     H45477   7.071   7.848   7.153 -0.3006 -1.4922 -0.2234
  345MOL0     H45478   7.223   7.824   7.062  1.0985  1.7579  1.0797
  345MOL0     H45479   7.102   7.786   6.888  1.3876 -0.9968  2.0952
  345MOL0     H45480   7.029   7.947   6.888  0.5310 -1.0542 -1.3668
  345MOL0     H45481   6.909   7.692   6.990 -1.2104 -0.1257 -2.0864
  345MOL0     H45482   6.856   7.789   6.869  1.9228 -1.3263 -0.7494
  345MOL0     H45483   6.868   7.886   7.147  0.4653 -0.8147 -0.5752
  345MOL0     H45484   6.817   7.981   7.013  2.2687 -0.4412  0.1717
  345MOL0     H45485   6.615   7.901   7.158 -0.3529 -0.2513  0.9261
  345MOL0     H45486   6.683   7.746   7.163  2.6478  1.1684 -0.9153
  345MOL0     H45487   6.615   7.710   6.925  3.3871  3.2085 -0.3063
  345MOL0     H45488   6.535   7.866   6.944 -2.0526 -0.6607 -0.2260
  345MOL0     H45489   6.484   7.623   7.115 -0.0109 -1.4087 -0.3429
  345MOL0     H45490   6.418   7.778   7.145 -1.7420 -0.2398 -0.9791
  345MOL0     H45491   6.372   7.618   6.882 -0.8451  1.2050 -0.5317
  345MOL0     H45492   6.339   7.789   6.892 -1.3093  0.0074 -0.1221
  345MOL0     H45493   6.261   7.531   7.183  0.6673  1.2001 -0.4523
  345MOL0     H45494   5.909   7.666   7.292  0.6451  1.4478 -2.6711
  345MOL0     H45495   6.052   7.590   7.356  1.5840  1.8744 -1.4693
  345MOL0     H45496   5.893   7.422   7.370  2.1369 -0.5193 -1.4488
  345MOL0     H45497   5.980   7.384   7.226 -1.5333  0.4426 -2.1738
  345MOL0     H45498   5.702   7.488   7.250 -0.5189 -1.6385 -1.1558
  345MOL0     H45499   5.792   7.549   7.110 -0.5262  1.5645  0.8009
  345MOL0     H45500   5.776   7.242   7.168  0.1427 -0.9357  0.2180
  345MOL0     H45501   5.836   7.338   7.029  0.1236 -0.6885  0.8635
  345MOL0     H45502   5.403   7.417   7.001 -0.4088 -0.0517 -0.7493
  345MOL0     H45503   5.199   7.416   7.152  1.2487 -1.2870 -1.4140
  345MOL0     H45504   4.962   7.172   7.488  1.4955  1.3344 -1.3855
  345MOL0     H45505   4.708   7.152   7.554 -0.6360  0.3227  0.7219
  345MOL0     H45506   4.324   7.323   7.428  2.3030 -3.0379 -0.7491
  345MOL0     H45507   4.439   7.442   7.363 -0.7764  2.3568  1.1566
  345MOL0     H45508   4.446   7.573   7.560  1.7491 -1.6681 -1.6134
  345MOL0     H45509   4.384   7.449   7.663 -0.6007  0.7226  1.1993
  345MOL0     H45510   4.152   7.478   7.535  1.5408 -1.9821  0.0513
  345MOL0     H45511   4.227   7.612   7.456 -0.8226 -0.6653  0.2582
  345MOL0     H45512   4.180   7.569   7.761 -1.0552 -1.1883 -0.5411
  345MOL0     H45513   4.262   7.715   7.710 -0.0059 -0.7470  2.2109
  345MOL0     H45514   3.981   7.640   7.652 -0.8057 -0.6949 -0.7792
  345MOL0     H45515   4.075   7.764   7.560  1.3688 -0.1194  0.8601
  345MOL0     H45516   3.953   7.889   7.750 -0.6650  0.3962  3.7622
  345MOL0     H45517   4.123   7.894   7.784  1.5855 -1.8116 -1.7149
  345MOL0     H45518   3.927   7.688   7.876  0.2428  1.6349 -2.4399
  345MOL0     H45519   4.102   7.679   7.928  0.4086  2.3119  1.7085
  345MOL0     H45520   4.072   7.906   8.037  0.2291  0.0191 -1.0442
  345MOL0     H45521   3.984   7.778   8.115  1.9001  0.8721 -0.0328
  345MOL0     H45522   4.653   7.546   7.433  1.6968  0.7834  0.2736
  345MOL0     H45523   4.878   7.560   7.355  0.4002 -0.4028 -1.4745
  345MOL0     H45524   5.425   7.193   7.443 -0.6711  1.9248  1.0194
  345MOL0     H45525   5.627   7.210   7.294  1.0654 -1.5014 -3.5789
  345MOL0     H45526   7.232   8.237   7.146  0.4090  2.0628 -0.8833
  345MOL0     H45527   7.444   8.366   7.078 -0.2159 -0.9191  3.1519
  345MOL0     H45528   7.860   8.356   7.015  1.4145  1.8273  1.4602
  345MOL0     H45529   8.061   8.483   6.981  2.7557 -0.8561 -1.3511
  345MOL0     H45530   8.171   8.684   6.578 -0.4115 -0.3620  0.1152
  345MOL0     H45531   8.196   8.512   6.578  0.7700 -0.3574 -0.6765
  345MOL0     H45532   8.379   8.713   6.707 -1.2881  1.9408 -3.2496
  345MOL0     H45533   8.394   8.547   6.746  1.4116 -0.1902 -0.3968
  345MOL0     H45534   8.558   8.600   6.569 -0.9484  0.4398  0.7493
  345MOL0     H45535   8.442   8.684   6.470 -2.9834 -0.7159 -0.3689
  345MOL0     H45536   8.347   8.467   6.408  0.8722  1.0007 -1.5808
  345MOL0     H45537   8.519   8.471   6.368 -2.8955  0.0679 -2.6347
  345MOL0     H45538   8.457   8.191   6.693 -0.6087  1.7126  0.4110
  345MOL0     H45539   7.942   8.597   6.589 -0.6872 -0.8701 -1.3950
  345MOL0     H45540   7.738   8.458   6.614  1.0232  0.5085 -0.0570
  346MOL0     O45541   0.832   7.196   4.824 -0.0027 -0.7846 -0.0923
  346MOL0     C45542   0.905   7.293   4.862  1.1381  0.0009 -0.1108
  346MOL0     O45543   0.876   7.383   4.966  0.6752  0.6798  0.5796
  346MOL0     C45544   0.763   7.376   5.038  1.0231 -0.1013  0.2933
  346MOL0     C45545   0.752   7.411   5.176 -0.0036  0.0038  0.9249
  346MOL0     C45546   0.637   7.423   5.246 -0.4258  0.2132 -0.1160
  346MOL0     C45547   0.520   7.360   5.200 -0.1462  0.9836  0.0229
  346MOL0     O45548   0.409   7.349   5.273  0.2727 -0.3044 -0.4015
  346MOL0     C45549   0.398   7.439   5.390  0.0165  0.5331 -0.2406
  346MOL0     C45550   0.251   7.435   5.430  0.6682  0.3281 -1.1116
  346MOL0     C45551   0.157   7.472   5.314  1.0321 -0.1795 -0.9490
  346MOL0     C45552   0.012   7.423   5.363 -0.3091  0.1838 -0.3104
  346MOL0     C45553  -0.075   7.458   5.250 -0.3633  0.3005 -0.7960
  346MOL0     C45554  -0.201   7.372   5.253  0.2524 -0.6788  0.2433
  346MOL0     C45555  -0.285   7.381   5.129  0.9776  0.2406  0.1281
  346MOL0     C45556  -0.404   7.270   5.123  0.4895 -0.1287 -0.1070
  346MOL0     N45557  -0.490   7.285   5.238 -0.2247 -0.1642 -0.3280
  346MOL0     C45558  -0.494   7.383   5.339 -0.0281  0.2035  0.6318
  346MOL0     C45559  -0.604   7.351   5.411 -0.0825 -0.1128  1.1767
  346MOL0     C45560  -0.639   7.444   5.521  0.4902 -0.1378 -0.6548
  346MOL0     C45561  -0.657   7.377   5.657  0.2108 -0.0997 -0.4478
  346MOL0     C45562  -0.551   7.292   5.724 -0.8220  0.6712  0.4590
  346MOL0     C45563  -0.415   7.359   5.717 -0.1276  0.6044 -0.1739
  346MOL0     O45564  -0.409   7.453   5.819 -0.1519 -0.0287 -0.6232
  346MOL0     C45565  -0.342   7.438   5.942  0.9096  0.1993 -0.3035
  346MOL0     C45566  -0.312   7.552   6.006 -0.6246  0.1122 -0.2517
  346MOL0     C45567  -0.233   7.537   6.119  0.7282 -0.2088  0.2378
  346MOL0     C45568  -0.183   7.411   6.171  0.4005  0.3513  0.9186
  346MOL0     C45569  -0.094   7.392   6.288 -0.2594 -0.0486  0.6144
  346MOL0     O45570  -0.034   7.269   6.308  1.0175 -0.3720  0.2642
  346MOL0     C45571   0.043   7.236   6.415  0.0694  0.9888 -0.0879
  346MOL0     C45572   0.029   7.101   6.455  0.1761  0.1616  0.8456
  346MOL0     C45573   0.105   7.060   6.570 -0.1397  0.1468 -0.6307
  346MOL0     C45574   0.186   7.146   6.645 -0.0331 -0.4560 -1.0317
  346MOL0     O45575   0.241   7.107   6.768  0.0390  0.2813 -0.3329
  346MOL0     C45576   0.301   7.201   6.854 -0.2183 -0.3478  0.4773
  346MOL0     C45577   0.438   7.232   6.791 -0.5139 -0.4581  0.1028
  346MOL0     C45578   0.510   7.099   6.756 -1.1384  0.4073  0.6946
  346MOL0     C45579   0.647   7.122   6.691 -0.4147 -0.3779 -0.6077
  346MOL0     C45580   0.724   6.987   6.666  0.3058 -0.4477  0.4877
  346MOL0     C45581   0.837   7.002   6.575  1.0279  0.1770 -0.0019
  346MOL0     C45582   0.965   7.040   6.641 -0.8082  0.7360 -0.0083
  346MOL0     C45583   1.085   7.001   6.553  0.1692  0.1265  0.0034
  346MOL0    Cl45584   1.094   6.820   6.548  0.2397  0.0874 -0.2360
  346MOL0     C45585   0.195   7.281   6.595 -0.2940  0.6630 -0.3382
  346MOL0     C45586   0.133   7.320   6.477 -0.1399 -0.0151 -1.4690
  346MOL0     O45587  -0.069   7.498   6.352 -0.4217 -0.4905  0.4780
  346MOL0     C45588  -0.237   7.299   6.106  0.1030  0.5932  0.0007
  346MOL0     C45589  -0.314   7.312   5.992  0.0998  0.3976  0.5384
  346MOL0     N45590  -0.658   7.227   5.367 -0.3385 -0.4477 -0.2399
  346MOL0     N45591  -0.583   7.191   5.268  0.1484 -0.2909  0.2301
  346MOL0     C45592   0.520   7.320   5.063  0.7657 -0.2424 -0.3554
  346MOL0     C45593   0.639   7.341   4.979 -0.3211 -0.3335  0.0463
  346MOL0     C45594   1.039   7.300   4.818  0.4779 -0.1847 -0.2153
  346MOL0     C45595   1.140   7.378   4.883 -0.3675 -0.3809 -0.2916
  346MOL0     C45596   1.275   7.373   4.846 -0.1293  0.1261  0.5552
  346MOL0     C45597   1.306   7.288   4.735  0.9099 -0.4572  0.5510
  346MOL0     O45598   1.425   7.267   4.673 -0.6533 -0.2349 -0.4717
  346MOL0     C45599   1.540   7.332   4.738  0.1855 -0.1796  0.0686
  346MOL0     C45600   1.633   7.328   4.624 -0.0261 -0.1404 -0.4818
  346MOL0     C45601   1.766   7.393   4.677 -0.3354  0.1615  1.2611
  346MOL0     C45602   1.853   7.427   4.554  0.9027 -0.2678 -0.0309
  346MOL0     C45603   1.992   7.433   4.605 -0.4048 -0.9516  0.2969
  346MOL0     C45604   2.104   7.420   4.638 -0.0776  0.2431 -0.5559
  346MOL0     C45605   1.209   7.217   4.667 -0.8371  0.3635  0.6148
  346MOL0     C45606   1.078   7.217   4.713 -0.4284 -0.5649 -0.0418
  346MOL0     H45607   0.841   7.454   5.221  0.1312  1.1522 -0.3949
  346MOL0     H45608   0.638   7.475   5.340  0.3605  1.0411 -0.5649
  346MOL0     H45609   0.425   7.543   5.374 -0.2099  1.0910  2.4946
  346MOL0     H45610   0.467   7.402   5.466  0.5431  0.0559 -0.9396
  346MOL0     H45611   0.229   7.501   5.514 -0.6416 -2.2137  0.6902
  346MOL0     H45612   0.226   7.332   5.458  0.2895  0.1019 -2.2115
  346MOL0     H45613   0.191   7.414   5.227 -0.7348  1.0269 -2.5084
  346MOL0     H45614   0.158   7.576   5.281  1.6717 -0.2524 -1.1832
  346MOL0     H45615   0.016   7.317   5.388  0.7844  0.5063  0.9688
  346MOL0     H45616  -0.015   7.470   5.458  1.8563 -0.1808  0.5241
  346MOL0     H45617  -0.019   7.446   5.156  4.3037  1.7287  1.5308
  346MOL0     H45618  -0.094   7.564   5.267  3.1087  1.0970 -1.1509
  346MOL0     H45619  -0.249   7.400   5.348  2.2090  2.4687  0.4464
  346MOL0     H45620  -0.180   7.266   5.269 -0.4172 -0.7465  0.7308
  346MOL0     H45621  -0.316   7.485   5.120  1.7071  0.4000 -0.5543
  346MOL0     H45622  -0.223   7.371   5.040  0.6156 -1.2076  0.0100
  346MOL0     H45623  -0.370   7.168   5.105 -1.7828 -0.3192 -4.8404
  346MOL0     H45624  -0.461   7.304   5.035  1.8636  0.5248 -0.7845
  346MOL0     H45625  -0.438   7.476   5.344 -0.2023  0.7580 -3.9009
  346MOL0     H45626  -0.736   7.491   5.498  1.4390  1.9543 -0.5920
  346MOL0     H45627  -0.564   7.522   5.537  2.3847 -2.1499  0.8486
  346MOL0     H45628  -0.749   7.317   5.662 -0.0551  0.3417  0.2432
  346MOL0     H45629  -0.692   7.457   5.723 -3.3298 -2.0801  0.3585
  346MOL0     H45630  -0.585   7.272   5.826 -0.4286 -0.8182  0.3201
  346MOL0     H45631  -0.540   7.198   5.669  1.5970  1.8093 -1.1599
  346MOL0     H45632  -0.403   7.405   5.618 -1.3092 -1.6638 -1.4312
  346MOL0     H45633  -0.332   7.289   5.730 -0.4034  0.3729  0.4099
  346MOL0     H45634  -0.335   7.649   5.960  2.0744  0.8945 -0.1217
  346MOL0     H45635  -0.196   7.627   6.167  1.1000 -2.4037  4.4570
  346MOL0     H45636  -0.046   7.037   6.410 -2.7205  1.8265  2.9027
  346MOL0     H45637   0.105   6.957   6.606 -1.5272 -0.5519 -2.4417
  346MOL0     H45638   0.320   7.154   6.952  5.2335 -0.3233 -0.2716
  346MOL0     H45639   0.247   7.292   6.881 -0.2214 -0.7382  1.8738
  346MOL0     H45640   0.503   7.292   6.855  0.0461 -1.0557  0.1123
  346MOL0     H45641   0.430   7.291   6.699  0.0504 -0.6926 -0.1032
  346MOL0     H45642   0.463   7.053   6.669  2.4467 -0.1258 -1.1765
  346MOL0     H45643   0.508   7.028   6.839  2.2466  1.4821  1.8494
  346MOL0     H45644   0.635   7.172   6.595  1.3612 -1.8070 -1.6327
  346MOL0     H45645   0.715   7.180   6.755  0.8211 -1.2415 -1.0783
  346MOL0     H45646   0.650   6.928   6.611 -0.2291  0.2615  0.4375
  346MOL0     H45647   0.754   6.928   6.753  0.5677 -0.8844  0.1035
  346MOL0     H45648   0.815   7.061   6.485  1.9258  2.0101  0.9188
  346MOL0     H45649   0.843   6.907   6.522  3.0071 -0.7432  1.7507
  346MOL0     H45650   0.970   7.148   6.654  2.4415  0.9164 -1.6808
  346MOL0     H45651   0.985   6.987   6.734  3.5604  0.5624 -0.7996
  346MOL0     H45652   1.181   7.034   6.592  0.4578 -3.1776  2.5175
  346MOL0     H45653   1.074   7.037   6.450 -0.2322  0.1727  0.0620
  346MOL0     H45654   0.252   7.357   6.648  0.3322  0.3627 -0.5730
  346MOL0     H45655   0.143   7.423   6.445  2.5175  0.2846 -0.0004
  346MOL0     H45656  -0.220   7.200   6.149 -0.7995  0.4511  0.0435
  346MOL0     H45657  -0.360   7.225   5.947  1.4568  0.1718 -0.4758
  346MOL0     H45658   0.430   7.278   5.019  0.2295 -0.8032  1.1875
  346MOL0     H45659   0.634   7.321   4.873  1.9345  0.0105 -0.1917
  346MOL0     H45660   1.116   7.434   4.973  1.3742 -0.1516  0.0623
  346MOL0     H45661   1.351   7.434   4.894  0.2582 -0.7039  1.0066
  346MOL0     H45662   1.562   7.263   4.819 -2.7197 -0.8373  0.4214
  346MOL0     H45663   1.526   7.435   4.772  3.6473 -0.2763  2.2435
  346MOL0     H45664   1.651   7.222   4.600  1.3330 -1.2739  4.4076
  346MOL0     H45665   1.598   7.383   4.537  2.0601  1.9129 -0.1209
  346MOL0     H45666   1.820   7.334   4.751 -3.9560 -1.6855  2.6899
  346MOL0     H45667   1.741   7.491   4.719 -0.4156 -0.3307  2.4105
  346MOL0     H45668   1.843   7.363   4.467 -0.1836 -0.2770  0.0822
  346MOL0     H45669   1.802   7.518   4.521 -1.6985 -1.7832 -0.3992
  346MOL0     H45670   2.209   7.415   4.662 -0.4722 -1.0235  1.0831
  346MOL0     H45671   1.238   7.152   4.585 -2.8932 -0.0747  0.1787
  346MOL0     H45672   0.997   7.167   4.663  1.3484 -2.6190 -1.0385
  347MOL0     O45673   8.886   9.201  10.022 -0.4157 -0.1167  0.4408
  347MOL0     C45674   8.875   9.317  10.058  0.7483 -1.1138 -0.3160
  347MOL0     O45675   8.757   9.373  10.103 -0.1842 -0.1653 -0.1092
  347MOL0     C45676   8.641   9.307  10.102 -0.1150 -0.0618  0.3210
  347MOL0     C45677   8.610   9.171  10.092  0.3419  0.1546  0.3050
  347MOL0     C45678   8.480   9.128  10.114 -0.5491 -0.1903  0.4575
  347MOL0     C45679   8.383   9.229  10.136  0.4246  0.5813  0.2976
  347MOL0     O45680   8.254   9.178  10.146  0.2358 -0.0578 -1.0904
  347MOL0     C45681   8.147   9.275  10.134 -0.5883  0.3241  0.6530
  347MOL0     C45682   8.097   9.300  10.272 -0.5820 -0.3880 -0.3187
  347MOL0     C45683   7.968   9.387  10.281  0.7842  0.9001 -0.4774
  347MOL0     C45684   7.935   9.405  10.425 -0.0430 -0.2009 -0.3018
  347MOL0     C45685   7.801   9.476  10.442  0.4771  0.2502 -0.7523
  347MOL0     C45686   7.764   9.605  10.361 -1.4156 -1.0845 -0.1000
  347MOL0     C45687   7.850   9.728  10.381 -1.1339  0.9592 -0.3610
  347MOL0     C45688   7.903   9.746  10.520 -0.2792 -0.5193 -0.3259
  347MOL0     N45689   7.980   9.868  10.515  0.2913 -0.1586  0.2133
  347MOL0     C45690   7.937   9.992  10.563  0.6841  0.3891  0.6401
  347MOL0     C45691   8.037  10.072  10.522  0.8341  0.1426 -0.3003
  347MOL0     C45692   8.057  10.218  10.552  0.0802 -0.1704 -0.3950
  347MOL0     C45693   8.065  10.244  10.703 -0.5586 -0.3941  0.6061
  347MOL0     C45694   7.962  10.326  10.761 -0.1963  0.8692  0.3531
  347MOL0     C45695   7.821  10.262  10.755  0.1666  0.2038  0.4699
  347MOL0     O45696   7.715  10.333  10.802 -0.2638  0.3184 -1.0484
  347MOL0     C45697   7.648  10.429  10.727  1.0192 -0.4288 -0.8289
  347MOL0     C45698   7.676  10.469  10.594 -1.2264 -0.4487 -0.8911
  347MOL0     C45699   7.597  10.550  10.521 -0.0892 -0.1406 -0.4185
  347MOL0     C45700   7.484  10.615  10.575 -0.6909 -0.5415 -0.0052
  347MOL0     C45701   7.389  10.709  10.503  0.1516 -0.4810 -0.4449
  347MOL0     O45702   7.292  10.773  10.573  0.1259 -0.3738  0.5909
  347MOL0     C45703   7.224  10.872  10.505 -0.0459  0.0620  0.0675
  347MOL0     C45704   7.287  10.992  10.497  0.5875 -0.3424 -0.2894
  347MOL0     C45705   7.221  11.092  10.425  0.2515 -0.1718 -0.2774
  347MOL0     C45706   7.101  11.065  10.355 -0.3477 -0.3320 -0.0463
  347MOL0     O45707   7.025  11.161  10.278 -0.8794  0.3261 -0.5948
  347MOL0     C45708   7.094  11.289  10.245 -0.2123  0.9182  0.4967
  347MOL0     C45709   7.025  11.338  10.125  0.1479 -1.7449 -0.1059
  347MOL0     C45710   6.885  11.372  10.152  0.8243 -0.0421  0.1444
  347MOL0     C45711   6.831  11.479  10.049 -0.5553  0.1839  0.0871
  347MOL0     C45712   6.680  11.511  10.061  0.6308 -0.1262 -0.0542
  347MOL0     C45713   6.637  11.564  10.195 -0.7726 -0.3850  0.0312
  347MOL0     C45714   6.492  11.616  10.193 -0.1909  1.5190  0.0223
  347MOL0     C45715   6.438  11.638  10.329  0.5425 -0.7004  0.2996
  347MOL0    Cl45716   6.268  11.688  10.297  0.1634 -0.1790 -0.5244
  347MOL0     C45717   7.037  10.942  10.365  0.7244 -0.3795  0.9539
  347MOL0     C45718   7.105  10.842  10.435 -0.5897  0.3574 -1.0910
  347MOL0     O45719   7.416  10.728  10.388  0.0487  0.4608  0.0543
  347MOL0     C45720   7.454  10.581  10.709 -0.2727 -0.5251 -0.3310
  347MOL0     C45721   7.539  10.494  10.785  0.3843  0.2135 -0.7916
  347MOL0     N45722   8.141  10.003  10.467  0.4787  0.3504 -0.6677
  347MOL0     N45723   8.098   9.881  10.445 -1.0815 -0.3418 -0.5044
  347MOL0     C45724   8.417   9.364  10.147 -0.3203 -0.0483 -0.0216
  347MOL0     C45725   8.550   9.406  10.132  0.4665 -0.7874  0.9737
  347MOL0     C45726   9.007   9.399  10.051  0.2433  0.1830  0.2527
  347MOL0     C45727   9.137   9.337  10.031  1.0278 -0.2818  0.7081
  347MOL0     C45728   9.253   9.420  10.031  0.3990  0.8808  0.1399
  347MOL0     C45729   9.255   9.553  10.054  0.2270 -0.5855 -0.4394
  347MOL0     O45730   9.366   9.639  10.046  0.0487  0.0970 -0.1562
  347MOL0     C45731   9.500   9.598  10.059 -0.3168  0.7599 -0.1631
  347MOL0     C45732   9.587   9.710  10.004  0.6505 -0.3521 -0.6047
  347MOL0     C45733   9.590   9.836  10.085  0.3658  0.1571  0.1691
  347MOL0     C45734   9.653   9.823  10.223  0.4639 -0.0282 -0.2170
  347MOL0     C45735   9.788   9.781  10.203  0.0223  0.2368  0.2884
  347MOL0     C45736   9.907   9.748  10.205 -1.3828 -0.0044 -0.5619
  347MOL0     C45737   9.132   9.613  10.076 -0.2111 -0.0887 -0.1489
  347MOL0     C45738   9.012   9.536  10.084 -0.2155 -0.8699 -1.3995
  347MOL0     H45739   8.678   9.093  10.062 -0.1896  0.0214 -0.5883
  347MOL0     H45740   8.448   9.025  10.131 -4.6665  0.8219 -0.0180
  347MOL0     H45741   8.062   9.226  10.084  0.3715 -3.0877  2.1132
  347MOL0     H45742   8.184   9.369  10.091  3.2323 -1.4202 -0.2295
  347MOL0     H45743   8.177   9.349  10.329 -0.2689 -0.4536 -0.7024
  347MOL0     H45744   8.064   9.202  10.308  0.4371 -0.1705  1.2925
  347MOL0     H45745   7.886   9.340  10.226  0.0491  1.1410  0.3928
  347MOL0     H45746   7.990   9.476  10.222 -0.4113 -0.7407 -3.5961
  347MOL0     H45747   7.923   9.314  10.484 -0.8478  1.5875  2.4640
  347MOL0     H45748   8.016   9.464  10.469  1.6323  0.2454 -3.6558
  347MOL0     H45749   7.797   9.504  10.547 -0.4149  1.8434 -1.1806
  347MOL0     H45750   7.720   9.404  10.423 -1.1457  1.9675 -0.6625
  347MOL0     H45751   7.668   9.642  10.401 -0.6388  0.7342  0.1849
  347MOL0     H45752   7.751   9.580  10.256 -1.3523 -0.0239 -0.3685
  347MOL0     H45753   7.941   9.720  10.320  0.4347 -0.3960  1.9666
  347MOL0     H45754   7.794   9.818  10.355  1.2534  2.9335  0.9189
  347MOL0     H45755   7.962   9.661  10.555 -2.6348 -2.0358  0.2020
  347MOL0     H45756   7.826   9.764  10.595  0.6882  0.5133  0.4626
  347MOL0     H45757   7.850  10.010  10.626  0.0801  1.9651 -0.5669
  347MOL0     H45758   7.969  10.271  10.514 -1.5228 -1.4661  1.3409
  347MOL0     H45759   8.146  10.254  10.499 -0.4395  1.7237 -0.0343
  347MOL0     H45760   8.157  10.301  10.721  0.5670 -2.0015  0.2679
  347MOL0     H45761   8.075  10.152  10.762  3.3136  1.2771  2.9746
  347MOL0     H45762   7.974  10.334  10.869 -1.1924 -1.0990  0.6438
  347MOL0     H45763   7.964  10.423  10.711  0.1624 -0.1367 -1.6876
  347MOL0     H45764   7.821  10.177  10.823  1.4914 -0.2244 -0.0406
  347MOL0     H45765   7.796  10.221  10.656  1.8112  0.3581 -0.0443
  347MOL0     H45766   7.773  10.435  10.559 -0.4888  0.9431 -0.2766
  347MOL0     H45767   7.637  10.584  10.426 -1.6408  1.5281 -0.5319
  347MOL0     H45768   7.383  11.003  10.547 -0.9336 -1.0331  3.0559
  347MOL0     H45769   7.277  11.185  10.416 -0.4198  0.4476  1.4221
  347MOL0     H45770   7.198  11.275  10.217 -1.0369 -0.0712 -2.4927
  347MOL0     H45771   7.108  11.367  10.321  0.1000 -0.2327  1.6599
  347MOL0     H45772   7.037  11.275  10.036  1.2752  0.0991 -1.3137
  347MOL0     H45773   7.073  11.433  10.099 -0.9012 -1.1087  0.2225
  347MOL0     H45774   6.881  11.422  10.249  0.3867  0.7780 -0.2857
  347MOL0     H45775   6.815  11.289  10.163  0.6559 -0.0871 -1.1318
  347MOL0     H45776   6.885  11.570  10.078 -0.5527 -0.2073  1.4045
  347MOL0     H45777   6.864  11.444   9.951  2.1099 -0.7176  1.2338
  347MOL0     H45778   6.629  11.415  10.048  1.1048 -0.7282  2.0448
  347MOL0     H45779   6.645  11.581   9.985  1.0230 -0.6422 -0.7176
  347MOL0     H45780   6.699  11.644  10.234 -2.1290 -0.9113  3.6771
  347MOL0     H45781   6.647  11.480  10.265  0.7740  1.1456  1.7388
  347MOL0     H45782   6.489  11.712  10.140 -1.6994  0.9330 -1.0098
  347MOL0     H45783   6.438  11.544  10.131  1.9982  0.4739 -0.7595
  347MOL0     H45784   6.492  11.712  10.389 -2.3657 -0.3101  2.6607
  347MOL0     H45785   6.431  11.545  10.385  2.2151 -0.3050  1.2436
  347MOL0     H45786   6.947  10.922  10.308  0.2123  0.1622  1.5488
  347MOL0     H45787   7.059  10.744  10.441 -0.7434  0.5120  1.8343
  347MOL0     H45788   7.380  10.623  10.775 -1.0540  1.2015 -2.1862
  347MOL0     H45789   7.498  10.477  10.885  0.9154 -1.1729 -0.7784
  347MOL0     H45790   8.350   9.447  10.168  0.4430  0.3032  1.1211
  347MOL0     H45791   8.577   9.511  10.139 -0.2659 -0.4349 -0.9395
  347MOL0     H45792   9.145   9.232  10.008 -2.1097 -0.5668  0.5820
  347MOL0     H45793   9.343   9.377   9.988  1.2734  2.9145 -0.1653
  347MOL0     H45794   9.527   9.513   9.997  0.2336  0.1844  0.8299
  347MOL0     H45795   9.519   9.562  10.161  0.5251 -1.8153 -1.1630
  347MOL0     H45796   9.685   9.664   9.993  0.5257 -1.5153  2.2346
  347MOL0     H45797   9.574   9.736   9.898  0.4260  2.5076  0.0401
  347MOL0     H45798   9.486   9.869  10.092  0.9911  2.2348  0.4748
  347MOL0     H45799   9.645   9.912  10.028 -0.4283  1.2398  0.8106
  347MOL0     H45800   9.644   9.920  10.273 -2.9930 -1.0890  1.4838
  347MOL0     H45801   9.600   9.755  10.291  2.6079 -3.9877 -2.1852
  347MOL0     H45802  10.012   9.726  10.203 -1.0644  0.7254  2.7624
  347MOL0     H45803   9.120   9.720  10.088  1.3191  0.4609 -2.7274
  347MOL0     H45804   8.921   9.584  10.118  1.3124  0.6010  0.8389
  348MOL0     O45805   6.939   8.926   1.673 -0.3157 -0.8156 -0.3022
  348MOL0     C45806   7.036   8.919   1.750 -0.0053 -0.1731 -0.4868
  348MOL0     O45807   7.029   8.945   1.883  0.7518 -0.4593 -0.8646
  348MOL0     C45808   6.912   8.987   1.945  0.3981  1.1028  0.1875
  348MOL0     C45809   6.833   9.095   1.901  0.4881 -0.0315 -0.1917
  348MOL0     C45810   6.722   9.132   1.975 -0.3280  0.6214 -0.2629
  348MOL0     C45811   6.694   9.065   2.100 -0.5638  0.4063  0.7597
  348MOL0     O45812   6.591   9.113   2.179  0.3128 -0.0873 -0.2397
  348MOL0     C45813   6.519   9.235   2.153  0.0563  0.5847 -0.3549
  348MOL0     C45814   6.413   9.267   2.256 -1.0993 -0.4352 -0.0899
  348MOL0     C45815   6.481   9.331   2.375  0.5422  0.1924  0.3222
  348MOL0     C45816   6.395   9.427   2.460  0.4129  0.2987  0.7195
  348MOL0     C45817   6.250   9.388   2.492  0.3375 -0.9911  0.4334
  348MOL0     C45818   6.241   9.254   2.567  0.6986 -1.2892  0.3926
  348MOL0     C45819   6.263   9.280   2.713  0.3993  0.1419 -0.5484
  348MOL0     C45820   6.183   9.177   2.793  0.3414 -0.9457 -0.3688
  348MOL0     N45821   6.201   9.182   2.934  0.0126  0.2920 -0.9985
  348MOL0     C45822   6.112   9.200   3.030  0.1875  0.6759  0.1757
  348MOL0     C45823   6.179   9.188   3.155  0.1138  0.9849  0.7036
  348MOL0     C45824   6.106   9.193   3.288  0.0218 -0.5260 -0.4254
  348MOL0     C45825   6.055   9.329   3.315  0.5396 -1.2646 -1.0033
  348MOL0     C45826   6.155   9.444   3.341  0.5592  0.1642  0.4342
  348MOL0     C45827   6.252   9.427   3.457  0.3189  0.7959 -0.0297
  348MOL0     O45828   6.337   9.539   3.466 -1.0426  0.6620  0.5579
  348MOL0     C45829   6.456   9.521   3.521  0.3701  0.8345 -0.5681
  348MOL0     C45830   6.468   9.460   3.641  0.1692 -0.1947 -0.0752
  348MOL0     C45831   6.591   9.420   3.690 -0.8060 -0.2090  0.0055
  348MOL0     C45832   6.709   9.458   3.624  0.0882  0.4603 -0.0839
  348MOL0     C45833   6.840   9.428   3.677  0.4776 -1.2403  0.0903
  348MOL0     O45834   6.950   9.462   3.602 -0.0145  0.0352 -0.3277
  348MOL0     C45835   7.071   9.469   3.657  0.1892 -0.3212 -1.0122
  348MOL0     C45836   7.143   9.356   3.688 -0.0343  0.1424 -1.4308
  348MOL0     C45837   7.275   9.364   3.745  0.4632  0.1140  0.5000
  348MOL0     C45838   7.341   9.492   3.748 -0.4145 -0.1949 -0.1629
  348MOL0     O45839   7.474   9.515   3.785  0.9640 -0.1630 -0.2956
  348MOL0     C45840   7.574   9.414   3.765 -0.0162 -1.0269  0.3270
  348MOL0     C45841   7.638   9.417   3.624  0.4457  1.1684 -0.3455
  348MOL0     C45842   7.559   9.347   3.508  0.4355 -0.1144 -0.0445
  348MOL0     C45843   7.563   9.187   3.518 -0.2752 -0.0511  0.0055
  348MOL0     C45844   7.457   9.118   3.415 -0.3272 -0.3029  0.6437
  348MOL0     C45845   7.324   9.193   3.397 -0.5905  0.5504 -0.4382
  348MOL0     C45846   7.229   9.107   3.320  1.1209 -0.2991 -0.1551
  348MOL0     C45847   7.138   9.018   3.412 -0.6952 -0.4094 -0.7870
  348MOL0    Cl45848   7.232   8.892   3.513  0.0164  0.1716 -0.1168
  348MOL0     C45849   7.266   9.606   3.708 -0.1526  0.9714  0.6426
  348MOL0     C45850   7.127   9.594   3.672 -0.6719  0.0479 -0.6695
  348MOL0     O45851   6.844   9.370   3.787  0.3739 -0.7057  0.1618
  348MOL0     C45852   6.697   9.534   3.507  0.5366  0.9372  0.6475
  348MOL0     C45853   6.566   9.563   3.453 -0.5225 -0.1891  0.1899
  348MOL0     N45854   6.318   9.161   3.133  1.0353  0.4009 -0.3735
  348MOL0     N45855   6.312   9.160   3.005 -0.9373  0.3244  0.4948
  348MOL0     C45856   6.782   8.969   2.144  0.3609 -0.9644 -0.7375
  348MOL0     C45857   6.894   8.928   2.069 -0.9328 -0.2028 -0.1891
  348MOL0     C45858   7.162   8.899   1.697  0.4323 -1.3236  0.6565
  348MOL0     C45859   7.269   8.954   1.760  0.2138  0.3331  0.1992
  348MOL0     C45860   7.389   8.968   1.693 -0.1141 -0.6265  0.4612
  348MOL0     C45861   7.404   8.936   1.551 -1.1129 -0.0395 -0.0651
  348MOL0     O45862   7.524   8.984   1.493  0.4290 -0.2312 -1.0275
  348MOL0     C45863   7.569   8.933   1.365  0.5010 -0.1696 -0.5300
  348MOL0     C45864   7.645   8.814   1.404 -0.7098 -0.5138 -0.0115
  348MOL0     C45865   7.770   8.850   1.478  0.3847  0.2256  0.1814
  348MOL0     C45866   7.860   8.734   1.520 -0.3800  0.7703  0.3045
  348MOL0     C45867   8.001   8.772   1.544 -0.3847 -0.1920  0.3850
  348MOL0     C45868   8.118   8.789   1.564  0.3504 -0.0207  0.9662
  348MOL0     C45869   7.295   8.886   1.480 -0.8399  0.4569 -0.6300
  348MOL0     C45870   7.174   8.864   1.555 -1.0403 -0.3275 -1.0054
  348MOL0     H45871   6.849   9.153   1.811  1.3907 -0.6107 -0.4107
  348MOL0     H45872   6.655   9.210   1.940 -3.4594 -0.4830  2.7159
  348MOL0     H45873   6.478   9.244   2.052 -1.0849  0.5875  0.0923
  348MOL0     H45874   6.601   9.307   2.169 -0.1038  0.5007  1.0013
  348MOL0     H45875   6.363   9.175   2.289  0.2815 -0.9212  0.7794
  348MOL0     H45876   6.345   9.334   2.204  0.0954  0.4137 -0.6071
  348MOL0     H45877   6.565   9.394   2.345  0.1797 -0.2748 -1.8516
  348MOL0     H45878   6.519   9.258   2.446  0.1626  0.9096  1.2784
  348MOL0     H45879   6.448   9.454   2.551  0.8566 -2.1738  1.2573
  348MOL0     H45880   6.390   9.519   2.400  0.1952  0.2264  0.6252
  348MOL0     H45881   6.185   9.382   2.404 -2.3999  1.4659  2.1195
  348MOL0     H45882   6.211   9.476   2.543  2.0421  1.1484 -1.7390
  348MOL0     H45883   6.298   9.179   2.512 -0.6450 -2.3313  0.3451
  348MOL0     H45884   6.135   9.228   2.556  0.9900 -1.9724 -0.9115
  348MOL0     H45885   6.371   9.271   2.733  0.4090  0.0270 -0.6503
  348MOL0     H45886   6.226   9.373   2.757  1.6720  0.2703  0.3014
  348MOL0     H45887   6.194   9.077   2.751  0.9400 -1.1768  0.3028
  348MOL0     H45888   6.076   9.197   2.785  0.0107 -1.5046  1.8227
  348MOL0     H45889   6.005   9.218   3.020 -0.4933 -2.7530 -0.0353
  348MOL0     H45890   6.170   9.158   3.370 -0.5453  2.8280  1.6172
  348MOL0     H45891   6.024   9.121   3.280 -1.1966  1.0072 -2.8807
  348MOL0     H45892   6.002   9.326   3.410  1.4656  0.1530 -0.3946
  348MOL0     H45893   5.980   9.356   3.240  1.7435 -0.1734 -1.8603
  348MOL0     H45894   6.216   9.466   3.253 -1.5275  0.8665 -0.8940
  348MOL0     H45895   6.096   9.535   3.358 -2.4346 -0.7934 -3.5139
  348MOL0     H45896   6.298   9.328   3.452 -0.9448  0.2211 -0.8073
  348MOL0     H45897   6.195   9.434   3.550 -0.2628  2.7334 -0.4766
  348MOL0     H45898   6.381   9.436   3.702  0.3815  0.7786  0.6281
  348MOL0     H45899   6.593   9.368   3.785  0.4572 -0.9120 -0.3798
  348MOL0     H45900   7.095   9.259   3.676  0.1827 -0.8100  3.2845
  348MOL0     H45901   7.309   9.267   3.781 -3.9089 -1.9543 -0.2010
  348MOL0     H45902   7.541   9.313   3.791  1.3084 -2.0006 -1.5616
  348MOL0     H45903   7.659   9.445   3.827  0.2552  0.6178 -0.7818
  348MOL0     H45904   7.737   9.370   3.620 -0.8016 -1.6129 -1.5479
  348MOL0     H45905   7.654   9.518   3.586 -0.6389  0.8387 -1.7718
  348MOL0     H45906   7.589   9.384   3.409  1.1890 -1.1952 -0.2328
  348MOL0     H45907   7.454   9.373   3.520  0.7777  1.1485  0.4061
  348MOL0     H45908   7.664   9.151   3.502  0.2251 -0.0253  2.6449
  348MOL0     H45909   7.525   9.159   3.617 -2.7983  0.3850 -0.7648
  348MOL0     H45910   7.441   9.014   3.443  1.0086  0.2951  4.1839
  348MOL0     H45911   7.497   9.113   3.314  0.5650  0.5706  0.9334
  348MOL0     H45912   7.340   9.290   3.348  1.2347  0.3120 -0.3931
  348MOL0     H45913   7.281   9.218   3.494 -0.5905 -1.7088  0.1997
  348MOL0     H45914   7.162   9.177   3.270 -0.2913 -1.3437  0.2025
  348MOL0     H45915   7.282   9.045   3.246  1.9918  1.7003 -1.2725
  348MOL0     H45916   7.068   8.962   3.349 -1.5451  0.3824 -0.5710
  348MOL0     H45917   7.076   9.083   3.474 -1.4395 -1.2441 -0.6216
  348MOL0     H45918   7.313   9.703   3.705  4.7271 -1.0294  2.4798
  348MOL0     H45919   7.075   9.683   3.639 -1.5520  0.3387  1.3547
  348MOL0     H45920   6.783   9.577   3.459 -1.7882  4.1362 -1.0477
  348MOL0     H45921   6.553   9.621   3.363 -1.9400  0.0635  0.5331
  348MOL0     H45922   6.767   8.935   2.246  2.6237 -0.0169 -0.0245
  348MOL0     H45923   6.967   8.860   2.112  2.2080  3.7683  1.3877
  348MOL0     H45924   7.274   8.994   1.860  1.8542 -0.4241  0.4497
  348MOL0     H45925   7.462   9.026   1.748 -0.7108  0.7050 -0.1264
  348MOL0     H45926   7.628   9.007   1.311  1.4389  0.2517  1.0013
  348MOL0     H45927   7.479   8.915   1.305 -0.5230 -2.4095  1.4924
  348MOL0     H45928   7.582   8.754   1.470  1.3719 -0.2082  2.4562
  348MOL0     H45929   7.669   8.763   1.311  2.8963  3.1713 -1.4137
  348MOL0     H45930   7.742   8.918   1.560 -0.9358  0.5427 -0.5053
  348MOL0     H45931   7.825   8.898   1.397  1.9434 -1.5836  0.1100
  348MOL0     H45932   7.824   8.678   1.607  1.3306 -1.6735 -0.4710
  348MOL0     H45933   7.861   8.658   1.442 -3.1752 -1.7593  2.4856
  348MOL0     H45934   8.224   8.801   1.575 -0.0870  3.6372  2.5437
  348MOL0     H45935   7.310   8.853   1.378  0.5020  1.9231 -0.9439
  348MOL0     H45936   7.083   8.831   1.506 -0.7840  2.2420 -3.4593
  349MOL0     O45937   8.053   3.875   6.851 -0.0167 -0.2558  0.9161
  349MOL0     C45938   8.074   3.861   6.728  0.8280 -0.4811  0.0648
  349MOL0     O45939   7.980   3.819   6.643 -0.2722  0.9584 -0.6776
  349MOL0     C45940   7.849   3.809   6.684 -0.6606  0.7789  0.4150
  349MOL0     C45941   7.787   3.684   6.706  0.5248 -0.0898  0.4429
  349MOL0     C45942   7.646   3.665   6.724 -0.4387  0.1764  0.2205
  349MOL0     C45943   7.564   3.778   6.699 -0.0728 -0.3775  0.0344
  349MOL0     O45944   7.429   3.755   6.703  0.2435  0.2103 -0.2117
  349MOL0     C45945   7.337   3.868   6.731 -0.3649  0.6842  0.9350
  349MOL0     C45946   7.199   3.817   6.714 -0.2088 -0.2667  0.3040
  349MOL0     C45947   7.085   3.910   6.755  0.5906  0.7133 -0.2295
  349MOL0     C45948   6.947   3.830   6.762 -0.4037  0.1175 -0.1932
  349MOL0     C45949   6.837   3.913   6.832 -0.0169  0.5034  0.1041
  349MOL0     C45950   6.707   3.828   6.847  0.4564 -0.2096 -0.0671
  349MOL0     C45951   6.584   3.883   6.927  0.3536  0.1930  0.8677
  349MOL0     C45952   6.605   3.995   7.026 -0.4379 -0.6085 -0.6067
  349MOL0     N45953   6.477   4.030   7.087  0.7236  0.2260 -0.0523
  349MOL0     C45954   6.406   3.953   7.180 -0.7180  0.2345 -0.6404
  349MOL0     C45955   6.286   4.008   7.172 -0.0219 -0.5945 -0.3795
  349MOL0     C45956   6.160   3.948   7.246  0.2053  0.1817 -0.0107
  349MOL0     C45957   6.037   3.945   7.152  0.3724  0.4383  0.0539
  349MOL0     C45958   5.900   3.930   7.229 -0.2562  0.0123  0.1846
  349MOL0     C45959   5.774   3.930   7.139 -0.2855  0.3483 -0.5717
  349MOL0     O45960   5.710   3.806   7.176  0.5237 -0.2991  0.3959
  349MOL0     C45961   5.594   3.769   7.109  0.5824  0.0873  0.5495
  349MOL0     C45962   5.526   3.666   7.167  0.1281  0.3908  0.4489
  349MOL0     C45963   5.403   3.621   7.120  1.1176 -0.4606  1.1935
  349MOL0     C45964   5.349   3.672   6.999  0.7102 -0.4205 -0.0700
  349MOL0     C45965   5.220   3.620   6.949  0.1367  0.3094 -0.4955
  349MOL0     O45966   5.154   3.521   7.023 -0.0522  0.1956  0.2310
  349MOL0     C45967   5.033   3.480   6.974  1.3208 -0.3308  0.4122
  349MOL0     C45968   4.999   3.339   6.993  0.5441  0.4185  0.5558
  349MOL0     C45969   4.876   3.288   6.946 -1.2092  0.5598  0.6844
  349MOL0     C45970   4.777   3.379   6.896  0.3396  1.4826 -0.1420
  349MOL0     O45971   4.653   3.333   6.862  0.4691  1.6133  0.7728
  349MOL0     C45972   4.543   3.380   6.940  0.6997 -0.4681 -0.5127
  349MOL0     C45973   4.422   3.339   6.863 -0.0679  0.3675  0.5003
  349MOL0     C45974   4.298   3.370   6.932  0.0685 -0.2409  0.4911
  349MOL0     C45975   4.165   3.370   6.849 -0.0550 -0.7668  0.9041
  349MOL0     C45976   4.135   3.504   6.788  0.8245 -0.2307  0.0710
  349MOL0     C45977   3.998   3.518   6.727  0.7819  0.2922 -1.1473
  349MOL0     C45978   3.978   3.425   6.606  0.4551 -0.7922  0.8958
  349MOL0     C45979   3.852   3.478   6.535 -0.4870 -0.1483  0.1150
  349MOL0    Cl45980   3.712   3.440   6.640 -0.0556  0.4133 -0.1883
  349MOL0     C45981   4.807   3.516   6.887  0.2754 -0.4011 -0.1777
  349MOL0     C45982   4.929   3.569   6.924 -0.3061 -0.2578 -0.5414
  349MOL0     O45983   5.184   3.664   6.843  0.2663 -0.7682  0.5607
  349MOL0     C45984   5.429   3.775   6.938  0.1098 -0.2973  0.1206
  349MOL0     C45985   5.548   3.829   6.997 -0.1715  0.0993  0.2135
  349MOL0     N45986   6.289   4.118   7.095 -0.0648 -0.1202  0.3352
  349MOL0     N45987   6.397   4.119   7.032 -0.1381 -0.1433 -0.1322
  349MOL0     C45988   7.623   3.909   6.671  0.3896  0.7032 -0.4047
  349MOL0     C45989   7.766   3.920   6.672 -0.2314 -0.4134  0.0975
  349MOL0     C45990   8.209   3.892   6.676 -0.6406 -0.1532 -0.5985
  349MOL0     C45991   8.241   3.879   6.542 -0.3466  0.4405 -0.5693
  349MOL0     C45992   8.367   3.913   6.490 -0.0713  0.0149  0.9104
  349MOL0     C45993   8.466   3.961   6.572  0.4548 -0.7088  0.3308
  349MOL0     O45994   8.593   3.990   6.510  0.6176  0.1098 -0.6099
  349MOL0     C45995   8.709   4.023   6.588 -0.5606  0.0849  0.0812
  349MOL0     C45996   8.717   4.175   6.619 -0.8424  0.7029  0.1278
  349MOL0     C45997   8.654   4.271   6.520 -0.6533 -0.9024 -0.5663
  349MOL0     C45998   8.736   4.398   6.517  0.1193 -0.0760  0.4634
  349MOL0     C45999   8.880   4.405   6.487  0.0181  0.3037 -0.6867
  349MOL0     C46000   8.999   4.413   6.454  0.2561 -0.6153 -0.1890
  349MOL0     C46001   8.430   3.988   6.705  0.6393  1.0802  0.6385
  349MOL0     C46002   8.305   3.954   6.758 -0.2955 -0.5173  0.4657
  349MOL0     H46003   7.848   3.595   6.698  1.0729  0.4277 -1.6004
  349MOL0     H46004   7.606   3.565   6.738 -2.1938  0.5714 -1.5607
  349MOL0     H46005   7.354   3.956   6.669 -0.0636  0.7609  1.1227
  349MOL0     H46006   7.349   3.895   6.837 -2.7084  0.0641  1.3985
  349MOL0     H46007   7.184   3.734   6.784  0.5348  0.0806  0.8844
  349MOL0     H46008   7.184   3.787   6.610 -0.8947  1.2763 -0.0725
  349MOL0     H46009   7.080   3.990   6.680  2.2772  0.0996 -1.0585
  349MOL0     H46010   7.110   3.960   6.849 -0.9475  0.1409  0.5249
  349MOL0     H46011   6.932   3.799   6.658  2.1172  0.7867 -0.8331
  349MOL0     H46012   6.962   3.741   6.823  0.9141 -0.7662 -1.7214
  349MOL0     H46013   6.831   4.012   6.785  2.3640  2.0778  2.7349
  349MOL0     H46014   6.875   3.926   6.934 -0.5931  0.0593  0.3823
  349MOL0     H46015   6.744   3.740   6.900 -1.0208  0.6560  2.5921
  349MOL0     H46016   6.672   3.796   6.749 -0.9418  2.0227 -0.3680
  349MOL0     H46017   6.514   3.920   6.851 -0.1898 -2.1755  0.1273
  349MOL0     H46018   6.537   3.794   6.971  0.5793 -0.8441 -0.8774
  349MOL0     H46019   6.631   4.078   6.961  2.0257 -1.5700 -0.9537
  349MOL0     H46020   6.694   3.980   7.088  1.0562 -0.0705 -2.5258
  349MOL0     H46021   6.439   3.865   7.234  1.0364 -0.2281 -2.3711
  349MOL0     H46022   6.138   4.023   7.322  0.9118 -0.7033  1.1033
  349MOL0     H46023   6.169   3.847   7.288  0.3409  0.4920  0.7214
  349MOL0     H46024   6.051   3.865   7.078  0.7246  2.2509 -1.9377
  349MOL0     H46025   6.032   4.038   7.096  0.3038 -0.8848 -2.2423
  349MOL0     H46026   5.910   3.844   7.295  1.2807 -0.7045 -0.9271
  349MOL0     H46027   5.887   4.005   7.308  0.5766  0.4542 -0.0828
  349MOL0     H46028   5.803   3.928   7.033  3.7039 -0.1812  0.3404
  349MOL0     H46029   5.707   4.014   7.158  0.0355  0.6064 -0.5595
  349MOL0     H46030   5.573   3.613   7.250  2.5622 -0.0305 -1.0916
  349MOL0     H46031   5.364   3.533   7.171 -0.5909 -0.6132 -0.2838
  349MOL0     H46032   5.073   3.273   7.038  1.0888  0.3659 -0.3755
  349MOL0     H46033   4.855   3.182   6.959  0.9116  0.0161  0.0327
  349MOL0     H46034   4.546   3.488   6.961  1.2039 -0.5067 -0.3651
  349MOL0     H46035   4.540   3.333   7.039  1.9482 -0.3123 -0.3851
  349MOL0     H46036   4.422   3.230   6.853 -0.8716  0.3187  0.9699
  349MOL0     H46037   4.418   3.385   6.764 -0.5128 -2.1178 -0.7053
  349MOL0     H46038   4.301   3.462   6.991 -0.4971  0.2502 -0.2308
  349MOL0     H46039   4.294   3.288   7.004 -3.1213 -0.0691  0.6683
  349MOL0     H46040   4.165   3.282   6.783 -2.6582 -1.5257  1.7665
  349MOL0     H46041   4.082   3.352   6.918  0.1960 -0.4932  1.2805
  349MOL0     H46042   4.210   3.536   6.715  0.8599 -1.6736 -0.5554
  349MOL0     H46043   4.140   3.577   6.869 -1.4221  2.1692 -1.7792
  349MOL0     H46044   3.993   3.625   6.708  0.5295  0.7946  1.3610
  349MOL0     H46045   3.923   3.498   6.805  2.2237 -1.3327 -0.1021
  349MOL0     H46046   4.063   3.447   6.541  0.1507  1.4852  1.1686
  349MOL0     H46047   3.967   3.318   6.623 -1.0894 -0.7327  0.4240
  349MOL0     H46048   3.846   3.428   6.438 -0.2167  0.8012 -0.4100
  349MOL0     H46049   3.875   3.584   6.517 -0.3022 -0.5143 -2.0420
  349MOL0     H46050   4.737   3.587   6.845  1.7578  1.1924 -0.0310
  349MOL0     H46051   4.940   3.677   6.928 -2.1014 -0.0405 -0.7662
  349MOL0     H46052   5.410   3.822   6.842  3.8061  1.8759  0.2699
  349MOL0     H46053   5.601   3.905   6.940 -5.1513  1.9766 -2.5312
  349MOL0     H46054   7.576   4.003   6.644  1.8481  1.8886  0.9926
  349MOL0     H46055   7.801   4.017   6.638 -0.7357  0.5416  2.1402
  349MOL0     H46056   8.178   3.831   6.468  1.2515 -0.8418 -1.1542
  349MOL0     H46057   8.388   3.884   6.388 -1.3484  0.5167  0.4888
  349MOL0     H46058   8.797   3.993   6.530  0.6352 -1.3185  2.4670
  349MOL0     H46059   8.706   3.974   6.686 -1.5636  1.8725  0.9789
  349MOL0     H46060   8.664   4.183   6.715 -3.0870 -1.1772 -0.8610
  349MOL0     H46061   8.822   4.203   6.635 -0.0820 -1.2401 -1.0560
  349MOL0     H46062   8.547   4.277   6.543 -0.4191 -1.1094  0.6486
  349MOL0     H46063   8.654   4.229   6.419  0.4219  1.2788 -1.5402
  349MOL0     H46064   8.693   4.473   6.450 -2.4735 -1.9602 -0.1022
  349MOL0     H46065   8.724   4.441   6.618  1.7946  1.5147  0.0524
  349MOL0     H46066   9.104   4.421   6.432  0.4866  4.3661  1.4420
  349MOL0     H46067   8.504   4.030   6.773  1.2125  1.6448 -0.3112
  349MOL0     H46068   8.288   3.975   6.863  2.3268  1.8364  0.5089
  350MOL0     O46069   8.089   5.867   0.309  0.2126  0.4313  0.0657
  350MOL0     C46070   8.112   5.770   0.232  0.0918 -0.6629 -0.2473
  350MOL0     O46071   8.031   5.720   0.133 -0.1881 -0.1592 -0.7411
  350MOL0     C46072   7.906   5.772   0.125 -0.3128  0.3911 -0.2576
  350MOL0     C46073   7.824   5.799   0.238  0.0400  0.4685 -0.4468
  350MOL0     C46074   7.691   5.838   0.233  0.8852 -1.2187  0.3449
  350MOL0     C46075   7.633   5.850   0.107 -0.1331 -1.0196 -0.2568
  350MOL0     O46076   7.493   5.878   0.083 -0.1549 -0.2774  0.0902
  350MOL0     C46077   7.417   5.929   0.198 -0.3233  0.5552 -0.4677
  350MOL0     C46078   7.276   5.949   0.151 -0.3333 -0.4874 -0.1692
  350MOL0     C46079   7.212   6.059   0.227  0.9020 -0.5162  0.4284
  350MOL0     C46080   7.084   6.127   0.192  0.2971 -0.4883  0.0069
  350MOL0     C46081   6.976   6.025   0.144  0.0960  0.1453 -0.0575
  350MOL0     C46082   6.920   5.934   0.251 -0.3207  0.1993 -0.0408
  350MOL0     C46083   6.848   5.811   0.188 -0.4087  0.4253 -0.7121
  350MOL0     C46084   6.733   5.831   0.094  0.1374 -0.0472 -0.1801
  350MOL0     N46085   6.627   5.916   0.169 -0.4991  0.6277 -0.2138
  350MOL0     C46086   6.608   6.055   0.173  0.0150  0.2730 -0.6204
  350MOL0     C46087   6.504   6.072   0.255  0.0936 -0.1599 -0.3553
  350MOL0     C46088   6.413   6.187   0.283  0.2235 -0.4040 -0.0150
  350MOL0     C46089   6.424   6.307   0.187  1.0438 -0.5450  0.1352
  350MOL0     C46090   6.357   6.422   0.252  0.5864 -0.4072  0.5930
  350MOL0     C46091   6.197   6.416   0.266 -0.6439  0.1920 -0.1455
  350MOL0     O46092   6.137   6.406   0.141 -1.0590  0.4614  0.5317
  350MOL0     C46093   6.007   6.383   0.158  0.2858 -0.3663  0.1794
  350MOL0     C46094   5.957   6.257   0.132 -0.3699  0.6485 -0.5333
  350MOL0     C46095   5.824   6.229   0.135 -0.1375 -0.4222  0.4728
  350MOL0     C46096   5.733   6.332   0.172  0.2815  1.3683  0.1409
  350MOL0     C46097   5.590   6.303   0.167  0.7208 -0.0473 -0.0658
  350MOL0     O46098   5.551   6.182   0.123  0.0763  0.1124 -0.0415
  350MOL0     C46099   5.431   6.127   0.156  0.1085  0.7623  0.0444
  350MOL0     C46100   5.383   6.116   0.288 -0.1661 -0.8435  1.0042
  350MOL0     C46101   5.252   6.084   0.309  0.8388  0.3269  0.2031
  350MOL0     C46102   5.167   6.046   0.203  0.5542 -0.1820 -0.1076
  350MOL0     O46103   5.034   6.016   0.231 -0.3107  0.8341 -0.0570
  350MOL0     C46104   5.000   6.000   0.371 -0.0716 -0.1092 -0.4096
  350MOL0     C46105   4.857   5.958   0.375 -0.4161 -0.6686  0.6682
  350MOL0     C46106   4.799   5.940   0.518 -0.6701 -0.1637  0.0021
  350MOL0     C46107   4.648   5.919   0.529  0.6176 -0.7219  0.2937
  350MOL0     C46108   4.613   5.882   0.668 -0.0614  0.0499 -0.2366
  350MOL0     C46109   4.460   5.875   0.664 -0.1767 -0.5163  0.8453
  350MOL0     C46110   4.392   5.845   0.800  0.0237  0.3689  0.3869
  350MOL0     C46111   4.431   5.951   0.908 -0.4758 -1.3850 -0.4602
  350MOL0    Cl46112   4.363   5.920   1.067 -0.1833  0.3573 -0.0327
  350MOL0     C46113   5.216   6.047   0.079 -0.4566  0.5403  0.5984
  350MOL0     C46114   5.347   6.086   0.048 -0.2878  0.1927  0.5412
  350MOL0     O46115   5.515   6.395   0.210 -0.1357  0.3875  0.3581
  350MOL0     C46116   5.781   6.457   0.207 -0.2040  0.2046  0.5610
  350MOL0     C46117   5.916   6.484   0.201 -0.4626 -0.3399  1.2735
  350MOL0     N46118   6.466   5.951   0.303  0.1876  0.0361  0.2103
  350MOL0     N46119   6.538   5.859   0.250 -0.8018  0.1875 -0.6196
  350MOL0     C46120   7.707   5.821  -0.011 -0.5454  0.0572  0.5274
  350MOL0     C46121   7.846   5.794   0.001 -0.9763  0.3458 -1.1220
  350MOL0     C46122   8.252   5.730   0.244  0.5702  0.4510 -0.5521
  350MOL0     C46123   8.312   5.660   0.140  1.1722  0.2801  0.0319
  350MOL0     C46124   8.445   5.618   0.144 -0.8063  0.3885 -0.1554
  350MOL0     C46125   8.529   5.652   0.255  0.3806 -1.1453 -0.1349
  350MOL0     O46126   8.662   5.611   0.267 -0.1137  0.1335  0.0870
  350MOL0     C46127   8.748   5.639   0.373 -0.5301  0.2087 -0.1129
  350MOL0     C46128   8.896   5.578   0.362 -0.1181 -0.3172  0.9465
  350MOL0     C46129   8.997   5.639   0.449  0.2219  0.3204  0.7713
  350MOL0     C46130   9.055   5.768   0.385  0.1782  0.2502  0.4189
  350MOL0     C46131   9.187   5.816   0.441 -0.0290 -0.1474 -0.3996
  350MOL0     C46132   9.281   5.872   0.490  0.1420  0.1790  0.2326
  350MOL0     C46133   8.475   5.738   0.354  0.6312 -0.9350 -0.4950
  350MOL0     C46134   8.339   5.769   0.353 -0.5687  0.3426 -0.8727
  350MOL0     H46135   7.872   5.788   0.335 -0.1050 -1.1401 -0.5362
  350MOL0     H46136   7.628   5.862   0.318  0.8637  1.2100 -0.2800
  350MOL0     H46137   7.448   6.031   0.220 -3.4825  1.6750 -0.7465
  350MOL0     H46138   7.426   5.865   0.286  2.5546  0.2356 -0.8883
  350MOL0     H46139   7.229   5.850   0.156 -0.2639 -0.6565 -2.0846
  350MOL0     H46140   7.273   5.981   0.047 -0.0845  0.7018  0.1658
  350MOL0     H46141   7.281   6.141   0.248 -0.3313  1.1596 -1.6817
  350MOL0     H46142   7.192   6.010   0.323  0.3112  0.4881  0.8363
  350MOL0     H46143   7.052   6.189   0.276  3.4242 -1.1007  1.8197
  350MOL0     H46144   7.091   6.201   0.112 -0.3039 -0.0297  0.3723
  350MOL0     H46145   7.019   5.965   0.063 -0.7963 -1.2465  0.4652
  350MOL0     H46146   6.888   6.077   0.106 -0.6866  0.4538  2.0181
  350MOL0     H46147   6.860   6.010   0.303 -0.1633  0.1955  0.1480
  350MOL0     H46148   6.984   5.892   0.329  1.4435 -0.2997 -1.6916
  350MOL0     H46149   6.925   5.761   0.129 -1.0955  0.1413 -1.3743
  350MOL0     H46150   6.813   5.741   0.264 -2.4740  0.0967 -1.8961
  350MOL0     H46151   6.688   5.741   0.051  0.1341  0.6344 -1.6867
  350MOL0     H46152   6.771   5.885   0.006  1.5322  1.4849  1.2948
  350MOL0     H46153   6.670   6.128   0.121 -0.9096  1.3135 -0.3118
  350MOL0     H46154   6.441   6.209   0.386  3.3127  0.1123 -0.8792
  350MOL0     H46155   6.308   6.158   0.278  0.5587 -1.4511 -1.4624
  350MOL0     H46156   6.362   6.302   0.097 -3.8080  1.9631  2.8837
  350MOL0     H46157   6.523   6.344   0.160  0.7364  0.8561  0.8121
  350MOL0     H46158   6.407   6.428   0.350 -0.0157 -1.6029  0.9947
  350MOL0     H46159   6.380   6.517   0.204  1.0701  0.0016  1.5956
  350MOL0     H46160   6.159   6.506   0.316 -0.0580 -1.3426  3.4140
  350MOL0     H46161   6.179   6.327   0.327  0.4920 -1.0500 -1.5466
  350MOL0     H46162   6.023   6.175   0.109 -0.1161  0.8932 -0.6870
  350MOL0     H46163   5.794   6.128   0.110  0.6350 -0.6707  0.5144
  350MOL0     H46164   5.448   6.148   0.368  2.4783 -4.3889  0.5189
  350MOL0     H46165   5.221   6.083   0.413  0.0619  0.2631 -0.0197
  350MOL0     H46166   5.009   6.083   0.443 -1.8498 -0.5433  0.3708
  350MOL0     H46167   5.063   5.923   0.418  0.9845  1.0232  0.1011
  350MOL0     H46168   4.847   5.871   0.311  0.2288 -0.2437 -0.0320
  350MOL0     H46169   4.788   6.031   0.332 -2.4049 -0.8618  3.2584
  350MOL0     H46170   4.822   6.027   0.581  1.9223 -1.1198  0.4813
  350MOL0     H46171   4.855   5.857   0.562  2.2333  1.4832 -0.3229
  350MOL0     H46172   4.605   6.016   0.501  0.9800 -0.3092  1.1255
  350MOL0     H46173   4.608   5.843   0.462 -1.0806  2.4299 -2.5407
  350MOL0     H46174   4.646   5.967   0.729 -1.1665  0.2113  0.1634
  350MOL0     H46175   4.659   5.788   0.699 -1.5852 -0.5167  0.3962
  350MOL0     H46176   4.425   5.795   0.597  1.7247 -0.0286 -0.8403
  350MOL0     H46177   4.420   5.967   0.620  0.4577 -1.6144 -2.2907
  350MOL0     H46178   4.284   5.835   0.789  0.1238 -2.0650  0.9881
  350MOL0     H46179   4.411   5.747   0.845  1.3889  0.5821  0.3261
  350MOL0     H46180   4.395   6.050   0.878 -2.5016 -2.1302 -0.6326
  350MOL0     H46181   4.541   5.946   0.908 -0.4902 -3.3309 -2.6922
  350MOL0     H46182   5.142   6.027   0.002  1.1065  2.8239 -1.6430
  350MOL0     H46183   5.384   6.088  -0.054 -2.1319 -3.1406 -0.3324
  350MOL0     H46184   5.711   6.537   0.228 -0.4944  0.3687 -0.8833
  350MOL0     H46185   5.962   6.581   0.218  0.8779  0.1155 -3.4329
  350MOL0     H46186   7.659   5.837  -0.107 -2.7023  0.9842  1.6924
  350MOL0     H46187   7.917   5.786  -0.081  1.4893 -0.1798  0.9525
  350MOL0     H46188   8.253   5.631   0.053 -1.5760 -1.1212  2.1914
  350MOL0     H46189   8.485   5.551   0.068 -1.2989 -1.1048  0.8613
  350MOL0     H46190   8.701   5.599   0.463  2.6105  1.9047  2.5265
  350MOL0     H46191   8.745   5.748   0.388  1.2169  0.2304  0.3614
  350MOL0     H46192   8.889   5.471   0.384  0.5571 -0.4811  0.3956
  350MOL0     H46193   8.933   5.583   0.260 -0.9668 -3.2065  0.3943
  350MOL0     H46194   9.080   5.569   0.456  2.2368  2.3685 -0.8524
  350MOL0     H46195   8.945   5.663   0.542 -1.4318 -2.0146  0.5172
  350MOL0     H46196   9.062   5.756   0.276 -1.9565  0.1915  0.2440
  350MOL0     H46197   8.979   5.846   0.390 -1.2896 -1.1414  0.7516
  350MOL0     H46198   9.371   5.902   0.541  1.5654 -3.3207  0.0718
  350MOL0     H46199   8.537   5.770   0.437 -0.0088 -0.4839 -0.1802
  350MOL0     H46200   8.318   5.839   0.433  3.1276  0.7460 -0.0701
  351MOL0     O46201   0.367   1.300   7.408  0.0584 -0.1607 -0.2468
  351MOL0     C46202   0.370   1.254   7.292  0.1757  0.3361 -0.8986
  351MOL0     O46203   0.290   1.162   7.234 -1.1975 -0.2324  0.5133
  351MOL0     C46204   0.182   1.128   7.315 -0.1295 -0.1287  0.1660
  351MOL0     C46205   0.173   0.994   7.343  0.5962  0.6386  0.1770
  351MOL0     C46206   0.055   0.940   7.391 -0.2330  0.2037 -0.0808
  351MOL0     C46207  -0.048   1.014   7.438  0.7619  0.1395  0.2488
  351MOL0     O46208  -0.152   0.952   7.500 -0.3480  0.4325  0.5084
  351MOL0     C46209  -0.271   1.027   7.509  0.2272 -0.6441 -0.6286
  351MOL0     C46210  -0.383   0.934   7.553  0.0980 -0.2358  0.0591
  351MOL0     C46211  -0.524   1.005   7.558 -0.0759  0.0401  0.3199
  351MOL0     C46212  -0.640   0.925   7.627 -0.4129  0.1390  0.5950
  351MOL0     C46213  -0.739   1.033   7.662  0.7210 -0.2816 -0.1614
  351MOL0     C46214  -0.878   0.972   7.711 -0.3211  0.1767 -0.0890
  351MOL0     C46215  -0.892   0.912   7.856 -0.3306  0.2586  0.2584
  351MOL0     C46216  -0.869   1.024   7.960  0.3467  0.2343 -0.4896
  351MOL0     N46217  -0.965   1.017   8.071 -0.3777  0.3377  0.3234
  351MOL0     C46218  -1.105   1.009   8.053  0.2851 -0.3509  0.6784
  351MOL0     C46219  -1.150   0.997   8.180  0.0051  0.3926  0.6320
  351MOL0     C46220  -1.294   1.002   8.207  0.4032 -0.6584  0.2900
  351MOL0     C46221  -1.342   0.859   8.211  0.8486  0.8781 -0.0743
  351MOL0     C46222  -1.497   0.844   8.234 -0.0547 -0.1225  0.8199
  351MOL0     C46223  -1.548   0.691   8.220  0.2826  0.1354  0.6469
  351MOL0     O46224  -1.673   0.685   8.274  0.8524  0.0026 -0.7310
  351MOL0     C46225  -1.743   0.572   8.251 -0.5869 -0.5291 -0.5666
  351MOL0     C46226  -1.692   0.450   8.206 -0.1705  1.0389  0.0686
  351MOL0     C46227  -1.770   0.334   8.195  0.2573  0.4670  0.5448
  351MOL0     C46228  -1.910   0.342   8.223 -0.1353  1.2683 -0.4103
  351MOL0     C46229  -1.996   0.224   8.205 -0.4218  0.3917 -0.6752
  351MOL0     O46230  -2.116   0.229   8.279  1.2222  0.0169 -0.6842
  351MOL0     C46231  -2.210   0.142   8.236 -0.1237 -0.1837 -0.4326
  351MOL0     C46232  -2.241   0.031   8.316 -0.7099  0.6235  0.2365
  351MOL0     C46233  -2.348  -0.047   8.286  0.2440 -0.4157  0.2399
  351MOL0     C46234  -2.422  -0.030   8.166  0.0060  0.2961  0.1218
  351MOL0     O46235  -2.525  -0.117   8.127 -0.2031 -0.1386 -0.2882
  351MOL0     C46236  -2.519  -0.241   8.194 -0.3934  0.6868  0.1647
  351MOL0     C46237  -2.634  -0.335   8.153  0.5394  0.1417  0.0330
  351MOL0     C46238  -2.770  -0.268   8.145 -0.0791  0.1089 -0.5698
  351MOL0     C46239  -2.867  -0.380   8.123  0.3059  0.2892  1.3494
  351MOL0     C46240  -3.009  -0.323   8.092 -0.4608  0.0641 -0.7906
  351MOL0     C46241  -3.068  -0.239   8.202  0.6525 -0.2722 -0.4273
  351MOL0     C46242  -3.229  -0.239   8.182 -1.0516 -0.3946  0.4110
  351MOL0     C46243  -3.299  -0.166   8.300 -0.1640 -0.3578 -0.1419
  351MOL0    Cl46244  -3.459  -0.239   8.319  0.5161  0.1691 -0.3112
  351MOL0     C46245  -2.391   0.075   8.083  0.0609 -0.6339  0.6702
  351MOL0     C46246  -2.286   0.166   8.122 -0.7083 -0.2135  0.4578
  351MOL0     O46247  -1.970   0.137   8.124 -0.0705 -0.2514  0.6210
  351MOL0     C46248  -1.958   0.465   8.269  1.1400 -0.3502  0.0668
  351MOL0     C46249  -1.878   0.580   8.274  0.2806  0.0197  0.5215
  351MOL0     N46250  -1.039   0.987   8.266 -0.0399  0.3669 -0.0862
  351MOL0     N46251  -0.928   0.991   8.200  0.0870 -0.0228  0.4403
  351MOL0     C46252  -0.035   1.153   7.416 -0.6409 -0.1532  0.4443
  351MOL0     C46253   0.081   1.210   7.343  0.4207 -0.6958 -0.5006
  351MOL0     C46254   0.465   1.315   7.200 -0.0191 -0.6502 -0.2563
  351MOL0     C46255   0.561   1.415   7.229 -0.3359 -0.9384  0.1779
  351MOL0     C46256   0.648   1.465   7.132 -0.3615 -0.3235 -0.0871
  351MOL0     C46257   0.655   1.409   7.002 -0.9852  0.1033  0.3180
  351MOL0     O46258   0.732   1.446   6.892  0.0741  0.6455 -0.1913
  351MOL0     C46259   0.838   1.535   6.897 -0.5811 -0.3068  0.0193
  351MOL0     C46260   0.880   1.582   6.757  0.1281  0.5299  0.5019
  351MOL0     C46261   1.002   1.671   6.744 -0.7292 -0.0779  0.1357
  351MOL0     C46262   1.062   1.669   6.602 -0.7386 -0.2025  0.1582
  351MOL0     C46263   1.209   1.692   6.596 -0.5077  0.2828  0.4636
  351MOL0     C46264   1.326   1.714   6.561  0.6775 -0.1688  0.1761
  351MOL0     C46265   0.562   1.308   6.974  1.0524  0.4545 -0.1251
  351MOL0     C46266   0.473   1.262   7.070  0.1297 -0.2624  0.2756
  351MOL0     H46267   0.253   0.932   7.304 -1.0582 -0.5134 -1.5271
  351MOL0     H46268   0.045   0.832   7.399 -2.2776  0.3777  0.1582
  351MOL0     H46269  -0.309   1.065   7.413  2.0379 -1.2194 -1.6197
  351MOL0     H46270  -0.273   1.116   7.572 -1.2119 -1.1553  0.0868
  351MOL0     H46271  -0.370   0.881   7.648 -2.2579  1.7345  1.6085
  351MOL0     H46272  -0.392   0.852   7.480 -0.0429  1.4572 -1.9131
  351MOL0     H46273  -0.561   1.032   7.459 -0.2566 -1.3917 -0.0258
  351MOL0     H46274  -0.511   1.102   7.607  0.3953  1.7456 -2.8734
  351MOL0     H46275  -0.689   0.857   7.557  1.1814 -0.0043 -0.4291
  351MOL0     H46276  -0.610   0.863   7.711  0.8811 -1.6196 -1.0860
  351MOL0     H46277  -0.754   1.087   7.568 -0.0289 -1.6408 -0.8533
  351MOL0     H46278  -0.699   1.098   7.741 -0.3794  0.0056  0.1806
  351MOL0     H46279  -0.901   0.885   7.650  2.7147 -1.6786  1.1328
  351MOL0     H46280  -0.947   1.053   7.687  0.1452  0.2819 -1.1120
  351MOL0     H46281  -0.992   0.870   7.868 -1.6533  3.1211  0.2714
  351MOL0     H46282  -0.821   0.833   7.879  1.1372  2.2288  3.1742
  351MOL0     H46283  -0.872   1.123   7.913 -0.0287  0.5119  0.1010
  351MOL0     H46284  -0.768   1.011   8.000 -0.8699 -2.8192  1.9728
  351MOL0     H46285  -1.156   1.044   7.964  1.2798 -1.0649 -0.2031
  351MOL0     H46286  -1.344   1.060   8.128  2.4184 -0.9257 -1.2415
  351MOL0     H46287  -1.297   1.052   8.305 -0.3474 -2.1607  1.0724
  351MOL0     H46288  -1.290   0.806   8.291  1.3579 -0.3295 -1.1692
  351MOL0     H46289  -1.322   0.811   8.115 -1.6339  1.0218 -0.7340
  351MOL0     H46290  -1.529   0.881   8.332  1.5852  0.5715  1.1284
  351MOL0     H46291  -1.555   0.893   8.156 -0.0571 -0.3764  0.6581
  351MOL0     H46292  -1.480   0.629   8.281 -1.4957 -0.1981  2.3834
  351MOL0     H46293  -1.548   0.663   8.114  0.1997  1.3820  0.3013
  351MOL0     H46294  -1.590   0.438   8.171 -0.2219 -0.8397  0.4806
  351MOL0     H46295  -1.740   0.233   8.169 -0.9769  0.0047  0.8502
  351MOL0     H46296  -2.192   0.015   8.411 -2.9698 -1.3756  1.1722
  351MOL0     H46297  -2.367  -0.131   8.352 -2.6014 -2.7317 -3.1075
  351MOL0     H46298  -2.533  -0.228   8.302  5.6812  2.8844  1.0633
  351MOL0     H46299  -2.419  -0.284   8.188 -0.5667  0.1944  0.7669
  351MOL0     H46300  -2.645  -0.424   8.216  1.5845  0.3451  0.5162
  351MOL0     H46301  -2.615  -0.369   8.050 -0.5091 -0.1968 -0.0634
  351MOL0     H46302  -2.777  -0.194   8.065 -2.7372  0.6211  0.0669
  351MOL0     H46303  -2.803  -0.214   8.234 -0.7761  1.7295 -1.7477
  351MOL0     H46304  -2.822  -0.435   8.039 -0.6821  0.4490  0.6994
  351MOL0     H46305  -2.880  -0.456   8.200  1.5257 -1.4547 -0.0649
  351MOL0     H46306  -3.080  -0.405   8.080 -2.1209  1.2099  0.6724
  351MOL0     H46307  -3.013  -0.261   8.002 -0.6247  4.2905  1.8748
  351MOL0     H46308  -3.032  -0.136   8.190  1.0118 -0.3544 -0.0756
  351MOL0     H46309  -3.038  -0.270   8.302  0.8209  0.1612 -0.3392
  351MOL0     H46310  -3.263  -0.202   8.084 -1.6152  1.7422  1.3526
  351MOL0     H46311  -3.255  -0.345   8.182  0.3280 -0.7991  2.8694
  351MOL0     H46312  -3.291  -0.063   8.262  1.5397 -0.4479 -0.0978
  351MOL0     H46313  -3.248  -0.169   8.397 -0.9592 -0.3223  0.2858
  351MOL0     H46314  -2.454   0.101   7.999 -2.1235  1.2017  2.7127
  351MOL0     H46315  -2.270   0.258   8.066  2.4699 -1.4688 -0.9649
  351MOL0     H46316  -2.066   0.467   8.281  0.9104 -0.8668 -1.6901
  351MOL0     H46317  -1.925   0.674   8.303 -1.1072 -1.0493  1.9357
  351MOL0     H46318  -0.110   1.227   7.444 -1.2056 -1.2082  1.8240
  351MOL0     H46319   0.088   1.312   7.309 -1.1219 -0.4699 -0.2354
  351MOL0     H46320   0.563   1.456   7.329 -1.9857  1.7621 -0.7965
  351MOL0     H46321   0.717   1.546   7.153 -0.1799  0.0053 -1.7945
  351MOL0     H46322   0.924   1.485   6.944  0.3518  0.9984 -0.2189
  351MOL0     H46323   0.824   1.628   6.954  2.4142 -0.6219  1.4945
  351MOL0     H46324   0.899   1.493   6.696 -1.0631 -0.1800  1.1439
  351MOL0     H46325   0.794   1.634   6.716  0.2581  0.5694  0.2758
  351MOL0     H46326   1.083   1.641   6.812  2.4261  2.3140 -2.1978
  351MOL0     H46327   0.972   1.770   6.779  1.4521  0.8970 -0.5422
  351MOL0     H46328   1.046   1.584   6.535 -0.6784 -0.0880 -0.0002
  351MOL0     H46329   1.021   1.754   6.547 -0.9518  0.3697  1.1697
  351MOL0     H46330   1.429   1.721   6.534  0.8952  0.5925  1.1587
  351MOL0     H46331   0.566   1.260   6.877  0.6912  0.3766 -0.1039
  351MOL0     H46332   0.397   1.200   7.022 -2.2217  2.6889 -0.0929
  352MOL0     O46333   9.970   5.039   4.204 -0.0466 -0.8177  0.3086
  352MOL0     C46334   9.983   4.965   4.105  0.7466  0.4955 -0.1004
  352MOL0     O46335   9.887   4.941   4.014  0.7665 -0.2244  0.6597
  352MOL0     C46336   9.763   4.999   4.025 -0.4878  0.0101 -0.2727
  352MOL0     C46337   9.686   4.973   4.140 -1.1838 -0.0515  0.1334
  352MOL0     C46338   9.563   5.028   4.155 -0.2073  0.2616 -0.8510
  352MOL0     C46339   9.501   5.113   4.054  0.2482 -0.4704 -0.0734
  352MOL0     O46340   9.374   5.167   4.065 -0.4657  1.4866 -0.6742
  352MOL0     C46341   9.269   5.094   4.134 -0.2111  0.6804 -0.0888
  352MOL0     C46342   9.223   4.964   4.057 -0.3667  0.2666 -0.9915
  352MOL0     C46343   9.149   5.009   3.939 -0.2064 -0.1401  0.6339
  352MOL0     C46344   9.067   4.897   3.881 -0.3919 -0.4097  0.3370
  352MOL0     C46345   9.007   4.940   3.737 -0.2833  0.0329  0.1272
  352MOL0     C46346   8.961   4.814   3.663 -0.7455 -0.2575 -1.0488
  352MOL0     C46347   8.921   4.858   3.520 -0.6559  0.0145  0.3083
  352MOL0     C46348   8.810   4.962   3.509 -0.3675 -0.8092 -0.2868
  352MOL0     N46349   8.814   5.037   3.379 -0.5726  0.5378  0.5407
  352MOL0     C46350   8.744   5.010   3.263 -0.4189 -0.1725 -0.1736
  352MOL0     C46351   8.771   5.123   3.183  0.8355 -0.1173  0.3656
  352MOL0     C46352   8.707   5.146   3.056  0.1576 -0.2260  0.4490
  352MOL0     C46353   8.584   5.230   3.060  0.3877 -0.6709 -0.6281
  352MOL0     C46354   8.592   5.376   3.088  0.4507 -0.6926 -0.0846
  352MOL0     C46355   8.473   5.442   3.015 -0.3030  0.0573 -0.0694
  352MOL0     O46356   8.463   5.575   3.076 -0.3111  0.1327  0.4575
  352MOL0     C46357   8.344   5.631   3.046  0.4853  0.4263 -0.3716
  352MOL0     C46358   8.321   5.695   2.926 -0.2401 -0.6212  0.6258
  352MOL0     C46359   8.197   5.752   2.903  0.6570  0.5548 -0.4845
  352MOL0     C46360   8.085   5.750   2.989  0.2527  0.1634 -0.8066
  352MOL0     C46361   7.958   5.825   2.976  0.1438 -0.4058 -0.2767
  352MOL0     O46362   7.861   5.792   3.061 -0.6620 -0.4061  0.7825
  352MOL0     C46363   7.738   5.858   3.064 -0.4852  0.6807 -0.4098
  352MOL0     C46364   7.635   5.789   3.014 -0.2014 -0.2917 -1.3756
  352MOL0     C46365   7.510   5.835   3.031  1.0109 -0.1352 -0.1479
  352MOL0     C46366   7.492   5.945   3.118 -0.2601 -0.2680 -0.3858
  352MOL0     O46367   7.374   5.999   3.151  0.3124  0.1579 -0.0857
  352MOL0     C46368   7.259   5.920   3.141 -0.7730 -0.7273 -0.2868
  352MOL0     C46369   7.145   5.995   3.210 -0.0907 -0.5930  0.4781
  352MOL0     C46370   7.184   6.034   3.352  0.0354 -0.1664 -0.2803
  352MOL0     C46371   7.067   6.094   3.418  0.2691  0.2624 -0.6758
  352MOL0     C46372   6.982   5.989   3.496 -0.0470 -0.4595  0.3037
  352MOL0     C46373   6.885   6.065   3.584  0.0655 -0.7336 -0.5970
  352MOL0     C46374   6.779   6.147   3.518 -0.4106  1.0989  0.2640
  352MOL0     C46375   6.707   6.086   3.401  0.3162 -0.7940 -0.1173
  352MOL0    Cl46376   6.646   5.926   3.435 -0.0370  0.0784  0.0310
  352MOL0     C46377   7.600   6.012   3.168 -0.2996 -0.1101  0.3459
  352MOL0     C46378   7.724   5.971   3.133 -0.0467 -0.3902  0.5758
  352MOL0     O46379   7.948   5.893   2.875 -0.4822 -0.1149  0.5211
  352MOL0     C46380   8.116   5.691   3.112 -0.0198  0.9577  0.2180
  352MOL0     C46381   8.244   5.634   3.143  0.6525 -0.3856  0.4619
  352MOL0     N46382   8.850   5.217   3.246 -0.2134 -0.3037 -0.4363
  352MOL0     N46383   8.877   5.160   3.358  0.0696 -0.4069 -0.2738
  352MOL0     C46384   9.569   5.141   3.943  0.2862  0.1252 -0.8992
  352MOL0     C46385   9.705   5.093   3.932  0.8442  0.1643  0.8615
  352MOL0     C46386  10.113   4.906   4.070 -0.2931 -0.3387 -0.4595
  352MOL0     C46387  10.156   4.884   3.941 -0.9811 -0.1387  1.0664
  352MOL0     C46388  10.274   4.824   3.916 -0.2998 -0.3456  0.0367
  352MOL0     C46389  10.361   4.788   4.016  0.8417 -0.8181 -0.3792
  352MOL0     O46390  10.485   4.738   3.977 -0.4134 -0.2631 -0.3527
  352MOL0     C46391  10.581   4.704   4.076 -0.2474 -0.3767  0.3722
  352MOL0     C46392  10.635   4.840   4.129 -0.6157 -0.1501 -1.2844
  352MOL0     C46393  10.786   4.844   4.165 -0.3965  0.1187 -0.2704
  352MOL0     C46394  10.842   4.984   4.184  0.9104  0.2869 -0.4059
  352MOL0     C46395  10.773   5.061   4.286  0.1960  0.7528 -0.2653
  352MOL0     C46396  10.724   5.104   4.390 -0.1887 -0.1547  0.2214
  352MOL0     C46397  10.313   4.793   4.145 -0.1320  0.3310 -0.4326
  352MOL0     C46398  10.189   4.859   4.178 -0.1358  0.1470 -0.3596
  352MOL0     H46399   9.735   4.906   4.209 -0.8169 -1.9354 -1.8597
  352MOL0     H46400   9.513   5.003   4.248 -0.1207  3.0032  0.0320
  352MOL0     H46401   9.180   5.155   4.152 -0.7674 -0.7182  2.5596
  352MOL0     H46402   9.300   5.066   4.235  0.4830  0.1936 -0.4265
  352MOL0     H46403   9.160   4.890   4.105  2.1756 -1.9367 -0.8244
  352MOL0     H46404   9.311   4.901   4.040  1.5823  1.4558  3.3156
  352MOL0     H46405   9.214   5.047   3.860 -2.6969  1.4958 -0.7395
  352MOL0     H46406   9.082   5.087   3.976 -1.2774 -1.6858  2.1129
  352MOL0     H46407   9.141   4.818   3.864  0.2294  0.2331 -0.0172
  352MOL0     H46408   8.993   4.873   3.958 -0.3459  1.5859  1.0516
  352MOL0     H46409   9.091   4.982   3.683 -0.1351 -0.5989 -0.1426
  352MOL0     H46410   8.935   5.020   3.755 -0.9141 -0.4172 -0.3487
  352MOL0     H46411   8.881   4.763   3.717 -0.6564  0.2459 -0.4291
  352MOL0     H46412   9.045   4.744   3.655 -0.6337 -0.0138 -2.1156
  352MOL0     H46413   9.011   4.887   3.465 -0.6294  0.2168  0.4578
  352MOL0     H46414   8.887   4.774   3.458  1.9794 -0.4327 -0.6472
  352MOL0     H46415   8.820   5.046   3.578  0.7954  0.8264 -2.3237
  352MOL0     H46416   8.721   4.905   3.536  1.7671 -4.4065 -0.1259
  352MOL0     H46417   8.677   4.926   3.250  0.3667 -0.7233 -0.7642
  352MOL0     H46418   8.677   5.057   3.000 -1.9622  0.5908  0.2129
  352MOL0     H46419   8.783   5.185   2.987 -0.9744 -2.1038 -2.0668
  352MOL0     H46420   8.522   5.174   3.131 -1.6962  1.5663 -0.5251
  352MOL0     H46421   8.539   5.222   2.961 -0.5936  1.1292 -0.3793
  352MOL0     H46422   8.592   5.397   3.195  3.8159 -0.3012 -0.0682
  352MOL0     H46423   8.689   5.402   3.045  1.2845  0.4226  2.2942
  352MOL0     H46424   8.389   5.373   3.021  0.6839 -1.5323 -2.7061
  352MOL0     H46425   8.487   5.455   2.908 -1.5651 -0.9611 -0.3719
  352MOL0     H46426   8.406   5.712   2.862  0.6867  0.4540  2.0808
  352MOL0     H46427   8.184   5.809   2.811 -2.7348  1.7616  0.5948
  352MOL0     H46428   7.651   5.708   2.944 -2.0207  1.8301 -4.4972
  352MOL0     H46429   7.422   5.794   2.982  0.8902  0.1138 -0.1401
  352MOL0     H46430   7.268   5.826   3.196 -0.8930  0.2644  1.4924
  352MOL0     H46431   7.235   5.893   3.038 -1.2166 -0.6757 -0.1995
  352MOL0     H46432   7.058   5.930   3.219 -1.3371  0.5937 -1.9907
  352MOL0     H46433   7.105   6.077   3.150  0.3006 -1.5525 -1.1727
  352MOL0     H46434   7.268   6.104   3.354 -0.3178  0.2545  1.7729
  352MOL0     H46435   7.235   5.953   3.406 -0.0858  1.4600  2.4063
  352MOL0     H46436   7.107   6.170   3.485 -0.5467  0.3193 -0.2485
  352MOL0     H46437   6.999   6.141   3.347 -2.9378 -1.3725  1.1154
  352MOL0     H46438   7.057   5.930   3.550 -0.4123 -1.1192  0.1020
  352MOL0     H46439   6.933   5.918   3.429  0.7227  1.4444 -2.4495
  352MOL0     H46440   6.932   6.129   3.660  2.4506 -0.7404 -1.9718
  352MOL0     H46441   6.830   5.988   3.639 -1.4440  1.1263  0.6726
  352MOL0     H46442   6.710   6.163   3.602 -2.2297 -3.2035 -0.1555
  352MOL0     H46443   6.824   6.243   3.491  2.5326  1.1722  4.4157
  352MOL0     H46444   6.778   6.077   3.318  3.7779 -1.1560  2.6635
  352MOL0     H46445   6.630   6.152   3.361  0.2559  0.7057  2.3216
  352MOL0     H46446   7.595   6.102   3.229 -0.6476  0.6842 -0.8021
  352MOL0     H46447   7.805   6.022   3.183  2.3582 -4.7765  1.6546
  352MOL0     H46448   8.050   5.676   3.196 -0.7402  1.4089 -0.2572
  352MOL0     H46449   8.250   5.586   3.240 -2.1269 -0.2260  0.7771
  352MOL0     H46450   9.516   5.197   3.867 -1.3839 -1.5281 -1.0367
  352MOL0     H46451   9.771   5.116   3.849 -1.8158 -0.4075 -1.5686
  352MOL0     H46452  10.095   4.900   3.853  1.6558  2.0960 -0.5378
  352MOL0     H46453  10.298   4.784   3.818  0.5539 -1.5042  0.6910
  352MOL0     H46454  10.666   4.665   4.020  0.6117 -0.7386  1.8847
  352MOL0     H46455  10.547   4.637   4.155  1.6978 -2.4185 -0.4269
  352MOL0     H46456  10.614   4.923   4.060 -2.7047 -0.2463 -0.8531
  352MOL0     H46457  10.579   4.872   4.218 -0.0652  2.2550 -1.7475
  352MOL0     H46458  10.849   4.799   4.088  2.1462  2.0178  0.5711
  352MOL0     H46459  10.785   4.778   4.252 -2.6554  0.0741 -0.2641
  352MOL0     H46460  10.949   4.975   4.209  1.1327  3.2127 -0.0292
  352MOL0     H46461  10.840   5.044   4.092 -0.0992  1.2400  0.2217
  352MOL0     H46462  10.689   5.141   4.485 -1.1629  0.5213 -0.3895
  352MOL0     H46463  10.384   4.768   4.223  2.5459  1.3812 -2.3663
  352MOL0     H46464  10.150   4.882   4.277  1.5833  3.5328 -0.3159
  353MOL0     O46465   6.560   8.726   8.363  0.9081  0.0264 -0.6359
  353MOL0     C46466   6.636   8.650   8.430 -0.9718 -0.2664  0.6448
  353MOL0     O46467   6.602   8.567   8.534  0.3123 -0.0987 -0.2395
  353MOL0     C46468   6.475   8.567   8.584 -0.0957 -0.0029  0.1105
  353MOL0     C46469   6.412   8.454   8.595  0.0128  0.9384  0.1455
  353MOL0     C46470   6.284   8.444   8.659 -1.2417 -0.0963  0.0558
  353MOL0     C46471   6.211   8.563   8.687  0.1226  0.3471 -0.4089
  353MOL0     O46472   6.080   8.575   8.733 -0.5487 -0.4528  0.1031
  353MOL0     C46473   6.005   8.454   8.723 -0.0282 -0.0782  0.2775
  353MOL0     C46474   5.846   8.484   8.738 -0.2687 -0.1517 -0.7786
  353MOL0     C46475   5.814   8.542   8.877 -0.0940  0.0315  0.4379
  353MOL0     C46476   5.664   8.557   8.884 -0.6564  0.3197  0.3520
  353MOL0     C46477   5.616   8.560   9.027 -1.0939  0.0770  0.0596
  353MOL0     C46478   5.463   8.583   9.045 -0.2581 -1.1256  0.3487
  353MOL0     C46479   5.424   8.738   9.047  0.6945  0.6639 -0.7681
  353MOL0     C46480   5.268   8.743   9.053 -0.1131  0.3494 -0.2402
  353MOL0     N46481   5.216   8.875   9.040  0.1023  0.1407  0.5237
  353MOL0     C46482   5.269   8.976   8.963 -0.4481  0.1034 -0.2727
  353MOL0     C46483   5.172   9.068   8.966 -0.5031  0.2202  0.9001
  353MOL0     C46484   5.157   9.194   8.887 -0.5178  0.7085  0.3549
  353MOL0     C46485   5.197   9.315   8.975  0.4008 -0.4254 -0.9021
  353MOL0     C46486   5.155   9.448   8.911  0.6685  0.3540 -0.1744
  353MOL0     C46487   5.016   9.503   8.963  0.6839  0.8419  0.2984
  353MOL0     O46488   4.978   9.598   8.856  1.0197 -0.1277 -0.2108
  353MOL0     C46489   4.848   9.650   8.867 -1.4218 -0.0410  0.6548
  353MOL0     C46490   4.818   9.734   8.763  0.9266 -0.0810  0.5086
  353MOL0     C46491   4.692   9.789   8.753  0.4736 -0.2195 -0.2234
  353MOL0     C46492   4.583   9.734   8.834 -0.4978 -1.1457 -0.0769
  353MOL0     C46493   4.446   9.793   8.833 -0.8348  0.0345  0.7997
  353MOL0     O46494   4.370   9.759   8.934 -0.1972 -0.5510 -0.1237
  353MOL0     C46495   4.241   9.807   8.947  0.0840  0.1637  0.0767
  353MOL0     C46496   4.197   9.812   9.081  0.7015 -0.2562  0.0329
  353MOL0     C46497   4.062   9.843   9.112 -0.0237  0.4119 -0.9988
  353MOL0     C46498   3.972   9.878   9.004 -0.2597  0.4244  0.2278
  353MOL0     O46499   3.846   9.918   9.036  0.3567 -0.2127 -0.2068
  353MOL0     C46500   3.750   9.935   8.929  0.1743 -0.3018 -0.5493
  353MOL0     C46501   3.641  10.023   8.997 -0.3593  0.8336 -0.5176
  353MOL0     C46502   3.509  10.019   8.907  0.3085  0.1628  0.9555
  353MOL0     C46503   3.402  10.101   8.975  0.4542  0.2897  0.4025
  353MOL0     C46504   3.288  10.122   8.878  1.0242  0.0261 -0.1018
  353MOL0     C46505   3.163  10.156   8.959 -0.1605  0.1870 -1.1178
  353MOL0     C46506   3.034  10.183   8.870 -0.6265  0.5466 -0.5404
  353MOL0     C46507   2.895  10.197   8.933 -0.4085  0.0676  0.2224
  353MOL0    Cl46508   2.907  10.315   9.063 -0.1076  0.5759 -0.0357
  353MOL0     C46509   4.023   9.861   8.870 -0.8653 -0.6556 -0.4158
  353MOL0     C46510   4.149   9.826   8.846  0.0756 -0.4027  0.4174
  353MOL0     O46511   4.413   9.859   8.738  0.1505  0.1506  0.3062
  353MOL0     C46512   4.615   9.644   8.929  0.2750  0.7321  0.1036
  353MOL0     C46513   4.743   9.591   8.945 -0.1908 -0.1673 -0.9639
  353MOL0     N46514   5.072   9.028   9.041  0.2724 -0.2746  0.5947
  353MOL0     N46515   5.097   8.908   9.084 -0.2443 -0.3056 -0.0318
  353MOL0     C46516   6.284   8.685   8.671 -0.1779 -0.6042 -0.2607
  353MOL0     C46517   6.418   8.686   8.629 -0.0452  0.1515  0.2204
  353MOL0     C46518   6.783   8.668   8.394  0.1935 -0.2398 -0.1507
  353MOL0     C46519   6.885   8.632   8.487 -0.2599 -0.0109 -0.8090
  353MOL0     C46520   7.020   8.654   8.467 -0.3839  0.4707 -0.4781
  353MOL0     C46521   7.065   8.694   8.343 -0.1014  0.4202  0.8086
  353MOL0     O46522   7.183   8.715   8.305 -0.7491  0.2999 -1.2952
  353MOL0     C46523   7.288   8.641   8.373  0.4181 -0.0478 -0.1762
  353MOL0     C46524   7.272   8.491   8.386  0.7096 -0.0320  0.1366
  353MOL0     C46525   7.255   8.439   8.243  0.0792 -0.8499  0.2147
  353MOL0     C46526   7.258   8.290   8.236 -0.5432  0.3494 -0.3133
  353MOL0     C46527   7.367   8.215   8.296 -0.0328 -0.8779  0.5208
  353MOL0     C46528   7.458   8.170   8.366 -0.1248 -0.7607 -0.0765
  353MOL0     C46529   6.973   8.722   8.241  0.3527  0.2484  0.4909
  353MOL0     C46530   6.836   8.712   8.273  0.4625 -0.7207  0.0542
  353MOL0     H46531   6.463   8.365   8.560 -0.3655  0.8396 -0.1575
  353MOL0     H46532   6.260   8.339   8.672 -0.1560 -0.3249  0.3946
  353MOL0     H46533   6.029   8.377   8.796 -0.1404 -1.7034 -1.3308
  353MOL0     H46534   6.016   8.408   8.624  0.7712  0.3462  0.1599
  353MOL0     H46535   5.792   8.390   8.720 -1.6657  0.8351 -2.0191
  353MOL0     H46536   5.818   8.558   8.663 -0.5739  1.9225  1.2708
  353MOL0     H46537   5.876   8.632   8.887  0.6282 -0.4462  0.3858
  353MOL0     H46538   5.846   8.461   8.943  3.4187  0.6009 -0.3607
  353MOL0     H46539   5.651   8.649   8.826 -0.0480 -0.2813 -0.7819
  353MOL0     H46540   5.612   8.478   8.829 -0.1583  0.3043 -0.1124
  353MOL0     H46541   5.676   8.634   9.081  0.8431  0.7721 -2.8229
  353MOL0     H46542   5.639   8.476   9.093  0.9752  2.2837  2.4291
  353MOL0     H46543   5.424   8.553   9.143 -0.5343  1.0888  0.9794
  353MOL0     H46544   5.408   8.537   8.963  1.1010 -0.8487 -0.7562
  353MOL0     H46545   5.471   8.785   9.134  0.7873  1.1438 -1.0726
  353MOL0     H46546   5.463   8.784   8.956  1.6129  2.6482  0.5318
  353MOL0     H46547   5.228   8.705   9.148  3.6019 -1.5083  0.7933
  353MOL0     H46548   5.228   8.666   8.987  1.7700 -0.5032 -0.4558
  353MOL0     H46549   5.363   8.971   8.909  0.1699  1.2853  0.6404
  353MOL0     H46550   5.053   9.194   8.854  0.2000 -0.5956 -2.2139
  353MOL0     H46551   5.230   9.184   8.805 -0.2488  0.9207  0.5655
  353MOL0     H46552   5.305   9.325   8.994  0.3458  0.5024 -1.0211
  353MOL0     H46553   5.144   9.306   9.070  0.9028  0.5152 -0.5170
  353MOL0     H46554   5.235   9.520   8.932  0.3465  0.6155  0.1657
  353MOL0     H46555   5.167   9.425   8.805  0.8295 -1.1104  0.1397
  353MOL0     H46556   5.014   9.552   9.061  0.9057  0.2015  0.6237
  353MOL0     H46557   4.955   9.413   8.951 -1.8899  2.5836 -0.6921
  353MOL0     H46558   4.881   9.750   8.675 -0.2906  2.2406 -0.0263
  353MOL0     H46559   4.661   9.853   8.671  1.7008  1.7353  0.7536
  353MOL0     H46560   4.260   9.781   9.163 -1.1367 -1.5141  1.0315
  353MOL0     H46561   4.026   9.847   9.215  1.6987  0.1607 -0.3525
  353MOL0     H46562   3.700   9.841   8.901 -1.4831  0.6440 -0.9010
  353MOL0     H46563   3.789   9.984   8.839 -1.1987 -0.1595 -1.0866
  353MOL0     H46564   3.683  10.121   9.021  1.3186  0.6265 -2.3867
  353MOL0     H46565   3.608   9.972   9.088  0.3308  1.6224  0.1838
  353MOL0     H46566   3.476   9.916   8.897  3.9165 -0.9026 -2.5444
  353MOL0     H46567   3.537  10.070   8.814 -1.3229 -0.5099  0.0678
  353MOL0     H46568   3.365  10.041   9.059 -0.9965 -2.1529 -1.8043
  353MOL0     H46569   3.437  10.197   9.013  0.9518  0.1117  0.4018
  353MOL0     H46570   3.271  10.037   8.811  1.7225 -0.8036  0.7594
  353MOL0     H46571   3.316  10.209   8.818 -0.7137  0.4826 -0.3212
  353MOL0     H46572   3.179  10.247   9.017 -0.0299  0.6443 -1.8552
  353MOL0     H46573   3.145  10.068   9.021  2.8732  0.3981  0.2106
  353MOL0     H46574   3.058  10.277   8.819  2.1051  1.6634  2.4710
  353MOL0     H46575   3.039  10.097   8.803 -0.2564 -0.8714  1.2283
  353MOL0     H46576   2.858  10.104   8.976 -3.3523  0.4584 -1.2325
  353MOL0     H46577   2.823  10.233   8.859 -0.0894 -1.5012 -0.9072
  353MOL0     H46578   3.956   9.872   8.786 -0.7910 -1.4852 -0.5877
  353MOL0     H46579   4.171   9.817   8.740 -0.5555  2.5191 -0.0424
  353MOL0     H46580   4.534   9.600   8.986  0.6527  2.1626  1.8497
  353MOL0     H46581   4.760   9.511   9.015 -0.4505  0.3957 -0.2355
  353MOL0     H46582   6.236   8.778   8.702  2.8738  0.4524  1.7428
  353MOL0     H46583   6.476   8.777   8.622 -0.2771  0.1398 -3.5214
  353MOL0     H46584   6.864   8.592   8.585 -1.2649  1.2393 -0.4857
  353MOL0     H46585   7.089   8.640   8.549 -0.8226  0.5737 -0.0885
  353MOL0     H46586   7.292   8.669   8.479 -1.2793  2.0203 -0.5759
  353MOL0     H46587   7.383   8.655   8.322  0.5383 -2.0690 -0.6145
  353MOL0     H46588   7.365   8.457   8.434  0.2400  0.9262  1.7934
  353MOL0     H46589   7.192   8.456   8.452 -0.7916  1.0991 -1.0267
  353MOL0     H46590   7.343   8.474   8.189  1.0751 -2.5592  0.6558
  353MOL0     H46591   7.159   8.480   8.211 -0.3338 -1.7541  0.2639
  353MOL0     H46592   7.167   8.257   8.287 -0.3496  0.2753 -0.0167
  353MOL0     H46593   7.254   8.271   8.128 -1.2839  1.1521 -0.4363
  353MOL0     H46594   7.538   8.123   8.420  0.7976 -0.7085 -1.3470
  353MOL0     H46595   6.999   8.758   8.142 -0.4614 -1.5431 -0.4102
  353MOL0     H46596   6.772   8.730   8.187 -0.6026  0.5405  1.0800
  354MOL0     O46597   2.579   8.763   5.932 -1.3969 -1.0505 -0.4635
  354MOL0     C46598   2.602   8.753   6.056  0.1016  0.0574  0.4995
  354MOL0     O46599   2.512   8.716   6.152  0.6349 -0.1694  0.6022
  354MOL0     C46600   2.385   8.679   6.108 -0.6808 -0.3699 -0.3981
  354MOL0     C46601   2.267   8.752   6.131  0.0672 -0.2703  0.3408
  354MOL0     C46602   2.139   8.711   6.077 -1.4348 -0.6415  0.0772
  354MOL0     C46603   2.128   8.589   6.008 -0.8444  0.5720  0.3802
  354MOL0     O46604   2.009   8.566   5.947  0.1945 -0.1459  0.2668
  354MOL0     C46605   1.992   8.472   5.846 -0.3573  0.2625 -0.4635
  354MOL0     C46606   1.854   8.483   5.768 -0.8306 -0.1049 -0.3136
  354MOL0     C46607   1.742   8.473   5.871 -0.7107  0.0328 -0.1160
  354MOL0     C46608   1.606   8.449   5.802 -0.2807  0.4920 -0.5613
  354MOL0     C46609   1.545   8.581   5.752  0.8873 -0.7397  0.3594
  354MOL0     C46610   1.408   8.581   5.693  0.7560 -1.0013  0.1213
  354MOL0     C46611   1.288   8.546   5.783  0.2606  0.0709 -0.0825
  354MOL0     C46612   1.162   8.505   5.704 -0.2046 -0.2845 -0.3698
  354MOL0     N46613   1.049   8.471   5.800  0.1765  0.6316 -0.3500
  354MOL0     C46614   0.953   8.555   5.852  0.6281  0.2153 -0.2620
  354MOL0     C46615   0.895   8.481   5.953  0.5799 -0.4320  0.3985
  354MOL0     C46616   0.789   8.545   6.042 -0.0589 -0.2936  0.1909
  354MOL0     C46617   0.671   8.579   5.951  0.9407  0.1021 -0.6221
  354MOL0     C46618   0.570   8.658   6.035  0.5651 -0.5463  0.5281
  354MOL0     C46619   0.444   8.689   5.956 -0.1165  0.6073  1.0523
  354MOL0     O46620   0.342   8.713   6.048 -0.6176 -0.1558 -0.2713
  354MOL0     C46621   0.217   8.728   5.999  0.6839 -0.3562  0.4987
  354MOL0     C46622   0.159   8.850   6.027 -0.6296 -0.9463 -0.1341
  354MOL0     C46623   0.033   8.892   5.986  0.1189  0.0575  0.9002
  354MOL0     C46624  -0.048   8.796   5.919 -0.1075 -0.0304 -0.1280
  354MOL0     C46625  -0.184   8.830   5.875  0.2191  0.4051  0.1358
  354MOL0     O46626  -0.229   8.954   5.925  0.0649 -0.4183  0.0636
  354MOL0     C46627  -0.363   8.983   5.907 -0.3684  0.5154  0.4471
  354MOL0     C46628  -0.460   8.899   5.965 -0.6083 -0.2652  0.3149
  354MOL0     C46629  -0.595   8.928   5.951 -0.1659  0.2645 -0.2081
  354MOL0     C46630  -0.636   9.043   5.876 -0.4618 -0.8538  0.1663
  354MOL0     O46631  -0.768   9.095   5.882 -0.0119 -0.4462 -0.5088
  354MOL0     C46632  -0.835   9.118   5.755  0.3409  0.3176  0.9277
  354MOL0     C46633  -0.969   9.051   5.775  0.5650  0.2852 -0.4991
  354MOL0     C46634  -1.060   9.131   5.878 -0.1787  0.0664  0.5202
  354MOL0     C46635  -1.206   9.081   5.863 -0.0141 -0.8967  0.0198
  354MOL0     C46636  -1.292   9.127   5.976 -0.2209 -0.0017 -0.2317
  354MOL0     C46637  -1.440   9.131   5.959 -0.7030 -0.7719  0.3578
  354MOL0     C46638  -1.512   8.997   5.940 -0.4913 -0.0244  0.1794
  354MOL0     C46639  -1.658   9.025   5.888 -0.0845 -0.8967 -0.2285
  354MOL0    Cl46640  -1.647   9.130   5.730  0.3791 -0.1183  0.1788
  354MOL0     C46641  -0.538   9.122   5.810 -0.0547  0.6022 -0.9422
  354MOL0     C46642  -0.402   9.086   5.826  0.0673  0.6955  0.1088
  354MOL0     O46643  -0.256   8.746   5.815 -0.9127 -0.2697 -0.4968
  354MOL0     C46644   0.014   8.677   5.886 -0.0697  0.6373  0.3072
  354MOL0     C46645   0.142   8.640   5.925 -0.8186 -1.3320 -0.4923
  354MOL0     N46646   0.958   8.355   5.965  0.4115  0.2907  0.1404
  354MOL0     N46647   1.045   8.355   5.867 -0.3158  0.0890 -0.5922
  354MOL0     C46648   2.238   8.504   5.995  0.5154  0.2945 -0.2482
  354MOL0     C46649   2.371   8.555   6.036  0.0846  0.1540  0.1842
  354MOL0     C46650   2.742   8.760   6.102  0.7036 -0.7345  0.5419
  354MOL0     C46651   2.773   8.746   6.240  0.4916  0.5539  0.4288
  354MOL0     C46652   2.896   8.768   6.285  0.6770 -1.0046  0.0512
  354MOL0     C46653   3.004   8.808   6.197  0.0464 -0.1672  0.4213
  354MOL0     O46654   3.142   8.816   6.230  0.7588 -0.1871  0.5426
  354MOL0     C46655   3.168   8.747   6.354 -0.8590 -0.4912 -0.6886
  354MOL0     C46656   3.309   8.766   6.421 -0.7947 -0.1569  0.7687
  354MOL0     C46657   3.425   8.689   6.362  0.2730  0.0675 -0.0896
  354MOL0     C46658   3.531   8.655   6.470 -0.8423 -0.6647 -0.2302
  354MOL0     C46659   3.500   8.558   6.565 -0.6075  0.1807  0.2545
  354MOL0     C46660   3.479   8.501   6.670  0.7435 -0.6303  0.1702
  354MOL0     C46661   2.967   8.825   6.064  0.1360 -0.0801 -0.0665
  354MOL0     C46662   2.844   8.800   6.010  0.4237 -0.3864 -0.0788
  354MOL0     H46663   2.279   8.832   6.203 -0.7750 -1.8437  2.3035
  354MOL0     H46664   2.050   8.765   6.105 -0.9146 -0.5768  1.6958
  354MOL0     H46665   2.006   8.370   5.883 -2.8502 -1.2944 -3.3376
  354MOL0     H46666   2.074   8.503   5.780 -0.8769  1.5979 -0.5095
  354MOL0     H46667   1.860   8.397   5.702 -0.8211  0.6228 -1.2845
  354MOL0     H46668   1.844   8.577   5.713  0.0010  0.3150  0.2161
  354MOL0     H46669   1.738   8.566   5.928 -1.2335 -0.6539  0.9962
  354MOL0     H46670   1.763   8.394   5.943 -0.3263 -0.1480 -0.4199
  354MOL0     H46671   1.613   8.380   5.717  0.9640  2.7046 -2.3318
  354MOL0     H46672   1.544   8.402   5.879  2.6680 -2.4587  0.2634
  354MOL0     H46673   1.598   8.633   5.673 -0.3302  2.1763  1.3379
  354MOL0     H46674   1.539   8.648   5.838 -1.3393 -0.7134  0.2503
  354MOL0     H46675   1.411   8.534   5.595  4.0498  2.7437 -1.9068
  354MOL0     H46676   1.395   8.686   5.664 -0.3599 -2.1757 -4.3956
  354MOL0     H46677   1.318   8.459   5.841 -0.8793 -2.5555 -3.1249
  354MOL0     H46678   1.267   8.621   5.860 -0.4976 -0.7565  0.5451
  354MOL0     H46679   1.192   8.421   5.642 -1.0132  0.8642 -2.4073
  354MOL0     H46680   1.142   8.585   5.632  3.4221  1.6789  0.5691
  354MOL0     H46681   0.931   8.656   5.817 -1.0497 -0.2253 -0.5523
  354MOL0     H46682   0.827   8.630   6.099 -1.0074  0.3726 -0.1521
  354MOL0     H46683   0.768   8.465   6.115  1.0389 -2.0907 -1.3781
  354MOL0     H46684   0.625   8.488   5.911  0.3465  0.4862 -0.8077
  354MOL0     H46685   0.715   8.631   5.866  2.5728  2.0634  1.2896
  354MOL0     H46686   0.538   8.603   6.124 -0.4702  1.1883  1.2834
  354MOL0     H46687   0.614   8.751   6.070 -2.1690  0.5618  1.2787
  354MOL0     H46688   0.408   8.612   5.888 -2.3863  1.7525  0.8484
  354MOL0     H46689   0.449   8.781   5.897 -0.5439 -1.1654 -1.9579
  354MOL0     H46690   0.225   8.915   6.084  0.8238 -2.3820 -0.1435
  354MOL0     H46691   0.005   8.995   6.009 -0.1087  0.1251  0.3367
  354MOL0     H46692  -0.431   8.819   6.032 -2.3733 -1.1880  0.0404
  354MOL0     H46693  -0.679   8.870   5.989 -2.0043  3.0632  0.3417
  354MOL0     H46694  -0.778   9.075   5.673  2.7576  1.3025  1.9867
  354MOL0     H46695  -0.839   9.225   5.733  2.4400  0.4984  1.2091
  354MOL0     H46696  -0.957   8.953   5.821  2.3297  1.3254  1.4915
  354MOL0     H46697  -1.011   9.040   5.675 -2.5068  1.6103  0.5028
  354MOL0     H46698  -1.053   9.241   5.873  2.4722 -0.0680 -0.3636
  354MOL0     H46699  -1.027   9.105   5.979  1.1839  0.8431  0.3066
  354MOL0     H46700  -1.237   9.135   5.773 -1.1359  1.1350  1.5306
  354MOL0     H46701  -1.206   8.972   5.853 -1.4752 -1.0856  1.6887
  354MOL0     H46702  -1.253   9.228   5.995  5.5323 -0.8501 -4.6163
  354MOL0     H46703  -1.276   9.067   6.066 -1.5637 -1.8046 -1.1455
  354MOL0     H46704  -1.455   9.206   5.882 -2.4149 -0.5712  0.8626
  354MOL0     H46705  -1.491   9.168   6.048  0.3869 -2.7143  1.8746
  354MOL0     H46706  -1.468   8.928   5.868 -0.7302 -1.1640  1.0943
  354MOL0     H46707  -1.512   8.955   6.041 -0.3317  2.3541  1.2290
  354MOL0     H46708  -1.712   9.088   5.960 -2.1470 -0.0581 -2.3924
  354MOL0     H46709  -1.716   8.933   5.877  1.6209 -1.9285 -0.9540
  354MOL0     H46710  -0.577   9.202   5.747 -3.6114 -0.8311 -0.8348
  354MOL0     H46711  -0.320   9.141   5.780  0.1968  1.2205  0.9593
  354MOL0     H46712  -0.035   8.593   5.837 -2.1906  2.0632 -0.1568
  354MOL0     H46713   0.191   8.549   5.889  0.6098 -0.2215 -1.4914
  354MOL0     H46714   2.227   8.403   5.956  1.1433 -0.3725  1.2466
  354MOL0     H46715   2.453   8.488   6.014 -1.7560 -1.6162 -1.6936
  354MOL0     H46716   2.696   8.717   6.310  0.2964  1.6086  0.6656
  354MOL0     H46717   2.909   8.763   6.393 -1.8339  0.6041  0.5231
  354MOL0     H46718   3.141   8.641   6.354  0.8617 -0.9733  0.0333
  354MOL0     H46719   3.105   8.796   6.428  2.4157 -0.6409  2.4745
  354MOL0     H46720   3.345   8.869   6.421  2.2231 -1.1178  0.9927
  354MOL0     H46721   3.292   8.735   6.525 -2.9474  0.9604  0.8055
  354MOL0     H46722   3.474   8.757   6.291 -1.1652  5.5263  3.5628
  354MOL0     H46723   3.393   8.598   6.309 -1.3313  1.6687 -2.0375
  354MOL0     H46724   3.627   8.631   6.423  0.3812  1.0902  1.2354
  354MOL0     H46725   3.544   8.749   6.525  0.5281 -2.5428  2.9232
  354MOL0     H46726   3.469   8.472   6.773  0.3173 -0.1344  0.2741
  354MOL0     H46727   3.049   8.845   5.995 -0.8570  2.3399 -0.6517
  354MOL0     H46728   2.814   8.805   5.906 -1.3920  0.2328  0.4459
  355MOL0     O46729   5.163   4.497   0.500 -0.6087 -0.6358  0.1810
  355MOL0     C46730   5.073   4.578   0.473 -0.2888 -0.0601  0.5379
  355MOL0     O46731   5.058   4.698   0.525  0.7997 -0.1561 -0.2462
  355MOL0     C46732   5.164   4.737   0.607 -0.0106  0.3190  0.1441
  355MOL0     C46733   5.260   4.822   0.542  0.1082  0.8161  0.0334
  355MOL0     C46734   5.372   4.864   0.611  0.0700 -0.2903  0.6139
  355MOL0     C46735   5.386   4.836   0.749 -0.0065 -0.0928 -0.5605
  355MOL0     O46736   5.483   4.911   0.814  0.3796 -0.2578 -0.2686
  355MOL0     C46737   5.483   4.926   0.960 -0.0273 -0.7215 -0.3152
  355MOL0     C46738   5.575   5.041   0.991  0.2592  0.2367  0.4277
  355MOL0     C46739   5.557   5.082   1.136  0.2015 -0.4139 -0.2138
  355MOL0     C46740   5.664   5.172   1.202  0.6282 -0.7893  0.5573
  355MOL0     C46741   5.685   5.300   1.108 -0.3427  0.6204 -0.1699
  355MOL0     C46742   5.575   5.402   1.127 -1.1479 -0.4888  0.3201
  355MOL0     C46743   5.626   5.528   1.054 -0.1464  0.1027  0.1631
  355MOL0     C46744   5.509   5.619   0.996 -0.3019 -0.4655  0.0059
  355MOL0     N46745   5.434   5.690   1.107 -0.6088  0.7449  0.1546
  355MOL0     C46746   5.298   5.692   1.118 -0.6359  0.2668 -0.3929
  355MOL0     C46747   5.275   5.762   1.227 -0.4496 -0.6690  0.0889
  355MOL0     C46748   5.153   5.781   1.309  0.3101  0.1337  0.1429
  355MOL0     C46749   5.106   5.655   1.369  0.5553 -0.5580 -0.2715
  355MOL0     C46750   5.037   5.671   1.507 -0.2500  0.5778  0.7615
  355MOL0     C46751   5.004   5.530   1.570  0.2678 -0.6446  0.3216
  355MOL0     O46752   4.916   5.445   1.487 -0.4285 -0.3574  0.9905
  355MOL0     C46753   4.789   5.477   1.446 -0.4104 -0.9020 -0.6363
  355MOL0     C46754   4.714   5.584   1.505 -0.3718  0.5728 -0.0962
  355MOL0     C46755   4.582   5.605   1.495 -0.4965  0.5820  0.4635
  355MOL0     C46756   4.503   5.512   1.417  0.1346  0.1057  0.8532
  355MOL0     C46757   4.351   5.530   1.380 -0.3605  0.0947 -0.7888
  355MOL0     O46758   4.292   5.652   1.403  0.1859  0.3287  0.2317
  355MOL0     C46759   4.160   5.656   1.372  0.6685 -0.0810  0.7625
  355MOL0     C46760   4.105   5.705   1.252  0.2290  1.4343  0.4619
  355MOL0     C46761   3.968   5.705   1.213  0.3681 -0.2971  0.2388
  355MOL0     C46762   3.878   5.656   1.312  0.3939 -1.0700  0.0089
  355MOL0     O46763   3.744   5.663   1.269 -0.7436  1.1318 -0.1954
  355MOL0     C46764   3.646   5.619   1.366 -0.2770  0.6031 -0.4911
  355MOL0     C46765   3.516   5.589   1.290  0.0551 -0.0509 -0.1392
  355MOL0     C46766   3.449   5.476   1.366 -0.5051 -0.6036 -0.0398
  355MOL0     C46767   3.339   5.418   1.288  0.2908 -0.8209 -0.5148
  355MOL0     C46768   3.247   5.342   1.389 -1.1224  0.1075 -0.1486
  355MOL0     C46769   3.138   5.274   1.303 -0.4785 -0.4213  0.6954
  355MOL0     C46770   2.999   5.268   1.378 -0.0407 -0.1450 -0.3959
  355MOL0     C46771   2.910   5.159   1.326 -0.1011 -0.0725  0.2276
  355MOL0    Cl46772   2.985   5.007   1.282  0.0224 -0.0666  0.0794
  355MOL0     C46773   3.926   5.613   1.438 -1.5297 -0.4915 -0.3924
  355MOL0     C46774   4.069   5.615   1.468  0.4724  0.3719 -0.5353
  355MOL0     O46775   4.291   5.422   1.355 -0.7359 -1.3274  0.8631
  355MOL0     C46776   4.574   5.413   1.352 -0.5980 -0.1534  0.3024
  355MOL0     C46777   4.712   5.394   1.370 -0.6378 -0.0437  1.5918
  355MOL0     N46778   5.395   5.822   1.268 -0.4047  0.2641 -0.0707
  355MOL0     N46779   5.488   5.775   1.200 -0.3347  0.2693  0.4102
  355MOL0     C46780   5.293   4.750   0.811 -0.3006  0.7614 -0.2096
  355MOL0     C46781   5.184   4.707   0.738  0.1634  0.4758  0.5959
  355MOL0     C46782   4.962   4.534   0.380 -0.3901 -0.0914 -0.5550
  355MOL0     C46783   4.980   4.412   0.298  0.2731  0.3576 -0.4794
  355MOL0     C46784   4.876   4.370   0.219 -0.2002  0.5977  0.1226
  355MOL0     C46785   4.757   4.442   0.208 -0.0044  1.1366  0.3849
  355MOL0     O46786   4.671   4.383   0.114 -0.4581 -0.2501  0.0175
  355MOL0     C46787   4.529   4.420   0.118 -0.4987 -0.6103 -0.0188
  355MOL0     C46788   4.437   4.329   0.028  0.3549  0.4760  0.0703
  355MOL0     C46789   4.288   4.366   0.059 -0.4027 -0.4557  0.6814
  355MOL0     C46790   4.196   4.280  -0.028 -0.2599 -0.1872  0.0112
  355MOL0     C46791   4.051   4.304  -0.003 -0.0826  0.1289  0.3695
  355MOL0     C46792   3.940   4.311   0.036 -0.5471  0.0555 -0.0593
  355MOL0     C46793   4.734   4.556   0.286  0.3624  0.5323 -0.0100
  355MOL0     C46794   4.837   4.594   0.373  0.0428 -0.1665 -0.3907
  355MOL0     H46795   5.241   4.862   0.444  1.9895 -0.7301 -1.0331
  355MOL0     H46796   5.435   4.937   0.562  1.3269 -0.6916  1.5764
  355MOL0     H46797   5.514   4.844   1.026 -0.0378  0.2230  0.8989
  355MOL0     H46798   5.385   4.957   0.997  1.7173  0.5500  3.8029
  355MOL0     H46799   5.554   5.120   0.918  0.0897 -1.1164 -1.0288
  355MOL0     H46800   5.679   5.012   0.971  0.2676 -0.8249  1.8667
  355MOL0     H46801   5.566   4.990   1.193  2.0124 -0.6703 -0.8379
  355MOL0     H46802   5.459   5.130   1.141 -0.0778 -0.5974 -2.6292
  355MOL0     H46803   5.635   5.202   1.303  2.0225 -1.9081  1.3196
  355MOL0     H46804   5.761   5.122   1.212  1.7204 -0.4431 -4.8072
  355MOL0     H46805   5.701   5.275   1.003 -4.7624  0.6378 -1.0480
  355MOL0     H46806   5.780   5.339   1.147 -0.1530 -0.7278  0.7867
  355MOL0     H46807   5.576   5.432   1.232  2.8554  1.2841 -0.0583
  355MOL0     H46808   5.484   5.369   1.076  0.4166  0.5503 -3.5066
  355MOL0     H46809   5.698   5.575   1.122 -2.6402  1.2110  2.2144
  355MOL0     H46810   5.688   5.495   0.971  2.4697 -1.5285  2.5892
  355MOL0     H46811   5.446   5.561   0.928  1.9049  0.4016 -3.0185
  355MOL0     H46812   5.549   5.696   0.929  1.6281 -0.5984  0.9257
  355MOL0     H46813   5.223   5.641   1.059  0.5497 -0.8094 -1.0239
  355MOL0     H46814   5.089   5.824   1.232  2.8709  1.8385 -1.1538
  355MOL0     H46815   5.173   5.841   1.398 -1.0285 -1.1858  1.4012
  355MOL0     H46816   5.187   5.582   1.374  0.1496 -1.4806 -3.9973
  355MOL0     H46817   5.029   5.611   1.304 -4.1281  2.1058  2.8451
  355MOL0     H46818   5.097   5.720   1.584 -0.9784  0.1695  1.6033
  355MOL0     H46819   4.951   5.736   1.491 -0.2569  0.0637 -1.6091
  355MOL0     H46820   4.974   5.545   1.674  1.1294 -0.0480  0.4912
  355MOL0     H46821   5.099   5.476   1.570 -0.7512 -2.5582 -0.6607
  355MOL0     H46822   4.766   5.649   1.575  0.5632 -1.8783  1.6030
  355MOL0     H46823   4.533   5.690   1.541 -0.1440  0.6318  0.7452
  355MOL0     H46824   4.169   5.759   1.183  1.3790  0.8823  1.0627
  355MOL0     H46825   3.952   5.736   1.110  2.7034 -0.4619 -0.2342
  355MOL0     H46826   3.641   5.701   1.438  0.2279  0.8009 -0.6823
  355MOL0     H46827   3.682   5.524   1.406  2.3685  1.3751 -0.8994
  355MOL0     H46828   3.531   5.558   1.186 -3.5887  0.5987 -1.0059
  355MOL0     H46829   3.462   5.683   1.286  2.7908  1.5952 -1.7655
  355MOL0     H46830   3.401   5.520   1.454 -1.2632 -0.7931 -0.3546
  355MOL0     H46831   3.514   5.391   1.387  1.6877  1.0560  0.2697
  355MOL0     H46832   3.289   5.505   1.243  2.6699  1.0292  0.1841
  355MOL0     H46833   3.375   5.360   1.203  1.9793  0.9462 -1.0865
  355MOL0     H46834   3.198   5.408   1.461 -0.6108  0.8352 -0.4542
  355MOL0     H46835   3.306   5.266   1.442  2.9886  2.1001 -1.4442
  355MOL0     H46836   3.179   5.173   1.286  2.9430  0.7809  0.9334
  355MOL0     H46837   3.122   5.323   1.207 -0.2289  2.5403  2.0691
  355MOL0     H46838   3.016   5.229   1.479  0.2377  4.9756  1.8250
  355MOL0     H46839   2.946   5.362   1.394 -0.7000 -1.0934  4.2413
  355MOL0     H46840   2.868   5.201   1.235  0.2623 -1.6898 -0.7394
  355MOL0     H46841   2.826   5.140   1.394 -0.2696 -0.7438 -0.1618
  355MOL0     H46842   3.860   5.577   1.516 -0.4392 -0.8515  0.3952
  355MOL0     H46843   4.101   5.580   1.566 -1.4864 -0.6738 -0.2090
  355MOL0     H46844   4.538   5.340   1.280  1.7265 -1.1063  0.0141
  355MOL0     H46845   4.764   5.313   1.319 -0.0484  0.9853  0.4929
  355MOL0     H46846   5.314   4.722   0.914 -0.4471  0.4700 -0.2571
  355MOL0     H46847   5.118   4.633   0.782  0.9400 -1.2278 -0.9479
  355MOL0     H46848   5.073   4.357   0.286 -0.9877 -1.6264 -1.8704
  355MOL0     H46849   4.895   4.275   0.171  1.3532 -0.4722  2.6574
  355MOL0     H46850   4.522   4.527   0.096 -2.5729 -0.6727  0.1537
  355MOL0     H46851   4.495   4.409   0.221 -1.2123 -0.7876 -0.2682
  355MOL0     H46852   4.453   4.341  -0.080 -2.9294 -1.6227 -0.7763
  355MOL0     H46853   4.458   4.225   0.052  1.5309  0.1494 -2.1400
  355MOL0     H46854   4.272   4.471   0.033 -0.7849  0.2748  3.5143
  355MOL0     H46855   4.276   4.353   0.167 -3.7631 -0.5666  0.3973
  355MOL0     H46856   4.223   4.293  -0.133  0.3740  2.1302  0.4098
  355MOL0     H46857   4.208   4.176   0.006  2.8479 -0.1324 -0.6061
  355MOL0     H46858   3.834   4.305   0.053 -0.4479 -2.9925  0.1055
  355MOL0     H46859   4.639   4.608   0.278 -0.5384 -1.3350 -3.6210
  355MOL0     H46860   4.807   4.683   0.426 -1.4302  0.2234 -1.7954
  356MOL0     O46861   6.334   9.333  10.420  0.4011  0.5171 -0.3808
  356MOL0     C46862   6.380   9.382  10.519  0.6926  0.5725 -0.9493
  356MOL0     O46863   6.509   9.409  10.542 -0.7044  0.0278 -0.4052
  356MOL0     C46864   6.616   9.376  10.454  0.8959  0.3247  0.2839
  356MOL0     C46865   6.744   9.432  10.488  0.5750  0.0367 -0.3569
  356MOL0     C46866   6.852   9.420  10.406 -0.2861 -0.2185  0.2765
  356MOL0     C46867   6.844   9.334  10.299 -0.4388 -0.1251 -0.1574
  356MOL0     O46868   6.950   9.326  10.212  0.4446 -0.8901  0.4858
  356MOL0     C46869   6.967   9.217  10.116  0.2746  1.0040  0.6133
  356MOL0     C46870   7.119   9.204  10.073 -0.4698  0.8408 -0.5830
  356MOL0     C46871   7.130   9.071   9.998 -0.3620  1.0736  1.2372
  356MOL0     C46872   7.265   9.015   9.972  0.2501 -0.1581  0.0710
  356MOL0     C46873   7.337   8.927  10.076  0.7743 -0.7308 -0.5514
  356MOL0     C46874   7.451   8.854  10.035 -0.3938 -0.3040  0.0366
  356MOL0     C46875   7.569   8.947   9.999 -0.0296  0.3714 -0.1838
  356MOL0     C46876   7.690   8.868   9.940  0.0955  0.0124 -0.4200
  356MOL0     N46877   7.770   8.805  10.044 -0.4322  0.2211 -0.3734
  356MOL0     C46878   7.890   8.848  10.074 -0.2344 -0.7055 -0.4387
  356MOL0     C46879   7.952   8.752  10.144 -0.2397  0.3763 -0.1391
  356MOL0     C46880   8.090   8.752  10.197 -0.1124  0.3723 -0.3877
  356MOL0     C46881   8.140   8.862  10.291  0.0334 -0.0661  0.7095
  356MOL0     C46882   8.101   8.830  10.432  0.0792  0.4316 -0.4005
  356MOL0     C46883   7.953   8.809  10.448  0.4406 -0.4720 -0.1242
  356MOL0     O46884   7.889   8.932  10.396 -0.6912  0.4801  0.2748
  356MOL0     C46885   7.755   8.936  10.433 -0.3153  0.9900 -0.0741
  356MOL0     C46886   7.696   9.064  10.445 -0.1955 -0.0817 -0.3923
  356MOL0     C46887   7.560   9.081  10.463 -0.0501 -0.7320  0.4940
  356MOL0     C46888   7.472   8.970  10.483  0.1662  0.4567  0.9364
  356MOL0     C46889   7.330   8.978  10.514 -0.2933 -0.7448 -1.6133
  356MOL0     O46890   7.278   9.106  10.520  0.6413 -0.2001 -0.0224
  356MOL0     C46891   7.153   9.121  10.568  0.1434  0.5460 -0.7708
  356MOL0     C46892   7.142   9.193  10.682 -0.8401 -0.1401  0.0767
  356MOL0     C46893   7.024   9.206  10.753  0.8741  0.3222 -0.7283
  356MOL0     C46894   6.900   9.155  10.694 -0.0737 -0.4062  0.3806
  356MOL0     O46895   6.774   9.149  10.747  0.5470 -0.3173 -0.9377
  356MOL0     C46896   6.765   9.212  10.879 -0.3307  0.3168 -0.4487
  356MOL0     C46897   6.637   9.163  10.947 -0.7091  0.1203 -0.5542
  356MOL0     C46898   6.640   9.217  11.098  0.7010 -0.3940  0.7132
  356MOL0     C46899   6.723   9.132  11.196  0.9428  0.7379  0.3445
  356MOL0     C46900   6.739   9.202  11.338  0.7423  0.1375  0.0559
  356MOL0     C46901   6.603   9.200  11.421  0.1197 -0.0067 -0.0388
  356MOL0     C46902   6.589   9.073  11.505  0.6213  0.6617 -0.5398
  356MOL0     C46903   6.488   9.066  11.620  0.0603 -0.7981 -0.1302
  356MOL0    Cl46904   6.521   9.191  11.750  0.6798  0.1247  0.2583
  356MOL0     C46905   6.915   9.077  10.583 -0.0211 -0.6337  1.4192
  356MOL0     C46906   7.038   9.053  10.513  0.2483 -0.1869 -0.6007
  356MOL0     O46907   7.274   8.881  10.566  0.3763 -0.1736  0.2850
  356MOL0     C46908   7.533   8.837  10.462  1.3526 -0.0391 -0.5055
  356MOL0     C46909   7.660   8.826  10.427 -0.2153  0.0356 -0.2417
  356MOL0     N46910   7.866   8.650  10.144 -0.3566  0.7403  0.6639
  356MOL0     N46911   7.755   8.673  10.081  1.3340 -0.4507  0.2052
  356MOL0     C46912   6.720   9.267  10.272 -0.2970  1.0578 -0.0553
  356MOL0     C46913   6.611   9.287  10.350  0.1348  0.4416  0.8778
  356MOL0     C46914   6.287   9.428  10.628  0.7947 -0.2967  0.7007
  356MOL0     C46915   6.329   9.489  10.748 -0.3215 -0.5363  0.3976
  356MOL0     C46916   6.236   9.531  10.838  0.5678 -0.5007 -0.3844
  356MOL0     C46917   6.098   9.528  10.808  0.7769 -0.7174  0.3987
  356MOL0     O46918   6.006   9.577  10.897 -0.7476  0.4229  0.0638
  356MOL0     C46919   6.037   9.716  10.931  0.4627 -0.1315 -0.2504
  356MOL0     C46920   5.941   9.774  11.039  0.6808  0.1088 -0.3960
  356MOL0     C46921   5.812   9.833  10.980 -0.1937 -0.4240  1.2220
  356MOL0     C46922   5.701   9.733  10.954  0.6704  0.1143 -0.2000
  356MOL0     C46923   5.589   9.802  10.874  0.1052 -0.3451  1.0659
  356MOL0     C46924   5.495   9.860  10.815  0.0924 -0.1906 -0.0139
  356MOL0     C46925   6.058   9.470  10.688 -0.6824 -0.1259 -0.2161
  356MOL0     C46926   6.149   9.420  10.594 -0.4867 -0.7899  0.6029
  356MOL0     H46927   6.753   9.487  10.581  0.9386  0.6599 -0.7574
  356MOL0     H46928   6.944   9.471  10.432 -0.8299  1.7755 -1.4456
  356MOL0     H46929   6.900   9.234  10.032  0.8672  0.0953 -0.0658
  356MOL0     H46930   6.933   9.128  10.171 -0.8613  0.3055 -1.1134
  356MOL0     H46931   7.178   9.197  10.165  0.5049 -2.8686 -1.3233
  356MOL0     H46932   7.159   9.284  10.009  3.4025 -1.0564 -0.8628
  356MOL0     H46933   7.070   9.083   9.907 -0.4045 -0.4126  1.0439
  356MOL0     H46934   7.072   9.004  10.062 -0.2054  3.2946  3.8626
  356MOL0     H46935   7.265   8.954   9.882 -1.1944  0.4564 -0.3713
  356MOL0     H46936   7.328   9.102   9.948  1.8618 -0.5420  2.5856
  356MOL0     H46937   7.263   8.865  10.127 -0.7174  1.8215  0.5921
  356MOL0     H46938   7.366   8.987  10.163  1.1419  1.9192 -2.3760
  356MOL0     H46939   7.425   8.804   9.941  0.9136 -0.4922 -0.2344
  356MOL0     H46940   7.470   8.783  10.115 -3.1662 -1.9454 -0.6275
  356MOL0     H46941   7.530   9.023   9.932  1.4906  1.9897  0.6823
  356MOL0     H46942   7.592   9.002  10.090 -0.0411  3.9061 -2.1506
  356MOL0     H46943   7.759   8.935   9.888  3.0150 -1.7741  0.8481
  356MOL0     H46944   7.652   8.795   9.868 -0.2044 -2.3363  1.9351
  356MOL0     H46945   7.946   8.940  10.060 -0.8036 -0.2014  0.4800
  356MOL0     H46946   8.158   8.742  10.112  1.4131 -1.7431  0.9667
  356MOL0     H46947   8.107   8.658  10.250 -1.3702  1.1155  1.4336
  356MOL0     H46948   8.098   8.957  10.257 -0.3555  0.2479  2.0174
  356MOL0     H46949   8.248   8.873  10.283 -0.0957  0.7342 -0.2027
  356MOL0     H46950   8.146   8.738  10.470 -0.6924  1.0755  2.2988
  356MOL0     H46951   8.124   8.917  10.494  0.4783 -0.4853  0.7646
  356MOL0     H46952   7.930   8.794  10.554 -0.9469  1.4397 -0.0990
  356MOL0     H46953   7.922   8.717  10.398 -1.0277 -0.2753  0.3858
  356MOL0     H46954   7.759   9.152  10.439  0.6211 -0.7596 -3.6920
  356MOL0     H46955   7.518   9.180  10.480  3.7103  0.8086  1.7799
  356MOL0     H46956   7.242   9.217  10.719 -0.2281 -2.4456  0.0460
  356MOL0     H46957   7.031   9.254  10.850  0.6059 -0.8485 -0.1199
  356MOL0     H46958   6.761   9.321  10.869  1.2587  0.3796 -0.6220
  356MOL0     H46959   6.858   9.181  10.928  0.1420 -1.6555 -2.4451
  356MOL0     H46960   6.629   9.055  10.937  2.5002 -0.4929  1.7619
  356MOL0     H46961   6.554   9.209  10.892  1.3054  1.4051 -2.7807
  356MOL0     H46962   6.535   9.214  11.130  0.5326 -0.7640  0.1301
  356MOL0     H46963   6.669   9.322  11.103  2.8912 -1.0187  2.7187
  356MOL0     H46964   6.692   9.028  11.203 -2.2371  1.5404 -0.2897
  356MOL0     H46965   6.824   9.131  11.152 -1.0249 -1.0929 -4.8961
  356MOL0     H46966   6.769   9.306  11.323  1.7324 -0.4348 -2.6377
  356MOL0     H46967   6.818   9.156  11.398 -0.9564 -1.8783  0.8610
  356MOL0     H46968   6.516   9.222  11.359 -0.6241 -0.5703  0.7862
  356MOL0     H46969   6.617   9.281  11.494  1.1394 -1.8715  1.9459
  356MOL0     H46970   6.581   8.985  11.441 -0.9412  0.3760  0.0100
  356MOL0     H46971   6.686   9.064  11.555 -0.2944  0.7504  1.3549
  356MOL0     H46972   6.477   8.963  11.656 -5.8423 -0.1025  1.0525
  356MOL0     H46973   6.386   9.088  11.589  0.3583  0.4598 -0.2804
  356MOL0     H46974   6.826   9.022  10.553 -0.8070  1.9980 -1.5896
  356MOL0     H46975   7.056   8.995  10.423  0.4855 -0.3022 -0.4804
  356MOL0     H46976   7.469   8.750  10.473  0.5138 -0.0167 -3.9829
  356MOL0     H46977   7.697   8.725  10.409 -0.1973  0.3985 -2.4942
  356MOL0     H46978   6.720   9.188  10.197  0.4412  1.6242 -0.6606
  356MOL0     H46979   6.526   9.220  10.351 -2.9933  3.9773 -1.1371
  356MOL0     H46980   6.435   9.502  10.769 -0.7175  0.5546  1.9154
  356MOL0     H46981   6.271   9.581  10.927  1.2350  0.5062 -1.1785
  356MOL0     H46982   6.045   9.768  10.836  3.7560  0.8046  0.4201
  356MOL0     H46983   6.133   9.718  10.983  0.1171 -2.0086  0.5782
  356MOL0     H46984   5.903   9.698  11.107 -0.1151  0.6455 -0.2321
  356MOL0     H46985   5.983   9.858  11.094 -3.4297  1.7025  0.7052
  356MOL0     H46986   5.824   9.890  10.887 -3.0277 -2.6533 -0.6989
  356MOL0     H46987   5.768   9.901  11.053 -1.5768 -0.9009  0.8543
  356MOL0     H46988   5.734   9.641  10.906  0.9114 -2.3763  4.2619
  356MOL0     H46989   5.654   9.689  11.042 -3.5700 -0.0142 -2.2923
  356MOL0     H46990   5.402   9.904  10.783  1.6917  1.3155 -3.0623
  356MOL0     H46991   5.953   9.467  10.664 -0.4823  0.0655 -1.1663
  356MOL0     H46992   6.117   9.374  10.501 -1.0051  0.1424  0.3073
  357MOL0     O46993   6.163   4.234  10.494 -0.4599 -0.4670 -0.3827
  357MOL0     C46994   6.265   4.297  10.535  0.0536 -0.0312 -0.4948
  357MOL0     O46995   6.314   4.289  10.660 -0.1078  0.4517  0.0636
  357MOL0     C46996   6.238   4.211  10.747  0.7755  0.8201  0.1565
  357MOL0     C46997   6.117   4.259  10.812 -0.1877  0.3433  0.4200
  357MOL0     C46998   6.043   4.161  10.887 -0.0133 -0.2826 -0.0297
  357MOL0     C46999   6.084   4.031  10.905  0.1912 -0.0560  0.2460
  357MOL0     O47000   6.017   3.936  10.976  0.5521 -0.2680 -0.5953
  357MOL0     C47001   5.874   3.974  11.010  0.7109 -0.0400  0.7394
  357MOL0     C47002   5.800   3.850  11.037  0.2952  0.8704 -0.6503
  357MOL0     C47003   5.653   3.863  11.077  0.4619  0.0767  0.4523
  357MOL0     C47004   5.594   3.745  11.148 -0.4139 -0.8892 -0.1230
  357MOL0     C47005   5.440   3.768  11.182 -0.8266  1.1599  0.2625
  357MOL0     C47006   5.380   3.655  11.267 -0.5392  0.1542 -0.0822
  357MOL0     C47007   5.231   3.670  11.302  0.6132  0.9541 -0.3786
  357MOL0     C47008   5.180   3.542  11.375  0.0954  0.9578 -0.9645
  357MOL0     N47009   5.038   3.541  11.403 -0.7451  0.0036 -0.3144
  357MOL0     C47010   4.972   3.596  11.508  0.5590 -0.3857 -0.5033
  357MOL0     C47011   4.840   3.580  11.482  0.5501 -0.1662 -0.6464
  357MOL0     C47012   4.727   3.626  11.569  0.5094  0.6906  0.7848
  357MOL0     C47013   4.752   3.645  11.718 -0.0814  0.6938 -0.3696
  357MOL0     C47014   4.623   3.710  11.784  0.3437  0.2655 -0.5492
  357MOL0     C47015   4.490   3.626  11.774 -0.5971 -0.0673  1.1097
  357MOL0     O47016   4.409   3.670  11.884 -0.1106 -0.0964 -0.3007
  357MOL0     C47017   4.277   3.642  11.893  0.4471 -0.6679  0.1195
  357MOL0     C47018   4.214   3.670  12.014 -0.2597  0.7238 -0.9678
  357MOL0     C47019   4.075   3.645  12.035  0.0962 -0.1898  0.2410
  357MOL0     C47020   3.993   3.589  11.931  0.1688  0.1282  0.6803
  357MOL0     C47021   3.846   3.561  11.950 -1.1155  1.0877  0.3015
  357MOL0     O47022   3.777   3.537  11.837  0.1139 -0.3336  0.5765
  357MOL0     C47023   3.635   3.526  11.848 -0.0124  0.5746 -0.0271
  357MOL0     C47024   3.555   3.621  11.794 -0.8749  0.6118  0.3118
  357MOL0     C47025   3.422   3.602  11.797 -0.1312  0.8323  0.7249
  357MOL0     C47026   3.360   3.494  11.860 -0.3214  0.3502  0.2028
  357MOL0     O47027   3.222   3.478  11.858  0.1328 -0.4108 -0.1470
  357MOL0     C47028   3.128   3.588  11.807 -1.1314  0.4907  0.5693
  357MOL0     C47029   2.980   3.551  11.811  0.4368 -0.5265 -0.4151
  357MOL0     C47030   2.882   3.676  11.803 -0.2110 -0.0828  0.3872
  357MOL0     C47031   2.734   3.626  11.813  0.1660  0.8206 -0.1448
  357MOL0     C47032   2.635   3.739  11.819  0.7741  0.1206 -1.0150
  357MOL0     C47033   2.491   3.675  11.845  0.3805 -0.7998 -0.6856
  357MOL0     C47034   2.380   3.788  11.851  0.6737  0.2972 -0.3220
  357MOL0     C47035   2.233   3.741  11.858 -0.1257 -0.0881 -0.0465
  357MOL0    Cl47036   2.199   3.664  12.005 -0.3818 -0.0412 -0.3535
  357MOL0     C47037   3.442   3.397  11.925  1.4196 -0.3692 -0.4979
  357MOL0     C47038   3.584   3.411  11.917  0.7579 -0.7953  0.2210
  357MOL0     O47039   3.801   3.573  12.061  0.0505 -0.7648  0.2297
  357MOL0     C47040   4.057   3.550  11.816 -0.3156  0.3141  0.2492
  357MOL0     C47041   4.195   3.590  11.792  0.1789  0.1672 -0.3863
  357MOL0     N47042   4.830   3.527  11.359  0.1633 -0.3100  0.0052
  357MOL0     N47043   4.944   3.505  11.313 -0.2353  0.0560 -0.5432
  357MOL0     C47044   6.203   3.988  10.849  0.2297  0.6123  0.0942
  357MOL0     C47045   6.282   4.074  10.773  0.1412 -1.4502 -0.5070
  357MOL0     C47046   6.324   4.405  10.445 -0.3833 -0.0103  0.9531
  357MOL0     C47047   6.440   4.471  10.493 -0.6829 -0.1706  0.5517
  357MOL0     C47048   6.498   4.578  10.419  0.3713  0.8994 -0.2807
  357MOL0     C47049   6.450   4.607  10.293 -0.2117 -0.1994 -0.1175
  357MOL0     O47050   6.520   4.711  10.226  0.3744  0.5886  0.4203
  357MOL0     C47051   6.463   4.743  10.095 -0.5072 -0.7557  0.4853
  357MOL0     C47052   6.533   4.858  10.027 -2.9108  0.4586 -0.1746
  357MOL0     C47053   6.673   4.812  10.001  0.3663 -0.1286  0.1891
  357MOL0     C47054   6.751   4.912   9.912 -0.3781 -0.3020  0.6371
  357MOL0     C47055   6.886   4.855   9.900  0.7137 -0.1825 -0.4880
  357MOL0     C47056   6.997   4.808   9.877 -0.0981 -0.9135 -0.2026
  357MOL0     C47057   6.341   4.535  10.245  0.2436 -1.3632  0.4751
  357MOL0     C47058   6.279   4.439  10.320  0.0075 -0.1409 -0.7773
  357MOL0     H47059   6.088   4.363  10.799  3.5864  1.8396  2.2842
  357MOL0     H47060   5.959   4.209  10.937  0.3282  0.6433 -0.3122
  357MOL0     H47061   5.830   4.008  10.916  3.0700 -0.5687 -0.6278
  357MOL0     H47062   5.868   4.050  11.088 -3.8112 -1.1962  1.7767
  357MOL0     H47063   5.855   3.791  11.111 -0.0259 -0.1895 -1.2350
  357MOL0     H47064   5.794   3.790  10.946 -1.7410 -0.8248  0.5177
  357MOL0     H47065   5.607   3.888  10.981  0.2078  1.5600  0.9326
  357MOL0     H47066   5.636   3.949  11.143 -1.9371  0.6710 -0.8308
  357MOL0     H47067   5.614   3.651  11.095  0.1372 -0.9594  0.2005
  357MOL0     H47068   5.648   3.741  11.243 -0.0169  0.8493 -0.2523
  357MOL0     H47069   5.386   3.769  11.086  0.3461 -2.2288 -0.5564
  357MOL0     H47070   5.434   3.863  11.236  1.9852  0.7789  1.4150
  357MOL0     H47071   5.431   3.642  11.363 -1.0033 -2.1825 -0.1141
  357MOL0     H47072   5.382   3.560  11.213  0.1457  0.5480 -0.7792
  357MOL0     H47073   5.214   3.759  11.364 -1.3565  0.3183  0.0540
  357MOL0     H47074   5.168   3.682  11.213 -0.4076  2.6895  0.5176
  357MOL0     H47075   5.229   3.533  11.473 -1.4471 -1.7460 -0.3498
  357MOL0     H47076   5.215   3.457  11.315  4.8297  4.3214 -3.6796
  357MOL0     H47077   5.013   3.653  11.591  2.1789 -1.2984 -0.6350
  357MOL0     H47078   4.642   3.558  11.554  0.1838  1.0400  1.0298
  357MOL0     H47079   4.696   3.726  11.535 -1.3463 -0.1582 -0.2186
  357MOL0     H47080   4.828   3.722  11.736 -0.3583  0.9060 -0.0874
  357MOL0     H47081   4.778   3.550  11.764 -0.3437  0.8976  0.2130
  357MOL0     H47082   4.648   3.727  11.889 -1.9905 -0.8973  0.2572
  357MOL0     H47083   4.609   3.804  11.729 -1.1758  0.3649 -0.0484
  357MOL0     H47084   4.516   3.521  11.785  1.5320  0.6440  4.1447
  357MOL0     H47085   4.446   3.647  11.676 -1.1686  4.2953  2.0725
  357MOL0     H47086   4.280   3.711  12.090 -0.0915  1.0665 -1.2994
  357MOL0     H47087   4.043   3.667  12.137  2.7247 -0.8317  1.2853
  357MOL0     H47088   3.604   3.701  11.738 -1.9971  0.9144 -0.2702
  357MOL0     H47089   3.370   3.679  11.742  0.6711  0.3071 -0.8187
  357MOL0     H47090   3.155   3.620  11.706 -2.4216 -0.7110 -0.1914
  357MOL0     H47091   3.136   3.674  11.874  1.1254  1.3565 -0.6980
  357MOL0     H47092   2.958   3.500  11.906 -4.0462 -0.3034 -1.1049
  357MOL0     H47093   2.960   3.485  11.726 -1.6809 -1.6804  0.8869
  357MOL0     H47094   2.896   3.720  11.704 -0.6453  1.7942  1.1173
  357MOL0     H47095   2.904   3.749  11.881  3.1429  1.0694 -1.4011
  357MOL0     H47096   2.705   3.562  11.729 -1.9447  2.2730 -0.6000
  357MOL0     H47097   2.722   3.577  11.910  1.0698  3.5606  1.4828
  357MOL0     H47098   2.634   3.789  11.721 -0.5769  1.4772 -0.3498
  357MOL0     H47099   2.664   3.818  11.889 -0.8740  0.8387 -1.0816
  357MOL0     H47100   2.488   3.624  11.942 -1.3964 -0.2083 -0.3823
  357MOL0     H47101   2.467   3.605  11.765 -0.3750 -0.3514 -0.8660
  357MOL0     H47102   2.404   3.859  11.931 -0.4932  1.8736 -1.3234
  357MOL0     H47103   2.382   3.839  11.754 -2.9920 -0.1299 -0.7775
  357MOL0     H47104   2.209   3.675  11.774  2.6363 -0.7907 -0.4030
  357MOL0     H47105   2.171   3.830  11.854 -0.9952 -0.5847  1.4720
  357MOL0     H47106   3.396   3.321  11.986 -0.9138  1.1707 -0.2121
  357MOL0     H47107   3.642   3.326  11.950  1.5922 -0.1716  0.3975
  357MOL0     H47108   3.996   3.516  11.734  0.4766  0.5366 -0.4460
  357MOL0     H47109   4.230   3.564  11.692 -0.7493  0.5229 -0.8217
  357MOL0     H47110   6.235   3.885  10.861 -1.3767 -0.1352 -1.5141
  357MOL0     H47111   6.366   4.024  10.726  0.5598  0.7940 -2.3481
  357MOL0     H47112   6.473   4.443  10.593  1.4237 -2.0785 -0.5737
  357MOL0     H47113   6.571   4.645  10.464  0.6268 -0.0992  0.8576
  357MOL0     H47114   6.363   4.772  10.129 -0.0803  0.1379  1.0131
  357MOL0     H47115   6.464   4.655  10.030  1.1936  0.7830 -1.6945
  357MOL0     H47116   6.480   4.874   9.932 -4.1169  0.3572  0.4613
  357MOL0     H47117   6.549   4.935  10.103  1.8873  0.9129 -1.3360
  357MOL0     H47118   6.677   4.707   9.970  1.1559 -1.2723  3.7168
  357MOL0     H47119   6.734   4.812  10.091  2.5475 -0.8647 -1.2080
  357MOL0     H47120   6.704   4.923   9.814  0.7767  0.2606  0.1269
  357MOL0     H47121   6.757   5.010   9.960  1.4770 -0.3946  0.6777
  357MOL0     H47122   7.093   4.761   9.872  1.0837  1.2694  0.7228
  357MOL0     H47123   6.307   4.567  10.147  2.3306  1.6908  0.5763
  357MOL0     H47124   6.189   4.394  10.279  0.1626 -0.0619 -1.2078
  358MOL0     O47125   6.349   3.355   3.949 -1.1855 -0.2892  0.9031
  358MOL0     C47126   6.402   3.387   3.841  0.2719  0.2692  0.2591
  358MOL0     O47127   6.339   3.430   3.733  0.5059 -0.2271 -0.5078
  358MOL0     C47128   6.216   3.480   3.743 -0.3212  0.3252  0.4149
  358MOL0     C47129   6.157   3.551   3.852 -0.0042  0.4594 -0.3777
  358MOL0     C47130   6.031   3.612   3.842  0.0346 -0.8873  0.3864
  358MOL0     C47131   5.949   3.585   3.728 -0.7837 -0.4779  0.0101
  358MOL0     O47132   5.822   3.627   3.714  0.1370  1.0948 -0.6485
  358MOL0     C47133   5.762   3.685   3.831  0.3561 -0.2568 -0.1649
  358MOL0     C47134   5.609   3.708   3.815  0.0260 -0.5444 -0.6757
  358MOL0     C47135   5.531   3.577   3.809 -0.5614 -0.3794  0.9030
  358MOL0     C47136   5.378   3.608   3.817 -0.3174  0.8398 -0.1528
  358MOL0     C47137   5.290   3.483   3.796  0.4756 -0.0087 -0.7205
  358MOL0     C47138   5.159   3.529   3.741 -0.5584 -0.3123 -0.9785
  358MOL0     C47139   5.074   3.601   3.843  0.0293 -0.4514  0.0841
  358MOL0     C47140   4.933   3.642   3.786 -0.0765  0.3277  0.5385
  358MOL0     N47141   4.850   3.528   3.759  0.5057  0.6367 -0.1381
  358MOL0     C47142   4.811   3.492   3.632  0.3368 -0.1988  0.2300
  358MOL0     C47143   4.693   3.419   3.646 -0.1793  0.8429  0.4147
  358MOL0     C47144   4.620   3.355   3.532 -0.5971  0.3042  0.5802
  358MOL0     C47145   4.462   3.389   3.539 -0.1630  1.0273 -0.7951
  358MOL0     C47146   4.392   3.293   3.439 -0.1611  0.2295  0.2380
  358MOL0     C47147   4.234   3.319   3.438 -0.0977 -0.5118  0.5227
  358MOL0     O47148   4.168   3.239   3.339  0.3007 -0.0129 -0.3925
  358MOL0     C47149   4.039   3.205   3.370  0.3636 -0.3619  0.6599
  358MOL0     C47150   3.957   3.304   3.401 -0.0895  0.1147  0.1799
  358MOL0     C47151   3.817   3.279   3.406 -0.2206 -0.3968 -0.6640
  358MOL0     C47152   3.763   3.147   3.395  0.5823  0.2542  0.4255
  358MOL0     C47153   3.615   3.132   3.397 -0.0778 -0.0391  0.6697
  358MOL0     O47154   3.543   3.199   3.488  0.1835 -0.2925 -0.5855
  358MOL0     C47155   3.404   3.195   3.503  0.4810 -0.2830 -0.3764
  358MOL0     C47156   3.352   3.122   3.606  0.1241 -0.6751 -0.0292
  358MOL0     C47157   3.216   3.129   3.644 -0.5924 -0.4017 -0.6967
  358MOL0     C47158   3.121   3.192   3.561  0.1260 -1.2693  0.8027
  358MOL0     O47159   2.986   3.195   3.596 -0.7878 -0.0181 -0.3734
  358MOL0     C47160   2.934   3.063   3.602  0.5015  0.5069 -0.7568
  358MOL0     C47161   2.841   3.052   3.723 -0.1041  0.7556  0.2063
  358MOL0     C47162   2.777   2.913   3.743  0.8101 -0.4428 -0.4313
  358MOL0     C47163   2.694   2.900   3.875 -0.3843  0.0657 -0.1285
  358MOL0     C47164   2.616   2.764   3.870 -0.5649 -0.1764  1.2356
  358MOL0     C47165   2.557   2.712   4.004 -0.3604 -0.0402  0.1893
  358MOL0     C47166   2.426   2.775   4.044  0.1199  0.8256  0.1750
  358MOL0     C47167   2.318   2.753   3.938  0.7613  0.7264  0.9709
  358MOL0    Cl47168   2.172   2.852   3.981 -0.5124  0.3022  0.0137
  358MOL0     C47169   3.171   3.257   3.445  0.2952 -0.5618  1.2292
  358MOL0     C47170   3.308   3.257   3.419  0.0612  0.3427 -1.1996
  358MOL0     O47171   3.563   3.046   3.317  0.6720 -0.0794 -0.5009
  358MOL0     C47172   3.854   3.049   3.367  0.1211 -0.9025  0.4595
  358MOL0     C47173   3.989   3.073   3.346 -0.4097  0.8278  0.1171
  358MOL0     N47174   4.659   3.425   3.776 -0.7182  0.2326  0.4248
  358MOL0     N47175   4.746   3.490   3.843 -0.6968  0.2796 -0.4519
  358MOL0     C47176   6.003   3.511   3.626 -0.0545 -1.1304  0.2778
  358MOL0     C47177   6.131   3.464   3.635 -0.2519 -0.7036  0.4644
  358MOL0     C47178   6.547   3.377   3.821  0.2865 -0.3861 -0.3876
  358MOL0     C47179   6.617   3.392   3.699 -0.6977 -0.1001 -0.4873
  358MOL0     C47180   6.754   3.372   3.698 -0.3411  0.8069 -0.6664
  358MOL0     C47181   6.836   3.321   3.801  0.2074  0.0486 -0.6780
  358MOL0     O47182   6.975   3.312   3.782 -0.1767  0.3507 -0.1177
  358MOL0     C47183   7.056   3.295   3.895 -0.5004 -0.1608 -0.3029
  358MOL0     C47184   7.207   3.275   3.859  0.0344  0.1159  0.6349
  358MOL0     C47185   7.301   3.273   3.986 -0.8375 -0.3992 -0.0205
  358MOL0     C47186   7.440   3.234   3.954 -0.5306 -0.1980  0.7159
  358MOL0     C47187   7.534   3.263   4.062 -0.1840 -0.4977  0.2882
  358MOL0     C47188   7.614   3.279   4.154 -0.0699 -0.5139  0.1975
  358MOL0     C47189   6.764   3.300   3.924  0.3753  0.2500 -0.8761
  358MOL0     C47190   6.626   3.331   3.935  0.2101  0.5220 -0.0172
  358MOL0     H47191   6.212   3.561   3.945 -3.0275  0.1513  1.6069
  358MOL0     H47192   6.008   3.681   3.923  4.7008  2.7873 -0.8964
  358MOL0     H47193   5.813   3.780   3.846  1.0342 -0.6278 -0.0644
  358MOL0     H47194   5.784   3.628   3.922  0.3979  1.6717  1.0847
  358MOL0     H47195   5.591   3.764   3.723  3.6019  2.0369 -0.0238
  358MOL0     H47196   5.580   3.764   3.904  2.9328 -0.3858  0.2667
  358MOL0     H47197   5.561   3.510   3.890 -0.8917 -1.1042  0.4466
  358MOL0     H47198   5.550   3.522   3.716 -1.7370 -0.0386  0.4392
  358MOL0     H47199   5.353   3.649   3.916 -0.5322 -1.2291  0.7050
  358MOL0     H47200   5.358   3.693   3.752  0.7662  2.0700  1.0646
  358MOL0     H47201   5.272   3.439   3.895  1.8873 -0.9409 -0.8525
  358MOL0     H47202   5.334   3.408   3.730  0.2901 -0.5412 -0.2473
  358MOL0     H47203   5.114   3.434   3.710 -3.0380 -0.3431  2.1909
  358MOL0     H47204   5.180   3.593   3.655  1.6604  0.1750 -0.1449
  358MOL0     H47205   5.065   3.542   3.934  1.5494  0.5574  0.9396
  358MOL0     H47206   5.119   3.698   3.867 -0.1097 -0.3521 -0.0534
  358MOL0     H47207   4.960   3.705   3.702  0.4593 -1.0367 -0.3554
  358MOL0     H47208   4.874   3.710   3.848  0.1319  1.0524 -0.0570
  358MOL0     H47209   4.863   3.524   3.542  0.9052  0.4578  0.7829
  358MOL0     H47210   4.632   3.246   3.527  1.2030  0.4689  0.7717
  358MOL0     H47211   4.654   3.391   3.435 -3.0784  1.1194 -0.0616
  358MOL0     H47212   4.438   3.494   3.521 -1.5723  1.6624  3.5608
  358MOL0     H47213   4.423   3.355   3.636 -0.4974  2.8312 -0.2578
  358MOL0     H47214   4.442   3.306   3.343  1.6595 -1.3241  0.9089
  358MOL0     H47215   4.414   3.189   3.467  0.3302  0.1860 -0.2965
  358MOL0     H47216   4.215   3.422   3.409  3.2638  0.1008  0.1006
  358MOL0     H47217   4.197   3.294   3.537 -0.8276  1.8133  0.8890
  358MOL0     H47218   3.993   3.405   3.414  0.1623  0.1382 -0.6647
  358MOL0     H47219   3.760   3.369   3.425  1.3707  0.9468 -1.9661
  358MOL0     H47220   3.412   3.084   3.689  2.3847  2.0958 -0.2311
  358MOL0     H47221   3.185   3.079   3.735 -0.2608  0.2355 -0.2247
  358MOL0     H47222   3.017   2.992   3.604  0.8309  0.7707 -2.7693
  358MOL0     H47223   2.873   3.041   3.514 -1.9405  2.1996  0.3829
  358MOL0     H47224   2.752   3.116   3.716 -2.8207 -2.1345  4.2051
  358MOL0     H47225   2.895   3.068   3.816 -0.4446  3.4117  0.0250
  358MOL0     H47226   2.851   2.832   3.746  0.9124 -0.3962 -1.3086
  358MOL0     H47227   2.704   2.896   3.663  1.2404  0.2784 -0.9977
  358MOL0     H47228   2.757   2.898   3.964  1.3255  0.3259 -1.2826
  358MOL0     H47229   2.619   2.980   3.876  0.6346  1.0830 -1.7169
  358MOL0     H47230   2.695   2.694   3.842 -0.2470  1.7020 -3.5127
  358MOL0     H47231   2.542   2.762   3.789  0.0428 -1.3421  0.6722
  358MOL0     H47232   2.636   2.722   4.080 -1.9200 -1.4881  2.1332
  358MOL0     H47233   2.542   2.604   3.994  0.1195 -0.1353  0.4499
  358MOL0     H47234   2.394   2.750   4.146  2.0476  1.1482  0.8977
  358MOL0     H47235   2.433   2.884   4.039  0.1542  0.9487  2.2066
  358MOL0     H47236   2.292   2.647   3.933 -1.1075  1.1683  0.1757
  358MOL0     H47237   2.355   2.781   3.839  1.5664  0.7008  1.2623
  358MOL0     H47238   3.113   3.321   3.378  1.1181  0.7414  1.7158
  358MOL0     H47239   3.355   3.315   3.340 -0.1776  2.7370  0.3220
  358MOL0     H47240   3.820   2.947   3.353  0.0896 -1.0845  1.7418
  358MOL0     H47241   4.045   2.986   3.313 -2.6192 -0.0501 -1.5980
  358MOL0     H47242   5.937   3.478   3.546 -0.1182 -2.5118  0.8586
  358MOL0     H47243   6.162   3.410   3.546 -0.1615  0.1666 -0.0414
  358MOL0     H47244   6.573   3.415   3.602 -1.2688  2.1953  0.2587
  358MOL0     H47245   6.809   3.380   3.604 -1.3535 -2.4841 -1.6677
  358MOL0     H47246   7.031   3.208   3.956  3.8390 -2.2046 -1.0552
  358MOL0     H47247   7.043   3.386   3.953 -1.4330 -0.8840  0.6663
  358MOL0     H47248   7.205   3.178   3.810 -2.8110 -0.0953  0.9703
  358MOL0     H47249   7.230   3.354   3.787 -0.7038  0.3606  0.6540
  358MOL0     H47250   7.262   3.210   4.066  1.8884 -1.3855  0.6590
  358MOL0     H47251   7.302   3.377   4.019  1.6994 -0.6909  1.0587
  358MOL0     H47252   7.447   3.127   3.933  3.2993  0.3934 -2.0750
  358MOL0     H47253   7.472   3.287   3.864 -1.4672 -0.8555 -0.0297
  358MOL0     H47254   7.697   3.291   4.220  0.3267 -1.8071 -0.0366
  358MOL0     H47255   6.813   3.244   4.003 -1.6358  0.6685  0.7554
  358MOL0     H47256   6.582   3.331   4.035 -0.5028 -1.6132 -0.2906
  359MOL0     O47257   2.699   6.023   7.720 -0.1854 -0.0443 -0.3374
  359MOL0     C47258   2.692   6.013   7.841  0.5378  0.6346 -0.8934
  359MOL0     O47259   2.583   6.047   7.917 -0.2893  0.1182  0.4941
  359MOL0     C47260   2.473   6.107   7.855 -0.0290  0.1859  0.0835
  359MOL0     C47261   2.386   6.028   7.770 -0.3379  0.0413 -1.1956
  359MOL0     C47262   2.275   6.081   7.711 -0.3992 -0.1629  0.2039
  359MOL0     C47263   2.250   6.213   7.722  0.6916 -0.1106  0.5432
  359MOL0     O47264   2.150   6.279   7.663 -0.1143 -0.1037  0.2103
  359MOL0     C47265   2.130   6.252   7.522 -0.2029 -0.2135  0.9099
  359MOL0     C47266   2.070   6.371   7.442  0.1122 -0.0790  0.3551
  359MOL0     C47267   1.930   6.415   7.499  0.5670  0.2986  0.8813
  359MOL0     C47268   1.932   6.491   7.631 -0.4464  0.7613 -0.4170
  359MOL0     C47269   1.793   6.553   7.651 -0.0299 -0.7414  0.3797
  359MOL0     C47270   1.763   6.575   7.804 -0.7231  0.6984  0.8753
  359MOL0     C47271   1.625   6.635   7.823 -1.5548 -0.5528  0.1662
  359MOL0     C47272   1.514   6.534   7.807  0.3286 -0.9287 -0.1124
  359MOL0     N47273   1.381   6.600   7.824  0.2806 -0.2733 -1.5191
  359MOL0     C47274   1.265   6.548   7.779  0.3520  0.2225 -0.1420
  359MOL0     C47275   1.164   6.619   7.829 -0.5681 -0.2124  0.0489
  359MOL0     C47276   1.018   6.595   7.796 -0.2940  0.0082 -0.2152
  359MOL0     C47277   0.923   6.637   7.907 -0.2601 -0.1657 -0.1536
  359MOL0     C47278   0.783   6.615   7.849 -0.0519  0.0730  0.0713
  359MOL0     C47279   0.677   6.636   7.942  0.1321  0.1364 -0.2375
  359MOL0     O47280   0.672   6.776   7.953 -0.3216  0.4970 -0.0526
  359MOL0     C47281   0.561   6.822   8.010  0.7086  0.4049  0.3169
  359MOL0     C47282   0.547   6.963   8.017 -0.5704 -0.5245  0.0537
  359MOL0     C47283   0.428   7.019   8.067  0.1351  0.9725  0.0300
  359MOL0     C47284   0.319   6.933   8.100  0.6851  0.1660  0.4379
  359MOL0     C47285   0.195   6.994   8.134 -0.0487 -0.5680  0.2976
  359MOL0     O47286   0.113   6.916   8.218  0.1481  0.2357  0.0473
  359MOL0     C47287  -0.026   6.943   8.233 -0.1733  0.2194  0.4711
  359MOL0     C47288  -0.106   6.982   8.122  0.2006 -0.5678 -0.0495
  359MOL0     C47289  -0.241   7.016   8.139 -0.2546 -0.8733  0.3425
  359MOL0     C47290  -0.303   6.993   8.260  0.2497 -0.2576 -0.2621
  359MOL0     O47291  -0.432   7.021   8.284  1.0175  0.7799  0.3382
  359MOL0     C47292  -0.527   7.021   8.171  0.4069 -0.9998  0.8105
  359MOL0     C47293  -0.666   7.063   8.228  0.4454  0.3955  0.4171
  359MOL0     C47294  -0.723   6.949   8.323 -0.8691 -1.4621 -0.3239
  359MOL0     C47295  -0.789   6.840   8.250  0.3646 -0.4211  0.9135
  359MOL0     C47296  -0.882   6.771   8.344  0.4204  0.0485  0.3657
  359MOL0     C47297  -0.945   6.644   8.273 -0.5700 -0.3750  0.6874
  359MOL0     C47298  -0.847   6.535   8.210  0.0146  0.2916 -0.8770
  359MOL0     C47299  -0.803   6.548   8.066  0.0162 -0.7343 -0.0280
  359MOL0    Cl47300  -0.727   6.405   7.997 -0.3454  0.3189 -0.4527
  359MOL0     C47301  -0.232   6.941   8.369 -0.0278  1.1258 -0.3998
  359MOL0     C47302  -0.095   6.927   8.359 -0.1425  1.1267  0.6182
  359MOL0     O47303   0.169   7.104   8.088  0.3962 -0.1152 -0.0914
  359MOL0     C47304   0.341   6.793   8.102 -0.0258 -0.0936  0.2615
  359MOL0     C47305   0.456   6.743   8.061  0.1797  0.2852 -0.8456
  359MOL0     N47306   1.224   6.715   7.904  0.2265  0.6233  0.0705
  359MOL0     N47307   1.354   6.710   7.904 -0.7128 -0.6967  0.4589
  359MOL0     C47308   2.325   6.284   7.819 -0.0375 -0.8172  0.1744
  359MOL0     C47309   2.426   6.232   7.894 -0.5011 -0.0209 -0.7220
  359MOL0     C47310   2.816   5.960   7.895 -0.1491 -0.6468  0.3783
  359MOL0     C47311   2.944   5.968   7.830  0.3961  0.3034 -0.4538
  359MOL0     C47312   3.051   5.888   7.875  0.6948 -0.3563 -0.9151
  359MOL0     C47313   3.041   5.807   7.994  0.0583 -0.3130 -0.5645
  359MOL0     O47314   3.142   5.722   8.028  0.2434 -0.3745  0.0392
  359MOL0     C47315   3.209   5.739   8.159  0.3421  0.5624  0.5454
  359MOL0     C47316   3.331   5.827   8.167  0.0312 -0.2984  0.3136
  359MOL0     C47317   3.400   5.827   8.297  0.2347 -0.3433  0.9221
  359MOL0     C47318   3.493   5.699   8.301  0.0321 -0.2159  0.1790
  359MOL0     C47319   3.583   5.721   8.416 -0.3489  0.8810 -1.0361
  359MOL0     C47320   3.659   5.737   8.511 -0.0652  0.6300  1.0010
  359MOL0     C47321   2.911   5.804   8.053 -1.0460 -0.2157 -0.0644
  359MOL0     C47322   2.807   5.884   8.011  0.3967  0.2167  0.8484
  359MOL0     H47323   2.404   5.923   7.746 -0.6761  0.3294 -2.8534
  359MOL0     H47324   2.204   6.018   7.659 -2.2209  0.0917  2.2372
  359MOL0     H47325   2.074   6.159   7.512  1.6154 -1.4522  1.8271
  359MOL0     H47326   2.230   6.230   7.485 -0.1318  1.7366 -0.2598
  359MOL0     H47327   2.055   6.330   7.341  0.8950 -2.1168  1.0297
  359MOL0     H47328   2.140   6.455   7.441  3.6310 -2.7553 -0.2432
  359MOL0     H47329   1.871   6.323   7.498  1.5498 -0.3674  1.9515
  359MOL0     H47330   1.885   6.476   7.420 -1.8163 -5.7217 -3.1352
  359MOL0     H47331   1.950   6.420   7.713  1.0655 -1.3236 -2.4392
  359MOL0     H47332   2.010   6.568   7.634 -1.0548  1.5947 -3.0759
  359MOL0     H47333   1.720   6.483   7.608 -2.1293  1.1610  0.6438
  359MOL0     H47334   1.789   6.648   7.597 -1.4588 -0.9097  0.1453
  359MOL0     H47335   1.843   6.639   7.841  0.0450 -0.6847  1.7039
  359MOL0     H47336   1.759   6.489   7.871 -2.3479  0.1678  0.1612
  359MOL0     H47337   1.614   6.667   7.927 -1.6501 -0.2966  0.0770
  359MOL0     H47338   1.615   6.733   7.775  0.7716 -0.6595 -0.6398
  359MOL0     H47339   1.532   6.444   7.867 -0.7613 -2.0910 -1.4779
  359MOL0     H47340   1.519   6.499   7.704  3.4755  0.7888 -0.6648
  359MOL0     H47341   1.248   6.472   7.702 -1.7641  1.6101 -1.1615
  359MOL0     H47342   0.991   6.489   7.793 -1.4771  0.3050 -0.5324
  359MOL0     H47343   1.002   6.641   7.697 -1.1100  0.1555 -0.0236
  359MOL0     H47344   0.944   6.737   7.949 -0.5495  0.4298 -1.3941
  359MOL0     H47345   0.936   6.563   7.987 -0.5174  1.5021  1.5095
  359MOL0     H47346   0.754   6.669   7.758  4.1986  0.3596 -1.3426
  359MOL0     H47347   0.774   6.509   7.821  1.7390  0.0471 -0.5215
  359MOL0     H47348   0.698   6.577   8.032 -0.9516 -2.7972 -1.7451
  359MOL0     H47349   0.588   6.599   7.891 -1.6896  0.2243  2.6597
  359MOL0     H47350   0.625   7.030   7.983 -2.2861  1.9749  0.7669
  359MOL0     H47351   0.427   7.127   8.067  2.0216  1.0589 -1.8157
  359MOL0     H47352  -0.064   6.983   8.022 -0.5646  0.3315 -0.3707
  359MOL0     H47353  -0.295   7.047   8.050  0.3523 -0.8023 -0.0067
  359MOL0     H47354  -0.523   6.939   8.099  1.0428  0.0551 -0.4095
  359MOL0     H47355  -0.490   7.108   8.116  0.5289 -1.1510  0.6535
  359MOL0     H47356  -0.733   7.085   8.144  0.3177 -0.6636  0.2268
  359MOL0     H47357  -0.662   7.151   8.293 -3.8492 -1.0346  3.0474
  359MOL0     H47358  -0.782   6.996   8.402  2.2050  0.8004  0.8228
  359MOL0     H47359  -0.645   6.893   8.375  0.4660 -0.1654 -0.8459
  359MOL0     H47360  -0.854   6.888   8.175  0.0631  1.9356  2.5541
  359MOL0     H47361  -0.716   6.775   8.202 -1.1280 -1.0882 -0.5351
  359MOL0     H47362  -0.966   6.840   8.362  0.5708  0.2853  0.1679
  359MOL0     H47363  -0.832   6.738   8.435  2.7365 -1.0219 -1.2120
  359MOL0     H47364  -1.004   6.685   8.190  0.8760 -0.8629 -0.6316
  359MOL0     H47365  -1.010   6.601   8.349  1.5332 -0.4175  2.5390
  359MOL0     H47366  -0.758   6.515   8.272 -1.1480 -0.6014  0.5795
  359MOL0     H47367  -0.899   6.439   8.222 -0.2256  0.3177 -1.6947
  359MOL0     H47368  -0.733   6.628   8.042  0.4309 -0.5676  1.6299
  359MOL0     H47369  -0.893   6.576   8.010  0.7034  1.9809  0.0900
  359MOL0     H47370  -0.281   6.931   8.466 -0.3404  0.8757 -0.5812
  359MOL0     H47371  -0.032   6.906   8.444 -0.0537 -0.0071  0.2820
  359MOL0     H47372   0.263   6.727   8.140 -2.1209  1.9025 -0.2828
  359MOL0     H47373   0.455   6.635   8.046  1.4813  0.2522 -0.7473
  359MOL0     H47374   2.292   6.386   7.837  1.5644 -0.7098  3.0218
  359MOL0     H47375   2.485   6.283   7.970  2.8171 -0.4671 -2.8138
  359MOL0     H47376   2.941   6.021   7.736 -0.7545  2.4538  0.7212
  359MOL0     H47377   3.147   5.880   7.824  1.2856 -1.6074  0.3072
  359MOL0     H47378   3.258   5.642   8.169  1.1922  0.8987 -0.2530
  359MOL0     H47379   3.139   5.757   8.242  1.6682 -1.1554  2.1318
  359MOL0     H47380   3.398   5.792   8.087 -0.1560 -1.8681  0.8003
  359MOL0     H47381   3.302   5.928   8.136 -0.9167 -0.5735  0.2810
  359MOL0     H47382   3.345   5.855   8.388 -1.1904  0.6760 -0.2055
  359MOL0     H47383   3.476   5.903   8.281  0.7242 -1.3459 -2.1868
  359MOL0     H47384   3.436   5.607   8.318  0.4576 -0.3969  0.6657
  359MOL0     H47385   3.557   5.690   8.213  0.5689 -0.2223  0.5650
  359MOL0     H47386   3.726   5.740   8.595  0.8417  0.0367  0.3050
  359MOL0     H47387   2.901   5.743   8.143 -0.0668  0.4369  0.5069
  359MOL0     H47388   2.717   5.882   8.072  0.9437 -2.1224  1.6649
  360MOL0     O47389   9.887   4.796   2.419 -0.4956 -0.6752 -0.8051
  360MOL0     C47390   9.828   4.905   2.441 -0.5001  0.6020  0.2998
  360MOL0     O47391   9.873   5.007   2.525 -0.1266 -0.2885  0.2310
  360MOL0     C47392   9.996   5.003   2.597 -0.0730  0.1003 -0.0696
  360MOL0     C47393  10.046   5.131   2.625  0.0205  0.3268 -0.8329
  360MOL0     C47394  10.162   5.149   2.697 -0.1939 -0.1148  0.8366
  360MOL0     C47395  10.237   5.038   2.726 -1.1741 -0.8883 -0.3839
  360MOL0     O47396  10.358   5.044   2.805  0.2536  0.2598  0.1779
  360MOL0     C47397  10.462   5.137   2.751  1.0216 -0.1937 -0.5314
  360MOL0     C47398  10.576   5.116   2.848  0.3039 -0.0626  0.5326
  360MOL0     C47399  10.686   5.229   2.833 -0.4432 -0.1502 -0.2864
  360MOL0     C47400  10.774   5.221   2.705  0.6705  0.3198 -0.1317
  360MOL0     C47401  10.924   5.217   2.717  0.7727 -1.4826  0.7647
  360MOL0     C47402  10.977   5.354   2.768 -0.0771 -0.3344  0.3396
  360MOL0     C47403  11.121   5.363   2.764  0.2935 -0.4857 -0.0664
  360MOL0     C47404  11.180   5.503   2.795  0.0485 -0.1573 -0.0965
  360MOL0     N47405  11.319   5.517   2.758  0.1588 -0.4434  0.3413
  360MOL0     C47406  11.416   5.458   2.832 -0.3151  0.1666 -0.2395
  360MOL0     C47407  11.526   5.474   2.773 -1.1190 -0.1187  0.1298
  360MOL0     C47408  11.675   5.440   2.817  0.1460 -1.3640  0.0755
  360MOL0     C47409  11.697   5.294   2.847  0.9542 -0.0702 -0.0079
  360MOL0     C47410  11.618   5.202   2.754 -0.0166 -0.4376  0.0058
  360MOL0     C47411  11.677   5.062   2.760 -0.6320 -0.7687  1.0597
  360MOL0     O47412  11.605   4.978   2.668 -0.0769  0.1229 -1.4524
  360MOL0     C47413  11.477   4.959   2.714  0.5322  0.5607 -0.6675
  360MOL0     C47414  11.388   4.940   2.615  0.0791  0.2281  0.4294
  360MOL0     C47415  11.257   4.909   2.640 -0.2119 -0.2471 -0.1164
  360MOL0     C47416  11.217   4.891   2.776 -0.1460 -0.2830  1.3120
  360MOL0     C47417  11.082   4.840   2.821 -0.2968  0.6816  0.9329
  360MOL0     O47418  11.047   4.858   2.949  0.6852  1.0176  0.3394
  360MOL0     C47419  10.921   4.820   2.981 -0.2507 -0.1219 -0.2286
  360MOL0     C47420  10.890   4.679   2.999 -0.2129 -0.0881  0.3187
  360MOL0     C47421  10.764   4.648   3.047  0.6972 -0.2351 -0.4441
  360MOL0     C47422  10.666   4.745   3.082 -0.4438 -0.5050  0.0029
  360MOL0     O47423  10.540   4.711   3.126 -0.4879  0.2973  0.1436
  360MOL0     C47424  10.443   4.750   3.033  0.1584  0.4661 -0.2657
  360MOL0     C47425  10.320   4.697   3.099  0.0709  0.3939  0.6310
  360MOL0     C47426  10.195   4.717   3.017 -0.2267  0.3956 -1.2111
  360MOL0     C47427  10.079   4.667   3.107  0.0212  0.3512 -0.0470
  360MOL0     C47428   9.945   4.634   3.030  0.1664  0.0028  0.4837
  360MOL0     C47429   9.899   4.760   2.942  0.2850  0.0815  0.5720
  360MOL0     C47430   9.767   4.725   2.880  0.0638 -0.5485 -0.3474
  360MOL0     C47431   9.657   4.763   2.973  1.1026 -0.1053 -0.4185
  360MOL0    Cl47432   9.627   4.944   2.970  0.0023  0.2517 -0.1510
  360MOL0     C47433  10.699   4.878   3.074  0.6475 -0.1703  0.4906
  360MOL0     C47434  10.822   4.918   3.012  0.1862 -0.1627 -0.5322
  360MOL0     O47435  11.011   4.793   2.729  0.3274  0.0297  0.6632
  360MOL0     C47436  11.308   4.907   2.876 -0.2094  0.7012  0.1137
  360MOL0     C47437  11.429   4.959   2.846 -0.6366 -0.8183 -0.2023
  360MOL0     N47438  11.500   5.546   2.656 -0.6070 -0.7973  0.3485
  360MOL0     N47439  11.374   5.582   2.650 -0.3769  0.6587 -0.1554
  360MOL0     C47440  10.200   4.912   2.693 -0.2632 -0.0472  0.3448
  360MOL0     C47441  10.074   4.893   2.631 -0.2769  1.0800 -0.1702
  360MOL0     C47442   9.710   4.923   2.360  0.9434  0.5044 -0.4817
  360MOL0     C47443   9.603   5.001   2.415  1.1864  0.0232  0.3476
  360MOL0     C47444   9.495   5.030   2.338  0.3184 -0.0998  0.2593
  360MOL0     C47445   9.463   4.984   2.210 -0.1531 -0.8412  0.5183
  360MOL0     O47446   9.343   5.017   2.162 -0.1943  0.4650 -0.8633
  360MOL0     C47447   9.305   4.951   2.041  0.5541 -0.3989  0.0948
  360MOL0     C47448   9.159   4.979   2.011 -1.4631 -0.3993 -0.0586
  360MOL0     C47449   9.119   5.126   2.019  0.9008  0.2458  0.2816
  360MOL0     C47450   8.978   5.150   1.964 -0.0074 -0.5176 -0.4096
  360MOL0     C47451   8.986   5.185   1.818 -0.1031 -0.3210 -0.5255
  360MOL0     C47452   8.978   5.213   1.702  0.6091  0.8621 -0.1193
  360MOL0     C47453   9.568   4.907   2.152  0.2890 -0.1389  0.6392
  360MOL0     C47454   9.684   4.878   2.227 -0.0540 -0.1385 -0.2335
  360MOL0     H47455   9.984   5.215   2.597  0.1422  1.1216  1.1163
  360MOL0     H47456  10.176   5.250   2.736  1.2034 -0.6827  1.8861
  360MOL0     H47457  10.423   5.239   2.755  2.2465  0.2755  0.1521
  360MOL0     H47458  10.500   5.119   2.649  1.8700 -0.5789 -0.1587
  360MOL0     H47459  10.614   5.017   2.819 -3.2942 -0.9556 -1.8591
  360MOL0     H47460  10.546   5.101   2.952  2.2913 -0.5790  1.0729
  360MOL0     H47461  10.752   5.230   2.920 -3.1707 -1.4484  1.9523
  360MOL0     H47462  10.634   5.325   2.835 -1.3412 -0.6150 -0.5231
  360MOL0     H47463  10.750   5.122   2.664  2.9872  0.3601 -1.7764
  360MOL0     H47464  10.744   5.296   2.632  0.4313  0.6500  0.3002
  360MOL0     H47465  10.973   5.190   2.623  0.8376  2.0670 -0.3739
  360MOL0     H47466  10.952   5.141   2.790  0.5692 -1.3399  0.9920
  360MOL0     H47467  10.946   5.359   2.872 -0.2391 -1.7313  0.3776
  360MOL0     H47468  10.936   5.436   2.708  1.8433  1.4954  1.4242
  360MOL0     H47469  11.165   5.289   2.831  2.1085  1.5594  1.1122
  360MOL0     H47470  11.149   5.344   2.660 -1.3845  2.6457 -1.2191
  360MOL0     H47471  11.174   5.520   2.903  1.4262 -0.1723 -0.0072
  360MOL0     H47472  11.129   5.581   2.738 -0.1303  0.0657  0.3611
  360MOL0     H47473  11.411   5.435   2.938  2.1735  2.3525  0.4540
  360MOL0     H47474  11.711   5.501   2.900 -0.0129  0.3602 -1.0716
  360MOL0     H47475  11.748   5.479   2.745 -0.6536  0.3167  0.1478
  360MOL0     H47476  11.671   5.276   2.952 -3.0214  1.6845 -0.4944
  360MOL0     H47477  11.803   5.267   2.837  0.2990 -3.8385  1.3605
  360MOL0     H47478  11.511   5.206   2.775  0.1441  0.4349  0.7012
  360MOL0     H47479  11.641   5.250   2.658  0.5402  0.0677  0.3868
  360MOL0     H47480  11.682   5.028   2.864  1.0782  1.7844  1.9199
  360MOL0     H47481  11.780   5.061   2.724 -1.5190 -0.3919 -1.6835
  360MOL0     H47482  11.413   4.933   2.510 -4.5230  0.9909 -0.9252
  360MOL0     H47483  11.192   4.886   2.556 -1.6833 -0.6203  1.0730
  360MOL0     H47484  10.970   4.614   2.965  0.2568  1.3919 -1.5909
  360MOL0     H47485  10.734   4.543   3.044  1.2535 -0.3786 -1.6544
  360MOL0     H47486  10.450   4.699   2.937 -1.0529  0.0580 -0.1536
  360MOL0     H47487  10.445   4.859   3.027  0.4794  0.4877  0.1869
  360MOL0     H47488  10.317   4.747   3.196  1.4755 -0.4329  1.1263
  360MOL0     H47489  10.322   4.588   3.108 -1.1067  0.2619 -0.3959
  360MOL0     H47490  10.223   4.669   2.922  2.4640 -0.6730  0.0067
  360MOL0     H47491  10.174   4.819   2.986  4.2562  1.3914 -1.5992
  360MOL0     H47492  10.108   4.577   3.162  0.6864 -0.3705 -1.5184
  360MOL0     H47493  10.057   4.747   3.178 -0.4034  0.6362 -0.4926
  360MOL0     H47494   9.865   4.603   3.098  2.1632 -2.3799  1.9341
  360MOL0     H47495   9.962   4.563   2.949 -0.2477  2.9091 -2.3607
  360MOL0     H47496   9.968   4.764   2.857 -1.7847  0.4960 -1.1800
  360MOL0     H47497   9.904   4.854   2.998  0.4935 -0.8897  2.2475
  360MOL0     H47498   9.755   4.775   2.784  3.3201 -1.4997 -1.3866
  360MOL0     H47499   9.760   4.620   2.852  3.0893 -0.5940 -1.2593
  360MOL0     H47500   9.671   4.734   3.077  0.0354 -0.4423 -0.3581
  360MOL0     H47501   9.561   4.724   2.938 -1.7145  3.8331  2.0896
  360MOL0     H47502  10.627   4.948   3.113 -0.1535 -1.1759  0.8493
  360MOL0     H47503  10.843   5.024   3.001  1.9651 -0.4472 -0.2146
  360MOL0     H47504  11.288   4.900   2.982  1.8121 -0.2690  0.4811
  360MOL0     H47505  11.505   4.975   2.923  0.3247 -0.8397 -1.1221
  360MOL0     H47506  10.258   4.821   2.706 -2.7476 -1.9406 -1.0244
  360MOL0     H47507  10.055   4.791   2.597  2.5471  0.7941 -1.1356
  360MOL0     H47508   9.613   5.024   2.521 -0.5602  0.7288  0.3800
  360MOL0     H47509   9.422   5.091   2.391  1.3948  0.8774  0.6592
  360MOL0     H47510   9.319   4.843   2.039  0.4198 -0.5416 -4.6010
  360MOL0     H47511   9.367   4.990   1.960 -1.0352 -2.7756 -2.4398
  360MOL0     H47512   9.140   4.937   1.912 -0.4447  0.1438 -0.4996
  360MOL0     H47513   9.088   4.922   2.072 -2.4856  0.4543 -0.4121
  360MOL0     H47514   9.200   5.183   1.972  0.8352  0.2888  0.2217
  360MOL0     H47515   9.116   5.162   2.122 -0.8331  0.8959  0.0365
  360MOL0     H47516   8.912   5.066   1.988  2.0229 -2.2708 -0.6536
  360MOL0     H47517   8.942   5.234   2.024  1.0448  0.1384 -0.6615
  360MOL0     H47518   8.982   5.248   1.601 -1.4959  2.4996  0.3006
  360MOL0     H47519   9.566   4.856   2.056  2.9228  0.0461  0.4076
  360MOL0     H47520   9.763   4.815   2.187  1.9628  0.1493  2.9115
  361MOL0     O47521   2.884   7.504   1.862  0.1445  0.0640  0.1537
  361MOL0     C47522   2.860   7.581   1.772 -0.1543 -0.1849 -0.0630
  361MOL0     O47523   2.742   7.638   1.744 -0.1726  0.2601 -0.0984
  361MOL0     C47524   2.631   7.619   1.819  0.0721 -0.1746  0.9300
  361MOL0     C47525   2.575   7.493   1.840  0.3451  0.1801 -0.9366
  361MOL0     C47526   2.446   7.473   1.894  0.5222 -0.0830 -0.4950
  361MOL0     C47527   2.376   7.593   1.929  0.4169  0.8861 -0.1777
  361MOL0     O47528   2.244   7.592   1.961 -0.1023 -0.7783  0.0379
  361MOL0     C47529   2.188   7.475   2.019  0.2253  0.3011 -1.0085
  361MOL0     C47530   2.040   7.491   2.071 -0.0589 -0.6303  0.1652
  361MOL0     C47531   2.036   7.547   2.208 -0.4046  0.0287  0.0877
  361MOL0     C47532   1.895   7.602   2.245 -0.4169 -0.2083  0.1988
  361MOL0     C47533   1.898   7.697   2.368 -0.2917 -0.3874  0.0081
  361MOL0     C47534   1.923   7.623   2.500  0.7224 -0.2781  0.7282
  361MOL0     C47535   1.918   7.720   2.624 -0.0132  0.1244 -0.4450
  361MOL0     C47536   1.831   7.672   2.745  0.2490  0.7220  0.4713
  361MOL0     N47537   1.904   7.560   2.816 -0.7955 -0.3004  0.2924
  361MOL0     C47538   1.886   7.427   2.790  0.4786  0.7683  0.1247
  361MOL0     C47539   1.981   7.375   2.864 -0.3242  0.0305  0.2336
  361MOL0     C47540   1.993   7.230   2.889 -0.4766 -0.8899  0.4583
  361MOL0     C47541   1.981   7.149   2.754 -0.0122 -0.0102  0.0866
  361MOL0     C47542   1.986   6.997   2.763 -0.6182 -0.5626  0.7472
  361MOL0     C47543   2.012   6.939   2.622  0.0242 -0.2595  0.0591
  361MOL0     O47544   2.022   6.798   2.614 -0.6992  0.2212 -0.0319
  361MOL0     C47545   1.897   6.734   2.632 -0.1407 -0.5816  0.2509
  361MOL0     C47546   1.918   6.604   2.671  1.3740 -0.4773  1.4413
  361MOL0     C47547   1.804   6.527   2.685  0.1590 -0.1914  0.5678
  361MOL0     C47548   1.674   6.578   2.672 -0.4297  0.2845  0.2580
  361MOL0     C47549   1.550   6.496   2.693 -0.6374  0.1051  0.5545
  361MOL0     O47550   1.437   6.551   2.655  0.3628  0.4832  0.1295
  361MOL0     C47551   1.327   6.476   2.668  0.1003  0.6200 -0.3777
  361MOL0     C47552   1.289   6.413   2.790  0.2934  0.4364  0.1865
  361MOL0     C47553   1.168   6.334   2.792 -1.5847  0.6409 -0.3731
  361MOL0     C47554   1.085   6.324   2.688 -0.4300  0.0944  0.0035
  361MOL0     O47555   0.978   6.245   2.709 -0.4341  0.5927 -0.2787
  361MOL0     C47556   0.849   6.265   2.632 -0.1972  0.3562 -0.7123
  361MOL0     C47557   0.750   6.192   2.717  0.2740  0.3502  0.0334
  361MOL0     C47558   0.611   6.232   2.673  1.0523 -0.1371 -0.4076
  361MOL0     C47559   0.490   6.179   2.750 -1.3252  0.1383 -0.8594
  361MOL0     C47560   0.363   6.249   2.710 -0.1497 -0.7176  0.5689
  361MOL0     C47561   0.262   6.189   2.802  0.6975  1.2336 -0.1124
  361MOL0     C47562   0.127   6.266   2.788 -0.8084  0.1147 -0.6021
  361MOL0     C47563   0.005   6.208   2.855 -0.8319  0.1734 -0.0210
  361MOL0    Cl47564  -0.139   6.297   2.805 -0.5015 -0.4102  0.3292
  361MOL0     C47565   1.122   6.391   2.571 -0.0822  0.0420  0.1235
  361MOL0     C47566   1.239   6.464   2.557 -0.2792  0.1188 -0.0212
  361MOL0     O47567   1.565   6.378   2.729 -0.1018  0.0812  0.9681
  361MOL0     C47568   1.659   6.704   2.621  0.2660  0.4954 -0.3913
  361MOL0     C47569   1.767   6.789   2.614 -0.3272 -0.0854 -0.1682
  361MOL0     N47570   2.055   7.469   2.922 -0.4861 -0.2854  0.6889
  361MOL0     N47571   2.006   7.584   2.902 -0.6622 -0.2391 -0.6539
  361MOL0     C47572   2.429   7.720   1.900  0.1065 -0.1427  0.4905
  361MOL0     C47573   2.554   7.734   1.845 -0.4507 -0.6232  0.2306
  361MOL0     C47574   2.983   7.642   1.709 -0.3366 -0.7837  0.8196
  361MOL0     C47575   3.110   7.614   1.761  0.4629 -0.5155 -0.2791
  361MOL0     C47576   3.222   7.669   1.702 -0.2050  0.4441  0.2873
  361MOL0     C47577   3.218   7.748   1.586  0.0079  0.1847  0.1627
  361MOL0     O47578   3.330   7.815   1.533  0.1938  0.4406 -0.3680
  361MOL0     C47579   3.446   7.792   1.596 -0.7998 -0.3674 -0.0248
  361MOL0     C47580   3.553   7.866   1.516 -0.1367  0.0121 -0.3561
  361MOL0     C47581   3.687   7.835   1.580 -0.6483 -0.1144  0.4331
  361MOL0     C47582   3.807   7.866   1.490 -0.3784 -0.6231  0.8394
  361MOL0     C47583   3.814   7.786   1.371  0.5601 -0.2545  0.1879
  361MOL0     C47584   3.820   7.717   1.266  0.2607  0.9367 -0.7214
  361MOL0     C47585   3.097   7.772   1.533  0.2107 -0.4526 -0.1943
  361MOL0     C47586   2.980   7.724   1.599 -0.0924  0.6057  0.2571
  361MOL0     H47587   2.635   7.405   1.820  1.7354  0.0871  2.9390
  361MOL0     H47588   2.415   7.369   1.900  1.7037 -0.4974 -1.3828
  361MOL0     H47589   2.259   7.444   2.096  2.5007  1.9526 -2.2892
  361MOL0     H47590   2.179   7.402   1.938 -1.6353 -1.9053  1.0551
  361MOL0     H47591   2.000   7.389   2.075  0.5829 -0.8878  4.4532
  361MOL0     H47592   1.983   7.547   1.997  2.2030  2.8986  0.8506
  361MOL0     H47593   2.112   7.626   2.213  0.5321 -0.7138 -1.6255
  361MOL0     H47594   2.069   7.471   2.280  0.1606 -1.6965 -1.8911
  361MOL0     H47595   1.849   7.657   2.162  0.4286 -0.0438 -0.1718
  361MOL0     H47596   1.829   7.517   2.261  0.2260 -0.8664 -0.5626
  361MOL0     H47597   1.805   7.752   2.383 -1.2486 -1.5644 -1.3268
  361MOL0     H47598   1.974   7.773   2.346  0.0007 -1.2124 -2.0818
  361MOL0     H47599   2.024   7.584   2.494  0.9065  0.2489  0.3165
  361MOL0     H47600   1.860   7.535   2.512  1.6873 -0.7040  3.3036
  361MOL0     H47601   2.021   7.745   2.654  0.1506 -1.4184  0.3465
  361MOL0     H47602   1.874   7.816   2.595  1.3841  0.0780 -3.0249
  361MOL0     H47603   1.735   7.631   2.712  1.0421  0.6713 -1.9525
  361MOL0     H47604   1.810   7.752   2.817 -0.5946  1.2371 -0.3359
  361MOL0     H47605   1.806   7.370   2.743 -0.1950  0.7861  1.2056
  361MOL0     H47606   1.917   7.209   2.964 -1.5963  0.0734 -0.3697
  361MOL0     H47607   2.090   7.212   2.936 -1.0730 -1.6622  1.4349
  361MOL0     H47608   2.056   7.191   2.686 -0.7745  1.6943  0.2530
  361MOL0     H47609   1.890   7.172   2.699  1.2814  1.2288 -1.6858
  361MOL0     H47610   2.059   6.961   2.837 -2.9470 -1.8838  2.5514
  361MOL0     H47611   1.890   6.953   2.792 -0.3857 -1.4397  0.1941
  361MOL0     H47612   2.110   6.980   2.595 -0.6559  1.7551  0.4890
  361MOL0     H47613   1.944   6.975   2.545  4.1604  2.2136 -2.7994
  361MOL0     H47614   2.019   6.565   2.678  1.4068 -1.3920 -1.9945
  361MOL0     H47615   1.810   6.423   2.716 -1.0259 -1.2584 -2.4521
  361MOL0     H47616   1.351   6.431   2.877 -0.0922  2.0611  0.1535
  361MOL0     H47617   1.137   6.273   2.876 -1.2799  2.3321  1.0393
  361MOL0     H47618   0.853   6.223   2.531 -0.5049  0.3167 -0.7069
  361MOL0     H47619   0.838   6.374   2.636  0.1572  0.3497  0.9964
  361MOL0     H47620   0.766   6.221   2.821  1.4966  3.4739 -0.9205
  361MOL0     H47621   0.757   6.084   2.698  1.9678 -0.0788  2.5950
  361MOL0     H47622   0.606   6.197   2.569  6.0643 -1.5003 -0.4324
  361MOL0     H47623   0.601   6.341   2.670 -0.4477 -0.2043  0.8249
  361MOL0     H47624   0.483   6.074   2.718  0.3983 -0.9063  1.7763
  361MOL0     H47625   0.509   6.197   2.857 -0.3842 -0.4687 -0.9061
  361MOL0     H47626   0.324   6.239   2.608 -3.0945  0.9579  1.4156
  361MOL0     H47627   0.372   6.355   2.735  0.8225 -0.7676  0.4859
  361MOL0     H47628   0.298   6.180   2.904 -0.2369 -1.2834  0.0833
  361MOL0     H47629   0.253   6.084   2.772  0.3583  1.0655  0.5755
  361MOL0     H47630   0.144   6.367   2.826  0.6954 -0.5713  0.6758
  361MOL0     H47631   0.115   6.275   2.680  0.5197  0.2160 -0.7573
  361MOL0     H47632   0.037   6.208   2.959  1.6161  3.7339 -0.6041
  361MOL0     H47633  -0.024   6.105   2.830 -2.7269  0.9414 -1.2393
  361MOL0     H47634   1.059   6.382   2.483 -1.0072 -1.1562  0.8814
  361MOL0     H47635   1.255   6.524   2.467  3.6015  3.3836  2.4756
  361MOL0     H47636   1.560   6.744   2.599 -1.4546 -0.6477  4.0322
  361MOL0     H47637   1.752   6.895   2.594  2.3259  0.8265  1.9947
  361MOL0     H47638   2.364   7.805   1.917  0.2848  0.2113 -0.5435
  361MOL0     H47639   2.575   7.836   1.818  1.4395 -1.0214  0.0524
  361MOL0     H47640   3.119   7.554   1.851 -0.0126 -2.8519 -1.6912
  361MOL0     H47641   3.319   7.650   1.748  1.3208  3.7749 -1.1307
  361MOL0     H47642   3.469   7.685   1.598  1.6906  0.0903  1.7930
  361MOL0     H47643   3.441   7.829   1.699  1.5353 -0.3049  0.1199
  361MOL0     H47644   3.540   7.829   1.414  0.3675  1.1851 -0.8587
  361MOL0     H47645   3.544   7.975   1.521 -0.4161 -0.0505  0.7976
  361MOL0     H47646   3.693   7.727   1.598 -0.5831  0.0652  1.5664
  361MOL0     H47647   3.698   7.883   1.678 -1.2175  0.7427  0.0930
  361MOL0     H47648   3.814   7.972   1.464  0.2892 -0.0172  3.2027
  361MOL0     H47649   3.898   7.849   1.549  0.3133 -0.5059 -0.1763
  361MOL0     H47650   3.825   7.642   1.190  4.7257  0.1448  0.0414
  361MOL0     H47651   3.083   7.823   1.439 -1.8794 -1.2447 -0.3685
  361MOL0     H47652   2.882   7.747   1.559 -0.5793  2.6877  2.3846
  362MOL0     O47653   6.179   2.344   5.531 -0.3394  0.7894  1.1741
  362MOL0     C47654   6.242   2.357   5.425  1.0918 -0.0139 -0.3316
  362MOL0     O47655   6.190   2.423   5.310 -0.1714  0.4716 -0.1287
  362MOL0     C47656   6.059   2.467   5.323 -0.2356  0.4729  0.2413
  362MOL0     C47657   6.032   2.593   5.372 -1.2687  0.5369 -0.2025
  362MOL0     C47658   5.907   2.644   5.365 -0.3302 -0.2109 -0.6391
  362MOL0     C47659   5.798   2.570   5.324 -0.0276 -0.2912 -0.1173
  362MOL0     O47660   5.676   2.637   5.343 -0.5179 -0.3471  0.3685
  362MOL0     C47661   5.560   2.562   5.300  0.4532 -0.0773 -0.5093
  362MOL0     C47662   5.443   2.615   5.379 -0.4706 -0.4763 -0.2220
  362MOL0     C47663   5.311   2.543   5.374  0.0117  0.3875  0.3830
  362MOL0     C47664   5.205   2.599   5.470  1.1788  0.8733  1.0574
  362MOL0     C47665   5.087   2.503   5.483 -0.3197  0.3794  0.0201
  362MOL0     C47666   5.003   2.499   5.357  0.6610 -0.0740 -0.1272
  362MOL0     C47667   4.863   2.432   5.374  1.4207 -0.6519  0.0152
  362MOL0     C47668   4.751   2.528   5.433  0.4586  0.8562  0.5892
  362MOL0     N47669   4.631   2.446   5.476  0.6538 -0.0079 -0.1835
  362MOL0     C47670   4.505   2.506   5.500 -1.0259  0.4207 -1.0687
  362MOL0     C47671   4.417   2.408   5.538 -0.3813 -1.1966  0.2239
  362MOL0     C47672   4.274   2.415   5.583 -0.0532 -0.6031  1.2500
  362MOL0     C47673   4.209   2.282   5.614 -0.4105 -0.0456  0.2950
  362MOL0     C47674   4.254   2.224   5.749  0.1145 -0.8158  0.6893
  362MOL0     C47675   4.187   2.093   5.782 -0.2612 -0.1378  0.3668
  362MOL0     O47676   4.040   2.113   5.772 -0.8517  0.6643  0.1665
  362MOL0     C47677   3.975   2.025   5.699 -0.0194  0.5183 -0.2845
  362MOL0     C47678   3.933   1.911   5.759 -0.0937  0.9807  0.4151
  362MOL0     C47679   3.867   1.816   5.686  0.6208  0.2889 -0.1438
  362MOL0     C47680   3.864   1.828   5.547 -0.4677  1.0034 -0.1017
  362MOL0     C47681   3.811   1.719   5.470  0.9524  0.7409 -0.2309
  362MOL0     O47682   3.758   1.617   5.542 -0.7308 -0.8163  0.5193
  362MOL0     C47683   3.704   1.512   5.472  0.1367 -1.1001 -0.5142
  362MOL0     C47684   3.570   1.483   5.471 -0.0154  0.4177  1.0090
  362MOL0     C47685   3.510   1.382   5.397  0.2495 -0.4853  0.2862
  362MOL0     C47686   3.589   1.298   5.323 -0.3069 -0.4483  0.4683
  362MOL0     O47687   3.533   1.203   5.243 -0.3165 -0.0443  0.0037
  362MOL0     C47688   3.588   1.183   5.111  0.9109  0.6383 -0.2385
  362MOL0     C47689   3.527   1.048   5.057 -1.2830 -0.7353  0.1875
  362MOL0     C47690   3.394   1.064   4.967 -0.2003  0.1351 -0.2606
  362MOL0     C47691   3.289   1.143   5.056 -0.9294  0.3423  0.2369
  362MOL0     C47692   3.142   1.135   4.996 -0.1938  0.6989  0.0056
  362MOL0     C47693   3.045   1.236   5.064  0.5244 -1.2131 -0.3136
  362MOL0     C47694   2.899   1.229   4.988  0.0013  0.4965 -0.7109
  362MOL0     C47695   2.781   1.282   5.071 -0.1134  0.1776 -0.9679
  362MOL0    Cl47696   2.628   1.275   4.978  0.1763  0.0133 -0.2108
  362MOL0     C47697   3.729   1.310   5.338 -0.1369  0.2044  0.2774
  362MOL0     C47698   3.786   1.424   5.404  0.5071 -0.5193  0.2877
  362MOL0     O47699   3.800   1.730   5.343 -0.3676  0.2967  0.2714
  362MOL0     C47700   3.916   1.941   5.478 -0.0916 -0.5013 -0.5708
  362MOL0     C47701   3.966   2.051   5.558  0.1866  0.3617  0.4579
  362MOL0     N47702   4.488   2.295   5.531  0.0307 -0.2962 -0.0509
  362MOL0     N47703   4.608   2.312   5.497 -0.8334  0.0637 -0.4960
  362MOL0     C47704   5.819   2.439   5.259  0.3539 -0.0988  0.1753
  362MOL0     C47705   5.950   2.390   5.259 -0.0343  0.3800 -0.5421
  362MOL0     C47706   6.382   2.306   5.413  0.3891  0.2448 -1.0699
  362MOL0     C47707   6.446   2.303   5.291 -0.3129  0.3188 -0.0046
  362MOL0     C47708   6.582   2.264   5.290  0.7521  0.2676  0.3395
  362MOL0     C47709   6.648   2.228   5.404  0.1787  0.3253 -0.9408
  362MOL0     O47710   6.778   2.174   5.408  0.0853  0.1714  0.4627
  362MOL0     C47711   6.831   2.131   5.281 -0.2079 -0.0161 -0.7731
  362MOL0     C47712   6.941   2.027   5.321 -0.0262 -1.0972 -1.2351
  362MOL0     C47713   6.888   1.904   5.398  0.1546  0.8973 -0.2374
  362MOL0     C47714   6.978   1.788   5.372 -0.1496  0.4015 -0.2939
  362MOL0     C47715   6.955   1.685   5.465 -0.2547  0.3297 -0.8567
  362MOL0     C47716   6.936   1.589   5.543 -0.3298  0.2979  0.2357
  362MOL0     C47717   6.586   2.228   5.527 -0.3260  0.7668 -0.1847
  362MOL0     C47718   6.456   2.268   5.535  0.6328  0.2697 -0.2562
  362MOL0     H47719   6.114   2.658   5.403  0.6740 -1.7256 -0.3446
  362MOL0     H47720   5.894   2.747   5.397 -0.2314 -0.2906 -0.3427
  362MOL0     H47721   5.573   2.456   5.325 -0.6203  0.3886  2.3638
  362MOL0     H47722   5.538   2.550   5.193  2.7554 -0.6688 -0.9668
  362MOL0     H47723   5.428   2.719   5.350 -2.2564 -0.5537  0.3205
  362MOL0     H47724   5.467   2.618   5.486  1.1824 -0.3298 -0.5688
  362MOL0     H47725   5.322   2.438   5.403 -1.3161 -0.6548 -2.5563
  362MOL0     H47726   5.274   2.556   5.272 -1.6266 -0.7693  0.7900
  362MOL0     H47727   5.243   2.611   5.572  0.2068 -1.2946  1.7120
  362MOL0     H47728   5.171   2.692   5.422 -0.8403  0.2693  1.2725
  362MOL0     H47729   5.021   2.529   5.566 -0.2898 -1.2773  0.6120
  362MOL0     H47730   5.123   2.402   5.504 -0.8338  0.1526 -0.1594
  362MOL0     H47731   5.052   2.433   5.285 -3.1075 -2.2505 -0.9956
  362MOL0     H47732   4.993   2.601   5.320  0.7573  0.7902  2.0858
  362MOL0     H47733   4.821   2.409   5.275 -1.8930  2.3277  0.5219
  362MOL0     H47734   4.878   2.346   5.440  3.3115  1.2363  2.2364
  362MOL0     H47735   4.719   2.605   5.362 -0.1776  2.2385  2.2822
  362MOL0     H47736   4.797   2.579   5.518 -0.2437  0.4796  1.2086
  362MOL0     H47737   4.482   2.612   5.497 -0.9025  0.5879  1.5097
  362MOL0     H47738   4.214   2.447   5.497  0.8771 -0.2811  0.7110
  362MOL0     H47739   4.267   2.485   5.667 -0.1407  0.0639  0.6995
  362MOL0     H47740   4.233   2.201   5.545 -1.2045 -0.6809  0.7448
  362MOL0     H47741   4.101   2.294   5.620 -0.1136  4.7109  0.0944
  362MOL0     H47742   4.360   2.197   5.752 -0.3164 -2.5757  3.3353
  362MOL0     H47743   4.231   2.294   5.830 -1.2220  0.7289 -0.9434
  362MOL0     H47744   4.230   2.054   5.875  3.0081  1.1656 -0.4472
  362MOL0     H47745   4.219   2.023   5.705  1.0131  0.5713  0.2237
  362MOL0     H47746   3.958   1.889   5.863  2.8407 -0.9300 -0.5863
  362MOL0     H47747   3.832   1.734   5.748  1.1089  0.3777  0.2629
  362MOL0     H47748   3.498   1.542   5.528 -0.5962  1.4897 -0.7316
  362MOL0     H47749   3.402   1.388   5.402  0.2039 -1.2764  0.2733
  362MOL0     H47750   3.697   1.191   5.110  1.3392 -2.8283  1.9080
  362MOL0     H47751   3.551   1.265   5.049 -0.0667 -0.0308 -0.5746
  362MOL0     H47752   3.519   0.976   5.139 -0.0167 -1.7146 -0.5079
  362MOL0     H47753   3.590   0.987   4.992 -2.0090 -2.2330  0.8436
  362MOL0     H47754   3.355   0.962   4.955  3.3944 -1.3845 -0.3477
  362MOL0     H47755   3.426   1.097   4.868  4.5524 -0.2410  0.9001
  362MOL0     H47756   3.274   1.095   5.153 -1.0180 -2.3700 -1.0269
  362MOL0     H47757   3.328   1.244   5.072 -1.3652  0.7575 -1.1718
  362MOL0     H47758   3.096   1.036   4.990  1.6788 -0.1764 -0.6918
  362MOL0     H47759   3.151   1.169   4.892 -2.9058  0.9016 -0.2318
  362MOL0     H47760   3.089   1.336   5.063 -1.8723 -0.0918 -0.0774
  362MOL0     H47761   3.029   1.198   5.165 -1.6483  0.6865  0.1265
  362MOL0     H47762   2.896   1.290   4.898 -2.2765  2.2592  0.4683
  362MOL0     H47763   2.882   1.126   4.955  0.0593  0.5206 -0.8199
  362MOL0     H47764   2.794   1.384   5.110 -1.7058  0.9395 -2.3223
  362MOL0     H47765   2.763   1.217   5.157 -0.1221  0.3156 -0.8655
  362MOL0     H47766   3.792   1.244   5.278  0.6176  1.0133  0.1718
  362MOL0     H47767   3.893   1.440   5.392  0.3692 -0.7400 -1.5434
  362MOL0     H47768   3.897   1.954   5.372 -1.8317  2.7890  0.0189
  362MOL0     H47769   3.984   2.135   5.492  0.1404 -1.9243 -2.7214
  362MOL0     H47770   5.734   2.386   5.217 -1.1008  0.8484  1.7753
  362MOL0     H47771   5.972   2.301   5.201  0.1026 -0.5359  0.8874
  362MOL0     H47772   6.390   2.336   5.205  0.1746  0.6313 -0.2074
  362MOL0     H47773   6.617   2.249   5.188 -3.2770 -3.7675 -0.8104
  362MOL0     H47774   6.880   2.211   5.224 -0.3071  1.2744  0.8762
  362MOL0     H47775   6.754   2.079   5.224 -0.3971 -0.5265 -0.0679
  362MOL0     H47776   7.010   1.990   5.244  1.0277 -2.9478  0.4875
  362MOL0     H47777   7.011   2.085   5.382 -1.4559  0.2067 -0.7769
  362MOL0     H47778   6.788   1.868   5.373  1.6403 -2.3497 -2.3607
  362MOL0     H47779   6.878   1.919   5.506 -0.7154 -0.2392 -0.1390
  362MOL0     H47780   6.965   1.743   5.273  2.5464 -3.2721  0.8149
  362MOL0     H47781   7.077   1.832   5.385 -0.9674  2.1269  0.4538
  362MOL0     H47782   6.939   1.502   5.606 -1.1546 -1.0762 -1.5335
  362MOL0     H47783   6.631   2.202   5.622 -2.2630  0.3296  0.6768
  362MOL0     H47784   6.408   2.265   5.632 -2.2885  0.7355 -1.5764
  363MOL0     O47785   2.022   7.954   1.391 -0.0159  0.1027 -0.2067
  363MOL0     C47786   2.089   7.905   1.479  0.2127 -0.2983 -0.3418
  363MOL0     O47787   2.039   7.854   1.593  0.1374 -0.9371 -0.6658
  363MOL0     C47788   1.908   7.824   1.610  0.1072 -0.3348 -0.7047
  363MOL0     C47789   1.849   7.828   1.734  0.8129  0.4285 -0.7812
  363MOL0     C47790   1.718   7.807   1.757  0.1976  0.1908 -0.1619
  363MOL0     C47791   1.628   7.789   1.647 -0.1438  0.3564 -0.2307
  363MOL0     O47792   1.497   7.757   1.654  0.6528 -0.5469 -0.5655
  363MOL0     C47793   1.428   7.754   1.782 -0.2633 -0.2072 -0.2791
  363MOL0     C47794   1.291   7.692   1.744  0.8610  0.5079  0.7965
  363MOL0     C47795   1.212   7.697   1.879  0.6613  0.0387 -0.2397
  363MOL0     C47796   1.071   7.638   1.880 -0.9719  0.0591  1.2435
  363MOL0     C47797   1.028   7.620   2.028  0.3250 -0.1106  0.6972
  363MOL0     C47798   0.884   7.565   2.035 -0.0115  0.4932 -0.1875
  363MOL0     C47799   0.832   7.565   2.176 -0.5755  0.2061  0.3973
  363MOL0     C47800   0.680   7.559   2.167  0.9449  0.5813  1.0529
  363MOL0     N47801   0.625   7.545   2.301 -0.2780  0.2946  0.2209
  363MOL0     C47802   0.587   7.428   2.376 -0.2547 -0.9933  0.5811
  363MOL0     C47803   0.507   7.475   2.476 -0.4015 -0.2120 -0.0755
  363MOL0     C47804   0.433   7.395   2.576  0.0594  0.1530  0.4618
  363MOL0     C47805   0.361   7.483   2.682 -0.0571 -0.3663  0.1775
  363MOL0     C47806   0.281   7.405   2.778  0.4805  0.7634 -1.1375
  363MOL0     C47807   0.252   7.485   2.910  0.7744  0.2928  0.6427
  363MOL0     O47808   0.142   7.406   2.978 -0.1535  0.0936  0.2474
  363MOL0     C47809   0.013   7.434   2.953 -0.1174  0.2155  0.1557
  363MOL0     C47810  -0.071   7.330   2.940 -0.0836  0.1731  0.3593
  363MOL0     C47811  -0.208   7.344   2.943  0.9025 -0.6907 -0.5183
  363MOL0     C47812  -0.265   7.475   2.959 -0.1900 -0.1950 -0.1545
  363MOL0     C47813  -0.411   7.486   2.952 -1.7731 -0.1229  0.0882
  363MOL0     O47814  -0.460   7.612   2.915  0.4403  0.0617 -0.6896
  363MOL0     C47815  -0.597   7.612   2.885 -0.2463  0.1294  0.0771
  363MOL0     C47816  -0.639   7.638   2.748  0.7864  0.0748  0.5257
  363MOL0     C47817  -0.773   7.646   2.718  0.4565 -0.3703  0.9514
  363MOL0     C47818  -0.860   7.622   2.820  0.6416 -1.0176  0.7765
  363MOL0     O47819  -0.994   7.636   2.791  0.0270 -0.8734  0.1883
  363MOL0     C47820  -1.061   7.524   2.744  0.1642  1.3102  1.1058
  363MOL0     C47821  -1.178   7.491   2.841  0.3937  0.5632  0.0267
  363MOL0     C47822  -1.289   7.604   2.839  0.0095 -0.0212 -0.5168
  363MOL0     C47823  -1.416   7.553   2.903  0.1302  0.2833  0.2736
  363MOL0     C47824  -1.512   7.669   2.936 -0.2972 -0.0981 -0.0369
  363MOL0     C47825  -1.489   7.718   3.080 -0.4386  0.1935  0.0429
  363MOL0     C47826  -1.538   7.863   3.098 -0.3193 -0.8430 -0.1033
  363MOL0     C47827  -1.682   7.884   3.064 -0.2088 -0.1538 -0.2111
  363MOL0    Cl47828  -1.783   7.798   3.178  0.2652  0.0174  0.5479
  363MOL0     C47829  -0.822   7.587   2.949  0.4313  0.2696  0.0722
  363MOL0     C47830  -0.692   7.597   2.985 -0.4071  0.8811 -0.3531
  363MOL0     O47831  -0.476   7.383   2.962 -0.1373 -0.4107  0.3159
  363MOL0     C47832  -0.178   7.585   2.975 -0.1835  0.3154 -0.3316
  363MOL0     C47833  -0.038   7.563   2.972 -0.1728  0.5186  0.2487
  363MOL0     N47834   0.497   7.614   2.465  0.3120 -0.3601  0.2669
  363MOL0     N47835   0.579   7.658   2.372  0.6117  0.1145 -0.8972
  363MOL0     C47836   1.684   7.788   1.523  0.8477 -1.3278  0.5149
  363MOL0     C47837   1.815   7.798   1.502 -0.5072 -0.1602 -0.4924
  363MOL0     C47838   2.233   7.891   1.463  0.4575 -0.0735  0.3268
  363MOL0     C47839   2.315   7.799   1.527 -0.7138  0.5768  0.5874
  363MOL0     C47840   2.452   7.788   1.505 -0.5602 -0.0562 -0.4039
  363MOL0     C47841   2.510   7.873   1.416  0.1181  0.9547 -0.3723
  363MOL0     O47842   2.647   7.857   1.406 -0.5237 -0.4488 -0.2691
  363MOL0     C47843   2.711   7.941   1.308  0.2562  0.2101 -0.1887
  363MOL0     C47844   2.864   7.928   1.310  1.2737  0.5791  0.0975
  363MOL0     C47845   2.933   8.003   1.201 -0.1072  0.2727 -1.2626
  363MOL0     C47846   2.900   8.151   1.203 -0.2540 -0.0936 -0.2556
  363MOL0     C47847   2.962   8.213   1.316 -0.2545  0.3618  0.0253
  363MOL0     C47848   3.020   8.258   1.417  0.0750 -0.3051  0.1408
  363MOL0     C47849   2.434   7.967   1.346  0.5258 -0.5994 -0.2662
  363MOL0     C47850   2.297   7.969   1.362  0.2001 -0.0730 -0.5538
  363MOL0     H47851   1.918   7.841   1.817  0.0456  3.6930 -0.5105
  363MOL0     H47852   1.689   7.818   1.861 -0.0914  1.7447 -0.3831
  363MOL0     H47853   1.414   7.858   1.815 -3.3196 -0.7985  0.6581
  363MOL0     H47854   1.484   7.693   1.854  1.2254  1.1303 -0.2418
  363MOL0     H47855   1.299   7.588   1.712  0.1702  0.3050  1.2472
  363MOL0     H47856   1.250   7.746   1.658 -1.5963 -2.2602  0.0264
  363MOL0     H47857   1.206   7.802   1.910  3.0705 -0.5447  2.6057
  363MOL0     H47858   1.269   7.645   1.956  1.5309 -0.7389 -1.3688
  363MOL0     H47859   1.000   7.702   1.827  0.9021  1.6341  0.5230
  363MOL0     H47860   1.082   7.540   1.833  1.1132  0.9138 -0.2188
  363MOL0     H47861   1.040   7.715   2.080  0.7542 -0.7019  1.7111
  363MOL0     H47862   1.094   7.543   2.068  1.2211 -2.1692 -4.0196
  363MOL0     H47863   0.877   7.464   1.992 -0.0190 -0.7949  2.6052
  363MOL0     H47864   0.815   7.622   1.973  1.5695  0.7904 -1.7231
  363MOL0     H47865   0.873   7.483   2.236  2.4394  0.5121 -1.0114
  363MOL0     H47866   0.848   7.662   2.224  1.3971  1.4014 -2.3664
  363MOL0     H47867   0.649   7.475   2.105 -2.8110  2.6255 -0.1572
  363MOL0     H47868   0.640   7.654   2.131 -0.1643 -0.3451 -0.2829
  363MOL0     H47869   0.609   7.329   2.338 -1.4018 -0.1239 -2.6529
  363MOL0     H47870   0.501   7.328   2.630  1.7574  2.3381  1.1600
  363MOL0     H47871   0.357   7.329   2.533 -1.0210 -1.0894  3.9304
  363MOL0     H47872   0.288   7.543   2.626 -2.3106 -2.4485  0.7113
  363MOL0     H47873   0.433   7.556   2.722  3.5590 -1.4875 -3.5999
  363MOL0     H47874   0.183   7.373   2.742  0.0208 -0.2998  0.8994
  363MOL0     H47875   0.330   7.311   2.807 -0.6841 -0.4466 -2.9453
  363MOL0     H47876   0.221   7.589   2.896  0.8467  0.1998 -0.3075
  363MOL0     H47877   0.335   7.481   2.980 -1.3084 -1.7557  3.2360
  363MOL0     H47878  -0.035   7.230   2.916 -0.7961  0.3567 -1.6281
  363MOL0     H47879  -0.269   7.257   2.919 -2.4855  1.2945  0.2012
  363MOL0     H47880  -0.581   7.644   2.656 -1.0293  0.0138 -0.6808
  363MOL0     H47881  -0.807   7.670   2.618  0.5755 -1.9941  0.4974
  363MOL0     H47882  -1.001   7.433   2.745 -2.4293 -0.5144  1.3380
  363MOL0     H47883  -1.100   7.541   2.643 -0.8905 -2.6462  0.7126
  363MOL0     H47884  -1.132   7.489   2.940  1.3819 -0.7017 -0.4394
  363MOL0     H47885  -1.219   7.392   2.819  0.3633  0.6392 -0.2592
  363MOL0     H47886  -1.320   7.625   2.736 -1.1770  2.0578  0.2225
  363MOL0     H47887  -1.254   7.698   2.883 -1.5752 -0.2229  1.3057
  363MOL0     H47888  -1.469   7.484   2.837 -0.3471  0.0824  0.8498
  363MOL0     H47889  -1.395   7.489   2.989 -1.7926  1.4422  1.6948
  363MOL0     H47890  -1.617   7.640   2.924 -0.6196 -1.7228  4.6743
  363MOL0     H47891  -1.482   7.750   2.870  2.7285  0.7356  2.1511
  363MOL0     H47892  -1.381   7.727   3.094 -0.6594  3.8699  0.5824
  363MOL0     H47893  -1.530   7.640   3.145 -2.1051  0.7083 -0.3190
  363MOL0     H47894  -1.530   7.901   3.200 -0.3248 -1.7308  0.2361
  363MOL0     H47895  -1.481   7.927   3.030 -0.8741  0.3086  0.4779
  363MOL0     H47896  -1.690   7.856   2.959 -0.2492  1.2816 -0.6188
  363MOL0     H47897  -1.696   7.993   3.069  0.2733 -0.1100  0.4082
  363MOL0     H47898  -0.898   7.570   3.024 -0.3934  2.7528 -0.0958
  363MOL0     H47899  -0.662   7.593   3.090  0.2726  2.4114 -0.4667
  363MOL0     H47900  -0.228   7.681   2.986  0.0546  0.4301 -0.2251
  363MOL0     H47901   0.036   7.640   2.990 -0.5907  0.6534  1.4805
  363MOL0     H47902   1.616   7.774   1.440 -1.2991  0.9214  1.7666
  363MOL0     H47903   1.857   7.792   1.402 -0.3654 -0.9894 -0.3881
  363MOL0     H47904   2.271   7.730   1.599 -0.7115  0.2826  0.3088
  363MOL0     H47905   2.503   7.709   1.560  3.1937  1.4274 -1.4334
  363MOL0     H47906   2.682   8.043   1.335 -2.6362 -0.6239  0.1590
  363MOL0     H47907   2.672   7.913   1.210 -1.0224 -1.4967  0.7651
  363MOL0     H47908   2.891   7.967   1.408 -1.1599 -0.0931  1.1168
  363MOL0     H47909   2.889   7.821   1.313 -0.6103  0.0891  0.1201
  363MOL0     H47910   2.917   7.974   1.097  2.9596 -2.4725 -1.1093
  363MOL0     H47911   3.041   8.004   1.220 -0.5842 -0.6471  2.2835
  363MOL0     H47912   2.945   8.200   1.116 -1.6243  0.1139 -0.8882
  363MOL0     H47913   2.794   8.177   1.194  0.1625  2.1299  0.5858
  363MOL0     H47914   3.076   8.293   1.501 -2.4593 -0.7255  2.1093
  363MOL0     H47915   2.466   8.035   1.267 -1.6956 -0.4190 -1.0868
  363MOL0     H47916   2.235   8.029   1.296  1.2821 -1.4267 -2.9449
  364MOL0     O47917  10.216   2.157   7.879 -0.4585 -0.2786  0.3281
  364MOL0     C47918  10.221   2.281   7.880 -0.2587 -0.2245 -0.1631
  364MOL0     O47919  10.125   2.357   7.934 -0.6746  0.3088  0.0707
  364MOL0     C47920   9.995   2.313   7.933  0.0404 -0.4161  0.2396
  364MOL0     C47921   9.909   2.372   8.022 -0.2808  0.0944  0.5784
  364MOL0     C47922   9.773   2.344   8.019 -0.4884 -0.0262 -0.2712
  364MOL0     C47923   9.720   2.247   7.937  0.6851 -0.0493  0.5276
  364MOL0     O47924   9.584   2.206   7.954 -0.2152 -0.3020 -0.2850
  364MOL0     C47925   9.490   2.312   7.977 -0.1255  0.0324 -0.5958
  364MOL0     C47926   9.351   2.252   7.954 -0.3550 -0.5711  0.2753
  364MOL0     C47927   9.236   2.315   8.045 -0.8193  0.1993 -0.0299
  364MOL0     C47928   9.102   2.272   7.971 -0.1460  0.4407 -0.3038
  364MOL0     C47929   8.989   2.318   8.061  1.0283 -0.4256 -0.4992
  364MOL0     C47930   8.855   2.259   8.028  0.1792  0.5824 -0.3076
  364MOL0     C47931   8.731   2.331   8.100  0.3400  0.3825 -0.3869
  364MOL0     C47932   8.608   2.239   8.084 -0.2260  0.4341 -0.3030
  364MOL0     N47933   8.486   2.302   8.134 -0.0150 -0.8248  0.2409
  364MOL0     C47934   8.445   2.304   8.267 -1.1283 -0.5230 -1.4373
  364MOL0     C47935   8.360   2.405   8.282  0.2013  0.2359 -0.0575
  364MOL0     C47936   8.287   2.457   8.406 -0.9073 -0.2304  0.4741
  364MOL0     C47937   8.132   2.484   8.384 -0.1400  0.2405 -0.4225
  364MOL0     C47938   8.042   2.357   8.372  0.0083 -0.1716 -0.6639
  364MOL0     C47939   8.062   2.273   8.254 -0.6469 -0.3731 -0.4547
  364MOL0     O47940   7.974   2.160   8.244  0.3967  0.2437  0.5883
  364MOL0     C47941   7.837   2.170   8.237 -0.7523  0.4845 -0.0524
  364MOL0     C47942   7.773   2.291   8.218 -0.0999 -0.4494  0.9556
  364MOL0     C47943   7.638   2.299   8.228 -0.0664 -0.1355  0.9324
  364MOL0     C47944   7.553   2.190   8.243  0.7478 -0.4566  0.7249
  364MOL0     C47945   7.402   2.203   8.241 -0.3722  0.6185 -0.3414
  364MOL0     O47946   7.335   2.081   8.269  0.2685  0.0611  0.3565
  364MOL0     C47947   7.201   2.091   8.290 -0.5912  0.9446  0.4332
  364MOL0     C47948   7.103   2.085   8.184  0.3891 -0.1739 -0.7583
  364MOL0     C47949   6.972   2.108   8.213 -0.4316 -0.2649 -0.2625
  364MOL0     C47950   6.925   2.119   8.339 -0.1697  0.4232 -0.2134
  364MOL0     O47951   6.790   2.138   8.364  0.1432  0.3113 -0.0766
  364MOL0     C47952   6.698   2.039   8.304 -0.7402 -1.0107 -0.0001
  364MOL0     C47953   6.589   2.115   8.227  0.0937 -0.6827  0.0467
  364MOL0     C47954   6.492   2.012   8.180  0.3245 -0.5199 -0.0378
  364MOL0     C47955   6.389   2.077   8.072  0.6285 -0.7139 -1.1324
  364MOL0     C47956   6.268   1.979   8.050  0.5666  1.1633 -0.3160
  364MOL0     C47957   6.293   1.866   7.953  0.9694 -0.3049  0.0708
  364MOL0     C47958   6.160   1.799   7.917  1.2917  0.7859  0.5863
  364MOL0     C47959   6.086   1.733   8.038  0.4505 -0.3860 -0.8412
  364MOL0    Cl47960   5.933   1.656   7.976  0.0745 -0.1090 -0.4252
  364MOL0     C47961   7.019   2.125   8.449  1.5211  0.4057 -0.7754
  364MOL0     C47962   7.160   2.114   8.422 -1.2938 -0.4795  0.5934
  364MOL0     O47963   7.343   2.314   8.235 -0.6901  0.1469  0.1099
  364MOL0     C47964   7.613   2.063   8.250 -0.3413 -0.6306  0.9662
  364MOL0     C47965   7.754   2.054   8.251  0.3608  0.7723  0.5308
  364MOL0     N47966   8.334   2.460   8.159 -0.2688  0.0207 -0.2519
  364MOL0     N47967   8.407   2.399   8.070  0.1313 -0.7170 -1.2137
  364MOL0     C47968   9.804   2.181   7.853 -0.0627 -0.0117  0.2563
  364MOL0     C47969   9.945   2.213   7.845  1.2982  0.1868  0.5872
  364MOL0     C47970  10.342   2.336   7.830  0.0221  0.1085  0.2591
  364MOL0     C47971  10.435   2.257   7.779 -0.7595  0.2227  0.0525
  364MOL0     C47972  10.547   2.313   7.710 -0.2021 -0.2653 -0.0156
  364MOL0     C47973  10.571   2.452   7.723 -0.3962  0.0713  0.3497
  364MOL0     O47974  10.688   2.525   7.701  0.0026 -0.5255  0.3817
  364MOL0     C47975  10.809   2.456   7.663  0.8596  0.4927  1.2859
  364MOL0     C47976  10.932   2.522   7.714  0.3810  0.7326  0.3897
  364MOL0     C47977  11.052   2.455   7.658 -0.6293  0.5931  0.9546
  364MOL0     C47978  11.172   2.477   7.746 -0.8443  1.0625 -0.4377
  364MOL0     C47979  11.291   2.437   7.664 -0.2976  0.0010  0.0689
  364MOL0     C47980  11.382   2.411   7.590  0.3570 -0.0265 -0.2831
  364MOL0     C47981  10.469   2.534   7.777  0.0626  0.5329 -0.4917
  364MOL0     C47982  10.355   2.475   7.828  0.2038  0.2554 -0.4088
  364MOL0     H47983   9.952   2.441   8.094  1.6070 -2.2702  1.8785
  364MOL0     H47984   9.713   2.397   8.092 -2.4094 -0.9790 -1.0975
  364MOL0     H47985   9.507   2.394   7.907  1.6949 -0.1763 -0.4471
  364MOL0     H47986   9.489   2.356   8.078 -0.5468  2.2415 -1.5128
  364MOL0     H47987   9.362   2.144   7.967  0.4417 -0.3011  2.2887
  364MOL0     H47988   9.316   2.265   7.852 -1.6737 -2.7911  0.3641
  364MOL0     H47989   9.242   2.424   8.040 -2.2148  0.2590 -1.4480
  364MOL0     H47990   9.233   2.286   8.150 -2.8376  0.5115  0.0400
  364MOL0     H47991   9.087   2.322   7.875 -0.8424 -1.1267 -1.0430
  364MOL0     H47992   9.096   2.164   7.955 -0.1131  0.6678 -1.9898
  364MOL0     H47993   8.981   2.427   8.061  0.1079 -0.4656  1.0875
  364MOL0     H47994   9.015   2.300   8.166  1.1849  0.4610 -0.3786
  364MOL0     H47995   8.860   2.153   8.058  0.4047  0.4799 -0.7028
  364MOL0     H47996   8.843   2.266   7.920  1.5176 -2.6234 -0.7872
  364MOL0     H47997   8.755   2.358   8.203 -1.6328 -1.0344  0.5136
  364MOL0     H47998   8.711   2.423   8.043 -0.2067  0.8192  0.4822
  364MOL0     H47999   8.614   2.140   8.130 -1.4597  0.3915 -0.1883
  364MOL0     H48000   8.589   2.236   7.976  3.9216 -1.5220 -1.1603
  364MOL0     H48001   8.501   2.256   8.347 -0.7538  2.0732 -0.0444
  364MOL0     H48002   8.335   2.550   8.435  2.4014 -2.0449  1.3745
  364MOL0     H48003   8.307   2.385   8.487  0.9315 -1.5278 -1.0380
  364MOL0     H48004   8.112   2.532   8.288  0.8932 -3.4283 -2.6832
  364MOL0     H48005   8.092   2.553   8.458  1.7060  0.7144  0.2009
  364MOL0     H48006   8.047   2.308   8.470 -1.5124  1.7080  0.4492
  364MOL0     H48007   7.936   2.386   8.371  0.2895  1.0802  1.0366
  364MOL0     H48008   8.161   2.230   8.268  0.4616  1.8105 -1.0514
  364MOL0     H48009   8.056   2.335   8.164  0.2229 -2.5729 -2.1245
  364MOL0     H48010   7.819   2.384   8.187 -3.0925  0.9994  0.5586
  364MOL0     H48011   7.593   2.397   8.211  1.6292  0.6075  0.5408
  364MOL0     H48012   7.133   2.064   8.082 -2.5596  1.9920 -2.2239
  364MOL0     H48013   6.899   2.109   8.133  1.3945  1.4790 -2.0301
  364MOL0     H48014   6.644   1.991   8.386 -2.1581  3.6113  2.0795
  364MOL0     H48015   6.753   1.967   8.241 -4.1962 -2.2707 -1.8320
  364MOL0     H48016   6.628   2.157   8.134 -2.5473  0.2634 -0.7414
  364MOL0     H48017   6.535   2.184   8.293  0.3686 -1.0409  0.6536
  364MOL0     H48018   6.434   1.980   8.267 -1.9850  3.8320  0.3431
  364MOL0     H48019   6.553   1.930   8.141 -0.2900 -2.6863  3.1624
  364MOL0     H48020   6.349   2.165   8.122  2.0138 -0.8370  0.2438
  364MOL0     H48021   6.438   2.104   7.978  2.2724 -2.0832 -0.7112
  364MOL0     H48022   6.189   2.038   8.001  1.2148  0.3544 -2.4532
  364MOL0     H48023   6.246   1.921   8.140  1.5793 -1.3883 -1.6228
  364MOL0     H48024   6.363   1.787   7.982  0.0262 -1.4190 -0.6011
  364MOL0     H48025   6.329   1.907   7.858  4.9290  0.6293  1.7811
  364MOL0     H48026   6.089   1.868   7.871 -0.9322 -1.1003  1.0029
  364MOL0     H48027   6.176   1.725   7.839 -3.0620 -0.6969  0.8334
  364MOL0     H48028   6.061   1.810   8.112  0.8668  1.1144 -2.1940
  364MOL0     H48029   6.151   1.661   8.088  0.8599  0.6830  0.2156
  364MOL0     H48030   6.974   2.124   8.547 -2.8046 -1.3449 -2.5138
  364MOL0     H48031   7.233   2.125   8.502 -1.2219  3.6782  0.2106
  364MOL0     H48032   7.549   1.976   8.260  0.0788 -0.9197  1.1733
  364MOL0     H48033   7.784   1.952   8.272 -1.1610  0.3486  0.7856
  364MOL0     H48034   9.759   2.108   7.786 -1.0676 -1.6653  2.5809
  364MOL0     H48035  10.010   2.169   7.770  0.5295  0.3610 -0.1809
  364MOL0     H48036  10.441   2.148   7.772  2.2066  0.2667  0.7041
  364MOL0     H48037  10.626   2.248   7.675  1.1391  1.3903 -0.1924
  364MOL0     H48038  10.813   2.442   7.555  0.8395  0.2175  1.3196
  364MOL0     H48039  10.807   2.350   7.688 -3.4321 -0.8105 -3.0332
  364MOL0     H48040  10.927   2.627   7.682 -2.7517  1.0405  1.5446
  364MOL0     H48041  10.947   2.521   7.822  0.9094  3.9040  0.4427
  364MOL0     H48042  11.073   2.496   7.559 -0.0960 -3.8496 -1.0222
  364MOL0     H48043  11.038   2.348   7.639  0.4875  0.8032 -1.2507
  364MOL0     H48044  11.184   2.580   7.783  0.1177  0.6298  0.5227
  364MOL0     H48045  11.176   2.418   7.838  2.8045  2.2929  0.3602
  364MOL0     H48046  11.465   2.407   7.522 -0.8011  0.9256 -1.8220
  364MOL0     H48047  10.482   2.640   7.793 -0.7673  0.4192  1.1126
  364MOL0     H48048  10.278   2.538   7.872 -1.3363 -3.4389  2.7406
  365MOL0     O48049   1.167   4.682   8.562 -0.6768  0.0651  0.6183
  365MOL0     C48050   1.188   4.801   8.588 -0.0271  1.0470 -0.4240
  365MOL0     O48051   1.314   4.856   8.600 -0.3803  0.2132  0.2853
  365MOL0     C48052   1.421   4.767   8.608  0.9911 -0.7216  0.8509
  365MOL0     C48053   1.523   4.755   8.509 -0.7983 -0.1936  0.5074
  365MOL0     C48054   1.618   4.647   8.522 -0.2367 -1.0061  0.3900
  365MOL0     C48055   1.615   4.557   8.636 -0.1485  0.1702 -0.5544
  365MOL0     O48056   1.705   4.460   8.656  0.1299  0.0750  0.7531
  365MOL0     C48057   1.810   4.498   8.746  0.3205  0.4674  0.2505
  365MOL0     C48058   1.853   4.375   8.819  0.3840 -0.1823  0.1879
  365MOL0     C48059   1.929   4.402   8.945  0.0858 -0.6383 -0.6134
  365MOL0     C48060   1.996   4.284   8.994  0.0782  0.7454  0.4646
  365MOL0     C48061   2.074   4.311   9.122 -0.1509 -0.4382  0.0863
  365MOL0     C48062   2.155   4.191   9.152 -0.1337 -0.0082 -1.0170
  365MOL0     C48063   2.258   4.217   9.267  0.4093 -0.5261 -0.7633
  365MOL0     C48064   2.359   4.101   9.278 -0.0224  0.3922  0.7312
  365MOL0     N48065   2.295   3.967   9.261 -0.3394 -0.7160  0.0968
  365MOL0     C48066   2.226   3.889   9.353  0.2689 -0.4987 -0.7052
  365MOL0     C48067   2.204   3.768   9.292 -0.5892 -0.4758  0.0740
  365MOL0     C48068   2.122   3.643   9.333 -0.1412  0.5180  0.3523
  365MOL0     C48069   2.008   3.674   9.427 -0.7083 -0.2764 -0.3292
  365MOL0     C48070   1.947   3.540   9.472 -0.1227  0.3312 -0.5461
  365MOL0     C48071   1.856   3.558   9.592  1.3990  0.0001 -0.8909
  365MOL0     O48072   1.755   3.647   9.565 -0.6204 -0.0256 -0.0211
  365MOL0     C48073   1.638   3.592   9.531  0.3727  0.2407 -0.4830
  365MOL0     C48074   1.527   3.674   9.577 -1.0499  0.4487 -0.2430
  365MOL0     C48075   1.400   3.629   9.570  0.9022  0.4551  0.2731
  365MOL0     C48076   1.371   3.496   9.524  0.1425  0.8760  0.1880
  365MOL0     C48077   1.244   3.437   9.521  0.8632 -0.1575 -0.6743
  365MOL0     O48078   1.156   3.479   9.621  0.5134 -0.3452 -0.4375
  365MOL0     C48079   1.049   3.396   9.647  0.4615 -0.1135  0.2350
  365MOL0     C48080   0.933   3.455   9.703  1.2260  0.2324 -0.6874
  365MOL0     C48081   0.813   3.385   9.719 -0.3121  0.5662 -0.0095
  365MOL0     C48082   0.815   3.243   9.684  0.7017 -0.0029  0.1535
  365MOL0     O48083   0.700   3.167   9.679 -0.7266  0.1200 -0.0826
  365MOL0     C48084   0.571   3.235   9.683 -0.1161 -0.1593 -1.3914
  365MOL0     C48085   0.454   3.131   9.660 -0.2084  0.5446  0.4354
  365MOL0     C48086   0.487   3.039   9.545 -0.5777 -0.1236 -0.3352
  365MOL0     C48087   0.388   2.935   9.524 -0.8128  0.7721 -0.3303
  365MOL0     C48088   0.416   2.844   9.402 -0.0323  1.1975  0.1745
  365MOL0     C48089   0.339   2.709   9.398  0.6556  0.9613  0.3189
  365MOL0     C48090   0.188   2.722   9.429 -0.5835 -0.3198  0.2395
  365MOL0     C48091   0.097   2.601   9.404 -0.5193  0.2786  0.2954
  365MOL0    Cl48092   0.175   2.468   9.491  0.2933  0.2675  0.3187
  365MOL0     C48093   0.936   3.181   9.640  0.0660 -1.1831  1.7444
  365MOL0     C48094   1.052   3.258   9.623  0.5151  0.4131  0.2061
  365MOL0     O48095   1.217   3.373   9.417  0.8515 -0.4714  0.1864
  365MOL0     C48096   1.478   3.421   9.470  0.2954  0.1514 -0.4615
  365MOL0     C48097   1.602   3.473   9.479 -0.1711 -0.5044  0.2088
  365MOL0     N48098   2.263   3.772   9.166  0.0844 -0.0262 -0.6603
  365MOL0     N48099   2.316   3.890   9.151 -0.0518  0.5233 -0.1307
  365MOL0     C48100   1.525   4.586   8.736  0.9468  0.5404  0.5012
  365MOL0     C48101   1.425   4.682   8.725  0.3449  0.2524  0.1634
  365MOL0     C48102   1.073   4.890   8.602  0.4425  0.5289 -0.4919
  365MOL0     C48103   0.942   4.855   8.565 -0.1666  1.0677 -0.1869
  365MOL0     C48104   0.842   4.933   8.604  0.0782  0.4963 -0.5422
  365MOL0     C48105   0.865   5.055   8.668  0.8960 -0.0479  0.2616
  365MOL0     O48106   0.765   5.139   8.708 -0.2171 -0.0597  0.2469
  365MOL0     C48107   0.644   5.132   8.630 -1.1697 -0.4158 -0.0188
  365MOL0     C48108   0.547   5.041   8.699  0.4364  0.6817  0.1854
  365MOL0     C48109   0.397   5.060   8.649 -0.1768 -0.0223 -0.6007
  365MOL0     C48110   0.348   4.967   8.537  0.2907 -0.1445  1.2092
  365MOL0     C48111   0.418   5.004   8.412  0.2009 -0.0422  0.5089
  365MOL0     C48112   0.466   5.044   8.308 -0.7141 -0.1848 -0.4043
  365MOL0     C48113   0.992   5.098   8.687  0.5777 -0.2060 -0.0474
  365MOL0     C48114   1.096   5.019   8.651 -0.3878 -0.2094 -0.2322
  365MOL0     H48115   1.536   4.830   8.431 -0.8011  0.4658  1.1273
  365MOL0     H48116   1.688   4.653   8.440 -0.6330  5.1316  0.0884
  365MOL0     H48117   1.774   4.570   8.819 -1.4339 -0.0182 -0.0706
  365MOL0     H48118   1.903   4.530   8.698  1.2855 -0.5771  1.3700
  365MOL0     H48119   1.920   4.323   8.749 -0.7003 -0.1712 -0.8839
  365MOL0     H48120   1.767   4.311   8.843  0.0481  0.6046  1.1122
  365MOL0     H48121   1.870   4.431   9.033  2.3596  2.5701  0.0224
  365MOL0     H48122   2.005   4.479   8.937  1.2930 -1.7184  0.0924
  365MOL0     H48123   1.928   4.199   9.005 -0.2085  0.9674  0.4021
  365MOL0     H48124   2.070   4.259   8.917  2.5887 -1.2092  3.2650
  365MOL0     H48125   2.011   4.328   9.210 -2.5660  1.9072 -1.9276
  365MOL0     H48126   2.125   4.407   9.114  0.3248 -0.6274  0.7906
  365MOL0     H48127   2.219   4.164   9.067  1.1988 -1.2012  0.3059
  365MOL0     H48128   2.090   4.106   9.171  0.8247 -1.6364 -4.3584
  365MOL0     H48129   2.315   4.307   9.244  0.2244  1.7216  5.6943
  365MOL0     H48130   2.203   4.237   9.360  1.6799  5.2609 -0.9265
  365MOL0     H48131   2.419   4.104   9.368  1.8445 -0.1503 -0.4394
  365MOL0     H48132   2.436   4.113   9.201  0.1304  0.8381  0.9522
  365MOL0     H48133   2.191   3.920   9.451  2.9609 -2.3746  0.9644
  365MOL0     H48134   2.186   3.576   9.392 -0.1776 -0.5736 -0.8102
  365MOL0     H48135   2.092   3.588   9.244 -1.2736 -0.0628  1.0666
  365MOL0     H48136   1.937   3.741   9.379 -0.4606 -1.9809 -3.2812
  365MOL0     H48137   2.046   3.731   9.512 -1.1546 -0.4851  0.0147
  365MOL0     H48138   1.905   3.477   9.393 -2.2825 -0.5623  1.1952
  365MOL0     H48139   2.033   3.478   9.498 -0.5088 -0.7826 -1.7870
  365MOL0     H48140   1.904   3.606   9.678 -0.2432 -0.0662  0.0874
  365MOL0     H48141   1.814   3.461   9.619 -0.8519  0.7446 -1.5167
  365MOL0     H48142   1.548   3.780   9.582  1.8485 -0.0587  0.3596
  365MOL0     H48143   1.317   3.694   9.595  0.1802  0.5578 -2.1073
  365MOL0     H48144   0.935   3.556   9.743 -1.2135 -1.2266  3.9177
  365MOL0     H48145   0.731   3.447   9.754 -1.9986  0.7793 -3.8931
  365MOL0     H48146   0.553   3.302   9.599 -2.9675 -1.6516 -2.1262
  365MOL0     H48147   0.559   3.281   9.782  2.5423  0.1572 -1.1484
  365MOL0     H48148   0.354   3.174   9.645 -0.3991 -0.4374 -1.3378
  365MOL0     H48149   0.444   3.063   9.745  1.8032 -0.0881  0.2168
  365MOL0     H48150   0.580   2.987   9.570 -0.1823 -0.3523 -2.1637
  365MOL0     H48151   0.505   3.092   9.451 -0.3068 -1.4539 -1.0623
  365MOL0     H48152   0.378   2.871   9.613  1.1185 -0.5671 -1.0042
  365MOL0     H48153   0.291   2.985   9.516 -0.0665  2.8983  2.4377
  365MOL0     H48154   0.522   2.816   9.403 -0.5083 -0.7559 -0.7957
  365MOL0     H48155   0.403   2.898   9.307  1.3746  0.5619 -0.4159
  365MOL0     H48156   0.377   2.655   9.486  1.7637  0.2783 -0.5466
  365MOL0     H48157   0.369   2.659   9.305  1.0966  1.1232  0.3713
  365MOL0     H48158   0.185   2.738   9.537  2.8021  1.0242  0.2523
  365MOL0     H48159   0.139   2.811   9.389  0.1684  0.6068  1.3476
  365MOL0     H48160   0.101   2.565   9.301  2.8664  0.1874  0.3473
  365MOL0     H48161  -0.009   2.609   9.430 -0.6534  4.4746 -0.8611
  365MOL0     H48162   0.927   3.076   9.613 -1.6060 -0.4038 -1.2061
  365MOL0     H48163   1.143   3.203   9.605 -0.6708 -1.9088  0.9071
  365MOL0     H48164   1.448   3.335   9.412 -0.9624  2.2873 -3.2150
  365MOL0     H48165   1.681   3.407   9.445 -0.2682 -0.3627 -0.2990
  365MOL0     H48166   1.529   4.515   8.819 -0.0968 -0.1709 -0.0345
  365MOL0     H48167   1.364   4.701   8.813 -0.7868  2.0229 -0.9234
  365MOL0     H48168   0.932   4.754   8.525  0.9906  0.4486  1.0372
  365MOL0     H48169   0.744   4.893   8.580  0.0840  0.6017 -0.7455
  365MOL0     H48170   0.654   5.104   8.525  1.1206  0.3759 -0.0794
  365MOL0     H48171   0.599   5.231   8.622  0.5986  0.3925 -0.5942
  365MOL0     H48172   0.578   4.936   8.695 -1.3432  0.1407 -0.1702
  365MOL0     H48173   0.559   5.075   8.802  2.6176  2.1039 -0.4728
  365MOL0     H48174   0.372   5.160   8.615 -0.3399 -0.2589 -1.1952
  365MOL0     H48175   0.336   5.026   8.734 -0.8306 -1.4705 -1.6011
  365MOL0     H48176   0.385   4.869   8.568  1.4073  0.3689  1.5399
  365MOL0     H48177   0.239   4.968   8.534  0.2534 -0.9462  1.8029
  365MOL0     H48178   0.509   5.088   8.221 -0.6536 -0.1500 -0.3566
  365MOL0     H48179   1.011   5.199   8.724 -1.0669 -0.2454  1.0094
  365MOL0     H48180   1.196   5.060   8.664 -0.2413 -1.1619  1.9098
  366MOL0     O48181  10.395   6.782   9.904 -0.1301 -0.2094  0.5580
  366MOL0     C48182  10.497   6.704   9.892  0.2254 -0.5050 -0.3477
  366MOL0     O48183  10.495   6.570   9.874 -0.4273 -0.3074 -0.1162
  366MOL0     C48184  10.378   6.501   9.886 -0.0847  0.1724  0.7821
  366MOL0     C48185  10.253   6.538   9.935  1.0349 -0.2329 -0.4698
  366MOL0     C48186  10.139   6.451   9.932  0.9638 -0.4204  0.1922
  366MOL0     C48187  10.159   6.320   9.890  0.0236 -0.9024  0.5089
  366MOL0     O48188  10.065   6.229   9.895 -0.4143 -0.5707  0.0508
  366MOL0     C48189   9.926   6.267   9.858  0.7478  0.3841  0.0887
  366MOL0     C48190   9.855   6.134   9.833 -0.0504 -0.4184  0.3146
  366MOL0     C48191   9.707   6.135   9.824  0.1896  0.2704  0.2615
  366MOL0     C48192   9.670   6.170   9.677 -0.5929 -0.5847 -0.3030
  366MOL0     C48193   9.525   6.113   9.659  0.9599 -0.9513 -1.4306
  366MOL0     C48194   9.456   6.153   9.532 -0.2048  1.3663  0.3977
  366MOL0     C48195   9.346   6.045   9.491  0.0640 -0.4824 -0.0640
  366MOL0     C48196   9.286   6.049   9.352 -0.0458 -0.2748  0.1919
  366MOL0     N48197   9.170   5.956   9.339  0.1305  0.2377 -0.0477
  366MOL0     C48198   9.173   5.820   9.338  0.0315  0.3234 -0.8117
  366MOL0     C48199   9.043   5.793   9.330  0.9591 -0.5613 -0.4734
  366MOL0     C48200   8.989   5.651   9.299 -0.2934  0.1264 -0.2560
  366MOL0     C48201   8.849   5.646   9.255 -0.6002  0.2889 -0.8333
  366MOL0     C48202   8.812   5.511   9.185  0.5462 -0.9030 -0.0081
  366MOL0     C48203   8.687   5.531   9.105  0.6150 -0.0270  0.4763
  366MOL0     O48204   8.652   5.407   9.045 -0.3327  0.5056  0.5218
  366MOL0     C48205   8.549   5.386   8.955 -0.0884  0.0215 -0.0908
  366MOL0     C48206   8.467   5.490   8.908  1.1288  0.2517  0.4205
  366MOL0     C48207   8.351   5.459   8.822  0.8390 -0.8100  0.0936
  366MOL0     C48208   8.340   5.328   8.777  0.5028  0.2222 -0.7990
  366MOL0     C48209   8.212   5.287   8.709  0.6513 -0.9342 -0.7972
  366MOL0     O48210   8.102   5.362   8.717 -0.0249  0.1911  0.0023
  366MOL0     C48211   7.989   5.311   8.781 -0.2145 -0.5644  1.0625
  366MOL0     C48212   7.989   5.192   8.856  0.2214  0.1309 -0.6657
  366MOL0     C48213   7.864   5.156   8.927 -1.0673  0.0318  0.3641
  366MOL0     C48214   7.754   5.238   8.925  0.3149 -0.5893 -0.1965
  366MOL0     O48215   7.639   5.195   8.992  0.3999  0.2838  0.0175
  366MOL0     C48216   7.643   5.218   9.136  0.4454 -0.0312 -0.1616
  366MOL0     C48217   7.577   5.356   9.160 -0.1656 -0.2354 -0.1696
  366MOL0     C48218   7.427   5.357   9.134  0.7718 -0.3267 -1.0535
  366MOL0     C48219   7.363   5.490   9.161  0.8591 -0.0876 -0.0229
  366MOL0     C48220   7.214   5.485   9.157 -0.2053 -0.7941 -0.0620
  366MOL0     C48221   7.151   5.622   9.178  0.5950 -0.8046 -0.3350
  366MOL0     C48222   7.131   5.639   9.331  0.0034 -0.3870 -0.3600
  366MOL0     C48223   7.080   5.781   9.360  0.0788 -1.5839 -0.4313
  366MOL0    Cl48224   6.943   5.828   9.259  0.1800 -0.0095 -0.2899
  366MOL0     C48225   7.763   5.365   8.855  0.5102 -0.0786 -0.2509
  366MOL0     C48226   7.873   5.393   8.785  0.7640 -0.4831  0.5070
  366MOL0     O48227   8.218   5.182   8.644  0.0142 -0.0581  0.0997
  366MOL0     C48228   8.441   5.231   8.804 -0.6354 -0.3550 -0.2021
  366MOL0     C48229   8.537   5.260   8.899 -0.8729  0.2405 -0.1081
  366MOL0     N48230   8.962   5.907   9.340 -0.0225  0.2951 -0.1526
  366MOL0     N48231   9.040   6.003   9.349  0.1182 -0.0923 -0.3095
  366MOL0     C48232  10.282   6.277   9.838 -0.1227  0.3063 -0.0771
  366MOL0     C48233  10.384   6.368   9.829  0.3583 -0.0470  0.2504
  366MOL0     C48234  10.632   6.767   9.897  0.0112  0.0854  0.1250
  366MOL0     C48235  10.751   6.693   9.919 -0.7974  0.2482 -0.2593
  366MOL0     C48236  10.882   6.746   9.922 -0.6043 -0.1852  0.2840
  366MOL0     C48237  10.896   6.885   9.917 -0.3507 -0.1428  1.1429
  366MOL0     O48238  11.023   6.921   9.898 -1.0553  0.1598 -0.3664
  366MOL0     C48239  11.052   7.055   9.852 -0.1247 -0.4633  0.2139
  366MOL0     C48240  11.207   7.067   9.847  0.4752  0.2327 -0.6843
  366MOL0     C48241  11.278   6.978   9.745 -0.5910  0.2360 -0.0332
  366MOL0     C48242  11.434   7.005   9.745  0.1816  0.4056 -0.6663
  366MOL0     C48243  11.488   6.958   9.622  0.0717 -0.0783 -0.0259
  366MOL0     C48244  11.522   6.923   9.510 -0.0448 -0.1857 -0.8602
  366MOL0     C48245  10.783   6.965   9.904 -0.0220  0.4326 -0.5637
  366MOL0     C48246  10.649   6.908   9.893  0.1223 -0.2683 -1.0064
  366MOL0     H48247  10.235   6.634   9.983 -3.6570 -1.3702  0.5116
  366MOL0     H48248  10.043   6.484   9.969  1.9370 -0.2337  2.7709
  366MOL0     H48249   9.907   6.329   9.770  1.2874 -1.2127 -1.2025
  366MOL0     H48250   9.858   6.306   9.934  0.6233  1.9379 -0.7857
  366MOL0     H48251   9.880   6.072   9.920  1.3453 -1.9606 -1.1140
  366MOL0     H48252   9.902   6.089   9.745 -0.0119  1.0576 -0.4645
  366MOL0     H48253   9.656   6.207   9.888 -2.6715 -0.8721 -0.5533
  366MOL0     H48254   9.661   6.037   9.840  1.7042 -0.5540 -0.1378
  366MOL0     H48255   9.681   6.276   9.649  3.5331 -1.3202 -2.2843
  366MOL0     H48256   9.739   6.117   9.610  1.3437  0.1417  1.0218
  366MOL0     H48257   9.460   6.143   9.741  1.8332 -1.6036 -0.4718
  366MOL0     H48258   9.527   6.004   9.663 -1.3430 -1.0028  1.5952
  366MOL0     H48259   9.524   6.159   9.447 -1.3982  0.5905 -0.6497
  366MOL0     H48260   9.406   6.248   9.553 -1.6071  0.1860  2.9024
  366MOL0     H48261   9.381   5.942   9.501 -1.0556 -1.2791 -3.0991
  366MOL0     H48262   9.265   6.069   9.560 -0.1911 -0.4935 -0.3523
  366MOL0     H48263   9.357   6.020   9.275  1.0628 -0.9265  1.4078
  366MOL0     H48264   9.257   6.153   9.335 -1.7263 -0.5779  0.9947
  366MOL0     H48265   9.258   5.756   9.319  1.8003  1.4882  2.3342
  366MOL0     H48266   8.982   5.581   9.383  1.4273 -3.5186 -2.9173
  366MOL0     H48267   9.051   5.609   9.219  1.3617  0.1847  0.9353
  366MOL0     H48268   8.841   5.719   9.174  1.5166  0.8525 -0.5925
  366MOL0     H48269   8.784   5.676   9.337 -0.6430 -2.8221  0.4330
  366MOL0     H48270   8.890   5.471   9.120  0.6907  1.5049 -1.4569
  366MOL0     H48271   8.799   5.439   9.266  0.7323 -0.6922  0.2131
  366MOL0     H48272   8.708   5.612   9.034  0.8352 -1.1642 -0.8001
  366MOL0     H48273   8.605   5.560   9.171 -1.7865 -1.2773 -1.7736
  366MOL0     H48274   8.476   5.589   8.952  0.6453  1.0819 -1.2702
  366MOL0     H48275   8.276   5.535   8.802  1.1538 -0.3691  0.5576
  366MOL0     H48276   8.081   5.134   8.860 -0.3118 -0.6719  1.0911
  366MOL0     H48277   7.873   5.064   8.985  3.2112  0.5997  0.9166
  366MOL0     H48278   7.739   5.221   9.188  0.2550 -3.9957  0.7305
  366MOL0     H48279   7.584   5.139   9.184 -0.3911 -0.4978 -1.8875
  366MOL0     H48280   7.629   5.441   9.114  1.0636 -0.4975  0.6884
  366MOL0     H48281   7.590   5.375   9.267 -0.6952  1.0328 -0.3180
  366MOL0     H48282   7.369   5.280   9.187  2.4374 -0.0991  1.2345
  366MOL0     H48283   7.402   5.332   9.031 -0.7266 -1.3948 -0.4730
  366MOL0     H48284   7.397   5.530   9.257 -1.6501 -0.4072  1.0850
  366MOL0     H48285   7.408   5.549   9.081 -0.4095 -1.7073 -2.0407
  366MOL0     H48286   7.182   5.414   9.234 -0.1290 -0.5149  0.2281
  366MOL0     H48287   7.187   5.443   9.059 -2.2324 -0.4528  0.2912
  366MOL0     H48288   7.053   5.625   9.128  1.4316  0.0564 -2.0143
  366MOL0     H48289   7.219   5.701   9.146  2.8818 -1.3507  2.7432
  366MOL0     H48290   7.058   5.567   9.370  0.6022 -0.4530  0.6709
  366MOL0     H48291   7.220   5.622   9.392  0.0029  1.6507  0.2606
  366MOL0     H48292   7.154   5.857   9.333 -0.8948 -0.9057 -1.2486
  366MOL0     H48293   7.047   5.791   9.464 -2.0879 -0.6718 -1.1376
  366MOL0     H48294   7.673   5.423   8.841 -0.2970 -1.3483 -0.4794
  366MOL0     H48295   7.876   5.486   8.730  1.9278 -0.8784 -0.1354
  366MOL0     H48296   8.429   5.129   8.769  2.8582 -2.1038  2.9311
  366MOL0     H48297   8.606   5.179   8.916 -0.2653  0.0667 -2.9462
  366MOL0     H48298  10.301   6.179   9.795 -2.8447  0.3736 -1.6303
  366MOL0     H48299  10.468   6.352   9.762 -0.1324 -1.2345 -0.1028
  366MOL0     H48300  10.739   6.587   9.940  0.0916  0.5944  2.3500
  366MOL0     H48301  10.969   6.683   9.928 -2.4374 -2.8842  0.1099
  366MOL0     H48302  11.023   7.137   9.919  0.4981  3.2710 -3.7057
  366MOL0     H48303  11.005   7.064   9.753 -2.5307  1.1997  1.3898
  366MOL0     H48304  11.236   7.171   9.835 -1.0919  1.0423  1.7482
  366MOL0     H48305  11.242   7.029   9.943 -1.0553  0.4663 -0.0034
  366MOL0     H48306  11.247   7.019   9.649 -1.6442  1.4351  0.8002
  366MOL0     H48307  11.255   6.871   9.748  1.2419 -0.1785  1.0413
  366MOL0     H48308  11.448   7.113   9.744 -3.5730  1.0378  0.3325
  366MOL0     H48309  11.483   6.958   9.831 -1.2173 -1.2670 -0.7201
  366MOL0     H48310  11.571   6.886   9.422 -0.8898  0.2715 -1.5435
  366MOL0     H48311  10.801   7.071   9.892  1.3276  0.4965  1.6120
  366MOL0     H48312  10.575   6.985   9.874 -2.2579 -1.4148  2.5621
  367MOL0     O48313   2.596   2.965   0.869 -0.0494  0.7801  0.4582
  367MOL0     C48314   2.622   2.848   0.880  0.7314  0.1267  0.5740
  367MOL0     O48315   2.543   2.749   0.931 -0.2916  0.2719 -0.1614
  367MOL0     C48316   2.423   2.772   0.980  0.1913 -0.0084  0.5110
  367MOL0     C48317   2.390   2.701   1.091  0.0717 -0.1737  0.3491
  367MOL0     C48318   2.265   2.708   1.147 -0.0044 -0.1727 -0.0517
  367MOL0     C48319   2.174   2.792   1.096  0.1270 -0.5830  1.1871
  367MOL0     O48320   2.044   2.812   1.140  0.2477 -0.3780 -0.2027
  367MOL0     C48321   1.997   2.751   1.264 -0.9018 -0.7139 -0.4704
  367MOL0     C48322   1.847   2.765   1.266 -0.3835 -0.3106  0.2942
  367MOL0     C48323   1.804   2.736   1.403 -0.2460  0.3951  1.1392
  367MOL0     C48324   1.657   2.762   1.417 -0.1769 -0.5380  0.1134
  367MOL0     C48325   1.583   2.703   1.548 -0.3073 -0.0736  0.4897
  367MOL0     C48326   1.433   2.733   1.537  0.0551 -0.9078  0.0485
  367MOL0     C48327   1.351   2.653   1.634 -0.4424 -1.0277 -0.2250
  367MOL0     C48328   1.337   2.512   1.590 -0.0031  0.2990 -0.1518
  367MOL0     N48329   1.251   2.431   1.684 -0.1099  1.4090  0.4773
  367MOL0     C48330   1.277   2.419   1.823  0.5203 -0.0372  0.8519
  367MOL0     C48331   1.161   2.374   1.871 -0.1523  0.3788 -0.0357
  367MOL0     C48332   1.143   2.319   2.006  0.6862  0.4254  0.0370
  367MOL0     C48333   1.193   2.403   2.123  0.6758  0.0295  0.2631
  367MOL0     C48334   1.105   2.532   2.153  0.6024  0.0368 -0.0899
  367MOL0     C48335   0.966   2.503   2.210  0.5096  0.3174 -0.3985
  367MOL0     O48336   0.958   2.391   2.299 -0.8968 -0.6784 -0.2796
  367MOL0     C48337   0.835   2.351   2.351 -0.3635 -0.6175  0.7028
  367MOL0     C48338   0.718   2.428   2.330 -0.4400 -0.6811 -0.1360
  367MOL0     C48339   0.599   2.374   2.372  0.7892 -0.9898 -0.0828
  367MOL0     C48340   0.588   2.250   2.439  0.4973  0.4253  0.1517
  367MOL0     C48341   0.456   2.200   2.476  0.0059 -0.3073  0.7915
  367MOL0     O48342   0.464   2.068   2.505  0.8606  0.3425  0.2210
  367MOL0     C48343   0.349   1.991   2.499 -0.0791 -0.1959  0.3220
  367MOL0     C48344   0.294   1.926   2.614  0.2561 -0.9753  0.1893
  367MOL0     C48345   0.181   1.841   2.613  0.1909  0.0450 -0.0922
  367MOL0     C48346   0.118   1.827   2.492 -0.0928 -0.9156  0.5196
  367MOL0     O48347   0.003   1.755   2.501 -0.2731  0.3125  0.5006
  367MOL0     C48348  -0.106   1.790   2.417  0.9789 -0.8082 -0.7073
  367MOL0     C48349  -0.226   1.767   2.496 -0.3941  0.4126 -0.5624
  367MOL0     C48350  -0.356   1.779   2.421  0.3770 -0.6100 -0.5643
  367MOL0     C48351  -0.471   1.757   2.519  0.2665  0.9485 -0.5573
  367MOL0     C48352  -0.514   1.607   2.554  0.0142  0.2765  0.3624
  367MOL0     C48353  -0.622   1.595   2.659 -0.4073 -0.3414 -0.9607
  367MOL0     C48354  -0.569   1.582   2.805 -0.4497  0.0571 -0.6313
  367MOL0     C48355  -0.606   1.707   2.893 -0.0680 -0.2070 -0.3024
  367MOL0    Cl48356  -0.471   1.752   3.009  0.4704 -0.1327 -0.4511
  367MOL0     C48357   0.169   1.889   2.377 -0.4891 -0.1669 -0.4395
  367MOL0     C48358   0.280   1.971   2.379  0.6508  0.2135  0.0141
  367MOL0     O48359   0.349   2.266   2.477 -0.0269 -0.2565 -0.1278
  367MOL0     C48360   0.708   2.184   2.477 -0.2755  0.4224  0.2602
  367MOL0     C48361   0.835   2.232   2.428  0.5129  0.2228 -0.1415
  367MOL0     N48362   1.072   2.365   1.775 -0.4921  0.4591  0.0079
  367MOL0     N48363   1.122   2.405   1.660  0.3256 -0.5005 -0.9138
  367MOL0     C48364   2.197   2.859   0.981 -0.4896  0.2933 -0.0253
  367MOL0     C48365   2.326   2.852   0.924  0.1500  0.0935  0.1514
  367MOL0     C48366   2.772   2.819   0.873  0.0632  0.1432  0.0903
  367MOL0     C48367   2.863   2.921   0.857 -0.6500 -0.0428  0.4148
  367MOL0     C48368   3.000   2.895   0.858 -0.6026  0.8017  0.0848
  367MOL0     C48369   3.049   2.765   0.873  0.3275  0.7264  0.4896
  367MOL0     O48370   3.187   2.744   0.880 -0.1228  0.0361  0.5671
  367MOL0     C48371   3.253   2.814   0.984 -0.6652 -0.2552 -0.2540
  367MOL0     C48372   3.224   2.754   1.119  0.3712 -0.1475 -0.5073
  367MOL0     C48373   3.323   2.794   1.232  0.6072 -0.3630  0.8276
  367MOL0     C48374   3.287   2.742   1.363 -0.0935 -0.0265  0.3123
  367MOL0     C48375   3.407   2.766   1.450 -0.4556 -0.2113 -0.1826
  367MOL0     C48376   3.505   2.787   1.524  0.4992  0.6880 -0.5570
  367MOL0     C48377   2.962   2.659   0.886  0.5041  0.0982 -0.6026
  367MOL0     C48378   2.820   2.691   0.899 -0.2557 -0.5352  1.1294
  367MOL0     H48379   2.475   2.636   1.113  2.2867  2.3834 -0.0560
  367MOL0     H48380   2.239   2.659   1.240 -0.8262  0.3230 -0.0074
  367MOL0     H48381   2.035   2.809   1.347 -0.5968  0.0235 -1.1156
  367MOL0     H48382   2.022   2.644   1.270  1.1679 -0.3310 -1.5761
  367MOL0     H48383   1.795   2.695   1.200 -2.4378 -1.3798  2.9014
  367MOL0     H48384   1.823   2.869   1.239 -1.3381 -0.3768  0.8579
  367MOL0     H48385   1.848   2.796   1.483 -1.1110 -0.0085  1.9347
  367MOL0     H48386   1.829   2.632   1.426  1.3309  0.4102 -0.3252
  367MOL0     H48387   1.635   2.869   1.413 -0.5020 -0.5561  1.0662
  367MOL0     H48388   1.611   2.716   1.329  1.5234  0.3475 -1.3007
  367MOL0     H48389   1.627   2.749   1.637 -0.2673  0.4807  0.1894
  367MOL0     H48390   1.603   2.596   1.546 -1.1512 -0.2379  0.5522
  367MOL0     H48391   1.395   2.713   1.437  0.5956 -0.4709 -0.2450
  367MOL0     H48392   1.420   2.839   1.561  1.5781 -0.6913 -0.0373
  367MOL0     H48393   1.406   2.653   1.728  2.4508 -1.2389 -1.8142
  367MOL0     H48394   1.247   2.686   1.625 -0.4183  0.1484  2.6793
  367MOL0     H48395   1.439   2.473   1.584  0.1357  0.0089  2.4825
  367MOL0     H48396   1.289   2.501   1.493 -1.1120  0.1838  0.3983
  367MOL0     H48397   1.378   2.429   1.860  0.9939 -0.0481 -0.4062
  367MOL0     H48398   1.173   2.214   2.013 -0.5081  0.0222 -0.6762
  367MOL0     H48399   1.034   2.322   2.017  0.3846  3.8414 -2.0689
  367MOL0     H48400   1.295   2.441   2.108 -0.0113  1.9248  0.1373
  367MOL0     H48401   1.199   2.340   2.212 -2.1059 -1.0981 -0.2645
  367MOL0     H48402   1.143   2.617   2.211 -1.8942  0.0755  1.6310
  367MOL0     H48403   1.086   2.567   2.051 -1.9109 -0.0909  0.2765
  367MOL0     H48404   0.890   2.479   2.134  1.4721 -1.8077 -0.7491
  367MOL0     H48405   0.928   2.583   2.274  0.6610 -0.3304  0.5219
  367MOL0     H48406   0.719   2.528   2.286  0.7170  0.0151  1.3769
  367MOL0     H48407   0.509   2.434   2.366  0.9408 -0.8305 -0.7821
  367MOL0     H48408   0.337   1.945   2.712 -0.7451 -1.0125  0.6530
  367MOL0     H48409   0.126   1.801   2.697 -1.5708  0.8348 -0.7988
  367MOL0     H48410  -0.112   1.720   2.333  1.7997  1.3472 -2.6775
  367MOL0     H48411  -0.097   1.894   2.386 -2.1352 -0.3051 -0.2300
  367MOL0     H48412  -0.227   1.833   2.583  2.1544 -0.2160  0.0208
  367MOL0     H48413  -0.221   1.664   2.533 -1.7823 -0.6333 -3.0360
  367MOL0     H48414  -0.358   1.728   2.325  2.5879 -0.4027 -0.7744
  367MOL0     H48415  -0.349   1.885   2.393  2.9091 -1.0520 -1.9191
  367MOL0     H48416  -0.447   1.801   2.616  3.0283 -0.7245 -0.3967
  367MOL0     H48417  -0.558   1.793   2.463  0.7747 -0.5312 -2.3585
  367MOL0     H48418  -0.427   1.550   2.588 -2.4183 -3.1285  1.5042
  367MOL0     H48419  -0.546   1.558   2.461  0.6379 -2.2921  1.4047
  367MOL0     H48420  -0.689   1.511   2.642 -2.8270  1.4079 -0.5984
  367MOL0     H48421  -0.685   1.683   2.647 -0.3816  0.1598  1.8900
  367MOL0     H48422  -0.618   1.495   2.850 -0.0313  0.1417 -0.0039
  367MOL0     H48423  -0.461   1.562   2.801 -0.4092  0.1712 -0.1021
  367MOL0     H48424  -0.704   1.691   2.938 -2.2729  0.7776 -4.2878
  367MOL0     H48425  -0.628   1.794   2.830 -1.0602  0.5939  1.1025
  367MOL0     H48426   0.120   1.877   2.281  1.0716  1.1892 -1.4458
  367MOL0     H48427   0.313   2.014   2.285  1.3477 -1.5115 -0.5772
  367MOL0     H48428   0.703   2.091   2.533  0.5557  0.7121  0.8254
  367MOL0     H48429   0.923   2.170   2.440  2.5429  3.0164  0.4912
  367MOL0     H48430   2.124   2.926   0.936 -1.1079  1.1982  2.2164
  367MOL0     H48431   2.361   2.921   0.849 -0.2942  3.2286  2.6244
  367MOL0     H48432   2.836   3.026   0.851 -0.4357  0.0261  0.6230
  367MOL0     H48433   3.069   2.978   0.852  0.8344 -0.4666 -2.6733
  367MOL0     H48434   3.238   2.921   0.965  2.7857 -0.0658 -3.0067
  367MOL0     H48435   3.360   2.802   0.965 -0.3280 -0.4317  1.6311
  367MOL0     H48436   3.121   2.784   1.143  0.4962 -0.1347  0.0282
  367MOL0     H48437   3.230   2.646   1.099  1.2345 -0.4680  1.2509
  367MOL0     H48438   3.328   2.903   1.222  3.6156 -0.5412 -0.7483
  367MOL0     H48439   3.415   2.746   1.196  0.3850  0.9613 -1.7165
  367MOL0     H48440   3.203   2.804   1.397  0.4338  2.2405 -2.1461
  367MOL0     H48441   3.264   2.637   1.341 -3.9966  0.7752 -0.1502
  367MOL0     H48442   3.601   2.788   1.572  1.2570  1.1684 -2.0279
  367MOL0     H48443   3.000   2.559   0.901 -0.9667 -0.3907  0.0763
  367MOL0     H48444   2.748   2.610   0.901  0.8261 -1.6906 -1.9549
  368MOL0     O48445   1.625   7.574  10.785 -1.3597  0.2167  0.4721
  368MOL0     C48446   1.673   7.623  10.683  0.4292 -0.3572  0.5802
  368MOL0     O48447   1.615   7.605  10.560 -0.0034 -0.4675 -0.2950
  368MOL0     C48448   1.503   7.529  10.539  0.6241 -0.3958  0.2694
  368MOL0     C48449   1.385   7.527  10.608 -0.1012 -0.6107  0.1052
  368MOL0     C48450   1.273   7.448  10.566  0.1641  0.8183 -0.2346
  368MOL0     C48451   1.283   7.366  10.449 -0.7790 -0.1005 -0.1645
  368MOL0     O48452   1.194   7.287  10.389  0.4114 -0.0843 -0.3760
  368MOL0     C48453   1.060   7.315  10.412  1.5671 -0.9852 -0.8085
  368MOL0     C48454   1.016   7.413  10.306  0.2426 -0.0522  0.1211
  368MOL0     C48455   0.896   7.369  10.228  0.0780  0.6568 -0.2410
  368MOL0     C48456   0.770   7.347  10.312  0.4214 -0.7642  0.0619
  368MOL0     C48457   0.647   7.367  10.223  0.6906  0.2171 -0.8914
  368MOL0     C48458   0.521   7.339  10.306 -0.8509  0.5446 -0.2945
  368MOL0     C48459   0.383   7.363  10.236  0.2933 -0.2128  0.3757
  368MOL0     C48460   0.263   7.346  10.326 -0.0293  0.2313 -0.1123
  368MOL0     N48461   0.136   7.406  10.275 -0.2553 -0.0289 -0.1343
  368MOL0     C48462   0.063   7.356  10.163  0.0136  0.2968 -1.0032
  368MOL0     C48463  -0.045   7.437  10.159  0.2928 -0.7961  0.0476
  368MOL0     C48464  -0.158   7.427  10.070  0.4584  0.2799  0.4413
  368MOL0     C48465  -0.291   7.390  10.148  0.0866  0.2071 -0.0601
  368MOL0     C48466  -0.420   7.388  10.068  0.1890  0.4901 -0.1309
  368MOL0     C48467  -0.522   7.294  10.134  0.5977 -0.7482 -1.0753
  368MOL0     O48468  -0.630   7.271  10.058 -0.4319  0.2348  0.4469
  368MOL0     C48469  -0.749   7.238  10.112 -0.6704  0.9439 -0.4053
  368MOL0     C48470  -0.781   7.249  10.245 -0.3183  0.6981 -0.4314
  368MOL0     C48471  -0.900   7.203  10.300  0.3506  0.6713  0.6397
  368MOL0     C48472  -1.004   7.143  10.223 -0.4924 -0.7249 -0.6196
  368MOL0     C48473  -1.135   7.099  10.281  0.2864 -0.6204 -0.3753
  368MOL0     O48474  -1.217   7.030  10.192 -0.1837 -0.7779 -0.6702
  368MOL0     C48475  -1.352   7.013  10.225 -0.2979 -0.3080 -0.3134
  368MOL0     C48476  -1.442   7.075  10.144 -0.3868 -0.1299 -0.0770
  368MOL0     C48477  -1.582   7.040  10.139  0.2389 -0.1412 -0.1833
  368MOL0     C48478  -1.636   6.974  10.251  0.6905  0.2348 -0.2156
  368MOL0     O48479  -1.772   6.950  10.267  0.2511  0.1840  0.3079
  368MOL0     C48480  -1.854   7.065  10.261  0.5968 -0.5932  0.0873
  368MOL0     C48481  -2.007   7.058  10.288 -0.2342 -0.3949  0.4669
  368MOL0     C48482  -2.043   6.963  10.405  0.1181  0.7316 -0.0706
  368MOL0     C48483  -2.192   6.956  10.420 -0.4314  0.0562  0.3333
  368MOL0     C48484  -2.228   6.909  10.560 -0.1230  0.9294  0.1998
  368MOL0     C48485  -2.374   6.909  10.584 -0.2020 -0.3396 -1.2829
  368MOL0     C48486  -2.434   7.052  10.593  0.3111 -0.7667 -0.3746
  368MOL0     C48487  -2.549   7.064  10.694 -0.2346 -0.3900 -0.0741
  368MOL0    Cl48488  -2.676   6.961  10.626  0.3452  0.3014 -0.0162
  368MOL0     C48489  -1.548   6.917  10.343  0.2323 -0.2983  0.0888
  368MOL0     C48490  -1.407   6.942  10.335  0.2205  0.3828 -0.0648
  368MOL0     O48491  -1.165   7.136  10.397  0.3297  0.4949  0.0582
  368MOL0     C48492  -0.970   7.131  10.083 -0.3812  0.2797  0.5146
  368MOL0     C48493  -0.847   7.189  10.027  0.2574 -0.3857 -0.3512
  368MOL0     N48494  -0.036   7.536  10.256 -0.0053  0.0970 -0.1754
  368MOL0     N48495   0.073   7.517  10.327 -0.4127  0.3955 -0.1412
  368MOL0     C48496   1.400   7.366  10.385 -0.3491 -0.7241 -0.4123
  368MOL0     C48497   1.513   7.442  10.422  0.2534  0.3608 -0.4602
  368MOL0     C48498   1.803   7.696  10.686 -0.7132 -0.0081 -0.2771
  368MOL0     C48499   1.895   7.657  10.787 -0.2585  0.3688  0.0389
  368MOL0     C48500   2.033   7.693  10.783  0.3738 -0.2307 -0.2346
  368MOL0     C48501   2.074   7.780  10.684 -0.4915 -0.7701  0.3163
  368MOL0     O48502   2.206   7.823  10.664  0.0624  0.0468  0.5728
  368MOL0     C48503   2.303   7.806  10.775  0.1271  0.4742  1.5022
  368MOL0     C48504   2.414   7.909  10.756  0.9348  0.8502  0.1742
  368MOL0     C48505   2.522   7.889  10.864 -0.0061  0.5606 -0.1308
  368MOL0     C48506   2.606   8.014  10.851  0.7351 -0.3101  0.6230
  368MOL0     C48507   2.665   8.039  10.980 -0.0962 -0.4045 -0.0872
  368MOL0     C48508   2.724   8.069  11.084  0.7299  0.3256  0.4018
  368MOL0     C48509   1.989   7.817  10.580 -0.3125  0.6575 -0.6015
  368MOL0     C48510   1.855   7.767  10.580 -0.4093 -0.6421  0.4748
  368MOL0     H48511   1.379   7.593  10.694 -0.1655 -1.1389  0.5134
  368MOL0     H48512   1.176   7.450  10.614  0.2791 -1.4493  0.2208
  368MOL0     H48513   1.029   7.359  10.507  0.5593  1.3387 -2.1118
  368MOL0     H48514   1.012   7.218  10.395 -2.3627  0.3478  1.4791
  368MOL0     H48515   1.099   7.416  10.236  1.0562  2.2442  1.0841
  368MOL0     H48516   1.011   7.512  10.352 -1.0854 -0.3482  0.6924
  368MOL0     H48517   0.928   7.273  10.184  1.2383  0.9838 -0.1445
  368MOL0     H48518   0.859   7.435  10.149 -4.0431  0.1725  1.0652
  368MOL0     H48519   0.771   7.245  10.353  0.6728 -1.8212 -2.3908
  368MOL0     H48520   0.761   7.415  10.397  1.8205  1.5710 -1.5443
  368MOL0     H48521   0.635   7.300  10.137  1.9650 -1.7032  0.3352
  368MOL0     H48522   0.643   7.467  10.180  2.9709 -0.3439 -2.5990
  368MOL0     H48523   0.519   7.411  10.389 -1.8333 -0.0946  0.2535
  368MOL0     H48524   0.523   7.238  10.348 -2.4550  0.9858  0.9374
  368MOL0     H48525   0.379   7.468  10.204 -1.7722  0.7077  3.2099
  368MOL0     H48526   0.385   7.304  10.144  2.0172  0.7914 -0.2835
  368MOL0     H48527   0.288   7.389  10.423  1.0443 -1.2366  0.3003
  368MOL0     H48528   0.260   7.237  10.338  2.0887  0.1273 -0.0752
  368MOL0     H48529   0.074   7.261  10.112  0.5368 -1.6228  2.3737
  368MOL0     H48530  -0.146   7.345   9.999 -0.3920  0.9027 -0.4320
  368MOL0     H48531  -0.162   7.522  10.017 -0.9414 -0.5904 -1.0737
  368MOL0     H48532  -0.312   7.455  10.233 -0.5037  1.4413 -1.1151
  368MOL0     H48533  -0.275   7.290  10.188  0.2763 -0.8043 -2.4647
  368MOL0     H48534  -0.472   7.484  10.057 -1.6087 -0.4028  0.2081
  368MOL0     H48535  -0.412   7.358   9.963 -0.0590  0.2019 -0.0687
  368MOL0     H48536  -0.541   7.336  10.234 -2.7017  1.3559 -2.4224
  368MOL0     H48537  -0.473   7.196  10.140  0.3657 -0.7836  2.3349
  368MOL0     H48538  -0.710   7.289  10.317  1.0222 -1.0893 -0.6842
  368MOL0     H48539  -0.899   7.214  10.408  5.1554 -0.2804  0.8954
  368MOL0     H48540  -1.405   7.134  10.061  0.7922  0.1827  0.6504
  368MOL0     H48541  -1.648   7.081  10.063 -0.2141  1.4229  0.9849
  368MOL0     H48542  -1.844   7.111  10.163  0.2518 -0.4131  0.1366
  368MOL0     H48543  -1.813   7.138  10.331  2.7660 -0.9906 -0.6922
  368MOL0     H48544  -2.058   7.022  10.198  0.1787  1.5800 -0.6126
  368MOL0     H48545  -2.046   7.159  10.305  1.2057  0.8256 -2.6928
  368MOL0     H48546  -1.991   7.002  10.493  0.6514 -1.1246  0.4736
  368MOL0     H48547  -2.004   6.862  10.389 -2.1428 -0.2338  0.1508
  368MOL0     H48548  -2.238   7.055  10.410 -1.5725 -0.2259  2.2867
  368MOL0     H48549  -2.234   6.898  10.338  1.5251  0.6554 -1.1808
  368MOL0     H48550  -2.186   6.976  10.636  0.4023 -0.6594  1.3629
  368MOL0     H48551  -2.183   6.810  10.566 -2.0500  0.1079  2.8028
  368MOL0     H48552  -2.390   6.862  10.682  2.4537  1.6700  0.2497
  368MOL0     H48553  -2.426   6.850  10.508 -1.3520 -0.4049 -0.4795
  368MOL0     H48554  -2.361   7.127  10.622 -0.8291  0.6969 -1.1424
  368MOL0     H48555  -2.462   7.067  10.488 -0.0784  0.1667 -0.1428
  368MOL0     H48556  -2.567   7.171  10.708 -0.1286 -0.7015  3.0995
  368MOL0     H48557  -2.525   7.023  10.793  2.4978  1.1624 -0.0146
  368MOL0     H48558  -1.585   6.856  10.425  0.1439  0.2943  0.4981
  368MOL0     H48559  -1.342   6.899  10.411 -0.3760  0.4765  0.5042
  368MOL0     H48560  -1.038   7.090  10.009 -0.6753 -2.5882  2.2034
  368MOL0     H48561  -0.837   7.163   9.922  0.8792 -2.1501  0.1093
  368MOL0     H48562   1.410   7.312  10.291  1.8264  1.9525 -1.8875
  368MOL0     H48563   1.605   7.452  10.365  0.2758  1.4690 -0.2610
  368MOL0     H48564   1.883   7.586  10.868  2.7982 -1.7689 -1.1624
  368MOL0     H48565   2.101   7.672  10.865  0.4462  0.7172 -0.0441
  368MOL0     H48566   2.344   7.706  10.791  0.5345  0.7033  1.9203
  368MOL0     H48567   2.255   7.824  10.871  1.7686  1.2143  2.2306
  368MOL0     H48568   2.454   7.901  10.654 -0.9030  3.5337 -0.8691
  368MOL0     H48569   2.363   8.006  10.755 -0.3542  0.1866 -1.4187
  368MOL0     H48570   2.573   7.795  10.846  0.4276  1.0221 -1.4592
  368MOL0     H48571   2.475   7.879  10.962  1.3363  2.1204  0.7292
  368MOL0     H48572   2.676   7.996  10.768  2.2264  0.0518  1.7553
  368MOL0     H48573   2.549   8.105  10.833  0.3954 -0.6239  0.0834
  368MOL0     H48574   2.772   8.097  11.176 -0.7471  1.1172  0.9702
  368MOL0     H48575   2.017   7.891  10.506 -0.6878  1.5019  0.0770
  368MOL0     H48576   1.809   7.799  10.487  0.0908  1.5300  0.9190
  369MOL0     O48577  10.030   7.179   3.264  0.0913 -0.3037 -0.2829
  369MOL0     C48578  10.093   7.204   3.363  0.5825  0.1420 -0.3110
  369MOL0     O48579  10.054   7.180   3.488  0.4195  0.2815  0.4658
  369MOL0     C48580   9.928   7.137   3.508 -0.0868 -1.1250  0.1151
  369MOL0     C48581   9.811   7.220   3.485 -0.4750  0.1238 -0.6517
  369MOL0     C48582   9.687   7.181   3.546 -0.8313 -1.2003 -0.0808
  369MOL0     C48583   9.671   7.065   3.620  0.2264  0.6542  0.4957
  369MOL0     O48584   9.553   7.012   3.674 -0.4274 -0.4291 -0.1185
  369MOL0     C48585   9.446   7.100   3.698 -0.0176 -0.4808 -0.4041
  369MOL0     C48586   9.350   7.044   3.810  0.0555 -0.6173  1.2724
  369MOL0     C48587   9.231   7.144   3.825  0.2579  0.2992 -0.0296
  369MOL0     C48588   9.096   7.110   3.757 -0.1159 -0.2098  0.3116
  369MOL0     C48589   8.985   7.212   3.772 -0.0770  0.1248 -0.0639
  369MOL0     C48590   8.850   7.171   3.702 -1.1649  0.1412 -0.4933
  369MOL0     C48591   8.742   7.298   3.721  0.1663  0.6541  0.5497
  369MOL0     C48592   8.792   7.431   3.662 -0.7139  0.5638  1.1419
  369MOL0     N48593   8.692   7.533   3.697  0.3277  0.0409  0.5775
  369MOL0     C48594   8.594   7.573   3.611 -0.6151 -0.7923 -0.5978
  369MOL0     C48595   8.494   7.636   3.680 -0.7099  0.1593  0.2572
  369MOL0     C48596   8.364   7.696   3.631 -0.1435 -0.2042 -0.6038
  369MOL0     C48597   8.277   7.599   3.535 -0.0399  0.2717  0.7597
  369MOL0     C48598   8.140   7.665   3.514 -0.3096 -0.3501  0.4860
  369MOL0     C48599   8.034   7.640   3.621 -0.1059 -0.2618 -0.2081
  369MOL0     O48600   7.910   7.725   3.598 -0.9849  0.1658 -0.4079
  369MOL0     C48601   7.830   7.756   3.694  0.0567  0.6354 -0.1923
  369MOL0     C48602   7.821   7.694   3.822  0.2105  0.4913  0.5668
  369MOL0     C48603   7.734   7.735   3.925  0.0376  0.6222 -0.3409
  369MOL0     C48604   7.647   7.841   3.900  0.2906  0.1010  0.6693
  369MOL0     C48605   7.543   7.900   3.992  0.7155  0.3673 -0.2475
  369MOL0     O48606   7.440   7.965   3.940  0.8294  0.3251 -0.3398
  369MOL0     C48607   7.317   7.976   4.007 -0.4528 -0.4961 -0.2493
  369MOL0     C48608   7.294   8.057   4.122  0.1524  0.8248 -0.3111
  369MOL0     C48609   7.163   8.080   4.159  0.0922 -0.2093  0.4744
  369MOL0     C48610   7.059   8.025   4.081  0.5785 -0.0948 -0.1865
  369MOL0     O48611   6.927   8.051   4.121  0.3637  0.8605  0.2682
  369MOL0     C48612   6.821   7.984   4.045  0.1170 -0.6978  0.0606
  369MOL0     C48613   6.689   8.036   4.098  0.3167 -0.0899 -0.0687
  369MOL0     C48614   6.573   7.949   4.049 -0.0467 -0.0453 -0.0528
  369MOL0     C48615   6.438   8.025   4.045 -0.5731 -0.1395 -0.4464
  369MOL0     C48616   6.441   8.142   3.943  0.3835 -0.7654 -0.1104
  369MOL0     C48617   6.304   8.207   3.918 -0.6953  0.5371  0.1185
  369MOL0     C48618   6.250   8.307   4.026 -0.1640  0.1877  1.0541
  369MOL0     C48619   6.111   8.365   3.978  0.1310 -0.4176 -0.1226
  369MOL0    Cl48620   5.967   8.274   4.045 -0.1110 -0.1133 -0.0996
  369MOL0     C48621   7.090   7.964   3.966 -0.2993 -0.1161  0.3171
  369MOL0     C48622   7.213   7.928   3.925 -0.3760 -0.1861 -0.6430
  369MOL0     O48623   7.554   7.865   4.106 -0.0148 -0.4330 -0.0371
  369MOL0     C48624   7.653   7.902   3.773  0.4224  1.0451 -1.0338
  369MOL0     C48625   7.747   7.864   3.672 -0.8872 -0.0222 -0.7899
  369MOL0     N48626   8.531   7.631   3.815  0.2362 -0.7369  0.7265
  369MOL0     N48627   8.652   7.582   3.819  0.2567 -0.4262  0.1760
  369MOL0     C48628   9.782   6.987   3.641 -1.0671  0.0479 -0.5040
  369MOL0     C48629   9.914   7.021   3.586  0.2945 -0.5137  0.9393
  369MOL0     C48630  10.232   7.254   3.351 -0.3571  0.0074  0.4525
  369MOL0     C48631  10.315   7.268   3.467 -0.7504 -0.7074  0.6110
  369MOL0     C48632  10.443   7.311   3.456 -0.6708 -0.2754  0.3679
  369MOL0     C48633  10.494   7.356   3.338 -1.3594 -0.4245  0.9569
  369MOL0     O48634  10.613   7.432   3.335  1.0214 -0.0029 -0.2733
  369MOL0     C48635  10.728   7.414   3.418 -0.7567 -0.9300 -0.0122
  369MOL0     C48636  10.841   7.464   3.330  0.0708 -0.3676 -0.3923
  369MOL0     C48637  10.980   7.446   3.396 -0.5676 -0.6660 -0.0404
  369MOL0     C48638  11.094   7.517   3.315  0.9782 -0.0861 -0.4174
  369MOL0     C48639  11.219   7.530   3.385 -0.5667  0.3729  0.0929
  369MOL0     C48640  11.321   7.519   3.452  0.5885  0.6106  0.9710
  369MOL0     C48641  10.426   7.340   3.217  0.9884  0.6600  0.3358
  369MOL0     C48642  10.290   7.286   3.221 -1.1077  0.5472  0.5263
  369MOL0     H48643   9.818   7.308   3.422  2.1082 -0.1218 -0.8065
  369MOL0     H48644   9.609   7.254   3.528 -0.0550 -0.8297 -2.2841
  369MOL0     H48645   9.399   7.113   3.600 -0.2404 -0.9172 -0.3570
  369MOL0     H48646   9.489   7.196   3.728 -1.2570 -0.0723  0.1487
  369MOL0     H48647   9.407   7.026   3.902  0.9930 -1.1013  0.6128
  369MOL0     H48648   9.305   6.952   3.772  0.4368  0.1162 -1.1268
  369MOL0     H48649   9.268   7.245   3.804  1.0649 -0.6164 -3.9278
  369MOL0     H48650   9.204   7.135   3.930  1.7799 -1.3217  0.2733
  369MOL0     H48651   9.109   7.097   3.649  1.9255 -1.5737  0.6644
  369MOL0     H48652   9.051   7.016   3.789 -2.1175  0.3804 -0.6556
  369MOL0     H48653   9.019   7.304   3.723  2.3688  1.2265  3.2644
  369MOL0     H48654   8.965   7.241   3.876 -0.3225  0.1767 -0.1236
  369MOL0     H48655   8.835   7.077   3.755  2.4678 -0.1116  0.3412
  369MOL0     H48656   8.853   7.153   3.594 -1.3740  0.7898 -0.6143
  369MOL0     H48657   8.646   7.269   3.678  0.1763  1.2588  0.1102
  369MOL0     H48658   8.729   7.311   3.829 -2.0018  3.6366  0.0393
  369MOL0     H48659   8.795   7.407   3.555  0.5802  0.9420  1.0747
  369MOL0     H48660   8.887   7.456   3.711 -0.6157 -1.8738  2.3319
  369MOL0     H48661   8.585   7.554   3.504  0.8674 -2.4075 -0.4732
  369MOL0     H48662   8.387   7.772   3.556 -2.0007 -0.1508 -1.1638
  369MOL0     H48663   8.312   7.749   3.711  0.6185 -1.2034  0.5870
  369MOL0     H48664   8.271   7.507   3.594  1.5168  1.0460  2.2292
  369MOL0     H48665   8.328   7.588   3.439  0.3825 -0.6986  1.0803
  369MOL0     H48666   8.162   7.772   3.502  3.0332 -0.9521  0.3356
  369MOL0     H48667   8.105   7.624   3.419  1.2725 -0.0206 -0.2621
  369MOL0     H48668   8.086   7.684   3.707 -1.1007  2.8125 -1.0611
  369MOL0     H48669   8.009   7.535   3.640 -4.8635  0.3794 -1.6899
  369MOL0     H48670   7.879   7.605   3.847 -1.5614 -0.5674  1.0796
  369MOL0     H48671   7.735   7.681   4.019 -1.2762  0.3541 -0.4568
  369MOL0     H48672   7.377   8.106   4.171  1.5247  1.2422 -2.8543
  369MOL0     H48673   7.134   8.155   4.232  0.1318  0.0195  0.2591
  369MOL0     H48674   6.833   7.879   4.072 -1.0319 -0.3442  2.2111
  369MOL0     H48675   6.825   7.998   3.937 -1.1678  0.9686  0.1836
  369MOL0     H48676   6.682   8.143   4.080 -1.0163  0.2500  2.1259
  369MOL0     H48677   6.682   8.027   4.207 -0.7393  0.0358 -0.1197
  369MOL0     H48678   6.554   7.862   4.113  0.1007  0.4122  0.6298
  369MOL0     H48679   6.610   7.921   3.950  3.8361  0.4416  1.1247
  369MOL0     H48680   6.352   7.960   4.027  0.7166 -1.1749 -3.3322
  369MOL0     H48681   6.408   8.064   4.143 -0.8147  0.0772 -0.6055
  369MOL0     H48682   6.466   8.093   3.849  3.0656  0.2639 -0.0132
  369MOL0     H48683   6.510   8.222   3.970 -2.7372  1.6937  1.3297
  369MOL0     H48684   6.229   8.128   3.907 -1.2245  0.8605  1.2672
  369MOL0     H48685   6.306   8.242   3.814 -0.3947 -0.9617 -0.4019
  369MOL0     H48686   6.230   8.260   4.123  0.7821  2.1968  2.2757
  369MOL0     H48687   6.314   8.392   4.047  0.9655 -0.8760  2.0603
  369MOL0     H48688   6.105   8.375   3.869  1.3306 -0.2791 -0.1810
  369MOL0     H48689   6.095   8.468   4.012  0.9763  0.3256 -1.8646
  369MOL0     H48690   7.015   7.932   3.894  0.9435 -0.7621 -0.7336
  369MOL0     H48691   7.238   7.869   3.838 -0.7456  0.4556 -1.2028
  369MOL0     H48692   7.579   7.965   3.725 -1.5486 -1.9107 -2.1595
  369MOL0     H48693   7.733   7.913   3.577 -1.4893 -0.3431 -0.8712
  369MOL0     H48694   9.785   6.896   3.699  1.7553 -0.3943 -1.1613
  369MOL0     H48695  10.001   6.962   3.613  3.5264  3.8197  1.0018
  369MOL0     H48696  10.275   7.256   3.567 -0.8339 -0.7701  0.5702
  369MOL0     H48697  10.495   7.321   3.550 -0.8072 -0.3056  0.4469
  369MOL0     H48698  10.738   7.308   3.442  1.0155 -0.4544  1.6346
  369MOL0     H48699  10.727   7.464   3.515 -1.8364  1.8337 -1.3386
  369MOL0     H48700  10.842   7.409   3.236 -1.5131  3.3803 -2.8216
  369MOL0     H48701  10.824   7.572   3.322  0.2899 -0.1757  1.3540
  369MOL0     H48702  10.995   7.339   3.414  2.2427 -0.4422 -0.6055
  369MOL0     H48703  10.974   7.497   3.492  2.6213  0.2772 -0.2269
  369MOL0     H48704  11.096   7.471   3.216 -2.7183 -0.9554 -0.2262
  369MOL0     H48705  11.059   7.616   3.282  2.6712  0.1326 -1.7011
  369MOL0     H48706  11.402   7.490   3.516  0.9380  1.7204  1.0532
  369MOL0     H48707  10.471   7.374   3.123 -1.0957  0.5392 -0.7554
  369MOL0     H48708  10.220   7.282   3.139 -0.0670  0.2160 -0.3599
  370MOL0     O48709   3.175   2.602   2.124  0.0699 -0.2729  0.1259
  370MOL0     C48710   3.237   2.587   2.228  0.6521 -0.2568  0.0882
  370MOL0     O48711   3.185   2.546   2.348  0.2176 -0.1876 -0.8500
  370MOL0     C48712   3.050   2.569   2.377 -0.1445 -1.0535 -0.8903
  370MOL0     C48713   2.975   2.467   2.426  0.8680 -0.6055 -0.2583
  370MOL0     C48714   2.843   2.495   2.469 -0.1164  0.0187 -0.7723
  370MOL0     C48715   2.785   2.626   2.450  0.7039 -0.0130 -0.2214
  370MOL0     O48716   2.654   2.660   2.484  0.4462  0.0836 -0.1636
  370MOL0     C48717   2.571   2.566   2.559 -1.1154  0.2298  0.2878
  370MOL0     C48718   2.454   2.641   2.618 -0.0096  0.6136 -0.1889
  370MOL0     C48719   2.340   2.549   2.662  0.3980  0.5638  0.0243
  370MOL0     C48720   2.219   2.637   2.693  0.6013 -0.3390 -0.0710
  370MOL0     C48721   2.092   2.557   2.730  0.0169  0.6867 -0.4934
  370MOL0     C48722   2.017   2.628   2.848 -0.5069 -0.1025 -0.1962
  370MOL0     C48723   1.877   2.574   2.884  0.0811  0.7980  0.6910
  370MOL0     C48724   1.788   2.591   2.753 -0.3865 -0.1649  0.4439
  370MOL0     N48725   1.656   2.549   2.799  0.1618  0.0257  0.3762
  370MOL0     C48726   1.625   2.435   2.874 -0.4528 -0.2217 -0.9265
  370MOL0     C48727   1.492   2.427   2.880 -0.7562 -0.1169  0.2097
  370MOL0     C48728   1.412   2.331   2.957 -0.1325  0.7302 -0.4570
  370MOL0     C48729   1.352   2.401   3.085 -0.3757 -0.4690 -0.5945
  370MOL0     C48730   1.288   2.289   3.166  0.1522 -0.1480 -0.2810
  370MOL0     C48731   1.205   2.321   3.289  0.8489 -0.3528  0.0222
  370MOL0     O48732   1.126   2.434   3.255  0.9288  1.2844 -0.1338
  370MOL0     C48733   0.996   2.412   3.287 -0.2314  0.6331 -0.2731
  370MOL0     C48734   0.945   2.407   3.424  0.1079 -0.1057  0.4767
  370MOL0     C48735   0.806   2.387   3.436 -0.2216 -0.6466  0.0984
  370MOL0     C48736   0.722   2.367   3.326 -0.5307 -0.1046 -0.0700
  370MOL0     C48737   0.579   2.367   3.339  1.1692  0.0050 -0.1417
  370MOL0     O48738   0.496   2.355   3.230 -0.8325 -0.5351 -0.6388
  370MOL0     C48739   0.369   2.325   3.258 -0.0095 -0.3278  0.7146
  370MOL0     C48740   0.269   2.393   3.187  0.2879  0.6048  0.2227
  370MOL0     C48741   0.140   2.335   3.184  0.2691 -0.2252  0.3935
  370MOL0     C48742   0.112   2.223   3.267  0.7110  0.3901  0.5147
  370MOL0     O48743  -0.016   2.171   3.261 -0.4659 -0.2842 -0.0813
  370MOL0     C48744  -0.050   2.058   3.348  0.2135 -0.3814  0.2287
  370MOL0     C48745  -0.196   2.023   3.320  1.2472 -0.5806 -0.2230
  370MOL0     C48746  -0.251   1.912   3.403  0.4524  0.8979 -0.0858
  370MOL0     C48747  -0.401   1.902   3.384 -0.6221 -0.1842 -0.4710
  370MOL0     C48748  -0.454   1.766   3.427 -0.2470 -0.3474  1.0385
  370MOL0     C48749  -0.609   1.766   3.403 -0.5921  0.4502  0.3228
  370MOL0     C48750  -0.665   1.634   3.459 -1.7679 -0.9411 -1.0178
  370MOL0     C48751  -0.813   1.607   3.420  0.4613  0.3475 -0.5653
  370MOL0    Cl48752  -0.926   1.746   3.460 -0.6399  0.1084 -0.2364
  370MOL0     C48753   0.211   2.165   3.348 -0.4117  0.3377 -0.2050
  370MOL0     C48754   0.343   2.203   3.327  0.2941  0.5630 -0.0913
  370MOL0     O48755   0.541   2.380   3.454 -1.1209  0.6689  0.4616
  370MOL0     C48756   0.778   2.354   3.196 -0.4888  0.1108  0.1145
  370MOL0     C48757   0.909   2.386   3.181 -0.1031 -0.1935  0.3924
  370MOL0     N48758   1.436   2.530   2.808 -0.1431 -0.4100  0.7057
  370MOL0     N48759   1.534   2.598   2.755 -0.4138  0.0981 -0.7361
  370MOL0     C48760   2.860   2.724   2.391  0.3899 -0.0953  0.0643
  370MOL0     C48761   2.991   2.697   2.352 -0.9625 -0.3544 -0.9441
  370MOL0     C48762   3.383   2.602   2.227 -0.9470 -1.2764 -0.0337
  370MOL0     C48763   3.461   2.526   2.130  0.4111  0.6266  0.2520
  370MOL0     C48764   3.601   2.547   2.124  0.0646  0.5200  0.3026
  370MOL0     C48765   3.657   2.644   2.200 -0.6946 -0.4154 -0.5873
  370MOL0     O48766   3.786   2.698   2.180  0.7289  0.2160  0.9799
  370MOL0     C48767   3.880   2.647   2.074  0.0408 -0.8107 -0.2687
  370MOL0     C48768   4.020   2.692   2.108 -0.4931  0.4930 -0.2315
  370MOL0     C48769   4.081   2.625   2.232 -0.9766 -0.0968 -1.0421
  370MOL0     C48770   4.140   2.487   2.203 -0.4981 -0.3246 -0.1130
  370MOL0     C48771   4.288   2.480   2.178  0.4224  0.0451 -0.2059
  370MOL0     C48772   4.405   2.479   2.150  0.7571  0.1088 -0.2419
  370MOL0     C48773   3.582   2.718   2.294  0.9819  0.3464 -0.0878
  370MOL0     C48774   3.445   2.693   2.309 -0.4014  0.0808 -0.0402
  370MOL0     H48775   3.019   2.368   2.427 -0.9258 -1.6421 -3.7929
  370MOL0     H48776   2.782   2.413   2.508 -0.8491  0.3538 -1.2076
  370MOL0     H48777   2.620   2.509   2.639 -1.3062 -0.3539 -0.0009
  370MOL0     H48778   2.540   2.487   2.491  0.3744 -0.0327 -0.1235
  370MOL0     H48779   2.414   2.707   2.540 -2.6633 -1.3551 -0.6444
  370MOL0     H48780   2.489   2.698   2.704  1.7100 -1.1856  0.3827
  370MOL0     H48781   2.368   2.483   2.744  2.2876  0.7736 -0.3979
  370MOL0     H48782   2.324   2.477   2.582  1.3260 -0.9112  1.1271
  370MOL0     H48783   2.258   2.699   2.774  2.7885 -0.8131 -0.6840
  370MOL0     H48784   2.193   2.711   2.617  2.2059  1.3138  0.8955
  370MOL0     H48785   2.116   2.452   2.751  1.3212  1.1317  0.3925
  370MOL0     H48786   2.040   2.555   2.634 -0.6735 -0.5445 -0.1210
  370MOL0     H48787   2.022   2.735   2.825 -4.6608  1.2847  3.8908
  370MOL0     H48788   2.066   2.627   2.945  1.9446 -1.1406 -1.3537
  370MOL0     H48789   1.893   2.469   2.910  1.1117  0.9669  0.7553
  370MOL0     H48790   1.839   2.632   2.969  1.8521 -1.1506  2.9167
  370MOL0     H48791   1.823   2.530   2.670 -0.3184  0.1254  0.2580
  370MOL0     H48792   1.774   2.697   2.728 -3.8388 -0.5936  0.0972
  370MOL0     H48793   1.692   2.368   2.927 -2.3321 -0.1669  1.7442
  370MOL0     H48794   1.472   2.245   2.990  0.5078  1.4816  0.4100
  370MOL0     H48795   1.330   2.288   2.900 -0.4069 -3.3667  2.5669
  370MOL0     H48796   1.290   2.488   3.064  1.5739  0.7777 -1.5878
  370MOL0     H48797   1.430   2.449   3.146  0.4193  0.0865 -1.9895
  370MOL0     H48798   1.231   2.218   3.105  1.2329 -0.3708 -1.0628
  370MOL0     H48799   1.374   2.244   3.216 -0.5180 -3.1110 -1.5632
  370MOL0     H48800   1.269   2.362   3.368 -2.6307  1.7832  2.0169
  370MOL0     H48801   1.162   2.228   3.327  0.0485  0.6519  1.7037
  370MOL0     H48802   1.005   2.419   3.513  1.8334 -0.6491 -0.5509
  370MOL0     H48803   0.753   2.372   3.529 -3.5454 -0.5444 -1.6235
  370MOL0     H48804   0.297   2.492   3.152 -3.3542  1.8323  0.3521
  370MOL0     H48805   0.059   2.367   3.117 -1.8538 -2.3086  1.8028
  370MOL0     H48806  -0.027   2.074   3.453 -2.8364  0.3729  0.8669
  370MOL0     H48807   0.013   1.972   3.320  1.9263  1.8181 -3.5751
  370MOL0     H48808  -0.221   2.011   3.214  1.3000  0.0359 -0.3131
  370MOL0     H48809  -0.244   2.116   3.352  2.2979  0.2710 -1.0315
  370MOL0     H48810  -0.225   1.929   3.508 -0.9412  0.6220  0.3171
  370MOL0     H48811  -0.200   1.818   3.379 -5.1344 -3.5677  3.0141
  370MOL0     H48812  -0.436   1.981   3.450 -1.8520 -0.7616 -0.3925
  370MOL0     H48813  -0.427   1.915   3.278  1.3776 -0.1469 -1.0020
  370MOL0     H48814  -0.423   1.744   3.529  1.1053 -1.8176  0.3640
  370MOL0     H48815  -0.407   1.690   3.364  0.5155  2.5679 -2.2296
  370MOL0     H48816  -0.625   1.779   3.296  0.4213  0.8286  0.2031
  370MOL0     H48817  -0.658   1.846   3.459  1.6246  0.2834  2.7157
  370MOL0     H48818  -0.599   1.552   3.429  0.0806  0.1261 -0.0529
  370MOL0     H48819  -0.664   1.628   3.568  0.2096 -0.8683 -0.9995
  370MOL0     H48820  -0.843   1.508   3.456  0.1942  0.8190  0.5378
  370MOL0     H48821  -0.821   1.589   3.313 -0.1728  2.5938 -0.9461
  370MOL0     H48822   0.183   2.084   3.415 -0.3500 -0.7258 -1.4184
  370MOL0     H48823   0.424   2.142   3.364 -0.3987 -0.1135  0.3285
  370MOL0     H48824   0.709   2.336   3.114  0.4900 -0.2098 -0.6528
  370MOL0     H48825   0.954   2.386   3.082  2.2293 -0.3260  1.3828
  370MOL0     H48826   2.812   2.815   2.357 -0.1419  0.0987  1.2923
  370MOL0     H48827   3.053   2.772   2.303 -0.4807 -2.6061 -4.1575
  370MOL0     H48828   3.409   2.450   2.072  0.1555  1.4023 -0.5548
  370MOL0     H48829   3.656   2.500   2.043 -1.2296  1.7926 -1.3904
  370MOL0     H48830   3.848   2.681   1.976  3.0801  0.1865 -1.0326
  370MOL0     H48831   3.877   2.538   2.076  2.8406 -0.9473  1.0081
  370MOL0     H48832   4.083   2.674   2.021  0.3987  1.4545  0.1860
  370MOL0     H48833   4.017   2.802   2.111 -0.3972  0.4975 -0.2763
  370MOL0     H48834   3.996   2.602   2.297  1.1264  0.5731  2.1962
  370MOL0     H48835   4.155   2.689   2.283 -1.1111 -1.0943  0.4631
  370MOL0     H48836   4.114   2.412   2.278  3.9516 -0.8278  1.2205
  370MOL0     H48837   4.100   2.464   2.103 -1.4713 -0.0666  0.2134
  370MOL0     H48838   4.512   2.474   2.145  0.9755  1.3409  1.8839
  370MOL0     H48839   3.633   2.802   2.339  1.4991  1.1904 -2.1657
  370MOL0     H48840   3.385   2.758   2.371  0.8812 -1.3266  2.9295
  371MOL0     O48841   0.416   8.192   9.834  0.0943  0.7732  0.3901
  371MOL0     C48842   0.494   8.201   9.930 -1.0035  0.5110  0.3851
  371MOL0     O48843   0.456   8.221  10.060 -0.1671  0.6120  0.6066
  371MOL0     C48844   0.318   8.212  10.085  0.1011  0.3625  0.6702
  371MOL0     C48845   0.239   8.330  10.082 -0.3829 -0.8033 -0.2019
  371MOL0     C48846   0.099   8.331  10.115  0.2652 -0.0325 -0.1659
  371MOL0     C48847   0.031   8.211  10.148  0.2238  0.2619  0.5741
  371MOL0     O48848  -0.100   8.194  10.192  1.1867  0.0639  0.1349
  371MOL0     C48849  -0.166   8.304  10.256  1.2860  0.5269 -0.4070
  371MOL0     C48850  -0.305   8.337  10.186  0.1097 -0.9111  0.7861
  371MOL0     C48851  -0.435   8.294  10.259  0.7264 -0.6717 -0.0761
  371MOL0     C48852  -0.561   8.332  10.164  0.4378  0.0987 -0.6318
  371MOL0     C48853  -0.699   8.268  10.203 -0.3626  0.0664 -0.6996
  371MOL0     C48854  -0.744   8.298  10.347 -0.1501 -0.5802 -0.6426
  371MOL0     C48855  -0.762   8.443  10.389 -0.3164  0.6663  0.1496
  371MOL0     C48856  -0.864   8.511  10.301 -0.8109  0.2551  0.0086
  371MOL0     N48857  -1.001   8.461  10.315  0.2756  0.1861  0.1147
  371MOL0     C48858  -1.092   8.391  10.230  0.3605  0.2061 -0.4284
  371MOL0     C48859  -1.208   8.402  10.297  0.9664 -0.1551  0.6775
  371MOL0     C48860  -1.340   8.343  10.252  0.2423 -0.0900  0.2784
  371MOL0     C48861  -1.466   8.427  10.292  0.2283 -0.6831 -0.8667
  371MOL0     C48862  -1.599   8.386  10.229 -0.2859  0.6872 -0.2285
  371MOL0     C48863  -1.705   8.494  10.239  0.1487 -0.2575 -0.8784
  371MOL0     O48864  -1.731   8.521  10.382 -0.0411  0.0068  0.2869
  371MOL0     C48865  -1.861   8.540  10.426  0.4357  0.8631  0.3187
  371MOL0     C48866  -1.883   8.511  10.560 -0.0928 -0.7446  0.6571
  371MOL0     C48867  -2.011   8.526  10.616 -0.7365 -0.2295  0.1037
  371MOL0     C48868  -2.121   8.581  10.544  1.0699 -0.1993 -0.0478
  371MOL0     C48869  -2.246   8.619  10.606 -0.0500 -0.0738  0.4542
  371MOL0     O48870  -2.267   8.579  10.732 -0.2400  0.3581 -0.3225
  371MOL0     C48871  -2.395   8.584  10.791 -0.6345  0.3218  0.5416
  371MOL0     C48872  -2.506   8.513  10.741 -0.5974  1.1967 -0.2699
  371MOL0     C48873  -2.631   8.504  10.806  0.0672 -0.1322  0.8781
  371MOL0     C48874  -2.644   8.567  10.927  0.5819 -0.0974  0.4817
  371MOL0     O48875  -2.770   8.557  10.983  0.3324 -0.8539  0.2427
  371MOL0     C48876  -2.871   8.649  10.928  0.1351 -0.8580 -0.2550
  371MOL0     C48877  -2.980   8.683  11.011  0.5980  0.0099 -0.3823
  371MOL0     C48878  -3.047   8.552  11.069  0.2029 -0.0853  0.5811
  371MOL0     C48879  -3.160   8.579  11.162 -0.7373 -0.0333 -0.5795
  371MOL0     C48880  -3.203   8.452  11.233  0.2433  0.3004 -0.7134
  371MOL0     C48881  -3.349   8.461  11.267 -0.9179  0.3898  0.9332
  371MOL0     C48882  -3.399   8.342  11.340 -0.1899  0.5931  0.3786
  371MOL0     C48883  -3.527   8.377  11.402  0.2243 -0.0742 -0.2343
  371MOL0    Cl48884  -3.625   8.238  11.440  0.6333 -0.3125 -0.2253
  371MOL0     C48885  -2.544   8.647  10.970 -0.9370 -0.2051 -0.1143
  371MOL0     C48886  -2.414   8.658  10.913  0.1545  0.3886  0.5129
  371MOL0     O48887  -2.331   8.671  10.532 -1.0681  0.1551  0.3224
  371MOL0     C48888  -2.091   8.598  10.407 -0.1526 -0.5219  0.6302
  371MOL0     C48889  -1.970   8.576  10.350 -0.1382  0.8431 -0.1004
  371MOL0     N48890  -1.192   8.479  10.411 -0.4620 -0.2531  0.1575
  371MOL0     N48891  -1.076   8.516  10.417  0.6483  0.3450 -0.0406
  371MOL0     C48892   0.109   8.097  10.130  0.9464 -0.4981 -0.4172
  371MOL0     C48893   0.249   8.097  10.110 -0.0330 -0.3270  0.5652
  371MOL0     C48894   0.642   8.214   9.901 -0.3006 -0.5701  0.1146
  371MOL0     C48895   0.698   8.236   9.768 -0.2010 -0.2702  0.7923
  371MOL0     C48896   0.841   8.246   9.752  0.1961 -0.5731 -0.7385
  371MOL0     C48897   0.933   8.236   9.849  0.4653  0.2281 -0.9183
  371MOL0     O48898   1.059   8.269   9.817  0.2704 -0.3165  0.2670
  371MOL0     C48899   1.169   8.193   9.872  0.0879  0.0418 -0.1530
  371MOL0     C48900   1.240   8.105   9.760  0.1317 -0.3460 -0.2164
  371MOL0     C48901   1.161   7.977   9.744 -0.2824 -0.2500  0.6943
  371MOL0     C48902   1.222   7.869   9.645 -0.1378 -0.7069  0.6445
  371MOL0     C48903   1.360   7.829   9.691  0.0701  0.5175  0.3595
  371MOL0     C48904   1.476   7.816   9.706 -0.1330 -0.2198 -0.3296
  371MOL0     C48905   0.881   8.205   9.975  0.7629 -0.0483 -0.3635
  371MOL0     C48906   0.742   8.202  10.002 -0.7848  0.0341  0.0496
  371MOL0     H48907   0.290   8.423  10.058 -0.6382 -0.4612  0.5415
  371MOL0     H48908   0.038   8.420  10.106  0.3298  0.2357  1.6642
  371MOL0     H48909  -0.100   8.391  10.261  1.6480  0.2283  0.2461
  371MOL0     H48910  -0.190   8.270  10.358  1.8986 -2.9691 -1.3071
  371MOL0     H48911  -0.293   8.290  10.088  1.2769  1.8251 -0.4742
  371MOL0     H48912  -0.305   8.444  10.164  2.4165 -1.0175 -0.0165
  371MOL0     H48913  -0.453   8.346  10.353 -0.6686  0.1570 -0.7641
  371MOL0     H48914  -0.430   8.186  10.276 -0.2126 -0.2502  3.8024
  371MOL0     H48915  -0.579   8.439  10.168  0.5519  0.0935  0.9155
  371MOL0     H48916  -0.532   8.305  10.062  0.1707  1.1115 -0.9853
  371MOL0     H48917  -0.688   8.161  10.183  4.1674  0.1465  0.2195
  371MOL0     H48918  -0.777   8.302  10.134 -2.3815 -0.8769  1.0164
  371MOL0     H48919  -0.677   8.240  10.412 -2.2497 -3.0437 -0.4777
  371MOL0     H48920  -0.843   8.252  10.359 -0.4960  0.4758  0.8503
  371MOL0     H48921  -0.792   8.442  10.494  1.9378 -1.3133  0.8637
  371MOL0     H48922  -0.669   8.501  10.384  0.0979  0.0359  0.4111
  371MOL0     H48923  -0.827   8.512  10.197  2.9574  2.8524  1.1628
  371MOL0     H48924  -0.861   8.619  10.319  1.5414  0.2458 -0.0019
  371MOL0     H48925  -1.083   8.321  10.147  1.0398  2.6719 -2.5780
  371MOL0     H48926  -1.364   8.249  10.303 -2.1846  0.6609  0.6728
  371MOL0     H48927  -1.327   8.320  10.146 -1.0539  0.9640 -0.1416
  371MOL0     H48928  -1.443   8.531  10.267  3.2047 -1.3243 -1.2080
  371MOL0     H48929  -1.476   8.427  10.401 -1.6930 -2.7019 -0.9834
  371MOL0     H48930  -1.585   8.367  10.122 -0.8045 -1.0053 -0.0332
  371MOL0     H48931  -1.632   8.284  10.252  0.2203 -0.1412 -2.7942
  371MOL0     H48932  -1.800   8.450  10.206 -1.5679  2.4744  0.1173
  371MOL0     H48933  -1.691   8.584  10.178  0.6936 -0.4998 -1.1094
  371MOL0     H48934  -1.791   8.488  10.614  0.5417 -1.1794 -0.5521
  371MOL0     H48935  -2.019   8.516  10.724  1.6522 -0.5222  0.2929
  371MOL0     H48936  -2.488   8.457  10.650 -0.6846 -1.1888  1.1094
  371MOL0     H48937  -2.713   8.452  10.757  2.9929 -3.1809 -1.2053
  371MOL0     H48938  -2.911   8.626  10.829 -1.9012  0.5482  0.1680
  371MOL0     H48939  -2.812   8.739  10.909 -1.8897  0.8419  1.0046
  371MOL0     H48940  -3.043   8.769  10.987  1.3281  0.7521  0.2815
  371MOL0     H48941  -2.933   8.724  11.101  0.8294 -1.3109  0.1335
  371MOL0     H48942  -2.964   8.493  11.109  1.3718  0.7258 -0.5603
  371MOL0     H48943  -3.086   8.490  10.988 -0.9121  3.0717 -1.4724
  371MOL0     H48944  -3.135   8.659  11.233  1.1867  2.4267 -3.7479
  371MOL0     H48945  -3.246   8.624  11.110 -1.7206 -2.3560 -1.0916
  371MOL0     H48946  -3.144   8.445  11.325 -2.4341  1.9871  1.3139
  371MOL0     H48947  -3.198   8.365  11.168 -0.0316  0.2909 -0.7237
  371MOL0     H48948  -3.404   8.476  11.174 -0.2473  0.4770  0.5440
  371MOL0     H48949  -3.358   8.549  11.331  1.2936  0.6875  0.9246
  371MOL0     H48950  -3.421   8.272  11.260 -0.6556  2.8851 -1.6026
  371MOL0     H48951  -3.327   8.292  11.405 -0.9700 -1.3147 -0.1685
  371MOL0     H48952  -3.585   8.441  11.335  0.9669  0.2554 -0.5721
  371MOL0     H48953  -3.511   8.426  11.498 -0.0678  0.5279 -0.4828
  371MOL0     H48954  -2.572   8.682  11.068 -1.0005 -1.7049  0.4348
  371MOL0     H48955  -2.340   8.713  10.970 -1.1734  1.1174  1.5827
  371MOL0     H48956  -2.176   8.624  10.345 -1.1304 -1.0594  1.7118
  371MOL0     H48957  -1.951   8.605  10.247 -1.8857  0.2959 -0.6194
  371MOL0     H48958   0.056   8.007  10.161  0.1482 -1.0124 -3.0478
  371MOL0     H48959   0.292   7.997  10.122 -3.2412 -2.1964 -1.9742
  371MOL0     H48960   0.637   8.243   9.679  0.4338  0.1007  0.3829
  371MOL0     H48961   0.897   8.262   9.660  0.4133 -1.1430 -0.7059
  371MOL0     H48962   1.132   8.119   9.944  1.4895  0.6026  1.2181
  371MOL0     H48963   1.236   8.259   9.928 -0.2738 -0.8671  1.4281
  371MOL0     H48964   1.250   8.162   9.667  0.2714 -1.8106 -1.1359
  371MOL0     H48965   1.342   8.088   9.796  0.5011 -0.9518 -1.5010
  371MOL0     H48966   1.065   7.998   9.697 -1.0922  0.8021  2.6945
  371MOL0     H48967   1.128   7.926   9.835  1.1456 -3.4534 -0.4520
  371MOL0     H48968   1.161   7.781   9.625  1.8206 -1.5261 -2.4468
  371MOL0     H48969   1.235   7.923   9.550  0.5996 -0.9072  0.6268
  371MOL0     H48970   1.579   7.788   9.711  0.4569  1.8763  0.0997
  371MOL0     H48971   0.951   8.186  10.055  1.7288 -0.6825 -1.3295
  371MOL0     H48972   0.706   8.188  10.103 -0.8848 -2.6436 -0.2704
  372MOL0     O48973   7.225   8.186  11.210 -0.1865  0.6567  0.1366
  372MOL0     C48974   7.234   8.065  11.232  1.1279 -0.3465 -0.4498
  372MOL0     O48975   7.223   7.958  11.137 -0.1944  0.8173 -0.5158
  372MOL0     C48976   7.209   7.978  11.006  0.4088  0.5686  0.1148
  372MOL0     C48977   7.103   7.911  10.939 -1.0219  0.3256 -0.2512
  372MOL0     C48978   7.070   7.941  10.811  0.2534 -0.4447  0.0754
  372MOL0     C48979   7.138   8.043  10.734 -0.1589 -0.3200  0.5298
  372MOL0     O48980   7.083   8.080  10.611 -0.1472  0.6241  0.5485
  372MOL0     C48981   7.158   8.175  10.521 -0.3471  0.4609 -0.1568
  372MOL0     C48982   7.104   8.156  10.385  0.7169  0.2188  0.1064
  372MOL0     C48983   6.954   8.186  10.371  0.3648  0.1895 -0.4608
  372MOL0     C48984   6.900   8.138  10.231 -0.1980 -0.8262 -0.5966
  372MOL0     C48985   6.754   8.164  10.222 -0.9967 -0.7682  0.5649
  372MOL0     C48986   6.707   8.086  10.100 -0.1740 -0.5715  0.3248
  372MOL0     C48987   6.574   8.141  10.032  0.2822 -0.4876  0.6239
  372MOL0     C48988   6.456   8.076  10.097  0.6124 -1.1355 -0.1694
  372MOL0     N48989   6.332   8.084  10.019  0.4832 -0.7590  0.8273
  372MOL0     C48990   6.253   8.197  10.012 -0.8749 -0.3148  1.2415
  372MOL0     C48991   6.173   8.181   9.898  0.2200  0.8658 -0.3816
  372MOL0     C48992   6.083   8.281   9.836 -0.1380  0.9936  0.4358
  372MOL0     C48993   6.160   8.413   9.807  0.2385 -0.3617 -0.7695
  372MOL0     C48994   6.250   8.420   9.675 -0.6508  0.6226 -0.0379
  372MOL0     C48995   6.378   8.349   9.677  0.2932  0.2772 -0.7816
  372MOL0     O48996   6.461   8.417   9.769 -0.4750 -0.3454  0.3561
  372MOL0     C48997   6.593   8.374   9.756  0.5035 -0.4576  0.4063
  372MOL0     C48998   6.649   8.273   9.670 -0.9558 -0.9433 -0.5529
  372MOL0     C48999   6.786   8.242   9.678 -0.4193 -0.0772 -0.2906
  372MOL0     C49000   6.876   8.310   9.772  0.8886  0.1065 -0.1874
  372MOL0     C49001   7.024   8.281   9.778  0.6156 -0.6133  0.7319
  372MOL0     O49002   7.083   8.336   9.889 -0.3064 -0.2588  0.5018
  372MOL0     C49003   7.222   8.312   9.896  0.5288  0.0851 -0.1208
  372MOL0     C49004   7.285   8.185   9.879 -0.5131 -0.6954 -0.3379
  372MOL0     C49005   7.423   8.173   9.894  0.1988 -0.4929 -0.1209
  372MOL0     C49006   7.499   8.286   9.926  0.6030 -0.2844  0.3288
  372MOL0     O49007   7.632   8.269   9.931  0.2123 -0.6808  0.1442
  372MOL0     C49008   7.716   8.381   9.945  0.2193 -0.3923 -0.1408
  372MOL0     C49009   7.853   8.342   9.916  0.0766 -0.1928 -0.5670
  372MOL0     C49010   7.926   8.289  10.037  1.0494 -0.5055 -0.2839
  372MOL0     C49011   8.068   8.244   9.983 -0.2705  0.8572 -0.1893
  372MOL0     C49012   8.162   8.368   9.943  0.0017  0.0287  0.0974
  372MOL0     C49013   8.297   8.315   9.896 -0.2376  0.8645 -0.2150
  372MOL0     C49014   8.399   8.425   9.875 -1.2350 -0.6458  0.6871
  372MOL0     C49015   8.385   8.491   9.741  0.1437  0.3104 -0.0634
  372MOL0    Cl49016   8.493   8.641   9.720  0.5314 -0.9060  0.4415
  372MOL0     C49017   7.441   8.412   9.951 -0.3752 -0.9312  0.7567
  372MOL0     C49018   7.302   8.421   9.941 -0.4461 -0.1778 -0.0318
  372MOL0     O49019   7.076   8.215   9.694 -0.6934  0.3037  0.1740
  372MOL0     C49020   6.820   8.416   9.852 -0.3490  0.7386 -0.3043
  372MOL0     C49021   6.680   8.441   9.849 -0.1515  0.3341  0.0950
  372MOL0     N49022   6.185   8.050   9.855 -0.4335  0.0613  0.1183
  372MOL0     N49023   6.286   7.996   9.919  0.2008  0.2577  0.4854
  372MOL0     C49024   7.257   8.098  10.795 -0.2917 -0.6665 -0.1270
  372MOL0     C49025   7.289   8.062  10.926 -0.4187  0.2252 -0.4617
  372MOL0     C49026   7.235   8.025  11.370  0.3818  1.0865  0.1465
  372MOL0     C49027   7.158   7.909  11.406 -0.8175 -0.0834 -0.3273
  372MOL0     C49028   7.167   7.861  11.545  0.1879 -0.0574  0.2330
  372MOL0     C49029   7.237   7.934  11.642  0.4493  0.1320 -0.2599
  372MOL0     O49030   7.222   7.899  11.776 -0.3011  0.4771  0.1713
  372MOL0     C49031   7.169   8.006  11.856 -1.0059  0.0625  0.1799
  372MOL0     C49032   7.157   7.964  12.002  0.2484  0.3744 -0.1296
  372MOL0     C49033   7.071   7.835  12.017 -0.2892 -0.0943 -0.2276
  372MOL0     C49034   7.046   7.809  12.166 -0.3327 -0.3881  0.6638
  372MOL0     C49035   7.148   7.726  12.233 -0.8080 -0.6282 -0.2482
  372MOL0     C49036   7.224   7.662  12.296 -0.4807  0.8142 -0.2829
  372MOL0     C49037   7.319   8.041  11.601  0.0573  0.1651 -0.5777
  372MOL0     C49038   7.314   8.090  11.473  0.4341  0.1806 -0.1230
  372MOL0     H49039   7.033   7.843  10.987 -1.5906 -0.0775 -1.5883
  372MOL0     H49040   6.988   7.893  10.758  0.0779  1.6900 -1.7688
  372MOL0     H49041   7.266   8.154  10.524 -0.1860  1.3169  0.3552
  372MOL0     H49042   7.143   8.278  10.553 -2.1665  0.6594 -1.5131
  372MOL0     H49043   7.124   8.050  10.365  1.6515  0.6143 -1.1954
  372MOL0     H49044   7.167   8.211  10.314  1.3914  0.5197  0.9206
  372MOL0     H49045   6.940   8.294  10.376  1.9466  0.3611  1.4079
  372MOL0     H49046   6.898   8.133  10.449  0.8668 -1.8576 -1.4182
  372MOL0     H49047   6.963   8.184  10.155 -1.2410  2.1879  0.2202
  372MOL0     H49048   6.930   8.033  10.231  0.1423 -0.7461 -1.9628
  372MOL0     H49049   6.738   8.270  10.205  1.1984 -0.3603  0.6591
  372MOL0     H49050   6.699   8.132  10.311  2.4442 -3.2822  2.0325
  372MOL0     H49051   6.693   7.980  10.125 -0.6595 -0.6598 -0.2916
  372MOL0     H49052   6.789   8.095  10.029  1.9476 -1.0309  2.5895
  372MOL0     H49053   6.563   8.249  10.041 -0.9371 -0.3018 -2.0424
  372MOL0     H49054   6.569   8.118   9.925  0.6465  5.6468 -1.0879
  372MOL0     H49055   6.443   8.132  10.191 -0.9656 -0.9008 -0.5060
  372MOL0     H49056   6.473   7.972  10.124 -0.8388 -1.1150  0.9285
  372MOL0     H49057   6.264   8.287  10.072  0.5862  0.0910  0.4085
  372MOL0     H49058   5.991   8.300   9.891 -1.9840  1.5451 -2.5762
  372MOL0     H49059   6.049   8.234   9.743  0.8829  2.5625 -0.7842
  372MOL0     H49060   6.221   8.440   9.894  1.9803 -0.8717 -1.7875
  372MOL0     H49061   6.087   8.492   9.787  0.4531 -0.2265 -1.0302
  372MOL0     H49062   6.193   8.380   9.590 -2.9136 -0.8335  2.0172
  372MOL0     H49063   6.263   8.522   9.639  0.6403  0.1586 -0.9465
  372MOL0     H49064   6.416   8.343   9.575 -0.5946  1.2004 -1.1861
  372MOL0     H49065   6.371   8.254   9.730  0.4473 -0.0411 -1.3281
  372MOL0     H49066   6.593   8.228   9.589 -1.1364  1.2551 -1.7207
  372MOL0     H49067   6.823   8.160   9.619 -0.2217  0.9436 -1.6394
  372MOL0     H49068   7.226   8.095   9.865 -2.0866 -0.2167  2.3959
  372MOL0     H49069   7.477   8.082   9.868  1.4917 -0.5047  2.3544
  372MOL0     H49070   7.707   8.426  10.044 -0.4566  2.2635 -1.3172
  372MOL0     H49071   7.683   8.462   9.880 -4.2556  1.8305  4.2696
  372MOL0     H49072   7.912   8.426   9.877  0.2857  0.0309  0.2122
  372MOL0     H49073   7.844   8.257   9.849  0.4202  0.7333 -1.8250
  372MOL0     H49074   7.881   8.201  10.084  0.8299  1.1746  2.9312
  372MOL0     H49075   7.933   8.364  10.117 -0.3176  1.4073 -1.8773
  372MOL0     H49076   8.122   8.189  10.060  0.3656  0.7948 -0.6696
  372MOL0     H49077   8.058   8.182   9.894 -1.7941  0.1161  0.4598
  372MOL0     H49078   8.163   8.430  10.033 -1.6353 -0.8073  0.7288
  372MOL0     H49079   8.124   8.416   9.853  3.2803  2.1867 -0.3343
  372MOL0     H49080   8.303   8.254   9.805 -2.8619 -0.6704  0.5370
  372MOL0     H49081   8.341   8.254   9.976 -0.5370  0.2794 -0.4857
  372MOL0     H49082   8.399   8.506   9.948 -1.0817 -2.0353  2.2754
  372MOL0     H49083   8.496   8.376   9.889  0.6963  1.9826 -2.1194
  372MOL0     H49084   8.283   8.530   9.746  0.6270  1.6569 -0.2359
  372MOL0     H49085   8.404   8.430   9.652  1.7522 -0.8997  1.0443
  372MOL0     H49086   7.505   8.497   9.971  1.2401 -0.9418 -3.3104
  372MOL0     H49087   7.248   8.514   9.953  0.1625  0.3372 -1.0941
  372MOL0     H49088   6.883   8.469   9.923 -1.0561  1.2548 -0.0455
  372MOL0     H49089   6.639   8.527   9.901 -1.6204  0.1572 -0.7126
  372MOL0     H49090   7.317   8.169  10.739  1.0982 -0.8100  1.1192
  372MOL0     H49091   7.374   8.106  10.977 -0.8332 -0.4106  0.8088
  372MOL0     H49092   7.084   7.863  11.340 -0.2713  0.0499 -1.0391
  372MOL0     H49093   7.114   7.769  11.566 -1.4930  0.5701 -0.9598
  372MOL0     H49094   7.072   8.049  11.830 -1.4965  0.0688  1.9327
  372MOL0     H49095   7.245   8.085  11.859 -0.7627 -0.2111  1.7860
  372MOL0     H49096   7.254   7.946  12.051  0.4546 -1.3405 -1.0928
  372MOL0     H49097   7.096   8.033  12.061  0.5276 -1.4235  2.4128
  372MOL0     H49098   7.123   7.746  11.980 -0.6645 -2.3883  4.1306
  372MOL0     H49099   6.972   7.838  11.970 -0.7518 -3.1484  0.3453
  372MOL0     H49100   7.036   7.903  12.222 -1.0311 -0.3616  0.5151
  372MOL0     H49101   6.951   7.761  12.192 -0.1717 -1.9994 -1.4439
  372MOL0     H49102   7.290   7.609  12.362  0.2562  0.0097 -1.6324
  372MOL0     H49103   7.380   8.072  11.685 -0.2582  2.2450 -1.0572
  372MOL0     H49104   7.383   8.169  11.443 -0.6548  0.8829 -0.8359
  373MOL0     O49105   0.669   8.587   7.570 -0.1803 -0.1251 -0.2145
  373MOL0     C49106   0.632   8.656   7.662  0.0565  0.1346 -0.1741
  373MOL0     O49107   0.711   8.715   7.758 -0.3115  0.0654 -0.2462
  373MOL0     C49108   0.844   8.688   7.756  1.0043  0.1373  0.0058
  373MOL0     C49109   0.937   8.790   7.754  0.2003 -0.4014  0.6373
  373MOL0     C49110   1.079   8.763   7.746  0.5703  1.1230 -0.5146
  373MOL0     C49111   1.127   8.631   7.751  0.2096 -0.0237 -0.1811
  373MOL0     O49112   1.250   8.591   7.739 -0.3514 -0.0784  0.2816
  373MOL0     C49113   1.357   8.686   7.735  0.6461 -0.2635  0.0605
  373MOL0     C49114   1.411   8.707   7.594 -0.2935  0.5888  0.4037
  373MOL0     C49115   1.356   8.808   7.494  0.4737  0.1982 -0.2253
  373MOL0     C49116   1.380   8.954   7.530 -0.0856 -0.2110 -0.4377
  373MOL0     C49117   1.533   8.996   7.554  0.5051  0.1738 -0.3369
  373MOL0     C49118   1.539   9.142   7.524 -0.0454  0.2901  0.1442
  373MOL0     C49119   1.685   9.177   7.561  0.7363  0.4444  0.1626
  373MOL0     C49120   1.709   9.301   7.654 -0.4738 -0.9417  0.6141
  373MOL0     N49121   1.659   9.286   7.785 -0.2892  0.3465 -0.5387
  373MOL0     C49122   1.544   9.344   7.819 -0.1878 -0.4379 -0.4726
  373MOL0     C49123   1.515   9.315   7.943 -0.3453  0.0210 -0.9725
  373MOL0     C49124   1.406   9.353   8.035  0.7015 -0.6052  0.4185
  373MOL0     C49125   1.463   9.454   8.130 -0.7378  0.1430 -1.1853
  373MOL0     C49126   1.351   9.489   8.228 -0.3799  0.2925 -0.3598
  373MOL0     C49127   1.221   9.548   8.188  0.6639  0.3163  0.9156
  373MOL0     O49128   1.145   9.539   8.305 -0.2584  0.0948 -0.3654
  373MOL0     C49129   1.012   9.521   8.308 -0.7630  0.0770 -0.6125
  373MOL0     C49130   0.962   9.479   8.436 -1.0249  0.1371  0.2292
  373MOL0     C49131   0.824   9.497   8.457  0.1777 -0.3351 -0.3554
  373MOL0     C49132   0.732   9.545   8.361 -1.6074  0.8198 -0.6664
  373MOL0     C49133   0.588   9.559   8.382 -0.1953  0.2259  0.2440
  373MOL0     O49134   0.537   9.496   8.489 -1.0691 -0.1035  0.1622
  373MOL0     C49135   0.409   9.501   8.525 -0.4381 -0.3473 -0.1977
  373MOL0     C49136   0.384   9.495   8.657 -0.3895 -0.1370 -1.0820
  373MOL0     C49137   0.261   9.494   8.716  0.2801 -0.3804 -0.3897
  373MOL0     C49138   0.147   9.521   8.645  0.5797  0.1930 -0.3642
  373MOL0     O49139   0.012   9.554   8.682 -0.8700  0.0927 -0.3479
  373MOL0     C49140  -0.037   9.497   8.805 -0.0334 -0.0883  0.2914
  373MOL0     C49141  -0.180   9.549   8.829 -0.0155 -0.8751 -0.0906
  373MOL0     C49142  -0.290   9.451   8.790 -0.4687  0.0779 -0.3779
  373MOL0     C49143  -0.424   9.530   8.785 -0.3063 -0.0509  0.0676
  373MOL0     C49144  -0.547   9.452   8.831 -0.9433  0.0920  0.0288
  373MOL0     C49145  -0.676   9.531   8.816  0.1925  0.3798  0.5256
  373MOL0     C49146  -0.796   9.443   8.841  0.1085  0.2985  0.2833
  373MOL0     C49147  -0.838   9.356   8.718 -0.0028 -0.2779  0.9419
  373MOL0    Cl49148  -0.970   9.243   8.752  0.1921 -0.1740 -0.0146
  373MOL0     C49149   0.165   9.541   8.508 -0.3312  0.1877 -0.3775
  373MOL0     C49150   0.296   9.526   8.450  0.2429 -0.3377 -0.3438
  373MOL0     O49151   0.529   9.632   8.298 -0.0360 -0.1471  0.1675
  373MOL0     C49152   0.782   9.579   8.234 -0.7261  0.6453 -0.6153
  373MOL0     C49153   0.923   9.569   8.208  0.3413 -0.0130  0.6044
  373MOL0     N49154   1.621   9.237   7.990  0.3510 -0.0891  0.1808
  373MOL0     N49155   1.700   9.217   7.892 -1.4088 -0.9563 -0.0431
  373MOL0     C49156   1.026   8.532   7.759 -0.4650  0.3226  0.7508
  373MOL0     C49157   0.890   8.558   7.758  0.0327  0.7486 -0.5054
  373MOL0     C49158   0.493   8.697   7.670 -0.1082 -0.3695 -0.7762
  373MOL0     C49159   0.383   8.646   7.599 -0.7785 -0.9421  0.4907
  373MOL0     C49160   0.254   8.708   7.609  0.6307  0.2842 -0.7902
  373MOL0     C49161   0.231   8.811   7.701 -0.5419 -0.1398  0.5723
  373MOL0     O49162   0.108   8.874   7.700 -0.0514  0.9800  0.1127
  373MOL0     C49163   0.079   8.991   7.785  0.6378  0.9058 -0.6109
  373MOL0     C49164  -0.074   9.004   7.769  0.1935 -0.1075 -0.0596
  373MOL0     C49165  -0.143   8.870   7.801  0.4842  0.0369 -0.8440
  373MOL0     C49166  -0.293   8.881   7.773  0.6126  0.1622 -0.4748
  373MOL0     C49167  -0.364   8.964   7.870 -0.7038  0.4734  0.2500
  373MOL0     C49168  -0.431   9.032   7.942 -0.6138 -0.4656 -0.0688
  373MOL0     C49169   0.340   8.859   7.778 -0.2624 -0.0003 -0.7407
  373MOL0     C49170   0.474   8.813   7.750  0.5603  0.2880  0.0953
  373MOL0     H49171   0.901   8.890   7.731  1.1981 -0.1981 -0.0850
  373MOL0     H49172   1.136   8.855   7.735 -3.0907  4.0843  2.2098
  373MOL0     H49173   1.429   8.644   7.805 -0.7266  1.0214  2.3923
  373MOL0     H49174   1.337   8.782   7.783 -3.1006 -0.0282 -1.5752
  373MOL0     H49175   1.391   8.612   7.543 -0.8402  1.4524 -1.0669
  373MOL0     H49176   1.521   8.715   7.594 -0.1677 -0.8912  0.4938
  373MOL0     H49177   1.247   8.803   7.493  0.1480  3.9439  0.5876
  373MOL0     H49178   1.400   8.789   7.396  0.4620  2.2464 -0.6839
  373MOL0     H49179   1.350   9.030   7.458  0.5949  0.4625 -0.0240
  373MOL0     H49180   1.332   8.972   7.626  1.5104 -2.0099  0.7815
  373MOL0     H49181   1.588   8.934   7.483 -1.8463 -1.1503 -1.0997
  373MOL0     H49182   1.545   8.969   7.659 -3.9920  2.1657  0.9429
  373MOL0     H49183   1.476   9.209   7.583  2.9273 -0.6158  4.9240
  373MOL0     H49184   1.523   9.168   7.419 -0.3372  0.3049  0.1906
  373MOL0     H49185   1.731   9.097   7.620 -1.4192 -0.8804  0.1387
  373MOL0     H49186   1.739   9.188   7.466 -1.0213 -1.4920 -1.1282
  373MOL0     H49187   1.665   9.393   7.615  1.8171 -0.4257 -0.9579
  373MOL0     H49188   1.815   9.328   7.659 -0.1287 -2.0162 -0.3706
  373MOL0     H49189   1.483   9.405   7.753 -0.4462  1.0329  1.0391
  373MOL0     H49190   1.369   9.262   8.082 -1.0186  1.7938  4.1764
  373MOL0     H49191   1.325   9.387   7.969  0.9785  1.3521  1.0192
  373MOL0     H49192   1.477   9.550   8.079 -0.7265  1.2850  0.8482
  373MOL0     H49193   1.556   9.422   8.178 -0.3122  0.5521 -1.7196
  373MOL0     H49194   1.324   9.401   8.287 -0.6000  0.4845 -0.1739
  373MOL0     H49195   1.388   9.563   8.299 -0.8859 -1.9129  2.3465
  373MOL0     H49196   1.176   9.502   8.100 -4.5174  4.4150  0.9382
  373MOL0     H49197   1.245   9.650   8.157  1.5846 -0.4961 -1.2267
  373MOL0     H49198   1.034   9.439   8.508  0.5823 -3.1686 -2.8752
  373MOL0     H49199   0.775   9.475   8.551 -3.5985  0.4553 -1.9741
  373MOL0     H49200   0.464   9.474   8.727  0.1151 -1.8118 -2.0861
  373MOL0     H49201   0.258   9.468   8.821 -0.1805  1.2205  0.0122
  373MOL0     H49202   0.032   9.528   8.884  0.3491 -1.1917  0.4147
  373MOL0     H49203  -0.032   9.389   8.791  0.7540  0.2447 -2.7626
  373MOL0     H49204  -0.189   9.641   8.771 -1.5902  0.3039  1.8895
  373MOL0     H49205  -0.195   9.570   8.935  0.5766  1.0152 -0.3529
  373MOL0     H49206  -0.284   9.367   8.860 -1.2694  0.8049  0.6037
  373MOL0     H49207  -0.276   9.419   8.687  1.3415  1.3176 -0.5684
  373MOL0     H49208  -0.415   9.625   8.840 -2.3461 -0.3386  0.9934
  373MOL0     H49209  -0.439   9.552   8.679  2.2880 -1.2265 -0.6278
  373MOL0     H49210  -0.535   9.423   8.936 -0.1076 -0.3683 -0.1809
  373MOL0     H49211  -0.561   9.367   8.763 -1.9322  0.9293 -0.8422
  373MOL0     H49212  -0.687   9.579   8.718  0.5971 -0.6862 -0.0551
  373MOL0     H49213  -0.674   9.609   8.893  4.5736  0.0292  1.0023
  373MOL0     H49214  -0.777   9.382   8.930 -2.7281  0.7626  1.3155
  373MOL0     H49215  -0.876   9.510   8.875 -1.0512  0.2074 -2.0586
  373MOL0     H49216  -0.756   9.303   8.668 -2.2705 -2.1386 -1.0252
  373MOL0     H49217  -0.872   9.426   8.641 -0.1269 -0.2908  0.9868
  373MOL0     H49218   0.081   9.553   8.439  1.0551  0.6450 -2.0488
  373MOL0     H49219   0.299   9.537   8.342  0.6799 -1.4824 -0.4627
  373MOL0     H49220   0.716   9.603   8.150 -0.4315  2.0921 -0.4602
  373MOL0     H49221   0.968   9.598   8.114 -1.5616 -0.4533 -0.4858
  373MOL0     H49222   1.070   8.432   7.763 -1.0179  0.0682  0.5801
  373MOL0     H49223   0.828   8.471   7.739  1.3761  0.0802 -2.1378
  373MOL0     H49224   0.401   8.564   7.530  0.3121  0.3339 -0.8031
  373MOL0     H49225   0.181   8.669   7.539  0.1305  0.8888 -0.6184
  373MOL0     H49226   0.136   9.077   7.748  1.4391 -0.5116 -2.8645
  373MOL0     H49227   0.106   8.972   7.889 -1.4626 -2.0464 -0.4793
  373MOL0     H49228  -0.108   9.088   7.831  0.8681 -1.9977  3.1467
  373MOL0     H49229  -0.103   9.039   7.670  0.7855  3.4260  0.8879
  373MOL0     H49230  -0.112   8.835   7.900  0.3245  0.8657 -0.4869
  373MOL0     H49231  -0.111   8.795   7.728 -1.1995  0.0965 -1.7030
  373MOL0     H49232  -0.309   8.934   7.678 -4.2739  1.7635  0.9426
  373MOL0     H49233  -0.340   8.783   7.760  0.9019  0.0396 -0.5945
  373MOL0     H49234  -0.484   9.107   7.997  0.2444  0.8273 -0.9440
  373MOL0     H49235   0.327   8.942   7.846  1.6638  0.1851 -0.5371
  373MOL0     H49236   0.548   8.880   7.793 -1.4936  1.2845  2.3973
  374MOL0     O49237   6.388   5.252   6.048  0.2728 -0.7043 -0.0881
  374MOL0     C49238   6.479   5.330   6.072 -0.1406  0.4339  0.5617
  374MOL0     O49239   6.458   5.461   6.107 -0.3288 -0.1005  0.0579
  374MOL0     C49240   6.332   5.507   6.137  0.6535 -0.0547  0.5726
  374MOL0     C49241   6.292   5.500   6.264  0.5191  0.8610 -0.0658
  374MOL0     C49242   6.165   5.546   6.304  0.0398  1.0341  0.2294
  374MOL0     C49243   6.071   5.593   6.203  0.5169 -0.6080 -0.1442
  374MOL0     O49244   5.940   5.621   6.223 -0.5739  0.3780 -0.2931
  374MOL0     C49245   5.912   5.722   6.325 -0.1068  1.3592 -0.4219
  374MOL0     C49246   5.778   5.796   6.298 -0.6888  0.0557 -0.1624
  374MOL0     C49247   5.659   5.699   6.275 -0.4781 -0.2169 -0.3885
  374MOL0     C49248   5.524   5.773   6.263  0.6298  0.2843  0.3609
  374MOL0     C49249   5.413   5.673   6.292  0.5085  1.3400  0.2561
  374MOL0     C49250   5.275   5.727   6.253  0.3713  0.1894 -0.3297
  374MOL0     C49251   5.169   5.616   6.235 -0.2855 -0.2715  0.7050
  374MOL0     C49252   5.156   5.539   6.363 -0.0677 -0.3347 -0.7847
  374MOL0     N49253   5.043   5.444   6.375  0.2022 -0.1652  0.2498
  374MOL0     C49254   4.996   5.350   6.290  0.2043 -0.0346 -0.0432
  374MOL0     C49255   4.878   5.313   6.336 -0.0636  0.5481  0.1590
  374MOL0     C49256   4.781   5.213   6.277 -0.0087 -0.3206  0.7461
  374MOL0     C49257   4.826   5.161   6.132  0.2921  0.7511 -0.0518
  374MOL0     C49258   4.755   5.043   6.069  0.6491  0.2473 -0.3493
  374MOL0     C49259   4.606   5.063   6.048 -0.4151 -0.3746 -0.2516
  374MOL0     O49260   4.554   4.960   5.971 -0.2890 -0.1903 -0.5151
  374MOL0     C49261   4.421   4.952   5.930 -0.4964 -0.0301 -0.0312
  374MOL0     C49262   4.331   5.055   5.973 -0.7050  0.6642 -0.5077
  374MOL0     C49263   4.202   5.037   5.935  0.7677 -0.0272  0.4392
  374MOL0     C49264   4.159   4.929   5.852  0.3979 -0.3085 -1.6175
  374MOL0     C49265   4.021   4.915   5.822 -0.0775 -0.2743 -0.2038
  374MOL0     O49266   3.937   4.979   5.906  0.4166  0.3258  0.6319
  374MOL0     C49267   3.804   4.994   5.857  0.1632 -1.1702 -0.4937
  374MOL0     C49268   3.695   4.930   5.912 -0.2795 -0.5586 -0.5618
  374MOL0     C49269   3.567   4.933   5.853  0.2696  0.0179  0.9574
  374MOL0     C49270   3.543   5.015   5.746 -0.4895 -0.8237  0.4015
  374MOL0     O49271   3.412   5.023   5.701 -0.0073  0.3596 -0.3746
  374MOL0     C49272   3.392   4.974   5.570  0.4415  0.5290  0.3030
  374MOL0     C49273   3.236   4.939   5.554 -1.0169 -0.2477  0.5567
  374MOL0     C49274   3.197   4.814   5.619 -0.2809  0.4433  0.0435
  374MOL0     C49275   3.063   4.762   5.565 -0.6973 -0.0145 -0.0062
  374MOL0     C49276   3.028   4.635   5.643 -0.6282 -0.6985  0.3424
  374MOL0     C49277   2.929   4.552   5.566  0.6313  0.6424 -0.4028
  374MOL0     C49278   2.804   4.632   5.529 -0.4029 -0.5020  1.0153
  374MOL0     C49279   2.688   4.541   5.472  0.5366 -0.4036 -0.0187
  374MOL0    Cl49280   2.750   4.421   5.351  0.6462  0.5827 -0.1952
  374MOL0     C49281   3.654   5.092   5.700 -0.3894 -0.5486  0.0357
  374MOL0     C49282   3.787   5.086   5.738  0.3998  0.9351 -0.0693
  374MOL0     O49283   3.998   4.869   5.716 -0.3218  0.8176  0.4619
  374MOL0     C49284   4.249   4.834   5.796 -0.0113 -0.2360 -0.0620
  374MOL0     C49285   4.382   4.840   5.843  0.0585  0.5466 -0.1553
  374MOL0     N49286   4.851   5.384   6.445  0.0301 -1.2424  0.4129
  374MOL0     N49287   4.947   5.467   6.462 -0.0974  0.4116 -0.2205
  374MOL0     C49288   6.117   5.597   6.072 -0.3346 -0.2807 -1.0589
  374MOL0     C49289   6.247   5.554   6.034  0.0576  0.1473  0.0871
  374MOL0     C49290   6.615   5.284   6.071  0.6090  0.4516 -0.8403
  374MOL0     C49291   6.726   5.370   6.045 -0.3818  0.1635  0.0131
  374MOL0     C49292   6.858   5.330   6.062 -0.0002  0.2375  1.2293
  374MOL0     C49293   6.887   5.193   6.090  0.4092 -0.0905 -0.7583
  374MOL0     O49294   7.017   5.158   6.111 -0.3573  0.1960 -0.4051
  374MOL0     C49295   7.132   5.241   6.083  0.2517  0.2515  0.5035
  374MOL0     C49296   7.177   5.236   5.933  1.1971 -0.2958 -0.5028
  374MOL0     C49297   7.211   5.097   5.868 -0.5253 -0.1035  0.3081
  374MOL0     C49298   7.201   5.113   5.712  0.6473  0.1417 -0.7495
  374MOL0     C49299   7.283   5.009   5.646 -0.6282 -0.4809 -0.3629
  374MOL0     C49300   7.350   4.934   5.582 -0.8498 -0.4413 -0.0230
  374MOL0     C49301   6.781   5.110   6.127  1.0098  0.0582  0.2114
  374MOL0     C49302   6.646   5.152   6.113 -0.2861  0.4077 -0.6248
  374MOL0     H49303   6.353   5.450   6.339 -1.2591 -1.0931  0.1526
  374MOL0     H49304   6.133   5.525   6.405 -0.3509 -0.2943 -0.1512
  374MOL0     H49305   6.000   5.786   6.330  0.9973 -0.1897  1.3740
  374MOL0     H49306   5.917   5.671   6.422  1.9008  1.5681 -0.3923
  374MOL0     H49307   5.807   5.861   6.214  1.9733  0.1192  0.7354
  374MOL0     H49308   5.764   5.868   6.380  1.0152 -0.8686  0.9950
  374MOL0     H49309   5.664   5.630   6.360  1.1347 -1.8524 -1.7382
  374MOL0     H49310   5.668   5.644   6.181  0.0009  2.0166 -1.7159
  374MOL0     H49311   5.520   5.841   6.349 -0.6344 -1.5236  1.8102
  374MOL0     H49312   5.504   5.828   6.170 -0.7614 -2.0075 -0.7782
  374MOL0     H49313   5.419   5.645   6.397  2.2884  0.7369  0.0352
  374MOL0     H49314   5.441   5.585   6.233 -1.6861  1.9964 -1.9381
  374MOL0     H49315   5.281   5.787   6.162  0.1305  1.9700  0.7810
  374MOL0     H49316   5.244   5.784   6.341 -0.8623 -0.8401 -0.0592
  374MOL0     H49317   5.070   5.661   6.227  0.6834  1.6881 -1.1012
  374MOL0     H49318   5.187   5.549   6.151 -0.1666 -4.3900  3.6729
  374MOL0     H49319   5.156   5.609   6.448  1.3076  0.4278 -1.3770
  374MOL0     H49320   5.251   5.486   6.373 -0.3554 -1.2143 -2.4754
  374MOL0     H49321   5.046   5.316   6.200  3.3713 -2.5973  2.4284
  374MOL0     H49322   4.688   5.265   6.250  0.8997  0.4669 -1.0489
  374MOL0     H49323   4.756   5.133   6.347 -2.9635 -1.9279 -1.8885
  374MOL0     H49324   4.931   5.133   6.127  0.5039  1.5493 -0.1761
  374MOL0     H49325   4.808   5.243   6.062 -0.4735 -1.0296 -2.0110
  374MOL0     H49326   4.803   5.035   5.972  2.5212  0.2062  0.5356
  374MOL0     H49327   4.782   4.951   6.122  1.5411 -1.3044 -3.3020
  374MOL0     H49328   4.592   5.158   5.995 -1.1045 -0.3608 -0.0535
  374MOL0     H49329   4.557   5.063   6.145  0.2680 -3.6584  0.2110
  374MOL0     H49330   4.367   5.142   6.026 -0.6878 -0.3922  1.2768
  374MOL0     H49331   4.139   5.121   5.964 -0.0563 -0.3457 -0.3845
  374MOL0     H49332   3.721   4.852   5.982 -3.7997 -2.8568 -1.5464
  374MOL0     H49333   3.481   4.874   5.882  0.9567 -0.9344  1.0727
  374MOL0     H49334   3.448   4.883   5.547 -0.9097 -0.4172  0.6630
  374MOL0     H49335   3.428   5.047   5.496  0.0830 -0.1262 -0.5371
  374MOL0     H49336   3.216   4.926   5.447  0.5847 -2.7522  0.4821
  374MOL0     H49337   3.174   5.025   5.584  0.8294  1.1280  0.6095
  374MOL0     H49338   3.182   4.841   5.724 -1.3730 -0.6520  0.1842
  374MOL0     H49339   3.276   4.739   5.610  2.3765  3.0019  0.5874
  374MOL0     H49340   2.986   4.838   5.582 -0.1812  0.7762 -1.1221
  374MOL0     H49341   3.078   4.744   5.458  1.5999  2.0905 -0.1368
  374MOL0     H49342   2.976   4.663   5.735 -3.2808  2.1824 -1.8117
  374MOL0     H49343   3.115   4.577   5.674  1.1335  1.6451  0.1175
  374MOL0     H49344   2.899   4.469   5.629 -3.4994  2.2538  0.0348
  374MOL0     H49345   2.976   4.516   5.474 -0.6297  2.4330 -1.8258
  374MOL0     H49346   2.771   4.671   5.625 -0.1822  0.2261  0.7996
  374MOL0     H49347   2.841   4.710   5.461 -0.1041  0.5734  2.3760
  374MOL0     H49348   2.612   4.616   5.451  1.1162  0.1490 -0.1876
  374MOL0     H49349   2.647   4.491   5.560  1.7235 -1.7304 -0.1810
  374MOL0     H49350   3.638   5.169   5.625 -2.0493  0.3196  1.2397
  374MOL0     H49351   3.863   5.140   5.684  1.1154 -0.4962 -0.5372
  374MOL0     H49352   4.221   4.757   5.725  0.5948 -2.9007  2.4117
  374MOL0     H49353   4.456   4.764   5.821  1.8373  1.9867  0.5904
  374MOL0     H49354   6.050   5.638   5.997  0.1931  0.2323 -1.2557
  374MOL0     H49355   6.277   5.569   5.931 -0.1805 -0.7134 -0.1171
  374MOL0     H49356   6.694   5.467   6.009 -0.6983  0.3512  0.7691
  374MOL0     H49357   6.936   5.404   6.055  0.0619  0.0913  0.0737
  374MOL0     H49358   7.211   5.195   6.144  0.0759 -3.2780 -1.6714
  374MOL0     H49359   7.125   5.347   6.111 -1.6775  1.0342 -2.4462
  374MOL0     H49360   7.099   5.288   5.876 -1.8985  0.2828  3.7106
  374MOL0     H49361   7.262   5.302   5.915 -0.6151  1.3779 -3.7319
  374MOL0     H49362   7.141   5.021   5.903  2.0856 -1.7076  2.4013
  374MOL0     H49363   7.312   5.070   5.899  0.2780 -0.6003 -2.4453
  374MOL0     H49364   7.097   5.104   5.678  0.1416  0.3568  0.6784
  374MOL0     H49365   7.236   5.213   5.685  0.4888 -0.0051 -1.5327
  374MOL0     H49366   7.405   4.866   5.520  0.8406  1.0095 -0.2375
  374MOL0     H49367   6.797   5.004   6.143 -2.1302 -0.2456  2.1490
  374MOL0     H49368   6.564   5.085   6.136  1.1980 -1.4525 -0.5214
  375MOL0     O49369   9.925   6.831   2.120 -0.5565 -0.2757  0.3232
  375MOL0     C49370   9.875   6.867   2.013  0.6883 -0.0460  0.2138
  375MOL0     O49371   9.745   6.925   1.999  0.8470 -0.2775  0.1914
  375MOL0     C49372   9.687   6.978   2.115  0.1759  0.1817 -1.0090
  375MOL0     C49373   9.554   6.947   2.156 -0.6144 -0.2237 -0.0653
  375MOL0     C49374   9.494   7.014   2.264 -0.6736 -0.0182  0.1570
  375MOL0     C49375   9.563   7.100   2.354 -1.1329  0.0198  0.3798
  375MOL0     O49376   9.493   7.136   2.465  0.0517  0.0033 -0.4886
  375MOL0     C49377   9.571   7.203   2.557 -0.1080 -0.6338 -0.2217
  375MOL0     C49378   9.495   7.226   2.686 -0.8081  0.9749  0.7004
  375MOL0     C49379   9.377   7.312   2.684 -0.6416  0.6188  0.1628
  375MOL0     C49380   9.294   7.313   2.808 -0.7497 -0.2195 -0.3514
  375MOL0     C49381   9.177   7.418   2.789 -0.3746  0.4086 -0.2642
  375MOL0     C49382   9.052   7.354   2.729  0.7100  0.5468  0.5336
  375MOL0     C49383   8.967   7.480   2.685  0.8732 -0.4927  0.5042
  375MOL0     C49384   8.832   7.443   2.617 -0.2500 -0.2518  0.5156
  375MOL0     N49385   8.775   7.552   2.544  0.1549 -0.1090  0.1119
  375MOL0     C49386   8.705   7.657   2.605 -0.6156  0.6617 -0.3056
  375MOL0     C49387   8.662   7.739   2.501  0.5804  0.4690  0.4096
  375MOL0     C49388   8.597   7.866   2.502 -0.5677 -1.6241  1.1905
  375MOL0     C49389   8.448   7.845   2.514  0.0110 -0.4734  0.3521
  375MOL0     C49390   8.379   7.857   2.378 -0.5905 -0.6656 -0.0083
  375MOL0     C49391   8.229   7.853   2.387 -0.1379 -0.0334 -0.9295
  375MOL0     O49392   8.175   7.730   2.450 -0.5326 -0.0294 -0.2710
  375MOL0     C49393   8.037   7.717   2.443 -0.2559  0.9894  0.3513
  375MOL0     C49394   7.952   7.814   2.379 -0.2989 -0.5394 -0.0707
  375MOL0     C49395   7.810   7.802   2.398  0.8083 -0.3659  0.1471
  375MOL0     C49396   7.751   7.702   2.483 -0.4773 -0.0578 -0.5183
  375MOL0     C49397   7.603   7.698   2.502  0.7118 -0.1298  0.9775
  375MOL0     O49398   7.555   7.585   2.566  0.0215  0.6491 -0.3278
  375MOL0     C49399   7.422   7.594   2.598  0.3922  0.2496  0.2630
  375MOL0     C49400   7.392   7.575   2.735  0.8404  0.6743  0.1701
  375MOL0     C49401   7.253   7.569   2.777  0.1619  0.4432 -0.0017
  375MOL0     C49402   7.150   7.599   2.684 -0.3779  0.3349 -0.2998
  375MOL0     O49403   7.020   7.614   2.729  0.4835 -0.0554 -0.6425
  375MOL0     C49404   6.919   7.673   2.638 -0.1387 -0.1417  0.0253
  375MOL0     C49405   6.819   7.753   2.724 -0.2610  0.4001  1.4753
  375MOL0     C49406   6.695   7.787   2.639 -0.4765 -0.3278 -0.6220
  375MOL0     C49407   6.624   7.912   2.702  0.2460  0.5904  0.8651
  375MOL0     C49408   6.473   7.885   2.700 -0.3959  0.8507 -0.6312
  375MOL0     C49409   6.403   7.885   2.562  0.3095  0.2220  0.7052
  375MOL0     C49410   6.249   7.866   2.567 -0.0230 -0.9016  0.3537
  375MOL0     C49411   6.183   7.895   2.427 -0.7306  0.5717 -0.5622
  375MOL0    Cl49412   6.280   7.835   2.277  0.3228 -0.2871 -0.2144
  375MOL0     C49413   7.183   7.602   2.553 -1.0232  0.3332  0.2482
  375MOL0     C49414   7.317   7.599   2.503 -0.6277  0.1415 -0.3577
  375MOL0     O49415   7.536   7.783   2.448  0.0844 -0.3578  0.6238
  375MOL0     C49416   7.841   7.618   2.559  0.8808  0.3249  0.3610
  375MOL0     C49417   7.981   7.627   2.540 -0.3427  0.3498 -0.2928
  375MOL0     N49418   8.696   7.675   2.384  0.0471  0.5210 -0.4574
  375MOL0     N49419   8.754   7.560   2.411  0.1615 -0.3059 -0.0535
  375MOL0     C49420   9.701   7.130   2.314 -0.6084  0.3248  0.0446
  375MOL0     C49421   9.754   7.064   2.201 -0.3402  0.2327  0.2625
  375MOL0     C49422   9.952   6.853   1.885 -0.0600 -0.3886  0.8869
  375MOL0     C49423  10.053   6.762   1.877 -0.8982  0.3950 -0.2695
  375MOL0     C49424  10.110   6.730   1.754  0.6150  0.0394  0.2062
  375MOL0     C49425  10.102   6.811   1.646 -0.1011 -0.0778  0.0883
  375MOL0     O49426  10.166   6.786   1.525 -0.3213  0.3082 -0.4219
  375MOL0     C49427  10.238   6.904   1.480  0.4416 -0.0184  0.2347
  375MOL0     C49428  10.343   6.842   1.390  0.2745 -0.2034 -0.9362
  375MOL0     C49429  10.433   6.951   1.340  0.0111 -0.2458  0.3915
  375MOL0     C49430  10.491   6.922   1.204 -0.2236  0.3627  0.0924
  375MOL0     C49431  10.393   6.931   1.096 -0.5160 -0.2779 -0.3140
  375MOL0     C49432  10.306   6.951   1.021 -0.7782 -0.7154 -0.1965
  375MOL0     C49433  10.007   6.914   1.656 -0.8576  0.1726 -0.3079
  375MOL0     C49434   9.938   6.938   1.774  0.6858  0.5119  0.1939
  375MOL0     H49435   9.501   6.873   2.096  1.3116 -2.7039  1.1062
  375MOL0     H49436   9.394   6.991   2.300 -0.9646  0.3872 -0.3641
  375MOL0     H49437   9.606   7.300   2.521 -0.9514  0.0914  0.8415
  375MOL0     H49438   9.653   7.132   2.570 -0.2961 -1.0311 -1.1455
  375MOL0     H49439   9.568   7.265   2.758 -0.5255  1.4712  0.1508
  375MOL0     H49440   9.457   7.131   2.725 -2.0905  1.8769  1.7157
  375MOL0     H49441   9.315   7.272   2.604 -1.5129  1.7262  0.2619
  375MOL0     H49442   9.410   7.412   2.654  2.0897 -0.4454 -0.7308
  375MOL0     H49443   9.258   7.213   2.833 -1.4483  0.6233  2.2682
  375MOL0     H49444   9.359   7.345   2.890  0.9464 -0.3732 -1.5551
  375MOL0     H49445   9.212   7.501   2.727  1.8242  0.0765  0.4378
  375MOL0     H49446   9.144   7.452   2.888 -3.8752  0.0818 -1.1619
  375MOL0     H49447   9.001   7.299   2.809 -0.7616  2.2188  0.8258
  375MOL0     H49448   9.071   7.282   2.649 -2.0600 -0.4259  0.6366
  375MOL0     H49449   8.953   7.543   2.773  1.4920 -0.4546  0.5811
  375MOL0     H49450   9.031   7.546   2.625  0.3837 -0.6507 -0.2084
  375MOL0     H49451   8.761   7.406   2.691  2.7929 -0.6678  3.4824
  375MOL0     H49452   8.844   7.367   2.539  2.1171  1.6686 -1.1869
  375MOL0     H49453   8.694   7.666   2.713  0.8141  1.0940 -0.1718
  375MOL0     H49454   8.622   7.928   2.415 -0.4869 -0.6123  1.9128
  375MOL0     H49455   8.629   7.929   2.585  0.4029  2.2602 -1.8105
  375MOL0     H49456   8.405   7.922   2.579 -0.8754  0.7202 -1.5381
  375MOL0     H49457   8.424   7.752   2.567  1.9486 -1.0209  0.3298
  375MOL0     H49458   8.413   7.952   2.335  0.7592 -0.5560  1.2395
  375MOL0     H49459   8.416   7.770   2.323  1.8486  1.4300 -1.9506
  375MOL0     H49460   8.181   7.854   2.289  1.2774  2.4338 -1.6807
  375MOL0     H49461   8.191   7.941   2.440  0.0989  0.0473 -0.8913
  375MOL0     H49462   7.993   7.894   2.317 -2.9087 -0.7291 -2.2144
  375MOL0     H49463   7.750   7.874   2.342  1.9654 -0.2231 -0.9685
  375MOL0     H49464   7.479   7.570   2.800  1.0617  3.2439  0.1609
  375MOL0     H49465   7.231   7.549   2.882 -1.0755 -1.1467 -0.5165
  375MOL0     H49466   6.868   7.601   2.573  0.4857  1.1490 -1.9752
  375MOL0     H49467   6.957   7.749   2.570  0.3442 -1.6281 -1.4286
  375MOL0     H49468   6.857   7.854   2.744  0.8460  0.3092  0.0512
  375MOL0     H49469   6.794   7.696   2.813  6.0738 -2.6060  1.8606
  375MOL0     H49470   6.623   7.705   2.631  1.0717 -2.2747  2.8946
  375MOL0     H49471   6.716   7.817   2.536 -2.9499 -2.4823 -1.8709
  375MOL0     H49472   6.652   7.925   2.807  2.0281  2.4252  0.2349
  375MOL0     H49473   6.645   8.003   2.645  1.1050  0.4561  0.9421
  375MOL0     H49474   6.433   7.963   2.766  2.7482 -0.0167  2.6028
  375MOL0     H49475   6.459   7.786   2.744 -0.5956  1.1384 -0.0344
  375MOL0     H49476   6.436   7.802   2.500 -0.7457  0.6884 -0.5516
  375MOL0     H49477   6.436   7.974   2.506  2.0616  0.1619  1.5857
  375MOL0     H49478   6.219   7.769   2.608 -3.7469  0.9509  2.5464
  375MOL0     H49479   6.225   7.944   2.639 -1.8945  0.3144 -1.4859
  375MOL0     H49480   6.162   8.002   2.431 -0.8998  0.5235  2.7829
  375MOL0     H49481   6.085   7.847   2.436 -1.1586  1.1393 -1.8725
  375MOL0     H49482   7.106   7.624   2.479 -0.2718  2.5183  0.0382
  375MOL0     H49483   7.349   7.605   2.399  1.6842 -2.4848  0.0630
  375MOL0     H49484   7.800   7.551   2.633 -1.1890 -3.2284 -3.5225
  375MOL0     H49485   8.048   7.567   2.601  0.2183  0.7928 -0.4746
  375MOL0     H49486   9.759   7.200   2.374  0.6506 -1.9166  1.5850
  375MOL0     H49487   9.854   7.095   2.171 -1.4314  2.5378 -1.2925
  375MOL0     H49488  10.074   6.695   1.960 -0.2374 -0.7951 -1.3769
  375MOL0     H49489  10.195   6.664   1.739  1.2766  1.5340 -3.8096
  375MOL0     H49490  10.278   6.965   1.561 -1.2602  1.2970  0.1329
  375MOL0     H49491  10.173   6.971   1.423  2.5844  2.4557  0.4811
  375MOL0     H49492  10.403   6.768   1.443 -0.7670 -0.7346 -0.4880
  375MOL0     H49493  10.288   6.794   1.309 -4.2465  3.2237 -0.3365
  375MOL0     H49494  10.524   6.959   1.401  0.1370 -0.1166  0.1851
  375MOL0     H49495  10.387   7.049   1.347 -1.7014 -0.8565 -1.5448
  375MOL0     H49496  10.575   6.989   1.183 -1.0369  1.1875 -0.5830
  375MOL0     H49497  10.529   6.821   1.190  2.1979  1.4442 -2.0218
  375MOL0     H49498  10.225   6.973   0.954 -0.4291 -0.7126 -0.6229
  375MOL0     H49499   9.984   6.979   1.572 -1.7401  1.6857  1.0631
  375MOL0     H49500   9.866   7.019   1.786  0.0102 -0.3103  1.9784
  376MOL0     O49501   2.126   8.486  11.203  0.1120 -0.0994 -0.1803
  376MOL0     C49502   2.127   8.586  11.280  0.6084 -0.5163 -0.4309
  376MOL0     O49503   2.010   8.638  11.336 -0.0700  0.0485 -0.1578
  376MOL0     C49504   1.884   8.583  11.323  0.0939 -0.2981  0.1380
  376MOL0     C49505   1.786   8.642  11.407 -0.4827  0.1721 -0.4629
  376MOL0     C49506   1.654   8.600  11.406  0.1395 -0.0448 -0.6836
  376MOL0     C49507   1.618   8.481  11.330  0.3131  0.2960  0.3752
  376MOL0     O49508   1.487   8.447  11.322  0.2569 -0.2765 -0.2763
  376MOL0     C49509   1.446   8.321  11.286  0.0219  0.2283  0.1875
  376MOL0     C49510   1.309   8.287  11.349  0.9339  0.1991 -0.7508
  376MOL0     C49511   1.231   8.178  11.274  0.3718  0.6286 -0.3907
  376MOL0     C49512   1.116   8.120  11.357 -0.5527  0.2068 -0.2680
  376MOL0     C49513   1.022   8.041  11.262 -0.0552  0.1295  0.4130
  376MOL0     C49514   0.910   7.964  11.331  0.0497 -0.2602  0.8601
  376MOL0     C49515   0.810   7.888  11.236 -0.0444 -0.3653  0.5641
  376MOL0     C49516   0.739   7.789  11.322 -0.1649  1.4751  0.1263
  376MOL0     N49517   0.634   7.710  11.247  0.6002  0.6858  0.1743
  376MOL0     C49518   0.610   7.580  11.239  0.9956  0.5890  0.1253
  376MOL0     C49519   0.485   7.569  11.185 -0.4455  0.5513  0.2473
  376MOL0     C49520   0.407   7.442  11.158  0.4977  0.6338  0.9697
  376MOL0     C49521   0.264   7.440  11.211 -0.3198  0.7599  0.3095
  376MOL0     C49522   0.177   7.318  11.176 -0.3533 -0.9963  0.0211
  376MOL0     C49523   0.031   7.356  11.153  0.8785 -0.8892 -0.1239
  376MOL0     O49524  -0.050   7.245  11.107 -0.6888 -0.4107 -0.1973
  376MOL0     C49525  -0.186   7.246  11.101  0.1539 -0.2224  0.6233
  376MOL0     C49526  -0.267   7.362  11.118  0.9853 -0.2331  0.7003
  376MOL0     C49527  -0.408   7.367  11.110 -0.0963 -0.4196 -0.6221
  376MOL0     C49528  -0.474   7.247  11.082  1.2845 -0.8130 -0.4860
  376MOL0     C49529  -0.618   7.256  11.054 -1.3263 -0.4805  0.5688
  376MOL0     O49530  -0.672   7.141  10.999  0.8165  0.1266  0.1209
  376MOL0     C49531  -0.802   7.148  10.954  1.2330 -0.6591 -1.2148
  376MOL0     C49532  -0.911   7.145  11.043 -0.4962 -0.8298 -0.5652
  376MOL0     C49533  -1.040   7.155  11.004  0.1740  0.1286 -0.2719
  376MOL0     C49534  -1.073   7.143  10.867  0.6014 -0.9813 -0.4127
  376MOL0     O49535  -1.207   7.123  10.838 -0.4477 -0.0421  0.7166
  376MOL0     C49536  -1.239   7.106  10.697 -0.0221 -0.2555  0.1409
  376MOL0     C49537  -1.384   7.143  10.664 -1.1315 -0.0688  0.7777
  376MOL0     C49538  -1.482   7.035  10.723 -0.1510 -0.1038  0.8145
  376MOL0     C49539  -1.637   7.058  10.698  0.2554 -1.1779  0.4305
  376MOL0     C49540  -1.731   6.979  10.791  0.2822  0.7368 -0.1268
  376MOL0     C49541  -1.741   6.833  10.747 -0.5956 -0.3212  0.0232
  376MOL0     C49542  -1.802   6.739  10.860 -0.4330  0.1949  0.2302
  376MOL0     C49543  -1.954   6.713  10.842 -0.1224 -0.6139 -0.6887
  376MOL0    Cl49544  -1.986   6.644  10.685  0.1208  0.3665  0.0048
  376MOL0     C49545  -0.969   7.138  10.779 -0.8858 -0.7855 -0.3343
  376MOL0     C49546  -0.835   7.150  10.819 -0.4176  0.4726  0.0328
  376MOL0     O49547  -0.677   7.353  11.098  0.3044  0.7008 -0.6126
  376MOL0     C49548  -0.400   7.125  11.063  0.3217 -0.1422  1.1857
  376MOL0     C49549  -0.258   7.132  11.059  0.6001  0.0016  0.0673
  376MOL0     N49550   0.443   7.697  11.158  0.4227 -0.0366  0.2057
  376MOL0     N49551   0.538   7.778  11.178  0.2788 -0.1173  0.8920
  376MOL0     C49552   1.714   8.413  11.250 -0.1052 -0.1773  1.6137
  376MOL0     C49553   1.841   8.475  11.237  0.5741  0.1240 -0.8505
  376MOL0     C49554   2.263   8.629  11.337  0.2444 -0.2369  0.8776
  376MOL0     C49555   2.377   8.548  11.303  0.2270  0.0860  1.1064
  376MOL0     C49556   2.508   8.584  11.341  0.5712 -0.0108 -0.4896
  376MOL0     C49557   2.532   8.703  11.408  0.4471 -0.5873 -0.1361
  376MOL0     O49558   2.663   8.752  11.429  0.6238 -0.1283  0.3817
  376MOL0     C49559   2.771   8.668  11.394 -0.4252 -0.7360 -0.3416
  376MOL0     C49560   2.907   8.747  11.421  0.5723  0.2846 -0.6528
  376MOL0     C49561   2.925   8.865  11.331  0.8757  0.5554 -0.5160
  376MOL0     C49562   3.071   8.911  11.335  0.6845 -0.1981 -0.4143
  376MOL0     C49563   3.095   8.986  11.465 -0.1957  1.2152  1.2233
  376MOL0     C49564   3.119   9.035  11.567  0.8369  0.2158 -0.4686
  376MOL0     C49565   2.423   8.782  11.442 -0.3161  0.3797 -0.1316
  376MOL0     C49566   2.290   8.746  11.410  0.1779  0.5214 -1.1903
  376MOL0     H49567   1.822   8.719  11.475 -0.0822  0.5459 -1.0942
  376MOL0     H49568   1.579   8.626  11.480  0.2934 -1.0076 -0.1684
  376MOL0     H49569   1.514   8.242  11.319  1.0811  1.9880  2.4467
  376MOL0     H49570   1.433   8.320  11.177 -0.4916  2.9276  0.1609
  376MOL0     H49571   1.244   8.375  11.361  1.2821  0.1624  2.1286
  376MOL0     H49572   1.329   8.249  11.450 -0.3155 -2.9820 -1.5887
  376MOL0     H49573   1.302   8.097  11.257  0.2582 -0.8242  4.4421
  376MOL0     H49574   1.192   8.215  11.179 -2.0688  1.1265  0.7060
  376MOL0     H49575   1.161   8.051  11.429  3.6413  1.6832 -1.1838
  376MOL0     H49576   1.062   8.201  11.406  0.7776  0.1870  1.3234
  376MOL0     H49577   1.077   7.972  11.198  0.5579  1.1261 -0.1624
  376MOL0     H49578   0.964   8.108  11.198 -0.8220  0.8965  1.8579
  376MOL0     H49579   0.849   8.040  11.381 -1.7499 -1.2632  0.2550
  376MOL0     H49580   0.954   7.890  11.399  0.8425  1.5184  2.4095
  376MOL0     H49581   0.738   7.961  11.198  1.8078  1.7442  0.9209
  376MOL0     H49582   0.857   7.835  11.153  1.6632  1.6797  0.1194
  376MOL0     H49583   0.693   7.837  11.409 -1.7971  0.6274 -0.2355
  376MOL0     H49584   0.820   7.722  11.353  1.4318  2.9975 -0.5706
  376MOL0     H49585   0.669   7.497  11.279  0.8791  0.4514  0.0120
  376MOL0     H49586   0.458   7.351  11.192  2.0861  1.3007  0.4786
  376MOL0     H49587   0.400   7.441  11.049 -1.3871  2.9969  0.9821
  376MOL0     H49588   0.208   7.528  11.180 -1.5716 -0.3402 -0.7130
  376MOL0     H49589   0.270   7.426  11.319  2.1530 -0.1076  0.1166
  376MOL0     H49590   0.229   7.269  11.093  2.1576 -1.3197  1.6520
  376MOL0     H49591   0.175   7.244  11.257 -0.0087 -0.7827  0.2285
  376MOL0     H49592   0.024   7.439  11.083 -0.4350  0.4569  1.5199
  376MOL0     H49593  -0.004   7.376  11.255  2.7361  0.1207  0.3637
  376MOL0     H49594  -0.207   7.451  11.137  1.4084 -0.8672  2.4957
  376MOL0     H49595  -0.459   7.462  11.117 -0.0616 -0.4535  0.2826
  376MOL0     H49596  -0.901   7.120  11.148 -2.6919  1.9432  0.4249
  376MOL0     H49597  -1.118   7.163  11.078 -2.0680 -2.5888 -2.1342
  376MOL0     H49598  -1.229   7.000  10.672 -2.1774 -1.0471  2.2509
  376MOL0     H49599  -1.173   7.178  10.649 -0.3619  1.5503  2.2005
  376MOL0     H49600  -1.393   7.148  10.555  0.6340 -2.0635  0.4871
  376MOL0     H49601  -1.397   7.241  10.710  2.2536  0.7410  0.2384
  376MOL0     H49602  -1.474   7.023  10.831 -2.8018  0.3440  1.1340
  376MOL0     H49603  -1.464   6.941  10.671  0.8262  1.8785 -2.7928
  376MOL0     H49604  -1.662   7.163  10.718 -0.6106 -1.2802 -0.0414
  376MOL0     H49605  -1.660   7.035  10.594  0.4958 -0.3223  0.1805
  376MOL0     H49606  -1.825   7.034  10.789  0.0376  0.3647 -2.7651
  376MOL0     H49607  -1.688   6.986  10.891  0.5204  0.8505 -0.2366
  376MOL0     H49608  -1.638   6.800  10.729  0.5698  0.9496  3.5459
  376MOL0     H49609  -1.796   6.823  10.653 -0.2163 -0.5118 -0.1821
  376MOL0     H49610  -1.751   6.643  10.854  1.1977  1.0993 -3.8071
  376MOL0     H49611  -1.787   6.780  10.960 -1.2114  2.0160 -0.3415
  376MOL0     H49612  -1.997   6.813  10.848 -0.1640 -0.5839 -1.4031
  376MOL0     H49613  -2.004   6.658  10.922 -1.4040  2.1557  0.5443
  376MOL0     H49614  -0.983   7.132  10.671 -2.2478  0.7542 -0.2717
  376MOL0     H49615  -0.758   7.131  10.744 -0.1558 -0.1299  0.4472
  376MOL0     H49616  -0.444   7.029  11.041 -0.4361 -0.0751  2.3456
  376MOL0     H49617  -0.211   7.040  11.028 -0.6854 -0.0037 -2.0354
  376MOL0     H49618   1.689   8.332  11.183  2.1315 -0.2254  0.7394
  376MOL0     H49619   1.895   8.427  11.156  0.7757 -0.8717 -0.1385
  376MOL0     H49620   2.373   8.451  11.255 -0.7210 -0.0514  1.4503
  376MOL0     H49621   2.592   8.525  11.303  1.9631  1.9572 -0.5934
  376MOL0     H49622   2.769   8.622  11.295 -0.6134 -1.7866  0.1274
  376MOL0     H49623   2.770   8.584  11.464  1.5987  0.2592  0.9795
  376MOL0     H49624   2.911   8.779  11.525  0.6439 -2.6447  0.3530
  376MOL0     H49625   2.986   8.671  11.410 -0.8956 -2.0484  3.0725
  376MOL0     H49626   2.865   8.945  11.374 -2.2039 -1.5022 -0.6742
  376MOL0     H49627   2.891   8.850  11.228  1.7866 -0.7766 -0.6681
  376MOL0     H49628   3.125   8.817  11.321  0.2848 -0.2900 -1.4568
  376MOL0     H49629   3.099   8.973  11.249  3.5773  0.6654  1.0087
  376MOL0     H49630   3.153   9.091  11.652  0.8410  1.4237 -1.2399
  376MOL0     H49631   2.451   8.879  11.481 -1.6778  1.5639 -1.9128
  376MOL0     H49632   2.214   8.816  11.443  1.0988  1.5919 -1.2502
  377MOL0     O49633   0.634   5.445   4.586  0.9183  0.0103 -0.0481
  377MOL0     C49634   0.708   5.360   4.524  0.3134 -1.0190  0.0927
  377MOL0     O49635   0.656   5.256   4.446 -0.0530 -0.2130  0.7622
  377MOL0     C49636   0.512   5.257   4.430  0.1642 -0.0918 -0.0413
  377MOL0     C49637   0.461   5.344   4.333  0.3100 -0.1326  1.0179
  377MOL0     C49638   0.325   5.346   4.307 -0.8224 -0.8049  0.2986
  377MOL0     C49639   0.242   5.268   4.387  0.6950  0.7704  1.0475
  377MOL0     O49640   0.106   5.263   4.376 -0.7055 -0.0620 -0.0765
  377MOL0     C49641   0.035   5.391   4.389 -0.5495 -0.1867 -0.6864
  377MOL0     C49642  -0.110   5.354   4.413  1.0463  0.3968  0.4653
  377MOL0     C49643  -0.195   5.483   4.420  0.2701  0.5421 -1.0780
  377MOL0     C49644  -0.344   5.443   4.429 -0.1253  0.2724 -0.4092
  377MOL0     C49645  -0.439   5.548   4.375 -0.0019  0.0003  0.0113
  377MOL0     C49646  -0.591   5.489   4.365 -0.5338  0.0349  0.2527
  377MOL0     C49647  -0.692   5.592   4.407  0.5934 -0.0572 -0.5606
  377MOL0     C49648  -0.833   5.552   4.359  0.2406  0.5169 -0.3685
  377MOL0     N49649  -0.875   5.416   4.386 -0.6239 -0.3950 -0.5481
  377MOL0     C49650  -0.923   5.359   4.498  0.4302  1.0282  0.0346
  377MOL0     C49651  -0.951   5.233   4.468 -0.5241  0.1676  0.4546
  377MOL0     C49652  -1.012   5.134   4.563 -0.1027  0.2653 -0.1291
  377MOL0     C49653  -1.147   5.089   4.530 -1.0718 -0.3534 -0.5501
  377MOL0     C49654  -1.244   5.207   4.528 -0.8710 -0.1784  0.1246
  377MOL0     C49655  -1.390   5.152   4.521  0.7624  0.2535  0.3970
  377MOL0     O49656  -1.478   5.257   4.547  0.7664  0.5869 -0.8743
  377MOL0     C49657  -1.608   5.233   4.530 -1.4913 -0.2685 -0.3782
  377MOL0     C49658  -1.667   5.108   4.518 -0.8623  0.1641  0.3146
  377MOL0     C49659  -1.805   5.097   4.507 -0.0648  0.5123  0.0253
  377MOL0     C49660  -1.882   5.208   4.498 -0.2501  0.4393  0.0169
  377MOL0     C49661  -2.026   5.189   4.498 -0.0078  0.2891 -0.3829
  377MOL0     O49662  -2.111   5.288   4.540  0.1117 -0.6673  0.2788
  377MOL0     C49663  -2.248   5.263   4.539 -0.5316  1.0954  0.2594
  377MOL0     C49664  -2.326   5.234   4.426  0.2206  0.7164  0.6771
  377MOL0     C49665  -2.462   5.221   4.425 -1.6399 -0.3678  0.5571
  377MOL0     C49666  -2.535   5.238   4.542  0.0356  0.9475  0.2295
  377MOL0     O49667  -2.671   5.241   4.548  0.0601 -0.1426 -0.1053
  377MOL0     C49668  -2.745   5.210   4.429 -0.2792  0.6458 -0.4755
  377MOL0     C49669  -2.893   5.194   4.457  0.1030 -0.6751  0.0414
  377MOL0     C49670  -2.971   5.325   4.447 -0.3617 -0.0445  0.0793
  377MOL0     C49671  -3.122   5.292   4.465 -0.4760 -0.2283  0.5652
  377MOL0     C49672  -3.221   5.404   4.468  1.0495 -0.4644 -0.0658
  377MOL0     C49673  -3.355   5.361   4.532 -0.2589  0.0129 -0.5824
  377MOL0     C49674  -3.432   5.254   4.447 -0.1833 -0.0689 -0.0629
  377MOL0     C49675  -3.570   5.212   4.500  0.0330  0.2747  0.0866
  377MOL0    Cl49676  -3.697   5.344   4.515 -0.3850 -0.2570 -0.0634
  377MOL0     C49677  -2.464   5.256   4.655 -0.8673 -0.3807 -0.3119
  377MOL0     C49678  -2.324   5.273   4.654 -0.1764  0.2568  0.2738
  377MOL0     O49679  -2.062   5.078   4.467  1.2337  0.1280 -0.2008
  377MOL0     C49680  -1.826   5.334   4.511 -0.0861  0.1745 -0.5884
  377MOL0     C49681  -1.687   5.343   4.531  0.8849 -0.8482 -1.0695
  377MOL0     N49682  -0.901   5.203   4.347 -0.2465  0.3714  0.1690
  377MOL0     N49683  -0.854   5.311   4.298  0.1529  0.1693  0.3144
  377MOL0     C49684   0.299   5.180   4.479 -0.1821  0.1982 -0.0520
  377MOL0     C49685   0.434   5.175   4.495  0.7815  0.7263 -0.3299
  377MOL0     C49686   0.855   5.377   4.539 -0.5376  0.5794  0.2171
  377MOL0     C49687   0.945   5.278   4.496 -0.1834  0.1833 -0.4291
  377MOL0     C49688   1.085   5.289   4.515 -0.3094  0.7563 -0.9712
  377MOL0     C49689   1.150   5.398   4.579 -0.6191 -0.6027 -0.0844
  377MOL0     O49690   1.279   5.403   4.611  0.0382 -0.4831 -0.1125
  377MOL0     C49691   1.356   5.460   4.511  0.2556  0.3190 -0.0854
  377MOL0     C49692   1.501   5.448   4.554  0.5205  0.5078 -0.4520
  377MOL0     C49693   1.542   5.302   4.585 -0.3380 -0.6142 -0.1144
  377MOL0     C49694   1.689   5.286   4.626 -0.7880 -0.0675 -1.0193
  377MOL0     C49695   1.742   5.164   4.570  0.8205 -0.2766 -0.2744
  377MOL0     C49696   1.787   5.055   4.547  0.5506  0.7212 -0.3076
  377MOL0     C49697   1.052   5.496   4.628 -0.2395 -0.6608  0.5467
  377MOL0     C49698   0.913   5.483   4.597  0.4655  0.2022  0.0346
  377MOL0     H49699   0.514   5.415   4.270 -1.6523  0.4413 -0.0368
  377MOL0     H49700   0.285   5.400   4.222 -0.3790 -1.3477 -0.2636
  377MOL0     H49701   0.046   5.450   4.297 -0.1682  0.6092 -0.1430
  377MOL0     H49702   0.063   5.460   4.468 -4.5707  0.4647  0.3755
  377MOL0     H49703  -0.125   5.293   4.503  2.8309 -1.2344 -0.2604
  377MOL0     H49704  -0.144   5.292   4.330 -3.3854 -1.8523  3.5460
  377MOL0     H49705  -0.177   5.550   4.336  1.8311  0.8967 -0.4992
  377MOL0     H49706  -0.166   5.534   4.512 -0.8834  1.8751 -1.4269
  377MOL0     H49707  -0.360   5.355   4.365  1.5546 -0.2703 -0.1311
  377MOL0     H49708  -0.375   5.405   4.526 -1.6723 -0.8863 -1.3019
  377MOL0     H49709  -0.400   5.593   4.283 -1.6741 -1.1573 -1.3241
  377MOL0     H49710  -0.441   5.632   4.445  2.3088 -0.0359  0.2192
  377MOL0     H49711  -0.594   5.399   4.427  4.5987  0.0549  0.9594
  377MOL0     H49712  -0.609   5.452   4.264  1.5515 -0.6026  0.0625
  377MOL0     H49713  -0.682   5.601   4.516  2.7283 -1.5404 -0.5672
  377MOL0     H49714  -0.675   5.693   4.369 -0.4715  1.0137  1.5969
  377MOL0     H49715  -0.836   5.576   4.252 -0.6324  0.7796 -0.2920
  377MOL0     H49716  -0.911   5.611   4.407 -0.5420 -1.2707  0.6371
  377MOL0     H49717  -0.965   5.404   4.588 -2.4698  0.1089 -0.7564
  377MOL0     H49718  -1.028   5.173   4.664 -3.6205  2.3479 -1.3343
  377MOL0     H49719  -0.940   5.051   4.558  0.3252  0.6825 -3.0818
  377MOL0     H49720  -1.180   5.019   4.607  2.0883 -0.8071  0.5548
  377MOL0     H49721  -1.143   5.041   4.432  0.9121 -0.3337 -0.5234
  377MOL0     H49722  -1.236   5.269   4.618 -2.3982  3.3238 -1.9541
  377MOL0     H49723  -1.217   5.263   4.438 -1.1585 -1.5395 -0.8294
  377MOL0     H49724  -1.399   5.072   4.595  1.6684  1.3316  1.7486
  377MOL0     H49725  -1.406   5.105   4.424 -0.0708 -1.5116  1.3457
  377MOL0     H49726  -1.606   5.018   4.517 -1.5741 -0.3884 -2.9142
  377MOL0     H49727  -1.848   4.997   4.509  0.5041  0.2684  0.3282
  377MOL0     H49728  -2.288   5.219   4.326 -0.2581 -1.0811  0.7408
  377MOL0     H49729  -2.517   5.203   4.332 -2.9273  2.4802  0.6540
  377MOL0     H49730  -2.705   5.111   4.408 -1.1460 -0.2433  1.6982
  377MOL0     H49731  -2.741   5.287   4.351  0.3681  2.9452  1.6766
  377MOL0     H49732  -2.914   5.147   4.554 -0.0932  1.0860  0.8844
  377MOL0     H49733  -2.937   5.125   4.383 -0.0253 -2.2472  1.5307
  377MOL0     H49734  -2.947   5.359   4.346  3.0382 -2.0541  0.0324
  377MOL0     H49735  -2.936   5.405   4.513 -1.9555 -0.9271  2.1186
  377MOL0     H49736  -3.154   5.217   4.391 -0.6182 -0.3838  0.7819
  377MOL0     H49737  -3.125   5.246   4.564  1.9314 -0.5221  0.5734
  377MOL0     H49738  -3.233   5.437   4.364  3.2074 -1.0975 -0.5696
  377MOL0     H49739  -3.181   5.490   4.521  0.4288  0.3989 -0.9582
  377MOL0     H49740  -3.423   5.445   4.550  1.2642  1.0817  0.4799
  377MOL0     H49741  -3.329   5.325   4.633 -0.2040  1.2528 -0.1383
  377MOL0     H49742  -3.447   5.302   4.350  1.6811  1.2917  0.2498
  377MOL0     H49743  -3.362   5.170   4.437  1.9943  1.6732 -0.3349
  377MOL0     H49744  -3.549   5.180   4.603  3.0306 -1.3574 -0.9154
  377MOL0     H49745  -3.603   5.124   4.444  3.0739 -0.3668 -0.8371
  377MOL0     H49746  -2.525   5.256   4.745  1.7676 -3.3128  1.7144
  377MOL0     H49747  -2.273   5.302   4.745 -2.7207  2.0874  1.2299
  377MOL0     H49748  -1.891   5.421   4.510 -3.1411 -1.8819  1.6563
  377MOL0     H49749  -1.646   5.439   4.557  0.6095 -1.3632  1.5555
  377MOL0     H49750   0.234   5.115   4.537 -0.5090  0.8977  0.3683
  377MOL0     H49751   0.466   5.104   4.570 -2.9330 -0.3920  0.4228
  377MOL0     H49752   0.896   5.201   4.438 -4.3212  2.3942 -0.2682
  377MOL0     H49753   1.151   5.211   4.479  0.8942  1.3694 -0.1739
  377MOL0     H49754   1.334   5.567   4.497 -0.2611  0.1504 -0.5610
  377MOL0     H49755   1.342   5.406   4.417  1.3939 -1.4497  0.7004
  377MOL0     H49756   1.569   5.480   4.474 -0.6867  0.7579 -1.3988
  377MOL0     H49757   1.520   5.509   4.643 -0.5611 -0.1154  0.2218
  377MOL0     H49758   1.523   5.246   4.493  0.7530 -2.3974  0.6959
  377MOL0     H49759   1.476   5.258   4.660  2.5769 -5.2109  0.1333
  377MOL0     H49760   1.745   5.378   4.606 -2.8519  1.8638  1.4169
  377MOL0     H49761   1.683   5.273   4.735 -1.6633  0.1679 -1.0344
  377MOL0     H49762   1.825   4.955   4.542 -4.1539 -1.2621 -1.8900
  377MOL0     H49763   1.090   5.585   4.676 -0.2249  0.2357 -1.0453
  377MOL0     H49764   0.848   5.559   4.639 -0.9797 -1.5728  1.1835
  378MOL0     O49765   3.137   2.283   4.386 -0.1900 -0.0196  0.3012
  378MOL0     C49766   3.202   2.270   4.489  0.0650  0.9643  0.1957
  378MOL0     O49767   3.332   2.307   4.503 -0.4589 -0.5320 -0.1935
  378MOL0     C49768   3.390   2.373   4.393 -0.2726  0.6877  0.3961
  378MOL0     C49769   3.499   2.314   4.325  0.2114 -0.2098  0.0495
  378MOL0     C49770   3.573   2.393   4.234  0.6418 -0.7596  0.2894
  378MOL0     C49771   3.533   2.523   4.199 -0.3079  0.8437 -0.4421
  378MOL0     O49772   3.612   2.610   4.121  0.2187  1.1748 -0.5394
  378MOL0     C49773   3.748   2.589   4.128 -0.7071  0.7756 -0.2948
  378MOL0     C49774   3.798   2.738   4.089 -0.6917 -0.3287 -0.6724
  378MOL0     C49775   3.947   2.731   4.070  1.1778  0.1470  0.1885
  378MOL0     C49776   3.989   2.867   3.995  0.2553  0.0469 -0.4158
  378MOL0     C49777   4.141   2.869   3.957 -0.3838  0.0327 -0.0743
  378MOL0     C49778   4.238   2.817   4.062  0.3109  0.0413 -0.6603
  378MOL0     C49779   4.387   2.833   4.026  0.0411 -0.4335 -0.7620
  378MOL0     C49780   4.476   2.786   4.142  1.3114  0.1900 -0.9696
  378MOL0     N49781   4.617   2.806   4.137 -0.0729 -0.1269  0.7332
  378MOL0     C49782   4.699   2.828   4.035 -1.0599  0.1709  0.4922
  378MOL0     C49783   4.816   2.870   4.078 -0.1426  0.4977  0.3851
  378MOL0     C49784   4.937   2.912   4.002 -0.9194  0.2337 -0.3043
  378MOL0     C49785   4.930   3.064   3.983  0.1157 -0.4795 -0.1294
  378MOL0     C49786   4.814   3.113   3.893  0.4098 -0.3676  0.2149
  378MOL0     C49787   4.830   3.067   3.749  1.0102  0.4085 -0.3072
  378MOL0     O49788   4.767   2.935   3.724  0.2836  0.0943 -0.0579
  378MOL0     C49789   4.628   2.940   3.693 -0.9979 -0.2816 -0.5393
  378MOL0     C49790   4.587   2.826   3.621  0.4780 -0.6568  0.8026
  378MOL0     C49791   4.456   2.813   3.574 -0.1651  0.1542 -0.3829
  378MOL0     C49792   4.357   2.906   3.612 -0.5406 -0.1627  0.0030
  378MOL0     C49793   4.211   2.884   3.573  0.4225 -0.9360  0.4689
  378MOL0     O49794   4.119   2.968   3.631 -0.2318 -0.1288 -1.7176
  378MOL0     C49795   3.987   2.923   3.644 -0.0209  0.5006  0.5606
  378MOL0     C49796   3.951   2.789   3.658  0.6440  0.3393 -0.1028
  378MOL0     C49797   3.817   2.759   3.680  0.2699  0.5451  0.3008
  378MOL0     C49798   3.718   2.860   3.698  0.4324 -1.0338  0.7061
  378MOL0     O49799   3.581   2.839   3.716 -0.3354 -0.1509  0.7694
  378MOL0     C49800   3.535   2.705   3.709 -0.7073 -0.1374 -0.6674
  378MOL0     C49801   3.388   2.692   3.738  0.3085  0.1495 -0.1125
  378MOL0     C49802   3.333   2.755   3.868 -0.5167 -0.0400  0.1377
  378MOL0     C49803   3.177   2.772   3.876 -0.0418  0.0975  0.0946
  378MOL0     C49804   3.139   2.883   3.981 -0.0084 -0.9570  0.7202
  378MOL0     C49805   3.152   2.828   4.121  1.1103 -0.1043  0.1503
  378MOL0     C49806   3.091   2.927   4.227 -0.4007  0.4285  0.1402
  378MOL0     C49807   3.074   2.852   4.358 -0.0487  0.3168 -0.8290
  378MOL0    Cl49808   3.234   2.820   4.420  0.0558  0.4084 -0.4139
  378MOL0     C49809   3.761   2.993   3.695  0.2797  0.7107 -0.4365
  378MOL0     C49810   3.890   3.017   3.669  0.7214  0.3295  0.3435
  378MOL0     O49811   4.186   2.797   3.487 -0.2553  0.5107 -0.7594
  378MOL0     C49812   4.393   3.002   3.696 -1.2942  0.2118 -0.3785
  378MOL0     C49813   4.530   3.027   3.732 -0.6722 -0.4545 -0.2746
  378MOL0     N49814   4.803   2.891   4.212  1.1238  0.3720  0.5868
  378MOL0     N49815   4.686   2.867   4.244 -0.3597 -0.2335 -0.8230
  378MOL0     C49816   3.409   2.567   4.255 -1.0223 -0.2049 -0.3348
  378MOL0     C49817   3.350   2.503   4.353  0.2611 -0.9156 -0.3625
  378MOL0     C49818   3.125   2.201   4.594 -0.1599  0.6942  0.3897
  378MOL0     C49819   3.190   2.150   4.703 -0.6570 -0.0733  0.3278
  378MOL0     C49820   3.127   2.074   4.804  0.1927 -1.3896 -0.0111
  378MOL0     C49821   2.994   2.040   4.790 -0.0332  0.5898 -0.2415
  378MOL0     O49822   2.912   1.971   4.876 -0.2493  0.3362  0.7238
  378MOL0     C49823   2.919   2.018   5.009 -0.5774  0.7308  0.3671
  378MOL0     C49824   2.841   1.920   5.100 -0.0453 -0.4596  0.3453
  378MOL0     C49825   2.880   1.771   5.090  0.1084 -0.3520 -0.3939
  378MOL0     C49826   3.029   1.746   5.113 -0.4723 -0.8036 -0.3775
  378MOL0     C49827   3.080   1.782   5.248 -1.1787 -1.2900 -0.1767
  378MOL0     C49828   3.129   1.802   5.359  0.1961  0.1639  0.1096
  378MOL0     C49829   2.929   2.080   4.670 -0.1372 -0.4679  0.1469
  378MOL0     C49830   2.988   2.165   4.579  0.3285  1.2815 -0.2729
  378MOL0     H49831   3.531   2.210   4.329 -1.8526 -0.8573  1.1993
  378MOL0     H49832   3.657   2.344   4.185  0.2205 -0.4138 -0.8080
  378MOL0     H49833   3.774   2.515   4.052 -4.5973 -1.0023 -0.1299
  378MOL0     H49834   3.791   2.561   4.225 -1.4410 -2.5679 -0.8157
  378MOL0     H49835   3.760   2.808   4.164 -1.5045 -0.6393 -0.7821
  378MOL0     H49836   3.753   2.761   3.992  0.2074 -0.6341 -1.1758
  378MOL0     H49837   3.964   2.649   3.999  1.2251  2.2991 -2.4306
  378MOL0     H49838   3.997   2.714   4.165 -2.9756  0.3254  2.6527
  378MOL0     H49839   3.924   2.893   3.910 -1.8864 -1.8556  0.5235
  378MOL0     H49840   3.979   2.948   4.067 -2.1111 -0.4493 -0.1053
  378MOL0     H49841   4.165   2.972   3.928  0.2430  0.1621  0.8614
  378MOL0     H49842   4.149   2.807   3.867 -1.7319  0.8231 -0.7749
  378MOL0     H49843   4.221   2.710   4.073  1.0289  0.0105  0.1814
  378MOL0     H49844   4.217   2.870   4.156  1.1038 -0.0274 -0.4405
  378MOL0     H49845   4.405   2.782   3.932  2.5171  3.7886 -2.8914
  378MOL0     H49846   4.402   2.938   3.999  2.5872 -1.2607 -2.9227
  378MOL0     H49847   4.459   2.679   4.158  0.2928  0.3474 -0.8961
  378MOL0     H49848   4.437   2.842   4.227 -0.4225 -1.2482 -0.7560
  378MOL0     H49849   4.682   2.808   3.930  0.1385  1.1894  0.0800
  378MOL0     H49850   4.940   2.871   3.900 -1.7477 -0.1088 -0.2000
  378MOL0     H49851   5.023   2.891   4.066 -0.8899 -0.0241 -0.4242
  378MOL0     H49852   5.021   3.104   3.938 -1.3846  3.0982 -0.3764
  378MOL0     H49853   4.926   3.098   4.087 -1.3529 -2.7468  0.6332
  378MOL0     H49854   4.715   3.087   3.931  0.4675 -2.1549 -0.7324
  378MOL0     H49855   4.818   3.222   3.890 -0.6805 -0.3395 -2.2658
  378MOL0     H49856   4.936   3.072   3.724  0.2239 -0.9328 -4.6329
  378MOL0     H49857   4.775   3.135   3.684  0.0302 -1.3714 -1.4287
  378MOL0     H49858   4.663   2.750   3.608  0.3519 -0.2985 -3.0404
  378MOL0     H49859   4.420   2.738   3.505  0.0815  0.7193 -1.1427
  378MOL0     H49860   4.021   2.706   3.658 -0.8453 -1.1721  3.8776
  378MOL0     H49861   3.799   2.652   3.687 -0.9673  0.6621 -0.7697
  378MOL0     H49862   3.587   2.636   3.777  0.5901  1.1113 -0.3440
  378MOL0     H49863   3.554   2.670   3.607  0.0686  1.5171 -1.1249
  378MOL0     H49864   3.366   2.585   3.738  2.6030 -0.4936  3.5501
  378MOL0     H49865   3.337   2.748   3.659  2.0732  0.7943 -0.8323
  378MOL0     H49866   3.383   2.850   3.893 -1.7097  0.9694 -1.1791
  378MOL0     H49867   3.366   2.694   3.953 -0.6259 -1.0520 -0.5287
  378MOL0     H49868   3.145   2.805   3.777  3.3030 -1.2451 -1.5706
  378MOL0     H49869   3.121   2.678   3.886 -2.8021  1.6188 -0.0520
  378MOL0     H49870   3.038   2.920   3.959  0.3611  0.3534  1.0846
  378MOL0     H49871   3.209   2.968   3.975  0.7330 -1.6407 -1.2279
  378MOL0     H49872   3.256   2.808   4.147  0.5349 -0.1352  2.6762
  378MOL0     H49873   3.111   2.727   4.118  3.8367 -1.2685 -1.3026
  378MOL0     H49874   3.158   3.010   4.249  2.3532 -0.9712 -2.3052
  378MOL0     H49875   2.989   2.948   4.192 -0.3052  1.1873  0.3044
  378MOL0     H49876   3.026   2.755   4.341  0.9793  0.0707 -2.5158
  378MOL0     H49877   3.019   2.906   4.436  0.4716  0.0131 -0.2351
  378MOL0     H49878   3.686   3.069   3.717  1.2767  2.5103 -2.7982
  378MOL0     H49879   3.921   3.121   3.682  1.1707  0.4655 -1.5145
  378MOL0     H49880   4.331   3.080   3.738 -1.0051  0.4703 -0.4223
  378MOL0     H49881   4.553   3.127   3.769 -1.1278  0.9560 -3.4633
  378MOL0     H49882   3.385   2.671   4.235  3.1983  1.4130  1.7081
  378MOL0     H49883   3.259   2.547   4.392  1.0945  0.1431  0.4614
  378MOL0     H49884   3.288   2.182   4.737 -0.1823 -1.1964  0.0768
  378MOL0     H49885   3.181   2.056   4.897 -0.1644 -0.1587  0.4503
  378MOL0     H49886   2.856   2.108   5.007 -0.9037  0.4975 -0.9607
  378MOL0     H49887   3.017   2.029   5.055 -1.5818 -0.8140  3.1393
  378MOL0     H49888   2.858   1.965   5.199 -0.1204  2.0664 -0.7320
  378MOL0     H49889   2.739   1.931   5.063  0.4165 -0.8029 -1.0748
  378MOL0     H49890   2.851   1.742   4.988  0.1094  0.4691 -0.6352
  378MOL0     H49891   2.820   1.711   5.158  0.9493 -0.2468  0.4569
  378MOL0     H49892   3.058   1.643   5.087 -0.3803 -0.9833  0.4100
  378MOL0     H49893   3.076   1.806   5.034 -1.7005 -1.3713 -1.5758
  378MOL0     H49894   3.167   1.825   5.457  1.3974 -2.7653  0.4348
  378MOL0     H49895   2.829   2.042   4.651  0.6218 -2.2934 -0.3687
  378MOL0     H49896   2.930   2.204   4.495 -0.7490  0.4782  0.0657
  379MOL0     O49897   4.991   9.037   6.420  0.1495  0.1931 -0.4938
  379MOL0     C49898   5.056   9.112   6.345  0.7571  0.1683 -0.5767
  379MOL0     O49899   5.001   9.181   6.235  0.1684 -0.1140 -0.6756
  379MOL0     C49900   4.869   9.161   6.197  0.2015  0.3684 -0.5439
  379MOL0     C49901   4.846   9.135   6.060 -0.4345  0.0593  0.0162
  379MOL0     C49902   4.721   9.126   6.015 -0.2232  0.7069  0.1392
  379MOL0     C49903   4.606   9.132   6.101 -0.2880 -0.3786  0.5798
  379MOL0     O49904   4.479   9.105   6.040 -1.1018  0.2979 -0.3482
  379MOL0     C49905   4.437   8.978   6.085  0.3756 -0.6044  0.6748
  379MOL0     C49906   4.315   8.925   6.005  0.4856 -0.2238 -0.3978
  379MOL0     C49907   4.235   8.829   6.095 -0.1957  0.2695  0.4762
  379MOL0     C49908   4.119   8.772   6.020 -0.5535 -0.1196  0.2978
  379MOL0     C49909   4.053   8.666   6.102 -0.2394  0.4645  0.1626
  379MOL0     C49910   3.942   8.592   6.025  0.1060 -1.1934  0.2584
  379MOL0     C49911   3.815   8.687   5.998 -0.3952 -0.2915 -0.1018
  379MOL0     C49912   3.722   8.713   6.120  0.7659  0.0859  0.0194
  379MOL0     N49913   3.664   8.852   6.139 -0.1491  0.0562 -0.2908
  379MOL0     C49914   3.562   8.901   6.072  0.1042 -0.2052  0.0034
  379MOL0     C49915   3.543   9.025   6.119 -0.0489 -0.7830 -0.4686
  379MOL0     C49916   3.454   9.136   6.065 -0.5772 -0.6977  0.2736
  379MOL0     C49917   3.324   9.165   6.134  0.5958 -0.5017 -0.4415
  379MOL0     C49918   3.241   9.280   6.078  0.4153 -0.0102 -0.9436
  379MOL0     C49919   3.091   9.246   6.104  0.6596 -0.0176 -0.6354
  379MOL0     O49920   3.050   9.155   5.992  0.1627 -0.7900 -0.7936
  379MOL0     C49921   2.914   9.149   5.955  0.2059 -0.7962 -0.2216
  379MOL0     C49922   2.811   9.162   6.053 -0.1538  0.2949 -0.6237
  379MOL0     C49923   2.673   9.125   6.014 -0.2418  0.8694 -0.0578
  379MOL0     C49924   2.643   9.098   5.877  0.2665  0.5335 -0.0055
  379MOL0     C49925   2.502   9.060   5.838 -0.6470 -0.2755 -0.8227
  379MOL0     O49926   2.471   9.012   5.714  0.3782  0.0859  0.3247
  379MOL0     C49927   2.338   8.981   5.700 -0.6266  0.4930 -1.0352
  379MOL0     C49928   2.266   8.886   5.777 -0.4691  0.2548  0.4435
  379MOL0     C49929   2.128   8.873   5.763  0.1146 -0.0053  0.0713
  379MOL0     C49930   2.056   8.946   5.670 -0.1031 -0.0679  0.1397
  379MOL0     O49931   1.919   8.936   5.652  0.3055 -0.2320  0.8612
  379MOL0     C49932   1.822   8.878   5.749 -0.4164  0.9200 -0.0845
  379MOL0     C49933   1.775   8.986   5.827  0.1164 -0.1348 -0.4385
  379MOL0     C49934   1.630   8.973   5.888 -0.0414 -0.6316 -0.6221
  379MOL0     C49935   1.589   9.107   5.949 -0.0444  0.6779 -0.4654
  379MOL0     C49936   1.454   9.098   6.009 -0.3344  0.1259  0.1599
  379MOL0     C49937   1.430   9.194   6.130 -0.5705 -0.6092  0.2981
  379MOL0     C49938   1.303   9.155   6.204  0.5437  0.0028  0.7970
  379MOL0     C49939   1.257   9.244   6.322 -0.2706  0.2125 -0.5744
  379MOL0    Cl49940   1.348   9.203   6.472  0.2465 -0.2001  0.0130
  379MOL0     C49941   2.127   9.043   5.595  0.4543 -0.5458 -0.5512
  379MOL0     C49942   2.265   9.061   5.608  0.8451  0.3214 -0.4546
  379MOL0     O49943   2.420   9.096   5.924 -0.3897  1.0187  0.6314
  379MOL0     C49944   2.746   9.106   5.781  1.2759  0.0184 -0.6215
  379MOL0     C49945   2.876   9.119   5.820 -0.4979 -0.3391 -0.5515
  379MOL0     N49946   3.631   9.044   6.225 -0.1710 -0.1794 -0.5979
  379MOL0     N49947   3.700   8.943   6.241 -0.6927  0.2373  0.0057
  379MOL0     C49948   4.629   9.171   6.229  0.3479 -0.3652 -0.5403
  379MOL0     C49949   4.759   9.190   6.284 -0.0241  0.6794  0.1422
  379MOL0     C49950   5.200   9.126   6.376 -0.4291 -0.3092 -0.3462
  379MOL0     C49951   5.258   9.062   6.491 -0.0419 -0.8981  0.1084
  379MOL0     C49952   5.398   9.072   6.509 -0.2941 -0.4266  1.4083
  379MOL0     C49953   5.475   9.157   6.419 -0.5828  0.6476 -0.0797
  379MOL0     O49954   5.603   9.182   6.444 -0.7460  0.6164 -0.3304
  379MOL0     C49955   5.684   9.071   6.409  0.7050  0.0033 -0.0632
  379MOL0     C49956   5.834   9.116   6.406  0.3150  0.1274  0.0013
  379MOL0     C49957   5.873   9.206   6.287 -0.8686  0.4311  0.3954
  379MOL0     C49958   5.995   9.299   6.318  0.5116 -0.0663  0.9174
  379MOL0     C49959   6.108   9.214   6.328 -0.1991  0.8096  0.0120
  379MOL0     C49960   6.199   9.140   6.344 -0.1471 -0.3524 -0.0375
  379MOL0     C49961   5.423   9.212   6.308 -0.0194  0.4602 -0.0164
  379MOL0     C49962   5.285   9.197   6.286 -0.5184 -0.1612  0.0526
  379MOL0     H49963   4.933   9.122   5.996 -1.1800 -1.6962 -0.7073
  379MOL0     H49964   4.701   9.096   5.912 -0.1870  0.8183  0.0992
  379MOL0     H49965   4.426   8.995   6.193  0.4980  0.6192  0.5076
  379MOL0     H49966   4.503   8.893   6.068 -1.0998 -1.3008 -2.1664
  379MOL0     H49967   4.349   8.859   5.924 -1.2539 -0.6571 -0.8139
  379MOL0     H49968   4.250   9.003   5.965 -0.1202 -0.2972  0.4129
  379MOL0     H49969   4.199   8.888   6.179  0.1842  0.8401  0.2428
  379MOL0     H49970   4.286   8.748   6.148 -0.8063  0.6073  1.5982
  379MOL0     H49971   4.052   8.856   5.996  0.8322  1.3154  1.3103
  379MOL0     H49972   4.161   8.736   5.926  1.4951 -2.5311  2.0262
  379MOL0     H49973   4.020   8.710   6.197  2.6090 -1.8641  2.4255
  379MOL0     H49974   4.124   8.588   6.131 -1.0982  0.4390  2.3918
  379MOL0     H49975   3.907   8.508   6.086 -0.3972 -1.3667 -0.2620
  379MOL0     H49976   3.980   8.566   5.926  0.8705  0.4448  0.1044
  379MOL0     H49977   3.850   8.785   5.966  0.0448  1.0060  3.7690
  379MOL0     H49978   3.755   8.645   5.918 -0.1794  0.0617 -0.4505
  379MOL0     H49979   3.779   8.694   6.211 -0.3069 -1.3340  0.4351
  379MOL0     H49980   3.644   8.638   6.105  1.4401 -0.6496  0.1686
  379MOL0     H49981   3.508   8.848   5.995  0.9873  1.0042 -1.5093
  379MOL0     H49982   3.428   9.108   5.963 -0.6673 -1.7260  0.5637
  379MOL0     H49983   3.513   9.228   6.070 -0.5321 -0.7618  1.1167
  379MOL0     H49984   3.332   9.178   6.242 -2.5348 -2.8362  0.2235
  379MOL0     H49985   3.274   9.069   6.117  2.3318 -1.5864  0.3052
  379MOL0     H49986   3.270   9.370   6.133 -0.7469  0.0973 -0.4717
  379MOL0     H49987   3.261   9.304   5.973 -1.0075  1.9857 -0.8194
  379MOL0     H49988   3.035   9.339   6.108 -1.5594 -1.3106  1.3161
  379MOL0     H49989   3.071   9.199   6.201  1.4699  0.1913 -0.3581
  379MOL0     H49990   2.840   9.162   6.157  0.0182  1.6964 -0.6555
  379MOL0     H49991   2.596   9.108   6.089  0.6339  0.3406  0.7544
  379MOL0     H49992   2.329   8.834   5.849  0.3078 -1.2129 -1.2105
  379MOL0     H49993   2.072   8.793   5.809  0.3737 -0.8010 -0.9517
  379MOL0     H49994   1.870   8.801   5.811  0.8070  2.1931  0.6278
  379MOL0     H49995   1.740   8.829   5.697 -0.7601  1.1072  0.2754
  379MOL0     H49996   1.766   9.061   5.748 -1.8527 -0.6700 -0.7923
  379MOL0     H49997   1.847   9.012   5.905  2.2754 -0.5301 -2.2015
  379MOL0     H49998   1.620   8.897   5.966  1.6837 -0.7394 -0.4752
  379MOL0     H49999   1.559   8.948   5.809 -0.6846  1.6022 -0.8272
  379MOL0     H50000   1.658   9.125   6.032 -0.0202 -1.5864  0.0741
  379MOL0     H50001   1.608   9.192   5.882  0.1003  1.6992  0.8393
  379MOL0     H50002   1.425   8.996   6.036  0.3439 -0.3977 -1.0119
  379MOL0     H50003   1.387   9.127   5.928  1.2186  0.3247 -1.0988
  379MOL0     H50004   1.431   9.299   6.098 -0.0883 -1.1950 -1.7633
  379MOL0     H50005   1.519   9.195   6.193 -0.8886 -0.2268  0.7481
  379MOL0     H50006   1.222   9.152   6.131 -1.9162  0.6064  3.3350
  379MOL0     H50007   1.315   9.053   6.242 -1.5854 -0.4428  0.3712
  379MOL0     H50008   1.153   9.227   6.350  0.4147 -0.7443  1.6023
  379MOL0     H50009   1.277   9.350   6.303  0.5653  0.2894  0.6562
  379MOL0     H50010   2.074   9.102   5.522 -0.4746 -1.3682 -0.5629
  379MOL0     H50011   2.320   9.137   5.553 -1.2955  0.3519 -2.7562
  379MOL0     H50012   2.719   9.093   5.676 -2.6760 -0.5641  0.3257
  379MOL0     H50013   2.959   9.102   5.753 -0.2669  0.9327 -0.6062
  379MOL0     H50014   4.544   9.193   6.294 -0.9322 -2.0712 -1.5529
  379MOL0     H50015   4.784   9.210   6.388 -0.0639 -2.0229  0.7499
  379MOL0     H50016   5.195   9.008   6.561 -3.2157  4.5291  2.1003
  379MOL0     H50017   5.438   9.024   6.597 -3.1856 -2.8681  1.5862
  379MOL0     H50018   5.656   9.019   6.318  2.9217 -0.9666 -0.2430
  379MOL0     H50019   5.668   8.995   6.486 -3.2491 -1.0046 -1.6145
  379MOL0     H50020   5.859   9.178   6.492  1.5532  0.1938 -0.3806
  379MOL0     H50021   5.911   9.038   6.408 -1.0558 -1.2679 -0.4452
  379MOL0     H50022   5.787   9.272   6.272 -1.4168 -0.7648 -2.5077
  379MOL0     H50023   5.888   9.149   6.195  2.3385  0.8771  0.5307
  379MOL0     H50024   6.028   9.370   6.241  0.0499  1.6081  2.2064
  379MOL0     H50025   5.967   9.356   6.407 -0.5713 -1.9139  1.8074
  379MOL0     H50026   6.263   9.054   6.353  0.3377  0.2233  3.9515
  379MOL0     H50027   5.489   9.271   6.245 -0.8439  1.2037 -0.2016
  379MOL0     H50028   5.240   9.249   6.202 -3.9108  0.6139  2.1457
  380MOL0     O50029   5.099   5.125   7.802 -0.1146  0.2366  0.4212
  380MOL0     C50030   4.999   5.072   7.856 -0.0394  0.4249  0.4638
  380MOL0     O50031   4.873   5.080   7.823  0.0145  0.3612 -1.2576
  380MOL0     C50032   4.839   5.123   7.697  0.0865  0.4697 -0.1898
  380MOL0     C50033   4.876   5.251   7.660  0.3329 -0.3658  0.0137
  380MOL0     C50034   4.829   5.309   7.539 -0.1023  0.9418 -0.5113
  380MOL0     C50035   4.761   5.231   7.448  0.6507 -0.7257  0.0614
  380MOL0     O50036   4.719   5.293   7.324  0.6439  0.8610  0.4184
  380MOL0     C50037   4.640   5.404   7.349 -0.4002 -0.2550 -0.5235
  380MOL0     C50038   4.543   5.419   7.237 -0.1616 -0.1505  0.4354
  380MOL0     C50039   4.425   5.313   7.249 -0.6020 -0.9971  0.1201
  380MOL0     C50040   4.294   5.372   7.197 -0.1707  0.1486 -0.4857
  380MOL0     C50041   4.181   5.279   7.234 -0.2617 -0.5048  0.3724
  380MOL0     C50042   4.040   5.334   7.190  0.6639  0.3917  0.0870
  380MOL0     C50043   3.918   5.255   7.243 -1.1047  0.3376  0.6489
  380MOL0     C50044   3.896   5.250   7.399 -0.0095 -0.4934 -0.5050
  380MOL0     N50045   3.881   5.375   7.473  0.8587  0.2998 -0.3300
  380MOL0     C50046   3.984   5.455   7.513 -0.6033  0.2257 -0.0590
  380MOL0     C50047   3.937   5.525   7.618  0.4184 -0.8294 -0.0170
  380MOL0     C50048   4.011   5.629   7.695 -0.7565 -0.2973 -0.0927
  380MOL0     C50049   4.052   5.577   7.838 -0.6157 -0.2108 -0.1738
  380MOL0     C50050   4.108   5.688   7.925  0.0981  0.6134 -0.9700
  380MOL0     C50051   4.234   5.763   7.869  0.0902  0.0882 -0.3868
  380MOL0     O50052   4.271   5.861   7.968  0.1517 -0.1776 -0.2187
  380MOL0     C50053   4.390   5.925   7.928 -1.4285 -0.0552 -0.1436
  380MOL0     C50054   4.516   5.863   7.935  0.8911 -0.3098  0.9259
  380MOL0     C50055   4.633   5.924   7.886  0.0856 -0.2283  0.2078
  380MOL0     C50056   4.618   6.054   7.836  0.1777  0.3124 -0.0106
  380MOL0     C50057   4.739   6.115   7.779 -0.1628  0.5570 -0.2689
  380MOL0     O50058   4.812   6.020   7.714  0.2133 -0.1083 -0.1004
  380MOL0     C50059   4.940   6.048   7.684 -0.2396 -0.3653  0.2923
  380MOL0     C50060   5.032   6.040   7.785  0.1754 -0.0279 -0.2237
  380MOL0     C50061   5.163   6.076   7.771  0.1194 -0.5742  0.2198
  380MOL0     C50062   5.194   6.130   7.648  0.5806  0.8361  0.4491
  380MOL0     O50063   5.314   6.174   7.612  0.2018 -0.1110  0.6269
  380MOL0     C50064   5.414   6.205   7.709 -0.3526  0.2666 -0.4967
  380MOL0     C50065   5.501   6.319   7.649 -0.0624  0.2687  0.4997
  380MOL0     C50066   5.632   6.334   7.730 -0.1475  0.3856 -0.3704
  380MOL0     C50067   5.735   6.413   7.652  0.2110 -1.4365 -0.0101
  380MOL0     C50068   5.877   6.400   7.710 -0.0935 -0.3137 -0.6192
  380MOL0     C50069   5.979   6.486   7.635 -0.6611  0.3364  0.2652
  380MOL0     C50070   6.128   6.438   7.654  0.2611  0.6588 -0.0876
  380MOL0     C50071   6.226   6.517   7.561 -0.2837  0.2331 -1.1072
  380MOL0    Cl50072   6.172   6.533   7.391 -0.0188  0.2936  0.0686
  380MOL0     C50073   5.103   6.138   7.549 -0.4138 -0.3793  0.1105
  380MOL0     C50074   4.972   6.092   7.556 -0.3329 -0.3317  0.4639
  380MOL0     O50075   4.771   6.232   7.793 -0.7981  0.2290 -0.0303
  380MOL0     C50076   4.495   6.122   7.833  0.2947 -0.8988 -0.3492
  380MOL0     C50077   4.375   6.056   7.877 -0.7568 -0.3568  0.1721
  380MOL0     N50078   3.812   5.481   7.642  0.1310  0.4642 -0.3051
  380MOL0     N50079   3.772   5.402   7.545  0.7372 -0.0041  0.6239
  380MOL0     C50080   4.740   5.096   7.485 -0.6227  0.0512  0.3816
  380MOL0     C50081   4.773   5.042   7.608  0.4491  0.5547 -0.6248
  380MOL0     C50082   5.027   4.962   7.961 -0.7554  0.2618 -0.1270
  380MOL0     C50083   5.141   4.963   8.049  0.6095  0.5904  0.4156
  380MOL0     C50084   5.159   4.871   8.154 -0.5084  0.1795  0.0232
  380MOL0     C50085   5.063   4.767   8.176  0.7123 -0.4804  0.2281
  380MOL0     O50086   5.085   4.676   8.276  0.0138 -0.7988 -0.3088
  380MOL0     C50087   5.085   4.538   8.235  0.4250 -0.3368 -0.0181
  380MOL0     C50088   5.129   4.445   8.348 -0.0955  0.4163 -0.7588
  380MOL0     C50089   5.279   4.449   8.355  0.3248  0.4745 -0.4111
  380MOL0     C50090   5.326   4.472   8.502  0.0548  0.3436 -0.7219
  380MOL0     C50091   5.471   4.505   8.520 -0.0124  0.1162  0.8431
  380MOL0     C50092   5.588   4.540   8.536  0.4409  0.4237  1.1626
  380MOL0     C50093   4.953   4.757   8.082 -0.2429 -0.0706  0.5173
  380MOL0     C50094   4.940   4.855   7.975  0.8742 -0.2224  0.4992
  380MOL0     H50095   4.922   5.307   7.741 -2.5138  2.9182 -0.4053
  380MOL0     H50096   4.864   5.407   7.508  1.3282  0.6387  0.0709
  380MOL0     H50097   4.709   5.489   7.350  0.5134 -0.9264 -2.2102
  380MOL0     H50098   4.580   5.391   7.439  2.5062 -1.3504  1.4283
  380MOL0     H50099   4.596   5.397   7.144  1.9556  0.5857  1.3944
  380MOL0     H50100   4.497   5.518   7.243 -2.7665 -1.2455  0.0771
  380MOL0     H50101   4.415   5.278   7.352  1.8259 -2.2178  0.0046
  380MOL0     H50102   4.459   5.229   7.188  0.7015  0.8741 -1.8882
  380MOL0     H50103   4.273   5.464   7.252  0.2279 -1.2997  2.3083
  380MOL0     H50104   4.307   5.391   7.090  0.8105  1.2279 -0.1939
  380MOL0     H50105   4.199   5.267   7.341 -0.1111 -0.0661  0.3975
  380MOL0     H50106   4.205   5.184   7.185 -2.8594 -0.4864 -1.0863
  380MOL0     H50107   4.038   5.343   7.080 -0.3093 -1.2228 -0.0594
  380MOL0     H50108   4.023   5.436   7.227  1.5717 -0.1849  2.2216
  380MOL0     H50109   3.820   5.291   7.208 -1.1431 -0.8801 -0.5462
  380MOL0     H50110   3.934   5.153   7.207 -0.3626  0.8955 -0.6775
  380MOL0     H50111   3.988   5.206   7.440  0.9324  4.2192  3.3156
  380MOL0     H50112   3.813   5.184   7.425 -1.2140  1.8313  2.0585
  380MOL0     H50113   4.083   5.467   7.469 -0.8205  2.3680 -0.0819
  380MOL0     H50114   3.949   5.719   7.700  0.6064  0.6085  1.5172
  380MOL0     H50115   4.097   5.657   7.632 -0.4034 -4.1809 -1.6219
  380MOL0     H50116   4.125   5.496   7.831 -0.4751  0.0133 -1.5906
  380MOL0     H50117   3.960   5.545   7.888 -0.8663 -0.7777 -0.9805
  380MOL0     H50118   4.033   5.765   7.944  1.3539  1.2966  1.8163
  380MOL0     H50119   4.126   5.649   8.026 -0.6002  1.5643 -0.4529
  380MOL0     H50120   4.200   5.812   7.777 -0.8445  2.5605  1.1733
  380MOL0     H50121   4.321   5.699   7.854 -0.1102 -0.3134  0.1278
  380MOL0     H50122   4.515   5.766   7.984 -1.2287 -0.0510  1.4511
  380MOL0     H50123   4.716   5.854   7.885 -0.8382 -1.3497  0.0512
  380MOL0     H50124   4.991   6.024   7.885  0.4951  2.1996  0.3126
  380MOL0     H50125   5.235   6.051   7.848  1.0721 -2.7984 -1.2893
  380MOL0     H50126   5.478   6.119   7.730  0.6281  1.0507 -0.1911
  380MOL0     H50127   5.374   6.231   7.807  1.7716  0.4389  0.3871
  380MOL0     H50128   5.437   6.408   7.650 -2.6302 -1.4969  0.6126
  380MOL0     H50129   5.531   6.292   7.547  0.1328  0.6675  0.4472
  380MOL0     H50130   5.683   6.237   7.740  1.6276  1.3915  0.8809
  380MOL0     H50131   5.613   6.377   7.829 -0.7867  2.6798 -1.4345
  380MOL0     H50132   5.731   6.389   7.545  0.2922  1.2314 -0.6786
  380MOL0     H50133   5.699   6.516   7.657 -0.2875 -1.5191 -1.5416
  380MOL0     H50134   5.903   6.294   7.698  0.3394 -0.0530 -2.3712
  380MOL0     H50135   5.880   6.420   7.817 -0.3196  0.5993 -0.7752
  380MOL0     H50136   5.965   6.589   7.667  0.7739  1.1044 -1.3953
  380MOL0     H50137   5.960   6.489   7.527  2.5619 -1.1070 -0.4971
  380MOL0     H50138   6.140   6.447   7.762  0.2024  0.5663 -0.0733
  380MOL0     H50139   6.137   6.330   7.642  1.9649  0.7887 -0.2247
  380MOL0     H50140   6.321   6.463   7.571  0.6889  1.8879 -1.0302
  380MOL0     H50141   6.244   6.620   7.595 -0.0024  0.6224 -2.3944
  380MOL0     H50142   5.145   6.180   7.458 -1.9129 -4.6639 -2.8887
  380MOL0     H50143   4.900   6.092   7.474 -2.5840  3.4515  2.1634
  380MOL0     H50144   4.476   6.225   7.806 -0.7175 -0.6750  1.1145
  380MOL0     H50145   4.279   6.107   7.874 -1.3005 -1.3734 -1.6695
  380MOL0     H50146   4.691   5.030   7.414  1.4897 -1.5163  0.2678
  380MOL0     H50147   4.732   4.944   7.632 -2.9891  1.6461 -1.4588
  380MOL0     H50148   5.214   5.040   8.027  1.5695 -0.4319 -0.0675
  380MOL0     H50149   5.243   4.882   8.223 -0.6783 -0.5534  0.3531
  380MOL0     H50150   5.150   4.529   8.148  0.9314  0.1922  0.2960
  380MOL0     H50151   4.985   4.507   8.204 -1.7630  5.6272 -0.2234
  380MOL0     H50152   5.087   4.476   8.444  0.7824  1.3908 -0.6709
  380MOL0     H50153   5.099   4.343   8.323  3.7013 -0.7976 -1.0457
  380MOL0     H50154   5.314   4.533   8.295  0.9727 -0.5975 -1.5771
  380MOL0     H50155   5.320   4.359   8.309 -1.6499 -1.1663  0.8371
  380MOL0     H50156   5.267   4.550   8.551  1.7134 -0.4137  2.7618
  380MOL0     H50157   5.314   4.382   8.563  1.5941  1.7475  1.8181
  380MOL0     H50158   5.674   4.603   8.540 -0.2387  1.3667  1.2393
  380MOL0     H50159   4.870   4.690   8.102  0.2149 -1.0553 -0.7432
  380MOL0     H50160   4.858   4.840   7.905  0.9272  0.3200  0.3190
  381MOL0     O50161  10.291   1.630  10.227  0.4421 -0.1279 -0.4096
  381MOL0     C50162  10.363   1.712  10.161  0.5881  0.9889 -0.7605
  381MOL0     O50163  10.312   1.787  10.063  0.0975 -0.2129  0.3982
  381MOL0     C50164  10.173   1.766  10.035  0.0175 -0.1044 -0.0130
  381MOL0     C50165  10.072   1.817  10.120 -0.5207  1.3724 -1.2188
  381MOL0     C50166   9.938   1.802  10.094  0.3913 -0.3805  0.5409
  381MOL0     C50167   9.889   1.756   9.971  0.5181  0.3010 -0.2973
  381MOL0     O50168   9.757   1.785   9.951  0.2330  0.3260  0.5504
  381MOL0     C50169   9.688   1.723   9.841 -0.5321  0.0686 -0.3154
  381MOL0     C50170   9.539   1.733   9.865  0.2982 -0.4184  0.0122
  381MOL0     C50171   9.453   1.637   9.783 -0.4767 -0.4737  0.0794
  381MOL0     C50172   9.307   1.658   9.811  0.6223 -1.1700 -0.5876
  381MOL0     C50173   9.209   1.595   9.709  0.6877  0.4119 -0.7912
  381MOL0     C50174   9.247   1.457   9.669  0.4387 -1.2299 -0.2072
  381MOL0     C50175   9.139   1.399   9.567 -0.1761  0.1485  0.7783
  381MOL0     C50176   9.011   1.352   9.634 -0.1902 -0.2745 -1.0602
  381MOL0     N50177   8.920   1.292   9.539  0.3485 -0.3221  0.5111
  381MOL0     C50178   8.953   1.192   9.450  0.5737  0.5469 -0.3257
  381MOL0     C50179   8.843   1.152   9.387  1.1224  0.5010 -0.8434
  381MOL0     C50180   8.829   1.055   9.276 -0.5044 -0.1305  0.3718
  381MOL0     C50181   8.821   0.910   9.324 -0.1021  0.2261 -0.0447
  381MOL0     C50182   8.727   0.877   9.433  0.2264 -0.0762 -0.2249
  381MOL0     C50183   8.580   0.892   9.391 -0.2734  0.4752 -0.2169
  381MOL0     O50184   8.542   0.840   9.266 -0.2759 -0.5509 -0.0860
  381MOL0     C50185   8.418   0.831   9.230 -0.1774  0.1014  0.1785
  381MOL0     C50186   8.337   0.942   9.219  0.3459  0.4144 -0.0100
  381MOL0     C50187   8.210   0.935   9.170 -0.3169 -1.0152  0.1645
  381MOL0     C50188   8.145   0.814   9.142  0.3423  0.5801  0.9878
  381MOL0     C50189   8.012   0.808   9.082 -1.2478  0.4320  0.4382
  381MOL0     O50190   7.939   0.918   9.085  0.0172  0.1527  0.6167
  381MOL0     C50191   7.823   0.915   9.011 -0.5664 -0.5051  0.4337
  381MOL0     C50192   7.713   0.850   9.060 -0.3917  1.2611  1.0292
  381MOL0     C50193   7.595   0.846   8.991  0.4231 -0.2383 -0.7294
  381MOL0     C50194   7.570   0.924   8.873 -0.4436 -1.5604  0.2997
  381MOL0     O50195   7.454   0.959   8.819 -0.0726 -0.5607 -0.3038
  381MOL0     C50196   7.332   0.889   8.861 -0.4600  0.7269 -0.4998
  381MOL0     C50197   7.223   0.904   8.759 -0.2543  0.1383 -1.1345
  381MOL0     C50198   7.101   0.823   8.818  0.8807  0.0380 -0.4273
  381MOL0     C50199   6.983   0.816   8.722 -0.3310  0.5696  0.6442
  381MOL0     C50200   6.869   0.721   8.763  0.5314  0.1809  0.9235
  381MOL0     C50201   6.766   0.720   8.651 -0.5842  0.1992  0.0137
  381MOL0     C50202   6.641   0.638   8.682  1.0603 -0.0524  0.1859
  381MOL0     C50203   6.542   0.645   8.566 -0.3902  0.1389 -0.1240
  381MOL0    Cl50204   6.414   0.529   8.585  0.3339  0.3300  0.5995
  381MOL0     C50205   7.682   0.994   8.824  0.2068 -0.9164 -0.2108
  381MOL0     C50206   7.808   0.979   8.888  0.3670  0.0496  0.0072
  381MOL0     O50207   7.984   0.701   9.031  0.5265  0.6752  1.3751
  381MOL0     C50208   8.228   0.696   9.152  0.4181  0.0496  0.2861
  381MOL0     C50209   8.366   0.706   9.187 -0.5168  0.4112 -0.1061
  381MOL0     N50210   8.736   1.218   9.449 -0.3827 -0.4914 -0.7787
  381MOL0     N50211   8.783   1.306   9.533  0.5260 -0.9544 -0.4155
  381MOL0     C50212   9.989   1.706   9.885  0.5546  0.0011  0.5303
  381MOL0     C50213  10.130   1.713   9.917 -0.1305 -0.3785 -0.6396
  381MOL0     C50214  10.510   1.711  10.179  0.0724 -0.3423 -0.5649
  381MOL0     C50215  10.598   1.772  10.087  0.0336  0.1718  0.0454
  381MOL0     C50216  10.737   1.781  10.108 -0.0604 -0.1940  0.0565
  381MOL0     C50217  10.782   1.734  10.233 -0.4048 -0.2467  0.4589
  381MOL0     O50218  10.914   1.764  10.263 -0.7792  0.0698  0.4941
  381MOL0     C50219  10.995   1.652  10.296 -0.6297 -0.2040  0.0842
  381MOL0     C50220  11.079   1.716  10.414  0.7603  0.0687  0.3380
  381MOL0     C50221  10.994   1.705  10.541  0.1780 -0.5582 -0.3117
  381MOL0     C50222  11.072   1.716  10.673 -0.4178 -0.1847  0.0546
  381MOL0     C50223  10.978   1.709  10.787 -0.6226  1.0578  0.5226
  381MOL0     C50224  10.909   1.715  10.887 -0.8300  0.4116  0.5792
  381MOL0     C50225  10.701   1.667  10.321  0.3057  0.1324 -0.2971
  381MOL0     C50226  10.565   1.653  10.297 -0.5165 -0.3717 -0.1355
  381MOL0     H50227  10.107   1.856  10.216 -0.4250 -0.3996 -0.4895
  381MOL0     H50228   9.867   1.846  10.163 -1.3165  0.3636 -1.5900
  381MOL0     H50229   9.691   1.613   9.840 -2.4619 -0.0363 -1.9659
  381MOL0     H50230   9.712   1.763   9.742 -0.8314  0.4126 -0.2498
  381MOL0     H50231   9.503   1.833   9.842  0.5799  0.3229  2.5507
  381MOL0     H50232   9.526   1.713   9.972 -1.2011  1.1416  0.1661
  381MOL0     H50233   9.473   1.530   9.788  3.7112  0.0913 -0.9105
  381MOL0     H50234   9.464   1.667   9.678 -0.6320  0.9364  0.4435
  381MOL0     H50235   9.291   1.601   9.904  3.0782  0.3444  0.8773
  381MOL0     H50236   9.282   1.762   9.831  0.9862 -1.0519 -0.7352
  381MOL0     H50237   9.190   1.651   9.616 -0.0774 -1.0356 -1.5529
  381MOL0     H50238   9.113   1.597   9.761  1.3701  1.6871  0.4614
  381MOL0     H50239   9.250   1.391   9.757 -0.1992 -1.2066 -0.1634
  381MOL0     H50240   9.345   1.469   9.623  0.4043  0.0401  0.0335
  381MOL0     H50241   9.117   1.469   9.486  3.9469 -1.2415 -1.8618
  381MOL0     H50242   9.191   1.317   9.517 -0.0392 -1.3067  3.1469
  381MOL0     H50243   8.952   1.434   9.675 -1.5658 -2.5342  1.8166
  381MOL0     H50244   9.028   1.281   9.716 -0.7203  2.2334  1.3393
  381MOL0     H50245   9.052   1.150   9.437  0.4577  0.3367 -0.5465
  381MOL0     H50246   8.916   1.064   9.210 -0.3408  0.8544  0.6983
  381MOL0     H50247   8.733   1.084   9.233 -2.0929 -1.5769  2.7245
  381MOL0     H50248   8.925   0.894   9.355  0.1136  3.1175  0.9600
  381MOL0     H50249   8.800   0.841   9.241  1.0613  0.4789 -0.5799
  381MOL0     H50250   8.758   0.778   9.467  1.3118  0.4065  0.2144
  381MOL0     H50251   8.740   0.943   9.519  0.0389 -0.4433  0.0900
  381MOL0     H50252   8.547   0.995   9.408  0.2550  0.6048  0.0331
  381MOL0     H50253   8.534   0.824   9.464  0.9405 -0.7884 -0.5838
  381MOL0     H50254   8.372   1.039   9.252  0.7342  0.1281  0.4417
  381MOL0     H50255   8.155   1.029   9.162  1.9704  0.3399 -0.7876
  381MOL0     H50256   7.717   0.793   9.152 -1.7511  0.8524  0.8630
  381MOL0     H50257   7.504   0.806   9.036  0.7122 -0.9612 -0.7811
  381MOL0     H50258   7.302   0.903   8.965 -0.6465  0.5766 -0.5311
  381MOL0     H50259   7.355   0.784   8.844 -0.3500  0.6241  0.2581
  381MOL0     H50260   7.251   0.863   8.661 -0.1928 -1.7061 -0.3746
  381MOL0     H50261   7.188   1.006   8.741  0.4615  0.5822 -0.0958
  381MOL0     H50262   7.062   0.872   8.908  1.4683 -0.9572  0.3833
  381MOL0     H50263   7.138   0.725   8.849 -0.5678 -0.6888 -0.8914
  381MOL0     H50264   6.951   0.919   8.704 -0.3018  0.5596  0.5336
  381MOL0     H50265   7.013   0.776   8.625 -1.2535  2.1377 -0.3352
  381MOL0     H50266   6.822   0.741   8.860  1.2625 -0.7542  1.4904
  381MOL0     H50267   6.910   0.623   8.786 -0.3708 -0.1504  1.1871
  381MOL0     H50268   6.825   0.674   8.570  0.3692  3.5219 -1.3459
  381MOL0     H50269   6.729   0.821   8.633  0.8901  0.7988  0.1448
  381MOL0     H50270   6.676   0.535   8.695 -1.3778 -0.8673  0.8146
  381MOL0     H50271   6.596   0.669   8.777  1.3176  0.0441  0.2760
  381MOL0     H50272   6.596   0.614   8.477  3.3863  0.5277  1.8371
  381MOL0     H50273   6.507   0.747   8.549  0.7914  0.4269 -0.8968
  381MOL0     H50274   7.671   1.022   8.719 -1.0202 -0.6197 -0.0247
  381MOL0     H50275   7.897   1.025   8.844  0.3169  0.2928  0.1553
  381MOL0     H50276   8.195   0.596   9.123  1.5702 -0.1970 -0.2478
  381MOL0     H50277   8.434   0.622   9.179 -2.0195 -0.6758 -2.2012
  381MOL0     H50278   9.949   1.675   9.789  0.5798 -0.7666  0.7638
  381MOL0     H50279  10.198   1.679   9.839 -2.4864 -1.3683 -2.3676
  381MOL0     H50280  10.552   1.806   9.995 -0.5826  1.2523  0.7358
  381MOL0     H50281  10.805   1.826  10.037  0.5509  0.1613  0.8563
  381MOL0     H50282  11.053   1.625  10.207  1.2974 -0.8439  1.4495
  381MOL0     H50283  10.944   1.561  10.331  1.1534 -0.0719  3.4864
  381MOL0     H50284  11.171   1.660  10.434  0.6883  0.1800  0.9729
  381MOL0     H50285  11.110   1.814  10.377  3.2899 -1.3067 -1.5359
  381MOL0     H50286  10.949   1.606  10.549  0.0422 -0.6838 -2.2455
  381MOL0     H50287  10.922   1.787  10.539 -0.8656 -1.3803 -4.1259
  381MOL0     H50288  11.137   1.629  10.682  1.5536  1.2502  0.1479
  381MOL0     H50289  11.127   1.810  10.667 -1.4535  0.3599 -1.8323
  381MOL0     H50290  10.841   1.720  10.970 -2.4066  2.6897 -0.7248
  381MOL0     H50291  10.735   1.628  10.416  2.5621  1.7881 -0.3632
  381MOL0     H50292  10.493   1.620  10.370 -1.1536  3.7007  1.3086
  382MOL0     O50293   2.287   0.340   0.873 -0.6850  0.5185  0.1679
  382MOL0     C50294   2.332   0.459   0.855  0.2820  1.0236 -0.7104
  382MOL0     O50295   2.278   0.569   0.911  0.9408  0.1633 -0.0683
  382MOL0     C50296   2.173   0.568   1.003 -0.2517 -0.7277 -0.2062
  382MOL0     C50297   2.159   0.479   1.113 -0.3156  0.3926 -0.6168
  382MOL0     C50298   2.060   0.478   1.202  0.1047 -0.4029  0.0545
  382MOL0     C50299   1.968   0.582   1.195  0.2044 -0.1032  0.2647
  382MOL0     O50300   1.866   0.577   1.287  0.6663  0.2222 -0.8130
  382MOL0     C50301   1.743   0.515   1.235  0.0329 -0.4185  0.9220
  382MOL0     C50302   1.643   0.523   1.346  0.1832  0.4669 -0.1238
  382MOL0     C50303   1.502   0.508   1.294 -0.0746  0.6269  0.7500
  382MOL0     C50304   1.403   0.456   1.402  0.2061 -0.0763  0.5963
  382MOL0     C50305   1.262   0.438   1.343 -0.0810 -0.1712  0.1587
  382MOL0     C50306   1.172   0.349   1.427  0.7080  0.5886 -0.1943
  382MOL0     C50307   1.033   0.339   1.360  0.4663  0.2859  0.6840
  382MOL0     C50308   0.959   0.226   1.419  1.7787 -0.0823 -0.9918
  382MOL0     N50309   0.819   0.260   1.443 -0.0864  0.1595 -0.0651
  382MOL0     C50310   0.707   0.218   1.376 -0.4682  0.0973  0.3113
  382MOL0     C50311   0.603   0.267   1.450 -0.0366  0.3385 -0.2342
  382MOL0     C50312   0.453   0.271   1.408  0.3785  0.2525 -0.5162
  382MOL0     C50313   0.381   0.143   1.470  0.4834  0.1407  0.6191
  382MOL0     C50314   0.242   0.121   1.422  0.3477 -0.4525  0.3789
  382MOL0     C50315   0.214  -0.023   1.462 -0.4958 -0.6163  0.1611
  382MOL0     O50316   0.272  -0.116   1.377  0.6500  0.2076 -0.5319
  382MOL0     C50317   0.220  -0.152   1.255 -0.1472 -0.2425 -0.0162
  382MOL0     C50318   0.304  -0.212   1.159 -0.0473  0.6671 -0.5371
  382MOL0     C50319   0.258  -0.248   1.034  0.2360  0.1797 -0.2839
  382MOL0     C50320   0.125  -0.226   1.001 -0.2227  0.1098  1.5599
  382MOL0     C50321   0.066  -0.256   0.864  0.1423  0.5340  1.2452
  382MOL0     O50322   0.133  -0.351   0.787 -0.2217 -0.7336 -0.0477
  382MOL0     C50323   0.075  -0.402   0.679  1.0109  0.9730 -0.4393
  382MOL0     C50324  -0.062  -0.435   0.684 -0.3471 -0.8682  0.0616
  382MOL0     C50325  -0.125  -0.486   0.571  1.1569  0.3183 -0.4119
  382MOL0     C50326  -0.057  -0.520   0.457  0.0548 -0.3645 -0.0551
  382MOL0     O50327  -0.147  -0.581   0.368 -0.9741 -0.0023 -0.1214
  382MOL0     C50328  -0.089  -0.689   0.295  0.0102 -0.0426 -0.1654
  382MOL0     C50329  -0.049  -0.824   0.376 -1.2589 -0.2983 -0.1331
  382MOL0     C50330  -0.151  -0.854   0.486 -0.6802  0.1107 -0.7969
  382MOL0     C50331  -0.114  -0.970   0.589 -0.2544 -0.9373  0.1808
  382MOL0     C50332   0.029  -0.983   0.632 -0.3954 -0.0844  0.3785
  382MOL0     C50333   0.046  -1.083   0.758  0.0538 -0.5994  0.3659
  382MOL0     C50334   0.015  -1.225   0.725 -0.5278 -0.6090  0.4405
  382MOL0     C50335   0.084  -1.326   0.818  0.2597  0.1456  0.0861
  382MOL0    Cl50336   0.053  -1.284   0.983  0.2223  0.1215  0.3281
  382MOL0     C50337   0.084  -0.504   0.457 -0.0221  0.8336 -0.0821
  382MOL0     C50338   0.144  -0.450   0.569 -0.7260 -0.1391 -0.1249
  382MOL0     O50339  -0.023  -0.185   0.821  0.2400  0.3163 -1.0339
  382MOL0     C50340   0.048  -0.152   1.094 -0.5051  0.2143  0.2153
  382MOL0     C50341   0.089  -0.124   1.217 -1.0182  0.6872 -0.5751
  382MOL0     N50342   0.651   0.346   1.560  0.4124  0.0544 -0.0516
  382MOL0     N50343   0.777   0.321   1.562  0.3834 -0.4181  0.1794
  382MOL0     C50344   1.972   0.673   1.090 -1.2951 -0.1621  0.4801
  382MOL0     C50345   2.081   0.672   0.992  0.4188  0.1867 -0.6001
  382MOL0     C50346   2.455   0.466   0.772  0.3007 -0.7545 -0.5577
  382MOL0     C50347   2.509   0.588   0.747 -0.5901 -0.6404 -0.4292
  382MOL0     C50348   2.629   0.593   0.671  0.0614  0.4388  0.0628
  382MOL0     C50349   2.684   0.480   0.611  0.0073 -0.3707 -0.7161
  382MOL0     O50350   2.795   0.494   0.541 -0.1191  0.4260 -0.0898
  382MOL0     C50351   2.780   0.507   0.396 -0.0076  0.6148 -0.6206
  382MOL0     C50352   2.908   0.531   0.324 -0.5269 -0.0254  0.6123
  382MOL0     C50353   2.883   0.521   0.177  0.0440  0.2431  0.1048
  382MOL0     C50354   3.017   0.551   0.098 -0.3518 -0.6735 -0.4972
  382MOL0     C50355   2.996   0.529  -0.046  0.5562 -0.4048 -0.3132
  382MOL0     C50356   2.996   0.487  -0.159  0.1848 -1.4259 -0.7170
  382MOL0     C50357   2.632   0.357   0.653  0.3275 -0.4548  0.6098
  382MOL0     C50358   2.522   0.347   0.736  0.4735 -0.1828 -0.1748
  382MOL0     H50359   2.240   0.412   1.141  1.9078  2.3837 -1.8689
  382MOL0     H50360   2.059   0.411   1.287  0.4571 -2.0879 -1.1979
  382MOL0     H50361   1.750   0.407   1.218 -0.9316 -0.1817 -1.3519
  382MOL0     H50362   1.716   0.572   1.146  0.5928 -0.0415  0.9872
  382MOL0     H50363   1.648   0.619   1.398 -3.4684  1.6395 -1.6107
  382MOL0     H50364   1.672   0.448   1.420  1.2924 -0.6166 -1.5814
  382MOL0     H50365   1.507   0.443   1.206  0.9002  1.3071  0.2790
  382MOL0     H50366   1.467   0.607   1.263  2.3577  1.1424 -0.6708
  382MOL0     H50367   1.435   0.353   1.421  1.7999 -0.4081 -2.9687
  382MOL0     H50368   1.404   0.527   1.485  0.1647  1.2762 -0.5252
  382MOL0     H50369   1.290   0.389   1.249  0.9394  3.8192 -1.8684
  382MOL0     H50370   1.211   0.534   1.328  2.2610  1.5158  2.2266
  382MOL0     H50371   1.166   0.399   1.524 -3.1461  0.4619 -0.2163
  382MOL0     H50372   1.215   0.249   1.435 -0.2421  0.2719  1.2317
  382MOL0     H50373   0.971   0.430   1.368  0.1233 -0.0617  2.3561
  382MOL0     H50374   1.060   0.307   1.259  1.2598 -2.1414  1.6157
  382MOL0     H50375   1.011   0.207   1.513  2.4696  2.2933 -0.8400
  382MOL0     H50376   0.973   0.124   1.380  4.3243 -1.2556  2.4984
  382MOL0     H50377   0.705   0.159   1.284  0.4101  0.5409 -0.0069
  382MOL0     H50378   0.446   0.283   1.299  0.2023  1.6431 -0.3657
  382MOL0     H50379   0.409   0.366   1.440 -1.9143 -0.1263 -2.2974
  382MOL0     H50380   0.384   0.131   1.579 -0.9784 -0.9518  0.5692
  382MOL0     H50381   0.435   0.059   1.424 -1.3339 -0.2223 -0.9624
  382MOL0     H50382   0.183   0.185   1.488 -0.2075 -2.4835  1.9468
  382MOL0     H50383   0.246   0.159   1.319  0.9435  3.0429  1.5550
  382MOL0     H50384   0.104  -0.028   1.466 -0.4708 -0.7296  1.0003
  382MOL0     H50385   0.254  -0.034   1.563  2.6761  0.0176 -0.9193
  382MOL0     H50386   0.406  -0.231   1.191 -0.7846 -0.5945  1.2209
  382MOL0     H50387   0.316  -0.315   0.971  0.2671 -0.5902  0.5468
  382MOL0     H50388  -0.123  -0.420   0.772 -1.7142 -3.1138 -0.4087
  382MOL0     H50389  -0.231  -0.506   0.583  0.8869  1.1219 -1.2799
  382MOL0     H50390  -0.012  -0.657   0.224  0.2620  1.8648  0.9156
  382MOL0     H50391  -0.173  -0.724   0.235 -0.2828 -0.5764  0.5306
  382MOL0     H50392   0.047  -0.812   0.427 -0.4651 -0.4490 -1.5600
  382MOL0     H50393  -0.061  -0.902   0.300 -1.5397 -0.5998  0.2113
  382MOL0     H50394  -0.247  -0.882   0.441  0.5492 -1.4456 -2.6299
  382MOL0     H50395  -0.172  -0.769   0.551 -2.8433 -1.8370  1.2737
  382MOL0     H50396  -0.163  -0.938   0.682  1.5108  3.1237 -0.0639
  382MOL0     H50397  -0.138  -1.070   0.552  3.9034 -3.0525  2.4156
  382MOL0     H50398   0.080  -0.892   0.664  0.9237 -1.6031  2.8662
  382MOL0     H50399   0.096  -1.017   0.552  1.2802  1.1827  1.1814
  382MOL0     H50400  -0.019  -1.050   0.840 -0.2399 -3.7762  1.5328
  382MOL0     H50401   0.150  -1.072   0.792  0.3724 -2.5519  0.1144
  382MOL0     H50402  -0.093  -1.243   0.732 -0.7008 -0.5521 -1.5341
  382MOL0     H50403   0.058  -1.249   0.628 -0.8884  0.4892 -0.0060
  382MOL0     H50404   0.190  -1.339   0.793 -0.3110 -0.8215 -2.0988
  382MOL0     H50405   0.040  -1.425   0.801 -1.9793  1.4473 -2.5292
  382MOL0     H50406   0.140  -0.546   0.374 -1.0021 -0.8427  0.0551
  382MOL0     H50407   0.253  -0.444   0.571 -0.7153 -0.0783 -0.6947
  382MOL0     H50408  -0.057  -0.137   1.072 -0.8433 -1.6982  0.4083
  382MOL0     H50409   0.029  -0.068   1.287 -0.1665  1.3405 -0.3581
  382MOL0     H50410   1.902   0.755   1.080  0.8829  1.7674  0.0443
  382MOL0     H50411   2.080   0.730   0.901 -0.0797  0.8043 -0.2083
  382MOL0     H50412   2.455   0.675   0.784  3.0250  1.9023 -0.5355
  382MOL0     H50413   2.669   0.693   0.662  1.3307  0.3030  3.0118
  382MOL0     H50414   2.726   0.599   0.377  0.5034  1.0321 -0.0940
  382MOL0     H50415   2.717   0.426   0.356 -1.5791  0.1716  2.4716
  382MOL0     H50416   2.944   0.630   0.351 -0.8273  0.3618 -0.3540
  382MOL0     H50417   2.986   0.460   0.352 -2.0522 -1.2850  1.8192
  382MOL0     H50418   2.802   0.591   0.155 -1.3315 -1.0076  1.0549
  382MOL0     H50419   2.861   0.416   0.156  1.1967 -0.4832  2.2625
  382MOL0     H50420   3.054   0.649   0.129 -0.8111 -1.4608  3.0290
  382MOL0     H50421   3.099   0.488   0.131  0.8461  1.5371  1.0082
  382MOL0     H50422   3.003   0.451  -0.259  5.4979 -1.8333 -0.4632
  382MOL0     H50423   2.676   0.265   0.616  0.9644  0.2817 -0.5106
  382MOL0     H50424   2.486   0.253   0.775  2.8493 -0.5388  1.3637
  383MOL0     O50425   3.879   3.851   9.776  0.5203  0.2586 -0.2431
  383MOL0     C50426   3.885   3.936   9.691  0.4915 -0.4578  0.5456
  383MOL0     O50427   3.978   3.939   9.595  0.7233  0.0216 -0.3143
  383MOL0     C50428   4.078   3.850   9.590 -0.8838 -0.1921 -0.5704
  383MOL0     C50429   4.105   3.787   9.473 -0.1434 -0.2373  0.5305
  383MOL0     C50430   4.212   3.697   9.469  0.2873 -0.5141  0.8821
  383MOL0     C50431   4.304   3.682   9.576 -0.1415  0.5442  0.5998
  383MOL0     O50432   4.403   3.591   9.559 -0.5419 -0.1647  0.0075
  383MOL0     C50433   4.490   3.553   9.672  0.3035 -0.8576  0.7323
  383MOL0     C50434   4.598   3.457   9.641 -0.3766  0.7097  0.8347
  383MOL0     C50435   4.559   3.347   9.542 -0.9560  0.2410  0.4787
  383MOL0     C50436   4.677   3.236   9.525  0.0574  0.0703  0.4332
  383MOL0     C50437   4.686   3.155   9.389  0.0052 -1.0056  0.3213
  383MOL0     C50438   4.551   3.110   9.329  0.4057  1.2460  0.2063
  383MOL0     C50439   4.576   3.043   9.192  0.0808 -0.0711  0.8479
  383MOL0     C50440   4.630   2.898   9.203 -0.0545 -0.3013  0.4112
  383MOL0     N50441   4.626   2.836   9.076 -0.4865 -0.7340  0.2471
  383MOL0     C50442   4.724   2.841   8.982 -0.3297  1.0208  0.1301
  383MOL0     C50443   4.677   2.782   8.871  0.1019 -0.0868  0.0142
  383MOL0     C50444   4.761   2.763   8.753 -0.2284  1.1173 -0.1935
  383MOL0     C50445   4.701   2.826   8.623  0.3691  0.4543 -0.9879
  383MOL0     C50446   4.600   2.736   8.558 -0.5799  0.3471 -0.3525
  383MOL0     C50447   4.555   2.797   8.423  0.6996 -1.1863 -0.8834
  383MOL0     O50448   4.497   2.932   8.455  0.6737 -0.2331 -0.7107
  383MOL0     C50449   4.384   2.978   8.391  0.5544 -0.2533 -0.1793
  383MOL0     C50450   4.254   2.935   8.419  1.0040  0.4730  0.1283
  383MOL0     C50451   4.144   2.981   8.349  1.2762 -0.0869 -0.2767
  383MOL0     C50452   4.163   3.079   8.249 -0.0242  0.8673 -0.9494
  383MOL0     C50453   4.046   3.130   8.160 -0.0425 -0.6527  0.3156
  383MOL0     O50454   4.067   3.240   8.086 -0.2575  0.4888  0.1680
  383MOL0     C50455   3.963   3.286   8.006 -0.6843 -0.8452 -0.2317
  383MOL0     C50456   4.002   3.316   7.873 -0.0762 -0.0677 -0.0136
  383MOL0     C50457   3.910   3.398   7.796 -1.1088  0.4061 -0.6052
  383MOL0     C50458   3.780   3.424   7.838 -0.2549 -0.9236  0.6176
  383MOL0     O50459   3.688   3.495   7.763  0.7664 -0.5955  0.4486
  383MOL0     C50460   3.719   3.551   7.633  0.0001 -0.5552 -0.5012
  383MOL0     C50461   3.584   3.586   7.568  0.6057  0.1155 -0.3854
  383MOL0     C50462   3.486   3.460   7.564  0.9863 -0.4085 -0.4376
  383MOL0     C50463   3.367   3.474   7.461  0.2313 -0.2390 -0.3983
  383MOL0     C50464   3.248   3.373   7.478 -0.6226 -0.6875  0.1146
  383MOL0     C50465   3.135   3.405   7.378  0.5093 -0.0707  0.8550
  383MOL0     C50466   3.042   3.287   7.344 -0.2683  0.7173 -0.6950
  383MOL0     C50467   2.938   3.341   7.250  0.3824  0.1996  0.6213
  383MOL0    Cl50468   2.860   3.216   7.165  0.2735 -0.4739  0.3179
  383MOL0     C50469   3.742   3.385   7.967 -0.6258 -1.5859 -0.3736
  383MOL0     C50470   3.827   3.319   8.049 -0.0688 -0.9181 -1.2156
  383MOL0     O50471   3.936   3.067   8.166  0.9415 -0.6079  0.8424
  383MOL0     C50472   4.290   3.130   8.235  0.8286 -0.0601 -0.5167
  383MOL0     C50473   4.399   3.085   8.304 -0.4632 -0.1125 -0.1586
  383MOL0     N50474   4.553   2.725   8.908  0.1715 -0.9046 -0.4404
  383MOL0     N50475   4.520   2.757   9.032  0.0837 -0.6263  0.4011
  383MOL0     C50476   4.278   3.751   9.695 -0.2653 -0.2800  0.1341
  383MOL0     C50477   4.166   3.834   9.704  0.2503  0.0893 -0.0806
  383MOL0     C50478   3.808   4.061   9.700  0.1247 -0.7555  0.6581
  383MOL0     C50479   3.795   4.137   9.819 -0.3291  0.7093  0.3626
  383MOL0     C50480   3.729   4.258   9.824  0.4915 -0.6849 -0.5439
  383MOL0     C50481   3.648   4.294   9.713 -0.6387  0.8100 -0.0047
  383MOL0     O50482   3.578   4.415   9.702 -0.4300  0.1460  0.5971
  383MOL0     C50483   3.589   4.528   9.784  0.2612  1.2811  0.1301
  383MOL0     C50484   3.502   4.503   9.911 -0.0709 -0.5909  0.2402
  383MOL0     C50485   3.353   4.483   9.870 -0.6249 -0.3035 -0.2516
  383MOL0     C50486   3.270   4.536   9.992 -0.1900 -0.7820  0.2349
  383MOL0     C50487   3.135   4.483  10.004 -0.2089 -0.2224  0.5548
  383MOL0     C50488   3.035   4.425  10.019  0.4168  0.7266  0.3707
  383MOL0     C50489   3.651   4.213   9.597  0.0831  0.3933  0.1009
  383MOL0     C50490   3.734   4.103   9.592 -0.1832  0.5696 -0.3391
  383MOL0     H50491   4.049   3.811   9.383  0.8804  0.1862  0.0009
  383MOL0     H50492   4.238   3.645   9.377  0.3250 -0.7727  1.0387
  383MOL0     H50493   4.431   3.496   9.744 -1.1598 -1.2025 -0.6746
  383MOL0     H50494   4.531   3.641   9.723  3.3068  0.0928 -2.8480
  383MOL0     H50495   4.624   3.419   9.740  0.4570  3.9899  1.9976
  383MOL0     H50496   4.685   3.513   9.604 -0.1141 -0.1892  0.0541
  383MOL0     H50497   4.536   3.392   9.446 -1.9189 -2.7089 -0.7943
  383MOL0     H50498   4.463   3.303   9.570 -2.1133  2.0866 -0.4461
  383MOL0     H50499   4.772   3.286   9.546 -0.5695  1.8940 -0.7780
  383MOL0     H50500   4.660   3.170   9.611  1.2343 -0.5824  0.1777
  383MOL0     H50501   4.754   3.072   9.410 -0.3034 -0.8483  2.1535
  383MOL0     H50502   4.731   3.216   9.310 -0.5573 -1.3554 -0.2776
  383MOL0     H50503   4.494   3.200   9.303 -1.6084 -0.6819 -2.6412
  383MOL0     H50504   4.506   3.034   9.393  4.8932  0.8974  3.4255
  383MOL0     H50505   4.478   3.044   9.143  0.9395 -1.2804 -0.9877
  383MOL0     H50506   4.634   3.106   9.124 -0.1628 -1.3637 -0.6019
  383MOL0     H50507   4.569   2.834   9.267  1.5905 -1.4167  0.9411
  383MOL0     H50508   4.734   2.906   9.237 -0.3982 -0.7120  1.5767
  383MOL0     H50509   4.824   2.879   9.001 -0.1407 -0.0657  1.4946
  383MOL0     H50510   4.766   2.656   8.735 -1.8134  1.3713 -2.7005
  383MOL0     H50511   4.858   2.804   8.783  1.7182 -3.7231  0.9097
  383MOL0     H50512   4.791   2.849   8.565  2.3998 -1.5812  1.1567
  383MOL0     H50513   4.657   2.924   8.643  2.1056  1.4571 -1.8477
  383MOL0     H50514   4.644   2.640   8.530  1.2478  1.2535 -0.7432
  383MOL0     H50515   4.516   2.728   8.628  0.2583 -0.8776  0.5517
  383MOL0     H50516   4.489   2.732   8.364 -1.8537  1.6167 -1.3672
  383MOL0     H50517   4.633   2.823   8.351 -1.4679  3.7586 -1.8027
  383MOL0     H50518   4.223   2.865   8.495 -1.4787  1.2219 -0.1058
  383MOL0     H50519   4.048   2.932   8.361  2.2378 -2.4117 -1.4596
  383MOL0     H50520   4.103   3.289   7.843 -0.5413 -1.2901 -0.5398
  383MOL0     H50521   3.947   3.442   7.704 -1.1245 -1.2302 -1.4392
  383MOL0     H50522   3.774   3.471   7.582  0.5277  0.1688 -1.0910
  383MOL0     H50523   3.786   3.636   7.648 -0.1469 -0.6476  0.8616
  383MOL0     H50524   3.593   3.629   7.467 -0.9261  1.6826  0.0932
  383MOL0     H50525   3.533   3.666   7.623  2.0629  0.9117 -0.1256
  383MOL0     H50526   3.438   3.437   7.660 -1.1167 -2.2758 -1.8273
  383MOL0     H50527   3.546   3.371   7.541  1.3124 -1.4605  3.6348
  383MOL0     H50528   3.334   3.578   7.467  0.9884 -0.0431  0.5867
  383MOL0     H50529   3.401   3.451   7.360 -0.5039 -0.8436 -0.5159
  383MOL0     H50530   3.200   3.374   7.577 -2.5606 -0.9579 -0.7837
  383MOL0     H50531   3.278   3.268   7.469 -0.9944 -1.1642  3.1149
  383MOL0     H50532   3.174   3.438   7.281 -2.2474 -0.8561 -0.6416
  383MOL0     H50533   3.077   3.490   7.417 -2.6326 -2.6107  2.1122
  383MOL0     H50534   3.092   3.197   7.308 -0.0561 -0.7609  2.9189
  383MOL0     H50535   2.992   3.259   7.437  2.7962  1.7864  1.4111
  383MOL0     H50536   2.975   3.411   7.174  1.5840 -1.8102 -0.7694
  383MOL0     H50537   2.861   3.400   7.299  1.8545  1.3678  1.6321
  383MOL0     H50538   3.648   3.419   8.009  0.9871  2.8714  0.1072
  383MOL0     H50539   3.791   3.298   8.149  0.8886  1.6403 -0.2486
  383MOL0     H50540   4.319   3.199   8.157  0.3667 -0.0445 -0.6813
  383MOL0     H50541   4.495   3.130   8.283  0.8878 -1.5522  2.3733
  383MOL0     H50542   4.351   3.745   9.775 -0.5922  1.4389  0.6116
  383MOL0     H50543   4.158   3.890   9.797  0.4233 -0.0812  0.0381
  383MOL0     H50544   3.860   4.105   9.900 -1.8006  3.0624  2.6381
  383MOL0     H50545   3.721   4.302   9.923 -4.5208 -1.3207 -0.3913
  383MOL0     H50546   3.555   4.613   9.724  0.2228  1.7574  0.8089
  383MOL0     H50547   3.693   4.541   9.816  1.1900 -0.8582 -1.7257
  383MOL0     H50548   3.529   4.409   9.961 -2.2054 -1.5053 -0.1897
  383MOL0     H50549   3.507   4.587   9.981 -4.8322  0.2441 -0.0574
  383MOL0     H50550   3.340   4.376   9.853  0.6248 -0.3246 -1.1857
  383MOL0     H50551   3.320   4.527   9.775 -0.4900 -1.3462 -0.7901
  383MOL0     H50552   3.318   4.502  10.084  1.0159  0.0884 -0.0475
  383MOL0     H50553   3.279   4.645   9.995  0.2890 -0.8028 -0.2107
  383MOL0     H50554   2.946   4.369  10.037  0.3288 -0.2491 -2.6791
  383MOL0     H50555   3.591   4.246   9.512 -0.0622  2.3968  0.9058
  383MOL0     H50556   3.726   4.048   9.499 -1.2318 -2.4054  1.3719
  384MOL0     O50557   4.623   7.933   9.344 -0.9890 -0.1395  0.1685
  384MOL0     C50558   4.736   7.898   9.326 -0.1617 -0.6128 -0.2774
  384MOL0     O50559   4.779   7.778   9.268 -0.1718  0.6306  0.0808
  384MOL0     C50560   4.692   7.680   9.235 -0.0773 -0.8824 -0.8151
  384MOL0     C50561   4.719   7.597   9.128 -0.0772 -0.4420  0.8142
  384MOL0     C50562   4.624   7.501   9.085  0.0812  0.0579 -0.4286
  384MOL0     C50563   4.513   7.476   9.153  1.1761  0.1515  0.2749
  384MOL0     O50564   4.430   7.370   9.109 -0.5373 -0.7301  0.0127
  384MOL0     C50565   4.373   7.276   9.201  0.0707 -0.2958  0.5181
  384MOL0     C50566   4.300   7.175   9.118 -0.8141  0.0019 -0.1264
  384MOL0     C50567   4.231   7.075   9.213 -0.2285 -0.3246  0.2178
  384MOL0     C50568   4.179   6.958   9.121  0.0530 -0.4752  0.4347
  384MOL0     C50569   4.138   6.829   9.192  0.0510  0.1438  0.1598
  384MOL0     C50570   4.087   6.718   9.096  0.1835  0.2831 -0.0690
  384MOL0     C50571   3.931   6.711   9.069 -0.1054  0.1402  0.4872
  384MOL0     C50572   3.893   6.584   8.990  1.1870 -0.3205  0.5940
  384MOL0     N50573   3.890   6.460   9.067  0.3034 -0.5263  0.2215
  384MOL0     C50574   3.790   6.423   9.153  0.7651 -0.8834  0.1329
  384MOL0     C50575   3.814   6.296   9.175 -0.6465 -0.1839 -0.0008
  384MOL0     C50576   3.750   6.201   9.267  0.5257  0.8056 -0.1652
  384MOL0     C50577   3.620   6.153   9.187  0.3057  0.4065  0.6794
  384MOL0     C50578   3.659   6.062   9.061  0.1305  0.3634 -0.2119
  384MOL0     C50579   3.540   5.992   8.994 -0.4632 -0.1794 -0.0942
  384MOL0     O50580   3.498   6.066   8.873 -0.1057  0.0121  0.1086
  384MOL0     C50581   3.394   6.020   8.802  0.3969 -0.6060  0.1995
  384MOL0     C50582   3.397   6.055   8.667  0.5569 -0.0484  0.4755
  384MOL0     C50583   3.285   6.019   8.587  0.2831  0.3214 -0.6194
  384MOL0     C50584   3.173   5.947   8.634 -0.5243  0.1700 -0.7236
  384MOL0     C50585   3.064   5.908   8.542 -0.7634  0.2798 -0.1789
  384MOL0     O50586   2.958   5.844   8.592 -0.2924 -0.0372  0.1039
  384MOL0     C50587   2.851   5.835   8.502 -0.0652 -1.2854 -0.4224
  384MOL0     C50588   2.787   5.954   8.450  0.2141 -1.2856 -0.2255
  384MOL0     C50589   2.680   5.948   8.363 -0.5739  0.7466 -0.5618
  384MOL0     C50590   2.621   5.825   8.326 -0.3156 -1.0465 -0.7159
  384MOL0     O50591   2.516   5.831   8.232  0.5944 -0.0036 -0.2618
  384MOL0     C50592   2.466   5.705   8.197  0.4430 -0.0472  0.8546
  384MOL0     C50593   2.369   5.727   8.081 -0.1826  0.3439  0.7886
  384MOL0     C50594   2.262   5.831   8.110  1.1418 -0.4862 -0.4985
  384MOL0     C50595   2.153   5.841   7.993  0.8124  0.5593  0.1659
  384MOL0     C50596   2.061   5.961   8.020 -0.0906 -0.1357  0.6811
  384MOL0     C50597   1.947   5.970   7.908  0.1332  0.5755 -0.2826
  384MOL0     C50598   1.844   6.070   7.952  0.7364  0.2625  0.1181
  384MOL0     C50599   1.725   6.093   7.853 -0.3661  0.5863 -0.0179
  384MOL0    Cl50600   1.629   6.228   7.903 -0.3233 -0.4901 -0.2712
  384MOL0     C50601   2.675   5.706   8.388 -0.6515 -0.4123 -0.3613
  384MOL0     C50602   2.795   5.718   8.468 -0.1237 -1.2603  0.7098
  384MOL0     O50603   3.085   5.934   8.425  0.1530 -0.8469  0.3429
  384MOL0     C50604   3.182   5.912   8.772  0.1908 -0.0948  0.2828
  384MOL0     C50605   3.287   5.950   8.856 -0.2202  0.0883  0.6552
  384MOL0     N50606   3.925   6.258   9.097  0.4516  0.0216 -0.0333
  384MOL0     N50607   3.970   6.360   9.027  0.1317  0.1185  0.0138
  384MOL0     C50608   4.486   7.557   9.259 -0.2284  0.1235  0.3020
  384MOL0     C50609   4.574   7.652   9.304 -0.2710 -0.1409 -0.7606
  384MOL0     C50610   4.831   8.000   9.358 -0.6821 -0.3668 -0.4070
  384MOL0     C50611   4.798   8.110   9.446  0.7173  1.7326  0.0793
  384MOL0     C50612   4.889   8.212   9.473  0.3771  0.1379  0.2099
  384MOL0     C50613   5.013   8.204   9.415  0.2991  0.9715  0.1391
  384MOL0     O50614   5.085   8.315   9.421  0.2972 -0.2734 -0.2554
  384MOL0     C50615   5.233   8.303   9.423 -0.5131 -0.3263  0.2945
  384MOL0     C50616   5.303   8.411   9.500  0.2046 -0.3065 -0.7165
  384MOL0     C50617   5.266   8.543   9.428  0.8406  0.3168  0.0299
  384MOL0     C50618   5.361   8.658   9.463  0.2286  0.1533 -0.3907
  384MOL0     C50619   5.304   8.784   9.414 -0.3001  0.7249  0.0569
  384MOL0     C50620   5.261   8.885   9.367  0.3434 -0.4580 -0.1046
  384MOL0     C50621   5.051   8.090   9.347  0.2089  0.1095 -0.1326
  384MOL0     C50622   4.962   7.990   9.315  0.7485  0.2450 -0.5620
  384MOL0     H50623   4.807   7.599   9.063 -1.5079 -0.0423 -1.2077
  384MOL0     H50624   4.632   7.441   8.995 -1.3187 -0.2041 -0.3941
  384MOL0     H50625   4.308   7.318   9.278 -0.4002 -1.4300  0.7500
  384MOL0     H50626   4.460   7.227   9.246 -0.0915  0.5370  1.7712
  384MOL0     H50627   4.378   7.120   9.064  1.9708  0.8017  2.7702
  384MOL0     H50628   4.227   7.219   9.050  2.0370  0.2272 -3.3075
  384MOL0     H50629   4.159   7.117   9.283 -1.9885 -2.8284  0.0442
  384MOL0     H50630   4.295   7.038   9.293 -1.4400 -3.0523  0.0222
  384MOL0     H50631   4.090   6.982   9.062 -2.0156 -1.1038  3.1104
  384MOL0     H50632   4.258   6.924   9.054  0.1644  0.5098  0.0437
  384MOL0     H50633   4.056   6.862   9.257 -0.6005 -1.7963  0.3864
  384MOL0     H50634   4.205   6.779   9.263  0.1991 -0.8151 -0.6264
  384MOL0     H50635   4.106   6.621   9.143  0.9461  0.9732  1.0926
  384MOL0     H50636   4.143   6.719   9.002  2.0963  1.4755  1.0068
  384MOL0     H50637   3.878   6.717   9.164  0.4769 -0.3477  0.8469
  384MOL0     H50638   3.902   6.800   9.012 -0.0327 -0.5286 -0.6146
  384MOL0     H50639   3.951   6.571   8.899  0.8276 -1.2286  0.4805
  384MOL0     H50640   3.792   6.612   8.957 -0.7888 -1.3352  4.9717
  384MOL0     H50641   3.721   6.494   9.197  0.1887 -1.5377  0.2954
  384MOL0     H50642   3.715   6.248   9.359 -0.4034 -0.1071 -0.0318
  384MOL0     H50643   3.811   6.112   9.288  0.8741  1.0836  0.0205
  384MOL0     H50644   3.560   6.235   9.149 -0.2502 -0.5276 -0.5145
  384MOL0     H50645   3.563   6.095   9.261 -0.5982  1.9261  1.2021
  384MOL0     H50646   3.719   6.116   8.988  1.8081 -1.4010 -0.1996
  384MOL0     H50647   3.721   5.979   9.097  1.4390  1.7440  0.8726
  384MOL0     H50648   3.468   5.978   9.075  0.4666  0.3858  0.8476
  384MOL0     H50649   3.579   5.896   8.960  2.8771  1.1650 -0.4962
  384MOL0     H50650   3.478   6.115   8.627 -3.0821  4.2570 -1.2573
  384MOL0     H50651   3.282   6.054   8.485 -4.1822 -1.0297 -1.1430
  384MOL0     H50652   2.825   6.050   8.481  1.2929 -1.9738  0.6803
  384MOL0     H50653   2.639   6.042   8.329 -1.1414  2.1609  3.5459
  384MOL0     H50654   2.398   5.672   8.275 -0.9023 -3.4347 -1.5242
  384MOL0     H50655   2.548   5.636   8.174  1.7623  0.5855  3.3579
  384MOL0     H50656   2.322   5.630   8.066  1.0822 -0.5671  2.3930
  384MOL0     H50657   2.422   5.765   7.993 -3.6009  0.4214 -1.3950
  384MOL0     H50658   2.317   5.925   8.122 -0.8778  0.7155 -0.2933
  384MOL0     H50659   2.222   5.800   8.207  4.2402 -0.8348  0.7973
  384MOL0     H50660   2.205   5.863   7.899 -1.5976  0.3723 -1.2954
  384MOL0     H50661   2.101   5.746   7.983  3.7501 -0.9953 -2.1251
  384MOL0     H50662   2.133   6.042   8.028  0.9166 -1.1895  4.3520
  384MOL0     H50663   2.017   5.946   8.118  0.7942 -0.1272  1.0923
  384MOL0     H50664   1.907   5.872   7.884 -0.4844  0.4887  0.9827
  384MOL0     H50665   1.998   6.003   7.817  0.3421  1.8328  0.2661
  384MOL0     H50666   1.803   6.042   8.050 -0.1410 -1.2441 -0.6386
  384MOL0     H50667   1.902   6.162   7.955  4.4098 -1.8298 -0.0590
  384MOL0     H50668   1.667   6.004   7.826 -0.0033  0.9485 -2.1162
  384MOL0     H50669   1.764   6.121   7.755  1.6690  1.0431  0.8639
  384MOL0     H50670   2.632   5.607   8.379  1.3331 -1.1750 -2.8908
  384MOL0     H50671   2.833   5.624   8.506  1.3301 -0.4242  1.3989
  384MOL0     H50672   3.102   5.856   8.820  0.0185  0.4631  0.6536
  384MOL0     H50673   3.273   5.937   8.963 -3.9757 -1.1853  0.1690
  384MOL0     H50674   4.391   7.538   9.308 -2.9650 -0.0495 -4.5180
  384MOL0     H50675   4.540   7.705   9.392 -1.6605 -0.0374 -1.3404
  384MOL0     H50676   4.702   8.119   9.496  0.2227 -0.5977 -0.3484
  384MOL0     H50677   4.861   8.286   9.546 -1.0993 -2.2583  2.2581
  384MOL0     H50678   5.273   8.291   9.322  0.6261 -0.9391  0.7966
  384MOL0     H50679   5.255   8.206   9.469 -2.2675 -1.8080 -1.7579
  384MOL0     H50680   5.286   8.411   9.608  0.8893  0.5884 -0.5942
  384MOL0     H50681   5.411   8.399   9.491  0.3984  1.0269 -0.4687
  384MOL0     H50682   5.161   8.569   9.442  1.1038  1.5367 -0.1381
  384MOL0     H50683   5.271   8.533   9.319  0.6200  3.1205 -0.3213
  384MOL0     H50684   5.378   8.662   9.571 -0.7554 -1.2370 -0.1519
  384MOL0     H50685   5.448   8.634   9.401 -0.7312  2.2052 -2.7095
  384MOL0     H50686   5.230   8.977   9.321  2.4604  0.0692 -0.5856
  384MOL0     H50687   5.150   8.072   9.305 -1.3086 -3.8582 -2.6259
  384MOL0     H50688   4.995   7.903   9.260 -1.8313 -0.1534 -1.6515
  385MOL0     O50689   5.625   8.631   8.398 -0.0432 -0.4053  0.0661
  385MOL0     C50690   5.654   8.511   8.412  0.4540 -0.2362  0.6221
  385MOL0     O50691   5.574   8.421   8.469  0.1097  0.5208 -0.0474
  385MOL0     C50692   5.460   8.466   8.538 -0.3233 -0.2743  0.4551
  385MOL0     C50693   5.360   8.374   8.546  1.3854  0.1773  0.0791
  385MOL0     C50694   5.238   8.403   8.612 -0.6236  0.8288  0.6643
  385MOL0     C50695   5.223   8.527   8.671 -0.7551  0.2978 -0.8175
  385MOL0     O50696   5.100   8.546   8.730 -0.5971 -0.2588 -0.3527
  385MOL0     C50697   5.020   8.649   8.658 -0.6481  0.1622 -0.4412
  385MOL0     C50698   4.890   8.660   8.737  0.5504 -0.6057  0.8881
  385MOL0     C50699   4.801   8.531   8.714 -0.3013 -0.6585 -0.5197
  385MOL0     C50700   4.672   8.559   8.780 -0.1234 -0.0904 -0.1281
  385MOL0     C50701   4.602   8.430   8.812 -0.2816  0.6152 -0.4420
  385MOL0     C50702   4.577   8.354   8.684  0.1179  0.7850 -0.0234
  385MOL0     C50703   4.500   8.218   8.709 -0.0541 -0.0849  0.6783
  385MOL0     C50704   4.442   8.170   8.570  0.1445 -0.2808 -0.0346
  385MOL0     N50705   4.393   8.033   8.566 -0.5462 -0.1351  0.0294
  385MOL0     C50706   4.453   7.928   8.508 -0.0972  0.0876 -0.3770
  385MOL0     C50707   4.349   7.838   8.488  0.3244  0.3276 -0.9858
  385MOL0     C50708   4.346   7.710   8.404  0.5786 -0.3574  0.3077
  385MOL0     C50709   4.385   7.591   8.491  0.3403 -0.0584  0.0388
  385MOL0     C50710   4.296   7.473   8.471 -0.0015 -0.4341 -0.6392
  385MOL0     C50711   4.320   7.400   8.343  0.2838  0.2641 -0.3339
  385MOL0     O50712   4.248   7.274   8.341 -0.0579  0.4612 -0.2193
  385MOL0     C50713   4.108   7.263   8.323  0.7278 -0.6061  0.4403
  385MOL0     C50714   4.021   7.378   8.314  0.1637 -0.6329  0.1950
  385MOL0     C50715   3.884   7.361   8.288 -1.1754 -0.4190  0.3343
  385MOL0     C50716   3.827   7.238   8.301  0.5080 -0.4727  1.0013
  385MOL0     C50717   3.680   7.219   8.290 -0.4568  0.1582 -0.4070
  385MOL0     O50718   3.630   7.093   8.264  0.0583 -0.0366  0.3557
  385MOL0     C50719   3.500   7.059   8.266  0.0592  0.5119  0.2583
  385MOL0     C50720   3.409   7.116   8.355 -0.2689  0.0527  0.3888
  385MOL0     C50721   3.280   7.082   8.348 -0.2880  0.2083 -0.4895
  385MOL0     C50722   3.227   6.995   8.256  0.2999  0.4684  1.1126
  385MOL0     O50723   3.094   6.959   8.252 -0.4882 -0.5443  0.3995
  385MOL0     C50724   3.016   6.961   8.371 -0.2834  0.5996 -0.0473
  385MOL0     C50725   2.876   6.884   8.345  0.2283  0.2970  0.4462
  385MOL0     C50726   2.877   6.747   8.262  0.2351  0.5294 -0.2602
  385MOL0     C50727   2.752   6.665   8.274  0.0587 -0.2343  0.0772
  385MOL0     C50728   2.653   6.729   8.178  0.1618  0.4206 -0.8766
  385MOL0     C50729   2.537   6.636   8.155  0.9736  0.0411  0.5979
  385MOL0     C50730   2.465   6.614   8.284  0.4816 -0.8398  1.6045
  385MOL0     C50731   2.315   6.585   8.269 -0.3216  0.1998  0.5830
  385MOL0    Cl50732   2.291   6.429   8.176 -0.0868 -0.2052  0.1138
  385MOL0     C50733   3.308   6.922   8.181 -0.0631  0.8363  0.3312
  385MOL0     C50734   3.443   6.958   8.181  0.3884  0.2008 -0.5910
  385MOL0     O50735   3.611   7.315   8.315  0.0581  0.8335 -0.4512
  385MOL0     C50736   3.904   7.129   8.329  0.5212  0.4717 -0.2432
  385MOL0     C50737   4.043   7.139   8.337 -0.2774 -0.2820 -0.1444
  385MOL0     N50738   4.228   7.891   8.535  0.0816 -0.0031 -0.3195
  385MOL0     N50739   4.261   8.009   8.586 -0.1490  0.8927 -0.2955
  385MOL0     C50740   5.325   8.616   8.669 -0.0434 -0.4390 -0.0144
  385MOL0     C50741   5.444   8.579   8.607  0.3109 -0.0288  0.0759
  385MOL0     C50742   5.791   8.469   8.367 -1.3807  0.2103  0.4016
  385MOL0     C50743   5.904   8.558   8.371 -0.5206 -0.5341 -0.3744
  385MOL0     C50744   6.038   8.517   8.341  0.3832 -0.5125  0.4146
  385MOL0     C50745   6.056   8.378   8.313  0.0947 -0.5498  0.2787
  385MOL0     O50746   6.174   8.319   8.271 -0.3339 -0.7421  0.2067
  385MOL0     C50747   6.279   8.413   8.243 -0.0983  0.1995 -0.1215
  385MOL0     C50748   6.393   8.322   8.224  0.3570  1.0086 -0.1737
  385MOL0     C50749   6.508   8.394   8.157 -0.2585 -0.0455 -0.1345
  385MOL0     C50750   6.638   8.320   8.178 -0.3201 -0.3735  0.2009
  385MOL0     C50751   6.744   8.383   8.107 -0.1446 -0.1802 -0.1403
  385MOL0     C50752   6.847   8.436   8.065 -0.0307  0.1475  0.5572
  385MOL0     C50753   5.943   8.300   8.312  0.1180  0.3865 -0.1290
  385MOL0     C50754   5.812   8.344   8.339 -0.0532  0.4478 -0.1957
  385MOL0     H50755   5.371   8.287   8.481  0.2276 -1.4493  1.9498
  385MOL0     H50756   5.161   8.327   8.598 -0.1320  0.1062  1.7401
  385MOL0     H50757   5.014   8.609   8.556  2.4053  0.4623 -0.8408
  385MOL0     H50758   5.068   8.747   8.649 -0.1333 -0.1685 -1.4052
  385MOL0     H50759   4.843   8.750   8.698 -0.3447 -1.8089 -0.9754
  385MOL0     H50760   4.908   8.673   8.844 -0.9289  1.3267  0.9366
  385MOL0     H50761   4.849   8.450   8.768  0.9990  0.9775  0.8874
  385MOL0     H50762   4.796   8.502   8.609 -0.1516 -2.3365 -0.0789
  385MOL0     H50763   4.688   8.620   8.869 -1.2544 -0.8442  0.6144
  385MOL0     H50764   4.615   8.623   8.712  1.2080  1.0758 -0.1928
  385MOL0     H50765   4.505   8.450   8.858 -1.3505 -0.3558 -2.1832
  385MOL0     H50766   4.655   8.366   8.883 -2.0992 -1.0491 -0.5151
  385MOL0     H50767   4.672   8.326   8.636  0.9788  0.2145  1.8868
  385MOL0     H50768   4.525   8.415   8.610  1.4215  0.6933 -1.0412
  385MOL0     H50769   4.577   8.149   8.746 -1.8712 -0.2697  4.6404
  385MOL0     H50770   4.421   8.232   8.783  0.3942  1.1296  0.9421
  385MOL0     H50771   4.522   8.165   8.495  0.6837 -1.5601  0.6025
  385MOL0     H50772   4.358   8.232   8.537  1.7301  0.4504 -3.1424
  385MOL0     H50773   4.557   7.934   8.480 -0.1408 -0.0492 -0.5657
  385MOL0     H50774   4.420   7.726   8.325  1.4687  1.1726  1.4118
  385MOL0     H50775   4.252   7.692   8.351  0.3130  0.5041  0.4782
  385MOL0     H50776   4.388   7.619   8.597 -0.2388 -2.7317  0.8436
  385MOL0     H50777   4.490   7.561   8.483  0.1083 -1.4462  1.5797
  385MOL0     H50778   4.318   7.400   8.550 -0.3085 -0.5438 -0.6562
  385MOL0     H50779   4.192   7.503   8.482 -1.3789 -4.5084 -0.8098
  385MOL0     H50780   4.427   7.380   8.333  0.1889 -0.5515  0.1994
  385MOL0     H50781   4.296   7.456   8.252 -0.0007 -0.9953 -1.0630
  385MOL0     H50782   4.060   7.477   8.291 -1.5263  0.0300  0.0787
  385MOL0     H50783   3.819   7.444   8.261  3.5052  2.7136 -2.7995
  385MOL0     H50784   3.454   7.190   8.421 -0.4462 -0.8876  1.5898
  385MOL0     H50785   3.225   7.127   8.431  1.5225  0.6539  0.5125
  385MOL0     H50786   2.992   7.066   8.389 -1.5752  0.1427  1.1077
  385MOL0     H50787   3.069   6.920   8.457 -1.2014 -2.3723 -0.7481
  385MOL0     H50788   2.836   6.952   8.269  1.4657  1.1582  0.5418
  385MOL0     H50789   2.815   6.896   8.435  0.4362  2.0839  0.3839
  385MOL0     H50790   2.960   6.685   8.298 -2.1777 -3.2522 -0.7187
  385MOL0     H50791   2.895   6.762   8.155 -1.6658 -0.8807 -0.8436
  385MOL0     H50792   2.770   6.565   8.233 -0.2476 -1.2311  2.2243
  385MOL0     H50793   2.718   6.658   8.378 -2.2640 -1.2414 -0.6761
  385MOL0     H50794   2.702   6.746   8.082  2.5548 -1.2043 -0.0521
  385MOL0     H50795   2.633   6.828   8.219  2.4914  0.9460 -0.8362
  385MOL0     H50796   2.570   6.540   8.114  1.4383  0.2033  0.5855
  385MOL0     H50797   2.477   6.690   8.082  1.4304  1.5530  1.3123
  385MOL0     H50798   2.506   6.532   8.343 -0.3014 -2.2612  0.2543
  385MOL0     H50799   2.467   6.710   8.335  1.1065  0.9786 -1.5580
  385MOL0     H50800   2.259   6.669   8.225  2.0527  1.4828 -0.1511
  385MOL0     H50801   2.284   6.575   8.374 -0.9262  1.2894  0.5223
  385MOL0     H50802   3.268   6.855   8.105  1.1772  3.2218 -2.6474
  385MOL0     H50803   3.492   6.902   8.102 -0.4029 -0.2993 -0.7453
  385MOL0     H50804   3.863   7.029   8.325  1.5397  0.0745 -2.9116
  385MOL0     H50805   4.098   7.048   8.357 -0.2660  0.0005  1.2607
  385MOL0     H50806   5.309   8.708   8.724  0.3671 -0.6998  0.5528
  385MOL0     H50807   5.524   8.650   8.622  0.5995 -0.6719  1.8333
  385MOL0     H50808   5.895   8.661   8.404  1.1862 -0.5429  0.2417
  385MOL0     H50809   6.118   8.591   8.341 -1.8869  2.1120 -0.8704
  385MOL0     H50810   6.308   8.481   8.324  0.7942 -0.1612 -0.1289
  385MOL0     H50811   6.246   8.473   8.158  0.7954  2.0464  0.7739
  385MOL0     H50812   6.421   8.285   8.323 -0.3331 -1.5296 -0.8408
  385MOL0     H50813   6.372   8.236   8.160 -1.5786 -1.0583  2.9756
  385MOL0     H50814   6.524   8.491   8.204 -5.9125 -0.0032  2.5447
  385MOL0     H50815   6.484   8.418   8.054 -0.0599  1.2116  0.1028
  385MOL0     H50816   6.660   8.322   8.285 -0.6902  0.2468  0.2690
  385MOL0     H50817   6.633   8.213   8.156  2.4436 -0.0904 -2.5200
  385MOL0     H50818   6.931   8.494   8.032  0.1049 -0.4996 -0.2850
  385MOL0     H50819   5.955   8.201   8.270  0.7618  1.9087 -3.9901
  385MOL0     H50820   5.730   8.274   8.328  2.0836 -2.2943  0.2805
  386MOL0     O50821   6.306   3.350   7.756  0.0690 -0.1536 -0.0190
  386MOL0     C50822   6.395   3.267   7.745  0.7852 -0.1950 -0.7638
  386MOL0     O50823   6.383   3.132   7.767  0.1537  0.1498 -0.7036
  386MOL0     C50824   6.284   3.080   7.851  0.0607 -0.6113  0.2088
  386MOL0     C50825   6.219   3.148   7.955 -0.5595  0.1447 -0.7119
  386MOL0     C50826   6.133   3.072   8.036  0.6749  0.0897  0.5415
  386MOL0     C50827   6.075   2.954   7.996  0.4973  0.7470  0.1138
  386MOL0     O50828   5.964   2.920   8.076  0.1562  0.4381  0.0774
  386MOL0     C50829   5.897   2.796   8.051 -0.3832  0.1608  0.5323
  386MOL0     C50830   5.770   2.805   8.141  1.1272 -0.1631  0.5897
  386MOL0     C50831   5.650   2.873   8.070  0.6686  0.4655 -0.0301
  386MOL0     C50832   5.524   2.885   8.159  0.3224  0.4444 -0.0516
  386MOL0     C50833   5.402   2.931   8.074 -0.3829  1.2033  0.2334
  386MOL0     C50834   5.282   2.942   8.164 -0.3954 -0.9404  1.1664
  386MOL0     C50835   5.157   2.985   8.085 -0.1643 -0.7166 -0.5624
  386MOL0     C50836   5.045   2.906   8.154  0.0382  0.1027 -0.6880
  386MOL0     N50837   4.910   2.939   8.131  0.0639 -0.0078 -0.3854
  386MOL0     C50838   4.842   2.908   8.016 -1.0821  0.5053 -0.0744
  386MOL0     C50839   4.719   2.963   8.035  0.1781  0.0190  0.7654
  386MOL0     C50840   4.595   2.942   7.953  0.2578 -1.1921  0.2127
  386MOL0     C50841   4.503   2.852   8.033  0.8848 -0.3863  0.7809
  386MOL0     C50842   4.357   2.847   7.973 -0.0834 -0.6345 -0.6691
  386MOL0     C50843   4.291   2.726   8.037 -0.7737  1.1330 -0.4314
  386MOL0     O50844   4.225   2.657   7.935 -0.3563  0.6460  0.5361
  386MOL0     C50845   4.090   2.681   7.906  0.4194 -0.6985 -0.1048
  386MOL0     C50846   4.018   2.790   7.956  0.4040 -0.0268 -0.1604
  386MOL0     C50847   3.883   2.803   7.931  0.0015 -0.1658 -0.0678
  386MOL0     C50848   3.811   2.709   7.854  0.3186  0.4450  0.3016
  386MOL0     C50849   3.664   2.723   7.825  0.5933 -0.3917 -1.4141
  386MOL0     O50850   3.599   2.626   7.751 -0.0514  0.8001  0.6240
  386MOL0     C50851   3.462   2.625   7.714 -0.0364 -0.0760 -1.6063
  386MOL0     C50852   3.389   2.742   7.695 -0.4268 -0.1440  1.1959
  386MOL0     C50853   3.254   2.732   7.650 -0.3111 -0.1836  0.1761
  386MOL0     C50854   3.189   2.599   7.644  1.8486 -0.9141 -0.4233
  386MOL0     O50855   3.050   2.586   7.627  0.2682  0.6984 -0.4770
  386MOL0     C50856   2.967   2.703   7.629  0.9975  0.3256  0.0521
  386MOL0     C50857   2.826   2.659   7.641 -0.1825  0.2904 -0.6851
  386MOL0     C50858   2.773   2.607   7.505 -1.5425 -0.0881  0.8858
  386MOL0     C50859   2.652   2.525   7.514  0.2858  0.7680  0.5723
  386MOL0     C50860   2.539   2.608   7.560 -0.5787 -0.7955 -0.0101
  386MOL0     C50861   2.402   2.535   7.564  0.5755  0.1507  0.1151
  386MOL0     C50862   2.297   2.621   7.630 -0.0735 -0.1546 -0.1073
  386MOL0     C50863   2.162   2.542   7.647  0.5525 -0.0863 -0.6009
  386MOL0    Cl50864   2.189   2.403   7.759 -0.4703  0.3148  0.2789
  386MOL0     C50865   3.259   2.492   7.670 -0.0852 -0.0398 -0.4364
  386MOL0     C50866   3.395   2.508   7.698  0.0576 -0.4325 -0.6206
  386MOL0     O50867   3.609   2.815   7.883  0.0672  0.7187  0.0659
  386MOL0     C50868   3.881   2.591   7.806  0.4502 -0.1957 -0.2602
  386MOL0     C50869   4.019   2.588   7.833  0.1256  0.6014 -0.6594
  386MOL0     N50870   4.719   3.015   8.168  0.3119 -0.0298  0.1348
  386MOL0     N50871   4.841   3.021   8.213  0.6350 -0.1974 -0.2362
  386MOL0     C50872   6.121   2.894   7.876 -0.6254 -0.5686 -0.8006
  386MOL0     C50873   6.236   2.949   7.811  0.2298  0.8489  0.3693
  386MOL0     C50874   6.533   3.315   7.735 -0.4365 -0.1167 -0.3969
  386MOL0     C50875   6.643   3.233   7.784  1.2422 -1.1431 -0.9165
  386MOL0     C50876   6.774   3.269   7.761 -0.6855 -0.0011 -0.3369
  386MOL0     C50877   6.803   3.387   7.695 -0.2844  0.1888  0.0202
  386MOL0     O50878   6.932   3.427   7.667  0.0491  0.9988 -0.5602
  386MOL0     C50879   6.977   3.516   7.774 -0.4303  0.0847  0.4191
  386MOL0     C50880   7.121   3.551   7.749  0.2268  0.2054  0.1695
  386MOL0     C50881   7.144   3.594   7.600 -0.2148  1.1496  0.7208
  386MOL0     C50882   7.287   3.636   7.561  0.2931 -0.1555 -0.9618
  386MOL0     C50883   7.324   3.737   7.668  0.2691  0.2965  0.9159
  386MOL0     C50884   7.367   3.828   7.732  0.5864 -0.4487  0.4976
  386MOL0     C50885   6.698   3.468   7.646  0.0738  0.1675 -0.7731
  386MOL0     C50886   6.561   3.435   7.667 -0.2171  0.3901 -0.0784
  386MOL0     H50887   6.258   3.244   7.986 -0.9822 -0.3350  1.4650
  386MOL0     H50888   6.096   3.116   8.128 -3.9160 -1.9224 -0.0392
  386MOL0     H50889   5.955   2.708   8.079 -1.5347 -0.6285  0.5311
  386MOL0     H50890   5.878   2.784   7.944 -0.4865 -1.1476  0.6810
  386MOL0     H50891   5.792   2.849   8.238  1.7297 -0.7270  0.7168
  386MOL0     H50892   5.727   2.706   8.161  1.1134  0.2290  2.7298
  386MOL0     H50893   5.612   2.812   7.988 -0.4742  1.3390 -0.1702
  386MOL0     H50894   5.671   2.974   8.031 -4.3429  1.3691 -1.0611
  386MOL0     H50895   5.510   2.784   8.197  0.2228  0.4605 -0.0451
  386MOL0     H50896   5.547   2.949   8.245  2.1241 -0.2034 -0.0171
  386MOL0     H50897   5.378   2.847   8.008 -0.5913  1.1259  0.4063
  386MOL0     H50898   5.422   3.014   8.006  0.0803 -0.4430 -1.7348
  386MOL0     H50899   5.302   3.022   8.236 -2.9603 -0.0705  1.0138
  386MOL0     H50900   5.257   2.854   8.223 -3.4879 -0.1552  1.1753
  386MOL0     H50901   5.132   3.091   8.095 -2.4965 -1.1258 -1.4249
  386MOL0     H50902   5.164   2.955   7.980  1.8523  0.8450 -0.9388
  386MOL0     H50903   5.054   2.910   8.263 -1.8542  3.2945 -0.5444
  386MOL0     H50904   5.061   2.799   8.136 -2.9765 -0.8113  1.3986
  386MOL0     H50905   4.884   2.866   7.925  0.8183 -0.1586  1.0599
  386MOL0     H50906   4.627   2.908   7.854  1.8540 -0.3500  0.3985
  386MOL0     H50907   4.542   3.035   7.932  3.8822  0.9583 -0.2864
  386MOL0     H50908   4.492   2.882   8.137  2.6924  0.1187  0.8557
  386MOL0     H50909   4.545   2.752   8.021 -1.6388 -1.5662  1.1834
  386MOL0     H50910   4.291   2.928   8.006  1.8921  1.6834 -2.1028
  386MOL0     H50911   4.349   2.837   7.865  1.5688 -2.8182 -0.6411
  386MOL0     H50912   4.223   2.747   8.121 -2.1380 -0.6180 -1.0365
  386MOL0     H50913   4.366   2.655   8.073  1.7697  3.3762 -0.9408
  386MOL0     H50914   4.058   2.874   8.012  0.0841  1.2925 -1.8361
  386MOL0     H50915   3.820   2.883   7.970 -2.2107 -1.8638  0.0139
  386MOL0     H50916   3.443   2.836   7.700 -0.0438 -0.2454 -0.3830
  386MOL0     H50917   3.197   2.822   7.630 -0.8250 -0.4442  0.4325
  386MOL0     H50918   2.974   2.759   7.536 -1.8897  1.1739  0.2603
  386MOL0     H50919   2.975   2.771   7.715  1.5068  1.7697 -1.0990
  386MOL0     H50920   2.767   2.745   7.674  1.7721  1.7997 -0.9370
  386MOL0     H50921   2.826   2.571   7.705  0.3249  1.1240  0.5053
  386MOL0     H50922   2.849   2.549   7.451 -0.5406  1.9348  0.0265
  386MOL0     H50923   2.758   2.693   7.440  0.6013 -0.1126  0.2878
  386MOL0     H50924   2.629   2.480   7.417  1.3113  2.0270 -0.2983
  386MOL0     H50925   2.668   2.438   7.578 -0.0376 -1.4523 -2.1701
  386MOL0     H50926   2.537   2.700   7.499 -2.1960 -1.1911 -0.6239
  386MOL0     H50927   2.567   2.649   7.657  0.0678  2.9592 -1.5836
  386MOL0     H50928   2.420   2.446   7.625  2.3397  0.2776 -0.1683
  386MOL0     H50929   2.381   2.509   7.460  2.7658 -1.7980  0.0783
  386MOL0     H50930   2.348   2.659   7.719  2.6104 -4.1578  0.2913
  386MOL0     H50931   2.274   2.708   7.567 -0.6441  1.6244  2.3697
  386MOL0     H50932   2.111   2.506   7.558  1.4113 -0.5794 -0.9116
  386MOL0     H50933   2.106   2.616   7.706  1.8296  0.5516 -0.1366
  386MOL0     H50934   3.212   2.394   7.674  1.5727 -0.8590  2.4907
  386MOL0     H50935   3.465   2.426   7.709  1.7011  0.7414 -1.9223
  386MOL0     H50936   3.836   2.506   7.756  0.4556 -0.8854  0.8720
  386MOL0     H50937   4.082   2.504   7.807 -1.6487 -0.9870 -0.0313
  386MOL0     H50938   6.066   2.807   7.842 -2.5957 -0.3667  1.5643
  386MOL0     H50939   6.273   2.907   7.719  1.1325 -0.2194  1.1944
  386MOL0     H50940   6.632   3.150   7.853  1.4576 -0.7116 -0.3488
  386MOL0     H50941   6.854   3.207   7.799 -0.4224 -0.0713 -0.9815
  386MOL0     H50942   6.972   3.466   7.871  1.3026 -0.8113  0.0655
  386MOL0     H50943   6.913   3.605   7.768 -0.2280  0.1926 -0.1660
  386MOL0     H50944   7.147   3.626   7.824 -3.7853  2.7774 -0.6480
  386MOL0     H50945   7.182   3.463   7.769 -2.2697 -2.3670 -2.4199
  386MOL0     H50946   7.081   3.682   7.589 -1.9077 -0.3784 -3.9386
  386MOL0     H50947   7.111   3.516   7.531 -2.1666  1.5743  1.1179
  386MOL0     H50948   7.349   3.546   7.565  0.8205  0.1326 -2.1440
  386MOL0     H50949   7.289   3.696   7.470  1.0246  3.3138  1.1630
  386MOL0     H50950   7.408   3.921   7.767 -0.3566  0.4133 -0.6120
  386MOL0     H50951   6.727   3.551   7.583  1.4491 -0.9829 -1.6894
  386MOL0     H50952   6.478   3.497   7.632  0.0672 -0.1459 -1.7962
  387MOL0     O50953   1.029   4.799  10.909  0.5686 -0.2953 -0.2169
  387MOL0     C50954   1.029   4.732  11.009 -0.8354  0.6816  0.3910
  387MOL0     O50955   0.918   4.697  11.080 -0.1205  0.2338  0.2299
  387MOL0     C50956   0.787   4.739  11.054 -0.1980 -0.4309  0.4679
  387MOL0     C50957   0.738   4.745  10.923 -0.7800  0.3410 -0.1100
  387MOL0     C50958   0.606   4.789  10.893  0.0556  0.0929  0.0454
  387MOL0     C50959   0.531   4.828  11.003  0.5335  0.8474  0.4153
  387MOL0     O50960   0.398   4.871  10.985 -0.5125 -0.7539 -0.2173
  387MOL0     C50961   0.364   4.926  10.864  0.0512  0.4297 -0.1014
  387MOL0     C50962   0.234   5.001  10.879 -0.8641  0.0512 -0.9180
  387MOL0     C50963   0.266   5.143  10.920  0.6732  0.2497  0.7061
  387MOL0     C50964   0.144   5.233  10.931  0.1403  0.5992  0.9465
  387MOL0     C50965   0.168   5.381  10.961  0.0420 -0.0160 -0.3703
  387MOL0     C50966   0.032   5.458  10.976 -0.5502  0.2465 -0.7807
  387MOL0     C50967   0.060   5.609  10.982 -0.6371 -0.2579  0.1712
  387MOL0     C50968  -0.057   5.694  10.947  0.5166 -0.1845  0.0432
  387MOL0     N50969  -0.095   5.695  10.803  0.2191 -0.0735  0.0025
  387MOL0     C50970  -0.008   5.700  10.702  0.6041  0.2840 -0.0839
  387MOL0     C50971  -0.082   5.635  10.599  0.4893 -0.6728  0.8042
  387MOL0     C50972  -0.026   5.627  10.456  0.1240 -0.6206  0.1522
  387MOL0     C50973  -0.133   5.694  10.358 -0.2331 -0.7716  0.0812
  387MOL0     C50974  -0.110   5.689  10.205 -0.4293 -0.4017 -0.4910
  387MOL0     C50975  -0.240   5.712  10.128 -0.5056  0.3915 -0.1082
  387MOL0     O50976  -0.318   5.596  10.149  0.3846  0.7828  0.1063
  387MOL0     C50977  -0.454   5.599  10.104 -0.0436 -0.1406  0.2658
  387MOL0     C50978  -0.513   5.706  10.030  1.0051 -0.8276 -0.6007
  387MOL0     C50979  -0.649   5.704  10.000 -0.4260 -0.1719 -0.9002
  387MOL0     C50980  -0.730   5.600  10.052 -0.0281 -0.2707 -0.2541
  387MOL0     C50981  -0.867   5.588  10.017  0.5784 -0.7434  0.4117
  387MOL0     O50982  -0.924   5.470  10.030 -0.0301  0.4847  0.0794
  387MOL0     C50983  -1.053   5.443   9.996 -0.2237  0.3158 -0.6140
  387MOL0     C50984  -1.079   5.316   9.943 -1.0169 -0.9170 -0.1757
  387MOL0     C50985  -1.215   5.277   9.927  0.1685 -0.5969 -0.2475
  387MOL0     C50986  -1.324   5.366   9.943 -1.3616  0.1524  0.9114
  387MOL0     O50987  -1.444   5.315   9.910 -0.1407  0.5513 -0.1765
  387MOL0     C50988  -1.553   5.400   9.884 -0.2748 -0.7089 -0.2714
  387MOL0     C50989  -1.669   5.313   9.838  0.5056 -0.0385 -0.2578
  387MOL0     C50990  -1.798   5.400   9.820  0.1436 -0.4709  0.6648
  387MOL0     C50991  -1.859   5.439   9.964 -0.5093 -0.7886 -0.1932
  387MOL0     C50992  -2.012   5.482   9.966  0.2053 -0.7738  0.1460
  387MOL0     C50993  -2.084   5.402  10.070  0.7011 -0.6240 -0.3399
  387MOL0     C50994  -2.220   5.454  10.110  0.8601  0.1847 -0.2812
  387MOL0     C50995  -2.293   5.358  10.209  0.8543  0.0818 -0.9414
  387MOL0    Cl50996  -2.465   5.404  10.231 -0.1948 -0.0726  0.5190
  387MOL0     C50997  -1.294   5.495   9.987 -0.5527 -0.7549 -0.1714
  387MOL0     C50998  -1.162   5.526  10.031  0.7533 -0.5933  0.1507
  387MOL0     O50999  -0.918   5.685   9.959  0.0986  1.0156 -0.7842
  387MOL0     C51000  -0.671   5.489  10.126  0.1548  0.8073  1.0786
  387MOL0     C51001  -0.532   5.490  10.152  0.1888 -0.0802  0.1929
  387MOL0     N51002  -0.201   5.592  10.646 -0.4537 -0.0647  0.1459
  387MOL0     N51003  -0.206   5.622  10.767 -0.5182 -0.4985  0.3382
  387MOL0     C51004   0.580   4.819  11.133 -0.2687 -0.3692  0.3021
  387MOL0     C51005   0.706   4.771  11.162 -0.1792 -0.6276  0.3259
  387MOL0     C51006   1.161   4.673  11.064  0.0623 -0.6894  0.5002
  387MOL0     C51007   1.281   4.678  10.991  0.0748  0.0050 -0.8445
  387MOL0     C51008   1.404   4.631  11.051 -0.4383  0.4363 -0.8766
  387MOL0     C51009   1.398   4.573  11.178 -0.0620  0.6809  0.4756
  387MOL0     O51010   1.513   4.529  11.242  0.0895  0.3489  0.1536
  387MOL0     C51011   1.629   4.478  11.170  0.5319  0.0591  1.0146
  387MOL0     C51012   1.727   4.450  11.276 -0.1478  0.2276  0.1717
  387MOL0     C51013   1.851   4.373  11.219  0.0697 -0.4617  0.2637
  387MOL0     C51014   1.828   4.227  11.174 -0.0845  0.2799  1.5254
  387MOL0     C51015   1.968   4.173  11.154  0.4408  0.6087 -0.2674
  387MOL0     C51016   2.080   4.128  11.143  0.3636 -0.5933  0.1164
  387MOL0     C51017   1.283   4.576  11.248 -0.5052 -0.5623 -0.1155
  387MOL0     C51018   1.160   4.625  11.197 -0.9166 -0.4384  0.4438
  387MOL0     H51019   0.812   4.712  10.851  2.4281  1.9944  2.2018
  387MOL0     H51020   0.569   4.793  10.791  1.1718  0.8441 -0.3468
  387MOL0     H51021   0.349   4.847  10.791  0.5528  2.6800 -2.8050
  387MOL0     H51022   0.432   4.997  10.816 -0.8065  0.8473 -0.7270
  387MOL0     H51023   0.166   4.957  10.953  0.8843 -1.7965 -0.3187
  387MOL0     H51024   0.187   4.986  10.781 -1.6986  3.0208 -1.0600
  387MOL0     H51025   0.344   5.188  10.857 -2.5340  3.8161 -1.1795
  387MOL0     H51026   0.308   5.144  11.020  1.7533 -0.2725  0.2677
  387MOL0     H51027   0.083   5.221  10.840 -1.8100 -1.8965  2.4454
  387MOL0     H51028   0.067   5.194  10.998 -0.2675  0.0028  0.1589
  387MOL0     H51029   0.223   5.424  10.877  2.4659 -3.7021 -0.8732
  387MOL0     H51030   0.232   5.398  11.049 -0.9549 -2.3113  0.8870
  387MOL0     H51031  -0.019   5.424  11.066 -0.1479 -0.2858 -0.7460
  387MOL0     H51032  -0.037   5.430  10.896 -1.5146 -0.0368  0.1270
  387MOL0     H51033   0.088   5.630  11.086  1.1639  0.3961 -0.4264
  387MOL0     H51034   0.147   5.632  10.921 -0.0603 -4.6225 -1.0118
  387MOL0     H51035  -0.031   5.797  10.976 -0.1803  0.3741 -1.2220
  387MOL0     H51036  -0.135   5.660  11.016  0.0620 -1.7753 -1.1961
  387MOL0     H51037   0.090   5.745  10.708 -0.1638  2.0156  0.1612
  387MOL0     H51038  -0.012   5.525  10.419 -0.2657 -0.5294 -0.2508
  387MOL0     H51039   0.070   5.679  10.444 -0.0189 -0.8703 -2.9411
  387MOL0     H51040  -0.129   5.801  10.380  1.2144 -0.7322 -0.2356
  387MOL0     H51041  -0.230   5.656  10.389 -0.1531  0.4361  1.9519
  387MOL0     H51042  -0.035   5.760  10.168  0.6957 -1.7003 -0.8002
  387MOL0     H51043  -0.069   5.590  10.180  2.0382  0.0807  1.2693
  387MOL0     H51044  -0.196   5.710  10.028 -0.1282 -1.2109  0.0614
  387MOL0     H51045  -0.283   5.807  10.161 -1.2967 -0.0684  0.1999
  387MOL0     H51046  -0.468   5.794   9.985  0.8621  0.1318  1.0521
  387MOL0     H51047  -0.689   5.784   9.939 -1.6827  0.2397  0.4012
  387MOL0     H51048  -0.995   5.250   9.926  1.3885  2.0758 -0.9366
  387MOL0     H51049  -1.239   5.177   9.893  2.0026 -1.5531  1.0827
  387MOL0     H51050  -1.524   5.473   9.809  0.3822  0.1664  0.7987
  387MOL0     H51051  -1.585   5.448   9.977 -0.9935 -0.1929 -0.7726
  387MOL0     H51052  -1.688   5.230   9.906  4.3586 -1.2173 -0.4137
  387MOL0     H51053  -1.628   5.269   9.747  0.2823 -2.9839  0.9446
  387MOL0     H51054  -1.869   5.337   9.766  2.0904 -1.2583 -1.0775
  387MOL0     H51055  -1.787   5.496   9.769 -1.4764  0.0332  1.1824
  387MOL0     H51056  -1.843   5.347  10.022  2.8784 -0.2784 -0.0862
  387MOL0     H51057  -1.811   5.522  10.017 -1.7995  0.0414 -0.3027
  387MOL0     H51058  -2.061   5.456   9.872 -1.2598  0.9912  0.3634
  387MOL0     H51059  -2.028   5.590   9.971 -1.2867 -0.9362 -0.5615
  387MOL0     H51060  -2.016   5.409  10.156 -0.0902  1.7820  0.1830
  387MOL0     H51061  -2.093   5.299  10.036  2.9847 -0.9387 -0.1240
  387MOL0     H51062  -2.216   5.561  10.135 -3.7963  0.5323 -0.0921
  387MOL0     H51063  -2.276   5.453  10.016  0.9154 -0.1225 -0.3113
  387MOL0     H51064  -2.243   5.365  10.306 -0.5382  1.1389 -0.2551
  387MOL0     H51065  -2.283   5.252  10.185 -1.3201 -0.1813 -0.8209
  387MOL0     H51066  -1.370   5.562  10.026 -2.6191 -4.0401  1.9729
  387MOL0     H51067  -1.140   5.628  10.061 -1.1109 -1.0275  3.4294
  387MOL0     H51068  -0.730   5.404  10.158 -2.8213  1.3686 -2.3185
  387MOL0     H51069  -0.482   5.421  10.219 -1.0492 -0.0470  1.1904
  387MOL0     H51070   0.516   4.841  11.218 -2.1879 -0.0175 -1.1739
  387MOL0     H51071   0.739   4.762  11.265  2.2468 -1.6045 -0.4440
  387MOL0     H51072   1.279   4.726  10.894  2.8240 -0.3536 -1.1648
  387MOL0     H51073   1.503   4.640  11.006  0.3769  0.2494  0.8051
  387MOL0     H51074   1.674   4.558  11.111  2.2463 -1.4150  0.2360
  387MOL0     H51075   1.601   4.387  11.116 -2.1778  0.3771  1.7412
  387MOL0     H51076   1.767   4.544  11.313  2.7448 -0.9057  0.2037
  387MOL0     H51077   1.680   4.383  11.348 -2.8541  0.5864 -1.1331
  387MOL0     H51078   1.925   4.382  11.300 -1.5646 -1.1059  1.9229
  387MOL0     H51079   1.882   4.432  11.133  1.7466  1.4914  2.0819
  387MOL0     H51080   1.776   4.156  11.239  1.6747 -3.7414 -1.0860
  387MOL0     H51081   1.778   4.231  11.077  0.2315  2.2239  1.3988
  387MOL0     H51082   2.180   4.091  11.131  0.4041 -0.4248 -0.0740
  387MOL0     H51083   1.301   4.552  11.353 -0.1729  2.7172  0.6891
  387MOL0     H51084   1.079   4.637  11.268  2.5181  3.1019  4.3152
  388MOL0     O51085   9.004  10.234   1.828  1.0342  0.0978  0.7545
  388MOL0     C51086   9.063  10.299   1.917  0.9113  0.6201 -0.9232
  388MOL0     O51087   9.008  10.405   1.981 -0.9775  0.0701 -0.4392
  388MOL0     C51088   8.873  10.426   1.982 -0.0102 -1.5091 -0.0743
  388MOL0     C51089   8.782  10.328   1.983  0.1315  0.0420 -0.0615
  388MOL0     C51090   8.639  10.352   1.987 -0.2369 -1.2419 -0.3693
  388MOL0     C51091   8.590  10.483   1.998 -0.0809  0.3923 -0.5050
  388MOL0     O51092   8.453  10.505   2.001  0.7451 -0.0273  0.5400
  388MOL0     C51093   8.399  10.635   1.975 -0.7080  0.4216  0.4870
  388MOL0     C51094   8.247  10.626   1.976 -1.1313 -1.2689 -0.2289
  388MOL0     C51095   8.186  10.761   1.920 -0.2727 -0.1370 -0.0524
  388MOL0     C51096   8.040  10.772   1.932  0.5332  0.3794 -0.5050
  388MOL0     C51097   7.982  10.789   2.081 -0.9502 -0.3425  0.9688
  388MOL0     C51098   7.834  10.771   2.103  0.1537 -0.5654 -0.4013
  388MOL0     C51099   7.743  10.884   2.057 -0.2689  0.8695  0.1100
  388MOL0     C51100   7.614  10.868   2.127  0.6089 -0.3866  0.1470
  388MOL0     N51101   7.520  10.967   2.082 -0.0209  1.1092 -0.0235
  388MOL0     C51102   7.457  11.070   2.159 -0.9832  1.0046 -0.4758
  388MOL0     C51103   7.348  11.107   2.093  0.6193  0.5827 -0.5087
  388MOL0     C51104   7.255  11.214   2.144  0.3260  0.3260  0.4127
  388MOL0     C51105   7.174  11.159   2.253  0.3041 -0.1594 -0.2367
  388MOL0     C51106   7.084  11.040   2.213 -0.1259 -0.3156 -0.0454
  388MOL0     C51107   7.013  10.985   2.348 -0.6819 -0.0134  0.0168
  388MOL0     O51108   6.906  11.073   2.396  0.2848  0.3784 -0.2026
  388MOL0     C51109   6.774  11.041   2.364 -0.5050 -0.6047 -0.5626
  388MOL0     C51110   6.727  10.979   2.251  0.4702 -0.0993 -0.3277
  388MOL0     C51111   6.590  10.962   2.243 -0.2090  0.1268 -0.4562
  388MOL0     C51112   6.498  11.007   2.343  0.1609 -0.1098 -0.2634
  388MOL0     C51113   6.352  10.988   2.329 -0.1691 -0.0058 -0.3802
  388MOL0     O51114   6.314  10.894   2.227 -0.4479  0.2850  0.3043
  388MOL0     C51115   6.181  10.845   2.204  0.4856  0.4688 -0.2784
  388MOL0     C51116   6.125  10.728   2.269 -0.0782 -0.9054  0.1823
  388MOL0     C51117   6.006  10.670   2.225  0.0967 -0.3848  0.5446
  388MOL0     C51118   5.936  10.732   2.114  0.5306  0.1321  0.1679
  388MOL0     O51119   5.818  10.669   2.083 -0.3051 -0.7902 -0.4024
  388MOL0     C51120   5.765  10.682   1.953  0.3049  0.4178  0.3176
  388MOL0     C51121   5.705  10.536   1.914 -0.3258 -0.4081  0.4546
  388MOL0     C51122   5.630  10.551   1.784  0.0280 -0.4101 -0.8494
  388MOL0     C51123   5.549  10.428   1.740  0.0784  0.0407  0.1079
  388MOL0     C51124   5.638  10.308   1.736 -0.0900 -0.0219  0.9612
  388MOL0     C51125   5.573  10.180   1.676  0.8612 -0.7503  0.2476
  388MOL0     C51126   5.436  10.137   1.734  0.4214 -0.2532  0.7255
  388MOL0     C51127   5.453  10.074   1.875  0.4276  0.4516 -0.9896
  388MOL0    Cl51128   5.576   9.947   1.862  0.0791 -0.1706 -0.4905
  388MOL0     C51129   5.983  10.859   2.066  0.9112  0.0605  0.2291
  388MOL0     C51130   6.098  10.915   2.112  0.0465  0.1171 -0.3093
  388MOL0     O51131   6.271  11.059   2.399 -0.2648  0.0725 -0.0839
  388MOL0     C51132   6.545  11.091   2.449  0.1368 -0.2440 -0.6196
  388MOL0     C51133   6.686  11.103   2.453  0.3870 -0.7731  0.0574
  388MOL0     N51134   7.348  11.036   1.972  0.2876  0.5484  0.8304
  388MOL0     N51135   7.448  10.957   1.966 -0.1600 -0.9839 -0.5807
  388MOL0     C51136   8.686  10.592   2.001 -0.0492 -1.1510  0.6207
  388MOL0     C51137   8.821  10.558   2.003  0.1172 -0.1872 -0.4852
  388MOL0     C51138   9.203  10.280   1.943  0.5374  0.0448  0.4904
  388MOL0     C51139   9.278  10.199   1.859  0.5104 -0.0160 -0.1239
  388MOL0     C51140   9.410  10.170   1.886  0.4388 -0.2549 -0.5505
  388MOL0     C51141   9.462  10.215   2.011 -0.1606 -0.3430  0.4642
  388MOL0     O51142   9.591  10.187   2.064 -0.0947  0.0858 -0.3679
  388MOL0     C51143   9.679  10.119   1.974 -0.5856  0.3616 -0.1331
  388MOL0     C51144   9.820  10.111   2.036 -0.6228 -0.1478  0.7902
  388MOL0     C51145   9.881  10.255   2.049 -0.7792 -0.0725 -0.3519
  388MOL0     C51146  10.034  10.247   2.093  0.4847  0.0186 -0.0707
  388MOL0     C51147  10.087  10.380   2.096  0.2042  0.6580 -0.7702
  388MOL0     C51148  10.120  10.495   2.095 -0.3643 -0.5240  0.5711
  388MOL0     C51149   9.388  10.289   2.098  0.1602 -0.1786  0.3731
  388MOL0     C51150   9.253  10.320   2.065  0.0877 -0.9917  0.3611
  388MOL0     H51151   8.819  10.226   1.971  3.1245  1.2516 -2.3479
  388MOL0     H51152   8.566  10.271   1.983 -0.6843 -0.8299 -0.6033
  388MOL0     H51153   8.429  10.660   1.872 -0.2459  1.6864  0.9136
  388MOL0     H51154   8.443  10.709   2.042  2.4859 -0.4432 -0.4715
  388MOL0     H51155   8.215  10.605   2.078 -2.4738  0.1046 -0.3475
  388MOL0     H51156   8.207  10.544   1.916 -0.1232 -2.6545  0.9145
  388MOL0     H51157   8.210  10.782   1.816 -1.0454  4.0539  0.4495
  388MOL0     H51158   8.221  10.847   1.978  1.8415 -0.7792 -0.2924
  388MOL0     H51159   7.978  10.844   1.878 -1.0578 -0.5724 -0.0220
  388MOL0     H51160   7.995  10.682   1.889  0.6932  0.6198 -1.1886
  388MOL0     H51161   8.003  10.894   2.103 -2.8069  0.4974 -0.9533
  388MOL0     H51162   8.034  10.716   2.145  1.1945  0.0414 -0.2337
  388MOL0     H51163   7.816  10.744   2.208  1.3457 -0.3720 -0.1327
  388MOL0     H51164   7.805  10.686   2.040 -0.0699 -0.9033  0.1464
  388MOL0     H51165   7.780  10.978   2.097 -1.4391  0.5891  1.9293
  388MOL0     H51166   7.744  10.891   1.947  1.4440 -0.9830 -0.0614
  388MOL0     H51167   7.616  10.875   2.236  0.8921 -0.0562  0.1244
  388MOL0     H51168   7.575  10.769   2.101 -0.6197 -0.7807  3.1174
  388MOL0     H51169   7.489  11.099   2.259 -2.4830  0.6939  0.1213
  388MOL0     H51170   7.183  11.247   2.069  1.0303  0.9290 -0.0152
  388MOL0     H51171   7.307  11.301   2.186 -0.3832 -0.2031  2.5292
  388MOL0     H51172   7.111  11.233   2.303  1.6504 -0.9036  2.7926
  388MOL0     H51173   7.240  11.128   2.334 -1.9012  0.5055  1.9555
  388MOL0     H51174   6.997  11.067   2.152 -1.1698 -1.6395  0.7948
  388MOL0     H51175   7.132  10.959   2.156 -0.3988 -0.3672 -0.2051
  388MOL0     H51176   7.094  10.965   2.419 -0.7744 -0.2196  0.0636
  388MOL0     H51177   6.978  10.883   2.330 -2.5420  0.8544 -1.7279
  388MOL0     H51178   6.796  10.951   2.173 -0.6557  0.8872 -1.7214
  388MOL0     H51179   6.549  10.905   2.160 -0.0505  2.1527 -1.9910
  388MOL0     H51180   6.175  10.683   2.354  1.3459  3.3957  1.8898
  388MOL0     H51181   5.978  10.579   2.277  0.4564 -0.7508  0.1098
  388MOL0     H51182   5.841  10.714   1.881  0.2980  1.8463  0.9060
  388MOL0     H51183   5.689  10.761   1.945 -1.1375 -0.7963  1.5298
  388MOL0     H51184   5.648  10.508   2.003 -0.0179  1.9891  1.4806
  388MOL0     H51185   5.782  10.459   1.902 -1.9782 -1.9990 -0.3083
  388MOL0     H51186   5.696  10.566   1.698 -0.9832  2.2837 -1.2611
  388MOL0     H51187   5.569  10.641   1.779 -0.6222 -0.6500  1.3854
  388MOL0     H51188   5.460  10.417   1.802  0.3227 -1.9776  0.1780
  388MOL0     H51189   5.506  10.448   1.641  0.6752  2.7278  0.3131
  388MOL0     H51190   5.663  10.276   1.838 -1.5062 -1.1313  0.9950
  388MOL0     H51191   5.733  10.335   1.689 -0.1908 -0.6094  0.4116
  388MOL0     H51192   5.641  10.095   1.682  1.2799 -0.7332 -2.7180
  388MOL0     H51193   5.556  10.200   1.570  0.7454  2.4463  0.7568
  388MOL0     H51194   5.369  10.223   1.746 -0.3504 -0.6576 -0.5083
  388MOL0     H51195   5.390  10.065   1.666  0.2620  0.9933 -0.5375
  388MOL0     H51196   5.356  10.031   1.902 -0.4023  1.7872 -1.7135
  388MOL0     H51197   5.479  10.149   1.950  0.5636 -0.0076 -0.5772
  388MOL0     H51198   5.924  10.922   1.999  2.4480  0.5023 -0.7639
  388MOL0     H51199   6.130  11.009   2.067 -0.4798 -0.1002 -1.1608
  388MOL0     H51200   6.476  11.135   2.519 -0.4613 -0.1165 -1.2810
  388MOL0     H51201   6.734  11.172   2.522  2.1430  2.0140 -3.6203
  388MOL0     H51202   8.654  10.695   2.002  1.0662 -0.7625 -0.7545
  388MOL0     H51203   8.882  10.643   2.031 -1.5168  0.2665  2.0390
  388MOL0     H51204   9.229  10.172   1.766 -0.6004  1.8589 -0.1321
  388MOL0     H51205   9.476  10.115   1.819 -0.3662  3.1833 -4.5756
  388MOL0     H51206   9.699  10.186   1.890 -1.7776 -1.5430 -2.0617
  388MOL0     H51207   9.646  10.015   1.957  1.8677 -1.3153  3.9277
  388MOL0     H51208   9.817  10.061   2.133 -2.0242  0.1214  0.9073
  388MOL0     H51209   9.890  10.054   1.974  1.0226 -1.3574  3.5918
  388MOL0     H51210   9.829  10.328   2.112 -0.8889  1.0041 -1.6459
  388MOL0     H51211   9.881  10.302   1.950  2.8147  3.8966  1.2257
  388MOL0     H51212  10.043  10.189   2.185  0.4603 -3.3427 -2.0212
  388MOL0     H51213  10.092  10.184   2.025 -0.1150  0.8867 -1.4274
  388MOL0     H51214  10.132  10.600   2.083  1.1527 -0.7178  0.1280
  388MOL0     H51215   9.428  10.341   2.185 -2.3452  1.2984  0.7477
  388MOL0     H51216   9.191  10.367   2.140  2.9621  0.1691  2.1845
  389MOL0     O51217   7.907   6.682   5.871  0.3377 -0.3711 -0.0840
  389MOL0     C51218   7.989   6.606   5.921  0.9570 -0.0600 -0.0852
  389MOL0     O51219   7.959   6.488   5.992 -0.4482  0.0645  0.7399
  389MOL0     C51220   7.827   6.435   5.987 -0.2057  0.7574 -0.5989
  389MOL0     C51221   7.820   6.312   6.057  0.6362 -0.5157 -0.3659
  389MOL0     C51222   7.692   6.256   6.074  1.0064  0.2486  0.5731
  389MOL0     C51223   7.580   6.308   6.018  0.3956  0.1542 -0.1733
  389MOL0     O51224   7.464   6.241   6.028  0.5264  0.5300  0.3784
  389MOL0     C51225   7.455   6.107   6.094 -0.4734  0.2060  0.2141
  389MOL0     C51226   7.325   6.051   6.062  0.8496 -0.4087 -0.8380
  389MOL0     C51227   7.225   6.111   6.164  0.1953 -0.5470 -0.5176
  389MOL0     C51228   7.086   6.091   6.112  0.5898  1.0169  0.2663
  389MOL0     C51229   6.992   6.132   6.220  0.2963  0.1873 -1.0300
  389MOL0     C51230   6.841   6.135   6.182  0.5332 -1.0173  0.1677
  389MOL0     C51231   6.753   6.202   6.295  0.1245  0.2512  1.0585
  389MOL0     C51232   6.731   6.109   6.410 -0.4469  0.4816 -0.0614
  389MOL0     N51233   6.669   6.171   6.523 -0.6257 -0.1609  0.1509
  389MOL0     C51234   6.675   6.301   6.567 -0.1238  0.0234  0.4836
  389MOL0     C51235   6.573   6.324   6.653 -0.0925  0.4585 -0.1090
  389MOL0     C51236   6.536   6.458   6.713 -0.0495 -0.1611  0.7786
  389MOL0     C51237   6.532   6.455   6.865  0.3965  0.5284  1.0739
  389MOL0     C51238   6.486   6.590   6.921  1.0446 -0.2606  0.4481
  389MOL0     C51239   6.335   6.590   6.942  0.1203 -0.3380 -0.3663
  389MOL0     O51240   6.264   6.581   6.818 -0.5123  0.3780 -0.3217
  389MOL0     C51241   6.130   6.584   6.814 -0.2562 -0.3903  0.4682
  389MOL0     C51242   6.075   6.571   6.684 -0.0843 -0.4862 -0.2906
  389MOL0     C51243   5.937   6.582   6.667 -0.1522 -0.4232  0.5449
  389MOL0     C51244   5.858   6.597   6.777 -0.0157  0.1253 -0.6182
  389MOL0     C51245   5.714   6.596   6.782 -0.1250 -0.1626 -0.1034
  389MOL0     O51246   5.652   6.503   6.865 -0.4694 -0.3616  0.3190
  389MOL0     C51247   5.515   6.479   6.840 -0.7776 -0.3986 -0.1485
  389MOL0     C51248   5.486   6.377   6.747  0.3758  0.0812 -0.4086
  389MOL0     C51249   5.352   6.347   6.714  0.6191 -0.3679 -0.1170
  389MOL0     C51250   5.245   6.414   6.774 -0.8582 -0.7978 -0.0263
  389MOL0     O51251   5.109   6.406   6.752 -0.6145  0.6574 -0.4173
  389MOL0     C51252   5.062   6.356   6.625 -1.4729 -0.1752  0.3469
  389MOL0     C51253   4.914   6.379   6.612  0.7729 -0.4725  0.7771
  389MOL0     C51254   4.827   6.339   6.732 -0.3211  0.2007 -0.0605
  389MOL0     C51255   4.680   6.336   6.712  0.0358  0.2310 -0.7167
  389MOL0     C51256   4.620   6.271   6.842 -0.4424 -0.1584  0.6210
  389MOL0     C51257   4.468   6.246   6.828 -0.1413 -0.9641 -0.2034
  389MOL0     C51258   4.409   6.141   6.921 -0.0578 -0.2724 -0.1944
  389MOL0     C51259   4.260   6.127   6.913  0.0930  0.4320  0.2601
  389MOL0    Cl51260   4.174   6.269   6.993 -0.4927  0.0198 -0.4970
  389MOL0     C51261   5.282   6.512   6.872 -0.5998  0.9147 -0.9852
  389MOL0     C51262   5.414   6.539   6.906 -0.8062 -1.0431 -0.2794
  389MOL0     O51263   5.654   6.675   6.711 -0.5653 -0.1604  0.2510
  389MOL0     C51264   5.919   6.602   6.907  0.0957 -0.4650  0.2212
  389MOL0     C51265   6.053   6.595   6.928  0.7727 -0.2555 -0.1766
  389MOL0     N51266   6.507   6.208   6.664 -0.1742  0.7088  0.3031
  389MOL0     N51267   6.563   6.118   6.584 -0.2060 -0.1068 -0.0217
  389MOL0     C51268   7.588   6.433   5.954  0.1491  1.7511  0.0654
  389MOL0     C51269   7.708   6.504   5.946  0.2643 -0.0771 -0.2884
  389MOL0     C51270   8.128   6.634   5.904 -0.4739 -0.4111 -0.1697
  389MOL0     C51271   8.173   6.760   5.868  0.0658  0.1596  0.5428
  389MOL0     C51272   8.307   6.791   5.872  0.2587 -0.3811  0.6927
  389MOL0     C51273   8.407   6.694   5.900 -0.9729  0.6220 -0.5341
  389MOL0     O51274   8.547   6.707   5.899  1.0180 -0.0258 -0.7822
  389MOL0     C51275   8.602   6.839   5.898  0.0457  0.0157 -0.0309
  389MOL0     C51276   8.745   6.829   5.907  0.2040 -0.2903 -0.9624
  389MOL0     C51277   8.800   6.863   6.051 -0.6563 -0.3335 -0.3431
  389MOL0     C51278   8.961   6.874   6.052  0.5066  0.0532 -0.1756
  389MOL0     C51279   9.036   6.753   6.018 -0.1523  0.6238  0.0900
  389MOL0     C51280   9.087   6.642   6.014  0.8168 -0.1120 -0.0144
  389MOL0     C51281   8.361   6.561   5.907  0.0674 -0.1078 -0.3759
  389MOL0     C51282   8.225   6.535   5.911 -0.3192 -0.1296  0.1890
  389MOL0     H51283   7.909   6.275   6.106  0.5213  0.5787  0.7055
  389MOL0     H51284   7.688   6.158   6.119  0.0319  1.6922  3.9453
  389MOL0     H51285   7.472   6.110   6.202  1.5636  1.2705 -0.0808
  389MOL0     H51286   7.531   6.039   6.054 -0.0462 -1.1994  3.1037
  389MOL0     H51287   7.317   5.943   6.080  0.8770 -0.0100  1.9708
  389MOL0     H51288   7.300   6.073   5.958 -2.5576  1.0221  0.1207
  389MOL0     H51289   7.242   6.219   6.160 -2.2729 -0.0585 -5.1396
  389MOL0     H51290   7.241   6.062   6.260  1.4521  2.2894  0.8473
  389MOL0     H51291   7.057   6.152   6.025  0.3788  0.3026 -0.1769
  389MOL0     H51292   7.078   5.986   6.083  2.5701  0.3960  1.7776
  389MOL0     H51293   7.028   6.227   6.260 -1.6166 -0.0839  1.6522
  389MOL0     H51294   6.995   6.055   6.298 -0.5779  0.8226 -0.3513
  389MOL0     H51295   6.806   6.039   6.144 -0.5067 -0.6241  0.1274
  389MOL0     H51296   6.830   6.194   6.091  1.3842  0.7800  1.1744
  389MOL0     H51297   6.805   6.291   6.330 -0.9725  1.2196  0.2935
  389MOL0     H51298   6.652   6.233   6.267  0.2195  0.0607  0.4933
  389MOL0     H51299   6.833   6.084   6.440 -0.7299  1.4638  1.8473
  389MOL0     H51300   6.671   6.020   6.385  0.3894 -0.3553  0.8388
  389MOL0     H51301   6.746   6.375   6.530 -0.7905  0.1183 -0.6646
  389MOL0     H51302   6.437   6.474   6.668  0.8426 -0.4207 -1.3869
  389MOL0     H51303   6.603   6.537   6.679  1.5703 -1.1405  1.5439
  389MOL0     H51304   6.633   6.435   6.903  0.3644  0.8392  1.3215
  389MOL0     H51305   6.473   6.372   6.905  1.0965 -0.3933  0.2495
  389MOL0     H51306   6.523   6.616   7.021 -1.5950 -1.6247  1.8981
  389MOL0     H51307   6.510   6.672   6.853 -0.4587  0.8917  1.2402
  389MOL0     H51308   6.312   6.685   6.990  2.6628  0.3065 -0.2893
  389MOL0     H51309   6.309   6.518   7.020  0.1880  0.8932  0.8219
  389MOL0     H51310   6.144   6.561   6.600 -0.1625  2.7719 -0.8837
  389MOL0     H51311   5.885   6.566   6.572 -0.1390 -1.7964  0.7391
  389MOL0     H51312   5.580   6.344   6.704 -1.0638 -4.5723 -0.6188
  389MOL0     H51313   5.330   6.272   6.639 -1.8405  0.1385  0.0253
  389MOL0     H51314   5.094   6.253   6.605 -2.3703 -0.4020  0.0430
  389MOL0     H51315   5.109   6.418   6.548 -0.6580  0.4470  1.3165
  389MOL0     H51316   4.883   6.330   6.519  2.5422 -0.5225  0.1775
  389MOL0     H51317   4.909   6.487   6.600 -2.6335 -0.2544  2.9577
  389MOL0     H51318   4.852   6.400   6.819  2.2551  0.9537 -1.2160
  389MOL0     H51319   4.857   6.236   6.756 -2.7541 -0.2174  1.4844
  389MOL0     H51320   4.646   6.439   6.703 -2.6036 -0.5113 -0.0624
  389MOL0     H51321   4.648   6.276   6.626  1.7377 -0.6373 -0.7793
  389MOL0     H51322   4.643   6.318   6.938 -0.9102  0.7656  0.2902
  389MOL0     H51323   4.663   6.170   6.848 -2.7373 -1.3046 -0.7151
  389MOL0     H51324   4.445   6.211   6.727 -0.7000 -0.6150 -0.1995
  389MOL0     H51325   4.410   6.336   6.853 -0.0388 -0.3419 -2.0411
  389MOL0     H51326   4.439   6.043   6.883 -1.0278 -0.7658  0.2655
  389MOL0     H51327   4.436   6.162   7.025 -0.7351 -1.6161  0.2733
  389MOL0     H51328   4.244   6.032   6.966  1.7931  1.0718  2.0175
  389MOL0     H51329   4.231   6.115   6.808 -0.1774  0.8716  0.2840
  389MOL0     H51330   5.207   6.562   6.933 -1.1875  0.2794 -1.1628
  389MOL0     H51331   5.432   6.612   6.984 -2.4599 -1.0463  0.1476
  389MOL0     H51332   5.853   6.614   6.992  0.4161 -1.3194  0.6114
  389MOL0     H51333   6.091   6.581   7.028  1.0166  1.5706  0.0176
  389MOL0     H51334   7.497   6.482   5.922 -0.6968 -0.1012 -0.4791
  389MOL0     H51335   7.708   6.597   5.890  4.9550  1.1571  1.3247
  389MOL0     H51336   8.101   6.840   5.857  1.7102  1.7332  0.8365
  389MOL0     H51337   8.339   6.885   5.830 -0.0054 -0.6943 -0.2364
  389MOL0     H51338   8.557   6.905   5.973 -0.7505 -0.0276 -0.4590
  389MOL0     H51339   8.574   6.890   5.805  1.2112 -2.8039 -2.0878
  389MOL0     H51340   8.787   6.733   5.876  0.0468 -1.0690  1.1138
  389MOL0     H51341   8.778   6.914   5.847 -1.0959  1.8356  1.1681
  389MOL0     H51342   8.781   6.783   6.123  0.8033 -0.1096  0.3256
  389MOL0     H51343   8.754   6.955   6.087  3.2759  1.4662  0.6586
  389MOL0     H51344   9.003   6.957   5.994  2.9328 -0.2667  0.9867
  389MOL0     H51345   8.989   6.907   6.152  0.4037  0.9387 -0.4322
  389MOL0     H51346   9.140   6.549   6.019  2.4527  0.7820 -0.2216
  389MOL0     H51347   8.434   6.481   5.913 -0.6490 -0.8751 -1.5162
  389MOL0     H51348   8.196   6.432   5.927 -0.2231 -0.1980 -0.0855
  390MOL0     O51349   9.912   9.964   6.103  0.0045 -0.0544  0.3883
  390MOL0     C51350   9.897   9.981   6.226 -0.7006  0.0433  0.4587
  390MOL0     O51351   9.778  10.002   6.286 -0.4172  0.0540  0.0767
  390MOL0     C51352   9.657   9.980   6.218 -0.7266  0.0324 -0.4418
  390MOL0     C51353   9.645   9.876   6.123 -0.4372  0.2489  0.3452
  390MOL0     C51354   9.523   9.834   6.066 -0.2501  0.1160 -0.1687
  390MOL0     C51355   9.404   9.900   6.102  0.3849 -0.4084 -0.0715
  390MOL0     O51356   9.300   9.868   6.031  0.2218 -0.6697  1.0662
  390MOL0     C51357   9.172   9.916   6.085  0.1221 -0.5678 -0.0087
  390MOL0     C51358   9.141   9.833   6.206 -0.9599  0.7896 -0.0481
  390MOL0     C51359   8.994   9.834   6.250  0.2289 -0.0546  0.4057
  390MOL0     C51360   8.979   9.796   6.400  0.5872 -0.0633  0.4344
  390MOL0     C51361   8.840   9.724   6.419 -0.6312 -0.4726  0.0631
  390MOL0     C51362   8.720   9.824   6.417  0.3505  0.3519 -0.6415
  390MOL0     C51363   8.587   9.760   6.439  0.5709 -0.0397  0.0607
  390MOL0     C51364   8.527   9.740   6.299 -0.6861 -0.1809  0.1674
  390MOL0     N51365   8.464   9.873   6.256  0.1577  0.6550  0.7963
  390MOL0     C51366   8.340   9.906   6.303 -0.1417  0.3051  0.4252
  390MOL0     C51367   8.303  10.016   6.228 -0.7173 -0.1993  0.4048
  390MOL0     C51368   8.188  10.111   6.234  0.6088 -0.3061  0.1412
  390MOL0     C51369   8.190  10.205   6.352 -0.4053  0.3623 -0.1893
  390MOL0     C51370   8.063  10.294   6.376 -0.0773 -0.0704  0.1585
  390MOL0     C51371   8.094  10.386   6.497  0.1418 -0.3944 -0.9801
  390MOL0     O51372   8.124  10.320   6.622  0.6678  0.7613 -0.0956
  390MOL0     C51373   8.023  10.288   6.712  0.8041 -0.0066  0.7490
  390MOL0     C51374   7.881  10.298   6.690 -0.1718  0.5905  0.0891
  390MOL0     C51375   7.792  10.262   6.780  0.4402  0.5742 -0.1067
  390MOL0     C51376   7.824  10.198   6.895  0.7053 -0.2810  0.1198
  390MOL0     C51377   7.726  10.141   6.991  0.4098 -0.8197  0.0691
  390MOL0     O51378   7.601  10.133   6.946  0.0102 -0.9531 -0.4052
  390MOL0     C51379   7.496  10.095   7.024 -0.2406 -0.2089  0.0105
  390MOL0     C51380   7.461  10.158   7.144 -0.6208  0.0355 -0.8617
  390MOL0     C51381   7.365  10.100   7.228 -0.7352  0.1870  0.3687
  390MOL0     C51382   7.284   9.992   7.177  0.3807 -0.1395  0.5431
  390MOL0     O51383   7.194   9.942   7.264  0.0377  1.0682  0.4180
  390MOL0     C51384   7.078   9.879   7.216  0.3408 -0.0396  0.7070
  390MOL0     C51385   6.960   9.915   7.320 -0.2775 -0.0777  0.5951
  390MOL0     C51386   6.831   9.908   7.246 -0.0280  0.0725 -0.3883
  390MOL0     C51387   6.710   9.897   7.340 -0.8442 -0.2433  0.4386
  390MOL0     C51388   6.565   9.931   7.304  0.0709  0.7869 -0.5572
  390MOL0     C51389   6.506   9.858   7.187  0.4652  0.1997 -0.8441
  390MOL0     C51390   6.371   9.916   7.151  0.1541  0.2317  0.0487
  390MOL0     C51391   6.320   9.869   7.017  0.0753  0.5919 -0.1988
  390MOL0    Cl51392   6.314   9.689   6.987  0.3489 -0.5169  0.1036
  390MOL0     C51393   7.303   9.942   7.044 -0.2537  0.0379 -0.7750
  390MOL0     C51394   7.415   9.991   6.974  0.3511 -0.8330  0.7797
  390MOL0     O51395   7.758  10.110   7.106 -0.0301 -0.3230  0.1046
  390MOL0     C51396   7.965  10.166   6.912  0.7372 -0.0221 -0.8760
  390MOL0     C51397   8.065  10.213   6.822  0.4847  0.4045 -0.2866
  390MOL0     N51398   8.407  10.051   6.141 -0.5745  0.7926  0.5063
  390MOL0     N51399   8.501   9.962   6.157  0.1627 -0.3317  0.9786
  390MOL0     C51400   9.412  10.006   6.196  0.7388 -0.1040  0.3225
  390MOL0     C51401   9.536  10.048   6.256 -1.2813 -0.2411  0.4281
  390MOL0     C51402  10.023   9.975   6.299 -0.1329 -0.3558  0.0797
  390MOL0     C51403  10.053  10.050   6.418 -0.8630  0.0600  0.0146
  390MOL0     C51404  10.181  10.055   6.470 -0.3063 -0.0192 -0.1371
  390MOL0     C51405  10.285   9.986   6.413  0.1048 -0.2576  0.3385
  390MOL0     O51406  10.419   9.996   6.464  0.0820 -0.0000  0.0655
  390MOL0     C51407  10.465  10.109   6.535 -0.6759  0.6716 -0.1074
  390MOL0     C51408  10.612  10.091   6.580  0.3754  1.0544 -0.1295
  390MOL0     C51409  10.665  10.208   6.662 -0.1040  0.8402 -0.9035
  390MOL0     C51410  10.812  10.179   6.697 -0.2081 -0.5157 -0.0999
  390MOL0     C51411  10.858  10.305   6.766  0.0076  0.2455 -0.8744
  390MOL0     C51412  10.853  10.418   6.815 -0.0260 -0.3274 -0.0885
  390MOL0     C51413  10.256   9.912   6.300  0.4324  0.3371  1.0578
  390MOL0     C51414  10.128   9.902   6.242 -0.0864  0.0796  1.3981
  390MOL0     H51415   9.729   9.815   6.091 -1.6342 -1.9387  1.1497
  390MOL0     H51416   9.514   9.743   6.008 -1.2443 -0.2403  0.5143
  390MOL0     H51417   9.100   9.875   6.013  0.6897 -0.2243 -0.7854
  390MOL0     H51418   9.167  10.025   6.081  2.3789 -0.1216  4.1314
  390MOL0     H51419   9.203   9.876   6.285  0.5628  0.2108 -0.8905
  390MOL0     H51420   9.165   9.731   6.174  1.6143  1.6922 -1.2717
  390MOL0     H51421   8.933   9.775   6.180 -2.6040  1.9474  1.0503
  390MOL0     H51422   8.948   9.932   6.235 -0.6461 -0.4262  0.5670
  390MOL0     H51423   9.061   9.730   6.426  1.4196  0.3832 -0.9433
  390MOL0     H51424   8.988   9.883   6.466  1.2720 -0.1419  0.4485
  390MOL0     H51425   8.839   9.681   6.520 -5.2862 -1.5971 -0.2683
  390MOL0     H51426   8.830   9.637   6.354  2.6392 -0.2315 -0.9559
  390MOL0     H51427   8.729   9.868   6.317 -2.0551 -2.2533 -2.1676
  390MOL0     H51428   8.749   9.897   6.493  3.4200 -0.1410 -1.2415
  390MOL0     H51429   8.594   9.664   6.491 -0.8845 -0.2663 -0.1279
  390MOL0     H51430   8.520   9.811   6.509 -2.1148 -0.2733 -2.1839
  390MOL0     H51431   8.452   9.661   6.300 -1.3418  0.4302  0.2471
  390MOL0     H51432   8.597   9.706   6.223 -2.3664  0.7028 -1.8621
  390MOL0     H51433   8.283   9.858   6.383  1.0380  0.2620  1.2554
  390MOL0     H51434   8.096  10.053   6.246 -2.0971  3.0686 -2.2044
  390MOL0     H51435   8.179  10.162   6.138  0.0158 -1.3757 -0.3887
  390MOL0     H51436   8.281  10.266   6.339  2.7303 -3.2300  2.6492
  390MOL0     H51437   8.218  10.149   6.441  1.2424 -0.1409 -0.9737
  390MOL0     H51438   8.036  10.353   6.287 -2.3233  0.7458  1.2929
  390MOL0     H51439   7.975  10.231   6.395  0.0366  0.3633  2.3906
  390MOL0     H51440   8.011  10.455   6.511 -1.0135 -1.9098 -0.1398
  390MOL0     H51441   8.182  10.442   6.462  0.3820 -1.0647 -1.4679
  390MOL0     H51442   7.853  10.344   6.596  1.6617  1.2792 -0.1510
  390MOL0     H51443   7.689  10.282   6.753 -0.3444 -3.8943 -1.2002
  390MOL0     H51444   7.526  10.235   7.185 -0.4290 -2.2191  3.7323
  390MOL0     H51445   7.346  10.132   7.330 -0.5821 -2.6901  1.4076
  390MOL0     H51446   7.090   9.772   7.198  0.1623  0.2755 -1.6160
  390MOL0     H51447   7.038   9.924   7.125 -1.6224 -0.1112  1.4955
  390MOL0     H51448   6.970  10.018   7.356 -0.3773  0.8477 -1.8452
  390MOL0     H51449   6.955   9.842   7.401  0.9441 -0.6060  0.2302
  390MOL0     H51450   6.810   9.815   7.192 -2.0039  0.8919 -1.1470
  390MOL0     H51451   6.805   9.994   7.183 -2.9280 -1.9158 -2.1616
  390MOL0     H51452   6.719   9.808   7.402  0.4487 -2.5391 -2.7870
  390MOL0     H51453   6.734   9.984   7.401 -1.5718 -1.1170  2.0379
  390MOL0     H51454   6.570  10.040   7.293  0.7065  0.9726  1.2737
  390MOL0     H51455   6.499   9.912   7.389  1.5712 -0.7527  0.3192
  390MOL0     H51456   6.495   9.755   7.222 -0.1069 -0.0020 -1.5895
  390MOL0     H51457   6.572   9.859   7.100 -1.0640 -1.1081 -2.0719
  390MOL0     H51458   6.298   9.899   7.231  2.6537 -2.3833  1.9773
  390MOL0     H51459   6.399  10.021   7.141  1.6346 -0.1395  0.1785
  390MOL0     H51460   6.385   9.921   6.947 -0.3311  0.2445 -0.8397
  390MOL0     H51461   6.219   9.906   6.998  0.6293  1.2683 -2.0523
  390MOL0     H51462   7.249   9.858   7.001 -3.7578  1.7400 -0.0364
  390MOL0     H51463   7.442   9.951   6.877 -2.1720  0.1221 -0.3986
  390MOL0     H51464   7.979  10.087   6.985 -1.8083 -1.0788 -1.4504
  390MOL0     H51465   8.167  10.191   6.848  0.2478  0.0775  0.3753
  390MOL0     H51466   9.322  10.053   6.234 -1.0145 -1.2388 -2.1546
  390MOL0     H51467   9.540  10.126   6.332  0.6449  0.6789 -0.5413
  390MOL0     H51468   9.985  10.117   6.471  0.5803  0.0779  1.9495
  390MOL0     H51469  10.200  10.110   6.562  0.6544  2.5932 -1.7664
  390MOL0     H51470  10.402  10.119   6.623  0.4101  1.7652  0.5727
  390MOL0     H51471  10.456  10.199   6.473  4.6448  2.3678  1.0765
  390MOL0     H51472  10.626   9.993   6.627 -0.1950  0.2402 -1.6081
  390MOL0     H51473  10.684  10.084   6.498  4.6602  0.1365  3.2887
  390MOL0     H51474  10.602  10.219   6.751  0.0070  0.0660 -0.7248
  390MOL0     H51475  10.659  10.308   6.619  0.6987  2.0942  1.7002
  390MOL0     H51476  10.822  10.094   6.764 -0.0619  0.7600  1.5426
  390MOL0     H51477  10.872  10.160   6.607  0.1509  0.9261 -0.1929
  390MOL0     H51478  10.852  10.519   6.852 -2.1423  0.6588 -2.5297
  390MOL0     H51479  10.346   9.858   6.271  0.9469  1.3569  0.6765
  390MOL0     H51480  10.118   9.857   6.144  0.9384  2.7680 -0.0522
  391MOL0     O51481   8.320   5.432  10.112 -0.4585  0.9225  0.3972
  391MOL0     C51482   8.408   5.496  10.167 -0.6636  0.1876 -0.2116
  391MOL0     O51483   8.431   5.508  10.305 -0.5156  0.2424 -0.3134
  391MOL0     C51484   8.360   5.435  10.397 -0.2556 -0.0330  1.4497
  391MOL0     C51485   8.253   5.496  10.463 -0.4767  0.3015 -0.1509
  391MOL0     C51486   8.181   5.419  10.564 -0.3802 -0.6969  1.0804
  391MOL0     C51487   8.206   5.278  10.573 -0.3572  0.1478 -0.6217
  391MOL0     O51488   8.122   5.188  10.638 -0.4594 -0.3984 -0.0997
  391MOL0     C51489   8.024   5.249  10.720  0.5970  0.5202 -0.0949
  391MOL0     C51490   7.982   5.127  10.798 -0.3791  0.0957  0.5212
  391MOL0     C51491   7.850   5.145  10.882  0.1994 -0.2133 -0.1594
  391MOL0     C51492   7.717   5.139  10.796 -0.0770 -0.1521 -0.6740
  391MOL0     C51493   7.585   5.195  10.861 -0.3225  0.1162  0.1191
  391MOL0     C51494   7.466   5.171  10.762 -0.5816 -0.6317 -0.5297
  391MOL0     C51495   7.328   5.157  10.822  0.6223 -0.6674 -0.3020
  391MOL0     C51496   7.284   5.275  10.914  1.0123 -0.4385 -1.0363
  391MOL0     N51497   7.141   5.248  10.948 -0.0335  0.3012 -0.0920
  391MOL0     C51498   7.040   5.317  10.901 -0.0939 -0.7756 -1.2075
  391MOL0     C51499   6.928   5.255  10.955 -0.1238 -0.2021 -0.1354
  391MOL0     C51500   6.784   5.295  10.925  0.2472 -0.5716 -1.1400
  391MOL0     C51501   6.748   5.321  10.780  0.0303  0.0448 -0.2754
  391MOL0     C51502   6.597   5.380  10.763 -0.5703  0.3207  0.4008
  391MOL0     C51503   6.490   5.289  10.806  0.3584  0.0171  0.6036
  391MOL0     O51504   6.369   5.335  10.751  0.6106  0.3528 -0.1705
  391MOL0     C51505   6.261   5.256  10.776  0.4766 -0.1242  0.0970
  391MOL0     C51506   6.136   5.302  10.727 -0.3103 -0.5976  0.0389
  391MOL0     C51507   6.020   5.224  10.751  1.0018  0.5556  0.1211
  391MOL0     C51508   6.024   5.094  10.797 -0.4410 -0.0171 -0.1577
  391MOL0     C51509   5.904   5.009  10.813  0.8689  0.7820 -0.4258
  391MOL0     O51510   5.914   4.884  10.850 -0.5496 -0.1058  0.2840
  391MOL0     C51511   5.811   4.796  10.862 -0.5380  0.2198  0.6409
  391MOL0     C51512   5.692   4.802  10.780  0.6222  0.2176 -2.2205
  391MOL0     C51513   5.583   4.719  10.809  0.2212  0.0704  0.7103
  391MOL0     C51514   5.589   4.633  10.914 -1.4755  0.2052  0.3333
  391MOL0     O51515   5.484   4.561  10.961 -0.4281 -0.3192  0.1981
  391MOL0     C51516   5.400   4.508  10.854  0.3334 -0.9163 -0.9007
  391MOL0     C51517   5.337   4.384  10.910  0.3120 -0.5305 -0.5256
  391MOL0     C51518   5.229   4.333  10.808 -0.7321 -0.0759 -0.2930
  391MOL0     C51519   5.147   4.218  10.866 -0.5961  0.4522  0.1071
  391MOL0     C51520   5.021   4.186  10.787 -0.0196  0.8272  0.3474
  391MOL0     C51521   5.040   4.124  10.645  0.0611  0.4447 -0.1961
  391MOL0     C51522   4.922   4.153  10.561  0.5765 -0.7373 -0.8286
  391MOL0     C51523   4.785   4.107  10.614  0.3511 -0.9020 -0.5748
  391MOL0    Cl51524   4.644   4.134  10.513 -0.2891  0.7187 -0.2790
  391MOL0     C51525   5.712   4.614  10.980  0.3529 -0.7804  0.2162
  391MOL0     C51526   5.825   4.694  10.959  0.1009  0.2039 -0.4936
  391MOL0     O51527   5.801   5.057  10.774 -0.5508  0.1933 -0.2240
  391MOL0     C51528   6.148   5.047  10.853  0.0519 -0.3291  0.3407
  391MOL0     C51529   6.260   5.131  10.847 -0.0069 -0.1224  0.3449
  391MOL0     N51530   6.969   5.134  11.017 -0.6268 -0.8102 -0.1593
  391MOL0     N51531   7.095   5.150  11.035 -0.3305 -0.2091 -0.0002
  391MOL0     C51532   8.316   5.227  10.511 -0.1265 -1.0976 -0.0330
  391MOL0     C51533   8.388   5.303  10.416 -0.0715 -0.5284  0.1148
  391MOL0     C51534   8.492   5.565  10.071 -0.5304 -0.8953 -0.0547
  391MOL0     C51535   8.584   5.669  10.125  0.1101  0.1100 -0.8779
  391MOL0     C51536   8.651   5.753  10.038  0.4358 -0.5516  0.2341
  391MOL0     C51537   8.654   5.724   9.899 -0.0169  0.8604 -0.0538
  391MOL0     O51538   8.727   5.815   9.825  0.2418 -0.0604  0.1921
  391MOL0     C51539   8.769   5.781   9.696  0.7683  0.5876 -0.1903
  391MOL0     C51540   8.880   5.682   9.712  1.1773  0.5082  0.1525
  391MOL0     C51541   9.005   5.729   9.780 -0.4729  0.4769  0.2290
  391MOL0     C51542   9.129   5.717   9.688 -0.1069  0.9542  0.2975
  391MOL0     C51543   9.241   5.782   9.748 -0.6888 -0.5353 -0.8271
  391MOL0     C51544   9.341   5.834   9.795 -0.0701  1.0932  0.3699
  391MOL0     C51545   8.580   5.612   9.849  0.0573 -0.4170 -0.7088
  391MOL0     C51546   8.487   5.545   9.935 -0.8211 -0.4130  0.2074
  391MOL0     H51547   8.227   5.602  10.455  0.7881  0.5181 -1.8614
  391MOL0     H51548   8.102   5.474  10.613  0.2083  1.8105 -0.5650
  391MOL0     H51549   7.951   5.295  10.653 -1.3936 -1.8972  0.2789
  391MOL0     H51550   8.074   5.323  10.783 -0.9558  2.0259 -0.5699
  391MOL0     H51551   8.067   5.113  10.864  0.9768 -1.9287 -1.5141
  391MOL0     H51552   7.966   5.043  10.729 -0.1276 -0.1770  0.7940
  391MOL0     H51553   7.859   5.243  10.930  0.0947 -1.1083  1.8116
  391MOL0     H51554   7.846   5.070  10.962  0.1463  1.8232  1.8828
  391MOL0     H51555   7.744   5.195  10.707  0.7575  2.2612  0.9956
  391MOL0     H51556   7.702   5.033  10.774  0.1543 -0.6290  1.2607
  391MOL0     H51557   7.592   5.302  10.883 -2.3565  0.5898 -1.2437
  391MOL0     H51558   7.579   5.139  10.955 -0.8274  0.5378  0.3465
  391MOL0     H51559   7.492   5.082  10.703  2.1611 -0.2503 -0.0194
  391MOL0     H51560   7.470   5.253  10.689  0.5516 -0.5759 -0.4184
  391MOL0     H51561   7.259   5.147  10.738  0.4392 -0.5628 -0.1678
  391MOL0     H51562   7.325   5.065  10.882 -1.2466 -0.1090  0.5488
  391MOL0     H51563   7.315   5.367  10.865  2.4024 -1.3747 -2.0106
  391MOL0     H51564   7.337   5.266  11.009  1.8322  1.2575 -1.2979
  391MOL0     H51565   7.043   5.396  10.827 -0.0285  1.9547  1.4849
  391MOL0     H51566   6.762   5.380  10.991 -0.3627 -1.0697 -0.7000
  391MOL0     H51567   6.724   5.212  10.962 -1.5188  2.0082  2.3769
  391MOL0     H51568   6.755   5.233  10.716 -1.5607  1.6994 -2.9367
  391MOL0     H51569   6.824   5.396  10.756  1.4320 -1.2335  0.0560
  391MOL0     H51570   6.595   5.467  10.830 -1.8630  0.9549 -0.4300
  391MOL0     H51571   6.577   5.408  10.659 -1.0733  0.4279  0.5222
  391MOL0     H51572   6.487   5.294  10.915  0.3480 -0.1206  0.6099
  391MOL0     H51573   6.510   5.187  10.774 -0.4547  0.1650 -0.4541
  391MOL0     H51574   6.117   5.397  10.678 -2.5903 -2.4620 -3.1020
  391MOL0     H51575   5.928   5.269  10.714  2.2739  2.6587 -0.6176
  391MOL0     H51576   5.675   4.864  10.693 -4.5560 -0.1325 -1.7715
  391MOL0     H51577   5.497   4.735  10.745  1.4802 -0.4060 -1.1755
  391MOL0     H51578   5.461   4.487  10.766  0.4555  0.3510 -1.1464
  391MOL0     H51579   5.322   4.578  10.821 -2.1984 -1.7856  2.5797
  391MOL0     H51580   5.300   4.420  11.006 -0.2240 -1.8492 -0.2191
  391MOL0     H51581   5.404   4.300  10.928 -2.3175 -2.5675  0.3325
  391MOL0     H51582   5.286   4.300  10.720  0.6536  2.3824 -0.3913
  391MOL0     H51583   5.156   4.411  10.784 -1.6750 -0.6286  0.7293
  391MOL0     H51584   5.205   4.125  10.868 -2.2966 -0.7387 -1.7361
  391MOL0     H51585   5.116   4.257  10.963 -0.8136 -2.0127  1.0965
  391MOL0     H51586   4.956   4.273  10.787  0.7798  1.4872 -1.8552
  391MOL0     H51587   4.970   4.109  10.846  0.2361 -0.4590 -1.0266
  391MOL0     H51588   5.058   4.018  10.665 -2.0469  0.1447  0.3945
  391MOL0     H51589   5.125   4.171  10.596 -2.4784  3.9139 -1.7729
  391MOL0     H51590   4.918   4.262  10.547 -2.7237 -0.0899  3.2284
  391MOL0     H51591   4.939   4.108  10.463  1.6887 -1.2092 -0.4301
  391MOL0     H51592   4.767   4.167  10.704  0.3065  2.3939 -2.5784
  391MOL0     H51593   4.795   4.003  10.646  0.5235 -0.7713 -0.1936
  391MOL0     H51594   5.713   4.531  11.050  1.0200 -0.8905  0.0797
  391MOL0     H51595   5.913   4.694  11.022  1.3841  1.5941 -2.1667
  391MOL0     H51596   6.140   4.953  10.907  0.3531  0.0336  1.0290
  391MOL0     H51597   6.354   5.104  10.894  0.1496  0.3992  0.3372
  391MOL0     H51598   8.339   5.121  10.515 -4.4231 -2.2049  0.7814
  391MOL0     H51599   8.455   5.250  10.349 -0.9903 -3.6608  1.5359
  391MOL0     H51600   8.594   5.667  10.233  0.2135 -1.2839 -0.8855
  391MOL0     H51601   8.703   5.844  10.068  0.8235  0.2836 -2.7119
  391MOL0     H51602   8.809   5.863   9.635 -0.2613  0.0382 -1.6557
  391MOL0     H51603   8.687   5.743   9.635  1.9953 -2.1119 -0.2730
  391MOL0     H51604   8.838   5.598   9.768 -2.4363  3.1515  1.8712
  391MOL0     H51605   8.903   5.645   9.612  0.3003 -0.0330  0.1431
  391MOL0     H51606   9.023   5.661   9.865 -1.1041  1.6811  1.3620
  391MOL0     H51607   9.003   5.828   9.827  2.7528 -0.1553  2.0638
  391MOL0     H51608   9.149   5.614   9.658  0.0238  0.9666  0.3408
  391MOL0     H51609   9.098   5.765   9.595  1.0911  0.8117 -0.1845
  391MOL0     H51610   9.433   5.873   9.836  1.3090  0.5248 -2.0111
  391MOL0     H51611   8.585   5.586   9.744 -2.0828  2.5062 -1.6744
  391MOL0     H51612   8.423   5.464   9.900 -1.9972 -0.6974  2.7455
  392MOL0     O51613   9.124   5.494   0.166 -0.5475  0.2290  0.5526
  392MOL0     C51614   9.200   5.399   0.172 -0.6874 -0.0611  0.1349
  392MOL0     O51615   9.164   5.269   0.160 -0.0219 -0.0339 -0.4749
  392MOL0     C51616   9.031   5.241   0.187 -0.4692  0.0480 -0.2229
  392MOL0     C51617   8.921   5.280   0.104  0.3851 -0.7788 -0.0277
  392MOL0     C51618   8.791   5.255   0.154  0.4145 -0.1249  0.3872
  392MOL0     C51619   8.771   5.187   0.273  0.2823  0.2984  0.3620
  392MOL0     O51620   8.648   5.144   0.324 -0.6661  0.1150 -0.9096
  392MOL0     C51621   8.533   5.202   0.261 -0.0495 -0.0306  0.4673
  392MOL0     C51622   8.404   5.185   0.341  0.4658  0.3561 -0.2399
  392MOL0     C51623   8.288   5.267   0.305  0.0069  0.0013  0.2690
  392MOL0     C51624   8.184   5.277   0.415  0.3991  0.2226 -0.3899
  392MOL0     C51625   8.065   5.352   0.369 -0.7888  0.2548  0.5949
  392MOL0     C51626   7.942   5.310   0.449  0.3295  0.5062 -0.0478
  392MOL0     C51627   7.805   5.360   0.378 -0.2382 -0.3210 -0.5122
  392MOL0     C51628   7.684   5.342   0.468 -0.5811 -0.0228  0.9183
  392MOL0     N51629   7.571   5.442   0.458 -0.1285  0.7608 -0.2873
  392MOL0     C51630   7.478   5.446   0.359  0.5752 -0.7891 -0.0166
  392MOL0     C51631   7.393   5.549   0.393  0.4231  0.1083  0.0283
  392MOL0     C51632   7.267   5.596   0.330  0.4030 -0.0873  0.4619
  392MOL0     C51633   7.163   5.485   0.318  0.3501 -0.2773  0.3062
  392MOL0     C51634   7.123   5.425   0.453  0.4522  1.3056 -1.0161
  392MOL0     C51635   6.987   5.354   0.447  0.1067  0.3940 -0.0880
  392MOL0     O51636   6.888   5.460   0.427 -0.5299  0.6152  0.1566
  392MOL0     C51637   6.758   5.434   0.449 -0.0534  0.6216  1.0612
  392MOL0     C51638   6.704   5.305   0.478  0.1946 -0.1810  0.4402
  392MOL0     C51639   6.571   5.281   0.467  0.5040  0.9243  0.3051
  392MOL0     C51640   6.480   5.391   0.432 -0.1988  0.8898  0.1865
  392MOL0     C51641   6.340   5.357   0.395  0.4111 -0.1108 -1.0498
  392MOL0     O51642   6.261   5.466   0.360  0.2243  0.4775  0.6525
  392MOL0     C51643   6.132   5.449   0.316  0.5405  1.1667 -0.0558
  392MOL0     C51644   6.113   5.360   0.213 -0.1918 -0.2197 -0.0878
  392MOL0     C51645   5.978   5.353   0.159  0.1094 -0.5828 -0.2600
  392MOL0     C51646   5.876   5.436   0.217 -0.0764 -0.9084  0.6038
  392MOL0     O51647   5.741   5.440   0.186 -0.4635  0.0476 -0.0781
  392MOL0     C51648   5.691   5.343   0.100 -0.3091  0.5178  0.3744
  392MOL0     C51649   5.538   5.362   0.077 -0.1729  0.9240 -0.6119
  392MOL0     C51650   5.464   5.311   0.200 -0.3352 -0.9177  0.1278
  392MOL0     C51651   5.315   5.299   0.170 -0.7335 -0.4497  0.5956
  392MOL0     C51652   5.249   5.225   0.299 -0.8589 -0.1834  0.2612
  392MOL0     C51653   5.112   5.165   0.285 -0.3496 -0.5879 -0.8225
  392MOL0     C51654   5.109   5.045   0.188 -0.0094 -0.2949 -0.2749
  392MOL0     C51655   4.990   4.961   0.218 -0.0498  0.3726 -0.1129
  392MOL0    Cl51656   4.844   5.061   0.196 -0.6922 -0.3547 -0.1952
  392MOL0     C51657   5.902   5.516   0.324 -0.7343  0.1821 -0.0008
  392MOL0     C51658   6.036   5.529   0.372  0.1166 -0.3254  0.4601
  392MOL0     O51659   6.302   5.238   0.398 -0.4618 -1.2133  0.0943
  392MOL0     C51660   6.532   5.519   0.415  0.1497 -0.7139  0.1241
  392MOL0     C51661   6.664   5.536   0.431 -0.5633 -0.6136  0.6039
  392MOL0     N51662   7.444   5.605   0.510  0.1273  0.4676 -0.1109
  392MOL0     N51663   7.544   5.543   0.545 -0.5029  0.0380 -0.7999
  392MOL0     C51664   8.877   5.157   0.357  0.1483  0.9094  0.0326
  392MOL0     C51665   9.006   5.181   0.312 -0.1353  0.2131 -0.2851
  392MOL0     C51666   9.346   5.422   0.202  0.0072  0.2842 -0.3941
  392MOL0     C51667   9.397   5.551   0.227  0.0941  0.0118 -0.5614
  392MOL0     C51668   9.532   5.578   0.271  0.4106 -0.4626  0.3399
  392MOL0     C51669   9.619   5.468   0.278 -0.4330  0.3350  0.3912
  392MOL0     O51670   9.757   5.486   0.313 -0.2937 -0.9204  0.1007
  392MOL0     C51671   9.816   5.587   0.227 -0.6424 -0.0113  0.4267
  392MOL0     C51672   9.966   5.623   0.247  0.0326 -0.1173 -0.1858
  392MOL0     C51673  10.071   5.513   0.238  0.3721  0.2596 -0.0237
  392MOL0     C51674  10.102   5.455   0.378  0.0260  0.2827  0.3511
  392MOL0     C51675  10.225   5.372   0.387  0.3376  0.2776 -0.2888
  392MOL0     C51676  10.326   5.313   0.400  0.3500  1.3000  0.4433
  392MOL0     C51677   9.571   5.345   0.243  0.5359  1.0020  0.4372
  392MOL0     C51678   9.431   5.316   0.208 -0.5969  0.2787 -0.5240
  392MOL0     H51679   8.951   5.322   0.009  0.7747  2.6237  1.4640
  392MOL0     H51680   8.711   5.284   0.087 -0.1688  1.8108  1.8453
  392MOL0     H51681   8.516   5.158   0.163  2.1487 -0.4081  0.2166
  392MOL0     H51682   8.553   5.309   0.244  3.3724 -0.6600 -0.2857
  392MOL0     H51683   8.432   5.203   0.446  1.1665 -0.0460 -0.3532
  392MOL0     H51684   8.372   5.081   0.333  0.6648  0.4439 -3.2329
  392MOL0     H51685   8.247   5.233   0.210  1.8372  0.3811 -0.7007
  392MOL0     H51686   8.320   5.369   0.280  3.5072 -0.7450  1.2278
  392MOL0     H51687   8.167   5.171   0.438 -1.3908  0.7225  0.7381
  392MOL0     H51688   8.221   5.314   0.511  0.3842  0.8780 -0.6356
  392MOL0     H51689   8.058   5.327   0.262 -0.8443 -1.6756  1.0183
  392MOL0     H51690   8.093   5.458   0.366 -0.9329  0.3078  1.1248
  392MOL0     H51691   7.934   5.341   0.553 -3.8164 -0.3248  0.0766
  392MOL0     H51692   7.934   5.201   0.446 -1.5059  0.6156 -0.6911
  392MOL0     H51693   7.800   5.468   0.369 -0.8228 -0.0491  2.1138
  392MOL0     H51694   7.783   5.314   0.282  1.2452 -2.2678 -0.0019
  392MOL0     H51695   7.722   5.352   0.569 -1.5059 -0.3324  1.3126
  392MOL0     H51696   7.638   5.243   0.461 -1.1311  0.1058  2.3660
  392MOL0     H51697   7.457   5.392   0.267  1.1635  1.4782 -1.5490
  392MOL0     H51698   7.287   5.639   0.231  0.3834 -2.0896 -0.4638
  392MOL0     H51699   7.230   5.682   0.387  0.4612  2.4697 -3.0442
  392MOL0     H51700   7.185   5.407   0.244 -0.2406  2.0363 -2.4689
  392MOL0     H51701   7.076   5.526   0.266  2.3590  3.6167 -0.3818
  392MOL0     H51702   7.199   5.356   0.491 -2.3416 -1.7111 -0.5384
  392MOL0     H51703   7.108   5.514   0.516  0.3667  0.8469 -0.3749
  392MOL0     H51704   6.963   5.321   0.548 -0.5046  0.6318 -0.1509
  392MOL0     H51705   6.988   5.275   0.371  0.5590  2.2526 -2.1299
  392MOL0     H51706   6.764   5.222   0.516  1.2547 -0.9442 -2.5734
  392MOL0     H51707   6.550   5.175   0.470 -2.6048  1.4483  1.4132
  392MOL0     H51708   6.188   5.294   0.171  0.9793 -0.0158  1.5857
  392MOL0     H51709   5.954   5.285   0.078  0.0171  0.5571 -1.2203
  392MOL0     H51710   5.708   5.244   0.145 -2.3993 -0.9524 -1.8128
  392MOL0     H51711   5.733   5.358   0.001  1.0791  0.3603  0.9089
  392MOL0     H51712   5.498   5.304  -0.007 -1.8135  0.6729  0.2815
  392MOL0     H51713   5.506   5.464   0.055 -1.2683  0.5313 -0.9045
  392MOL0     H51714   5.484   5.376   0.286  0.6351 -0.3366 -0.5236
  392MOL0     H51715   5.501   5.209   0.220  0.9785 -0.2722  1.1751
  392MOL0     H51716   5.270   5.396   0.149 -0.6696 -0.6348 -0.4550
  392MOL0     H51717   5.295   5.238   0.081  2.0462  0.8738 -1.0505
  392MOL0     H51718   5.240   5.290   0.387 -2.4648  0.4883 -0.3762
  392MOL0     H51719   5.310   5.137   0.323 -2.0314 -1.0677  0.0860
  392MOL0     H51720   5.047   5.247   0.252  1.5526  1.3948  0.1010
  392MOL0     H51721   5.087   5.131   0.386  1.9652  2.1664  0.8562
  392MOL0     H51722   5.104   5.075   0.083  0.9405  0.1242 -0.2141
  392MOL0     H51723   5.197   4.981   0.200 -0.7815 -1.6884 -1.6958
  392MOL0     H51724   4.994   4.916   0.318  1.5996 -0.5805 -0.5807
  392MOL0     H51725   4.995   4.874   0.153 -0.7448 -2.8837  3.7863
  392MOL0     H51726   5.825   5.584   0.359 -0.4557  1.5096 -1.8351
  392MOL0     H51727   6.064   5.605   0.444 -0.7512 -0.6214  1.1179
  392MOL0     H51728   6.476   5.610   0.397  3.5001  1.4512 -0.2812
  392MOL0     H51729   6.698   5.639   0.424  2.4817 -1.5921 -0.9068
  392MOL0     H51730   8.847   5.108   0.449 -1.9531  0.3785 -0.8610
  392MOL0     H51731   9.092   5.151   0.371 -0.3750  2.0270  1.0768
  392MOL0     H51732   9.336   5.640   0.220  0.4907  0.4129  0.8783
  392MOL0     H51733   9.565   5.682   0.269 -2.5979  0.6020 -1.8962
  392MOL0     H51734   9.774   5.688   0.223 -0.3655  0.0900  0.0219
  392MOL0     H51735   9.807   5.543   0.127 -1.1622  2.0940 -0.5127
  392MOL0     H51736   9.991   5.685   0.161 -3.2830 -0.2238 -1.3803
  392MOL0     H51737   9.973   5.675   0.342  1.0446  0.3732 -0.5222
  392MOL0     H51738  10.166   5.553   0.202  1.1366  0.4162  2.0595
  392MOL0     H51739  10.028   5.439   0.170 -1.5075  2.2086 -1.1080
  392MOL0     H51740  10.107   5.534   0.453 -0.8876  0.2032  0.5160
  392MOL0     H51741  10.013   5.399   0.410  0.7009 -0.8405  0.3117
  392MOL0     H51742  10.421   5.268   0.418  0.1492  0.0458 -1.4051
  392MOL0     H51743   9.647   5.267   0.246 -0.1147  0.2388 -1.3147
  392MOL0     H51744   9.411   5.212   0.184  0.2738  0.3860 -1.8685
  393MOL0     O51745   4.827   9.798   6.639  0.4533  0.2014  0.0169
  393MOL0     C51746   4.908   9.712   6.646 -0.5179  0.0563 -0.0567
  393MOL0     O51747   4.893   9.587   6.587 -0.5706  0.0622 -0.2543
  393MOL0     C51748   4.775   9.552   6.544  0.3717 -0.7314  0.6978
  393MOL0     C51749   4.669   9.527   6.629  0.5042 -0.7056 -0.4780
  393MOL0     C51750   4.544   9.477   6.589 -0.0574  0.1021 -0.2204
  393MOL0     C51751   4.520   9.466   6.453  0.1527 -0.5981 -0.2541
  393MOL0     O51752   4.409   9.390   6.420 -0.2648  0.6640 -0.7706
  393MOL0     C51753   4.345   9.409   6.297 -0.2619 -0.0648  0.3620
  393MOL0     C51754   4.199   9.366   6.319 -0.0277 -0.1509 -0.2242
  393MOL0     C51755   4.173   9.223   6.368  1.0976 -0.2680  0.5657
  393MOL0     C51756   4.026   9.197   6.411 -0.0241  0.3910 -0.2805
  393MOL0     C51757   4.017   9.074   6.502 -0.2739 -0.6544 -0.9672
  393MOL0     C51758   3.873   9.024   6.506  0.7045  0.1897  1.1649
  393MOL0     C51759   3.847   8.959   6.650  0.0762 -0.8358 -0.2787
  393MOL0     C51760   3.922   8.830   6.692 -0.7324  0.0004  0.1855
  393MOL0     N51761   3.938   8.717   6.593  0.0975 -0.7190 -0.0543
  393MOL0     C51762   3.874   8.592   6.608  0.4552 -0.7732 -0.4594
  393MOL0     C51763   3.906   8.514   6.507 -0.2807 -0.7492 -0.7741
  393MOL0     C51764   3.900   8.370   6.495 -0.0039 -0.0318 -0.8227
  393MOL0     C51765   3.762   8.303   6.494  0.5261 -0.7566 -0.2008
  393MOL0     C51766   3.710   8.315   6.345 -0.0580  0.2432 -0.3003
  393MOL0     C51767   3.587   8.216   6.311 -0.8609 -0.0789  0.3189
  393MOL0     O51768   3.468   8.250   6.378  0.0828 -0.4688 -0.3256
  393MOL0     C51769   3.345   8.201   6.325 -0.5042  0.3817 -0.7965
  393MOL0     C51770   3.225   8.245   6.383  0.1264  0.1964 -0.5060
  393MOL0     C51771   3.106   8.187   6.336 -0.1886  0.8319 -0.0595
  393MOL0     C51772   3.102   8.081   6.241 -0.2582  0.6302 -0.3663
  393MOL0     C51773   2.972   8.019   6.210 -0.7174 -0.4227  0.6471
  393MOL0     O51774   2.977   7.950   6.093 -0.0739 -0.1987 -0.2258
  393MOL0     C51775   2.872   7.874   6.043 -0.0127  0.2057 -0.5580
  393MOL0     C51776   2.897   7.752   5.972  0.1619 -0.3718 -0.0233
  393MOL0     C51777   2.796   7.677   5.915 -0.1400  0.3505 -0.9941
  393MOL0     C51778   2.664   7.708   5.947  0.8208 -0.3003 -0.3449
  393MOL0     O51779   2.576   7.624   5.880 -0.2435 -0.8155  0.8884
  393MOL0     C51780   2.453   7.696   5.846 -0.5552  0.9556  0.0434
  393MOL0     C51781   2.406   7.656   5.711 -0.4042  0.4156 -0.6735
  393MOL0     C51782   2.263   7.696   5.691  0.4651  0.1555  0.2967
  393MOL0     C51783   2.219   7.654   5.553 -0.6383  0.2438 -0.2876
  393MOL0     C51784   2.071   7.674   5.543 -1.1408 -0.7028 -0.4134
  393MOL0     C51785   1.994   7.633   5.428 -0.3075  0.0483 -0.2261
  393MOL0     C51786   1.844   7.656   5.438  0.2560  0.0469  0.8027
  393MOL0     C51787   1.795   7.765   5.343  0.3006  0.6907  0.3228
  393MOL0    Cl51788   1.619   7.801   5.377  0.0641 -0.1735 -0.6656
  393MOL0     C51789   2.634   7.826   6.019  0.0888  0.0110 -1.0271
  393MOL0     C51790   2.744   7.896   6.074  0.7064  0.2434  0.2311
  393MOL0     O51791   2.875   8.036   6.276  0.3041  0.0405 -0.4178
  393MOL0     C51792   3.225   8.034   6.190 -0.8498 -0.1648  0.1540
  393MOL0     C51793   3.344   8.095   6.230 -0.4756 -0.7671  0.8427
  393MOL0     N51794   3.981   8.598   6.424  0.1655 -0.1289 -0.1347
  393MOL0     N51795   4.006   8.716   6.476 -0.0912 -0.9674 -0.3611
  393MOL0     C51796   4.620   9.504   6.367  0.2093  0.1198 -0.4549
  393MOL0     C51797   4.748   9.538   6.411 -0.3441 -0.2533 -0.0852
  393MOL0     C51798   5.032   9.742   6.722  0.6137  0.2768 -0.8084
  393MOL0     C51799   5.055   9.864   6.788 -1.0557  1.1131 -0.2933
  393MOL0     C51800   5.184   9.885   6.856  0.0524 -0.5147  0.7066
  393MOL0     C51801   5.271   9.779   6.882  0.4895  0.2598 -0.4294
  393MOL0     O51802   5.392   9.782   6.956 -0.2013  0.0908  0.0900
  393MOL0     C51803   5.439   9.915   6.995 -0.7720 -0.0220  0.1244
  393MOL0     C51804   5.568   9.909   7.072 -0.4352  0.3042 -0.9726
  393MOL0     C51805   5.669   9.826   6.993  0.7833 -0.6705  0.1650
  393MOL0     C51806   5.808   9.822   7.054  0.1290  0.1094  0.7142
  393MOL0     C51807   5.902   9.789   6.948  0.6674  0.0123  0.0182
  393MOL0     C51808   5.987   9.764   6.863 -0.1903  0.1855  0.4964
  393MOL0     C51809   5.237   9.661   6.831 -0.8088 -0.2165  0.3310
  393MOL0     C51810   5.123   9.639   6.756 -0.1476  0.0004 -1.0026
  393MOL0     H51811   4.683   9.531   6.736 -1.8085 -0.0081 -0.1555
  393MOL0     H51812   4.460   9.465   6.657  0.1159 -0.5637 -0.1243
  393MOL0     H51813   4.381   9.354   6.209 -0.2640  2.9671 -1.7051
  393MOL0     H51814   4.354   9.513   6.264 -2.1610 -0.6683 -2.4662
  393MOL0     H51815   4.152   9.395   6.224  0.9684 -0.5346 -0.8547
  393MOL0     H51816   4.158   9.428   6.399 -1.0884 -0.7524 -0.2953
  393MOL0     H51817   4.229   9.218   6.462  1.0581  3.0618  0.8930
  393MOL0     H51818   4.211   9.144   6.303 -0.4346 -1.9762  1.6404
  393MOL0     H51819   3.978   9.279   6.465  1.6014  0.8124  0.5783
  393MOL0     H51820   3.967   9.171   6.323 -2.4864 -0.2829  1.4563
  393MOL0     H51821   4.055   9.102   6.600 -0.3283 -2.1622 -0.4977
  393MOL0     H51822   4.084   8.992   6.473  0.5544 -0.3235 -0.0325
  393MOL0     H51823   3.861   8.950   6.427  1.5031  0.4102  0.8312
  393MOL0     H51824   3.805   9.104   6.477 -2.2421 -2.8378 -1.0668
  393MOL0     H51825   3.860   9.044   6.716 -0.0347 -1.2861  0.3302
  393MOL0     H51826   3.740   8.934   6.659 -0.2561  0.7487  0.4028
  393MOL0     H51827   3.882   8.776   6.779 -0.0370  3.0567  2.5547
  393MOL0     H51828   4.024   8.850   6.726 -0.4088 -3.6596  1.9260
  393MOL0     H51829   3.810   8.560   6.689  0.2887  2.8134  1.0229
  393MOL0     H51830   3.954   8.328   6.581  2.7870 -0.2263 -2.5587
  393MOL0     H51831   3.961   8.334   6.412 -0.7109  0.9597 -1.7830
  393MOL0     H51832   3.697   8.348   6.569 -0.2141  1.8720 -2.2414
  393MOL0     H51833   3.779   8.197   6.516  0.5252 -0.4577  1.3468
  393MOL0     H51834   3.687   8.416   6.310 -1.3698 -0.0053 -0.2239
  393MOL0     H51835   3.786   8.265   6.284 -1.7078 -2.9471  0.0221
  393MOL0     H51836   3.616   8.116   6.345 -0.3888  0.1759  0.6942
  393MOL0     H51837   3.568   8.197   6.205  0.4316  0.1700  0.0225
  393MOL0     H51838   3.223   8.330   6.451  1.2404  1.1248 -1.5913
  393MOL0     H51839   3.008   8.230   6.355 -0.9486  0.1064 -2.0788
  393MOL0     H51840   2.997   7.714   5.953  1.9808  3.4622  0.9141
  393MOL0     H51841   2.815   7.596   5.846 -0.2410 -0.6050  0.0814
  393MOL0     H51842   2.478   7.801   5.829 -1.4632  0.7811 -2.9513
  393MOL0     H51843   2.379   7.671   5.923 -0.6019 -0.5107 -0.4494
  393MOL0     H51844   2.403   7.548   5.697 -0.5350  0.3665 -0.2599
  393MOL0     H51845   2.464   7.707   5.633 -1.7606  1.8582 -0.7944
  393MOL0     H51846   2.253   7.803   5.710  1.2471  0.3697 -0.4590
  393MOL0     H51847   2.198   7.642   5.761 -1.2145 -1.5475 -2.4082
  393MOL0     H51848   2.268   7.712   5.475 -0.0109  1.6780  1.1165
  393MOL0     H51849   2.236   7.546   5.542  0.6014 -0.3612  4.8319
  393MOL0     H51850   2.061   7.781   5.560  3.0441 -0.2847  0.3975
  393MOL0     H51851   2.024   7.620   5.626 -0.7301 -0.3200  0.0739
  393MOL0     H51852   2.015   7.527   5.413 -2.0418 -0.0896 -2.1010
  393MOL0     H51853   2.036   7.681   5.339  0.5517 -1.1131 -0.4718
  393MOL0     H51854   1.791   7.564   5.410  3.4156 -1.2122 -1.7797
  393MOL0     H51855   1.813   7.681   5.540 -0.1478  1.1782  0.4185
  393MOL0     H51856   1.809   7.742   5.237  2.7864  1.0571  0.5204
  393MOL0     H51857   1.849   7.858   5.362 -2.4716  2.0152  2.6455
  393MOL0     H51858   2.530   7.854   6.021 -0.1842 -0.9299 -1.2860
  393MOL0     H51859   2.703   7.984   6.123  1.8031  0.3879  0.9317
  393MOL0     H51860   3.235   7.940   6.135  0.2385  0.1653 -0.2380
  393MOL0     H51861   3.432   8.042   6.195 -0.9038 -0.2898 -1.1146
  393MOL0     H51862   4.621   9.521   6.259  2.0340 -1.3257 -0.7116
  393MOL0     H51863   4.828   9.557   6.340  2.8983  1.2933  3.6289
  393MOL0     H51864   4.997   9.953   6.767 -0.7153  0.8948 -2.2988
  393MOL0     H51865   5.204   9.977   6.911  0.3297 -0.8026  1.0924
  393MOL0     H51866   5.363   9.965   7.056  0.0819  0.6829  0.6203
  393MOL0     H51867   5.456   9.976   6.907 -2.4965  0.7883  0.3092
  393MOL0     H51868   5.605  10.011   7.087 -0.7932  0.8062 -3.1542
  393MOL0     H51869   5.553   9.863   7.170 -0.8229  0.1186 -1.1169
  393MOL0     H51870   5.672   9.870   6.893  1.9023  1.6120  1.1478
  393MOL0     H51871   5.630   9.723   6.988 -2.1885  0.3242  0.9340
  393MOL0     H51872   5.830   9.921   7.095  2.9694 -0.3975  0.6538
  393MOL0     H51873   5.805   9.754   7.139  0.0626  0.3417  0.8994
  393MOL0     H51874   6.068   9.741   6.797 -0.3692 -0.3360  0.4529
  393MOL0     H51875   5.302   9.575   6.848  0.6036  0.4712 -1.2359
  393MOL0     H51876   5.096   9.543   6.712 -0.7125  1.3761 -3.8645
  394MOL0     O51877   3.337   6.761   2.679  0.2075  0.0290 -0.3821
  394MOL0     C51878   3.331   6.754   2.559  0.0010  0.1885 -0.4388
  394MOL0     O51879   3.209   6.752   2.489 -0.7115  0.1807  0.3115
  394MOL0     C51880   3.100   6.718   2.564 -0.6206 -0.3573  0.5413
  394MOL0     C51881   3.041   6.598   2.569 -0.9781 -0.7269 -0.8614
  394MOL0     C51882   2.933   6.575   2.651  0.2588 -0.8830 -0.7051
  394MOL0     C51883   2.867   6.689   2.708 -0.3336 -0.5689 -0.5009
  394MOL0     O51884   2.748   6.672   2.769  0.1350 -0.3878  0.0357
  394MOL0     C51885   2.634   6.715   2.700  0.2880 -0.3634 -0.4090
  394MOL0     C51886   2.521   6.626   2.748  0.8276  0.1902  0.7749
  394MOL0     C51887   2.395   6.661   2.658  0.0560 -0.0394 -0.0986
  394MOL0     C51888   2.411   6.653   2.503  0.7801 -0.5967  0.4096
  394MOL0     C51889   2.276   6.680   2.446  0.1459 -0.0966  0.8511
  394MOL0     C51890   2.246   6.632   2.306 -0.0220  0.5641  0.2774
  394MOL0     C51891   2.103   6.647   2.272 -0.2718 -0.1314  0.4019
  394MOL0     C51892   2.065   6.765   2.174 -0.1213  0.1816  0.1340
  394MOL0     N51893   1.912   6.775   2.150 -0.0290 -0.0114 -0.6161
  394MOL0     C51894   1.821   6.771   2.252  1.0086 -0.0740 -0.1466
  394MOL0     C51895   1.709   6.829   2.201  0.1512  0.1301  0.3877
  394MOL0     C51896   1.579   6.835   2.270  0.2995  0.2733 -0.3042
  394MOL0     C51897   1.512   6.695   2.276  0.8240  0.6786  0.5071
  394MOL0     C51898   1.431   6.667   2.137 -0.5129 -0.4200  0.5450
  394MOL0     C51899   1.288   6.729   2.132  0.2818  0.9151  0.1433
  394MOL0     O51900   1.192   6.657   2.213  0.4104 -0.1934  0.4221
  394MOL0     C51901   1.058   6.700   2.225  0.4051 -0.7182 -0.7648
  394MOL0     C51902   0.978   6.653   2.335  0.1354  0.3027 -0.1554
  394MOL0     C51903   0.843   6.689   2.353  0.1451  0.1302 -1.1270
  394MOL0     C51904   0.788   6.762   2.247 -0.0468 -0.6722 -0.3661
  394MOL0     C51905   0.629   6.777   2.248 -0.3319 -0.4438 -0.3230
  394MOL0     O51906   0.581   6.776   2.130 -0.1890  1.1318  0.3358
  394MOL0     C51907   0.444   6.787   2.108 -0.1338  0.5950  0.2219
  394MOL0     C51908   0.353   6.846   2.195 -0.1168  0.0347  0.0394
  394MOL0     C51909   0.208   6.838   2.170  0.7871 -0.0351  0.0901
  394MOL0     C51910   0.158   6.766   2.063  0.2925 -0.4192 -0.2318
  394MOL0     O51911   0.023   6.764   2.045 -0.5387  0.0401  0.2334
  394MOL0     C51912  -0.029   6.659   1.968 -0.9740 -0.1375 -0.3590
  394MOL0     C51913  -0.183   6.657   1.954 -0.3398  0.5666  0.5877
  394MOL0     C51914  -0.240   6.633   2.096 -0.2181  0.2346  0.1475
  394MOL0     C51915  -0.393   6.611   2.080 -0.3643 -0.5388 -0.8219
  394MOL0     C51916  -0.451   6.596   2.220  0.5791 -0.6751 -0.6166
  394MOL0     C51917  -0.604   6.590   2.215  0.3876 -0.2382 -0.6624
  394MOL0     C51918  -0.666   6.578   2.358 -0.3909  0.7807  0.4974
  394MOL0     C51919  -0.784   6.484   2.347  0.5833  0.1445 -0.3732
  394MOL0    Cl51920  -0.923   6.586   2.314 -0.1747 -0.3814  0.0533
  394MOL0     C51921   0.254   6.706   1.977  0.2193  0.6078 -0.2472
  394MOL0     C51922   0.395   6.726   1.986  0.3038  0.7630 -0.5704
  394MOL0     O51923   0.573   6.789   2.356 -0.2102 -0.4520  0.3162
  394MOL0     C51924   0.861   6.809   2.131 -0.4397  0.3467 -1.1634
  394MOL0     C51925   1.002   6.788   2.127  0.3490 -0.0281  0.7533
  394MOL0     N51926   1.731   6.856   2.068 -0.3136  0.4654 -0.2055
  394MOL0     N51927   1.846   6.820   2.042  0.2152  0.1106  0.2578
  394MOL0     C51928   2.921   6.814   2.694 -0.1597  0.3576  0.3258
  394MOL0     C51929   3.038   6.829   2.629  0.3145  0.2595  0.2358
  394MOL0     C51930   3.449   6.779   2.474  0.1190  0.1987 -0.1673
  394MOL0     C51931   3.574   6.791   2.530 -0.1638 -0.1991 -0.3186
  394MOL0     C51932   3.691   6.789   2.452 -0.2376 -0.3904 -0.4148
  394MOL0     C51933   3.693   6.791   2.310  0.6669  0.5282 -0.8411
  394MOL0     O51934   3.796   6.798   2.222 -0.1830 -0.5726  0.4457
  394MOL0     C51935   3.923   6.819   2.274 -0.4331  0.7541 -0.3129
  394MOL0     C51936   4.006   6.854   2.151  0.9370  0.7167 -0.5888
  394MOL0     C51937   4.148   6.807   2.169  0.7490  0.2779  0.1745
  394MOL0     C51938   4.239   6.846   2.046 -0.0941  0.7145 -0.3277
  394MOL0     C51939   4.376   6.803   2.065 -0.5537  0.2627  1.1653
  394MOL0     C51940   4.491   6.756   2.083 -0.1709 -0.3524  0.1226
  394MOL0     C51941   3.561   6.775   2.256  0.5693  0.8251  0.2029
  394MOL0     C51942   3.438   6.767   2.330  0.1731  0.0750 -0.6038
  394MOL0     H51943   3.086   6.509   2.525  1.5816 -0.0805  0.2485
  394MOL0     H51944   2.880   6.481   2.663  1.1164 -1.1401  1.4856
  394MOL0     H51945   2.662   6.691   2.597 -0.5531 -3.0369 -0.0773
  394MOL0     H51946   2.604   6.820   2.704 -0.9463 -0.5077 -3.3079
  394MOL0     H51947   2.485   6.632   2.851 -5.5863  0.6343 -1.0560
  394MOL0     H51948   2.555   6.526   2.721  1.8348  0.3650  1.3206
  394MOL0     H51949   2.363   6.762   2.686  0.9077  0.2472 -0.1306
  394MOL0     H51950   2.312   6.598   2.690 -1.9677  2.0207 -0.9695
  394MOL0     H51951   2.497   6.714   2.473  0.8220 -0.8411  0.0216
  394MOL0     H51952   2.439   6.549   2.483 -3.9684 -1.5391 -3.1252
  394MOL0     H51953   2.258   6.788   2.452  2.8915  0.6094 -1.3931
  394MOL0     H51954   2.194   6.632   2.501 -2.5149  2.2571 -0.7324
  394MOL0     H51955   2.272   6.526   2.301 -0.7248  0.3032  1.5474
  394MOL0     H51956   2.308   6.689   2.237  0.8260  0.4965  0.9704
  394MOL0     H51957   2.077   6.556   2.218 -0.3466  0.1001  0.0413
  394MOL0     H51958   2.042   6.659   2.363 -2.1304  0.7473 -0.8946
  394MOL0     H51959   2.120   6.737   2.084  1.0154  1.7638  0.2907
  394MOL0     H51960   2.097   6.866   2.202 -0.6611  0.6881 -1.0241
  394MOL0     H51961   1.838   6.742   2.356 -2.0842  0.4448  0.6148
  394MOL0     H51962   1.511   6.909   2.229  0.6871  0.1816 -1.1204
  394MOL0     H51963   1.590   6.859   2.377  0.7707 -0.3991 -0.1923
  394MOL0     H51964   1.438   6.690   2.356  2.7963 -1.1664  2.3289
  394MOL0     H51965   1.589   6.619   2.294 -1.3585 -2.1470 -1.2939
  394MOL0     H51966   1.495   6.707   2.057  2.1762 -2.0977  1.7067
  394MOL0     H51967   1.425   6.558   2.134  3.2595 -0.7522  0.5662
  394MOL0     H51968   1.255   6.724   2.028 -0.2046  0.1254  0.3298
  394MOL0     H51969   1.296   6.836   2.152  0.8498  0.9110 -0.0319
  394MOL0     H51970   1.027   6.583   2.403  2.5367 -0.9994 -2.9970
  394MOL0     H51971   0.790   6.646   2.437  1.2791 -1.7986 -1.3379
  394MOL0     H51972   0.376   6.899   2.286  1.2559 -3.7875  2.1667
  394MOL0     H51973   0.137   6.893   2.230 -0.2084 -1.3173  0.1458
  394MOL0     H51974  -0.002   6.570   2.024 -1.0581  1.8755  3.1416
  394MOL0     H51975   0.014   6.663   1.867 -0.1790  1.8008  0.0152
  394MOL0     H51976  -0.202   6.572   1.889  2.0291  1.0918 -0.9269
  394MOL0     H51977  -0.227   6.745   1.906 -4.1871 -0.1611  2.3715
  394MOL0     H51978  -0.211   6.713   2.165  0.4129  0.2735 -0.1461
  394MOL0     H51979  -0.204   6.539   2.139 -2.8773 -1.0242 -0.2055
  394MOL0     H51980  -0.435   6.698   2.029  0.4894  1.7615  2.1258
  394MOL0     H51981  -0.413   6.518   2.026 -1.5488 -0.6243 -0.2735
  394MOL0     H51982  -0.415   6.676   2.285 -0.0047  1.1849 -2.4193
  394MOL0     H51983  -0.412   6.508   2.271  0.9094  0.3418  0.9501
  394MOL0     H51984  -0.645   6.511   2.151 -2.8801 -0.7337  1.7716
  394MOL0     H51985  -0.640   6.683   2.170 -2.0614 -0.0144  1.5675
  394MOL0     H51986  -0.595   6.544   2.434 -1.5351 -4.1582 -0.2732
  394MOL0     H51987  -0.702   6.676   2.390  0.2359  1.5474 -1.0235
  394MOL0     H51988  -0.800   6.434   2.443  0.9644 -1.6429 -1.1919
  394MOL0     H51989  -0.767   6.405   2.273  2.9324 -1.1444  1.4225
  394MOL0     H51990   0.222   6.640   1.897  1.5951 -0.5705  0.1251
  394MOL0     H51991   0.470   6.667   1.934 -1.0126 -2.6823  1.0811
  394MOL0     H51992   0.818   6.870   2.053 -1.9382  2.8659  1.4661
  394MOL0     H51993   1.060   6.820   2.041  0.7482 -2.8980 -0.1608
  394MOL0     H51994   2.875   6.906   2.730 -1.2635  0.6613 -1.6903
  394MOL0     H51995   3.083   6.928   2.622  1.7909 -0.3986  0.0517
  394MOL0     H51996   3.584   6.781   2.638 -1.1849 -0.2102 -0.2098
  394MOL0     H51997   3.789   6.788   2.500 -0.0209 -0.8361 -0.8517
  394MOL0     H51998   3.950   6.730   2.332  4.2681  1.2621 -1.3273
  394MOL0     H51999   3.933   6.898   2.349  2.3128  0.9181 -0.7515
  394MOL0     H52000   3.959   6.797   2.070 -0.0033  2.4719 -1.3442
  394MOL0     H52001   3.995   6.962   2.136  0.3614  0.7372 -0.0851
  394MOL0     H52002   4.167   6.702   2.192 -0.9459  0.3913  2.4934
  394MOL0     H52003   4.197   6.856   2.254 -3.1581  0.5690  2.5147
  394MOL0     H52004   4.195   6.787   1.965 -2.1667 -1.1358  1.9788
  394MOL0     H52005   4.231   6.951   2.016  0.9789  1.4643  1.8352
  394MOL0     H52006   4.584   6.707   2.102 -0.0955  0.4050  1.9234
  394MOL0     H52007   3.547   6.759   2.150 -0.9697  0.1569  0.4753
  394MOL0     H52008   3.347   6.735   2.279 -0.7182  2.0326 -0.3648
  395MOL0     O52009   4.993   6.355   4.217  0.4730 -0.6871 -0.4572
  395MOL0     C52010   5.080   6.268   4.231 -0.8790  0.5262  0.2496
  395MOL0     O52011   5.050   6.145   4.281 -0.2627 -0.2405 -0.5550
  395MOL0     C52012   4.921   6.131   4.335 -0.5430 -0.1736  0.6400
  395MOL0     C52013   4.832   6.039   4.268  0.3763  0.3585 -0.0475
  395MOL0     C52014   4.711   6.004   4.324  0.0817 -0.1470 -0.5694
  395MOL0     C52015   4.656   6.078   4.435  0.4964  0.6749  1.0169
  395MOL0     O52016   4.529   6.048   4.483  0.0249 -1.3782 -0.1354
  395MOL0     C52017   4.496   5.914   4.464  1.0277 -0.3943  0.1117
  395MOL0     C52018   4.357   5.891   4.532  0.0088  0.3750  0.1189
  395MOL0     C52019   4.237   5.953   4.456 -0.3510 -0.0457 -0.1703
  395MOL0     C52020   4.095   5.898   4.508 -0.1874 -0.6006  0.0109
  395MOL0     C52021   3.980   5.987   4.457  0.5660 -0.6860  1.5862
  395MOL0     C52022   3.839   5.944   4.496 -0.2352  0.4292  0.2201
  395MOL0     C52023   3.809   5.798   4.449  0.0878 -1.0586 -0.6898
  395MOL0     C52024   3.832   5.752   4.305  0.6272  0.8661  0.0580
  395MOL0     N52025   3.718   5.799   4.213 -0.2726 -0.5029 -0.0074
  395MOL0     C52026   3.708   5.921   4.156 -0.2404  0.0645  0.3772
  395MOL0     C52027   3.596   5.911   4.082  0.3056 -0.6463  0.6125
  395MOL0     C52028   3.548   6.012   3.976  0.2978  0.5176  0.2335
  395MOL0     C52029   3.415   6.070   4.008 -0.6926 -0.2149 -0.2412
  395MOL0     C52030   3.300   5.989   3.950  0.1781 -0.2219  0.5509
  395MOL0     C52031   3.166   6.027   4.017 -0.5742 -0.7199 -0.7214
  395MOL0     O52032   3.170   6.167   4.054 -0.2405  0.4266  0.9883
  395MOL0     C52033   3.069   6.231   4.110 -0.1331  0.5524 -0.0982
  395MOL0     C52034   2.944   6.174   4.130 -0.4211 -0.0499  0.7617
  395MOL0     C52035   2.847   6.240   4.199  0.2387 -0.4902 -0.9060
  395MOL0     C52036   2.871   6.370   4.249  0.5082  0.5723 -0.2173
  395MOL0     C52037   2.761   6.441   4.317  0.1103 -0.6632 -0.2783
  395MOL0     O52038   2.637   6.380   4.326  0.7370 -0.3325  0.1624
  395MOL0     C52039   2.512   6.430   4.354 -1.2735 -0.8332  0.4688
  395MOL0     C52040   2.498   6.559   4.404 -0.3854  0.2925  0.2970
  395MOL0     C52041   2.367   6.610   4.435 -0.1835  0.6830 -0.5774
  395MOL0     C52042   2.250   6.542   4.404  0.2790 -0.2550  0.7043
  395MOL0     O52043   2.117   6.581   4.405  0.6691  0.0736 -0.2654
  395MOL0     C52044   2.078   6.687   4.490 -0.0556 -0.0083  0.8952
  395MOL0     C52045   1.933   6.654   4.528 -0.6494 -0.0222  0.7359
  395MOL0     C52046   1.847   6.601   4.405 -0.5589 -0.3486  0.4470
  395MOL0     C52047   1.707   6.569   4.455  0.0347 -0.1006  0.3292
  395MOL0     C52048   1.601   6.549   4.353 -0.4953 -0.0362 -0.2557
  395MOL0     C52049   1.627   6.434   4.268 -0.5123  0.8883  0.6633
  395MOL0     C52050   1.511   6.414   4.161  0.1081 -0.4744  0.5787
  395MOL0     C52051   1.532   6.509   4.049  0.1669 -0.2367 -0.1872
  395MOL0    Cl52052   1.383   6.510   3.939 -0.2635  0.2109 -0.4654
  395MOL0     C52053   2.263   6.429   4.340  0.5447 -0.1576 -0.6671
  395MOL0     C52054   2.391   6.364   4.322  0.8865  0.0422 -0.0132
  395MOL0     O52055   2.785   6.558   4.347 -0.2653  0.1511  0.6025
  395MOL0     C52056   2.996   6.426   4.231  0.8925 -0.5226  0.3518
  395MOL0     C52057   3.095   6.356   4.162  0.0500 -0.1388 -0.5248
  395MOL0     N52058   3.544   5.790   4.099  0.1607  0.3510  0.8920
  395MOL0     N52059   3.612   5.721   4.185 -0.6874  0.6103  0.0325
  395MOL0     C52060   4.747   6.159   4.502  1.2946  0.0325 -0.3983
  395MOL0     C52061   4.879   6.185   4.457 -0.0805 -1.0013 -0.4388
  395MOL0     C52062   5.212   6.297   4.163 -0.4440  0.0106 -0.1476
  395MOL0     C52063   5.293   6.191   4.123 -0.8821  0.4397  0.5695
  395MOL0     C52064   5.414   6.211   4.052  0.7668  0.1293 -0.6476
  395MOL0     C52065   5.453   6.341   4.011  0.2807  0.4678  0.1519
  395MOL0     O52066   5.567   6.355   3.941 -1.0643  0.0528  0.0507
  395MOL0     C52067   5.615   6.485   3.900  0.4364 -0.0588  0.4009
  395MOL0     C52068   5.724   6.468   3.785  0.5936  0.2161  0.7531
  395MOL0     C52069   5.838   6.394   3.858 -0.7218 -0.4269 -0.7183
  395MOL0     C52070   5.873   6.274   3.770  0.1223  0.4575 -0.5882
  395MOL0     C52071   5.993   6.208   3.823  0.7752  0.5463 -0.6055
  395MOL0     C52072   6.090   6.155   3.864  0.2282 -0.1363 -0.1296
  395MOL0     C52073   5.370   6.451   4.048  0.4528  0.6636  0.2198
  395MOL0     C52074   5.249   6.427   4.119  0.5434  0.7382 -0.8471
  395MOL0     H52075   4.873   5.978   4.188  1.0628  0.1743  0.4249
  395MOL0     H52076   4.656   5.928   4.269  4.3350 -4.0052 -0.0682
  395MOL0     H52077   4.579   5.849   4.494  1.2479 -1.7401 -3.0335
  395MOL0     H52078   4.476   5.897   4.358  1.4903  0.0179 -0.0467
  395MOL0     H52079   4.366   5.928   4.635 -1.4378  0.2291  0.3174
  395MOL0     H52080   4.330   5.786   4.549  1.1781 -0.0566 -0.5528
  395MOL0     H52081   4.250   5.920   4.353  2.6667 -1.9268  0.6701
  395MOL0     H52082   4.230   6.062   4.453  0.2835  0.1114  2.1374
  395MOL0     H52083   4.090   5.794   4.474  3.4735 -0.5807 -1.0382
  395MOL0     H52084   4.086   5.899   4.617 -3.2407 -0.9458 -0.1487
  395MOL0     H52085   3.991   5.985   4.348 -3.3594 -0.2404  1.0053
  395MOL0     H52086   3.994   6.091   4.486  2.0933 -0.7171  1.0015
  395MOL0     H52087   3.756   6.003   4.455  0.1687  1.0251  0.2417
  395MOL0     H52088   3.836   5.957   4.604  0.8940 -0.3723  0.3685
  395MOL0     H52089   3.869   5.731   4.511  1.6863  0.7309 -0.1874
  395MOL0     H52090   3.709   5.783   4.490  0.4504 -0.7809  0.3193
  395MOL0     H52091   3.823   5.644   4.319  1.2839  1.0367  2.0240
  395MOL0     H52092   3.925   5.777   4.252  0.8175  1.8092  0.8061
  395MOL0     H52093   3.775   6.007   4.158 -1.8688  1.3846  0.5249
  395MOL0     H52094   3.546   5.948   3.887  0.7404 -1.8137  1.8078
  395MOL0     H52095   3.615   6.098   3.966 -1.0834  1.9710  2.6081
  395MOL0     H52096   3.403   6.172   3.972 -0.7671 -1.0977 -2.8868
  395MOL0     H52097   3.404   6.069   4.117  1.7801 -1.5907  0.0765
  395MOL0     H52098   3.290   5.997   3.841 -0.5621 -4.5562  0.1357
  395MOL0     H52099   3.315   5.883   3.973 -2.2581  0.0374  4.1905
  395MOL0     H52100   3.159   5.976   4.114  1.0919 -1.5373 -0.9856
  395MOL0     H52101   3.083   6.001   3.951  0.8802 -1.7971 -2.2260
  395MOL0     H52102   2.918   6.074   4.095 -3.5574  1.1470 -0.6826
  395MOL0     H52103   2.753   6.188   4.216  0.8291 -0.6130  2.8393
  395MOL0     H52104   2.576   6.628   4.434 -0.2055  0.0357  0.4212
  395MOL0     H52105   2.349   6.707   4.480 -0.2251  1.1799 -1.6439
  395MOL0     H52106   2.077   6.786   4.443  3.3992  0.8695  2.3547
  395MOL0     H52107   2.139   6.695   4.581 -1.4876 -1.4156  2.0170
  395MOL0     H52108   1.884   6.740   4.575  1.9147  0.7164  2.2437
  395MOL0     H52109   1.929   6.590   4.616 -3.5212  1.7283  2.0444
  395MOL0     H52110   1.895   6.511   4.366 -1.4356 -1.7752  2.4582
  395MOL0     H52111   1.847   6.669   4.320 -0.1143 -0.9413 -0.0384
  395MOL0     H52112   1.720   6.480   4.517  2.0232 -1.3778 -1.7394
  395MOL0     H52113   1.669   6.654   4.512  0.4328  1.5672 -1.7538
  395MOL0     H52114   1.594   6.641   4.295 -0.3883  1.7535  2.3903
  395MOL0     H52115   1.503   6.534   4.400 -0.5222 -0.3547 -0.4140
  395MOL0     H52116   1.615   6.343   4.327  0.2375 -0.2146 -0.8257
  395MOL0     H52117   1.727   6.440   4.224 -0.2980  1.7468  1.2500
  395MOL0     H52118   1.499   6.311   4.124 -0.0447  0.2497 -1.5255
  395MOL0     H52119   1.416   6.439   4.208  0.0045  0.7756 -0.2725
  395MOL0     H52120   1.633   6.494   4.009  2.0466  2.3822  3.0087
  395MOL0     H52121   1.536   6.614   4.079  1.4395  0.1757 -1.6682
  395MOL0     H52122   2.176   6.374   4.305 -0.6494  1.9512 -1.1544
  395MOL0     H52123   2.390   6.266   4.276 -0.0665 -1.2912  2.6515
  395MOL0     H52124   3.018   6.528   4.263 -0.3317 -0.0401 -0.2572
  395MOL0     H52125   3.187   6.410   4.147 -0.5281  1.2347  0.5502
  395MOL0     H52126   4.727   6.217   4.592  2.8938  0.6026 -0.3689
  395MOL0     H52127   4.940   6.260   4.507 -0.7864 -1.1564  0.6915
  395MOL0     H52128   5.253   6.093   4.149  0.7778  0.1019  2.0058
  395MOL0     H52129   5.482   6.128   4.036  2.3859  0.3915  3.6826
  395MOL0     H52130   5.655   6.551   3.977 -3.3986  0.8207  1.8926
  395MOL0     H52131   5.543   6.554   3.853 -0.9990 -1.0948  0.9969
  395MOL0     H52132   5.688   6.405   3.703  0.1729  0.3642  0.8213
  395MOL0     H52133   5.743   6.569   3.746 -2.3511  0.3418 -0.6868
  395MOL0     H52134   5.822   6.374   3.964 -1.7621  1.6184 -0.4378
  395MOL0     H52135   5.923   6.463   3.857 -1.2085  0.1971 -0.0205
  395MOL0     H52136   5.784   6.211   3.763  0.1239 -0.0060  2.2905
  395MOL0     H52137   5.890   6.311   3.669  0.4735  0.2813 -0.5954
  395MOL0     H52138   6.173   6.102   3.905 -1.5414 -1.0959  2.5223
  395MOL0     H52139   5.400   6.554   4.034  2.7782  0.1585  1.0248
  395MOL0     H52140   5.181   6.502   4.159 -1.8384 -0.6451 -2.1125
  396MOL0     O52141   2.216   3.522   9.817  0.5099  0.2684 -0.1066
  396MOL0     C52142   2.257   3.425   9.887  0.0109 -0.5149 -0.0796
  396MOL0     O52143   2.171   3.332   9.943 -0.0167 -0.1904  0.1709
  396MOL0     C52144   2.036   3.326   9.925  0.8915  0.7679 -0.3787
  396MOL0     C52145   1.979   3.195   9.940  0.2349 -0.5737 -0.9509
  396MOL0     C52146   1.850   3.172   9.936  0.1502  0.1990 -0.3109
  396MOL0     C52147   1.763   3.277   9.924  0.2920  0.4786  0.8818
  396MOL0     O52148   1.628   3.247   9.907 -0.1467  0.5628 -0.7320
  396MOL0     C52149   1.525   3.342   9.892 -0.1398  0.0533 -0.3532
  396MOL0     C52150   1.382   3.284   9.876 -0.1807  0.4696 -0.6205
  396MOL0     C52151   1.313   3.253  10.007  0.7659 -0.6543 -0.4908
  396MOL0     C52152   1.205   3.143  10.002 -0.5616  0.1163  0.5095
  396MOL0     C52153   1.125   3.115  10.129 -0.2004  0.5974  0.3708
  396MOL0     C52154   1.009   3.207  10.157 -1.2155  0.2248  0.3229
  396MOL0     C52155   0.891   3.202  10.068  0.2830 -0.9878  0.2853
  396MOL0     C52156   0.798   3.321  10.112  0.2691 -0.3900  0.2282
  396MOL0     N52157   0.767   3.324  10.251  0.2413  0.1487  0.7179
  396MOL0     C52158   0.670   3.251  10.306 -0.8848  0.2449 -0.9246
  396MOL0     C52159   0.662   3.315  10.426  0.6016 -0.0408 -1.3159
  396MOL0     C52160   0.553   3.276  10.535 -0.2469  0.0383  1.2284
  396MOL0     C52161   0.429   3.368  10.530 -0.0320 -0.6762  0.5610
  396MOL0     C52162   0.337   3.317  10.419  1.3316 -0.2999  0.3304
  396MOL0     C52163   0.187   3.343  10.459 -1.2201  0.1003  0.1414
  396MOL0     O52164   0.118   3.334  10.329  0.0599 -0.0251  0.1058
  396MOL0     C52165  -0.012   3.374  10.327  0.1917 -0.4148  0.3046
  396MOL0     C52166  -0.069   3.380  10.192  0.6426  0.5291 -0.4981
  396MOL0     C52167  -0.202   3.405  10.164  0.1543 -0.2947 -0.8335
  396MOL0     C52168  -0.282   3.423  10.282  0.8599 -0.2064  0.8234
  396MOL0     C52169  -0.428   3.446  10.263 -0.1275 -0.0249 -0.0219
  396MOL0     O52170  -0.510   3.448  10.377  0.2608 -0.3285  0.2207
  396MOL0     C52171  -0.641   3.490  10.357 -0.9586 -0.8489  0.4577
  396MOL0     C52172  -0.689   3.593  10.431  0.5084 -0.3213 -1.2352
  396MOL0     C52173  -0.816   3.640  10.419 -0.6077  0.1712  0.0977
  396MOL0     C52174  -0.910   3.576  10.333  0.3465  0.3090 -0.9131
  396MOL0     O52175  -1.045   3.618  10.318  0.5720 -0.4043  0.0090
  396MOL0     C52176  -1.095   3.707  10.421 -0.9396 -0.3716 -0.2157
  396MOL0     C52177  -1.244   3.728  10.394  0.1707 -0.8090 -0.7910
  396MOL0     C52178  -1.313   3.597  10.396  0.3848 -0.1566 -0.8962
  396MOL0     C52179  -1.468   3.613  10.387 -0.8262  0.4215 -0.6176
  396MOL0     C52180  -1.540   3.482  10.384  0.0343  0.9877  0.2895
  396MOL0     C52181  -1.538   3.404  10.510 -0.7718 -0.4436 -0.8062
  396MOL0     C52182  -1.634   3.291  10.505  1.5013  1.0606 -0.3727
  396MOL0     C52183  -1.629   3.224  10.640  1.0105 -0.0395 -0.1778
  396MOL0    Cl52184  -1.704   3.323  10.771  0.2434  0.1364 -0.3104
  396MOL0     C52185  -0.868   3.469  10.253  0.5525 -0.2561 -0.0944
  396MOL0     C52186  -0.736   3.423  10.272 -0.2920  0.9678 -0.4682
  396MOL0     O52187  -0.464   3.464  10.144  0.1151  0.4933  0.3355
  396MOL0     C52188  -0.232   3.421  10.407 -0.2090 -0.0859  0.0676
  396MOL0     C52189  -0.099   3.399  10.432  0.1657 -0.5994 -0.5333
  396MOL0     N52190   0.741   3.427  10.429 -0.0569 -0.5893 -0.1727
  396MOL0     N52191   0.812   3.432  10.320 -0.1469  0.7160  0.4615
  396MOL0     C52192   1.814   3.409   9.918 -0.0113  0.2454  0.0664
  396MOL0     C52193   1.952   3.436   9.925 -0.2743 -0.3078  1.1633
  396MOL0     C52194   2.402   3.399   9.898 -0.5445 -1.0934 -0.2400
  396MOL0     C52195   2.450   3.307   9.992  0.0499  0.5799 -1.1972
  396MOL0     C52196   2.586   3.286   9.995 -0.0589  0.7790  0.3388
  396MOL0     C52197   2.677   3.354   9.919  0.2574  0.3855  1.0851
  396MOL0     O52198   2.817   3.335   9.920  0.1950  0.6845  0.3394
  396MOL0     C52199   2.874   3.274  10.039 -0.0011 -0.2824 -0.1392
  396MOL0     C52200   3.018   3.318  10.055  0.0051  0.2665  1.0242
  396MOL0     C52201   3.077   3.246  10.179 -0.3558  0.1887 -0.2334
  396MOL0     C52202   3.221   3.288  10.200  0.3514  0.6315 -0.4373
  396MOL0     C52203   3.242   3.401  10.293 -0.1634 -0.8606  0.2538
  396MOL0     C52204   3.234   3.505  10.353 -0.2435 -0.0476  0.4862
  396MOL0     C52205   2.631   3.446   9.827 -0.7032 -0.7567 -0.0306
  396MOL0     C52206   2.495   3.468   9.820  0.7938 -0.1893  0.7844
  396MOL0     H52207   2.042   3.108   9.956 -0.9699 -2.1584 -4.1391
  396MOL0     H52208   1.806   3.072   9.936 -2.2328  1.1913  0.4633
  396MOL0     H52209   1.547   3.394   9.798  3.2564  1.0423  0.8412
  396MOL0     H52210   1.512   3.422   9.965 -3.9358 -0.1178 -0.6455
  396MOL0     H52211   1.383   3.191   9.818 -0.4232  0.8251 -1.2018
  396MOL0     H52212   1.319   3.343   9.809  0.3410 -1.2609 -2.7660
  396MOL0     H52213   1.253   3.339  10.040 -0.8945 -1.9895  0.1122
  396MOL0     H52214   1.389   3.232  10.083  0.5842 -0.1862 -0.1717
  396MOL0     H52215   1.141   3.170   9.917 -1.1806  0.8500  1.1869
  396MOL0     H52216   1.259   3.051   9.980  2.3598  1.0594  2.9619
  396MOL0     H52217   1.193   3.096  10.213 -0.0291  1.0883  0.3420
  396MOL0     H52218   1.076   3.018  10.117  2.6764 -1.4493  3.2960
  396MOL0     H52219   1.054   3.307  10.159 -1.0862  0.1898 -0.4493
  396MOL0     H52220   0.967   3.185  10.256 -2.5459 -1.1483 -0.4902
  396MOL0     H52221   0.919   3.215   9.963  0.0058 -1.4703  0.1506
  396MOL0     H52222   0.832   3.111  10.083 -0.8393 -0.2690  0.3641
  396MOL0     H52223   0.709   3.317  10.049  0.7512 -1.2521 -0.4149
  396MOL0     H52224   0.839   3.416  10.077  0.1700 -0.8073 -1.0762
  396MOL0     H52225   0.614   3.165  10.271  0.4497 -1.1301  0.1656
  396MOL0     H52226   0.598   3.288  10.634 -0.9958 -0.9086  1.7068
  396MOL0     H52227   0.525   3.170  10.536 -3.1782  0.5772  5.7094
  396MOL0     H52228   0.470   3.467  10.508 -0.7509 -0.6427 -0.6859
  396MOL0     H52229   0.377   3.372  10.626  1.5495  0.0307  1.4388
  396MOL0     H52230   0.352   3.381  10.331 -0.4889 -0.6709 -0.2961
  396MOL0     H52231   0.364   3.215  10.390  2.0563 -0.1261  0.3563
  396MOL0     H52232   0.190   3.443  10.503  0.8356  0.7170 -1.2631
  396MOL0     H52233   0.150   3.268  10.529 -0.1494  0.2182  0.8686
  396MOL0     H52234  -0.003   3.373  10.106  2.1410  1.3498  0.5373
  396MOL0     H52235  -0.246   3.396  10.065 -3.4011  2.9142  0.2274
  396MOL0     H52236  -0.627   3.644  10.504  1.1299  2.6374 -3.6449
  396MOL0     H52237  -0.852   3.728  10.472  0.9593  0.4954  0.6769
  396MOL0     H52238  -1.050   3.804  10.403 -1.9938  0.0408 -0.7281
  396MOL0     H52239  -1.073   3.683  10.526  1.2706  3.7824  0.4507
  396MOL0     H52240  -1.257   3.773  10.295  2.8485 -1.2251 -1.4165
  396MOL0     H52241  -1.286   3.799  10.466 -1.9746 -3.7629  1.1001
  396MOL0     H52242  -1.289   3.539  10.485  0.4864  1.4331  0.1620
  396MOL0     H52243  -1.278   3.540  10.310 -1.0037  0.2561 -1.7544
  396MOL0     H52244  -1.497   3.676  10.472  0.0171 -0.4721  0.3678
  396MOL0     H52245  -1.486   3.666  10.294  0.1755  1.2887 -0.3473
  396MOL0     H52246  -1.500   3.429  10.298 -1.2124 -0.1257  0.3552
  396MOL0     H52247  -1.644   3.502  10.355 -1.4712 -0.0382  4.2500
  396MOL0     H52248  -1.558   3.471  10.593  2.0378  0.7576 -0.9922
  396MOL0     H52249  -1.436   3.368  10.529 -0.6189  0.3625 -0.0638
  396MOL0     H52250  -1.736   3.326  10.489  0.2820 -2.1528 -0.4713
  396MOL0     H52251  -1.610   3.213  10.431 -1.7698 -1.3150  0.8206
  396MOL0     H52252  -1.529   3.205  10.679  2.0725  2.6792 -1.2968
  396MOL0     H52253  -1.684   3.129  10.640 -0.4654  0.7627  1.2298
  396MOL0     H52254  -0.937   3.417  10.187  2.0305 -0.1236 -1.8344
  396MOL0     H52255  -0.700   3.330  10.229 -2.5450  0.3122 -1.0678
  396MOL0     H52256  -0.300   3.449  10.488  1.5359  0.2343  1.4833
  396MOL0     H52257  -0.061   3.403  10.534  0.4429  1.5792 -0.6868
  396MOL0     H52258   1.754   3.499   9.913 -0.2067  0.1652  0.8139
  396MOL0     H52259   1.993   3.534   9.946 -0.3240 -0.4805  2.1149
  396MOL0     H52260   2.383   3.250  10.056  0.0072 -0.3203 -2.0107
  396MOL0     H52261   2.615   3.214  10.071 -0.3038  1.6636  1.2961
  396MOL0     H52262   2.858   3.166  10.037 -2.1571  0.0006 -0.2367
  396MOL0     H52263   2.822   3.304  10.131 -0.4816  0.9724 -0.7928
  396MOL0     H52264   3.073   3.284   9.967  1.0712  1.3634  1.2331
  396MOL0     H52265   3.027   3.427  10.056  3.9451  0.0799  0.2976
  396MOL0     H52266   3.073   3.138  10.163 -5.3610  0.3632 -1.9406
  396MOL0     H52267   3.015   3.276  10.264  2.1656  2.1793  1.0240
  396MOL0     H52268   3.270   3.198  10.239 -0.4167 -0.6520 -2.3247
  396MOL0     H52269   3.262   3.305  10.100  1.1578  0.2845 -0.1774
  396MOL0     H52270   3.233   3.597  10.407 -0.6602  0.7491 -0.8346
  396MOL0     H52271   2.699   3.503   9.764 -2.5267  1.2975 -0.2628
  396MOL0     H52272   2.465   3.539   9.744  0.6874 -1.7643 -0.7201
  397MOL0     O52273   1.301   9.168   9.817  0.0006 -1.0673 -0.3626
  397MOL0     C52274   1.295   9.235   9.716 -0.3293 -0.5388  0.1401
  397MOL0     O52275   1.200   9.213   9.623 -0.3497 -0.1943 -0.1332
  397MOL0     C52276   1.118   9.102   9.646 -0.7154 -0.1207  0.0429
  397MOL0     C52277   0.988   9.122   9.684 -0.0216 -0.3893 -0.4155
  397MOL0     C52278   0.911   9.010   9.726 -0.5075 -0.0618 -0.7021
  397MOL0     C52279   0.949   8.879   9.695 -0.5846  0.6919 -0.5409
  397MOL0     O52280   0.872   8.775   9.738 -0.4167 -0.4805  0.0017
  397MOL0     C52281   0.820   8.697   9.633  0.8941  0.7052 -0.0529
  397MOL0     C52282   0.694   8.769   9.574 -0.2588 -0.2450  0.1909
  397MOL0     C52283   0.583   8.772   9.683  0.0227  0.5252 -0.1699
  397MOL0     C52284   0.473   8.863   9.632  0.9790  0.3489 -0.5044
  397MOL0     C52285   0.348   8.861   9.728 -0.9591 -0.2328 -0.2169
  397MOL0     C52286   0.263   8.740   9.710 -0.4771 -0.0367 -0.0960
  397MOL0     C52287   0.153   8.760   9.818  0.3978  0.2747 -0.3869
  397MOL0     C52288   0.064   8.640   9.818 -0.0913 -0.8650 -0.5472
  397MOL0     N52289  -0.061   8.663   9.895  0.4067  0.0528 -0.3240
  397MOL0     C52290  -0.153   8.775   9.887 -0.1696  0.0581  0.5316
  397MOL0     C52291  -0.241   8.757   9.991 -1.1321  0.4288 -0.1653
  397MOL0     C52292  -0.331   8.866  10.037  0.1088  0.8212 -0.0915
  397MOL0     C52293  -0.458   8.810  10.086  0.6843 -0.7807  0.3614
  397MOL0     C52294  -0.564   8.925  10.123 -0.0084 -0.1220  0.4047
  397MOL0     C52295  -0.698   8.859  10.153  0.4251 -0.6807  1.0184
  397MOL0     O52296  -0.786   8.876  10.040 -0.7631  0.5057 -0.8586
  397MOL0     C52297  -0.926   8.872  10.055  0.3935  0.2528 -1.1614
  397MOL0     C52298  -1.000   8.872   9.939  0.3422 -0.6687 -0.2670
  397MOL0     C52299  -1.146   8.883   9.937  0.1319 -0.1180 -0.1561
  397MOL0     C52300  -1.212   8.892  10.064  0.3069 -1.4587  0.3763
  397MOL0     C52301  -1.359   8.895  10.061  0.4837 -0.3997 -0.1466
  397MOL0     O52302  -1.421   8.898  10.188  0.0210 -0.2806 -0.5689
  397MOL0     C52303  -1.548   8.936  10.190  0.8163  0.5421 -0.0888
  397MOL0     C52304  -1.603   9.036  10.102  0.7001  0.6474 -0.6096
  397MOL0     C52305  -1.731   9.077  10.112  0.0436  0.2329  0.5676
  397MOL0     C52306  -1.819   9.019  10.200 -0.5843  0.1019  0.5735
  397MOL0     O52307  -1.949   9.063  10.192  0.6342  0.1510 -0.2883
  397MOL0     C52308  -2.037   9.031  10.304 -0.2016 -0.0761 -0.4481
  397MOL0     C52309  -2.185   9.083  10.287  0.4671 -0.3948  0.1348
  397MOL0     C52310  -2.270   9.044  10.402  0.3790 -0.5528  0.1167
  397MOL0     C52311  -2.409   9.098  10.391 -0.0844 -0.1701 -0.3804
  397MOL0     C52312  -2.487   9.039  10.506 -0.1301  0.2423 -0.3309
  397MOL0     C52313  -2.449   9.097  10.645 -0.2763 -0.0470 -0.3671
  397MOL0     C52314  -2.534   9.026  10.753  0.1261 -0.1846 -0.7991
  397MOL0     C52315  -2.520   9.098  10.892 -0.1217  0.5282  0.5824
  397MOL0    Cl52316  -2.601   8.986  11.009 -0.2207  0.3102  0.6200
  397MOL0     C52317  -1.768   8.920  10.293 -0.6024 -0.7226 -0.2395
  397MOL0     C52318  -1.633   8.876  10.280  0.2861  0.2326  0.3220
  397MOL0     O52319  -1.411   8.881   9.948  0.3504 -0.2007 -0.4088
  397MOL0     C52320  -1.132   8.874  10.179 -0.1426 -0.2646  0.3026
  397MOL0     C52321  -0.994   8.862  10.177 -0.2272 -0.2656  0.0946
  397MOL0     N52322  -0.202   8.635  10.053  0.6385  0.1738 -0.6859
  397MOL0     N52323  -0.102   8.590   9.996 -0.4287  0.0890  0.6364
  397MOL0     C52324   1.081   8.863   9.638  0.8898  0.3312  0.5443
  397MOL0     C52325   1.165   8.973   9.618 -0.5442 -0.0470  0.1607
  397MOL0     C52326   1.389   9.352   9.695  0.1190  0.3221 -0.3253
  397MOL0     C52327   1.478   9.393   9.794 -0.0691 -0.1204 -0.9497
  397MOL0     C52328   1.568   9.493   9.775 -0.6927  0.3089  0.5072
  397MOL0     C52329   1.571   9.560   9.650  0.2826 -0.8677 -0.1894
  397MOL0     O52330   1.657   9.669   9.625  0.8597  0.7166  0.1233
  397MOL0     C52331   1.757   9.700   9.728  0.0886  0.0089 -0.0492
  397MOL0     C52332   1.876   9.616   9.718 -0.8124 -0.4306  0.2919
  397MOL0     C52333   1.933   9.598   9.574  1.0600 -0.8603  0.3367
  397MOL0     C52334   1.933   9.732   9.487  0.4679 -0.0480  0.2868
  397MOL0     C52335   2.014   9.839   9.543 -0.1112  0.1865  0.1938
  397MOL0     C52336   2.080   9.941   9.560  0.2307  0.7325 -0.0657
  397MOL0     C52337   1.484   9.527   9.548 -0.2714 -0.1620  0.1065
  397MOL0     C52338   1.394   9.420   9.570  0.7049 -0.2443 -0.4632
  397MOL0     H52339   0.948   9.222   9.693 -0.9199 -0.7285 -0.5410
  397MOL0     H52340   0.815   9.033   9.773  0.8659  1.8886  1.3785
  397MOL0     H52341   0.792   8.601   9.678  2.0930  0.1919 -0.3714
  397MOL0     H52342   0.890   8.674   9.552  0.0652 -1.0254 -0.3363
  397MOL0     H52343   0.650   8.720   9.487 -0.3684  0.8103 -0.3676
  397MOL0     H52344   0.718   8.873   9.551 -1.9289  0.3915  1.1248
  397MOL0     H52345   0.620   8.818   9.775  1.4579  0.1076 -0.5154
  397MOL0     H52346   0.549   8.669   9.696  1.5643  0.2002  1.6198
  397MOL0     H52347   0.512   8.964   9.644 -2.1377  1.7202 -0.9880
  397MOL0     H52348   0.449   8.835   9.529 -2.4165 -0.2193  0.3357
  397MOL0     H52349   0.291   8.953   9.712  0.8920  0.8118 -1.1591
  397MOL0     H52350   0.377   8.857   9.834 -0.6850 -2.7287 -0.3334
  397MOL0     H52351   0.315   8.644   9.716 -1.4199 -0.7758 -2.5986
  397MOL0     H52352   0.210   8.738   9.614  0.5094  2.5618 -0.7617
  397MOL0     H52353   0.196   8.756   9.918  2.0401 -1.3571 -1.0997
  397MOL0     H52354   0.107   8.857   9.798 -1.3753 -0.9216 -2.6139
  397MOL0     H52355   0.110   8.545   9.846  1.3688  0.2374  1.0261
  397MOL0     H52356   0.033   8.639   9.713  1.2659 -2.1037 -0.9612
  397MOL0     H52357  -0.165   8.855   9.815 -0.9360  1.0204  1.6838
  397MOL0     H52358  -0.365   8.932   9.956 -1.5182  1.6224  1.1852
  397MOL0     H52359  -0.276   8.922  10.114 -0.8781  1.2766  0.3130
  397MOL0     H52360  -0.435   8.762  10.181 -0.6282  0.6299  1.4349
  397MOL0     H52361  -0.493   8.746  10.005  3.6993 -0.7305 -1.1523
  397MOL0     H52362  -0.530   8.983  10.209 -2.1384  0.6729  0.7927
  397MOL0     H52363  -0.569   8.990  10.035 -0.4599 -0.1498  0.4073
  397MOL0     H52364  -0.739   8.904  10.243 -2.5196  1.7927 -1.3345
  397MOL0     H52365  -0.686   8.752  10.174 -2.3315 -1.0465  1.1293
  397MOL0     H52366  -0.959   8.880   9.839  1.0926 -3.3381 -0.2596
  397MOL0     H52367  -1.197   8.883   9.842  1.7755 -0.1884 -1.0824
  397MOL0     H52368  -1.527   9.074  10.035  4.4416 -0.6587  2.4836
  397MOL0     H52369  -1.764   9.154  10.042 -1.8818 -2.7645 -2.0749
  397MOL0     H52370  -1.988   9.074  10.391  3.0792 -3.1487 -0.5685
  397MOL0     H52371  -2.034   8.924  10.326 -1.5104  0.5214  3.3053
  397MOL0     H52372  -2.241   9.048  10.199  1.3248  0.7659 -0.9194
  397MOL0     H52373  -2.185   9.192  10.279  2.1795 -0.4418 -1.3233
  397MOL0     H52374  -2.224   9.088  10.492 -0.0965 -2.8965  1.5983
  397MOL0     H52375  -2.265   8.936  10.416  1.0876 -1.1324 -3.6605
  397MOL0     H52376  -2.411   9.208  10.391  1.1792 -0.0934  1.4306
  397MOL0     H52377  -2.460   9.060  10.303 -0.3057 -2.3937  0.6423
  397MOL0     H52378  -2.468   8.931  10.504 -0.4580  0.1925 -1.9874
  397MOL0     H52379  -2.594   9.055  10.496 -0.3402 -1.0460 -0.3639
  397MOL0     H52380  -2.471   9.204  10.644 -1.6312 -0.2076  2.5816
  397MOL0     H52381  -2.341   9.091  10.659  0.3136  5.1669 -0.9206
  397MOL0     H52382  -2.639   9.035  10.726  0.0968  1.1760 -0.2835
  397MOL0     H52383  -2.511   8.919  10.758  0.9916  0.0493  1.1734
  397MOL0     H52384  -2.566   9.197  10.890  0.9245  1.0241 -0.5931
  397MOL0     H52385  -2.414   9.113  10.918  0.2180 -0.8086  0.0171
  397MOL0     H52386  -1.841   8.867  10.354 -2.5759 -0.5583 -2.3255
  397MOL0     H52387  -1.605   8.787  10.335 -0.1428  0.9939  1.8329
  397MOL0     H52388  -1.191   8.869  10.270 -1.5030 -0.7739 -0.5792
  397MOL0     H52389  -0.942   8.850  10.271  0.8354 -6.2130 -0.8640
  397MOL0     H52390   1.124   8.766   9.617 -2.4400 -1.2622  0.5441
  397MOL0     H52391   1.266   8.961   9.578 -0.0338 -0.1130  1.4102
  397MOL0     H52392   1.471   9.357   9.896 -3.6267  1.6496 -0.4410
  397MOL0     H52393   1.640   9.505   9.856  1.3250 -0.3908 -1.0870
  397MOL0     H52394   1.715   9.703   9.829  2.0169  0.9927  0.7830
  397MOL0     H52395   1.786   9.804   9.714  2.5078 -0.6685 -0.6180
  397MOL0     H52396   1.954   9.648   9.787 -0.2984 -2.2780  0.6274
  397MOL0     H52397   1.852   9.516   9.754  0.4255 -1.5952 -1.9371
  397MOL0     H52398   1.866   9.530   9.521  2.5433 -3.0032  1.0530
  397MOL0     H52399   2.031   9.549   9.578  0.7145 -1.5286  1.1144
  397MOL0     H52400   1.973   9.709   9.388  1.5968 -0.8304  0.9046
  397MOL0     H52401   1.828   9.761   9.476 -0.2432 -2.4600  0.1819
  397MOL0     H52402   2.130  10.036   9.574  2.9274 -0.8722  2.6575
  397MOL0     H52403   1.495   9.594   9.464  1.0596 -1.1393 -0.5433
  397MOL0     H52404   1.323   9.405   9.489  2.5259 -0.7437 -2.0464
  398MOL0     O52405   3.590   3.632   2.927 -0.0540 -0.1816 -0.7839
  398MOL0     C52406   3.667   3.628   3.028  0.1053 -0.9439 -0.0290
  398MOL0     O52407   3.641   3.660   3.161  0.0989  0.6163  0.0888
  398MOL0     C52408   3.511   3.675   3.199  0.4670  0.3905  0.1232
  398MOL0     C52409   3.411   3.577   3.169 -0.8128  0.3179 -0.9234
  398MOL0     C52410   3.279   3.593   3.203 -0.2367 -0.0841  0.5840
  398MOL0     C52411   3.248   3.713   3.270  0.2204  0.4218 -0.0388
  398MOL0     O52412   3.115   3.735   3.306 -0.3027  0.3175 -0.3733
  398MOL0     C52413   3.054   3.644   3.401  0.0938  0.4368  0.3015
  398MOL0     C52414   2.911   3.689   3.431 -0.8960  0.4003  0.3818
  398MOL0     C52415   2.904   3.810   3.525 -0.7428  0.4201  0.1151
  398MOL0     C52416   2.917   3.768   3.677 -0.0273 -0.0466 -0.5691
  398MOL0     C52417   2.893   3.893   3.768 -0.1272 -0.3239  0.8789
  398MOL0     C52418   2.898   3.849   3.916  0.8195 -0.5318 -0.1907
  398MOL0     C52419   2.859   3.968   4.003  0.6754 -0.6037 -0.1309
  398MOL0     C52420   2.815   3.926   4.147 -0.5973  0.0966  0.0896
  398MOL0     N52421   2.702   3.826   4.150  0.4829  0.5277 -0.5241
  398MOL0     C52422   2.572   3.859   4.124 -0.3944 -0.3708  0.5138
  398MOL0     C52423   2.490   3.758   4.160 -0.0933 -0.4202  0.7308
  398MOL0     C52424   2.335   3.770   4.134 -0.9569 -0.2168 -0.0086
  398MOL0     C52425   2.263   3.636   4.137  0.0178 -1.0908  0.3955
  398MOL0     C52426   2.260   3.580   4.279  0.2563  0.8591  0.8931
  398MOL0     C52427   2.177   3.451   4.287  0.2741  0.2368  0.8089
  398MOL0     O52428   2.038   3.472   4.249  0.1314  0.3195  0.5730
  398MOL0     C52429   1.947   3.498   4.347  0.2335 -0.0289 -0.3531
  398MOL0     C52430   1.815   3.453   4.320 -0.7100  0.3861  0.5010
  398MOL0     C52431   1.707   3.473   4.408 -0.1813 -0.4638  0.2216
  398MOL0     C52432   1.724   3.547   4.531 -0.0190 -0.4075  0.1554
  398MOL0     C52433   1.615   3.584   4.622 -0.4660  0.1467  0.2606
  398MOL0     O52434   1.504   3.512   4.602 -0.6974  0.0723 -0.5020
  398MOL0     C52435   1.400   3.543   4.679  0.2677 -0.3226  0.3031
  398MOL0     C52436   1.304   3.634   4.637 -0.0097  0.4602 -0.3933
  398MOL0     C52437   1.188   3.648   4.718  0.0376 -0.2444 -0.1148
  398MOL0     C52438   1.177   3.575   4.840 -0.1524 -0.4447  0.6221
  398MOL0     O52439   1.077   3.589   4.931 -0.4448 -0.7217  0.6405
  398MOL0     C52440   1.016   3.722   4.939  0.1986  0.0832  0.2184
  398MOL0     C52441   0.901   3.714   5.049  0.4860  0.7714  0.5444
  398MOL0     C52442   0.846   3.843   5.093 -0.7163 -1.4115 -0.5649
  398MOL0     C52443   0.733   3.833   5.192  0.2945  0.4218  0.1606
  398MOL0     C52444   0.666   3.967   5.233 -0.1159 -0.2727 -0.1936
  398MOL0     C52445   0.751   4.082   5.283 -0.3527  0.3681  0.1025
  398MOL0     C52446   0.669   4.209   5.321 -0.6996  0.2721  0.5487
  398MOL0     C52447   0.557   4.182   5.411 -1.1288  0.9385 -0.0064
  398MOL0    Cl52448   0.470   4.322   5.448  0.1153  0.1699 -0.3346
  398MOL0     C52449   1.281   3.488   4.884  0.0504  0.1437  0.5094
  398MOL0     C52450   1.394   3.472   4.799  0.7237 -0.1814  0.0798
  398MOL0     O52451   1.627   3.678   4.704 -0.3110  0.1907  0.2546
  398MOL0     C52452   1.864   3.578   4.567 -0.9622 -0.1966  0.5257
  398MOL0     C52453   1.976   3.559   4.473 -0.3034  0.0278 -0.4748
  398MOL0     N52454   2.580   3.660   4.209 -1.2446 -0.3451  0.3065
  398MOL0     N52455   2.705   3.700   4.206 -0.1495 -0.3304 -0.0546
  398MOL0     C52456   3.340   3.811   3.293 -0.0633 -0.3306 -0.4518
  398MOL0     C52457   3.472   3.790   3.261  0.4332 -0.3915  0.4569
  398MOL0     C52458   3.812   3.610   3.006 -0.0353  0.3748 -0.0865
  398MOL0     C52459   3.904   3.605   3.114  0.5344  0.7596 -0.4118
  398MOL0     C52460   4.039   3.578   3.095 -0.6036  0.7561  0.2196
  398MOL0     C52461   4.081   3.547   2.965  0.3380 -0.7774 -1.0060
  398MOL0     O52462   4.205   3.508   2.942 -0.3189  0.3835 -0.5727
  398MOL0     C52463   4.296   3.460   3.041 -0.3285  0.1556  0.7903
  398MOL0     C52464   4.409   3.384   2.973 -0.6863  0.4070 -0.7793
  398MOL0     C52465   4.363   3.311   2.845  0.4380  0.0037  0.4770
  398MOL0     C52466   4.465   3.216   2.777  0.1554  0.7244 -0.1871
  398MOL0     C52467   4.561   3.295   2.706  0.1072 -0.6567 -0.1995
  398MOL0     C52468   4.641   3.360   2.643 -0.8841 -0.8455  0.5618
  398MOL0     C52469   3.992   3.552   2.860  0.9008 -0.5880 -0.4713
  398MOL0     C52470   3.858   3.581   2.875 -0.3204 -0.2023 -0.7002
  398MOL0     H52471   3.448   3.488   3.118 -3.0105 -2.0328  1.3019
  398MOL0     H52472   3.207   3.523   3.161  2.3051 -1.8712 -1.1131
  398MOL0     H52473   3.111   3.641   3.495  1.8411 -0.3446 -0.7380
  398MOL0     H52474   3.050   3.543   3.359  0.5934  1.1935 -1.6627
  398MOL0     H52475   2.853   3.611   3.481 -2.3459  0.3468 -1.2890
  398MOL0     H52476   2.864   3.707   3.334  0.5368 -4.2706 -1.4721
  398MOL0     H52477   2.806   3.856   3.513 -0.2338  1.8832  1.3027
  398MOL0     H52478   2.971   3.892   3.496 -0.9765  1.0786  1.3816
  398MOL0     H52479   2.837   3.703   3.713 -2.1470  1.9923 -1.3737
  398MOL0     H52480   3.009   3.714   3.699 -0.5910 -1.2882 -1.1571
  398MOL0     H52481   2.800   3.947   3.746  0.6583  0.5225 -0.4738
  398MOL0     H52482   2.983   3.950   3.747 -0.5928 -0.5585 -2.1060
  398MOL0     H52483   2.999   3.816   3.943  0.7547  0.2157  1.0371
  398MOL0     H52484   2.832   3.763   3.933  2.0657 -1.3874  0.5042
  398MOL0     H52485   2.942   4.037   4.020 -0.3393  0.4393  0.7364
  398MOL0     H52486   2.777   4.026   3.960  1.5283  1.0032  0.3251
  398MOL0     H52487   2.789   4.017   4.202  1.3101  0.8243 -0.1566
  398MOL0     H52488   2.897   3.881   4.205 -1.9325 -3.6716 -0.6639
  398MOL0     H52489   2.532   3.955   4.094 -0.1133  0.5890  2.9304
  398MOL0     H52490   2.319   3.819   4.037  1.6759 -0.8373 -0.8403
  398MOL0     H52491   2.288   3.832   4.210 -1.0109  1.6041 -1.4643
  398MOL0     H52492   2.311   3.564   4.070  0.3214  0.6616 -1.3868
  398MOL0     H52493   2.163   3.660   4.102  1.1960  1.7246 -1.3758
  398MOL0     H52494   2.354   3.540   4.316 -0.6368  0.9666  3.4956
  398MOL0     H52495   2.238   3.659   4.351  2.7977 -0.1146  2.8932
  398MOL0     H52496   2.184   3.397   4.381  0.3351 -3.8918 -1.3284
  398MOL0     H52497   2.208   3.381   4.208  2.1931  0.8643  0.9578
  398MOL0     H52498   1.802   3.400   4.227 -0.1716  0.4472  0.3882
  398MOL0     H52499   1.610   3.432   4.381 -0.2245  0.3784 -1.0092
  398MOL0     H52500   1.318   3.695   4.548 -0.4275  1.2690  0.0854
  398MOL0     H52501   1.114   3.711   4.670  2.2290 -0.3636 -4.1045
  398MOL0     H52502   0.976   3.757   4.843  0.5464  2.0037  0.7444
  398MOL0     H52503   1.085   3.799   4.972  2.0905 -1.8927  1.1172
  398MOL0     H52504   0.933   3.662   5.139 -0.7148  0.6553  0.9180
  398MOL0     H52505   0.822   3.656   5.000  0.0476  1.8268 -0.0286
  398MOL0     H52506   0.815   3.894   5.001  1.9800  1.3875 -0.0883
  398MOL0     H52507   0.923   3.911   5.130 -2.3329  1.2025 -1.6472
  398MOL0     H52508   0.653   3.774   5.146 -0.5160  1.4204  0.2542
  398MOL0     H52509   0.761   3.774   5.280 -2.6777 -2.8689 -0.8496
  398MOL0     H52510   0.593   3.950   5.312 -0.3082  2.1245  0.2168
  398MOL0     H52511   0.618   4.010   5.145  0.8050 -1.3518 -1.2675
  398MOL0     H52512   0.810   4.125   5.202 -0.7631  0.5380 -0.1124
  398MOL0     H52513   0.815   4.046   5.363  1.2621 -0.0639 -1.3364
  398MOL0     H52514   0.743   4.275   5.366  1.3626 -1.7800  0.3923
  398MOL0     H52515   0.620   4.263   5.239 -1.3113 -1.4202 -0.2526
  398MOL0     H52516   0.598   4.146   5.505 -1.3315 -1.3407 -0.7184
  398MOL0     H52517   0.486   4.114   5.363 -0.8488  1.1615 -0.7646
  398MOL0     H52518   1.283   3.427   4.974  1.5111  0.8531  1.0009
  398MOL0     H52519   1.480   3.412   4.827  1.3199 -0.0151 -1.2991
  398MOL0     H52520   1.882   3.632   4.659 -1.4109 -0.2166  0.6314
  398MOL0     H52521   2.076   3.591   4.498  0.7523 -3.6739  0.6363
  398MOL0     H52522   3.308   3.904   3.338  2.0887  0.3540 -0.2266
  398MOL0     H52523   3.542   3.872   3.276  0.7640  0.5043 -4.4221
  398MOL0     H52524   3.874   3.611   3.218  1.6782  0.8537 -0.0743
  398MOL0     H52525   4.100   3.574   3.184 -0.3975 -1.0795  0.0397
  398MOL0     H52526   4.255   3.385   3.110  1.8594 -1.2872  0.6271
  398MOL0     H52527   4.329   3.550   3.094 -0.8842  1.6715 -1.3282
  398MOL0     H52528   4.482   3.463   2.950 -1.4232  0.9391 -1.3479
  398MOL0     H52529   4.460   3.317   3.042 -0.5292  2.4776  1.2400
  398MOL0     H52530   4.320   3.378   2.770  1.0877 -1.7346 -1.5478
  398MOL0     H52531   4.282   3.243   2.874 -0.1850 -0.8686 -2.7867
  398MOL0     H52532   4.517   3.147   2.843 -1.4100  0.8693  1.2653
  398MOL0     H52533   4.413   3.162   2.697 -0.4028 -1.2133  1.4151
  398MOL0     H52534   4.709   3.413   2.579 -0.4842 -2.9996 -0.8997
  398MOL0     H52535   4.017   3.530   2.757  1.0130  1.4024 -0.9089
  398MOL0     H52536   3.785   3.572   2.795 -0.6150 -1.5298 -0.3009
  399MOL0     O52537   1.543   4.957   6.726  0.0120 -0.3448  0.4191
  399MOL0     C52538   1.608   4.930   6.834  0.7495  0.5115 -0.4999
  399MOL0     O52539   1.557   4.853   6.930 -0.1873 -0.1937  0.2421
  399MOL0     C52540   1.471   4.754   6.895  0.7028  0.6229  0.1668
  399MOL0     C52541   1.489   4.632   6.961 -0.3168 -0.1224  0.4254
  399MOL0     C52542   1.401   4.531   6.959  1.4612  0.6973  0.6036
  399MOL0     C52543   1.282   4.544   6.890 -0.0805  0.2015 -1.2214
  399MOL0     O52544   1.190   4.441   6.891  0.2125 -0.0190  0.0498
  399MOL0     C52545   1.096   4.433   6.780  0.4074  0.3273 -0.0391
  399MOL0     C52546   1.047   4.286   6.783  0.2296  0.2630 -0.3409
  399MOL0     C52547   0.929   4.263   6.694  0.4626  1.2980 -0.1110
  399MOL0     C52548   0.874   4.120   6.708  0.3559  0.3960  0.7891
  399MOL0     C52549   0.800   4.081   6.584 -0.1505  0.1621 -0.2524
  399MOL0     C52550   0.735   3.942   6.604  0.2595 -0.0308 -0.3873
  399MOL0     C52551   0.589   3.938   6.554 -0.3832 -0.4625 -0.1039
  399MOL0     C52552   0.526   3.800   6.533  0.0361 -0.3244  0.4179
  399MOL0     N52553   0.382   3.807   6.493  0.0264 -0.4175 -0.1262
  399MOL0     C52554   0.303   3.911   6.528  0.6501  0.0157 -0.2163
  399MOL0     C52555   0.195   3.911   6.444  0.1985 -0.0378 -0.1090
  399MOL0     C52556   0.068   3.997   6.444 -0.5914 -0.3909 -0.3064
  399MOL0     C52557   0.034   4.055   6.580 -0.0165 -0.2850 -0.3078
  399MOL0     C52558  -0.057   3.964   6.658  0.4006 -0.2003 -0.1837
  399MOL0     C52559  -0.203   3.974   6.618 -0.4164 -0.2573 -0.7423
  399MOL0     O52560  -0.268   3.866   6.691 -0.2333  0.6167  0.3226
  399MOL0     C52561  -0.405   3.868   6.686 -0.4524 -0.3011  0.3213
  399MOL0     C52562  -0.465   3.792   6.788 -0.2527  0.5793  0.0540
  399MOL0     C52563  -0.607   3.771   6.782 -0.0883 -0.4960  0.4824
  399MOL0     C52564  -0.683   3.851   6.691 -0.2704 -0.0539  0.4873
  399MOL0     C52565  -0.833   3.861   6.694  0.3058  0.1128  0.0850
  399MOL0     O52566  -0.890   3.947   6.609 -0.2472 -0.4404  0.3073
  399MOL0     C52567  -1.018   3.984   6.620  0.3457 -0.1325 -0.1972
  399MOL0     C52568  -1.078   4.025   6.738  0.5926 -0.7299 -0.9040
  399MOL0     C52569  -1.221   4.035   6.747  0.1961 -0.1018 -0.7984
  399MOL0     C52570  -1.300   4.009   6.637  0.4327 -0.0042  1.3190
  399MOL0     O52571  -1.437   4.010   6.654  0.5077  0.0324 -0.4423
  399MOL0     C52572  -1.527   4.003   6.549  0.5542 -0.8231 -0.1347
  399MOL0     C52573  -1.668   3.997   6.606 -0.1712  0.3042 -0.0934
  399MOL0     C52574  -1.714   4.133   6.655  0.1310 -0.1391 -0.6204
  399MOL0     C52575  -1.838   4.128   6.746 -0.8978  0.0812  0.1590
  399MOL0     C52576  -1.889   4.263   6.775 -0.1066 -0.4669 -0.2556
  399MOL0     C52577  -2.044   4.267   6.797 -0.8445  0.3819 -0.2289
  399MOL0     C52578  -2.096   4.410   6.758  0.3272  0.9321 -0.0441
  399MOL0     C52579  -2.250   4.423   6.789 -0.8430  0.2409  0.2149
  399MOL0    Cl52580  -2.281   4.431   6.966  0.4470  0.4254  0.3881
  399MOL0     C52581  -1.234   3.963   6.518  0.0975  0.9226 -0.0395
  399MOL0     C52582  -1.098   3.958   6.507 -0.0748  0.5671  0.8286
  399MOL0     O52583  -0.890   3.777   6.766 -0.0754  1.1622  0.1747
  399MOL0     C52584  -0.614   3.939   6.600 -0.2290  0.1705 -0.7508
  399MOL0     C52585  -0.479   3.937   6.590 -0.5362  0.6940  0.5046
  399MOL0     N52586   0.213   3.799   6.364  0.2995 -0.2686  0.3166
  399MOL0     N52587   0.319   3.738   6.389 -0.4028 -0.3404 -1.0765
  399MOL0     C52588   1.256   4.667   6.823 -0.5562  0.2787 -0.5509
  399MOL0     C52589   1.352   4.771   6.827  0.4918 -0.1942  0.4454
  399MOL0     C52590   1.723   5.016   6.855 -1.1275  0.8517  0.5464
  399MOL0     C52591   1.776   5.096   6.747  0.1719  0.3779  0.9406
  399MOL0     C52592   1.888   5.167   6.758 -1.4773 -0.1775  0.2219
  399MOL0     C52593   1.957   5.177   6.877  0.3862 -0.0839 -1.0918
  399MOL0     O52594   2.073   5.255   6.904  0.6310 -0.7315 -0.7302
  399MOL0     C52595   2.131   5.322   6.786  0.6385  0.5573  0.8533
  399MOL0     C52596   2.256   5.405   6.830  0.0829  0.5804  0.3051
  399MOL0     C52597   2.363   5.308   6.904  0.6497  0.0741  0.1102
  399MOL0     C52598   2.497   5.382   6.926  0.4919  0.0172 -0.0551
  399MOL0     C52599   2.599   5.286   6.961  0.0617  0.5784 -0.6167
  399MOL0     C52600   2.700   5.225   6.995  0.4323  0.1166  0.4216
  399MOL0     C52601   1.926   5.090   6.989  0.4952  0.2426  0.4006
  399MOL0     C52602   1.811   5.008   6.968  0.1668  0.0582  0.9746
  399MOL0     H52603   1.578   4.622   7.022 -0.7864  2.6208  1.7395
  399MOL0     H52604   1.419   4.444   7.021 -2.3386 -1.9595 -1.6047
  399MOL0     H52605   1.148   4.457   6.688  1.4077 -0.0739  0.4127
  399MOL0     H52606   1.012   4.501   6.799  0.2688  0.7246 -1.9503
  399MOL0     H52607   1.011   4.263   6.884 -3.1022  1.9122 -0.9875
  399MOL0     H52608   1.133   4.228   6.748 -0.9517 -0.4265 -2.2568
  399MOL0     H52609   0.961   4.279   6.590  0.8458  1.1862 -0.0118
  399MOL0     H52610   0.843   4.330   6.705 -0.5768  0.5319 -2.6299
  399MOL0     H52611   0.959   4.052   6.709  1.1774  1.3316  3.6839
  399MOL0     H52612   0.816   4.112   6.800  0.7008 -1.2072  0.8806
  399MOL0     H52613   0.859   4.068   6.493 -1.7872  0.7481 -1.4539
  399MOL0     H52614   0.729   4.159   6.556  0.5115 -0.3212 -3.7357
  399MOL0     H52615   0.727   3.915   6.710  0.0114 -0.2797 -0.4674
  399MOL0     H52616   0.801   3.872   6.552  0.1443  0.7503 -1.6033
  399MOL0     H52617   0.531   3.985   6.635 -0.4552 -3.0558  1.4845
  399MOL0     H52618   0.582   4.000   6.464 -0.8028 -1.0569 -0.4815
  399MOL0     H52619   0.522   3.753   6.632  2.0822 -1.5789 -0.0398
  399MOL0     H52620   0.592   3.749   6.462  1.7089  2.0725  0.1252
  399MOL0     H52621   0.318   3.979   6.611 -4.5000 -0.5109  1.5303
  399MOL0     H52622  -0.021   3.960   6.393 -1.6265  1.5538 -0.0232
  399MOL0     H52623   0.099   4.083   6.384 -0.9691 -1.0856 -1.5305
  399MOL0     H52624  -0.012   4.152   6.561  1.8228  0.3081 -2.1503
  399MOL0     H52625   0.125   4.077   6.637 -0.9614 -1.0003  1.5693
  399MOL0     H52626  -0.027   3.858   6.654  0.7689 -0.1079  0.0613
  399MOL0     H52627  -0.049   3.989   6.764 -1.3159 -3.5604  0.8748
  399MOL0     H52628  -0.221   3.948   6.513 -1.5990 -0.1310 -0.5830
  399MOL0     H52629  -0.251   4.067   6.649 -0.7362 -0.2230 -1.3223
  399MOL0     H52630  -0.407   3.745   6.867 -1.6680  1.4078  1.6386
  399MOL0     H52631  -0.658   3.715   6.860 -0.6694 -0.6588 -0.0056
  399MOL0     H52632  -1.028   4.065   6.825 -1.9619  0.4082  0.1484
  399MOL0     H52633  -1.268   4.072   6.837  0.6105 -1.4950  0.0243
  399MOL0     H52634  -1.519   3.925   6.473 -3.3771  0.2858 -1.9194
  399MOL0     H52635  -1.507   4.090   6.485  0.9387 -0.9570 -0.2013
  399MOL0     H52636  -1.671   3.926   6.689  1.2800  1.0558  0.6286
  399MOL0     H52637  -1.743   3.961   6.534 -2.1269 -0.8083  2.3483
  399MOL0     H52638  -1.732   4.187   6.562 -1.9091 -1.4341 -1.0340
  399MOL0     H52639  -1.633   4.177   6.714 -0.9078  0.2602  0.5685
  399MOL0     H52640  -1.906   4.061   6.693 -1.8418  2.1719 -1.4277
  399MOL0     H52641  -1.790   4.080   6.832  1.9989  0.1490 -1.2999
  399MOL0     H52642  -1.867   4.325   6.688  0.8231 -1.3886 -0.7034
  399MOL0     H52643  -1.848   4.305   6.867 -0.5287  3.4705 -1.6622
  399MOL0     H52644  -2.067   4.236   6.899 -1.6087  1.5059 -0.0402
  399MOL0     H52645  -2.088   4.203   6.720 -1.9770  1.1789 -0.2587
  399MOL0     H52646  -2.045   4.491   6.811 -0.7929  2.9934 -1.9368
  399MOL0     H52647  -2.081   4.427   6.651  0.2483  0.7552 -0.0836
  399MOL0     H52648  -2.291   4.332   6.743  1.2156 -1.4815  1.5716
  399MOL0     H52649  -2.300   4.515   6.756 -2.4053  0.3569  2.7203
  399MOL0     H52650  -1.290   3.919   6.436 -0.2974 -1.7608  1.5274
  399MOL0     H52651  -1.051   3.905   6.425 -1.7764  0.0707  0.1476
  399MOL0     H52652  -0.672   3.997   6.530  0.7919 -2.9580 -4.5024
  399MOL0     H52653  -0.430   3.995   6.512  4.0128 -1.2106  1.6139
  399MOL0     H52654   1.159   4.692   6.783 -0.8521 -1.1507 -0.7409
  399MOL0     H52655   1.333   4.868   6.782  0.3385  0.4388  1.8038
  399MOL0     H52656   1.733   5.116   6.649  3.4616 -0.3387 -0.8079
  399MOL0     H52657   1.948   5.212   6.680  2.8734  0.1644  3.3671
  399MOL0     H52658   2.060   5.394   6.745  2.0002  0.0019 -2.8289
  399MOL0     H52659   2.166   5.250   6.711  1.4037  2.1840 -0.4038
  399MOL0     H52660   2.303   5.452   6.743 -0.8874  3.2394  1.1143
  399MOL0     H52661   2.222   5.490   6.889  0.4359  2.2686 -1.8233
  399MOL0     H52662   2.378   5.222   6.838  0.7294 -0.3450  0.6739
  399MOL0     H52663   2.315   5.270   6.994 -1.9770  1.4994 -0.5844
  399MOL0     H52664   2.533   5.435   6.838  1.7562  0.7525  0.8689
  399MOL0     H52665   2.483   5.463   6.998  1.9626  0.6181 -0.4065
  399MOL0     H52666   2.790   5.183   7.034 -0.2913 -1.6018  0.2988
  399MOL0     H52667   1.993   5.089   7.074 -0.2036  2.7100  1.0818
  399MOL0     H52668   1.787   4.933   7.043 -4.5813 -1.4076 -1.5395
  400MOL0     O52669   0.415   6.287   4.411 -0.3748 -0.2487 -0.4109
  400MOL0     C52670   0.419   6.243   4.298 -0.2595 -0.0747 -0.1549
  400MOL0     O52671   0.314   6.188   4.228 -0.0535  0.0804  1.0108
  400MOL0     C52672   0.200   6.185   4.294 -0.1621  0.2363  0.7207
  400MOL0     C52673   0.171   6.076   4.375 -0.2457  0.4574 -0.1371
  400MOL0     C52674   0.060   6.083   4.458  0.0038  0.1912 -0.3399
  400MOL0     C52675  -0.035   6.191   4.451  0.4819 -0.0893  0.8864
  400MOL0     O52676  -0.162   6.172   4.501 -0.4695  0.8568  0.3784
  400MOL0     C52677  -0.213   6.262   4.598 -0.3014  0.3607  0.3064
  400MOL0     C52678  -0.313   6.350   4.525  0.7827 -0.1644  0.1569
  400MOL0     C52679  -0.398   6.434   4.620  0.1901  0.8778 -0.7146
  400MOL0     C52680  -0.513   6.510   4.553  0.0769  0.8370 -0.3165
  400MOL0     C52681  -0.617   6.424   4.474  0.3617 -0.6103  0.5803
  400MOL0     C52682  -0.661   6.299   4.550  0.0973  0.3155  0.1167
  400MOL0     C52683  -0.787   6.230   4.499 -0.7433  0.2185 -0.8349
  400MOL0     C52684  -0.777   6.185   4.345 -0.6453  0.1680 -0.4345
  400MOL0     N52685  -0.880   6.094   4.311  0.1480  0.7835 -0.3502
  400MOL0     C52686  -1.017   6.114   4.285  0.4264 -0.4225 -0.5646
  400MOL0     C52687  -1.075   5.989   4.278 -0.4243 -0.2872  0.2984
  400MOL0     C52688  -1.214   5.937   4.246 -0.2411  0.6165 -0.3140
  400MOL0     C52689  -1.314   6.042   4.299  0.1561  0.3534  0.1166
  400MOL0     C52690  -1.315   6.043   4.450 -0.1093  0.7682  0.7518
  400MOL0     C52691  -1.436   6.123   4.495 -0.4801 -0.1402  0.2979
  400MOL0     O52692  -1.548   6.032   4.489  0.5415  0.1004 -0.1935
  400MOL0     C52693  -1.680   6.076   4.502 -1.1215  0.4556 -0.4904
  400MOL0     C52694  -1.730   6.206   4.486 -0.0898 -0.0777  0.0917
  400MOL0     C52695  -1.858   6.248   4.520 -0.1311 -0.4028  0.1826
  400MOL0     C52696  -1.948   6.151   4.568  0.1865  0.4252 -0.6020
  400MOL0     C52697  -2.087   6.174   4.582 -0.3676  0.2307  0.5322
  400MOL0     O52698  -2.183   6.078   4.578  0.2866 -0.2038 -0.0029
  400MOL0     C52699  -2.323   6.103   4.580 -0.0374  0.7795  0.5541
  400MOL0     C52700  -2.388   6.202   4.654 -1.3218 -0.4768  0.0556
  400MOL0     C52701  -2.529   6.211   4.659 -0.5179 -0.2000  0.6327
  400MOL0     C52702  -2.604   6.131   4.570 -0.1708 -1.1637 -0.0713
  400MOL0     O52703  -2.740   6.117   4.545  0.1360  0.2304  0.5443
  400MOL0     C52704  -2.823   6.208   4.622  0.4168  0.9793 -0.2277
  400MOL0     C52705  -2.972   6.162   4.610  0.2706  0.0968  0.2082
  400MOL0     C52706  -3.063   6.235   4.715  0.0271 -0.5070  0.4980
  400MOL0     C52707  -3.211   6.214   4.677  0.3505  0.2130 -0.2692
  400MOL0     C52708  -3.249   6.269   4.546  0.1098  0.0333  0.2158
  400MOL0     C52709  -3.395   6.276   4.507 -0.0919  0.4089 -0.7387
  400MOL0     C52710  -3.415   6.356   4.369  0.4390 -0.5578 -0.1321
  400MOL0     C52711  -3.401   6.511   4.379 -0.7096 -0.4417  0.1493
  400MOL0    Cl52712  -3.493   6.575   4.513 -0.0823  0.8025  0.1014
  400MOL0     C52713  -2.538   6.026   4.501  0.9268 -0.6145 -1.1920
  400MOL0     C52714  -2.398   6.014   4.505  0.2882 -0.6492 -0.0486
  400MOL0     O52715  -2.112   6.292   4.584  0.8519 -0.4257 -0.5444
  400MOL0     C52716  -1.898   6.022   4.587  0.4567 -0.1522 -0.2126
  400MOL0     C52717  -1.770   5.978   4.553 -0.2474  0.1107 -0.7834
  400MOL0     N52718  -0.972   5.894   4.286  1.0552 -0.3113  0.0148
  400MOL0     N52719  -0.861   5.957   4.305  0.6477  1.1455  0.0082
  400MOL0     C52720  -0.013   6.289   4.346 -0.0891 -0.2861  0.4826
  400MOL0     C52721   0.112   6.291   4.282  1.1490 -0.2648 -1.0839
  400MOL0     C52722   0.553   6.232   4.229  0.7557 -0.6922  0.1852
  400MOL0     C52723   0.567   6.153   4.120 -0.2082 -0.1785 -0.9805
  400MOL0     C52724   0.692   6.143   4.056 -0.0432 -0.0428  0.4511
  400MOL0     C52725   0.804   6.212   4.116  0.9143  0.2329  0.2657
  400MOL0     O52726   0.920   6.210   4.048  0.1063  0.7763 -1.0460
  400MOL0     C52727   1.048   6.227   4.116 -0.4892  0.1669  0.0802
  400MOL0     C52728   1.163   6.171   4.036  0.4995 -0.1443 -0.6070
  400MOL0     C52729   1.200   6.027   4.062  0.3524 -0.2689 -0.1048
  400MOL0     C52730   1.255   5.968   3.928 -0.7976 -0.3022 -0.5141
  400MOL0     C52731   1.382   6.024   3.893 -0.1648 -0.0425  0.5234
  400MOL0     C52732   1.488   6.081   3.868 -0.8828 -0.0788 -0.5714
  400MOL0     C52733   0.791   6.297   4.232 -0.0635  0.3563 -0.8914
  400MOL0     C52734   0.662   6.297   4.284 -0.6458 -0.6035 -0.3423
  400MOL0     H52735   0.245   5.998   4.392  1.5174  2.3225  1.2931
  400MOL0     H52736   0.067   6.006   4.535 -1.2062  0.3042 -0.1046
  400MOL0     H52737  -0.138   6.328   4.642 -2.0980  1.0923  2.4345
  400MOL0     H52738  -0.253   6.208   4.684 -0.5853  1.7480  1.0695
  400MOL0     H52739  -0.379   6.296   4.457 -2.7620  0.0306  3.1049
  400MOL0     H52740  -0.262   6.422   4.460  0.6576 -0.9639 -0.8591
  400MOL0     H52741  -0.336   6.508   4.671 -4.0963  2.5636  2.6647
  400MOL0     H52742  -0.438   6.370   4.698  2.2456  1.0129  0.5216
  400MOL0     H52743  -0.563   6.558   4.637 -0.9230  2.1186 -1.5893
  400MOL0     H52744  -0.465   6.577   4.481 -3.1606  2.0244 -1.5934
  400MOL0     H52745  -0.587   6.409   4.370  0.0578  1.7946  0.0860
  400MOL0     H52746  -0.711   6.479   4.458  0.6985 -0.5243 -1.4516
  400MOL0     H52747  -0.677   6.325   4.655  1.4810  0.7219  0.2429
  400MOL0     H52748  -0.576   6.232   4.535 -1.3389 -1.2578 -1.5653
  400MOL0     H52749  -0.808   6.143   4.561  1.4370 -0.8239 -1.4315
  400MOL0     H52750  -0.873   6.297   4.505  0.8175  2.3439 -0.9181
  400MOL0     H52751  -0.684   6.127   4.334 -0.0709  0.7625  1.0072
  400MOL0     H52752  -0.776   6.269   4.275 -2.8327  2.0833  1.6703
  400MOL0     H52753  -1.073   6.207   4.282 -1.6088 -1.5377  0.7385
  400MOL0     H52754  -1.231   5.835   4.282  0.5284 -0.1203 -1.9604
  400MOL0     H52755  -1.242   5.930   4.140 -1.8960 -1.8860  0.1989
  400MOL0     H52756  -1.415   6.014   4.268 -0.7141  2.2334  1.0677
  400MOL0     H52757  -1.283   6.141   4.265 -0.3598 -0.2224 -2.1554
  400MOL0     H52758  -1.323   5.935   4.467  4.2608 -0.6775 -3.7280
  400MOL0     H52759  -1.224   6.089   4.489  0.3131  0.9719 -0.4300
  400MOL0     H52760  -1.443   6.210   4.429  1.1256 -0.0561  0.2070
  400MOL0     H52761  -1.426   6.158   4.598 -2.6894  2.6865 -0.3351
  400MOL0     H52762  -1.661   6.283   4.452 -0.0957 -0.5517 -1.0253
  400MOL0     H52763  -1.896   6.349   4.506  0.6398  0.2807  2.5712
  400MOL0     H52764  -2.325   6.262   4.719  0.8374  0.5697 -2.8082
  400MOL0     H52765  -2.572   6.283   4.727 -0.5937 -1.5793  2.1117
  400MOL0     H52766  -2.811   6.303   4.568  1.8805 -0.0254 -1.7571
  400MOL0     H52767  -2.796   6.212   4.728 -1.4160 -1.2405  0.4104
  400MOL0     H52768  -2.974   6.054   4.628  1.1405 -0.1311 -0.9954
  400MOL0     H52769  -3.005   6.173   4.506 -3.2165  0.9369  1.2459
  400MOL0     H52770  -3.035   6.341   4.709  0.6344 -0.7368 -1.4269
  400MOL0     H52771  -3.029   6.196   4.811  1.1076 -1.7389 -0.3464
  400MOL0     H52772  -3.234   6.108   4.670 -2.4256  0.7295  0.0937
  400MOL0     H52773  -3.283   6.260   4.745 -0.5903 -1.1498 -0.3192
  400MOL0     H52774  -3.199   6.210   4.468 -1.4699 -0.6444 -0.3269
  400MOL0     H52775  -3.202   6.368   4.542 -1.5804  0.8582 -0.7199
  400MOL0     H52776  -3.454   6.318   4.589 -1.0289  1.4894 -1.9128
  400MOL0     H52777  -3.436   6.176   4.492  1.5417 -0.1852 -1.5284
  400MOL0     H52778  -3.343   6.315   4.298  1.8997  1.1900  0.2449
  400MOL0     H52779  -3.510   6.329   4.323  0.3851  1.6457 -1.4562
  400MOL0     H52780  -3.430   6.565   4.289  1.4567  0.0891 -0.2687
  400MOL0     H52781  -3.296   6.534   4.399 -0.4203  1.1439 -2.7540
  400MOL0     H52782  -2.596   5.950   4.449 -1.5939 -0.4720  1.1886
  400MOL0     H52783  -2.353   5.937   4.445 -1.4590 -1.1245 -0.8221
  400MOL0     H52784  -1.968   5.947   4.621 -0.2174  1.3701  2.0473
  400MOL0     H52785  -1.725   5.880   4.570  2.3370  0.7968 -2.8771
  400MOL0     H52786  -0.091   6.365   4.339  0.2584 -0.0481 -1.2277
  400MOL0     H52787   0.141   6.379   4.225 -0.0667  0.3356 -0.8090
  400MOL0     H52788   0.480   6.105   4.075 -0.9684  1.4149 -1.2839
  400MOL0     H52789   0.718   6.082   3.971  2.7780 -1.4107  2.1533
  400MOL0     H52790   1.050   6.163   4.204  1.2646 -1.5066 -1.0882
  400MOL0     H52791   1.068   6.334   4.131  0.8753  0.1388 -1.2638
  400MOL0     H52792   1.126   6.185   3.934 -1.4985  2.4807  0.3517
  400MOL0     H52793   1.247   6.240   4.053 -0.1561  0.9024 -1.4740
  400MOL0     H52794   1.108   5.968   4.073  1.8188 -3.0181 -1.5381
  400MOL0     H52795   1.263   6.014   4.151 -0.0302 -0.2003  0.1807
  400MOL0     H52796   1.277   5.867   3.963  0.8952 -0.0797 -0.8775
  400MOL0     H52797   1.187   5.977   3.843 -1.9568  2.1533  0.5624
  400MOL0     H52798   1.573   6.144   3.854 -0.1458 -0.5836  1.3349
  400MOL0     H52799   0.878   6.344   4.276 -1.6690  1.6604  1.0393
  400MOL0     H52800   0.640   6.362   4.367  0.3565 -0.5570 -0.0987
  401MOL0     O52801   8.838  10.923   7.829 -0.1604 -0.0059  0.4219
  401MOL0     C52802   8.902  11.024   7.830 -0.1460 -0.0777  0.3337
  401MOL0     O52803   8.852  11.139   7.814 -0.0026  1.0064  0.7314
  401MOL0     C52804   8.730  11.145   7.758 -0.0042  0.8619  0.0328
  401MOL0     C52805   8.612  11.184   7.832  0.6634 -0.4197  0.1394
  401MOL0     C52806   8.487  11.156   7.774  0.1707  0.0096 -0.1523
  401MOL0     C52807   8.476  11.097   7.642 -0.8425 -0.3311 -0.9964
  401MOL0     O52808   8.347  11.097   7.585 -0.5014 -0.2468  0.1465
  401MOL0     C52809   8.319  11.181   7.472 -0.2414 -0.1494  0.4636
  401MOL0     C52810   8.249  11.312   7.499 -0.6233  0.3765  1.1702
  401MOL0     C52811   8.101  11.301   7.531  0.3300  0.5086 -0.3714
  401MOL0     C52812   8.003  11.257   7.423  0.1892  1.6795  0.1711
  401MOL0     C52813   7.868  11.302   7.463  0.2494 -0.6499 -0.1709
  401MOL0     C52814   7.777  11.317   7.342  0.1864 -0.3664 -0.0128
  401MOL0     C52815   7.634  11.374   7.381 -0.7245  0.6021 -0.1096
  401MOL0     C52816   7.557  11.271   7.460 -0.6303  0.0396 -0.8203
  401MOL0     N52817   7.417  11.307   7.470  0.0026 -0.3569  0.1922
  401MOL0     C52818   7.318  11.254   7.394 -0.2174 -0.9377 -0.4459
  401MOL0     C52819   7.199  11.276   7.451  0.3502  0.0283  0.5511
  401MOL0     C52820   7.069  11.235   7.388  0.2984  0.1783 -0.3164
  401MOL0     C52821   6.993  11.126   7.461  0.2277 -0.5059  0.0609
  401MOL0     C52822   6.848  11.114   7.407  0.3775  0.9718  0.0451
  401MOL0     C52823   6.770  11.002   7.478  0.3321  0.8310  0.0883
  401MOL0     O52824   6.633  11.015   7.433  0.3136 -0.7681 -0.6322
  401MOL0     C52825   6.541  10.936   7.494 -1.4744  0.2244 -0.5548
  401MOL0     C52826   6.573  10.824   7.577  0.7736  0.0458  0.3083
  401MOL0     C52827   6.471  10.753   7.645  0.4408 -0.0447  0.0477
  401MOL0     C52828   6.332  10.791   7.628 -0.5782  1.5271 -0.2725
  401MOL0     C52829   6.224  10.702   7.677 -0.0268 -0.3370 -0.5741
  401MOL0     O52830   6.100  10.740   7.670  0.0079 -0.0089  0.4173
  401MOL0     C52831   5.994  10.652   7.691  0.5556 -0.9681 -0.0565
  401MOL0     C52832   5.990  10.512   7.701 -0.7649 -0.5799 -0.9399
  401MOL0     C52833   5.876  10.444   7.743 -0.6716 -0.1380 -0.9095
  401MOL0     C52834   5.762  10.515   7.777  0.6090  0.3659  0.2050
  401MOL0     O52835   5.651  10.464   7.832 -0.7696  0.3804 -0.5826
  401MOL0     C52836   5.662  10.337   7.910 -0.3825  0.0158 -0.0389
  401MOL0     C52837   5.512  10.322   7.948 -0.5111 -0.5557  0.1349
  401MOL0     C52838   5.414  10.291   7.843 -0.0840  0.0779  0.6355
  401MOL0     C52839   5.277  10.271   7.920  0.1987 -0.6510  0.3561
  401MOL0     C52840   5.180  10.234   7.815  1.0069 -0.2143 -0.1284
  401MOL0     C52841   5.038  10.223   7.882 -0.1819 -0.8360  0.5509
  401MOL0     C52842   4.939  10.166   7.777 -0.3176 -0.2500 -0.0752
  401MOL0     C52843   4.785  10.188   7.798 -0.1400  0.7982 -0.8676
  401MOL0    Cl52844   4.750  10.367   7.791  0.7707 -0.2877  0.0674
  401MOL0     C52845   5.759  10.653   7.753 -0.7384 -0.1136  0.0409
  401MOL0     C52846   5.870  10.724   7.707  0.6001  0.3039 -0.3054
  401MOL0     O52847   6.265  10.599   7.723 -0.6786 -0.1222 -0.3490
  401MOL0     C52848   6.306  10.907   7.544 -0.1223  0.2616 -0.1786
  401MOL0     C52849   6.407  10.978   7.487  0.1458  0.2687  0.0353
  401MOL0     N52850   7.228  11.343   7.566 -0.2969 -0.1000  0.3517
  401MOL0     N52851   7.359  11.364   7.576  1.0459 -0.4860  0.4838
  401MOL0     C52852   8.591  11.071   7.569  0.2714 -0.5885 -0.1291
  401MOL0     C52853   8.711  11.093   7.627  0.1275  0.3253  0.2324
  401MOL0     C52854   9.051  11.010   7.852 -0.0463  1.2384  0.5377
  401MOL0     C52855   9.132  11.123   7.873  0.7388 -0.0764 -0.1007
  401MOL0     C52856   9.270  11.132   7.874  0.4009  0.4968  0.2867
  401MOL0     C52857   9.340  11.013   7.849  0.2311 -0.7583  0.1884
  401MOL0     O52858   9.474  11.000   7.841 -0.0985 -1.0670  0.4554
  401MOL0     C52859   9.553  11.123   7.835  0.2177  0.4577 -0.3663
  401MOL0     C52860   9.703  11.100   7.790 -0.6619  0.1277 -0.8738
  401MOL0     C52861   9.779  11.036   7.899 -0.5380 -0.2372  0.4855
  401MOL0     C52862   9.932  11.033   7.863 -0.9162  0.1267 -0.2101
  401MOL0     C52863  10.005  10.983   7.986 -0.6186  0.1127  0.4904
  401MOL0     C52864  10.059  10.937   8.088  0.0246 -0.3531  0.7034
  401MOL0     C52865   9.271  10.889   7.835 -0.1531 -0.5604 -0.1757
  401MOL0     C52866   9.127  10.888   7.840  0.7749  0.0523  0.3217
  401MOL0     H52867   8.614  11.220   7.934 -1.6135 -1.4356  0.6005
  401MOL0     H52868   8.391  11.168   7.823  0.5224  4.1926 -0.1635
  401MOL0     H52869   8.257  11.120   7.405 -0.1191 -0.4690  0.6404
  401MOL0     H52870   8.409  11.216   7.420 -1.3032  1.0543 -0.6439
  401MOL0     H52871   8.260  11.371   7.407  1.0433  0.1497  1.1938
  401MOL0     H52872   8.308  11.372   7.569  0.4340  0.1894  0.4591
  401MOL0     H52873   8.069  11.400   7.567  0.5712 -0.0729  1.5610
  401MOL0     H52874   8.104  11.240   7.621  4.0331  1.9630  0.6647
  401MOL0     H52875   8.041  11.296   7.327  0.9579 -0.1569 -0.3076
  401MOL0     H52876   8.006  11.148   7.424  1.2932  1.6984  0.4943
  401MOL0     H52877   7.870  11.400   7.512  0.2252 -1.3020  1.1793
  401MOL0     H52878   7.827  11.227   7.531  1.2045 -1.7621 -0.7868
  401MOL0     H52879   7.775  11.218   7.295 -0.1051 -0.6911  0.6678
  401MOL0     H52880   7.827  11.391   7.279  3.9088 -2.2710  0.3768
  401MOL0     H52881   7.640  11.462   7.445 -0.2077 -1.0001  2.1853
  401MOL0     H52882   7.579  11.397   7.289 -2.1518 -0.3077  0.4822
  401MOL0     H52883   7.585  11.253   7.564 -0.6632  0.4387 -0.7435
  401MOL0     H52884   7.549  11.175   7.407 -2.0715  1.1175 -2.6633
  401MOL0     H52885   7.323  11.194   7.304 -2.5733 -1.8071 -0.0419
  401MOL0     H52886   7.081  11.206   7.284 -2.7996 -1.0461 -0.4488
  401MOL0     H52887   6.996  11.317   7.398 -1.2643 -1.0809 -1.0400
  401MOL0     H52888   6.989  11.144   7.569  0.9250 -2.2008  0.3965
  401MOL0     H52889   7.048  11.032   7.452  1.2099  0.1691 -1.1013
  401MOL0     H52890   6.798  11.208   7.431 -0.0487  0.8977 -0.5223
  401MOL0     H52891   6.855  11.093   7.300  2.2895 -1.8051  0.6057
  401MOL0     H52892   6.774  11.007   7.587 -0.2124 -3.7748  0.5189
  401MOL0     H52893   6.801  10.903   7.442 -0.2453  0.3189  0.9584
  401MOL0     H52894   6.671  10.784   7.601 -0.6844 -2.5666  2.5158
  401MOL0     H52895   6.503  10.674   7.713 -0.1852  0.4411  0.9316
  401MOL0     H52896   6.080  10.453   7.689 -1.2851 -1.7242  0.3978
  401MOL0     H52897   5.888  10.337   7.760  4.1321  0.5120  1.5813
  401MOL0     H52898   5.738  10.349   7.987  0.6936  1.0289 -1.2064
  401MOL0     H52899   5.691  10.253   7.846 -0.9604 -0.5534  0.4315
  401MOL0     H52900   5.477  10.420   7.983  0.0582 -0.4568  0.4475
  401MOL0     H52901   5.507  10.255   8.034 -2.3170 -0.6194  0.0101
  401MOL0     H52902   5.428  10.190   7.802  1.3189 -0.6927  2.7788
  401MOL0     H52903   5.410  10.354   7.754  0.5907  2.1856  2.0163
  401MOL0     H52904   5.278  10.206   8.008 -2.0270 -0.1355  0.8072
  401MOL0     H52905   5.245  10.365   7.966  0.6125 -0.0102 -0.6328
  401MOL0     H52906   5.200  10.135   7.772  1.4780  0.6311 -1.9505
  401MOL0     H52907   5.172  10.293   7.723 -2.3275 -1.2021 -0.6134
  401MOL0     H52908   5.021  10.331   7.894 -0.9785 -0.7230 -1.3318
  401MOL0     H52909   5.036  10.166   7.975  1.9620  0.4019  1.4345
  401MOL0     H52910   4.966  10.203   7.678 -2.8949 -0.6736 -1.0285
  401MOL0     H52911   4.961  10.060   7.763 -1.2516 -0.2037 -2.4631
  401MOL0     H52912   4.762  10.149   7.898  1.3711  0.6656 -0.5459
  401MOL0     H52913   4.730  10.120   7.732  1.7608  1.8157 -3.6731
  401MOL0     H52914   5.668  10.710   7.769  0.1346  1.1179  0.8288
  401MOL0     H52915   5.876  10.832   7.699  1.3982  0.3097  0.2973
  401MOL0     H52916   6.204  10.944   7.534  0.3534  2.5219  2.3212
  401MOL0     H52917   6.391  11.069   7.430 -0.9925 -0.4149 -0.7785
  401MOL0     H52918   8.582  11.031   7.468  1.5983  0.5907 -0.7640
  401MOL0     H52919   8.793  11.059   7.565 -0.5948 -2.8325  0.8468
  401MOL0     H52920   9.078  11.217   7.872 -0.1337 -0.5225  1.5696
  401MOL0     H52921   9.318  11.230   7.878  1.9210 -0.2131 -0.0037
  401MOL0     H52922   9.546  11.173   7.932  1.9699  0.2067 -0.0838
  401MOL0     H52923   9.508  11.193   7.764 -1.7441 -1.1740 -0.8231
  401MOL0     H52924   9.724  11.033   7.705  2.0833  1.3004 -1.2313
  401MOL0     H52925   9.738  11.201   7.768  0.2361  0.2507  0.9641
  401MOL0     H52926   9.734  10.936   7.905 -2.1190 -0.1030 -4.7198
  401MOL0     H52927   9.780  11.093   7.992  0.5565 -0.6042  0.7145
  401MOL0     H52928   9.946  10.975   7.771 -1.9329  1.5630 -1.2983
  401MOL0     H52929   9.968  11.132   7.834 -1.2501 -0.0212 -1.1721
  401MOL0     H52930  10.131  10.905   8.161  0.5468  0.3421  0.5087
  401MOL0     H52931   9.335  10.802   7.827  1.7317  0.8940 -1.7466
  401MOL0     H52932   9.078  10.795   7.814  0.8125  0.8523 -3.0749
  402MOL0     O52933   5.903  10.365   5.719 -0.3374  0.2152 -0.1601
  402MOL0     C52934   5.941  10.252   5.686 -0.6153  0.3061  0.0032
  402MOL0     O52935   5.852  10.147   5.647 -0.4093 -0.2824  0.0589
  402MOL0     C52936   5.719  10.153   5.642  0.1612 -0.2970  0.8232
  402MOL0     C52937   5.653  10.026   5.652 -0.5205  0.0340 -0.0410
  402MOL0     C52938   5.510  10.018   5.631  0.8982 -0.8481 -1.4260
  402MOL0     C52939   5.436  10.141   5.602 -0.2273 -0.2342  0.3576
  402MOL0     O52940   5.301  10.148   5.575 -0.5241  0.0880 -0.3281
  402MOL0     C52941   5.209  10.040   5.611  0.1372  0.4253  0.1890
  402MOL0     C52942   5.072  10.092   5.582  0.0878  0.0361  0.2248
  402MOL0     C52943   4.958   9.997   5.605 -0.1977 -0.1754  0.1195
  402MOL0     C52944   4.934   9.952   5.752 -0.4167 -0.2234 -0.0741
  402MOL0     C52945   4.812   9.865   5.747  0.2344  0.4073 -0.7400
  402MOL0     C52946   4.784   9.805   5.889  0.5449 -0.4103  0.0532
  402MOL0     C52947   4.624   9.787   5.909 -0.0038  0.4784  0.1355
  402MOL0     C52948   4.581   9.698   6.036 -0.2662  0.4298 -0.3593
  402MOL0     N52949   4.436   9.697   6.039 -0.7585 -0.1902  0.4114
  402MOL0     C52950   4.362   9.807   6.078  0.9736 -0.4996  0.2042
  402MOL0     C52951   4.232   9.765   6.053 -0.4495 -0.5415 -0.4584
  402MOL0     C52952   4.119   9.855   6.060 -0.1204  0.1387 -0.8005
  402MOL0     C52953   3.981   9.781   6.074 -0.5831  0.1988 -1.2953
  402MOL0     C52954   3.862   9.868   6.005 -0.0888 -0.2023 -0.1232
  402MOL0     C52955   3.732   9.791   6.014 -0.6643 -0.7535  0.3104
  402MOL0     O52956   3.673   9.823   6.146 -0.2453 -0.1935  0.2315
  402MOL0     C52957   3.540   9.797   6.171  0.1261 -0.2243  0.8253
  402MOL0     C52958   3.474   9.847   6.283 -0.0037  0.1034 -0.2846
  402MOL0     C52959   3.342   9.813   6.322 -0.0180  0.2363  0.2661
  402MOL0     C52960   3.263   9.738   6.228  0.3750  0.1283 -0.6221
  402MOL0     C52961   3.128   9.701   6.252  1.5141  0.3032  0.3250
  402MOL0     O52962   3.046   9.680   6.140 -0.2892  0.7303  0.2692
  402MOL0     C52963   2.912   9.645   6.152 -0.4064  0.2665  0.2852
  402MOL0     C52964   2.828   9.716   6.232  0.3394 -0.2491  0.3140
  402MOL0     C52965   2.688   9.697   6.229 -0.2880  0.9483 -1.0834
  402MOL0     C52966   2.631   9.619   6.126  0.2084 -0.3669 -0.3012
  402MOL0     O52967   2.492   9.612   6.130 -0.2542  0.3064  0.1381
  402MOL0     C52968   2.427   9.509   6.053  0.1172  0.2367  0.7129
  402MOL0     C52969   2.282   9.539   6.075  0.0175  0.1020 -0.4837
  402MOL0     C52970   2.238   9.671   6.008 -0.1633 -0.6365  0.2552
  402MOL0     C52971   2.085   9.681   6.036 -0.0801  0.3454 -0.0168
  402MOL0     C52972   2.030   9.814   5.978  0.3658 -0.1811  1.6873
  402MOL0     C52973   1.871   9.824   5.986 -0.2458 -1.4136  1.4610
  402MOL0     C52974   1.822   9.959   5.938  0.7794 -0.2597  0.0083
  402MOL0     C52975   1.663   9.954   5.918 -0.9247  0.4829 -0.5749
  402MOL0    Cl52976   1.582  10.123   5.906 -0.9155  0.1667 -0.0779
  402MOL0     C52977   2.716   9.560   6.031 -0.1540 -0.0066 -0.4751
  402MOL0     C52978   2.854   9.566   6.049  0.3942  0.0236  0.5307
  402MOL0     O52979   3.086   9.714   6.366  0.5330 -0.6786  0.8381
  402MOL0     C52980   3.324   9.685   6.110  0.4107  0.6101  0.5003
  402MOL0     C52981   3.460   9.712   6.086 -0.5810 -0.1186  0.4440
  402MOL0     N52982   4.244   9.635   6.000 -0.5272  0.3896  0.1459
  402MOL0     N52983   4.363   9.597   5.999 -0.8978 -0.3916  0.6271
  402MOL0     C52984   5.501  10.258   5.604 -0.5131 -0.3025 -0.6296
  402MOL0     C52985   5.639  10.271   5.627  0.5311 -0.2043  0.6805
  402MOL0     C52986   6.084  10.219   5.694 -0.1064  0.4448 -0.5227
  402MOL0     C52987   6.122  10.083   5.706 -0.2167 -0.4590  0.1991
  402MOL0     C52988   6.258  10.054   5.720 -0.3626  0.1033  0.3059
  402MOL0     C52989   6.354  10.154   5.714  0.1194  0.8898 -1.1961
  402MOL0     O52990   6.488  10.133   5.709 -0.5437 -0.0835 -0.3964
  402MOL0     C52991   6.538  10.099   5.582  0.1826 -0.2727  0.0646
  402MOL0     C52992   6.639  10.204   5.532  0.0346 -1.3822  0.2525
  402MOL0     C52993   6.676  10.170   5.385  0.0513  0.2113  0.1232
  402MOL0     C52994   6.797  10.240   5.323 -0.3333 -0.2443 -0.5516
  402MOL0     C52995   6.918  10.191   5.391 -1.0722  0.3481 -0.0778
  402MOL0     C52996   7.028  10.164   5.450 -0.2295 -0.8564  0.5641
  402MOL0     C52997   6.317  10.285   5.703 -0.0002 -0.1675 -0.3002
  402MOL0     C52998   6.180  10.318   5.688  0.3405  0.3804  0.7569
  402MOL0     H52999   5.709   9.939   5.684 -1.2449 -0.5163 -0.2643
  402MOL0     H53000   5.464   9.920   5.626  0.9679 -0.9727 -0.0277
  402MOL0     H53001   5.220  10.019   5.718 -3.7224  0.6115  0.7933
  402MOL0     H53002   5.232   9.952   5.551 -0.4604  1.2525 -1.3148
  402MOL0     H53003   5.089  10.119   5.478 -2.8702 -2.7780 -1.1685
  402MOL0     H53004   5.046  10.183   5.638 -2.7823 -0.3462 -0.3172
  402MOL0     H53005   4.962   9.915   5.533 -1.5542  1.7124 -2.2466
  402MOL0     H53006   4.877  10.062   5.572  0.4471  0.6935  0.2157
  402MOL0     H53007   5.020   9.890   5.779  0.1007 -0.4009 -1.9766
  402MOL0     H53008   4.934  10.042   5.814 -2.6608  0.7524 -1.3662
  402MOL0     H53009   4.828   9.782   5.679 -0.6066  0.6030 -1.1919
  402MOL0     H53010   4.729   9.925   5.708  0.0496  1.3302  0.9386
  402MOL0     H53011   4.808   9.873   5.972  3.0615 -0.2597 -0.7131
  402MOL0     H53012   4.827   9.707   5.912  0.0507 -0.5594  0.3554
  402MOL0     H53013   4.567   9.881   5.903 -1.2484 -0.2034  0.9279
  402MOL0     H53014   4.590   9.737   5.818  0.1640  2.9293 -1.3933
  402MOL0     H53015   4.620   9.743   6.128  2.2682  0.0838 -1.1979
  402MOL0     H53016   4.620   9.596   6.029  0.0253  0.6061 -1.6044
  402MOL0     H53017   4.384   9.902   6.125 -1.5960  1.7381 -2.7206
  402MOL0     H53018   4.120   9.900   5.961  1.0392  1.4048 -0.2320
  402MOL0     H53019   4.128   9.927   6.141  3.4335 -2.5710  1.5223
  402MOL0     H53020   3.947   9.757   6.175 -0.0687 -2.4442 -1.6848
  402MOL0     H53021   3.985   9.680   6.033 -0.3475  0.0937 -1.0131
  402MOL0     H53022   3.852   9.967   6.052  1.6553  0.1728 -0.4609
  402MOL0     H53023   3.875   9.870   5.897  0.6234 -2.7024 -0.1437
  402MOL0     H53024   3.746   9.683   6.004  2.9339 -0.3296 -0.3949
  402MOL0     H53025   3.668   9.825   5.932  1.0127  1.9883  0.0360
  402MOL0     H53026   3.541   9.906   6.345  0.0028  0.9940 -1.1204
  402MOL0     H53027   3.309   9.849   6.419  1.2810 -0.6454  1.0571
  402MOL0     H53028   2.869   9.792   6.296  0.0325 -0.0451  0.2711
  402MOL0     H53029   2.625   9.757   6.294 -0.2316  0.1902 -0.3058
  402MOL0     H53030   2.442   9.411   6.098 -0.5891 -0.5360 -0.6741
  402MOL0     H53031   2.452   9.505   5.947  0.2409  0.9920  0.7038
  402MOL0     H53032   2.262   9.540   6.182  1.9954  0.4384 -0.0690
  402MOL0     H53033   2.221   9.456   6.039  0.0272 -0.0964 -0.0378
  402MOL0     H53034   2.260   9.671   5.901  1.9698  2.2019  0.5717
  402MOL0     H53035   2.282   9.760   6.054  1.1791 -1.5190  0.7477
  402MOL0     H53036   2.030   9.597   5.992  0.4871  0.6532 -1.3464
  402MOL0     H53037   2.063   9.677   6.143 -1.3333  0.1935 -0.2559
  402MOL0     H53038   2.066   9.828   5.875 -1.7090 -1.4462  0.7299
  402MOL0     H53039   2.077   9.893   6.037  0.6501  0.9665  0.0112
  402MOL0     H53040   1.822   9.802   6.081 -2.8978  1.4845  0.9384
  402MOL0     H53041   1.843   9.733   5.932  2.6730 -2.4789  1.5472
  402MOL0     H53042   1.847  10.040   6.007  1.0269  1.1066 -1.6503
  402MOL0     H53043   1.867   9.996   5.846 -4.0937  0.5398 -2.3813
  402MOL0     H53044   1.613   9.907   6.004 -0.7724  0.3825 -0.5416
  402MOL0     H53045   1.631   9.889   5.837 -2.2103  1.7061 -1.0911
  402MOL0     H53046   2.669   9.514   5.945 -0.3974 -0.5831 -0.0385
  402MOL0     H53047   2.912   9.521   5.970 -0.2956  2.8197 -1.7628
  402MOL0     H53048   3.268   9.626   6.039  0.3378 -0.3370  1.3237
  402MOL0     H53049   3.486   9.663   5.993 -1.9011 -1.0073  0.5197
  402MOL0     H53050   5.442  10.346   5.579 -0.1390  0.9146  2.3310
  402MOL0     H53051   5.679  10.371   5.612 -1.5475  0.4901 -0.5783
  402MOL0     H53052   6.062   9.993   5.706 -0.1827 -0.5016  1.4242
  402MOL0     H53053   6.284   9.949   5.730 -0.7909 -0.1258 -0.8078
  402MOL0     H53054   6.456  10.086   5.510  1.0541  1.8246 -1.3875
  402MOL0     H53055   6.590  10.002   5.583  2.6368  0.9701  0.1188
  402MOL0     H53056   6.581  10.297   5.535  0.7798 -0.9292  0.7228
  402MOL0     H53057   6.728  10.222   5.592  0.7077 -1.7422 -0.6244
  402MOL0     H53058   6.597  10.204   5.317 -0.6631 -3.0538 -0.8277
  402MOL0     H53059   6.682  10.063   5.366  0.1718  0.4561 -1.3305
  402MOL0     H53060   6.804  10.211   5.218 -1.1237  2.8320 -1.5499
  402MOL0     H53061   6.777  10.347   5.321 -2.3451 -0.5884 -0.9286
  402MOL0     H53062   7.129  10.150   5.485  0.0628  0.2351  0.1922
  402MOL0     H53063   6.395  10.360   5.698  0.5298 -0.3841  2.5813
  402MOL0     H53064   6.151  10.420   5.669  0.6067 -0.1456 -3.5580
  403MOL0     O53065   2.060   1.051   1.554  0.4487 -0.0241 -0.1385
  403MOL0     C53066   2.060   0.931   1.514  0.1416 -0.1358 -0.1130
  403MOL0     O53067   1.956   0.844   1.532 -0.4058  0.4113 -0.3836
  403MOL0     C53068   1.831   0.874   1.589 -0.5403 -0.8083 -0.0094
  403MOL0     C53069   1.735   0.771   1.586 -0.0939 -0.1110  0.1532
  403MOL0     C53070   1.598   0.798   1.624  0.1580 -0.5792  0.1609
  403MOL0     C53071   1.558   0.919   1.665  0.3251 -0.3592 -0.0522
  403MOL0     O53072   1.423   0.934   1.707 -0.0579 -0.4033 -0.2563
  403MOL0     C53073   1.356   1.062   1.706 -0.5426  0.2581 -0.0432
  403MOL0     C53074   1.207   1.035   1.719 -0.1265  0.5825 -0.5283
  403MOL0     C53075   1.129   0.967   1.611  0.4209  0.1741  0.3517
  403MOL0     C53076   1.000   0.902   1.667 -0.0277 -0.4161  0.4740
  403MOL0     C53077   0.918   0.851   1.548  0.0304 -0.4588 -0.3923
  403MOL0     C53078   0.769   0.824   1.578  1.1199  0.1343 -0.9023
  403MOL0     C53079   0.702   0.945   1.651  0.3176 -0.8674 -0.8276
  403MOL0     C53080   0.549   0.942   1.610  0.2714 -0.4783 -0.2106
  403MOL0     N53081   0.460   0.856   1.680  0.1820  0.9059  0.0906
  403MOL0     C53082   0.459   0.719   1.670  0.1808 -0.7125  0.2422
  403MOL0     C53083   0.359   0.679   1.756  0.5474 -0.0569 -0.7975
  403MOL0     C53084   0.345   0.532   1.785  0.0233  0.1500  0.1250
  403MOL0     C53085   0.202   0.479   1.791  0.1043  0.9559  0.1612
  403MOL0     C53086   0.188   0.327   1.787 -0.1968 -0.5054  0.6912
  403MOL0     C53087   0.264   0.240   1.889  1.4566  0.1616 -0.4066
  403MOL0     O53088   0.397   0.229   1.847 -0.4306 -0.5918  0.0908
  403MOL0     C53089   0.483   0.179   1.939 -0.4990 -0.0678 -0.1602
  403MOL0     C53090   0.443   0.095   2.049 -0.0631 -0.3605 -0.1110
  403MOL0     C53091   0.535   0.041   2.143 -0.8887 -0.3606  0.3459
  403MOL0     C53092   0.675   0.073   2.126  0.7032  0.3574 -0.3722
  403MOL0     C53093   0.774   0.029   2.223  0.0461 -0.0832  0.6775
  403MOL0     O53094   0.904   0.053   2.198 -0.4808 -0.1564  0.3126
  403MOL0     C53095   1.002   0.031   2.288 -0.3612 -0.5737  0.7569
  403MOL0     C53096   0.999  -0.005   2.423  0.1983  0.1787  0.2275
  403MOL0     C53097   1.111  -0.004   2.488 -0.7386  0.0252 -0.3935
  403MOL0     C53098   1.238   0.031   2.434  0.5104  0.4029  0.0800
  403MOL0     O53099   1.350   0.028   2.514  0.0319 -0.1126 -0.0263
  403MOL0     C53100   1.335   0.062   2.649  0.4419  0.3219  1.1007
  403MOL0     C53101   1.458   0.145   2.682  0.1567  0.0891 -0.0289
  403MOL0     C53102   1.585   0.060   2.682 -0.7496  0.2880 -0.6618
  403MOL0     C53103   1.715   0.149   2.727 -0.7222  0.0730  0.2855
  403MOL0     C53104   1.841   0.061   2.729 -0.0167  0.2935  0.6749
  403MOL0     C53105   1.967   0.135   2.774  0.0968  0.3527 -0.8050
  403MOL0     C53106   2.088   0.039   2.750  0.5021  0.1562  0.4678
  403MOL0     C53107   2.216   0.107   2.792  0.6404  0.8631  0.2941
  403MOL0    Cl53108   2.273   0.222   2.674 -0.4134  0.1657  0.4198
  403MOL0     C53109   1.246   0.058   2.296  0.2181 -0.0858  1.1127
  403MOL0     C53110   1.125   0.065   2.224  0.2624 -0.5808  0.0596
  403MOL0     O53111   0.734  -0.047   2.312 -0.2316 -0.5117 -0.9015
  403MOL0     C53112   0.713   0.149   2.004 -0.3166 -0.5859  0.5064
  403MOL0     C53113   0.620   0.201   1.913  0.6089 -0.4024 -0.0262
  403MOL0     N53114   0.284   0.796   1.796 -0.2177  0.3463 -0.0861
  403MOL0     N53115   0.347   0.894   1.742  1.0857 -0.0616 -0.9302
  403MOL0     C53116   1.655   1.017   1.686 -0.2025 -0.8603 -0.8086
  403MOL0     C53117   1.790   1.000   1.649  0.8943  1.1615  0.3166
  403MOL0     C53118   2.186   0.873   1.471  0.2485 -0.3249  0.0518
  403MOL0     C53119   2.299   0.954   1.452  0.1003  0.4805 -0.2009
  403MOL0     C53120   2.424   0.906   1.400 -0.5443  0.5498 -0.1873
  403MOL0     C53121   2.428   0.773   1.352  0.7636  0.4757 -0.0433
  403MOL0     O53122   2.535   0.722   1.283  0.4725  0.7810  0.2199
  403MOL0     C53123   2.529   0.583   1.239 -0.6897 -0.4073 -0.3300
  403MOL0     C53124   2.667   0.527   1.192  0.2238  0.3346  0.0796
  403MOL0     C53125   2.661   0.395   1.128 -0.0048  0.0758  0.1534
  403MOL0     C53126   2.799   0.349   1.092 -0.1495  0.5569 -0.0780
  403MOL0     C53127   2.843   0.423   0.971  0.5683  0.0273 -0.4411
  403MOL0     C53128   2.880   0.481   0.872  0.2519 -0.3370 -0.6317
  403MOL0     C53129   2.309   0.694   1.367  0.5681  0.0418  1.0165
  403MOL0     C53130   2.191   0.747   1.420 -0.4321 -0.2875  0.0949
  403MOL0     H53131   1.774   0.673   1.558  0.1084  0.2236 -0.7780
  403MOL0     H53132   1.531   0.714   1.634  0.3236 -0.7071  0.2088
  403MOL0     H53133   1.382   1.120   1.617 -1.2578 -0.5920 -0.8246
  403MOL0     H53134   1.371   1.127   1.793 -2.0667 -0.3066  0.6743
  403MOL0     H53135   1.153   1.126   1.745 -2.7685 -0.7308 -1.0634
  403MOL0     H53136   1.207   0.979   1.813 -0.7535  3.1727  1.1152
  403MOL0     H53137   1.191   0.885   1.574 -3.3727 -2.8066 -0.0357
  403MOL0     H53138   1.104   1.029   1.524 -2.3425 -3.6545 -1.9204
  403MOL0     H53139   1.023   0.816   1.731  2.1993  0.8958  1.5649
  403MOL0     H53140   0.948   0.979   1.723  1.2690  1.1099 -0.3445
  403MOL0     H53141   0.967   0.757   1.518  0.0731 -0.2240 -1.0911
  403MOL0     H53142   0.917   0.924   1.466  0.5061  0.6388  0.5651
  403MOL0     H53143   0.767   0.738   1.646 -0.2431  0.7291 -0.1397
  403MOL0     H53144   0.713   0.799   1.487 -3.0872 -1.6696  1.8341
  403MOL0     H53145   0.712   0.936   1.760 -0.5763 -0.1234 -0.6701
  403MOL0     H53146   0.744   1.040   1.617 -1.3421  0.3553  0.3369
  403MOL0     H53147   0.533   0.931   1.502  0.8722  0.2212 -0.3793
  403MOL0     H53148   0.521   1.044   1.637  1.2273 -0.4226  0.6191
  403MOL0     H53149   0.524   0.651   1.617 -0.3861  0.1829 -1.7159
  403MOL0     H53150   0.402   0.517   1.877  4.9415 -2.4290 -2.8928
  403MOL0     H53151   0.408   0.484   1.709  0.1187 -1.3947  1.1351
  403MOL0     H53152   0.135   0.514   1.713 -1.6275 -0.2814  1.0275
  403MOL0     H53153   0.159   0.520   1.883  4.5118  2.8312  1.6412
  403MOL0     H53154   0.083   0.326   1.819  0.2506 -0.3858  2.2614
  403MOL0     H53155   0.196   0.287   1.686 -0.1140 -0.5003  0.6962
  403MOL0     H53156   0.215   0.142   1.879 -0.1637  1.1622 -3.1985
  403MOL0     H53157   0.241   0.280   1.988  2.7086  1.3563 -0.5686
  403MOL0     H53158   0.339   0.070   2.068  0.2736 -2.0830 -0.4203
  403MOL0     H53159   0.506  -0.014   2.232  1.3316 -0.4059  1.1286
  403MOL0     H53160   0.907  -0.029   2.476 -0.8855 -0.1474 -1.6848
  403MOL0     H53161   1.114  -0.000   2.596  2.9448  2.9510 -0.3756
  403MOL0     H53162   1.317  -0.023   2.715 -4.2439  1.5506  1.7979
  403MOL0     H53163   1.253   0.135   2.656  0.4071  0.5517 -1.1266
  403MOL0     H53164   1.437   0.202   2.773 -0.8511 -1.6992  0.9293
  403MOL0     H53165   1.478   0.226   2.612  2.4792  1.2633  1.8290
  403MOL0     H53166   1.619   0.032   2.582 -2.5131  1.5458 -1.6669
  403MOL0     H53167   1.568  -0.028   2.745  1.8484 -0.5940 -1.0820
  403MOL0     H53168   1.734   0.222   2.648 -0.3126 -0.3340  0.0035
  403MOL0     H53169   1.692   0.208   2.816 -1.3771  0.9262 -0.4358
  403MOL0     H53170   1.857   0.015   2.631  0.6173 -0.4341  1.1026
  403MOL0     H53171   1.827  -0.020   2.801  2.5784  0.1255  1.1101
  403MOL0     H53172   1.958   0.159   2.880  1.4727  1.8792 -0.9955
  403MOL0     H53173   1.984   0.219   2.706 -1.7755 -0.2735 -2.1412
  403MOL0     H53174   2.075  -0.054   2.806 -0.8410 -2.2579 -3.4749
  403MOL0     H53175   2.090   0.001   2.648 -0.3942 -1.3984  1.0043
  403MOL0     H53176   2.296   0.032   2.796 -0.3341 -0.1567  1.1085
  403MOL0     H53177   2.203   0.156   2.889  2.6396 -0.6961  1.4376
  403MOL0     H53178   1.343   0.080   2.251  1.6999  0.1587  4.1411
  403MOL0     H53179   1.124   0.104   2.122 -0.2039 -1.0705 -0.1275
  403MOL0     H53180   0.817   0.177   1.997 -0.4075 -0.3068  0.2240
  403MOL0     H53181   0.648   0.266   1.831 -2.4120 -0.6073 -1.3512
  403MOL0     H53182   1.619   1.116   1.714 -1.0870 -0.9933 -1.4593
  403MOL0     H53183   1.837   1.097   1.641  1.2720  1.1112  1.6410
  403MOL0     H53184   2.287   1.059   1.477 -0.4093  0.7678 -1.5806
  403MOL0     H53185   2.516   0.964   1.392  0.2011  0.2711  4.1063
  403MOL0     H53186   2.468   0.569   1.149  1.1457 -2.9101 -1.3146
  403MOL0     H53187   2.503   0.519   1.324 -5.3259 -0.6687 -1.6400
  403MOL0     H53188   2.719   0.601   1.130  2.1503 -1.9124 -1.1503
  403MOL0     H53189   2.736   0.512   1.276 -1.3073 -1.6415  1.0529
  403MOL0     H53190   2.595   0.412   1.042  0.3886  1.6993  0.1465
  403MOL0     H53191   2.615   0.317   1.190  0.3004  0.8523  1.3820
  403MOL0     H53192   2.866   0.372   1.175  0.8255  1.9069 -1.1836
  403MOL0     H53193   2.809   0.242   1.073 -0.0731  0.5496  0.0065
  403MOL0     H53194   2.912   0.538   0.787  0.5949  1.2245  0.5000
  403MOL0     H53195   2.307   0.586   1.356 -0.6755 -0.2886  3.7536
  403MOL0     H53196   2.110   0.678   1.403  1.8146 -2.4671 -2.8310
  404MOL0     O53197   7.542   0.623   2.044 -0.5551 -0.2030  0.1897
  404MOL0     C53198   7.571   0.707   1.953 -0.0896 -0.1476  1.2177
  404MOL0     O53199   7.474   0.780   1.872 -0.0179  0.3898 -0.7061
  404MOL0     C53200   7.343   0.748   1.900  0.8948  0.4240  0.1519
  404MOL0     C53201   7.272   0.780   2.026 -0.0361 -0.0337  0.5445
  404MOL0     C53202   7.136   0.742   2.057  0.6625  0.1665 -0.0268
  404MOL0     C53203   7.072   0.684   1.954 -1.3597 -0.5954 -1.0184
  404MOL0     O53204   6.939   0.659   1.974  0.0312 -0.0790 -0.7225
  404MOL0     C53205   6.920   0.531   2.032 -0.0112 -0.0587 -0.8204
  404MOL0     C53206   6.778   0.517   2.093 -0.7771  0.4375  0.3660
  404MOL0     C53207   6.781   0.535   2.248  0.5316 -0.5223  0.6688
  404MOL0     C53208   6.676   0.650   2.262 -0.5422  0.5223 -0.8649
  404MOL0     C53209   6.680   0.726   2.399  0.2388 -0.1931  0.1295
  404MOL0     C53210   6.701   0.645   2.529 -0.4147  0.9675  0.9786
  404MOL0     C53211   6.583   0.547   2.545 -0.1552 -0.8907 -0.4111
  404MOL0     C53212   6.606   0.460   2.674 -0.6632 -0.7338  0.2279
  404MOL0     N53213   6.521   0.339   2.662 -0.8376  0.2426 -0.0755
  404MOL0     C53214   6.389   0.333   2.699  0.1519  0.5386 -0.7733
  404MOL0     C53215   6.347   0.204   2.681 -0.6396  0.2382 -0.9167
  404MOL0     C53216   6.207   0.156   2.723  0.2341 -0.5984  0.9517
  404MOL0     C53217   6.158   0.022   2.655 -0.4411 -0.0351 -0.4417
  404MOL0     C53218   6.009   0.029   2.616  0.1814 -0.2512 -0.6940
  404MOL0     C53219   5.945  -0.108   2.570  0.0265 -0.0955 -0.1113
  404MOL0     O53220   5.803  -0.073   2.544 -0.4376 -0.6742  0.7052
  404MOL0     C53221   5.721  -0.167   2.480 -0.1327  0.4506 -0.4358
  404MOL0     C53222   5.763  -0.275   2.417 -0.3143 -0.1947 -0.7580
  404MOL0     C53223   5.679  -0.368   2.354 -0.1998 -0.5104  0.4201
  404MOL0     C53224   5.536  -0.345   2.377 -0.5480 -0.9155 -0.4317
  404MOL0     C53225   5.434  -0.439   2.336 -0.0558  0.3564 -0.5047
  404MOL0     O53226   5.323  -0.457   2.419 -0.2844  0.0480  0.4748
  404MOL0     C53227   5.224  -0.536   2.376 -0.4729  0.5123  0.0805
  404MOL0     C53228   5.179  -0.633   2.460  0.2355 -0.2672  0.2876
  404MOL0     C53229   5.074  -0.715   2.415 -1.2585 -0.4259  0.0071
  404MOL0     C53230   5.008  -0.682   2.294  0.2782  0.8693  1.0055
  404MOL0     O53231   4.905  -0.749   2.240 -0.7144 -0.5685  0.0494
  404MOL0     C53232   4.852  -0.864   2.309  0.3852  0.0371 -0.3744
  404MOL0     C53233   4.717  -0.912   2.260  0.3011  0.2156  1.0055
  404MOL0     C53234   4.590  -0.863   2.343 -0.5285 -0.5383 -0.0796
  404MOL0     C53235   4.561  -0.710   2.337 -0.1190  0.6748 -0.7353
  404MOL0     C53236   4.439  -0.657   2.415 -0.1379 -0.2185 -0.7781
  404MOL0     C53237   4.313  -0.735   2.385  0.0728 -0.3299 -0.4690
  404MOL0     C53238   4.184  -0.677   2.435  0.4570 -0.5816 -0.2676
  404MOL0     C53239   4.196  -0.658   2.586  0.8684 -0.0694 -0.0454
  404MOL0    Cl53240   4.039  -0.636   2.661 -0.0357 -0.0367  0.3221
  404MOL0     C53241   5.050  -0.567   2.223 -0.0135 -0.6402 -0.0621
  404MOL0     C53242   5.160  -0.494   2.260  0.1877 -0.0815  0.3706
  404MOL0     O53243   5.463  -0.508   2.242 -0.0196 -0.4785  0.0159
  404MOL0     C53244   5.491  -0.231   2.443  0.1957  1.1550 -0.4257
  404MOL0     C53245   5.584  -0.144   2.491  0.0373  0.8240 -0.2822
  404MOL0     N53246   6.453   0.127   2.632 -0.9094 -0.5216 -0.1885
  404MOL0     N53247   6.560   0.210   2.622  0.2210  0.3444 -0.1229
  404MOL0     C53248   7.137   0.644   1.835  0.5563  0.0398  0.0351
  404MOL0     C53249   7.270   0.676   1.802  0.1854 -0.0213  0.1312
  404MOL0     C53250   7.715   0.738   1.930  0.2892 -0.1196 -0.9298
  404MOL0     C53251   7.815   0.697   2.014 -1.2812  0.7802 -0.4934
  404MOL0     C53252   7.949   0.718   1.974  1.3591 -0.3941 -0.5970
  404MOL0     C53253   7.982   0.790   1.851  0.4171  0.6984 -0.5136
  404MOL0     O53254   8.112   0.805   1.805  0.2615  0.9446  0.5337
  404MOL0     C53255   8.192   0.867   1.903 -0.1109  0.1549  1.0593
  404MOL0     C53256   8.297   0.950   1.833  0.9958 -0.3106  0.3315
  404MOL0     C53257   8.355   1.053   1.927  0.1029 -0.7940 -0.4651
  404MOL0     C53258   8.471   1.132   1.864 -0.0929  1.5657 -0.1925
  404MOL0     C53259   8.597   1.073   1.912  0.1478 -0.0439 -0.0416
  404MOL0     C53260   8.690   1.024   1.962 -0.1661 -0.0111 -0.3798
  404MOL0     C53261   7.876   0.835   1.768 -0.1986  0.6473 -0.3904
  404MOL0     C53262   7.746   0.809   1.809  0.7600  0.4408  0.7226
  404MOL0     H53263   7.333   0.848   2.084  1.0855 -1.4974  1.1638
  404MOL0     H53264   7.085   0.758   2.151 -1.3061 -0.4410 -0.9468
  404MOL0     H53265   6.999   0.501   2.100 -0.4930  0.9267  0.2086
  404MOL0     H53266   6.927   0.466   1.944  2.0333  1.6904 -2.0332
  404MOL0     H53267   6.737   0.419   2.067 -0.4028  1.1231 -3.4605
  404MOL0     H53268   6.723   0.594   2.038  0.3328  0.1649 -1.1978
  404MOL0     H53269   6.875   0.568   2.293  0.5663  0.5781 -0.1732
  404MOL0     H53270   6.752   0.445   2.304 -4.0001 -1.1007 -2.0661
  404MOL0     H53271   6.688   0.733   2.192 -1.0094  0.3938 -1.1028
  404MOL0     H53272   6.574   0.615   2.240 -0.2744  0.5606 -2.2450
  404MOL0     H53273   6.580   0.769   2.413  0.4400  0.7975 -1.3059
  404MOL0     H53274   6.757   0.803   2.394  0.5958 -0.5955 -0.7251
  404MOL0     H53275   6.714   0.714   2.613 -0.3912  2.3832 -0.1570
  404MOL0     H53276   6.795   0.591   2.520 -2.1278 -2.8717  3.4169
  404MOL0     H53277   6.487   0.599   2.548  0.4280  0.4038 -2.0879
  404MOL0     H53278   6.587   0.483   2.457  1.0866 -3.7547  1.5900
  404MOL0     H53279   6.574   0.520   2.760  1.1151 -1.0735  1.1863
  404MOL0     H53280   6.708   0.421   2.685 -0.1515  0.0177 -1.5916
  404MOL0     H53281   6.332   0.423   2.719  2.6650  1.5775  2.6595
  404MOL0     H53282   6.137   0.240   2.720  0.8716  0.0298 -3.4042
  404MOL0     H53283   6.221   0.127   2.827  0.0940  1.8711  1.7123
  404MOL0     H53284   6.170  -0.073   2.709  3.4837 -1.4749 -3.3678
  404MOL0     H53285   6.225   0.008   2.569 -0.3513 -1.0916 -0.2158
  404MOL0     H53286   5.965   0.079   2.703  0.9392  0.7018 -0.8469
  404MOL0     H53287   6.009   0.099   2.532 -0.5201 -0.1228 -0.5993
  404MOL0     H53288   5.950  -0.180   2.653 -2.4107  0.6082  0.7233
  404MOL0     H53289   5.999  -0.149   2.484  1.5827  1.7056 -0.0587
  404MOL0     H53290   5.869  -0.296   2.408 -0.5281 -3.3990  2.1486
  404MOL0     H53291   5.717  -0.453   2.297  2.3812  1.6933 -1.4472
  404MOL0     H53292   5.219  -0.651   2.559 -0.1542  0.3750  0.5652
  404MOL0     H53293   5.058  -0.807   2.470  1.7864 -1.3808 -0.5165
  404MOL0     H53294   4.833  -0.845   2.415 -1.8987 -2.6554 -0.1971
  404MOL0     H53295   4.928  -0.942   2.298  0.4946 -0.2004  1.6869
  404MOL0     H53296   4.728  -1.020   2.272  2.2563 -0.1299 -2.6125
  404MOL0     H53297   4.708  -0.892   2.153 -0.6550 -0.5636  0.9216
  404MOL0     H53298   4.606  -0.883   2.450  1.4939  3.6000  0.5854
  404MOL0     H53299   4.506  -0.922   2.304 -0.1696 -0.3061 -1.2392
  404MOL0     H53300   4.654  -0.658   2.364 -0.4996  1.6085 -1.1820
  404MOL0     H53301   4.557  -0.695   2.229  2.3196 -1.0156 -1.1450
  404MOL0     H53302   4.431  -0.552   2.387 -0.4275 -0.0015  0.1097
  404MOL0     H53303   4.453  -0.663   2.523  1.5204 -1.6010 -1.0230
  404MOL0     H53304   4.325  -0.832   2.433  0.0745 -1.5359 -2.7396
  404MOL0     H53305   4.294  -0.746   2.278 -2.4829 -3.4948  0.1451
  404MOL0     H53306   4.184  -0.581   2.384  3.3550 -0.4166 -0.1645
  404MOL0     H53307   4.105  -0.746   2.404 -0.0427 -0.1399  0.0186
  404MOL0     H53308   4.252  -0.566   2.605  0.2252  0.1331  0.9629
  404MOL0     H53309   4.250  -0.738   2.637  0.0839 -0.9005 -0.5023
  404MOL0     H53310   4.991  -0.527   2.141  1.9375 -0.1182 -1.2843
  404MOL0     H53311   5.184  -0.404   2.204 -3.9313  1.1004  0.1491
  404MOL0     H53312   5.385  -0.209   2.451  0.0744  2.4367 -3.7487
  404MOL0     H53313   5.541  -0.055   2.535 -2.0957  1.0293 -2.5467
  404MOL0     H53314   7.078   0.601   1.756 -2.4747  1.8592  1.1552
  404MOL0     H53315   7.303   0.652   1.701 -1.5043  1.6336 -0.8745
  404MOL0     H53316   7.813   0.640   2.107  1.5432  1.0972 -0.1468
  404MOL0     H53317   8.027   0.682   2.040 -1.5174 -1.1768  2.6496
  404MOL0     H53318   8.232   0.796   1.977 -0.7847 -0.7922  0.5299
  404MOL0     H53319   8.127   0.935   1.959 -4.0693  0.2422 -3.1030
  404MOL0     H53320   8.364   0.875   1.791 -1.1923 -2.0655 -0.2020
  404MOL0     H53321   8.247   1.000   1.750  0.3645 -3.6321 -1.4808
  404MOL0     H53322   8.393   0.998   2.013  0.1245  1.1137  0.7958
  404MOL0     H53323   8.274   1.120   1.956 -0.3470 -1.0216 -1.1719
  404MOL0     H53324   8.476   1.116   1.756 -1.6143 -1.1785  0.0316
  404MOL0     H53325   8.464   1.238   1.888  3.0450  2.8140 -3.9500
  404MOL0     H53326   8.758   0.985   2.035 -0.9748  2.4467  1.8044
  404MOL0     H53327   7.898   0.883   1.673 -5.6389 -1.2144 -2.9500
  404MOL0     H53328   7.668   0.841   1.741  1.2840 -0.4573 -0.3184
  405MOL0     O53329   9.975   0.003  10.641  0.1726  0.2353  0.1598
  405MOL0     C53330  10.015   0.098  10.576 -0.9431 -0.4129 -0.1705
  405MOL0     O53331   9.951   0.143  10.469  0.6903 -0.7039 -0.6009
  405MOL0     C53332   9.811   0.131  10.433 -0.1698  0.8582  0.7637
  405MOL0     C53333   9.723   0.235  10.439  0.3465 -0.7067  0.2560
  405MOL0     C53334   9.589   0.215  10.414 -0.5139 -0.0540 -0.1585
  405MOL0     C53335   9.544   0.090  10.377 -0.1211 -0.1905  0.3329
  405MOL0     O53336   9.417   0.048  10.337 -0.2927  0.0110 -0.2569
  405MOL0     C53337   9.309   0.139  10.362 -0.1936  0.3169  0.8324
  405MOL0     C53338   9.186   0.096  10.276  0.1051  0.4097 -0.8247
  405MOL0     C53339   9.112  -0.027  10.324 -0.0838 -0.2144 -1.3203
  405MOL0     C53340   8.981  -0.059  10.245  0.2706 -0.0285 -0.5306
  405MOL0     C53341   8.863  -0.058  10.340  0.2357  0.2988  0.0521
  405MOL0     C53342   8.745  -0.044  10.247  0.4549 -0.1071 -0.1666
  405MOL0     C53343   8.615  -0.040  10.331  0.0240  1.1090  0.0265
  405MOL0     C53344   8.497  -0.001  10.232  0.1121  0.5748  0.4709
  405MOL0     N53345   8.367  -0.000  10.310  0.7839  1.0677  0.2848
  405MOL0     C53346   8.290  -0.102  10.350 -0.3078 -0.6091  0.1967
  405MOL0     C53347   8.185  -0.042  10.408 -0.5033  0.6121  0.5919
  405MOL0     C53348   8.075  -0.112  10.469 -0.2786  0.8839 -0.0834
  405MOL0     C53349   7.980  -0.163  10.357  0.5215 -0.4692 -0.2306
  405MOL0     C53350   7.903  -0.057  10.279  1.0129  0.0258  0.1789
  405MOL0     C53351   7.787  -0.100  10.192  1.0244  0.1776 -0.9077
  405MOL0     O53352   7.733   0.014  10.120 -0.0946  0.1013  0.3269
  405MOL0     C53353   7.614   0.068  10.171 -0.3099 -1.0342  0.0791
  405MOL0     C53354   7.562   0.045  10.301 -0.1774 -0.1273 -0.9386
  405MOL0     C53355   7.449   0.121  10.351 -0.6072 -0.6547  0.6369
  405MOL0     C53356   7.388   0.217  10.275 -0.0645  0.4501 -0.2378
  405MOL0     C53357   7.277   0.297  10.340  0.3987  0.1601 -0.3683
  405MOL0     O53358   7.224   0.399  10.258  0.2168  0.1646  0.5982
  405MOL0     C53359   7.117   0.471  10.281 -0.6136 -0.3057 -0.7658
  405MOL0     C53360   7.114   0.594  10.211 -0.7447  0.2090 -0.5400
  405MOL0     C53361   7.012   0.681  10.231 -0.0191 -0.1625  0.3317
  405MOL0     C53362   6.905   0.647  10.314 -0.0081 -0.3111  0.2542
  405MOL0     O53363   6.809   0.743  10.319  0.4195  0.0399 -0.9424
  405MOL0     C53364   6.693   0.722  10.245  0.3371  0.5677  0.1070
  405MOL0     C53365   6.569   0.789  10.311 -1.1003 -0.2844 -0.8510
  405MOL0     C53366   6.441   0.752  10.224 -0.4795 -1.0152 -0.6782
  405MOL0     C53367   6.317   0.833  10.277 -0.2459  0.3321  0.9202
  405MOL0     C53368   6.194   0.794  10.199  0.4489 -0.1055  0.9181
  405MOL0     C53369   6.092   0.902  10.185  1.1848 -0.0459  0.1104
  405MOL0     C53370   5.970   0.862  10.113 -1.0364  0.6863  1.2783
  405MOL0     C53371   6.013   0.847   9.959  0.1967  0.4103 -0.7558
  405MOL0    Cl53372   5.865   0.822   9.875 -0.1507 -0.0659 -0.2915
  405MOL0     C53373   6.909   0.524  10.380  0.1142 -0.0501 -0.3704
  405MOL0     C53374   7.013   0.434  10.364 -0.1133  0.5448 -0.6739
  405MOL0     O53375   7.244   0.258  10.451  0.4648 -0.4092 -0.1612
  405MOL0     C53376   7.447   0.247  10.149  0.2405 -0.8211  0.2153
  405MOL0     C53377   7.554   0.173  10.107  0.7614 -1.0838  0.1958
  405MOL0     N53378   8.205   0.094  10.404  0.1642 -0.2293 -0.7087
  405MOL0     N53379   8.318   0.117  10.347 -0.5683  0.0806  0.2312
  405MOL0     C53380   9.638  -0.014  10.374  0.2848 -0.1713  0.5343
  405MOL0     C53381   9.768   0.003  10.409 -0.1867  0.1284 -1.0661
  405MOL0     C53382  10.152   0.142  10.623 -0.5127 -0.1045 -0.8724
  405MOL0     C53383  10.185   0.278  10.592  0.0121 -0.2619 -0.0605
  405MOL0     C53384  10.303   0.335  10.631  0.0068 -0.1292  0.2145
  405MOL0     C53385  10.402   0.251  10.690  0.1188  0.1378 -0.3717
  405MOL0     O53386  10.520   0.298  10.735 -0.1478 -0.1766 -0.5382
  405MOL0     C53387  10.562   0.434  10.705 -0.1029  1.3654  0.5686
  405MOL0     C53388  10.723   0.431  10.713 -0.3630  0.4049 -0.4045
  405MOL0     C53389  10.781   0.401  10.851  0.2242  0.9370 -0.0274
  405MOL0     C53390  10.818   0.257  10.874 -0.6270  0.4016 -0.9873
  405MOL0     C53391  10.803   0.226  11.017  0.4321  0.0699  0.6298
  405MOL0     C53392  10.803   0.207  11.142 -0.6365  0.8517 -0.0318
  405MOL0     C53393  10.374   0.113  10.718  0.5570 -1.4788  0.8571
  405MOL0     C53394  10.247   0.065  10.688  0.1529 -0.4375  1.0708
  405MOL0     H53395   9.747   0.330  10.485 -4.0691 -0.2568  2.1219
  405MOL0     H53396   9.521   0.296  10.435 -1.6069 -0.9956  0.0464
  405MOL0     H53397   9.348   0.238  10.333  0.8039 -0.5497 -0.9887
  405MOL0     H53398   9.279   0.142  10.467  1.5399 -0.7172  1.4061
  405MOL0     H53399   9.231   0.075  10.178  1.8450  1.6292 -0.3390
  405MOL0     H53400   9.114   0.178  10.275 -0.5495 -0.1341  0.1961
  405MOL0     H53401   9.091  -0.001  10.428 -0.2153  3.0614 -2.0715
  405MOL0     H53402   9.168  -0.121  10.317 -1.7074 -1.6909  2.7037
  405MOL0     H53403   8.970   0.026  10.176  0.2823  1.1080  0.8351
  405MOL0     H53404   8.993  -0.153  10.191 -3.1373  0.0758 -1.7349
  405MOL0     H53405   8.867   0.032  10.403  0.0827  1.8195 -2.0065
  405MOL0     H53406   8.854  -0.147  10.403 -1.7244  0.9538  0.7957
  405MOL0     H53407   8.730  -0.133  10.185 -0.2014  1.5378 -2.5055
  405MOL0     H53408   8.762   0.041  10.180 -2.1710 -0.7813 -1.8517
  405MOL0     H53409   8.603  -0.142  10.371 -1.8648  2.9666  4.8886
  405MOL0     H53410   8.616   0.033  10.412 -1.0337  0.6469  0.4718
  405MOL0     H53411   8.471  -0.071  10.153  1.0733 -0.6442  1.2166
  405MOL0     H53412   8.510   0.097  10.185  1.6409  0.4226  0.5338
  405MOL0     H53413   8.301  -0.209  10.332 -4.1468 -1.3086  1.0914
  405MOL0     H53414   8.017  -0.043  10.531 -0.2294 -1.7020  3.0897
  405MOL0     H53415   8.108  -0.188  10.540 -0.1897  1.8298  0.9171
  405MOL0     H53416   7.902  -0.220  10.409  0.0289 -0.4140 -0.9048
  405MOL0     H53417   8.032  -0.229  10.287 -0.2861  0.9727 -2.2667
  405MOL0     H53418   7.869   0.027  10.341 -0.6782  0.2013 -0.9328
  405MOL0     H53419   7.965   0.000  10.210 -3.1528  1.8543 -2.4388
  405MOL0     H53420   7.714  -0.164  10.243  1.4374 -3.8170 -4.7047
  405MOL0     H53421   7.842  -0.155  10.115  1.7336  0.1833 -0.4156
  405MOL0     H53422   7.605  -0.034  10.363  0.3258 -0.4174 -1.6466
  405MOL0     H53423   7.411   0.102  10.450 -1.3084  1.3854  0.8188
  405MOL0     H53424   7.194   0.602  10.138 -1.1844 -2.0631 -1.3549
  405MOL0     H53425   6.997   0.767  10.166 -1.2540 -2.3718 -2.5135
  405MOL0     H53426   6.686   0.614  10.225  1.6455  0.5747 -0.4815
  405MOL0     H53427   6.704   0.764  10.145 -1.3115 -2.0817 -1.3328
  405MOL0     H53428   6.582   0.898  10.305 -1.0215 -0.2469 -0.1153
  405MOL0     H53429   6.557   0.757  10.415 -1.4407 -1.4247 -1.2303
  405MOL0     H53430   6.437   0.643  10.223  2.0752 -1.1557 -1.3156
  405MOL0     H53431   6.464   0.785  10.123  2.6093 -0.3883  0.1364
  405MOL0     H53432   6.307   0.817  10.385  2.2058  2.0290  1.4838
  405MOL0     H53433   6.330   0.941  10.263 -1.8018  0.2607 -1.9863
  405MOL0     H53434   6.156   0.697  10.231  0.4858 -0.3036  0.3703
  405MOL0     H53435   6.232   0.798  10.096  0.2882 -2.9418  0.6845
  405MOL0     H53436   6.130   0.988  10.127  2.6185 -0.3414  0.5678
  405MOL0     H53437   6.065   0.937  10.285  4.1265  0.3879  0.8708
  405MOL0     H53438   5.921   0.770  10.147 -0.7909  0.2148  0.3934
  405MOL0     H53439   5.901   0.946  10.107 -2.2440 -0.3921 -2.8919
  405MOL0     H53440   6.078   0.760   9.949 -1.7229 -1.5549  2.2509
  405MOL0     H53441   6.054   0.940   9.917  1.4219  0.0953 -0.2925
  405MOL0     H53442   6.825   0.488  10.438 -1.6273  1.9521 -1.5163
  405MOL0     H53443   7.007   0.332  10.401 -1.0465 -0.3468 -3.0999
  405MOL0     H53444   7.391   0.320  10.092  0.7707  0.1544  0.9210
  405MOL0     H53445   7.582   0.197  10.005 -4.8775  4.1566 -0.7172
  405MOL0     H53446   9.619  -0.117  10.346  2.0369 -0.7452  1.3234
  405MOL0     H53447   9.834  -0.084  10.414 -2.3796 -1.6344 -0.9882
  405MOL0     H53448  10.107   0.336  10.545 -1.2713 -1.5096  0.4622
  405MOL0     H53449  10.317   0.442  10.618 -0.1426 -0.2307 -0.8748
  405MOL0     H53450  10.512   0.504  10.774 -0.2578  1.8200  0.0019
  405MOL0     H53451  10.525   0.460  10.606 -0.4382 -2.3425 -0.4064
  405MOL0     H53452  10.753   0.354  10.641 -0.5806  0.9102 -1.0460
  405MOL0     H53453  10.771   0.524  10.682  0.1425 -0.3451 -1.9862
  405MOL0     H53454  10.700   0.440  10.914  0.9377  3.8614 -0.7627
  405MOL0     H53455  10.872   0.461  10.861  1.3086 -0.6008 -0.3207
  405MOL0     H53456  10.746   0.205  10.810 -2.3990  1.7800 -0.1938
  405MOL0     H53457  10.923   0.235  10.855 -0.7498 -2.0217  0.6868
  405MOL0     H53458  10.796   0.200  11.249  0.9539  2.9437  0.2647
  405MOL0     H53459  10.453   0.064  10.774  4.2318  2.2425 -0.5675
  405MOL0     H53460  10.223  -0.028  10.737 -0.7173  0.1793  1.8349
  406MOL0     O53461   4.966   6.560   2.733  0.5577 -0.2160 -0.3634
  406MOL0     C53462   5.009   6.489   2.822  0.2729 -0.6518 -0.2707
  406MOL0     O53463   4.935   6.446   2.923 -0.5486 -0.3092 -0.4298
  406MOL0     C53464   4.797   6.464   2.918 -0.4043 -0.5370  0.1010
  406MOL0     C53465   4.723   6.416   2.805  0.2543 -0.7251 -0.3057
  406MOL0     C53466   4.588   6.444   2.790  0.6648 -0.2500  0.2215
  406MOL0     C53467   4.523   6.512   2.889 -0.2175  0.2089  0.8031
  406MOL0     O53468   4.397   6.568   2.865 -0.1341  1.1964  0.2801
  406MOL0     C53469   4.305   6.588   2.977 -0.4724 -0.0323 -0.4282
  406MOL0     C53470   4.172   6.636   2.925 -0.1818  0.2776  0.2289
  406MOL0     C53471   4.051   6.600   3.009  0.6801  0.8080  0.2218
  406MOL0     C53472   3.936   6.705   2.980  1.0386 -0.2629  0.6652
  406MOL0     C53473   3.818   6.681   3.072  0.8260  1.3157  0.6354
  406MOL0     C53474   3.707   6.791   3.058  0.2424  0.1675 -0.1889
  406MOL0     C53475   3.575   6.750   3.127 -0.5313 -0.3634 -0.4564
  406MOL0     C53476   3.467   6.843   3.078  0.3433  0.2346  1.3197
  406MOL0     N53477   3.345   6.773   3.127  0.4889  0.5791 -0.5421
  406MOL0     C53478   3.263   6.702   3.042  0.9309 -0.0314  0.1584
  406MOL0     C53479   3.145   6.708   3.095  0.4921 -0.7249 -0.6155
  406MOL0     C53480   3.005   6.663   3.045  0.3566 -0.4242 -0.5388
  406MOL0     C53481   2.910   6.628   3.160 -0.2491  0.2063  0.3257
  406MOL0     C53482   2.774   6.559   3.108 -0.5163 -0.9446 -0.5766
  406MOL0     C53483   2.786   6.417   3.057  0.2514  0.2525  0.2101
  406MOL0     O53484   2.655   6.367   3.020  0.2191  0.4998  0.3323
  406MOL0     C53485   2.581   6.305   3.124 -1.2527 -0.0624  0.3855
  406MOL0     C53486   2.478   6.225   3.080 -0.4199 -0.7390 -0.0966
  406MOL0     C53487   2.409   6.139   3.162  0.9278  0.6237  0.5419
  406MOL0     C53488   2.424   6.132   3.302  0.0396 -0.9291  0.4734
  406MOL0     C53489   2.347   6.049   3.392 -0.2643  0.8103  1.3188
  406MOL0     O53490   2.220   6.010   3.355  0.0347  0.1761  0.8598
  406MOL0     C53491   2.131   5.997   3.452  0.5280 -1.0300 -1.6140
  406MOL0     C53492   2.098   6.101   3.540 -0.6816 -0.1734 -0.5945
  406MOL0     C53493   2.013   6.084   3.653 -0.5372 -0.3132  0.1003
  406MOL0     C53494   1.940   5.966   3.671 -0.7684 -0.6643 -0.3741
  406MOL0     O53495   1.850   5.931   3.766 -0.3101  0.6601  0.7049
  406MOL0     C53496   1.866   6.002   3.888 -0.4924  0.1771 -0.1509
  406MOL0     C53497   1.783   5.931   4.003  0.3041  0.7887  0.2029
  406MOL0     C53498   1.790   6.017   4.132  0.5655 -0.7267 -0.3772
  406MOL0     C53499   1.932   6.043   4.178  0.5108  0.3294  0.5249
  406MOL0     C53500   1.930   6.091   4.323 -0.7418  0.6368 -0.7134
  406MOL0     C53501   2.071   6.086   4.376 -0.4794 -0.5957 -0.1778
  406MOL0     C53502   2.080   6.162   4.511 -1.3456  0.6783  0.7950
  406MOL0     C53503   2.217   6.154   4.573 -1.0778  0.2468  0.5404
  406MOL0    Cl53504   2.250   6.298   4.676  0.5416 -0.2464 -0.3301
  406MOL0     C53505   1.972   5.863   3.583  0.0866  0.7618  0.3293
  406MOL0     C53506   2.063   5.875   3.472  0.2828 -0.2822  0.9062
  406MOL0     O53507   2.401   6.022   3.499  0.2804 -0.3759  0.1482
  406MOL0     C53508   2.531   6.216   3.355 -1.0125 -0.5921  0.1590
  406MOL0     C53509   2.603   6.299   3.263 -0.5480  0.6606  0.7832
  406MOL0     N53510   3.155   6.764   3.215  0.6076  0.1069 -0.5047
  406MOL0     N53511   3.273   6.800   3.241 -0.7985  0.0366  0.4082
  406MOL0     C53512   4.591   6.549   3.007  1.0355  0.4047  0.1347
  406MOL0     C53513   4.724   6.516   3.027  1.2493  0.4859 -0.9124
  406MOL0     C53514   5.143   6.433   2.805 -0.8119  0.4766 -0.0733
  406MOL0     C53515   5.211   6.381   2.923 -0.8409 -0.3814 -0.2652
  406MOL0     C53516   5.339   6.328   2.919  0.6197 -0.0930  0.3181
  406MOL0     C53517   5.411   6.335   2.795 -0.5506  0.5140  0.7862
  406MOL0     O53518   5.534   6.275   2.795 -0.1052  0.0219  0.2008
  406MOL0     C53519   5.612   6.313   2.685  0.3519  0.7039  0.5287
  406MOL0     C53520   5.746   6.248   2.703 -0.0380  1.0380  0.7747
  406MOL0     C53521   5.817   6.270   2.831 -0.5027  0.1601  0.3339
  406MOL0     C53522   5.936   6.176   2.834 -0.5314  1.3583  0.4361
  406MOL0     C53523   6.029   6.199   2.717  0.2290 -0.4564  0.2432
  406MOL0     C53524   6.095   6.214   2.614 -1.0583  0.0356 -0.4318
  406MOL0     C53525   5.344   6.392   2.683  0.8785  0.7290  0.1702
  406MOL0     C53526   5.215   6.442   2.689 -0.2343 -0.5029  1.0878
  406MOL0     H53527   4.780   6.360   2.732  2.9845  0.8916  0.4320
  406MOL0     H53528   4.542   6.427   2.693  1.2238  3.6627 -0.8769
  406MOL0     H53529   4.338   6.672   3.040  1.7565 -0.4206 -0.9801
  406MOL0     H53530   4.301   6.499   3.039  1.4350 -0.7075 -1.1996
  406MOL0     H53531   4.164   6.584   2.829  0.9997  0.5422 -0.0311
  406MOL0     H53532   4.180   6.744   2.909  0.1825  0.1168 -0.7339
  406MOL0     H53533   4.089   6.621   3.109  0.1524 -0.3336  0.6738
  406MOL0     H53534   4.014   6.499   2.994  1.9565  0.5102 -1.1208
  406MOL0     H53535   3.962   6.809   3.003  0.3160  0.2889 -0.8341
  406MOL0     H53536   3.901   6.705   2.876 -0.8654  0.2519  1.2503
  406MOL0     H53537   3.836   6.678   3.180  0.8367 -1.6137  0.6481
  406MOL0     H53538   3.790   6.577   3.049  4.3012  0.7911 -1.9808
  406MOL0     H53539   3.693   6.804   2.950 -2.1001 -2.7234 -0.3748
  406MOL0     H53540   3.733   6.885   3.107 -2.0112 -0.3112  2.1425
  406MOL0     H53541   3.548   6.648   3.099  1.4570 -0.9430 -0.3897
  406MOL0     H53542   3.590   6.743   3.236 -0.6378 -2.0565 -0.5138
  406MOL0     H53543   3.463   6.850   2.969 -0.8564 -1.0244  1.2533
  406MOL0     H53544   3.468   6.945   3.118  1.3631  0.6180  0.3547
  406MOL0     H53545   3.279   6.670   2.940  1.0056 -2.6712  0.9277
  406MOL0     H53546   3.018   6.577   2.978  2.0534 -0.5710 -0.0765
  406MOL0     H53547   2.958   6.747   2.993 -1.1906 -2.0922 -1.9906
  406MOL0     H53548   2.899   6.717   3.223  0.2643  0.0063  0.7000
  406MOL0     H53549   2.952   6.555   3.230 -2.5225 -0.8063  0.7223
  406MOL0     H53550   2.693   6.576   3.180 -0.6896  0.6465 -1.1204
  406MOL0     H53551   2.739   6.628   3.031  0.0759 -0.2646 -0.2526
  406MOL0     H53552   2.837   6.341   3.118  0.8039 -2.3727 -3.1975
  406MOL0     H53553   2.837   6.415   2.960  0.3665 -1.4445  0.2773
  406MOL0     H53554   2.449   6.232   2.976  1.8079  3.4021 -0.6386
  406MOL0     H53555   2.340   6.070   3.114  1.2580  0.5592  0.1501
  406MOL0     H53556   2.142   6.199   3.521  3.4965 -0.7324  4.1880
  406MOL0     H53557   1.994   6.168   3.719  2.2014 -1.1902  2.1865
  406MOL0     H53558   1.822   6.100   3.871 -1.9269 -0.5819 -1.0679
  406MOL0     H53559   1.969   6.006   3.923 -0.2224 -2.6616 -0.3423
  406MOL0     H53560   1.821   5.829   4.018 -2.9725 -0.5053  0.4872
  406MOL0     H53561   1.678   5.922   3.973  0.1903 -2.0256  1.1429
  406MOL0     H53562   1.724   5.967   4.203 -1.1776 -1.4288 -2.3868
  406MOL0     H53563   1.742   6.114   4.118 -1.8399 -0.9617  4.1759
  406MOL0     H53564   1.991   5.951   4.173  1.8525  1.1622  0.6471
  406MOL0     H53565   1.976   6.119   4.113 -1.2552 -0.1204 -1.3056
  406MOL0     H53566   1.862   6.027   4.380  1.0410 -0.6659  0.0543
  406MOL0     H53567   1.877   6.187   4.331 -3.4353 -0.7430 -0.7983
  406MOL0     H53568   2.141   6.135   4.307  0.8554 -1.6027  0.4155
  406MOL0     H53569   2.103   5.985   4.403  0.8676  0.5002  2.7800
  406MOL0     H53570   2.068   6.271   4.505 -0.6844  0.6952 -0.7218
  406MOL0     H53571   2.003   6.126   4.581 -2.4254 -1.1549 -1.2075
  406MOL0     H53572   2.297   6.145   4.499 -0.3357  0.9358  1.2377
  406MOL0     H53573   2.213   6.064   4.635 -2.4329 -1.3433 -1.6920
  406MOL0     H53574   1.919   5.770   3.604  1.9394 -1.1997 -2.8995
  406MOL0     H53575   2.079   5.791   3.405  0.6035  0.3026  0.2407
  406MOL0     H53576   2.571   6.220   3.456 -0.1566 -2.9423 -0.0206
  406MOL0     H53577   2.694   6.348   3.297  2.4002 -0.5551 -4.4092
  406MOL0     H53578   4.547   6.608   3.087  1.5615  0.8241  0.1210
  406MOL0     H53579   4.785   6.527   3.116 -0.4679 -1.5306  0.6099
  406MOL0     H53580   5.152   6.381   3.014  0.0826  3.5101  0.5088
  406MOL0     H53581   5.384   6.280   3.006 -0.8216 -0.2840  0.9800
  406MOL0     H53582   5.625   6.422   2.683 -1.0782  0.9064  0.9027
  406MOL0     H53583   5.567   6.272   2.594 -0.8415  0.7685  1.0655
  406MOL0     H53584   5.734   6.141   2.684  1.2504  1.2640 -1.7944
  406MOL0     H53585   5.796   6.280   2.611 -2.1781  0.7367 -0.5671
  406MOL0     H53586   5.747   6.256   2.914 -2.8166  1.8140 -1.2349
  406MOL0     H53587   5.851   6.373   2.836  3.1413 -0.8656 -0.1142
  406MOL0     H53588   5.993   6.193   2.926 -0.5687 -0.3803  0.8005
  406MOL0     H53589   5.896   6.074   2.831 -1.4225  1.7011 -1.3546
  406MOL0     H53590   6.146   6.213   2.520 -0.6462  1.8561 -0.2818
  406MOL0     H53591   5.392   6.406   2.587  3.2124  0.2790  1.2119
  406MOL0     H53592   5.185   6.489   2.596  4.3012 -2.0873 -1.4074
  407MOL0     O53593   4.466   9.568   2.583 -0.5949  0.0415 -0.5408
  407MOL0     C53594   4.484   9.562   2.709 -0.1136 -0.0953 -0.1351
  407MOL0     O53595   4.388   9.520   2.808  0.3052 -0.1043  0.4863
  407MOL0     C53596   4.263   9.515   2.770 -0.3434 -0.0006  0.1718
  407MOL0     C53597   4.211   9.617   2.688  0.5106  0.5757 -0.1977
  407MOL0     C53598   4.076   9.613   2.646  0.2252 -0.7085  1.3448
  407MOL0     C53599   3.996   9.500   2.671  0.3897  0.3786 -0.7570
  407MOL0     O53600   3.866   9.497   2.629  0.5709 -0.1590 -0.1701
  407MOL0     C53601   3.831   9.467   2.495 -0.4145  0.6706 -0.0534
  407MOL0     C53602   3.677   9.490   2.469 -1.1098 -1.2832  0.9152
  407MOL0     C53603   3.645   9.465   2.314 -0.7271  0.2582  0.1231
  407MOL0     C53604   3.493   9.470   2.293 -0.3480  0.3332  0.7736
  407MOL0     C53605   3.479   9.460   2.135  0.4674  0.1349 -0.0639
  407MOL0     C53606   3.332   9.445   2.099  0.4558 -0.5340 -0.1007
  407MOL0     C53607   3.308   9.449   1.951 -0.0653 -0.1282  0.0318
  407MOL0     C53608   3.161   9.425   1.912 -0.2621  0.0516 -0.2874
  407MOL0     N53609   3.076   9.545   1.912  0.0020  0.0478 -0.3497
  407MOL0     C53610   3.082   9.634   1.806  0.2654  0.1178 -0.1647
  407MOL0     C53611   2.995   9.733   1.838  0.0909  0.1519 -0.1299
  407MOL0     C53612   2.953   9.830   1.733  0.2241 -0.2518  0.2808
  407MOL0     C53613   2.806   9.868   1.743 -0.5383 -0.4031  0.6713
  407MOL0     C53614   2.759   9.963   1.631  0.8426  0.4350  0.2980
  407MOL0     C53615   2.613  10.008   1.655  0.0699  0.1367  0.3630
  407MOL0     O53616   2.598  10.133   1.592 -0.2381  1.1981 -0.0259
  407MOL0     C53617   2.461  10.135   1.560  1.0788  0.0344 -0.6720
  407MOL0     C53618   2.367  10.203   1.642  0.3905  0.3776 -0.4095
  407MOL0     C53619   2.234  10.210   1.595  0.8375 -1.1120  0.3458
  407MOL0     C53620   2.191  10.133   1.487  0.5544 -0.1068  0.4560
  407MOL0     C53621   2.050  10.139   1.440 -0.0450 -0.3674  0.5585
  407MOL0     O53622   2.020  10.054   1.334  0.0766 -0.1625 -0.4321
  407MOL0     C53623   1.897  10.052   1.267  0.3602  0.1377 -0.1500
  407MOL0     C53624   1.780  10.104   1.310 -0.1678  0.4079 -0.4129
  407MOL0     C53625   1.664  10.094   1.224 -0.0590 -0.7738 -0.4130
  407MOL0     C53626   1.674  10.033   1.102  1.2036 -0.4976  0.1440
  407MOL0     O53627   1.563  10.019   1.021  0.3513 -1.4592 -0.3772
  407MOL0     C53628   1.427  10.035   1.076 -0.2530  0.4717 -0.4991
  407MOL0     C53629   1.335   9.988   0.967  0.2924  0.2434 -0.3243
  407MOL0     C53630   1.192   9.987   1.013 -0.0389 -0.7388 -0.0463
  407MOL0     C53631   1.103   9.985   0.883 -0.2506 -0.1019  1.2658
  407MOL0     C53632   0.951   9.999   0.920 -0.3766 -0.0309  0.0756
  407MOL0     C53633   0.866  10.032   0.797 -0.2688  0.0031  0.0368
  407MOL0     C53634   0.714  10.049   0.825  0.1954 -0.9675 -0.5260
  407MOL0     C53635   0.631  10.079   0.698 -1.2035  0.3454  0.4699
  407MOL0    Cl53636   0.464  10.096   0.744 -0.0920 -0.1637  0.1364
  407MOL0     C53637   1.798   9.980   1.059  0.0814  0.0254  0.5162
  407MOL0     C53638   1.913  10.001   1.142  0.5819  0.2680  0.6722
  407MOL0     O53639   1.968  10.207   1.500  0.4014 -0.2322 -0.3932
  407MOL0     C53640   2.288  10.063   1.408  0.3806 -0.8104  0.4438
  407MOL0     C53641   2.426  10.068   1.444 -0.4407 -0.6506  0.7875
  407MOL0     N53642   2.943   9.711   1.964 -0.0615 -0.5302  0.9738
  407MOL0     N53643   3.003   9.603   2.014  0.3070 -0.3599  0.9485
  407MOL0     C53644   4.046   9.409   2.768  0.0713  0.6236  0.7744
  407MOL0     C53645   4.179   9.414   2.816 -0.6690 -0.2565  0.3739
  407MOL0     C53646   4.613   9.602   2.764  0.1450  0.0171 -0.5302
  407MOL0     C53647   4.714   9.643   2.676 -0.5224  0.6513 -0.4803
  407MOL0     C53648   4.837   9.688   2.726 -0.6434  0.1746 -0.7615
  407MOL0     C53649   4.856   9.701   2.863  0.2079  0.3496 -0.5382
  407MOL0     O53650   4.972   9.770   2.891 -0.2126 -0.7451 -0.0060
  407MOL0     C53651   5.014   9.790   3.025  0.6458  0.7258 -0.3022
  407MOL0     C53652   5.166   9.807   3.037 -0.7382 -0.3686  0.1217
  407MOL0     C53653   5.213   9.815   3.183  0.0700  1.1991 -0.6522
  407MOL0     C53654   5.369   9.800   3.204 -0.3133  0.0155 -0.3812
  407MOL0     C53655   5.425   9.928   3.239 -0.5298  0.0372  0.3507
  407MOL0     C53656   5.469  10.040   3.240  0.5639  0.1346 -0.1698
  407MOL0     C53657   4.754   9.647   2.952 -0.1004  0.2699  0.6284
  407MOL0     C53658   4.637   9.593   2.906  0.8762  0.1074 -0.0601
  407MOL0     H53659   4.270   9.705   2.664 -0.5280  2.2890  2.9493
  407MOL0     H53660   4.046   9.679   2.565  3.0754 -3.4765 -2.3576
  407MOL0     H53661   3.853   9.361   2.481 -0.4147  0.6479  0.1155
  407MOL0     H53662   3.895   9.532   2.434  1.3615  1.8896  2.8621
  407MOL0     H53663   3.649   9.584   2.516 -0.8688 -1.2880  1.0678
  407MOL0     H53664   3.621   9.407   2.513 -1.7242 -2.1254 -1.2883
  407MOL0     H53665   3.669   9.362   2.287  1.0435  0.0723  2.1686
  407MOL0     H53666   3.685   9.531   2.236 -0.7739  0.5536  0.3454
  407MOL0     H53667   3.437   9.396   2.350  0.8696  1.8392  4.1674
  407MOL0     H53668   3.445   9.562   2.325 -0.6823  0.5929 -0.4251
  407MOL0     H53669   3.529   9.377   2.086  0.0805  1.1753 -2.3607
  407MOL0     H53670   3.520   9.550   2.089  3.7063 -0.6550  1.0549
  407MOL0     H53671   3.273   9.530   2.135 -0.2732 -1.9949  2.4034
  407MOL0     H53672   3.289   9.352   2.138  2.8620 -1.6875 -0.0243
  407MOL0     H53673   3.356   9.536   1.905  4.4338 -2.7420 -0.9091
  407MOL0     H53674   3.352   9.356   1.912 -1.0666 -0.8746  0.6333
  407MOL0     H53675   3.112   9.345   1.968  1.3323 -0.7927 -0.0313
  407MOL0     H53676   3.165   9.375   1.815  2.6157 -1.6211  0.5420
  407MOL0     H53677   3.124   9.609   1.709 -0.4478 -1.8294 -0.0182
  407MOL0     H53678   2.966   9.790   1.632 -0.5398 -0.9212  0.4413
  407MOL0     H53679   3.012   9.922   1.742  0.7154 -0.4073 -1.1422
  407MOL0     H53680   2.790   9.917   1.839 -1.0055  0.9799 -0.0945
  407MOL0     H53681   2.744   9.777   1.747 -1.0366 -0.0529  1.0595
  407MOL0     H53682   2.827  10.047   1.617  1.5356 -0.5228 -3.6167
  407MOL0     H53683   2.760   9.911   1.534 -1.8816  0.6133  0.1060
  407MOL0     H53684   2.603  10.019   1.764  1.1704 -2.5709  0.8244
  407MOL0     H53685   2.557   9.917   1.631 -1.0577  0.6278  1.0536
  407MOL0     H53686   2.390  10.250   1.737 -2.8936 -0.1814  0.7978
  407MOL0     H53687   2.163  10.276   1.645 -0.8666 -1.8425 -1.0022
  407MOL0     H53688   1.772  10.148   1.408  2.7704  1.3866 -0.5297
  407MOL0     H53689   1.579  10.145   1.266  1.6587  0.4429  1.7938
  407MOL0     H53690   1.396  10.138   1.097  1.1062  1.2015 -1.9473
  407MOL0     H53691   1.411   9.976   1.167  1.9580  0.2907 -0.1712
  407MOL0     H53692   1.359   9.885   0.940 -0.5444 -1.0312  3.1782
  407MOL0     H53693   1.349  10.067   0.893 -0.5109  0.4828 -0.2338
  407MOL0     H53694   1.168  10.077   1.070  0.8552 -0.8451  0.5126
  407MOL0     H53695   1.175   9.898   1.075 -1.1205 -0.4312  0.1254
  407MOL0     H53696   1.135  10.063   0.814  0.4520 -0.0253  1.6611
  407MOL0     H53697   1.107   9.885   0.837 -0.5342  0.4491  0.0066
  407MOL0     H53698   0.943  10.085   0.987  2.4623 -1.6306  2.7317
  407MOL0     H53699   0.914   9.907   0.967 -1.0873  0.3708  0.3145
  407MOL0     H53700   0.891   9.963   0.716  4.9197 -0.7294  1.8602
  407MOL0     H53701   0.906  10.127   0.761 -0.5696  0.1306  0.0412
  407MOL0     H53702   0.681   9.952   0.864  1.2971 -0.9658  0.4668
  407MOL0     H53703   0.692  10.125   0.901 -2.2425 -0.2726 -1.8339
  407MOL0     H53704   0.633   9.997   0.626  2.7117 -1.0339  1.8756
  407MOL0     H53705   0.673  10.169   0.652 -1.9403  0.4603  0.0165
  407MOL0     H53706   1.803   9.928   0.964 -2.3601 -1.1213  0.9489
  407MOL0     H53707   2.009   9.967   1.103  1.1039  1.5989  0.7615
  407MOL0     H53708   2.255   9.993   1.332 -0.8328 -0.0213  0.2368
  407MOL0     H53709   2.501  10.038   1.371 -0.3829 -0.2725  0.6872
  407MOL0     H53710   3.982   9.330   2.806  1.4348 -0.5819  0.6457
  407MOL0     H53711   4.212   9.327   2.872 -1.0866 -1.6753 -1.4669
  407MOL0     H53712   4.698   9.639   2.569  3.5778 -0.4300 -1.2367
  407MOL0     H53713   4.917   9.698   2.653  0.2255 -1.1759 -0.0574
  407MOL0     H53714   4.986   9.703   3.085  0.2715 -0.6002 -2.2928
  407MOL0     H53715   4.971   9.882   3.066  5.0983  2.2216  1.6827
  407MOL0     H53716   5.207   9.721   2.983 -1.2251 -0.5045 -0.0463
  407MOL0     H53717   5.204   9.888   2.975 -1.7641 -1.7557 -2.5356
  407MOL0     H53718   5.159   9.746   3.249  1.4121  0.7956  0.0596
  407MOL0     H53719   5.172   9.908   3.223 -2.6056 -0.9674  2.1343
  407MOL0     H53720   5.402   9.726   3.278  1.1283 -0.0233 -1.0396
  407MOL0     H53721   5.420   9.760   3.116  0.4019  2.1733 -0.9953
  407MOL0     H53722   5.494  10.144   3.228  1.4662 -0.3107 -2.5427
  407MOL0     H53723   4.773   9.643   3.059  2.0865  0.3277  0.2871
  407MOL0     H53724   4.562   9.559   2.976 -0.3063  2.8670  0.1512
  408MOL0     O53725   8.061   0.422   5.918 -0.3667 -0.1090 -0.4232
  408MOL0     C53726   8.055   0.541   5.924 -0.5470  0.3529 -0.4735
  408MOL0     O53727   7.940   0.609   5.913 -0.0622 -0.0868  0.8072
  408MOL0     C53728   7.818   0.532   5.901 -0.6136  0.5151  0.2977
  408MOL0     C53729   7.708   0.559   5.989 -0.6582 -0.0956  0.1506
  408MOL0     C53730   7.585   0.495   5.982 -0.2596  0.4358  0.0447
  408MOL0     C53731   7.573   0.391   5.890  0.4301  0.3679  0.5410
  408MOL0     O53732   7.457   0.331   5.868  0.7320  0.0553 -0.6830
  408MOL0     C53733   7.365   0.314   5.984  0.0197  0.6101  0.5108
  408MOL0     C53734   7.242   0.219   5.961 -0.3922 -0.1405  0.9300
  408MOL0     C53735   7.171   0.160   6.081 -0.4762  0.3576  0.9838
  408MOL0     C53736   7.231   0.019   6.117  0.2559 -0.1722  0.2626
  408MOL0     C53737   7.145  -0.040   6.237  0.4023  1.4050 -1.1398
  408MOL0     C53738   7.184   0.004   6.384  0.7396  0.7303  0.6308
  408MOL0     C53739   7.062  -0.039   6.475 -0.5061 -0.7162  0.1335
  408MOL0     C53740   7.065  -0.181   6.523 -0.0650 -0.2420 -0.3213
  408MOL0     N53741   6.947  -0.200   6.613 -0.7919  0.5451 -0.3558
  408MOL0     C53742   6.819  -0.176   6.583  0.3369  0.7321  0.0067
  408MOL0     C53743   6.745  -0.224   6.687 -0.6585 -0.6967  0.0403
  408MOL0     C53744   6.592  -0.219   6.699  1.1729 -0.0754  1.0238
  408MOL0     C53745   6.536  -0.359   6.708  0.2235 -0.4624 -0.3383
  408MOL0     C53746   6.403  -0.377   6.624 -0.0411 -0.2187 -1.1467
  408MOL0     C53747   6.290  -0.317   6.711  0.1331 -0.3103  0.8753
  408MOL0     O53748   6.260  -0.406   6.829 -0.5542 -0.3777  0.2544
  408MOL0     C53749   6.128  -0.449   6.847 -0.5166 -0.7346 -0.0616
  408MOL0     C53750   6.095  -0.583   6.833 -0.1366  0.6072 -0.2060
  408MOL0     C53751   5.963  -0.622   6.846  0.2486 -0.1153  0.1877
  408MOL0     C53752   5.860  -0.528   6.861 -0.4368  0.1152 -0.5381
  408MOL0     C53753   5.722  -0.570   6.861  0.4202 -1.2052 -0.4896
  408MOL0     O53754   5.698  -0.703   6.848  0.2750  0.7912 -0.0410
  408MOL0     C53755   5.571  -0.750   6.826 -0.1436 -0.1314  0.1694
  408MOL0     C53756   5.533  -0.864   6.900 -0.6525 -0.1373  0.2342
  408MOL0     C53757   5.401  -0.911   6.891 -0.5670 -0.4078  0.1298
  408MOL0     C53758   5.306  -0.849   6.806 -0.6524 -0.8867  1.2765
  408MOL0     O53759   5.178  -0.894   6.819  0.3642  0.0191  0.5849
  408MOL0     C53760   5.097  -0.873   6.700 -0.1595  0.0930 -0.6835
  408MOL0     C53761   4.972  -0.955   6.704  0.8042  0.0624 -0.0842
  408MOL0     C53762   4.880  -0.913   6.585  0.0378  0.0482 -0.1409
  408MOL0     C53763   4.755  -0.993   6.616 -0.9601  0.3558  0.8962
  408MOL0     C53764   4.658  -0.969   6.495  0.0174 -0.1250  0.0929
  408MOL0     C53765   4.564  -0.854   6.504  0.0756 -0.0084 -0.6164
  408MOL0     C53766   4.464  -0.853   6.622 -0.0707  0.8115 -0.9147
  408MOL0     C53767   4.359  -0.959   6.629  0.0451  0.7773  0.6471
  408MOL0    Cl53768   4.289  -0.972   6.463 -0.2611 -0.0979 -0.2160
  408MOL0     C53769   5.343  -0.734   6.729  0.3806  0.3075  0.5671
  408MOL0     C53770   5.479  -0.689   6.734  0.0701  0.2733  0.1205
  408MOL0     O53771   5.633  -0.479   6.865  0.0462  0.5009 -0.0594
  408MOL0     C53772   5.898  -0.392   6.864 -0.5941  0.3170  0.4080
  408MOL0     C53773   6.033  -0.355   6.860  0.0539  0.2257  0.7125
  408MOL0     N53774   6.834  -0.278   6.778 -0.7606 -0.2580 -0.3703
  408MOL0     N53775   6.957  -0.256   6.737 -0.2811 -0.1611 -0.6722
  408MOL0     C53776   7.680   0.355   5.796 -0.5634 -0.6422 -0.4906
  408MOL0     C53777   7.801   0.429   5.810 -0.4499 -0.9088  0.4416
  408MOL0     C53778   8.183   0.620   5.934 -0.2823 -0.4131  0.2205
  408MOL0     C53779   8.188   0.762   5.926 -0.0428 -0.7562 -0.1381
  408MOL0     C53780   8.307   0.833   5.929 -0.1397 -0.2337 -0.2020
  408MOL0     C53781   8.429   0.766   5.937 -0.6175 -0.2891  0.0621
  408MOL0     O53782   8.552   0.823   5.939  0.0797 -0.3176  0.4839
  408MOL0     C53783   8.562   0.968   5.956  1.5084  0.4708 -0.0888
  408MOL0     C53784   8.706   0.998   6.007  0.9035 -1.0298 -0.5962
  408MOL0     C53785   8.763   0.940   6.144  1.2392  0.8975  0.9941
  408MOL0     C53786   8.680   0.997   6.263  0.1150  0.3115  0.9591
  408MOL0     C53787   8.736   1.125   6.300 -0.2453  1.1822 -0.2736
  408MOL0     C53788   8.794   1.224   6.332 -0.6540 -0.2834 -0.6637
  408MOL0     C53789   8.426   0.632   5.935 -0.3857 -0.0204 -0.6583
  408MOL0     C53790   8.312   0.556   5.939  1.3907  1.0990 -0.1783
  408MOL0     H53791   7.721   0.647   6.052  1.7585  1.0291 -1.7275
  408MOL0     H53792   7.502   0.529   6.043  1.3621  1.7901  1.6353
  408MOL0     H53793   7.334   0.416   6.012 -0.0178  0.8508 -0.3682
  408MOL0     H53794   7.413   0.264   6.068  1.0941 -1.7959 -1.4398
  408MOL0     H53795   7.267   0.135   5.895 -1.0387  0.1963  0.2417
  408MOL0     H53796   7.176   0.282   5.901  1.3917 -0.3668 -1.4280
  408MOL0     H53797   7.067   0.139   6.053 -0.6444 -0.5010  2.2245
  408MOL0     H53798   7.186   0.231   6.163 -1.3569  0.1105  1.3653
  408MOL0     H53799   7.228  -0.035   6.022 -1.4657  4.4012 -2.6759
  408MOL0     H53800   7.333   0.036   6.153  0.0994 -1.2461  1.2322
  408MOL0     H53801   7.134  -0.149   6.238  0.0119  1.3660  2.2474
  408MOL0     H53802   7.042  -0.005   6.225  0.1167  1.0797  0.1793
  408MOL0     H53803   7.184   0.114   6.387 -0.8860  0.7460  1.1125
  408MOL0     H53804   7.283  -0.035   6.411  0.3349 -0.7025  0.1079
  408MOL0     H53805   7.049   0.033   6.556  1.5623 -1.0905  0.8679
  408MOL0     H53806   6.979  -0.043   6.405  1.1735 -2.3424 -1.9383
  408MOL0     H53807   7.155  -0.202   6.582  0.0350 -1.4592 -0.8900
  408MOL0     H53808   7.056  -0.250   6.439 -2.2539 -2.0591  1.2873
  408MOL0     H53809   6.786  -0.127   6.491  2.7642  0.4206 -1.1034
  408MOL0     H53810   6.551  -0.170   6.610 -0.1279  0.3593  1.8258
  408MOL0     H53811   6.556  -0.156   6.781  1.2269 -0.4024  1.3044
  408MOL0     H53812   6.524  -0.365   6.817  0.9907 -0.6892 -0.2544
  408MOL0     H53813   6.615  -0.424   6.670  1.8373  0.7263  0.8252
  408MOL0     H53814   6.422  -0.336   6.524  4.4305 -0.8234 -0.7166
  408MOL0     H53815   6.368  -0.481   6.627 -1.7011  0.1351  4.6828
  408MOL0     H53816   6.201  -0.318   6.648 -0.6730 -0.7702  1.9792
  408MOL0     H53817   6.311  -0.211   6.726  0.3529  0.0912 -1.8671
  408MOL0     H53818   6.173  -0.659   6.830 -1.8056 -1.3029  1.6118
  408MOL0     H53819   5.926  -0.721   6.822 -0.0644  0.0308  0.0493
  408MOL0     H53820   5.609  -0.916   6.956 -0.5171 -2.3615 -1.8367
  408MOL0     H53821   5.368  -0.987   6.961  2.5025 -0.4467  1.7013
  408MOL0     H53822   5.158  -0.892   6.611 -0.5759 -0.7113 -0.8156
  408MOL0     H53823   5.057  -0.771   6.699 -1.6805 -0.3153  2.7003
  408MOL0     H53824   4.916  -0.956   6.798 -1.0388 -0.5749 -1.1318
  408MOL0     H53825   5.000  -1.061   6.695  1.3215  0.1303  0.6312
  408MOL0     H53826   4.932  -0.931   6.490  1.3719  2.2750  0.0945
  408MOL0     H53827   4.855  -0.807   6.583 -2.6476 -0.4524  1.7552
  408MOL0     H53828   4.780  -1.099   6.627 -1.3085  0.0586 -0.7825
  408MOL0     H53829   4.715  -0.974   6.716 -4.5090 -3.8174  0.5794
  408MOL0     H53830   4.591  -1.055   6.485  1.7096 -1.3222 -1.5715
  408MOL0     H53831   4.722  -0.954   6.408 -0.6127 -2.2536 -0.7808
  408MOL0     H53832   4.518  -0.831   6.408  1.1980 -0.6534 -1.3436
  408MOL0     H53833   4.625  -0.768   6.532 -0.8663  1.4293 -2.8109
  408MOL0     H53834   4.526  -0.855   6.713 -3.7979  0.6651  1.8732
  408MOL0     H53835   4.426  -0.750   6.621 -2.2414  0.1335  1.1917
  408MOL0     H53836   4.284  -0.934   6.705 -0.9434  0.0932 -0.0743
  408MOL0     H53837   4.397  -1.058   6.655  1.2474  1.2306  0.6728
  408MOL0     H53838   5.265  -0.672   6.685 -1.1686  0.8478  3.7991
  408MOL0     H53839   5.502  -0.603   6.671 -0.2606  1.6330  1.7703
  408MOL0     H53840   5.825  -0.314   6.880  1.3595  2.0040  1.5931
  408MOL0     H53841   6.053  -0.249   6.857 -1.3137  0.4786 -0.2438
  408MOL0     H53842   7.670   0.275   5.723 -1.3340 -1.9670  1.0097
  408MOL0     H53843   7.887   0.416   5.746 -1.4114  1.9710 -1.6632
  408MOL0     H53844   8.091   0.810   5.921 -0.9347 -2.5880 -3.3606
  408MOL0     H53845   8.296   0.941   5.923 -3.3621 -0.2930  2.2708
  408MOL0     H53846   8.495   1.010   6.031  0.5625  0.2834 -0.8167
  408MOL0     H53847   8.533   1.015   5.862  2.7169  0.7022 -0.3668
  408MOL0     H53848   8.769   0.971   5.922  0.9545  1.9400 -1.5799
  408MOL0     H53849   8.704   1.106   6.018  1.4437 -0.9313 -1.4172
  408MOL0     H53850   8.869   0.964   6.157  0.8567  1.7078  2.9805
  408MOL0     H53851   8.749   0.832   6.137 -0.5000  1.1815 -1.7878
  408MOL0     H53852   8.571   1.002   6.248  0.3293  1.0011 -0.5287
  408MOL0     H53853   8.685   0.927   6.347  0.4842 -0.7315  0.0874
  408MOL0     H53854   8.851   1.310   6.363  0.6334 -1.5043  0.5082
  408MOL0     H53855   8.515   0.573   5.920 -1.0245 -1.1688 -0.0157
  408MOL0     H53856   8.313   0.448   5.931 -2.4926  0.9831 -1.2107
  409MOL0     O53857   5.529   1.383   7.678 -0.1310 -0.1768  0.1568
  409MOL0     C53858   5.599   1.302   7.736  0.7655 -0.6684  0.1056
  409MOL0     O53859   5.552   1.195   7.807 -0.8851 -0.1762 -0.3157
  409MOL0     C53860   5.418   1.163   7.810 -0.3430 -0.5981 -0.2700
  409MOL0     C53861   5.328   1.179   7.700  0.2627  0.2593 -0.4076
  409MOL0     C53862   5.197   1.129   7.714  0.5704  0.4329  0.4274
  409MOL0     C53863   5.143   1.083   7.827 -0.7664  0.0523 -0.1524
  409MOL0     O53864   5.013   1.039   7.822  0.0791 -0.0148 -0.3998
  409MOL0     C53865   4.965   0.963   7.934 -0.2828  0.2244 -0.0108
  409MOL0     C53866   4.821   0.908   7.898  1.0092  0.4160  0.5166
  409MOL0     C53867   4.752   0.824   8.013 -0.3802 -0.3078 -0.0361
  409MOL0     C53868   4.626   0.744   7.981  1.0033  0.1552 -0.7381
  409MOL0     C53869   4.570   0.680   8.112 -0.1757 -0.1279 -0.0197
  409MOL0     C53870   4.443   0.596   8.078 -0.2757 -0.1663 -0.2471
  409MOL0     C53871   4.431   0.472   8.180 -0.4516 -0.7723  0.1044
  409MOL0     C53872   4.333   0.363   8.120 -0.8764 -0.2269 -0.3408
  409MOL0     N53873   4.195   0.383   8.162 -0.0284  0.2599 -0.5702
  409MOL0     C53874   4.119   0.482   8.115  0.1574 -0.6947 -0.9822
  409MOL0     C53875   3.999   0.471   8.178 -0.5542 -0.0686 -0.0695
  409MOL0     C53876   3.872   0.559   8.177 -0.2736  0.7845 -0.5543
  409MOL0     C53877   3.734   0.487   8.140  0.4743  0.5664 -0.2029
  409MOL0     C53878   3.735   0.418   7.998 -0.0244 -0.4679 -0.2563
  409MOL0     C53879   3.601   0.363   7.959 -0.3417 -0.0317 -0.0061
  409MOL0     O53880   3.503   0.464   7.983  1.0400 -0.3666 -0.0841
  409MOL0     C53881   3.372   0.437   7.965  0.6882 -0.0084 -1.1597
  409MOL0     C53882   3.322   0.325   7.885 -0.2836 -0.1062 -0.2036
  409MOL0     C53883   3.185   0.317   7.863  0.3617 -0.2369 -0.1567
  409MOL0     C53884   3.094   0.424   7.912 -1.1551 -0.0222 -0.1307
  409MOL0     C53885   2.961   0.428   7.877 -0.6227 -0.2005  0.7929
  409MOL0     O53886   2.896   0.311   7.847 -0.1433  0.4288  0.2322
  409MOL0     C53887   2.773   0.329   7.781  0.5354 -1.3792  0.4012
  409MOL0     C53888   2.770   0.285   7.640  0.3924 -0.0169 -1.3843
  409MOL0     C53889   2.657   0.304   7.565  0.0796  0.6236 -0.4553
  409MOL0     C53890   2.540   0.352   7.628 -0.8766  0.3263  0.7794
  409MOL0     O53891   2.415   0.355   7.572  0.5370 -0.1290  0.4271
  409MOL0     C53892   2.403   0.381   7.431  0.6150 -0.2172 -0.9587
  409MOL0     C53893   2.280   0.474   7.408 -0.6362 -0.0772 -1.0076
  409MOL0     C53894   2.141   0.398   7.404 -0.2045  0.3174 -0.5068
  409MOL0     C53895   2.124   0.287   7.517  0.3648  0.3276 -0.0518
  409MOL0     C53896   2.112   0.345   7.658  0.2733  0.2840  0.0173
  409MOL0     C53897   2.107   0.230   7.764 -0.1808  0.0476 -0.0793
  409MOL0     C53898   2.064   0.274   7.903 -0.6798  0.8657  0.3201
  409MOL0     C53899   2.166   0.368   7.968  0.9903  0.2541  0.2916
  409MOL0    Cl53900   2.330   0.293   7.997 -0.0511  0.0318 -0.0717
  409MOL0     C53901   2.547   0.386   7.761 -0.6919  0.3794  0.0223
  409MOL0     C53902   2.659   0.381   7.842  0.3636  0.0957  0.2361
  409MOL0     O53903   2.914   0.539   7.869 -0.6846  0.2657  0.5006
  409MOL0     C53904   3.147   0.518   7.998  0.3901  0.1876  0.4993
  409MOL0     C53905   3.281   0.533   8.021 -0.4459 -0.5419  0.9658
  409MOL0     N53906   4.013   0.361   8.266  0.6561 -0.0843 -0.8161
  409MOL0     N53907   4.132   0.313   8.260 -0.1491 -0.3801  0.4239
  409MOL0     C53908   5.228   1.062   7.937  0.0203 -0.0815  0.2973
  409MOL0     C53909   5.357   1.112   7.929 -0.8369  0.8344 -0.1598
  409MOL0     C53910   5.739   1.323   7.740 -0.5628  0.7251  0.6483
  409MOL0     C53911   5.824   1.227   7.808  0.5364 -0.0983  0.1059
  409MOL0     C53912   5.960   1.258   7.824 -0.3865 -0.8010 -0.3325
  409MOL0     C53913   6.021   1.366   7.763 -0.5246 -0.2354  0.0734
  409MOL0     O53914   6.150   1.401   7.769  0.4856  0.6213  0.5393
  409MOL0     C53915   6.234   1.384   7.889  0.4558  0.6522 -0.0146
  409MOL0     C53916   6.360   1.456   7.869  0.6517  0.0420 -0.2759
  409MOL0     C53917   6.462   1.374   7.790  0.5097 -0.3516  1.0370
  409MOL0     C53918   6.429   1.327   7.648  0.6919 -0.0606 -0.2362
  409MOL0     C53919   6.546   1.296   7.567 -0.5636  0.6546 -0.1913
  409MOL0     C53920   6.658   1.291   7.512 -0.8652 -0.2739 -0.3146
  409MOL0     C53921   5.938   1.457   7.691  0.0220 -0.2723  0.1731
  409MOL0     C53922   5.799   1.433   7.680  0.7945 -0.3898  0.0519
  409MOL0     H53923   5.353   1.213   7.600 -1.9026  1.0415 -0.7580
  409MOL0     H53924   5.136   1.125   7.624 -0.1831  1.7750  0.8593
  409MOL0     H53925   4.961   1.033   8.018  0.8920  1.3999 -0.8992
  409MOL0     H53926   5.032   0.880   7.954  0.6986  1.4205  1.8970
  409MOL0     H53927   4.827   0.837   7.815  0.3697  0.9632 -0.0193
  409MOL0     H53928   4.748   0.987   7.878 -0.8219 -0.9278  1.6372
  409MOL0     H53929   4.731   0.886   8.101 -0.9511 -0.0093 -0.3752
  409MOL0     H53930   4.825   0.752   8.053 -0.6601  0.1899  1.4420
  409MOL0     H53931   4.558   0.816   7.934 -1.5028 -1.4567  0.2009
  409MOL0     H53932   4.639   0.662   7.910 -3.8303  1.4296 -3.5221
  409MOL0     H53933   4.552   0.754   8.191 -2.0487  0.0183 -0.5473
  409MOL0     H53934   4.645   0.610   8.151 -1.8508 -2.1240 -0.2417
  409MOL0     H53935   4.448   0.556   7.976  1.1600  1.8589 -1.0402
  409MOL0     H53936   4.354   0.657   8.096  0.1443 -0.2275  2.5055
  409MOL0     H53937   4.531   0.429   8.192 -0.4745 -0.2633  2.8411
  409MOL0     H53938   4.398   0.503   8.279  1.8007 -0.1858  0.7287
  409MOL0     H53939   4.353   0.264   8.161 -2.9896 -0.9877 -0.9866
  409MOL0     H53940   4.341   0.348   8.012  0.2745 -0.7912 -0.1941
  409MOL0     H53941   4.144   0.562   8.046  1.9476 -1.8486 -1.7174
  409MOL0     H53942   3.879   0.648   8.114 -2.2276  0.4130 -1.3739
  409MOL0     H53943   3.858   0.584   8.282 -3.1680  1.6594 -1.0551
  409MOL0     H53944   3.661   0.568   8.148  1.2293  1.0826  2.1517
  409MOL0     H53945   3.702   0.415   8.215  2.4056 -0.2551 -0.1093
  409MOL0     H53946   3.759   0.499   7.929 -0.2077 -1.9503 -2.1244
  409MOL0     H53947   3.807   0.338   7.981 -0.7562 -0.6427 -2.9030
  409MOL0     H53948   3.577   0.271   8.013 -0.3051  0.0263  0.1076
  409MOL0     H53949   3.615   0.345   7.852  1.6592  0.0219  0.2088
  409MOL0     H53950   3.391   0.251   7.845 -1.7317 -1.3463 -0.4732
  409MOL0     H53951   3.143   0.222   7.831  0.2913 -0.7422  1.3605
  409MOL0     H53952   2.855   0.239   7.590  1.7826  3.2485 -2.2845
  409MOL0     H53953   2.657   0.282   7.458  1.1353  2.0467 -0.7725
  409MOL0     H53954   2.400   0.293   7.366 -1.7838 -0.6239 -0.4151
  409MOL0     H53955   2.491   0.444   7.415  1.0523  0.0098  1.7905
  409MOL0     H53956   2.295   0.535   7.319 -0.3865 -0.5679 -1.3065
  409MOL0     H53957   2.286   0.544   7.493 -0.1624 -0.3636 -0.8006
  409MOL0     H53958   2.134   0.345   7.309 -1.0714  0.6795 -0.6584
  409MOL0     H53959   2.059   0.470   7.406  0.2974  0.9041  1.8065
  409MOL0     H53960   2.037   0.224   7.495  1.7421 -2.5349  1.9627
  409MOL0     H53961   2.207   0.216   7.515  1.6872  1.8197  0.5093
  409MOL0     H53962   2.023   0.407   7.676  1.2819  1.6804  0.3552
  409MOL0     H53963   2.191   0.419   7.672  0.0177  0.6991 -0.6525
  409MOL0     H53964   2.209   0.191   7.769  0.2023  1.0444  0.2271
  409MOL0     H53965   2.039   0.154   7.723 -2.1761  1.7108 -0.0341
  409MOL0     H53966   1.964   0.318   7.907 -0.7068  0.7812  0.5924
  409MOL0     H53967   2.044   0.188   7.967 -2.5852  0.4812 -0.7289
  409MOL0     H53968   2.109   0.403   8.055 -0.4584 -3.4190  1.0136
  409MOL0     H53969   2.183   0.446   7.893  0.7703  0.4296  0.4241
  409MOL0     H53970   2.452   0.416   7.803 -0.0750  0.6470  1.2578
  409MOL0     H53971   2.649   0.419   7.943  0.7189  1.3743 -0.1848
  409MOL0     H53972   3.081   0.587   8.048 -1.5619 -1.1501 -0.1312
  409MOL0     H53973   3.316   0.623   8.070  0.1078  0.1490 -0.6222
  409MOL0     H53974   5.198   1.024   8.034  0.6011  0.7588  0.8189
  409MOL0     H53975   5.430   1.102   8.009 -1.1836 -0.1855  0.0446
  409MOL0     H53976   5.799   1.128   7.844  1.4344 -0.1509  0.6204
  409MOL0     H53977   6.026   1.201   7.889  1.7460  1.3550 -0.4723
  409MOL0     H53978   6.243   1.278   7.917 -0.6998  0.5291 -0.0466
  409MOL0     H53979   6.183   1.432   7.973 -0.6747 -0.0844 -0.2401
  409MOL0     H53980   6.331   1.547   7.815 -3.5185  0.6539  2.4661
  409MOL0     H53981   6.397   1.480   7.970 -0.1846 -8.7453  2.9846
  409MOL0     H53982   6.493   1.286   7.848  1.5924 -1.0973 -0.5784
  409MOL0     H53983   6.538   1.451   7.778 -1.5604  1.5824 -0.6216
  409MOL0     H53984   6.352   1.251   7.658 -1.4053  1.6849 -2.0905
  409MOL0     H53985   6.385   1.411   7.593  4.4919  0.8692 -2.2111
  409MOL0     H53986   6.750   1.296   7.456 -1.1467 -0.3538 -0.7909
  409MOL0     H53987   5.990   1.544   7.651  0.9226 -1.6164 -1.7417
  409MOL0     H53988   5.733   1.497   7.622  0.2971 -0.0764  0.9464
  410MOL0     O53989   0.519   8.499   3.795 -0.2471  0.2820 -0.2766
  410MOL0     C53990   0.518   8.625   3.788  0.1903 -0.5610  0.5911
  410MOL0     O53991   0.402   8.694   3.756 -0.4472 -0.0439 -0.0951
  410MOL0     C53992   0.287   8.616   3.735 -0.2999 -0.2273  0.3415
  410MOL0     C53993   0.227   8.527   3.827  0.7134 -0.0739 -0.5035
  410MOL0     C53994   0.104   8.467   3.801 -0.5544 -0.6507 -0.9761
  410MOL0     C53995   0.032   8.495   3.687 -0.7400  0.2948 -0.0452
  410MOL0     O53996  -0.099   8.441   3.691 -0.1603  0.0565 -0.1477
  410MOL0     C53997  -0.186   8.488   3.583 -0.7291  0.2135 -0.8976
  410MOL0     C53998  -0.330   8.446   3.614  0.5274  0.0577  0.3886
  410MOL0     C53999  -0.422   8.515   3.512 -0.7635  0.9478 -0.5159
  410MOL0     C54000  -0.566   8.506   3.541  0.4024 -0.0308 -0.1171
  410MOL0     C54001  -0.635   8.361   3.564 -0.3498 -0.9939 -0.2903
  410MOL0     C54002  -0.789   8.393   3.574 -0.4440  0.1224  1.1839
  410MOL0     C54003  -0.835   8.386   3.422  0.1682 -0.3924  0.2868
  410MOL0     C54004  -0.913   8.261   3.374  0.1768 -0.2496  0.3544
  410MOL0     N54005  -0.835   8.141   3.408 -0.1250  0.6765 -0.1202
  410MOL0     C54006  -0.743   8.080   3.328 -0.2977 -0.4196 -0.5028
  410MOL0     C54007  -0.720   7.958   3.380 -0.0372  0.3688  0.0564
  410MOL0     C54008  -0.623   7.853   3.340 -0.8033 -0.4130  0.4685
  410MOL0     C54009  -0.493   7.905   3.278  0.3205 -0.2130  0.2606
  410MOL0     C54010  -0.422   7.978   3.394 -0.9666 -0.1351  0.1121
  410MOL0     C54011  -0.288   8.027   3.341 -0.2650  0.4109  0.2262
  410MOL0     O54012  -0.220   8.115   3.438  0.5191 -0.3614 -0.8655
  410MOL0     C54013  -0.080   8.137   3.414 -0.0242  0.5072  0.0123
  410MOL0     C54014   0.003   8.201   3.505  0.1703  0.3117  0.2305
  410MOL0     C54015   0.144   8.215   3.480 -0.3893 -0.3972 -0.1323
  410MOL0     C54016   0.201   8.181   3.356 -0.3765  0.3001 -0.2188
  410MOL0     C54017   0.351   8.199   3.333 -0.3706  0.6010  0.7649
  410MOL0     O54018   0.433   8.196   3.442  0.1854  0.6250  0.4138
  410MOL0     C54019   0.561   8.243   3.440  0.3115 -0.2579  0.3833
  410MOL0     C54020   0.577   8.381   3.452  0.2256 -0.1924 -0.1458
  410MOL0     C54021   0.699   8.436   3.475  0.1455 -0.5362  0.1468
  410MOL0     C54022   0.819   8.356   3.473  0.2006  0.6667  0.1061
  410MOL0     O54023   0.946   8.398   3.497 -1.1812 -0.4025  0.2968
  410MOL0     C54024   0.977   8.538   3.519 -0.0690 -0.0899 -0.7001
  410MOL0     C54025   1.130   8.544   3.529  0.5991 -0.2346  0.2063
  410MOL0     C54026   1.174   8.655   3.617 -0.6810  0.0365  0.4528
  410MOL0     C54027   1.328   8.659   3.611  0.0893 -0.6526  0.3554
  410MOL0     C54028   1.392   8.753   3.720  0.5662  0.6099 -0.0461
  410MOL0     C54029   1.533   8.794   3.679  0.6517 -0.2269 -0.2615
  410MOL0     C54030   1.598   8.895   3.766  0.2629 -0.2391 -0.8090
  410MOL0     C54031   1.732   8.950   3.710  0.3359 -0.4041  1.0657
  410MOL0    Cl54032   1.701   9.006   3.541  0.0034  0.2741  0.0366
  410MOL0     C54033   0.801   8.217   3.440  1.1496 -0.9207 -0.9738
  410MOL0     C54034   0.670   8.166   3.428 -0.4356 -0.1982 -0.1065
  410MOL0     O54035   0.385   8.234   3.221  0.8690 -0.7389  0.4096
  410MOL0     C54036   0.117   8.123   3.264  0.3596  0.5799  0.1736
  410MOL0     C54037  -0.024   8.110   3.285 -0.2385  0.4412 -0.1217
  410MOL0     N54038  -0.800   7.940   3.490  0.1670  0.3150  0.8194
  410MOL0     N54039  -0.865   8.051   3.507 -0.3597  0.4080  0.3459
  410MOL0     C54040   0.092   8.580   3.593 -0.1822  0.5668 -0.4488
  410MOL0     C54041   0.217   8.643   3.617 -0.3050  0.1640  0.6283
  410MOL0     C54042   0.642   8.705   3.790  0.3262  0.1686  0.7209
  410MOL0     C54043   0.640   8.842   3.769 -0.5542  0.8127  0.3023
  410MOL0     C54044   0.747   8.923   3.799  0.2200 -0.3670  0.5627
  410MOL0     C54045   0.863   8.870   3.857  0.3192 -0.2753  0.1951
  410MOL0     O54046   0.967   8.962   3.875  0.0600  0.5769  0.4255
  410MOL0     C54047   1.079   8.922   3.965 -0.0084 -0.4935  0.6395
  410MOL0     C54048   1.204   9.003   3.947  0.4007 -0.1035 -0.1278
  410MOL0     C54049   1.181   9.135   4.016 -0.7808 -0.5616 -0.6302
  410MOL0     C54050   1.299   9.215   3.979 -0.0656  0.6377 -0.0712
  410MOL0     C54051   1.292   9.339   4.045 -0.9712 -1.1385 -0.3363
  410MOL0     C54052   1.302   9.447   4.099 -0.6828 -0.1251 -0.7181
  410MOL0     C54053   0.867   8.730   3.879 -0.1812 -0.0633  0.0796
  410MOL0     C54054   0.761   8.647   3.841 -0.1808  0.5537 -1.0266
  410MOL0     H54055   0.284   8.502   3.915  1.9525  2.5232 -0.4755
  410MOL0     H54056   0.054   8.408   3.877  1.2435 -0.2000  0.6339
  410MOL0     H54057  -0.159   8.436   3.490 -1.6201 -1.4630 -0.2446
  410MOL0     H54058  -0.181   8.597   3.572  0.7978  0.1742 -0.8900
  410MOL0     H54059  -0.354   8.479   3.715  0.9762 -0.0707  0.5385
  410MOL0     H54060  -0.341   8.337   3.608  0.5336 -0.1395  3.0768
  410MOL0     H54061  -0.404   8.479   3.410 -0.7349  0.4558 -0.3434
  410MOL0     H54062  -0.401   8.621   3.523  1.8611  0.2388  3.0943
  410MOL0     H54063  -0.585   8.567   3.630 -1.0042  1.2645 -1.2545
  410MOL0     H54064  -0.629   8.544   3.460 -1.6429 -4.4738 -0.9001
  410MOL0     H54065  -0.605   8.318   3.660 -1.8464 -2.5249 -0.4708
  410MOL0     H54066  -0.600   8.292   3.488 -0.8838 -2.1783  0.5022
  410MOL0     H54067  -0.812   8.489   3.622  1.9570  0.7369  1.2613
  410MOL0     H54068  -0.833   8.312   3.632  2.0119 -2.0701  0.1939
  410MOL0     H54069  -0.903   8.471   3.410 -1.4987 -1.8082 -0.4913
  410MOL0     H54070  -0.752   8.391   3.351 -0.8649 -0.3111 -0.9370
  410MOL0     H54071  -0.938   8.266   3.267  2.6170 -1.3761 -0.3453
  410MOL0     H54072  -1.005   8.252   3.433 -0.7158  0.0947 -0.9328
  410MOL0     H54073  -0.685   8.113   3.243 -1.6039 -1.7630 -1.9941
  410MOL0     H54074  -0.681   7.799   3.264  0.8274  0.9088 -1.8148
  410MOL0     H54075  -0.597   7.786   3.423  0.3980  0.4797  0.8325
  410MOL0     H54076  -0.524   7.975   3.201 -1.6080 -1.6455 -0.3196
  410MOL0     H54077  -0.435   7.825   3.232  0.9414  0.0212  0.6195
  410MOL0     H54078  -0.485   8.060   3.428  1.0119  1.2371  0.6579
  410MOL0     H54079  -0.395   7.913   3.477  1.7704  0.8249  0.0804
  410MOL0     H54080  -0.305   8.086   3.251 -0.7641  0.3685  0.2906
  410MOL0     H54081  -0.224   7.944   3.309  1.2087  1.0755  1.2963
  410MOL0     H54082  -0.049   8.226   3.597 -1.1792 -1.3269 -0.0362
  410MOL0     H54083   0.204   8.262   3.556 -1.4463  1.0666 -0.1715
  410MOL0     H54084   0.490   8.442   3.431  0.3588  0.2647  0.5786
  410MOL0     H54085   0.721   8.540   3.498  2.1276 -1.2784  1.9480
  410MOL0     H54086   0.941   8.570   3.617 -0.1963  0.2518 -0.8575
  410MOL0     H54087   0.943   8.606   3.440  0.1742 -1.1036 -1.6954
  410MOL0     H54088   1.160   8.556   3.424 -0.2176  1.5013  0.1387
  410MOL0     H54089   1.164   8.450   3.573 -2.2768 -1.3271  0.3391
  410MOL0     H54090   1.140   8.639   3.720  1.2654 -0.1039  1.1208
  410MOL0     H54091   1.134   8.750   3.580  0.1042 -0.0051 -0.5588
  410MOL0     H54092   1.369   8.558   3.625 -1.5161 -1.4732 -0.6106
  410MOL0     H54093   1.361   8.701   3.515  0.9259 -1.4456  0.2841
  410MOL0     H54094   1.398   8.707   3.819  2.9114 -1.3506 -0.9851
  410MOL0     H54095   1.327   8.841   3.719  0.0160  0.2346 -1.9675
  410MOL0     H54096   1.522   8.840   3.581  5.6175 -0.2905 -1.1013
  410MOL0     H54097   1.598   8.707   3.670 -0.6362 -1.1628 -0.9028
  410MOL0     H54098   1.525   8.974   3.783 -0.2315 -0.1875 -2.8250
  410MOL0     H54099   1.622   8.859   3.866  1.6928  1.8046 -0.3651
  410MOL0     H54100   1.796   8.861   3.708 -1.4599 -1.7615  1.4848
  410MOL0     H54101   1.776   9.029   3.771  1.1608  0.0275 -0.0550
  410MOL0     H54102   0.883   8.153   3.408 -1.0102 -3.0239 -2.6412
  410MOL0     H54103   0.651   8.061   3.409 -2.0355 -0.0907  0.6491
  410MOL0     H54104   0.155   8.085   3.170 -0.8775  0.7231 -0.4098
  410MOL0     H54105  -0.073   8.060   3.202  0.5823 -0.7894  0.1130
  410MOL0     H54106   0.032   8.637   3.523 -1.2384 -0.7619 -0.6689
  410MOL0     H54107   0.252   8.718   3.548 -3.2027 -1.9241 -3.5667
  410MOL0     H54108   0.562   8.899   3.720  0.3118 -0.7115 -3.1514
  410MOL0     H54109   0.751   9.028   3.770 -1.3692 -0.3857  0.1938
  410MOL0     H54110   1.111   8.819   3.947 -0.1150 -0.7920  2.0294
  410MOL0     H54111   1.027   8.933   4.061 -3.8151 -0.6237 -1.2194
  410MOL0     H54112   1.287   8.945   3.989  1.1624 -1.1747 -2.8979
  410MOL0     H54113   1.225   9.002   3.840 -3.0699 -0.6457 -0.9232
  410MOL0     H54114   1.152   9.136   4.122 -1.2648  0.0570 -0.7579
  410MOL0     H54115   1.104   9.198   3.970  0.8890  1.1032 -1.2627
  410MOL0     H54116   1.395   9.165   3.998  0.3946  0.5627 -2.3596
  410MOL0     H54117   1.295   9.219   3.870  2.5441 -3.2098 -0.5433
  410MOL0     H54118   1.302   9.541   4.150  1.7525  0.3470 -1.4300
  410MOL0     H54119   0.954   8.675   3.914 -1.0737 -0.1062  2.4180
  410MOL0     H54120   0.759   8.545   3.876 -0.0202  1.0366  0.4328
  411MOL0     O54121  10.791   2.018   5.988 -0.0513 -0.2158 -0.5667
  411MOL0     C54122  10.853   2.043   5.882  0.0145  0.6686  0.0128
  411MOL0     O54123  10.816   2.135   5.792 -0.6613  0.9575  0.1613
  411MOL0     C54124  10.712   2.219   5.815 -1.0133 -0.4782 -0.7955
  411MOL0     C54125  10.705   2.317   5.915 -0.4672 -0.2131  0.1030
  411MOL0     C54126  10.599   2.410   5.925 -0.1707 -0.2624 -0.7093
  411MOL0     C54127  10.501   2.408   5.831  0.2681  0.0867 -1.0224
  411MOL0     O54128  10.406   2.502   5.854 -0.3566  0.2460 -0.7197
  411MOL0     C54129  10.283   2.487   5.799  0.5126  0.3413  0.3952
  411MOL0     C54130  10.199   2.604   5.857  0.1803  0.3033 -0.1570
  411MOL0     C54131  10.213   2.736   5.775 -0.3917 -0.6128  0.4135
  411MOL0     C54132  10.221   2.872   5.851 -0.1403 -0.7295 -0.2410
  411MOL0     C54133  10.098   2.916   5.938 -0.2568 -0.4835  0.4234
  411MOL0     C54134   9.985   2.945   5.849  0.0545 -0.5980  0.0145
  411MOL0     C54135   9.851   2.981   5.926 -0.6556  0.4179 -0.1051
  411MOL0     C54136   9.873   3.092   6.030 -0.7396 -0.2613  0.3521
  411MOL0     N54137   9.743   3.145   6.072  0.2410  0.6368  0.6224
  411MOL0     C54138   9.654   3.079   6.152  0.0965 -0.1736  0.4891
  411MOL0     C54139   9.566   3.175   6.191  0.3579  0.1203 -0.0774
  411MOL0     C54140   9.447   3.174   6.288  0.4266  0.0535 -0.0266
  411MOL0     C54141   9.490   3.244   6.412 -0.1512 -0.2888  0.0603
  411MOL0     C54142   9.382   3.242   6.523  0.7452  0.0292 -0.0781
  411MOL0     C54143   9.433   3.294   6.653 -0.5503  0.8002  0.6968
  411MOL0     O54144   9.324   3.319   6.739 -0.3471 -0.2101  0.4606
  411MOL0     C54145   9.374   3.338   6.863  0.1522  0.4166 -0.5222
  411MOL0     C54146   9.336   3.233   6.952 -0.0212 -0.4390 -0.4781
  411MOL0     C54147   9.358   3.246   7.088  0.5993 -0.6515  1.1943
  411MOL0     C54148   9.430   3.353   7.141 -0.4684  0.2862  0.5076
  411MOL0     C54149   9.471   3.352   7.288 -0.5850  0.0101  0.4110
  411MOL0     O54150   9.506   3.474   7.340  0.1216  0.6802 -0.2344
  411MOL0     C54151   9.567   3.481   7.468  0.4501 -0.7150  0.3480
  411MOL0     C54152   9.561   3.609   7.520 -0.0402  0.9053 -0.2643
  411MOL0     C54153   9.650   3.646   7.618 -0.0725  0.8367 -0.5113
  411MOL0     C54154   9.748   3.550   7.671  0.3184  0.6548 -0.0229
  411MOL0     O54155   9.847   3.565   7.761  0.2262 -0.4847 -0.3740
  411MOL0     C54156   9.863   3.703   7.810 -0.1687  0.1895  0.2826
  411MOL0     C54157   9.993   3.701   7.885  0.8079 -0.2306  0.1384
  411MOL0     C54158   9.975   3.650   8.035  0.1726  0.2650 -0.1857
  411MOL0     C54159  10.113   3.633   8.112 -0.2106 -0.1979  0.2713
  411MOL0     C54160  10.082   3.580   8.254 -1.1742  0.0033 -0.7425
  411MOL0     C54161  10.213   3.534   8.326 -0.5700 -0.1132 -0.0788
  411MOL0     C54162  10.195   3.500   8.479 -0.3424  0.0410  0.7711
  411MOL0     C54163  10.225   3.628   8.554 -0.1350 -0.6998  0.5099
  411MOL0    Cl54164  10.143   3.629   8.716  0.1565  0.2216 -0.5872
  411MOL0     C54165   9.748   3.419   7.614  0.3417 -0.0326 -0.3410
  411MOL0     C54166   9.661   3.384   7.511 -0.3421  0.4354 -0.3221
  411MOL0     O54167   9.438   3.252   7.354  0.1483  0.5925 -0.3546
  411MOL0     C54168   9.479   3.446   7.050  0.2419 -0.9669  0.1974
  411MOL0     C54169   9.450   3.447   6.916 -0.2579 -0.6098  0.2161
  411MOL0     N54170   9.595   3.293   6.132  1.1995 -0.1991 -0.5097
  411MOL0     N54171   9.693   3.277   6.057 -0.2695 -0.9751  0.1999
  411MOL0     C54172  10.510   2.322   5.729  0.1541  0.1509 -0.5065
  411MOL0     C54173  10.608   2.227   5.724 -1.0391  0.3918  0.2126
  411MOL0     C54174  10.974   1.961   5.838 -0.0826  1.1331  0.2304
  411MOL0     C54175  11.045   1.896   5.938 -0.8886 -0.1459  0.5988
  411MOL0     C54176  11.157   1.814   5.909  0.9721 -0.4310 -0.7189
  411MOL0     C54177  11.202   1.814   5.778  0.5425  0.0971  0.3970
  411MOL0     O54178  11.309   1.737   5.734  0.1112  0.3838  0.4430
  411MOL0     C54179  11.362   1.634   5.827  0.6210 -0.5031  0.0117
  411MOL0     C54180  11.483   1.688   5.906  0.0966 -0.0759 -0.1236
  411MOL0     C54181  11.562   1.576   5.979  0.2366 -0.0459 -0.0001
  411MOL0     C54182  11.507   1.542   6.123  0.6676  0.1900  0.0458
  411MOL0     C54183  11.381   1.467   6.111 -0.0419 -0.0348 -0.0238
  411MOL0     C54184  11.275   1.415   6.101  0.0999  0.1441  1.0730
  411MOL0     C54185  11.134   1.875   5.672 -0.1490 -0.3822  1.1783
  411MOL0     C54186  11.016   1.951   5.706 -0.6893  0.1181  0.8873
  411MOL0     H54187  10.795   2.323   5.977 -0.9577 -1.5725  1.0103
  411MOL0     H54188  10.585   2.490   5.997 -2.1386 -0.6541 -0.6102
  411MOL0     H54189  10.240   2.392   5.833  2.0675 -0.5460 -0.0460
  411MOL0     H54190  10.281   2.493   5.690 -0.3999  0.3387  0.4033
  411MOL0     H54191  10.240   2.629   5.956 -0.9259  2.1088 -0.0998
  411MOL0     H54192  10.096   2.569   5.865  1.0967 -2.2764  1.5109
  411MOL0     H54193  10.145   2.756   5.692  3.7441 -1.0855 -3.5088
  411MOL0     H54194  10.312   2.732   5.726  0.0530  0.9740  1.1327
  411MOL0     H54195  10.304   2.858   5.921 -2.1344  3.0870  3.3544
  411MOL0     H54196  10.238   2.955   5.781  0.1574 -2.1224 -1.8741
  411MOL0     H54197  10.123   3.008   5.991 -1.2826  0.4839 -0.7186
  411MOL0     H54198  10.070   2.841   6.013  2.3677 -4.0015 -1.7846
  411MOL0     H54199   9.963   2.852   5.796  1.2477 -0.8054 -0.1359
  411MOL0     H54200  10.002   3.032   5.784 -2.2595 -0.6157 -0.7186
  411MOL0     H54201   9.767   2.993   5.857 -0.1568 -1.7363 -1.1782
  411MOL0     H54202   9.825   2.892   5.984 -1.9116 -0.5834 -2.0763
  411MOL0     H54203   9.932   3.177   5.992  1.7256 -1.8283  0.4103
  411MOL0     H54204   9.928   3.058   6.119 -1.2639  0.7771  1.0976
  411MOL0     H54205   9.658   2.976   6.186 -1.3102 -0.3722  0.1199
  411MOL0     H54206   9.419   3.069   6.303 -0.6492  0.5269  1.4824
  411MOL0     H54207   9.355   3.220   6.249  0.9284 -0.6182 -2.1584
  411MOL0     H54208   9.518   3.346   6.384  0.6780 -0.5829 -0.2042
  411MOL0     H54209   9.585   3.202   6.446  1.3622  3.1300  0.4508
  411MOL0     H54210   9.300   3.304   6.488 -0.2672 -0.8507  0.6614
  411MOL0     H54211   9.339   3.142   6.537  0.9557  0.0741  0.9576
  411MOL0     H54212   9.498   3.380   6.635  0.9350 -0.1373  1.3276
  411MOL0     H54213   9.496   3.217   6.699 -1.3147 -0.8376 -0.8790
  411MOL0     H54214   9.280   3.144   6.923 -1.5757  1.1317 -2.5714
  411MOL0     H54215   9.311   3.167   7.145 -1.7672 -1.0492 -1.1258
  411MOL0     H54216   9.485   3.677   7.481 -2.8942 -1.3671  0.9331
  411MOL0     H54217   9.647   3.748   7.653 -0.3132  0.4436  0.6376
  411MOL0     H54218   9.774   3.734   7.867 -1.7759 -3.1196 -0.1924
  411MOL0     H54219   9.869   3.769   7.722 -0.0947  0.9334  0.8346
  411MOL0     H54220  10.030   3.804   7.874  1.0975 -0.5565 -2.5893
  411MOL0     H54221  10.068   3.644   7.830 -0.7329 -1.7368 -0.4862
  411MOL0     H54222   9.934   3.549   8.030 -0.7267  0.4282  2.5550
  411MOL0     H54223   9.908   3.715   8.092 -0.5341 -1.6597  1.2447
  411MOL0     H54224  10.181   3.565   8.060  2.6241  1.3289  1.7392
  411MOL0     H54225  10.165   3.729   8.122 -0.7858  0.2093 -0.4893
  411MOL0     H54226  10.004   3.502   8.251 -2.3482  0.9297  2.1805
  411MOL0     H54227  10.039   3.655   8.321 -1.7119 -0.3322 -0.6971
  411MOL0     H54228  10.294   3.607   8.317  1.1258 -2.0188 -0.8558
  411MOL0     H54229  10.267   3.455   8.274 -0.5019  1.5700 -2.7992
  411MOL0     H54230  10.089   3.481   8.496 -0.9686  2.4509 -0.0800
  411MOL0     H54231  10.260   3.417   8.508 -0.8005 -0.5653  0.1032
  411MOL0     H54232  10.183   3.713   8.499  0.8097  1.1971  2.5586
  411MOL0     H54233  10.330   3.653   8.572 -1.2922  3.3115  3.1211
  411MOL0     H54234   9.812   3.343   7.656  3.1128  0.5679 -3.1244
  411MOL0     H54235   9.662   3.281   7.477  3.6798  0.5712 -1.0587
  411MOL0     H54236   9.544   3.519   7.097  0.0248 -1.0428  0.6144
  411MOL0     H54237   9.469   3.528   6.846 -0.7533  1.9000  2.7829
  411MOL0     H54238  10.441   2.327   5.646  0.1390 -2.1734 -0.7065
  411MOL0     H54239  10.614   2.153   5.645 -1.7006  1.5378 -0.9679
  411MOL0     H54240  11.010   1.908   6.041  2.4973 -0.0180  1.8506
  411MOL0     H54241  11.195   1.758   5.993 -1.3593 -1.1971 -0.1002
  411MOL0     H54242  11.401   1.547   5.773  0.7979 -1.2346  1.2962
  411MOL0     H54243  11.282   1.594   5.889 -1.9547  1.7519 -1.5739
  411MOL0     H54244  11.550   1.736   5.833  1.1955  0.4985  1.2035
  411MOL0     H54245  11.442   1.757   5.981 -0.7680 -0.6004 -0.1155
  411MOL0     H54246  11.666   1.607   5.994 -0.0276  1.9087 -1.7593
  411MOL0     H54247  11.561   1.489   5.913 -0.2849 -0.4275  0.5010
  411MOL0     H54248  11.585   1.487   6.177  2.1849  2.9507  0.8607
  411MOL0     H54249  11.489   1.637   6.174  0.6184  1.7803 -2.7506
  411MOL0     H54250  11.179   1.371   6.081 -0.0053 -0.1220  2.0955
  411MOL0     H54251  11.179   1.871   5.574 -2.4030 -0.9174  0.0941
  411MOL0     H54252  10.948   1.997   5.635  0.1905 -1.6980 -1.2627
  412MOL0     O54253   6.564  11.007   4.975 -0.4208 -0.4795 -0.1747
  412MOL0     C54254   6.537  10.884   4.971  0.6313 -1.0075 -0.0037
  412MOL0     O54255   6.409  10.833   4.982  0.6571  0.3053  0.3373
  412MOL0     C54256   6.286  10.897   4.970 -0.9510  0.4213  0.6196
  412MOL0     C54257   6.273  11.029   4.922  0.1417 -0.6881  0.3764
  412MOL0     C54258   6.142  11.093   4.903 -0.8185  0.3165 -0.6219
  412MOL0     C54259   6.031  11.019   4.934  0.3332  0.5588  0.2056
  412MOL0     O54260   5.905  11.071   4.923  0.3069  0.3453 -0.2358
  412MOL0     C54261   5.882  11.188   5.003 -0.2519 -0.2142  0.5881
  412MOL0     C54262   5.728  11.210   5.006  1.3007 -0.1469 -0.1722
  412MOL0     C54263   5.684  11.338   5.077 -0.5350  0.1223  0.9076
  412MOL0     C54264   5.539  11.376   5.044  0.5962 -0.5015  0.9258
  412MOL0     C54265   5.479  11.488   5.122  0.1635 -0.1244  0.8462
  412MOL0     C54266   5.338  11.523   5.080 -0.1930  0.3129  0.6844
  412MOL0     C54267   5.229  11.424   5.136 -0.3764 -0.8485  0.2727
  412MOL0     C54268   5.104  11.476   5.061  0.4739  0.4842 -0.3288
  412MOL0     N54269   4.981  11.403   5.094  0.1752 -0.3129 -0.1790
  412MOL0     C54270   4.896  11.422   5.203  0.0850 -0.5481  0.5742
  412MOL0     C54271   4.818  11.313   5.212 -0.3928 -0.3540  0.2819
  412MOL0     C54272   4.714  11.293   5.317  0.0166  0.4131  0.5433
  412MOL0     C54273   4.574  11.277   5.252 -0.1452 -0.3028  0.0141
  412MOL0     C54274   4.555  11.125   5.240  0.3038 -0.4028 -0.3039
  412MOL0     C54275   4.432  11.088   5.160 -0.4483 -0.6452  0.9205
  412MOL0     O54276   4.306  11.110   5.227 -0.2319  0.1973 -0.1905
  412MOL0     C54277   4.245  11.002   5.286 -0.0711  0.1435  0.0393
  412MOL0     C54278   4.110  11.018   5.315  0.1507  0.2479 -0.2468
  412MOL0     C54279   4.034  10.911   5.366 -0.3985  0.3967 -0.5923
  412MOL0     C54280   4.100  10.792   5.410 -0.7436  0.4474 -0.6962
  412MOL0     C54281   4.017  10.687   5.483 -0.1998 -0.4560 -0.3906
  412MOL0     O54282   3.880  10.696   5.480 -0.4859  0.4381 -0.4221
  412MOL0     C54283   3.799  10.592   5.530  0.1633 -0.4302  0.1753
  412MOL0     C54284   3.670  10.630   5.553  0.6409  0.8081  0.1465
  412MOL0     C54285   3.573  10.538   5.596 -0.1152  0.2497 -0.0691
  412MOL0     C54286   3.606  10.398   5.603 -0.6468 -1.0864  0.5558
  412MOL0     O54287   3.528  10.285   5.629  0.3474 -0.0822  0.3564
  412MOL0     C54288   3.383  10.305   5.617  0.1223  0.4663  0.2470
  412MOL0     C54289   3.333  10.333   5.758  0.9046 -0.2170 -0.1623
  412MOL0     C54290   3.190  10.378   5.737 -0.1241 -0.6109  0.4399
  412MOL0     C54291   3.099  10.400   5.864 -0.2611  0.3569  0.2974
  412MOL0     C54292   2.977  10.493   5.825  0.1208  0.2894  0.0743
  412MOL0     C54293   2.856  10.475   5.921 -0.7894 -0.3843  0.1256
  412MOL0     C54294   2.886  10.512   6.067  0.9301  0.0394 -0.0020
  412MOL0     C54295   2.894  10.670   6.082  0.3263 -0.0596  1.2806
  412MOL0    Cl54296   2.873  10.732   6.247  0.0663  0.0834  0.0309
  412MOL0     C54297   3.739  10.368   5.577 -0.3040  0.5114  0.2213
  412MOL0     C54298   3.840  10.462   5.539  0.3081  0.1858 -0.6827
  412MOL0     O54299   4.081  10.612   5.553  0.3473 -0.1513  0.0127
  412MOL0     C54300   4.243  10.786   5.391  0.0657  0.4151  0.4185
  412MOL0     C54301   4.310  10.886   5.319 -0.3664  0.3618 -1.0378
  412MOL0     N54302   4.850  11.229   5.103 -0.4566  0.4336  0.1602
  412MOL0     N54303   4.934  11.289   5.031 -0.1960  0.1020  0.5517
  412MOL0     C54304   6.045  10.880   4.972  0.2003  0.3148 -0.5240
  412MOL0     C54305   6.171  10.818   4.985  0.9683  0.1842 -0.1232
  412MOL0     C54306   6.644  10.787   4.984  0.4519  0.0565  0.2117
  412MOL0     C54307   6.617  10.654   5.024  0.2896 -0.3880 -0.6844
  412MOL0     C54308   6.716  10.557   5.030 -1.0698  0.3253  0.7900
  412MOL0     C54309   6.850  10.593   5.007  0.7085  0.2179 -0.3379
  412MOL0     O54310   6.937  10.487   5.022 -0.5915 -0.6618  0.1408
  412MOL0     C54311   7.075  10.512   4.988  0.1603 -0.5599 -0.6785
  412MOL0     C54312   7.155  10.377   4.982 -0.7115  0.3920 -0.2885
  412MOL0     C54313   7.105  10.274   4.873 -1.1119 -0.5303  0.2263
  412MOL0     C54314   7.098  10.126   4.913  0.2501  0.1217  0.1496
  412MOL0     C54315   7.226  10.069   4.930 -0.1286 -1.5720 -0.2834
  412MOL0     C54316   7.340  10.029   4.958  0.4141 -0.5960  0.8025
  412MOL0     C54317   6.876  10.728   4.979 -0.2952 -0.0656  0.7897
  412MOL0     C54318   6.772  10.819   4.952  0.4533 -0.3635 -0.1680
  412MOL0     H54319   6.361  11.089   4.903  0.4947 -0.8143  1.5519
  412MOL0     H54320   6.141  11.198   4.876 -1.3064  0.5775  0.3472
  412MOL0     H54321   5.933  11.266   4.945  1.0406 -0.4509  1.3739
  412MOL0     H54322   5.937  11.194   5.097  1.1187  2.8005 -0.2815
  412MOL0     H54323   5.688  11.124   5.059 -1.8066  0.9658 -0.4901
  412MOL0     H54324   5.682  11.214   4.907 -1.4500 -1.9862  0.9222
  412MOL0     H54325   5.740  11.427   5.045  3.4728 -3.1355 -2.2499
  412MOL0     H54326   5.689  11.331   5.186 -1.0977  0.3873  0.9532
  412MOL0     H54327   5.536  11.404   4.938 -0.5093 -2.1392  0.5056
  412MOL0     H54328   5.476  11.287   5.047  1.0757 -0.9107 -0.4883
  412MOL0     H54329   5.539  11.578   5.106  1.9205 -1.6209 -1.6911
  412MOL0     H54330   5.494  11.460   5.227  3.8238 -0.6023  0.3257
  412MOL0     H54331   5.338  11.500   4.973 -0.8139 -2.5730  1.2291
  412MOL0     H54332   5.313  11.629   5.090  1.9334  1.2352 -2.2539
  412MOL0     H54333   5.252  11.319   5.117  0.8893 -0.7752  1.2457
  412MOL0     H54334   5.218  11.453   5.241  2.3865  0.4005  0.2962
  412MOL0     H54335   5.116  11.463   4.953 -1.1426 -1.5814 -0.3180
  412MOL0     H54336   5.088  11.584   5.067  2.4766  0.8201 -0.4488
  412MOL0     H54337   4.890  11.517   5.255  1.5722 -0.5472  0.7941
  412MOL0     H54338   4.710  11.386   5.375 -3.2040  1.5171 -1.1886
  412MOL0     H54339   4.732  11.218   5.395 -2.1209  2.4070  3.1481
  412MOL0     H54340   4.571  11.330   5.156  1.7914  1.1898  0.7080
  412MOL0     H54341   4.492  11.311   5.316 -0.5145 -3.2199  1.2865
  412MOL0     H54342   4.636  11.083   5.179 -2.4951 -2.2189 -3.0687
  412MOL0     H54343   4.565  11.075   5.336  0.8709 -1.1605 -0.7418
  412MOL0     H54344   4.452  10.989   5.117 -0.7439 -0.2923 -0.0404
  412MOL0     H54345   4.419  11.152   5.073 -3.9636 -2.2228  0.1206
  412MOL0     H54346   4.064  11.114   5.294 -0.3535 -0.0676 -0.5885
  412MOL0     H54347   3.927  10.915   5.378 -0.3353 -0.3084  0.3409
  412MOL0     H54348   3.642  10.733   5.534  0.6680  1.0126  1.1313
  412MOL0     H54349   3.473  10.580   5.605  1.1824  3.4686  0.8608
  412MOL0     H54350   3.342  10.207   5.589 -0.2199  1.1683 -1.8182
  412MOL0     H54351   3.349  10.371   5.537 -0.3119  0.6014  0.5397
  412MOL0     H54352   3.391  10.410   5.810  1.8351 -1.8083  1.2729
  412MOL0     H54353   3.339  10.244   5.821  0.3242  0.1371  0.4083
  412MOL0     H54354   3.144  10.303   5.672  2.1434 -1.6885 -0.0130
  412MOL0     H54355   3.192  10.474   5.685  1.7887 -0.9772 -0.2149
  412MOL0     H54356   3.071  10.302   5.904 -4.6600  1.8028  1.3652
  412MOL0     H54357   3.156  10.456   5.939 -0.5308  0.1723  0.6468
  412MOL0     H54358   2.956  10.469   5.720  0.5409 -0.6025  0.1879
  412MOL0     H54359   3.007  10.597   5.839  2.4905 -0.1061 -1.3734
  412MOL0     H54360   2.832  10.369   5.908  1.4566 -1.1223  1.4193
  412MOL0     H54361   2.770  10.529   5.882  1.3037  3.1826  0.0256
  412MOL0     H54362   2.798  10.475   6.120 -0.1227 -0.6027 -2.0937
  412MOL0     H54363   2.976  10.467   6.108 -0.8960 -3.4188  0.5690
  412MOL0     H54364   2.809  10.708   6.025  0.3448  0.5865  1.6756
  412MOL0     H54365   2.975  10.702   6.017 -1.4709 -0.2214 -1.1706
  412MOL0     H54366   3.761  10.261   5.577  0.4054  0.3580  5.5457
  412MOL0     H54367   3.941  10.434   5.511  1.4985  3.6728 -0.3447
  412MOL0     H54368   4.304  10.703   5.427  0.2395  1.2134  2.0237
  412MOL0     H54369   4.414  10.864   5.300 -0.4527 -0.2364 -0.8417
  412MOL0     H54370   5.958  10.818   4.988  0.6203  0.0023  0.6161
  412MOL0     H54371   6.186  10.715   5.013  2.4905  0.5251  0.4168
  412MOL0     H54372   6.521  10.620   5.063  0.3352  1.3248  1.0698
  412MOL0     H54373   6.698  10.452   5.050 -0.3449 -0.2961 -1.5021
  412MOL0     H54374   7.116  10.577   5.066  1.1535 -1.5055 -0.3881
  412MOL0     H54375   7.078  10.557   4.889 -0.1162 -1.9491 -1.3355
  412MOL0     H54376   7.259  10.400   4.959 -1.1326  1.7598 -0.9458
  412MOL0     H54377   7.152  10.317   5.073  0.4812  0.6642 -0.0574
  412MOL0     H54378   7.153  10.292   4.777 -3.1760  1.6739 -0.5163
  412MOL0     H54379   7.003  10.301   4.843 -0.4521  1.7297 -0.1757
  412MOL0     H54380   7.031  10.113   4.999 -2.1710 -1.6344 -1.8339
  412MOL0     H54381   7.053  10.059   4.839  5.2074 -3.1250 -0.3795
  412MOL0     H54382   7.444  10.014   4.978  0.2290  1.6930  4.3092
  412MOL0     H54383   6.976  10.765   4.960 -1.0187  0.6144 -2.1405
  412MOL0     H54384   6.801  10.922   4.935  3.7493 -0.3534  3.8669
  413MOL0     O54385   7.666   2.111   2.391  0.2316  0.2632 -0.4371
  413MOL0     C54386   7.758   2.061   2.453 -0.7132 -0.4372 -0.2831
  413MOL0     O54387   7.753   2.030   2.579  0.4015  0.0177 -0.0113
  413MOL0     C54388   7.646   2.080   2.655  0.7937  0.0168 -0.3924
  413MOL0     C54389   7.681   2.151   2.767  0.7076  0.2216  0.6974
  413MOL0     C54390   7.589   2.211   2.846 -0.4038  0.1249  0.0320
  413MOL0     C54391   7.450   2.199   2.819 -0.0961  0.8882  0.4311
  413MOL0     O54392   7.353   2.273   2.895 -0.1129  0.4660 -0.4571
  413MOL0     C54393   7.388   2.321   3.032 -0.7924 -0.2236 -0.4431
  413MOL0     C54394   7.259   2.370   3.105  0.0597  0.8410 -0.7034
  413MOL0     C54395   7.152   2.271   3.081 -0.6384  0.3762  0.3276
  413MOL0     C54396   7.044   2.296   3.184  0.5284  0.0858 -0.6201
  413MOL0     C54397   7.065   2.230   3.326  0.1123 -0.7142  0.4868
  413MOL0     C54398   7.054   2.084   3.325 -0.8504  0.7347 -0.0182
  413MOL0     C54399   7.082   2.023   3.469  0.2048 -0.4943  0.0619
  413MOL0     C54400   6.993   2.069   3.574 -0.1236 -0.0533 -0.1737
  413MOL0     N54401   6.863   2.015   3.549  0.8120  0.4837  0.3525
  413MOL0     C54402   6.825   1.884   3.547  0.5719 -0.0624  0.0759
  413MOL0     C54403   6.702   1.882   3.493  0.1045 -0.0001  0.7920
  413MOL0     C54404   6.619   1.755   3.488 -0.5848 -0.9827  0.9156
  413MOL0     C54405   6.699   1.629   3.443 -0.7607  0.6476  0.3042
  413MOL0     C54406   6.623   1.500   3.471  0.0410 -0.1374  0.4368
  413MOL0     C54407   6.570   1.483   3.618 -0.0781 -0.0816  0.7854
  413MOL0     O54408   6.460   1.562   3.654 -0.5015  0.8730 -0.5002
  413MOL0     C54409   6.332   1.537   3.603  0.2465 -0.2055 -0.0867
  413MOL0     C54410   6.291   1.443   3.506 -0.8168 -0.4625  0.1371
  413MOL0     C54411   6.155   1.412   3.478 -0.0500 -0.1823  0.4711
  413MOL0     C54412   6.052   1.474   3.551  0.3935  0.3851 -0.1692
  413MOL0     C54413   5.906   1.444   3.537 -0.0964 -1.0594  0.0436
  413MOL0     O54414   5.816   1.521   3.601  0.4317 -0.1888  0.2810
  413MOL0     C54415   5.679   1.497   3.593  0.9398 -0.5392 -0.6782
  413MOL0     C54416   5.609   1.618   3.631  0.8034 -1.5537 -0.2093
  413MOL0     C54417   5.471   1.624   3.607 -0.9751  0.3227 -0.0860
  413MOL0     C54418   5.401   1.523   3.549 -0.2242 -0.1157  0.2382
  413MOL0     O54419   5.262   1.535   3.542  0.6721  0.2628 -0.2549
  413MOL0     C54420   5.211   1.641   3.451 -0.1549 -0.6840 -1.2477
  413MOL0     C54421   5.228   1.618   3.299 -0.4055 -0.6300  0.0112
  413MOL0     C54422   5.159   1.499   3.238 -0.0043  0.7346  0.2553
  413MOL0     C54423   5.007   1.501   3.229 -0.1351 -0.0077 -0.6745
  413MOL0     C54424   4.944   1.366   3.178 -0.5602 -0.3091  0.9715
  413MOL0     C54425   4.790   1.377   3.169  0.8873 -0.0487  0.7018
  413MOL0     C54426   4.714   1.340   3.293  0.0802 -0.7588  0.7548
  413MOL0     C54427   4.570   1.390   3.291 -0.0075  1.0983  0.5346
  413MOL0    Cl54428   4.508   1.350   3.136 -0.0899  0.0296  0.0763
  413MOL0     C54429   5.465   1.406   3.510 -0.9223 -0.0033 -0.4011
  413MOL0     C54430   5.606   1.392   3.534 -0.4010 -0.8325  0.2986
  413MOL0     O54431   5.885   1.349   3.462 -0.5657 -0.0729 -0.5699
  413MOL0     C54432   6.094   1.567   3.646  0.1847 -0.0130  0.1481
  413MOL0     C54433   6.231   1.598   3.677  0.2081  0.1027 -0.3163
  413MOL0     N54434   6.662   2.013   3.474  0.4298 -1.0013  0.5225
  413MOL0     N54435   6.761   2.088   3.494 -0.1566 -0.0941 -0.0582
  413MOL0     C54436   7.411   2.124   2.710  0.1467  0.1848  0.2555
  413MOL0     C54437   7.504   2.057   2.633  0.1401  0.2237  0.3832
  413MOL0     C54438   7.877   2.017   2.364  0.4173 -0.0002 -0.8367
  413MOL0     C54439   7.990   1.961   2.437  0.5501  0.1880 -0.9415
  413MOL0     C54440   8.110   1.935   2.381 -0.5586 -0.7693  0.3424
  413MOL0     C54441   8.132   1.966   2.245 -0.5475  0.3546 -0.4761
  413MOL0     O54442   8.244   1.939   2.180 -1.2584  0.4416 -0.7385
  413MOL0     C54443   8.366   1.939   2.270 -0.4444  0.0557  0.2557
  413MOL0     C54444   8.494   1.972   2.190 -0.3204 -0.0222  0.0227
  413MOL0     C54445   8.513   1.879   2.068  0.1914  0.3207  0.0252
  413MOL0     C54446   8.632   1.892   1.973  0.1027 -0.7458  0.9726
  413MOL0     C54447   8.761   1.930   2.036 -0.7977 -0.3633 -0.3172
  413MOL0     C54448   8.872   1.964   2.086  0.1609 -0.0010  0.6807
  413MOL0     C54449   8.017   2.014   2.171  0.1755  0.6480 -0.1218
  413MOL0     C54450   7.891   2.033   2.225 -0.1871  0.4130 -0.1852
  413MOL0     H54451   7.787   2.171   2.780  1.1403 -0.4131 -1.4381
  413MOL0     H54452   7.634   2.277   2.919  2.3903  0.1447 -1.5890
  413MOL0     H54453   7.461   2.402   3.034  1.7413 -2.0151 -5.1230
  413MOL0     H54454   7.433   2.236   3.086 -0.5704 -1.3426 -2.3023
  413MOL0     H54455   7.233   2.471   3.071  0.2095 -0.0050 -3.6133
  413MOL0     H54456   7.287   2.357   3.210  0.5001  0.4994 -0.8658
  413MOL0     H54457   7.195   2.170   3.089  1.2068  0.8156 -2.4977
  413MOL0     H54458   7.124   2.277   2.975  6.1848  2.1946 -1.9334
  413MOL0     H54459   7.040   2.404   3.202  1.9179  0.4527 -2.2038
  413MOL0     H54460   6.943   2.264   3.155  0.7275 -1.7340  0.5553
  413MOL0     H54461   6.982   2.271   3.384 -0.1664  0.9212 -1.0115
  413MOL0     H54462   7.163   2.254   3.369 -0.3636 -3.8003  3.7900
  413MOL0     H54463   7.129   2.039   3.260  2.2484  2.0010  2.4316
  413MOL0     H54464   6.958   2.047   3.287  0.7242 -2.0687 -1.5764
  413MOL0     H54465   7.081   1.914   3.461  2.9517 -0.5476 -0.5787
  413MOL0     H54466   7.185   2.047   3.497 -0.5685 -1.0014  3.7938
  413MOL0     H54467   6.998   2.178   3.581  3.8795 -0.1650  0.8132
  413MOL0     H54468   7.010   2.033   3.675 -1.5785 -1.9634 -0.5417
  413MOL0     H54469   6.874   1.798   3.593 -1.7363 -1.4441  0.0946
  413MOL0     H54470   6.528   1.769   3.430 -0.0688 -0.9799  0.0759
  413MOL0     H54471   6.595   1.732   3.592  2.5043 -0.4378  1.8802
  413MOL0     H54472   6.788   1.619   3.506 -1.5357  0.0787  1.3429
  413MOL0     H54473   6.701   1.641   3.334  1.2131 -2.5880 -0.1324
  413MOL0     H54474   6.533   1.509   3.409  0.5824  4.6706 -0.0184
  413MOL0     H54475   6.691   1.426   3.428 -0.2452 -0.4537  0.5238
  413MOL0     H54476   6.649   1.503   3.691 -0.0573  3.4429 -0.0249
  413MOL0     H54477   6.548   1.376   3.627 -0.2123  0.0029  1.4652
  413MOL0     H54478   6.358   1.385   3.444  2.4205  2.1591  0.9027
  413MOL0     H54479   6.128   1.328   3.415 -0.5490 -0.5218  1.1166
  413MOL0     H54480   5.667   1.702   3.668 -0.4538 -0.2987 -0.9585
  413MOL0     H54481   5.407   1.709   3.629 -0.8640  0.5829 -0.7428
  413MOL0     H54482   5.255   1.738   3.475 -0.9368 -0.8630  1.1471
  413MOL0     H54483   5.103   1.649   3.465 -0.1022  0.0670 -1.2416
  413MOL0     H54484   5.331   1.598   3.267 -1.0921 -2.2230 -1.3705
  413MOL0     H54485   5.196   1.708   3.247  1.3301 -0.0294 -0.0951
  413MOL0     H54486   5.198   1.418   3.300  2.3981  2.3633  1.0144
  413MOL0     H54487   5.191   1.487   3.134  0.8953  3.3719  0.1678
  413MOL0     H54488   4.961   1.518   3.327  1.0085 -2.8749  0.4601
  413MOL0     H54489   4.989   1.584   3.160  0.6154  0.5003 -0.2732
  413MOL0     H54490   4.974   1.278   3.237 -1.3055 -0.7445  0.7066
  413MOL0     H54491   4.990   1.342   3.082 -3.6934 -2.8991 -0.0195
  413MOL0     H54492   4.766   1.310   3.086  4.0146 -0.8959  0.3333
  413MOL0     H54493   4.763   1.477   3.134  0.4978 -0.3772  0.0491
  413MOL0     H54494   4.716   1.231   3.301 -1.3473 -0.9622 -0.9869
  413MOL0     H54495   4.753   1.384   3.386  0.8523 -3.7422  1.9486
  413MOL0     H54496   4.551   1.497   3.298 -1.7941  0.9301 -0.9814
  413MOL0     H54497   4.519   1.336   3.371  1.4330 -1.3692 -0.0845
  413MOL0     H54498   5.413   1.324   3.461 -1.1277  0.2727 -0.6503
  413MOL0     H54499   5.650   1.297   3.506 -0.0511 -1.3501  2.4219
  413MOL0     H54500   6.014   1.599   3.712 -0.8951 -2.0025 -0.1382
  413MOL0     H54501   6.255   1.650   3.770 -0.6873 -0.4599  0.2492
  413MOL0     H54502   7.307   2.119   2.680  0.0820 -0.4325  0.5575
  413MOL0     H54503   7.471   1.998   2.548  0.2032  0.4434  0.2059
  413MOL0     H54504   7.979   1.943   2.543  0.5591  2.1273 -0.5857
  413MOL0     H54505   8.191   1.892   2.439  1.1440 -1.7530 -2.5447
  413MOL0     H54506   8.376   1.841   2.317 -0.2183  0.0677  0.2343
  413MOL0     H54507   8.363   2.013   2.351 -2.3787 -1.8001  2.0195
  413MOL0     H54508   8.489   2.073   2.149 -4.3172 -0.9153 -2.1510
  413MOL0     H54509   8.585   1.964   2.250 -1.4152  0.0882  1.7741
  413MOL0     H54510   8.424   1.880   2.005  0.2610  0.6344 -0.0671
  413MOL0     H54511   8.520   1.778   2.110  3.7651 -0.2131 -1.5444
  413MOL0     H54512   8.647   1.796   1.925 -1.0336  0.1470 -1.3094
  413MOL0     H54513   8.596   1.962   1.897 -1.0175 -0.6472  1.5713
  413MOL0     H54514   8.962   1.993   2.137 -2.0008  1.2466  4.1826
  413MOL0     H54515   8.023   2.016   2.062 -1.0683 -2.0246 -0.2961
  413MOL0     H54516   7.815   2.075   2.159  0.6835  1.8548 -0.3249
  414MOL0     O54517   0.281   9.486   2.922 -0.3418 -0.3137 -0.4192
  414MOL0     C54518   0.299   9.467   2.804 -0.1634 -0.6744  0.4019
  414MOL0     O54519   0.201   9.466   2.709 -0.6289 -0.1894  0.0845
  414MOL0     C54520   0.063   9.454   2.740 -0.0329 -0.8858  0.3287
  414MOL0     C54521   0.014   9.383   2.854  0.5985  0.4293 -0.1736
  414MOL0     C54522  -0.120   9.389   2.885 -0.1485 -0.4643 -0.1497
  414MOL0     C54523  -0.220   9.449   2.804  0.4326  0.4760 -0.4166
  414MOL0     O54524  -0.350   9.451   2.832  0.2364  0.3381 -0.3947
  414MOL0     C54525  -0.393   9.587   2.854 -0.0966 -0.3235  0.3313
  414MOL0     C54526  -0.539   9.595   2.909 -0.3787 -0.1640  0.2813
  414MOL0     C54527  -0.541   9.535   3.048 -0.1984 -0.3128  0.1773
  414MOL0     C54528  -0.648   9.600   3.124 -1.0482  0.2820 -0.6524
  414MOL0     C54529  -0.788   9.549   3.100 -0.4314  0.7848  0.4247
  414MOL0     C54530  -0.881   9.620   3.202  0.9861 -0.3188  0.1981
  414MOL0     C54531  -0.894   9.765   3.177  0.5885  0.1275  0.0658
  414MOL0     C54532  -1.010   9.825   3.266 -0.7556 -0.2472 -0.1267
  414MOL0     N54533  -1.141   9.826   3.201  0.1623  0.7620 -0.8532
  414MOL0     C54534  -1.173   9.896   3.089  0.6642 -0.1319 -0.3781
  414MOL0     C54535  -1.310   9.898   3.075 -0.0522  0.4590  0.9748
  414MOL0     C54536  -1.386   9.965   2.963 -0.5593 -0.4576  0.2073
  414MOL0     C54537  -1.527  10.023   3.001 -0.2531 -0.7188 -0.0123
  414MOL0     C54538  -1.640   9.919   3.014  0.4735  0.3145  0.0220
  414MOL0     C54539  -1.770   9.999   3.041  0.6240  0.3372 -0.3067
  414MOL0     O54540  -1.874   9.896   3.036 -0.2896 -0.3546 -0.1418
  414MOL0     C54541  -2.002   9.941   3.038 -0.1163  0.1227 -0.1100
  414MOL0     C54542  -2.067   9.946   3.160  0.2057  0.7605  0.2670
  414MOL0     C54543  -2.199   9.999   3.170 -0.0989 -0.3270  1.8279
  414MOL0     C54544  -2.263  10.032   3.046  1.5196 -0.3185 -0.5130
  414MOL0     C54545  -2.409  10.070   3.042 -0.7511  0.5007 -0.0005
  414MOL0     O54546  -2.486  10.066   3.153 -0.1400 -0.4985 -0.5060
  414MOL0     C54547  -2.626  10.058   3.156 -0.2250 -1.3055  0.5565
  414MOL0     C54548  -2.706  10.125   3.065  0.8048 -0.3859  0.0600
  414MOL0     C54549  -2.844  10.133   3.090  0.0495  0.5927  0.7819
  414MOL0     C54550  -2.900  10.062   3.201  0.3232 -0.4098 -0.6413
  414MOL0     O54551  -3.035  10.065   3.237  0.0821  0.1261  0.0304
  414MOL0     C54552  -3.132  10.118   3.147 -0.2025  0.9679 -0.4483
  414MOL0     C54553  -3.268  10.081   3.200  0.4157 -0.3725 -0.2313
  414MOL0     C54554  -3.302   9.931   3.199  0.7693  0.7622  0.0494
  414MOL0     C54555  -3.428   9.916   3.287  0.0055  0.2429 -0.3051
  414MOL0     C54556  -3.488   9.778   3.287  0.2174  0.5907 -0.2611
  414MOL0     C54557  -3.583   9.754   3.402  0.0867 -0.0910  0.0737
  414MOL0     C54558  -3.675   9.873   3.436  0.1161  0.6549  0.3059
  414MOL0     C54559  -3.793   9.843   3.516  0.5803  0.1939  0.3381
  414MOL0    Cl54560  -3.924   9.763   3.410 -0.1650 -0.3421  0.3159
  414MOL0     C54561  -2.817   9.992   3.290  0.5567  0.2391  0.7918
  414MOL0     C54562  -2.680   9.990   3.267  0.6475 -0.1662  0.1212
  414MOL0     O54563  -2.446  10.109   2.931 -0.7050 -0.5260 -0.2572
  414MOL0     C54564  -2.194  10.023   2.935 -0.2964 -0.9149  0.1058
  414MOL0     C54565  -2.066   9.980   2.925 -0.2376 -0.1508 -0.5831
  414MOL0     N54566  -1.355   9.822   3.185  1.2481  0.6760 -0.0858
  414MOL0     N54567  -1.252   9.775   3.250 -0.3597 -0.6754 -0.7152
  414MOL0     C54568  -0.176   9.502   2.687  0.5042  0.0123  0.2195
  414MOL0     C54569  -0.034   9.513   2.656 -0.3352 -0.7474 -0.0693
  414MOL0     C54570   0.440   9.454   2.763 -0.1484 -0.2457 -0.1216
  414MOL0     C54571   0.466   9.462   2.624  0.2529 -0.4240  0.4255
  414MOL0     C54572   0.599   9.456   2.576  0.3473 -0.3632  0.1814
  414MOL0     C54573   0.708   9.438   2.655 -0.4162 -0.2677 -0.6321
  414MOL0     O54574   0.831   9.403   2.603 -0.1061 -0.6369 -0.0503
  414MOL0     C54575   0.935   9.360   2.689 -0.4640  0.2916 -0.0540
  414MOL0     C54576   1.065   9.329   2.610 -0.6820  0.1065 -0.1130
  414MOL0     C54577   1.084   9.206   2.528  0.9251  1.0053  0.1608
  414MOL0     C54578   1.212   9.213   2.447 -0.4823  0.2318  0.5268
  414MOL0     C54579   1.238   9.090   2.371  0.2902 -0.1332 -0.5397
  414MOL0     C54580   1.267   8.989   2.310 -0.4038 -0.7320 -0.8710
  414MOL0     C54581   0.678   9.434   2.795 -0.5573 -0.3070 -0.2387
  414MOL0     C54582   0.552   9.439   2.850 -0.0636 -0.0949  0.6562
  414MOL0     H54583   0.077   9.318   2.913  0.3703  1.7901  1.6495
  414MOL0     H54584  -0.151   9.344   2.979 -3.4929  1.5756 -0.0862
  414MOL0     H54585  -0.387   9.646   2.762 -0.0057 -0.9939 -0.0962
  414MOL0     H54586  -0.329   9.633   2.930 -1.0731  2.2526 -0.2957
  414MOL0     H54587  -0.608   9.553   2.835 -0.3170  1.7089 -0.9068
  414MOL0     H54588  -0.555   9.703   2.912 -1.0959 -0.2361 -0.6917
  414MOL0     H54589  -0.441   9.555   3.086  0.5348 -0.1078 -1.7670
  414MOL0     H54590  -0.551   9.426   3.040 -0.4693 -0.6040  3.2643
  414MOL0     H54591  -0.640   9.589   3.233 -2.2838 -0.8262 -0.6304
  414MOL0     H54592  -0.632   9.707   3.113  0.3346  0.1998  0.3594
  414MOL0     H54593  -0.804   9.441   3.098  1.6900  0.4391 -0.1258
  414MOL0     H54594  -0.816   9.588   3.001 -2.4582  0.3764  0.7872
  414MOL0     H54595  -0.838   9.617   3.303 -0.4969 -0.0606  0.8603
  414MOL0     H54596  -0.985   9.586   3.211  1.6195 -2.6189 -0.5038
  414MOL0     H54597  -0.797   9.812   3.197  0.4187  0.8168 -0.6863
  414MOL0     H54598  -0.928   9.784   3.074  0.5524  1.8903  0.3754
  414MOL0     H54599  -0.992   9.931   3.289  0.6444 -0.3389 -0.7193
  414MOL0     H54600  -1.007   9.770   3.361 -1.6144 -0.0958 -0.0107
  414MOL0     H54601  -1.114   9.951   3.017 -1.2145  1.0716 -1.0813
  414MOL0     H54602  -1.398   9.886   2.887 -1.4252  0.3834 -0.5633
  414MOL0     H54603  -1.335  10.049   2.917 -0.8002 -0.3325  0.1646
  414MOL0     H54604  -1.554  10.085   2.914 -2.3500 -2.1123 -0.4315
  414MOL0     H54605  -1.509  10.091   3.085 -1.1752 -0.6097  0.1104
  414MOL0     H54606  -1.653   9.869   2.917  1.4163 -1.0221  0.5518
  414MOL0     H54607  -1.625   9.848   3.095  1.6184 -1.2348 -1.4648
  414MOL0     H54608  -1.788  10.074   2.963  1.0729  0.5146 -0.2395
  414MOL0     H54609  -1.776  10.062   3.130 -0.2946  0.5162 -0.4823
  414MOL0     H54610  -2.026   9.899   3.249 -0.5047 -1.7720 -0.6784
  414MOL0     H54611  -2.249  10.009   3.266 -1.7781 -0.7532  1.0298
  414MOL0     H54612  -2.671  10.187   2.983  0.6034  0.7851  0.8266
  414MOL0     H54613  -2.919  10.189   3.035 -2.2858  1.6645  4.6593
  414MOL0     H54614  -3.122  10.073   3.047 -1.5026 -0.2379 -0.0705
  414MOL0     H54615  -3.123  10.227   3.146 -0.4075  1.0244  1.1614
  414MOL0     H54616  -3.343  10.131   3.139  1.1310 -0.6634 -1.3884
  414MOL0     H54617  -3.287  10.112   3.303 -4.2375  0.0830 -1.0160
  414MOL0     H54618  -3.225   9.876   3.254  0.9976  2.9848  2.0788
  414MOL0     H54619  -3.320   9.890   3.098 -1.8471  1.1197  0.2862
  414MOL0     H54620  -3.403   9.939   3.391  0.6713 -1.5521 -0.0309
  414MOL0     H54621  -3.500   9.992   3.255  1.7614  1.9247 -0.4265
  414MOL0     H54622  -3.420   9.692   3.289 -1.5923 -0.9687 -1.9951
  414MOL0     H54623  -3.551   9.768   3.198  0.0353 -1.9499  0.0752
  414MOL0     H54624  -3.524   9.723   3.488 -1.7107 -1.3177  0.9440
  414MOL0     H54625  -3.632   9.659   3.376  2.7208 -1.2979 -0.7862
  414MOL0     H54626  -3.614   9.930   3.507  0.2660 -0.3062  0.9595
  414MOL0     H54627  -3.704   9.937   3.352 -0.7557  2.2794  1.7773
  414MOL0     H54628  -3.834   9.941   3.539  1.5465  1.0948 -1.5681
  414MOL0     H54629  -3.768   9.786   3.606  2.0806  0.8441  0.3588
  414MOL0     H54630  -2.847   9.937   3.378 -0.7431  1.0285  0.8564
  414MOL0     H54631  -2.616   9.927   3.329 -0.4205 -0.0273  1.4153
  414MOL0     H54632  -2.245  10.045   2.842  1.8652 -1.8777 -1.4062
  414MOL0     H54633  -2.010   9.969   2.832  1.3755 -3.0974  0.5994
  414MOL0     H54634  -0.250   9.531   2.613  0.0715  0.5909  0.8731
  414MOL0     H54635  -0.008   9.572   2.569 -2.0721  3.0184  1.7486
  414MOL0     H54636   0.385   9.478   2.553  1.6122 -1.3466 -1.4040
  414MOL0     H54637   0.616   9.472   2.470 -3.2229  1.9450 -0.1876
  414MOL0     H54638   0.908   9.269   2.742  2.0083 -1.1460 -1.0723
  414MOL0     H54639   0.970   9.443   2.751  0.6493  2.0818 -2.8385
  414MOL0     H54640   1.100   9.414   2.551  2.1642 -0.0416  1.2028
  414MOL0     H54641   1.145   9.316   2.683  0.4691 -2.7477 -1.7110
  414MOL0     H54642   1.003   9.184   2.458  1.8865  0.2113 -0.7481
  414MOL0     H54643   1.097   9.113   2.584  3.3773  1.4083  0.3573
  414MOL0     H54644   1.221   9.291   2.370  2.0088 -0.0786  0.3972
  414MOL0     H54645   1.295   9.237   2.514  0.5215 -2.0292  0.1680
  414MOL0     H54646   1.296   8.899   2.259  1.4655 -0.3621 -0.5512
  414MOL0     H54647   0.764   9.421   2.860  0.6303 -0.8590 -1.8285
  414MOL0     H54648   0.534   9.423   2.956 -5.8281 -1.4682 -0.2251
  415MOL0     O54649   5.210   5.900   3.173 -0.2797 -0.0607 -0.9338
  415MOL0     C54650   5.270   5.802   3.118  0.3272  0.2393  0.3799
  415MOL0     O54651   5.213   5.683   3.090  0.5410  0.3095  0.4154
  415MOL0     C54652   5.074   5.673   3.095 -0.6454  1.0266  0.1956
  415MOL0     C54653   4.993   5.662   2.973  0.4579 -0.4470  0.2981
  415MOL0     C54654   4.851   5.656   2.976 -0.5894 -0.2789  0.3375
  415MOL0     C54655   4.790   5.650   3.099  0.4530  0.1618  0.5624
  415MOL0     O54656   4.655   5.617   3.123 -0.5203  0.3294 -0.2218
  415MOL0     C54657   4.562   5.596   3.020 -0.3255 -0.0790  0.6469
  415MOL0     C54658   4.428   5.617   3.079 -0.5556 -0.5491 -0.8204
  415MOL0     C54659   4.316   5.597   2.981 -0.3683 -0.0565 -0.9899
  415MOL0     C54660   4.179   5.635   3.044  0.5278  0.1506 -0.1726
  415MOL0     C54661   4.067   5.608   2.941  0.2211  0.4172 -0.7843
  415MOL0     C54662   3.923   5.631   2.987  0.3763 -0.7671 -0.1716
  415MOL0     C54663   3.821   5.579   2.885 -1.0442 -0.2025  0.6418
  415MOL0     C54664   3.679   5.598   2.950 -0.2875 -0.5333 -0.2797
  415MOL0     N54665   3.575   5.513   2.890 -0.3889  0.8349  0.0887
  415MOL0     C54666   3.539   5.385   2.933 -0.0358 -0.4127 -0.1266
  415MOL0     C54667   3.452   5.333   2.843 -1.1573 -0.7505  0.3461
  415MOL0     C54668   3.383   5.203   2.845 -0.7644  0.6579 -0.7447
  415MOL0     C54669   3.250   5.221   2.930 -0.3100  0.1604 -0.3439
  415MOL0     C54670   3.167   5.094   2.903  0.7224 -0.2369  0.0099
  415MOL0     C54671   3.046   5.070   2.999 -0.5514  0.5824 -0.5112
  415MOL0     O54672   2.949   5.157   2.954  0.3852 -0.0249  0.9445
  415MOL0     C54673   2.845   5.090   2.903  0.4533 -1.0911  0.5930
  415MOL0     C54674   2.745   5.022   2.972 -0.1314 -0.8037 -0.1378
  415MOL0     C54675   2.647   4.948   2.907  0.0480 -0.6019 -0.6084
  415MOL0     C54676   2.637   4.958   2.768 -0.1119  0.4368 -0.4265
  415MOL0     C54677   2.518   4.902   2.703 -0.8383 -0.7611 -0.4879
  415MOL0     O54678   2.499   4.771   2.753 -0.1357  0.4722 -0.4585
  415MOL0     C54679   2.382   4.704   2.729 -0.2960  0.1611  0.4132
  415MOL0     C54680   2.258   4.755   2.747  0.0083 -0.1394  0.7097
  415MOL0     C54681   2.143   4.677   2.731 -0.1078 -0.5550  0.9239
  415MOL0     C54682   2.156   4.544   2.681  0.3206  0.2892 -0.1187
  415MOL0     O54683   2.050   4.469   2.643 -0.7883 -0.6698 -0.5095
  415MOL0     C54684   1.923   4.534   2.637  0.6468  0.3295  0.1502
  415MOL0     C54685   1.825   4.428   2.583 -0.0715 -0.1650  0.5719
  415MOL0     C54686   1.859   4.389   2.436  0.2103  0.0257 -0.8365
  415MOL0     C54687   1.759   4.300   2.384  0.1495  0.4398  0.5189
  415MOL0     C54688   1.796   4.276   2.242  0.3451 -0.6672 -0.0349
  415MOL0     C54689   1.689   4.198   2.164 -0.8185  0.4581  0.4895
  415MOL0     C54690   1.753   4.130   2.042 -0.5449  0.2259 -0.1875
  415MOL0     C54691   1.642   4.057   1.964 -0.0940  1.0530 -0.6755
  415MOL0    Cl54692   1.500   4.160   1.913 -0.2305  0.4029  0.3267
  415MOL0     C54693   2.288   4.495   2.662  0.2285 -0.5368  0.2715
  415MOL0     C54694   2.395   4.573   2.685 -0.7152 -0.6031  0.0963
  415MOL0     O54695   2.451   4.956   2.619 -0.8789 -0.1675  0.5515
  415MOL0     C54696   2.739   5.016   2.690  0.0769 -0.5098 -0.8706
  415MOL0     C54697   2.838   5.089   2.761 -0.4520 -0.5564  0.2617
  415MOL0     N54698   3.434   5.433   2.751  0.1645  0.1215 -0.3994
  415MOL0     N54699   3.502   5.544   2.783 -0.3718  0.1019 -0.1938
  415MOL0     C54700   4.866   5.661   3.221 -0.2831 -0.0563 -1.3167
  415MOL0     C54701   5.005   5.668   3.217 -0.0070  0.0944 -1.1189
  415MOL0     C54702   5.411   5.819   3.080  0.2027 -0.4011 -0.7608
  415MOL0     C54703   5.477   5.940   3.094  0.4865 -0.9844 -0.1594
  415MOL0     C54704   5.612   5.963   3.073 -0.0564 -0.2943 -1.1800
  415MOL0     C54705   5.686   5.853   3.041  0.0900 -0.2847  1.0110
  415MOL0     O54706   5.824   5.861   3.054  0.4567  0.1629 -0.3922
  415MOL0     C54707   5.908   5.747   3.057  0.6752  0.6633 -0.3523
  415MOL0     C54708   6.043   5.799   3.098 -0.6649  0.1592  0.2918
  415MOL0     C54709   6.124   5.885   2.998  0.0644 -0.8434 -0.1447
  415MOL0     C54710   6.222   5.980   3.065  0.6079  0.3729  0.0100
  415MOL0     C54711   6.313   5.893   3.144  0.0959 -0.0685  0.3663
  415MOL0     C54712   6.398   5.819   3.200 -0.6822  0.0996 -0.2979
  415MOL0     C54713   5.627   5.726   3.007  0.3053 -0.4248  0.1267
  415MOL0     C54714   5.494   5.717   3.032  0.4530  0.5243 -0.1610
  415MOL0     H54715   5.035   5.666   2.873 -3.3715  2.3502 -1.4207
  415MOL0     H54716   4.793   5.646   2.885  0.4287 -0.5536 -0.3007
  415MOL0     H54717   4.576   5.493   2.987  1.1106 -0.0976  1.2319
  415MOL0     H54718   4.565   5.658   2.930 -0.5342  1.0422  1.3922
  415MOL0     H54719   4.425   5.717   3.122  1.9507 -1.2943  1.3986
  415MOL0     H54720   4.407   5.537   3.152 -1.9749 -1.4197 -2.1080
  415MOL0     H54721   4.312   5.494   2.946  2.6019 -1.7745  2.9674
  415MOL0     H54722   4.329   5.671   2.901  0.0452 -0.8589 -1.6737
  415MOL0     H54723   4.167   5.568   3.129  0.2756  0.4199  0.0063
  415MOL0     H54724   4.163   5.733   3.089 -0.5212 -0.9609  2.0270
  415MOL0     H54725   4.068   5.501   2.915 -1.9980 -0.2219  1.3066
  415MOL0     H54726   4.078   5.670   2.853 -1.1800  0.1416 -1.1818
  415MOL0     H54727   3.907   5.737   3.009 -0.0230 -1.1913  1.8066
  415MOL0     H54728   3.913   5.577   3.082  0.9805 -0.0646  0.3087
  415MOL0     H54729   3.833   5.636   2.792 -0.3362 -1.6973 -0.2093
  415MOL0     H54730   3.855   5.478   2.861  0.8703  0.4520  0.4780
  415MOL0     H54731   3.649   5.703   2.950  0.0884 -0.3214 -3.4754
  415MOL0     H54732   3.691   5.571   3.055 -1.6962  1.6955  0.5340
  415MOL0     H54733   3.570   5.330   3.021 -1.0694  0.0146  0.5204
  415MOL0     H54734   3.435   5.110   2.872 -2.2069 -0.2369 -0.9287
  415MOL0     H54735   3.353   5.180   2.742  0.5027 -0.4661 -0.8987
  415MOL0     H54736   3.211   5.316   2.893 -0.1314 -0.1060 -1.2406
  415MOL0     H54737   3.264   5.227   3.039 -1.8185 -0.2505 -0.0938
  415MOL0     H54738   3.142   5.087   2.797  1.6380 -1.2370 -0.1566
  415MOL0     H54739   3.239   5.015   2.929  2.2614  1.2395  0.4461
  415MOL0     H54740   3.063   5.088   3.105 -3.5185 -0.5046  0.2648
  415MOL0     H54741   3.021   4.963   2.999  1.5328  0.0453 -1.6599
  415MOL0     H54742   2.755   5.022   3.080  1.8061 -0.7574 -0.2734
  415MOL0     H54743   2.574   4.913   2.980 -2.3771  2.8372 -1.1733
  415MOL0     H54744   2.238   4.855   2.784 -0.5759  1.4816 -3.4343
  415MOL0     H54745   2.047   4.725   2.747 -0.8465 -2.0607  1.1984
  415MOL0     H54746   1.914   4.626   2.578 -1.5077 -0.2675 -0.5438
  415MOL0     H54747   1.882   4.568   2.733 -2.8287 -0.0153 -1.0828
  415MOL0     H54748   1.725   4.471   2.591 -1.7900 -3.8062  0.7673
  415MOL0     H54749   1.834   4.330   2.632  1.6745 -1.1808 -1.5939
  415MOL0     H54750   1.960   4.346   2.430  0.1717  0.0429 -1.7871
  415MOL0     H54751   1.854   4.477   2.371  1.8765 -0.5112 -1.7654
  415MOL0     H54752   1.753   4.201   2.432 -3.5039  1.1658  1.8862
  415MOL0     H54753   1.660   4.345   2.397 -1.6480 -2.7091 -1.0549
  415MOL0     H54754   1.899   4.240   2.234  0.4034 -0.0654 -4.0171
  415MOL0     H54755   1.809   4.373   2.193 -1.6125  0.0184  0.6960
  415MOL0     H54756   1.613   4.269   2.130  0.2886  2.4818  2.0158
  415MOL0     H54757   1.649   4.116   2.225 -0.4081 -0.1628 -0.0660
  415MOL0     H54758   1.803   4.200   1.975  0.7126 -0.7885 -0.3525
  415MOL0     H54759   1.831   4.061   2.076 -1.1261 -0.1527  0.4032
  415MOL0     H54760   1.594   3.974   2.018  0.6441  2.0958  1.7466
  415MOL0     H54761   1.688   4.007   1.879 -0.2882 -0.4626  0.0706
  415MOL0     H54762   2.307   4.399   2.617  1.7889 -0.8204  1.4616
  415MOL0     H54763   2.499   4.550   2.664  0.5854  2.4134  2.4924
  415MOL0     H54764   2.730   5.020   2.582 -1.1273  1.8341 -0.7468
  415MOL0     H54765   2.917   5.132   2.700 -1.2468 -0.7496 -0.9449
  415MOL0     H54766   4.818   5.657   3.318  3.0880  0.2037  0.5340
  415MOL0     H54767   5.054   5.671   3.314 -0.2269 -2.4641 -0.8481
  415MOL0     H54768   5.414   6.024   3.123 -0.3402 -2.4579  2.5706
  415MOL0     H54769   5.655   6.059   3.100  0.9352 -1.2711  1.0355
  415MOL0     H54770   5.914   5.696   2.960 -0.0452  3.2013 -1.7991
  415MOL0     H54771   5.868   5.683   3.136 -3.5304  4.0509  0.6599
  415MOL0     H54772   6.023   5.856   3.190 -0.5282  1.1463 -0.2796
  415MOL0     H54773   6.112   5.717   3.118 -0.7903 -0.0750 -0.2169
  415MOL0     H54774   6.053   5.951   2.947  0.2165  0.9276  1.8028
  415MOL0     H54775   6.164   5.815   2.925 -2.7936 -0.3558 -2.3624
  415MOL0     H54776   6.281   6.030   2.987 -1.5404  0.9962 -1.3316
  415MOL0     H54777   6.165   6.053   3.124 -0.4311  0.6880 -1.3244
  415MOL0     H54778   6.464   5.748   3.244  1.1376  0.4453 -2.2987
  415MOL0     H54779   5.675   5.636   2.970  2.3723  0.3739  0.7481
  415MOL0     H54780   5.436   5.626   3.028 -0.5375  1.1862 -1.0897
  416MOL0     O54781  11.046   1.025   4.937 -0.1707  0.1328 -0.9077
  416MOL0     C54782  11.031   1.050   5.059 -0.3066  0.5369 -0.1920
  416MOL0     O54783  10.917   1.022   5.133 -0.6336 -0.4139 -0.1012
  416MOL0     C54784  10.816   0.940   5.084  0.3061 -0.2187 -0.3739
  416MOL0     C54785  10.681   0.945   5.148 -0.2170 -0.2325  0.0008
  416MOL0     C54786  10.577   0.865   5.117 -0.1874  0.5046  0.5937
  416MOL0     C54787  10.591   0.782   5.006  0.0863 -0.4044 -0.3825
  416MOL0     O54788  10.486   0.705   4.961 -0.0682 -0.4351 -0.0578
  416MOL0     C54789  10.350   0.724   5.001 -0.6436 -1.0016  0.9116
  416MOL0     C54790  10.242   0.669   4.895  0.1528  0.1328  0.2719
  416MOL0     C54791  10.159   0.782   4.831  0.3949  0.6947  0.7131
  416MOL0     C54792  10.054   0.738   4.735  0.1179  0.8928  0.1889
  416MOL0     C54793   9.977   0.864   4.687  0.6084  0.1967  0.3994
  416MOL0     C54794   9.885   0.833   4.563  0.0246 -0.2658 -0.1377
  416MOL0     C54795   9.742   0.786   4.613  0.4441 -0.5644  0.8070
  416MOL0     C54796   9.636   0.801   4.500 -0.4228 -0.6044 -0.0161
  416MOL0     N54797   9.508   0.857   4.535 -0.0201  0.7558  0.5284
  416MOL0     C54798   9.399   0.776   4.564 -0.3958 -0.3969  0.8718
  416MOL0     C54799   9.295   0.857   4.585  0.5330 -0.5621  0.3528
  416MOL0     C54800   9.160   0.829   4.619 -0.0119 -0.0828 -0.0167
  416MOL0     C54801   9.077   0.799   4.502 -0.3861  0.4947  0.7861
  416MOL0     C54802   8.930   0.784   4.546  0.8986  0.0983 -0.2432
  416MOL0     C54803   8.845   0.800   4.423  0.5125  0.6767 -0.7554
  416MOL0     O54804   8.712   0.753   4.451 -0.1415 -0.8981 -0.0933
  416MOL0     C54805   8.615   0.760   4.351  0.6011 -0.6663  0.2202
  416MOL0     C54806   8.494   0.686   4.377 -0.3061 -0.7379 -0.6909
  416MOL0     C54807   8.376   0.701   4.303 -0.2721 -0.7162  0.1369
  416MOL0     C54808   8.374   0.782   4.188  0.4872 -0.4448 -0.0173
  416MOL0     C54809   8.258   0.790   4.089  0.5842 -0.1628  0.2488
  416MOL0     O54810   8.275   0.855   3.968  0.9701  0.5156  0.0789
  416MOL0     C54811   8.175   0.861   3.873  0.4810 -0.2372 -0.1146
  416MOL0     C54812   8.039   0.873   3.904  0.7027  0.0607 -0.8560
  416MOL0     C54813   7.940   0.898   3.812 -0.1016 -1.0839  0.1818
  416MOL0     C54814   7.973   0.912   3.672 -0.3132 -0.4961  0.6823
  416MOL0     O54815   7.875   0.939   3.575 -0.3959  0.1394  0.5026
  416MOL0     C54816   7.902   0.962   3.433 -0.5156 -0.3993 -0.5912
  416MOL0     C54817   7.931   0.833   3.351  0.8979 -0.2315  0.5938
  416MOL0     C54818   7.807   0.748   3.327  0.1022  0.4670 -0.6854
  416MOL0     C54819   7.839   0.652   3.215 -0.1930  0.0880 -0.2528
  416MOL0     C54820   7.716   0.563   3.206 -0.8377  0.3122  0.6195
  416MOL0     C54821   7.744   0.476   3.081 -0.5118 -0.2179 -0.0034
  416MOL0     C54822   7.631   0.387   3.057  0.4102  0.3904  0.2808
  416MOL0     C54823   7.640   0.329   2.916  0.0244 -0.6462 -0.6858
  416MOL0    Cl54824   7.597   0.446   2.790 -0.1291  0.5873  0.2420
  416MOL0     C54825   8.110   0.908   3.640 -0.0786  0.4155 -0.3482
  416MOL0     C54826   8.212   0.879   3.738  0.5108 -0.0592  0.1038
  416MOL0     O54827   8.162   0.732   4.124 -0.5804  0.1730  0.1799
  416MOL0     C54828   8.498   0.845   4.154 -0.0526  0.0110  0.1646
  416MOL0     C54829   8.612   0.830   4.237 -0.1465  0.1777 -0.0234
  416MOL0     N54830   9.349   0.985   4.565 -0.0283  0.0703  0.0040
  416MOL0     N54831   9.476   0.985   4.535  1.1343 -0.0382 -0.9494
  416MOL0     C54832  10.713   0.773   4.932 -0.6023  0.3821  0.2812
  416MOL0     C54833  10.827   0.849   4.976  0.2695  0.3517  0.8979
  416MOL0     C54834  11.143   1.102   5.131 -0.4722 -0.2092  1.1321
  416MOL0     C54835  11.147   1.148   5.262  0.2386 -0.6469 -0.0110
  416MOL0     C54836  11.260   1.204   5.323  0.0221 -0.1754 -0.2310
  416MOL0     C54837  11.380   1.206   5.256  0.8397 -0.1890  0.4217
  416MOL0     O54838  11.484   1.265   5.317 -0.1165  0.7288 -0.5365
  416MOL0     C54839  11.594   1.313   5.243  0.4932  0.0287  0.4312
  416MOL0     C54840  11.690   1.388   5.341 -0.2167 -0.5479 -0.8129
  416MOL0     C54841  11.795   1.474   5.273 -0.3220 -0.1069 -1.1310
  416MOL0     C54842  11.904   1.544   5.356  0.4957  1.5859 -0.6282
  416MOL0     C54843  11.955   1.450   5.461  0.6969 -0.0971  0.5207
  416MOL0     C54844  11.980   1.377   5.553 -0.1831 -0.2122 -0.4392
  416MOL0     C54845  11.379   1.165   5.123 -0.6625  0.6924 -1.0953
  416MOL0     C54846  11.267   1.121   5.057  0.7404 -0.4162  0.3986
  416MOL0     H54847  10.666   1.014   5.231 -2.1916  1.3187 -1.5347
  416MOL0     H54848  10.487   0.881   5.176 -0.4900  1.0606  0.0073
  416MOL0     H54849  10.322   0.827   5.028 -0.8818 -0.5307 -0.9951
  416MOL0     H54850  10.326   0.658   5.085 -1.8091  1.8662  3.0294
  416MOL0     H54851  10.180   0.600   4.954 -0.7693  0.1108 -0.7013
  416MOL0     H54852  10.292   0.609   4.818 -1.0290 -0.2850 -0.1899
  416MOL0     H54853  10.227   0.854   4.784  1.3487 -0.2949  0.5249
  416MOL0     H54854  10.105   0.831   4.912  1.0085  1.2803  0.7750
  416MOL0     H54855  10.099   0.698   4.644  0.9762  0.5878  0.7388
  416MOL0     H54856   9.997   0.660   4.786  3.1234  0.1014  2.7077
  416MOL0     H54857  10.053   0.934   4.650  0.2877 -0.3873 -1.4993
  416MOL0     H54858   9.933   0.919   4.770 -0.4603 -1.2368  0.8112
  416MOL0     H54859   9.938   0.756   4.507 -1.8780 -2.4494  0.9216
  416MOL0     H54860   9.883   0.918   4.494  0.2635  0.9578  1.2797
  416MOL0     H54861   9.755   0.682   4.643 -0.1950 -0.1059  2.8454
  416MOL0     H54862   9.710   0.847   4.698  0.4920  1.8040 -0.7539
  416MOL0     H54863   9.634   0.700   4.459  0.7594 -1.1306  1.1208
  416MOL0     H54864   9.677   0.863   4.420 -0.7513  1.6498  1.4549
  416MOL0     H54865   9.400   0.667   4.570 -2.8013 -0.6111 -0.8569
  416MOL0     H54866   9.133   0.923   4.668 -0.6174 -0.5394  0.5486
  416MOL0     H54867   9.147   0.752   4.696 -0.8308  0.8808  0.8376
  416MOL0     H54868   9.119   0.701   4.478  0.1001  0.1249  2.8870
  416MOL0     H54869   9.098   0.877   4.428 -2.7495  0.1225 -0.3580
  416MOL0     H54870   8.924   0.683   4.587  1.5698  0.3179  0.4112
  416MOL0     H54871   8.891   0.855   4.619 -1.9592 -0.0401 -1.5107
  416MOL0     H54872   8.888   0.741   4.342 -0.1697 -1.1127  0.1339
  416MOL0     H54873   8.846   0.907   4.402  0.1068  0.7705 -0.3207
  416MOL0     H54874   8.485   0.628   4.468 -0.6400  0.5572  0.1412
  416MOL0     H54875   8.279   0.663   4.333 -0.2878  1.0046  2.6498
  416MOL0     H54876   7.993   0.882   4.002 -0.2305  1.2262 -1.3737
  416MOL0     H54877   7.836   0.917   3.839 -0.1126 -1.5432  0.4718
  416MOL0     H54878   7.983   1.033   3.415 -0.1867 -0.7432 -0.4711
  416MOL0     H54879   7.809   1.008   3.399 -0.2893  0.9582  0.5321
  416MOL0     H54880   8.006   0.767   3.396  1.2762 -0.5584 -0.4871
  416MOL0     H54881   7.967   0.870   3.254  1.9454 -0.6287  0.8132
  416MOL0     H54882   7.726   0.814   3.295  0.0483  1.6731  1.7020
  416MOL0     H54883   7.794   0.689   3.418 -0.7470 -0.2063 -1.2324
  416MOL0     H54884   7.870   0.709   3.127  1.2849  2.3716  1.6238
  416MOL0     H54885   7.920   0.585   3.246  0.5262  0.4392 -1.3292
  416MOL0     H54886   7.622   0.615   3.184 -1.4346 -1.5540 -1.6783
  416MOL0     H54887   7.699   0.513   3.302 -2.1381 -0.1093  0.1922
  416MOL0     H54888   7.835   0.416   3.091  0.5709  1.5249  1.1576
  416MOL0     H54889   7.755   0.537   2.991 -0.8717  0.2187  0.2410
  416MOL0     H54890   7.646   0.304   3.126  4.2381  1.6235  1.1800
  416MOL0     H54891   7.534   0.436   3.068 -0.0909 -0.2004 -1.2362
  416MOL0     H54892   7.559   0.256   2.904  0.0236 -0.6148 -0.8773
  416MOL0     H54893   7.735   0.276   2.903  0.4095 -0.0409 -0.3443
  416MOL0     H54894   8.154   0.930   3.543 -0.3692  1.1190 -0.3269
  416MOL0     H54895   8.318   0.878   3.715  0.3914  1.6434 -0.7238
  416MOL0     H54896   8.517   0.908   4.068  3.5815  1.6272  1.9373
  416MOL0     H54897   8.699   0.882   4.197  0.4802 -1.2462 -0.5609
  416MOL0     H54898  10.727   0.712   4.843  0.9873  2.2798 -0.8472
  416MOL0     H54899  10.909   0.832   4.907  0.4182  1.2418  0.8387
  416MOL0     H54900  11.049   1.139   5.306  0.8081 -0.3413  1.3719
  416MOL0     H54901  11.261   1.245   5.424 -1.0181 -0.6283 -0.0175
  416MOL0     H54902  11.568   1.378   5.159 -1.4715  0.3582  1.2353
  416MOL0     H54903  11.643   1.222   5.206 -0.1236  1.0909 -3.5181
  416MOL0     H54904  11.630   1.458   5.400  1.8178 -1.0021  2.0293
  416MOL0     H54905  11.742   1.321   5.410  1.0104  1.7785  0.6697
  416MOL0     H54906  11.748   1.555   5.217 -3.4521 -1.7451 -1.0824
  416MOL0     H54907  11.843   1.410   5.197 -0.2478 -0.5210 -0.7360
  416MOL0     H54908  11.983   1.575   5.288  1.3577  1.4752  0.3004
  416MOL0     H54909  11.874   1.629   5.418 -0.6545  0.7507  0.0049
  416MOL0     H54910  12.020   1.314   5.631 -1.0199 -1.6571 -1.1363
  416MOL0     H54911  11.466   1.184   5.061 -1.0135 -2.9093 -2.9383
  416MOL0     H54912  11.271   1.125   4.949 -0.3813 -1.7190  0.2790
  417MOL0     O54913   6.491   2.731   4.742 -0.3993 -0.4960 -0.7055
  417MOL0     C54914   6.563   2.710   4.641  1.7715 -0.2248  0.2185
  417MOL0     O54915   6.510   2.701   4.513  0.3853  0.4115 -0.5005
  417MOL0     C54916   6.385   2.753   4.495  0.4480 -0.5064  0.6361
  417MOL0     C54917   6.353   2.881   4.531 -0.2015  0.1346 -0.0559
  417MOL0     C54918   6.237   2.951   4.501 -0.5827 -0.2155  0.3539
  417MOL0     C54919   6.146   2.886   4.415  0.2504 -0.1801  0.6090
  417MOL0     O54920   6.027   2.947   4.381  0.0611  0.2788 -0.1666
  417MOL0     C54921   5.967   3.060   4.457  0.5655  1.0336  0.0481
  417MOL0     C54922   5.813   3.061   4.426 -1.2836  0.5182  0.0090
  417MOL0     C54923   5.751   2.949   4.512  0.5495  0.2807 -0.5367
  417MOL0     C54924   5.591   2.943   4.500 -0.0719  0.1585  0.7717
  417MOL0     C54925   5.550   2.886   4.357 -0.0711 -0.3644 -0.5254
  417MOL0     C54926   5.391   2.859   4.347 -0.0702  0.1461  0.2476
  417MOL0     C54927   5.315   2.994   4.356  0.8141  0.3619  0.6534
  417MOL0     C54928   5.188   2.995   4.254 -0.0651 -0.6940 -0.3984
  417MOL0     N54929   5.146   3.134   4.241 -0.4797  0.3453  0.4511
  417MOL0     C54930   5.040   3.194   4.305  1.3108 -0.5601  0.5492
  417MOL0     C54931   5.034   3.323   4.269  0.2550  0.0200  0.8043
  417MOL0     C54932   4.936   3.418   4.315 -0.1191 -0.3587 -0.1143
  417MOL0     C54933   4.817   3.413   4.214 -1.6495  0.6190 -0.2829
  417MOL0     C54934   4.704   3.311   4.240 -0.5056  0.2164 -0.0417
  417MOL0     C54935   4.598   3.330   4.124  0.4715 -0.5640 -0.8785
  417MOL0     O54936   4.506   3.224   4.138 -0.1033 -0.7224  0.6076
  417MOL0     C54937   4.388   3.249   4.071 -0.4879  0.6754  0.7465
  417MOL0     C54938   4.279   3.211   4.142  0.3192 -0.2861 -0.3281
  417MOL0     C54939   4.152   3.212   4.086  0.2373  0.5664  0.5445
  417MOL0     C54940   4.143   3.280   3.960  0.5613 -0.0669 -0.0503
  417MOL0     C54941   4.010   3.289   3.896  0.1232 -0.5476 -0.4975
  417MOL0     O54942   3.913   3.245   3.974 -0.6522  0.0013  0.3970
  417MOL0     C54943   3.773   3.269   3.944  0.1724  0.2985  0.4803
  417MOL0     C54944   3.681   3.161   3.965 -0.0827 -0.4552  1.3309
  417MOL0     C54945   3.543   3.176   3.954  0.3095  0.5615 -0.5135
  417MOL0     C54946   3.494   3.298   3.929  0.0017 -0.1614 -0.2914
  417MOL0     O54947   3.356   3.315   3.944 -0.0358  0.4867  0.3251
  417MOL0     C54948   3.285   3.431   3.904  0.7292 -0.0993  0.4446
  417MOL0     C54949   3.150   3.428   3.969  0.9664  0.3974  0.1062
  417MOL0     C54950   3.063   3.309   3.928 -0.4143  0.1935 -0.8585
  417MOL0     C54951   2.925   3.298   3.994  0.5486 -0.0215 -0.2889
  417MOL0     C54952   2.808   3.379   3.937  0.4361 -0.4542  0.5439
  417MOL0     C54953   2.674   3.312   3.960  0.1612 -0.5206  0.2756
  417MOL0     C54954   2.632   3.313   4.105 -0.9762  0.2965  0.1650
  417MOL0     C54955   2.483   3.294   4.127  0.6150  0.1188  1.1758
  417MOL0    Cl54956   2.413   3.160   4.024  0.3331  0.3655 -0.3104
  417MOL0     C54957   3.582   3.405   3.913 -0.1401  0.8916  0.1025
  417MOL0     C54958   3.720   3.391   3.918  0.0556 -0.1737 -0.2521
  417MOL0     O54959   3.992   3.358   3.797  0.0731 -0.1778 -0.5476
  417MOL0     C54960   4.252   3.339   3.898  0.9914 -0.4698  0.2386
  417MOL0     C54961   4.383   3.310   3.943 -0.2026  0.0306  0.9145
  417MOL0     N54962   5.148   3.342   4.185  0.4589  0.0564 -0.4402
  417MOL0     N54963   5.205   3.221   4.159 -0.0621 -0.9545  0.9253
  417MOL0     C54964   6.168   2.751   4.376  0.1130 -0.1672  0.1442
  417MOL0     C54965   6.291   2.683   4.410 -0.4540 -0.6213  0.1753
  417MOL0     C54966   6.706   2.707   4.651 -0.0179  0.7061 -1.1447
  417MOL0     C54967   6.796   2.677   4.546 -0.1327  0.0605 -0.9307
  417MOL0     C54968   6.933   2.691   4.571 -0.6683  0.0250 -0.5554
  417MOL0     C54969   6.982   2.715   4.698  0.2257 -0.7264 -1.5128
  417MOL0     O54970   7.117   2.716   4.724  0.1579 -0.0932 -0.4070
  417MOL0     C54971   7.172   2.591   4.686  0.2691 -0.7770  0.1406
  417MOL0     C54972   7.115   2.483   4.772  0.7441 -0.9904 -0.1019
  417MOL0     C54973   7.185   2.354   4.765  0.0423 -0.3364 -0.5814
  417MOL0     C54974   7.112   2.244   4.845  0.1379  0.8765 -0.7928
  417MOL0     C54975   7.140   2.248   4.992 -0.4250 -0.6314 -0.2176
  417MOL0     C54976   7.148   2.252   5.117 -0.2780  0.0625  0.4501
  417MOL0     C54977   6.895   2.735   4.807 -0.3874 -0.5819 -0.4477
  417MOL0     C54978   6.760   2.733   4.784  0.4198 -0.7378  0.1602
  417MOL0     H54979   6.435   2.938   4.573 -1.0088  1.4937 -0.2265
  417MOL0     H54980   6.228   3.054   4.536 -1.1764 -1.3468  3.9057
  417MOL0     H54981   6.014   3.156   4.436 -1.5677  2.4838  1.4247
  417MOL0     H54982   5.978   3.040   4.564 -0.0919  0.4664  0.0196
  417MOL0     H54983   5.802   3.040   4.319  1.0199 -1.8785  0.1269
  417MOL0     H54984   5.767   3.154   4.461  0.7143  3.0659 -3.5119
  417MOL0     H54985   5.788   2.967   4.613  2.1749  2.4300 -1.4462
  417MOL0     H54986   5.804   2.859   4.481  1.2520  1.0728 -1.7018
  417MOL0     H54987   5.549   2.877   4.577  1.9328  1.4484  3.1079
  417MOL0     H54988   5.538   3.037   4.511 -2.2319 -0.6109 -1.8673
  417MOL0     H54989   5.604   2.792   4.341 -0.0876 -0.4719  0.0280
  417MOL0     H54990   5.579   2.967   4.290 -1.0623  1.5400  1.2600
  417MOL0     H54991   5.363   2.786   4.423  1.9538 -0.0597  0.8566
  417MOL0     H54992   5.364   2.817   4.249 -2.7151 -2.7599  2.0614
  417MOL0     H54993   5.291   3.025   4.458 -0.2292  1.1109  0.1994
  417MOL0     H54994   5.381   3.067   4.308 -0.5847  1.1643 -0.1034
  417MOL0     H54995   5.102   2.939   4.292  2.5734 -3.3867  2.2071
  417MOL0     H54996   5.207   2.962   4.151 -0.9292  1.1373 -1.1767
  417MOL0     H54997   4.980   3.147   4.382  0.0986  1.5263  0.9612
  417MOL0     H54998   4.976   3.519   4.323 -1.9178  0.5746 -1.8352
  417MOL0     H54999   4.898   3.374   4.408 -0.0473 -1.6469 -0.6729
  417MOL0     H55000   4.859   3.410   4.113 -1.7965  0.8116 -0.3491
  417MOL0     H55001   4.775   3.514   4.217 -0.7287  1.0647 -1.6194
  417MOL0     H55002   4.742   3.210   4.255  0.8807  0.8737  1.1373
  417MOL0     H55003   4.655   3.334   4.335 -3.5936 -3.8369 -0.4158
  417MOL0     H55004   4.644   3.331   4.025 -0.2513 -2.5930 -1.2914
  417MOL0     H55005   4.559   3.430   4.144  1.7607 -0.5013  1.6186
  417MOL0     H55006   4.276   3.197   4.249 -0.7268  1.6800 -0.0673
  417MOL0     H55007   4.069   3.169   4.140 -0.5943 -1.3182 -2.0443
  417MOL0     H55008   3.723   3.063   3.985 -0.6702 -1.1559 -0.6730
  417MOL0     H55009   3.469   3.097   3.968 -1.6576  2.5483  1.1064
  417MOL0     H55010   3.277   3.439   3.795  1.0426 -2.3329  0.2220
  417MOL0     H55011   3.335   3.521   3.941 -2.0493  1.7531  0.0440
  417MOL0     H55012   3.105   3.516   3.922  3.4996  0.9596 -1.4627
  417MOL0     H55013   3.153   3.447   4.077 -1.3533  2.5674 -0.1273
  417MOL0     H55014   3.117   3.216   3.949 -0.1598  0.5196 -0.0010
  417MOL0     H55015   3.043   3.313   3.821 -1.7714  4.2988 -0.6235
  417MOL0     H55016   2.900   3.191   3.994  0.5024 -0.1142  3.0668
  417MOL0     H55017   2.931   3.323   4.101 -0.7273  0.2190 -0.2495
  417MOL0     H55018   2.823   3.392   3.829  1.4372 -2.4112  0.4007
  417MOL0     H55019   2.804   3.479   3.980 -0.3206 -0.2821  0.0871
  417MOL0     H55020   2.688   3.211   3.920  2.2635  0.2191 -1.0406
  417MOL0     H55021   2.596   3.367   3.906 -1.1680 -2.5037  0.0716
  417MOL0     H55022   2.671   3.219   4.145 -1.1124  0.0675 -0.2305
  417MOL0     H55023   2.658   3.400   4.166 -0.6645 -1.5172  2.7595
  417MOL0     H55024   2.421   3.379   4.096 -1.3660 -1.9129 -0.8351
  417MOL0     H55025   2.450   3.269   4.228 -2.2050 -3.8181 -0.4542
  417MOL0     H55026   3.551   3.509   3.910  1.5357  1.4668  1.2042
  417MOL0     H55027   3.783   3.478   3.906  1.3629 -0.8827  1.0663
  417MOL0     H55028   4.253   3.397   3.806  0.6243  0.6487  0.9177
  417MOL0     H55029   4.469   3.342   3.886  0.3208 -3.1341 -0.2326
  417MOL0     H55030   6.089   2.709   4.316  1.4397  1.5443 -3.0296
  417MOL0     H55031   6.311   2.581   4.380  1.8828  0.4171 -2.1568
  417MOL0     H55032   6.769   2.643   4.446 -1.1971  1.8865 -1.3149
  417MOL0     H55033   7.007   2.684   4.492  1.2680  0.8339  1.0740
  417MOL0     H55034   7.281   2.583   4.700  0.7619 -2.9361 -3.5196
  417MOL0     H55035   7.144   2.566   4.584 -1.7681 -2.5254  1.0488
  417MOL0     H55036   7.123   2.509   4.878 -0.8468  1.7012 -0.5535
  417MOL0     H55037   7.009   2.471   4.748  0.3299  0.2366  1.0426
  417MOL0     H55038   7.284   2.375   4.806 -0.1588  1.7729 -1.0445
  417MOL0     H55039   7.181   2.323   4.661 -0.4711 -0.3543 -0.5607
  417MOL0     H55040   7.006   2.245   4.818  0.1150  1.4720 -0.6883
  417MOL0     H55041   7.154   2.148   4.815 -2.3792 -1.3898  2.3150
  417MOL0     H55042   7.149   2.245   5.224 -1.8173 -5.6185  0.4068
  417MOL0     H55043   6.926   2.743   4.911 -1.3492 -1.4235 -0.0809
  417MOL0     H55044   6.703   2.752   4.874 -1.4016  0.6147 -1.2143
  418MOL0     O55045  10.588   2.772   3.604  0.2262  0.5325 -0.1615
  418MOL0     C55046  10.634   2.814   3.502  0.1605  0.3095  0.0519
  418MOL0     O55047  10.560   2.870   3.400  0.4470 -0.3125  0.5257
  418MOL0     C55048  10.420   2.859   3.412  0.3200 -0.0680  0.0320
  418MOL0     C55049  10.357   2.732   3.405 -0.2638  0.1870  0.7080
  418MOL0     C55050  10.214   2.720   3.395  0.4148 -0.1434 -0.7872
  418MOL0     C55051  10.137   2.834   3.396  0.3413  0.5334  0.1817
  418MOL0     O55052   9.993   2.843   3.391 -0.0760 -0.3764 -0.5386
  418MOL0     C55053   9.909   2.723   3.398  0.5072 -0.2643  0.0577
  418MOL0     C55054   9.769   2.759   3.357  0.6295  0.1454  0.9246
  418MOL0     C55055   9.679   2.635   3.316 -0.2421 -1.0085  0.2719
  418MOL0     C55056   9.543   2.674   3.272 -0.3893 -0.1506  1.4475
  418MOL0     C55057   9.439   2.566   3.313  0.4433 -0.2040 -0.6787
  418MOL0     C55058   9.334   2.580   3.216 -0.4691 -0.1033  0.7534
  418MOL0     C55059   9.208   2.488   3.254  0.3556 -0.3698 -1.0870
  418MOL0     C55060   9.258   2.338   3.268 -0.0321  0.3081 -0.1190
  418MOL0     N55061   9.147   2.253   3.283 -0.3163  0.0458  0.0975
  418MOL0     C55062   9.027   2.283   3.344  0.8549 -0.2550 -0.2644
  418MOL0     C55063   8.941   2.183   3.320  0.4020 -0.0025  0.7051
  418MOL0     C55064   8.798   2.175   3.361 -0.3764  0.8997 -0.3623
  418MOL0     C55065   8.773   2.048   3.438  0.2253 -0.7520 -1.0934
  418MOL0     C55066   8.624   2.041   3.490  0.0417 -0.0198  0.5518
  418MOL0     C55067   8.579   2.138   3.596  0.6169  0.1307  0.3294
  418MOL0     O55068   8.561   2.269   3.536 -0.3100  0.5577 -0.3178
  418MOL0     C55069   8.451   2.336   3.577  0.0189 -0.2967  0.0330
  418MOL0     C55070   8.351   2.372   3.491 -0.7948 -0.3093 -0.8885
  418MOL0     C55071   8.240   2.440   3.536  0.6236 -0.1116 -0.2607
  418MOL0     C55072   8.212   2.462   3.675 -0.8743  0.4083  0.4944
  418MOL0     C55073   8.083   2.519   3.732 -0.1167 -0.1356  0.0351
  418MOL0     O55074   7.996   2.574   3.639 -0.4064 -0.3347 -0.3785
  418MOL0     C55075   7.868   2.601   3.670 -0.8966  0.1141 -0.6183
  418MOL0     C55076   7.768   2.510   3.693 -0.1780  0.2144 -0.6707
  418MOL0     C55077   7.642   2.545   3.733 -0.2583 -0.0974  0.9255
  418MOL0     C55078   7.607   2.684   3.750 -0.1566  0.0563  0.8976
  418MOL0     O55079   7.483   2.713   3.790 -0.4513 -0.8566  0.2605
  418MOL0     C55080   7.462   2.857   3.808  0.1617 -0.1614  0.0432
  418MOL0     C55081   7.319   2.868   3.861 -0.1191  0.2147  0.3072
  418MOL0     C55082   7.221   2.875   3.747 -1.0042 -0.1452  0.0568
  418MOL0     C55083   7.079   2.868   3.795  0.3296  0.0468 -0.3793
  418MOL0     C55084   6.983   2.906   3.674 -0.1734 -0.6317  0.4898
  418MOL0     C55085   6.843   2.933   3.729  0.0715  0.5735 -0.9438
  418MOL0     C55086   6.746   3.007   3.635  0.7801 -0.7362 -1.1899
  418MOL0     C55087   6.610   3.005   3.704 -0.6363 -0.8043  0.3385
  418MOL0    Cl55088   6.491   3.088   3.599 -0.3818  0.0876 -0.2778
  418MOL0     C55089   7.713   2.774   3.720  0.4935 -0.5256 -0.7123
  418MOL0     C55090   7.833   2.733   3.689  0.0556  0.0201 -0.0957
  418MOL0     O55091   8.062   2.508   3.852  0.1592  0.2433  0.2409
  418MOL0     C55092   8.313   2.427   3.759  0.0713  0.1608 -0.0945
  418MOL0     C55093   8.433   2.363   3.713 -0.4331  0.4185 -0.8275
  418MOL0     N55094   8.998   2.090   3.240 -0.6358 -0.0634 -0.3758
  418MOL0     N55095   9.124   2.135   3.216  0.0921  0.0463  0.1724
  418MOL0     C55096  10.198   2.961   3.400 -0.3112 -0.0781 -0.7650
  418MOL0     C55097  10.334   2.971   3.414  0.4460 -0.0166 -0.4862
  418MOL0     C55098  10.776   2.808   3.487 -0.0372 -0.3991  0.4788
  418MOL0     C55099  10.845   2.869   3.379  0.0865 -0.3413  0.7842
  418MOL0     C55100  10.989   2.853   3.381  0.6101  0.8065  0.0837
  418MOL0     C55101  11.056   2.796   3.487  0.1575  0.7932  0.4850
  418MOL0     O55102  11.194   2.788   3.461  0.2382 -0.5430  0.2412
  418MOL0     C55103  11.266   2.699   3.554  0.3659 -0.3153  0.0815
  418MOL0     C55104  11.396   2.651   3.498 -0.4281  0.3396 -0.6659
  418MOL0     C55105  11.467   2.770   3.433 -1.0582 -0.0769 -0.3798
  418MOL0     C55106  11.613   2.751   3.381  0.3144  0.5624 -0.4767
  418MOL0     C55107  11.704   2.743   3.494 -0.3958 -0.3897  0.0849
  418MOL0     C55108  11.780   2.749   3.582  0.2460  0.9030 -0.2137
  418MOL0     C55109  10.984   2.730   3.587  0.3318 -0.1445  1.4616
  418MOL0     C55110  10.845   2.736   3.583 -0.3811  0.2171  1.0334
  418MOL0     H55111  10.416   2.640   3.402 -0.3808  0.1429 -0.6541
  418MOL0     H55112  10.180   2.617   3.388 -1.0996  0.3864 -1.5471
  418MOL0     H55113   9.909   2.673   3.495  0.3270 -1.1293 -0.3736
  418MOL0     H55114   9.932   2.646   3.323  3.9668  0.9678 -0.3743
  418MOL0     H55115   9.777   2.834   3.278 -0.5665 -1.4794 -0.8053
  418MOL0     H55116   9.724   2.805   3.446 -2.8777 -2.4645  0.7211
  418MOL0     H55117   9.673   2.570   3.404  1.4629 -0.4268  0.8747
  418MOL0     H55118   9.720   2.583   3.229 -0.4486  1.1625 -1.1999
  418MOL0     H55119   9.528   2.780   3.296 -1.3981  0.2639 -0.6994
  418MOL0     H55120   9.540   2.685   3.163 -2.6443 -1.1489  1.3430
  418MOL0     H55121   9.398   2.576   3.413 -0.2825 -2.8507 -0.6428
  418MOL0     H55122   9.482   2.466   3.308 -0.0860 -0.4076 -1.3144
  418MOL0     H55123   9.374   2.555   3.118  0.0898  1.3026  0.5974
  418MOL0     H55124   9.304   2.684   3.204  0.7375  0.3271  1.2567
  418MOL0     H55125   9.163   2.538   3.340  3.6019  0.9720  0.0061
  418MOL0     H55126   9.140   2.497   3.169  1.2732  0.9496 -1.7220
  418MOL0     H55127   9.327   2.328   3.352  0.7881 -3.3138 -1.0779
  418MOL0     H55128   9.319   2.309   3.182  0.1423  3.6976 -1.3176
  418MOL0     H55129   8.994   2.367   3.403  1.5555  0.0174 -0.2436
  418MOL0     H55130   8.736   2.165   3.271 -0.8161  1.8226 -0.1781
  418MOL0     H55131   8.775   2.260   3.427 -2.5162  1.8529 -2.2097
  418MOL0     H55132   8.838   2.039   3.526  1.6711 -1.2120 -2.1618
  418MOL0     H55133   8.805   1.955   3.390  2.7809 -0.2002 -0.6066
  418MOL0     H55134   8.559   2.056   3.403  1.4375 -1.0995 -0.7273
  418MOL0     H55135   8.613   1.937   3.522  2.4359  0.0874  1.8997
  418MOL0     H55136   8.653   2.142   3.677  0.6772 -2.2103  0.4701
  418MOL0     H55137   8.487   2.102   3.643 -0.4548  1.8630 -0.3544
  418MOL0     H55138   8.363   2.356   3.384 -3.3778  0.7878 -1.4166
  418MOL0     H55139   8.164   2.456   3.459 -0.2115 -3.7456 -0.3963
  418MOL0     H55140   7.796   2.405   3.683 -2.6359 -0.4543 -1.2127
  418MOL0     H55141   7.571   2.466   3.757  0.1389 -0.8137 -0.1768
  418MOL0     H55142   7.470   2.916   3.716  2.6727 -2.9751 -1.7272
  418MOL0     H55143   7.531   2.894   3.884  0.7510  0.3738 -0.7286
  418MOL0     H55144   7.309   2.957   3.924 -0.5527 -0.9190  1.8783
  418MOL0     H55145   7.301   2.781   3.923 -1.8324  2.0501  2.5722
  418MOL0     H55146   7.225   2.790   3.679 -1.9044  0.0309 -0.2279
  418MOL0     H55147   7.238   2.968   3.692  1.3347 -0.8917 -0.6093
  418MOL0     H55148   7.064   2.769   3.839  1.0705  0.6383  1.3146
  418MOL0     H55149   7.057   2.937   3.877 -0.3209 -1.9644  1.2295
  418MOL0     H55150   6.978   2.827   3.598 -1.7364 -0.3749  0.2879
  418MOL0     H55151   7.009   3.007   3.641 -1.5003 -0.4703 -0.1425
  418MOL0     H55152   6.849   2.989   3.823 -0.7506 -2.2708  0.8902
  418MOL0     H55153   6.794   2.839   3.752 -0.0482  0.2865 -2.2812
  418MOL0     H55154   6.763   3.115   3.638 -0.9117 -0.4669  0.4961
  418MOL0     H55155   6.754   2.971   3.532 -1.5221 -0.7088 -1.4420
  418MOL0     H55156   6.620   3.062   3.796  0.5743 -1.0476  0.3702
  418MOL0     H55157   6.575   2.905   3.731 -2.2084 -0.2471  0.4716
  418MOL0     H55158   7.691   2.880   3.722 -2.7359 -1.0738 -0.8107
  418MOL0     H55159   7.905   2.811   3.667  0.2985 -0.6589 -1.8725
  418MOL0     H55160   8.309   2.458   3.862  0.7975  0.1070 -0.0470
  418MOL0     H55161   8.511   2.328   3.781 -1.1845 -0.2424 -0.2813
  418MOL0     H55162  10.135   3.049   3.407  2.2547  1.8072  0.2357
  418MOL0     H55163  10.380   3.068   3.429  0.8984 -0.5932  2.6235
  418MOL0     H55164  10.787   2.924   3.306 -1.9589 -1.5721  1.4081
  418MOL0     H55165  11.040   2.898   3.297 -0.2058  1.4282 -0.0958
  418MOL0     H55166  11.203   2.611   3.571  1.3494 -1.1006 -0.2173
  418MOL0     H55167  11.277   2.759   3.645 -1.9571  0.9305 -0.3893
  418MOL0     H55168  11.449   2.599   3.578 -2.3050 -1.9539 -0.7816
  418MOL0     H55169  11.383   2.571   3.424  1.4293 -1.2007  0.5655
  418MOL0     H55170  11.464   2.854   3.503  1.6520  0.7974 -1.1698
  418MOL0     H55171  11.423   2.798   3.337  0.4561 -1.8753 -1.6713
  418MOL0     H55172  11.624   2.656   3.328  1.5183  0.5948 -0.3112
  418MOL0     H55173  11.645   2.837   3.322  0.7821  1.3663  0.9037
  418MOL0     H55174  11.835   2.746   3.673 -2.6905  0.6263  1.6883
  418MOL0     H55175  11.025   2.674   3.670  3.2954  0.1509  0.3167
  418MOL0     H55176  10.801   2.690   3.671  1.4596 -2.6110  0.6181
  419MOL0     O55177   5.906   4.593   1.630 -0.2232 -0.2699  0.1290
  419MOL0     C55178   5.924   4.598   1.511  0.8378 -0.2573  0.9898
  419MOL0     O55179   5.874   4.689   1.419 -0.1032 -0.1133 -0.2813
  419MOL0     C55180   5.770   4.766   1.471 -0.1544 -0.1323 -0.3634
  419MOL0     C55181   5.640   4.751   1.422  0.1638  0.2840  0.5701
  419MOL0     C55182   5.534   4.846   1.437  0.2153  0.4888 -0.2661
  419MOL0     C55183   5.553   4.949   1.536  0.0162  0.0155  0.3955
  419MOL0     O55184   5.457   5.040   1.545  0.0111 -0.0234 -0.4808
  419MOL0     C55185   5.432   5.095   1.671 -0.1416 -0.4576 -0.9669
  419MOL0     C55186   5.285   5.160   1.694 -0.6647  1.2636 -0.6456
  419MOL0     C55187   5.175   5.061   1.649  0.4543 -0.3309  0.2939
  419MOL0     C55188   5.035   5.136   1.672  0.0400  0.1486  0.6646
  419MOL0     C55189   4.925   5.056   1.609  1.0517  0.8950  0.2549
  419MOL0     C55190   4.779   5.120   1.640 -0.6209 -0.4367  0.2560
  419MOL0     C55191   4.671   5.049   1.561  0.2024  0.2537  1.0830
  419MOL0     C55192   4.532   5.069   1.626  0.5874  0.5997 -0.4909
  419MOL0     N55193   4.433   5.032   1.527 -0.3563  0.1882 -0.1504
  419MOL0     C55194   4.349   5.114   1.462 -0.0845 -0.6316  0.3374
  419MOL0     C55195   4.263   5.035   1.399  0.3062  0.2121  0.0090
  419MOL0     C55196   4.138   5.064   1.318  0.1129 -0.3591  0.2900
  419MOL0     C55197   4.030   5.150   1.383  0.7915  0.2998 -0.0947
  419MOL0     C55198   3.895   5.130   1.310 -0.6405  0.5301 -0.5909
  419MOL0     C55199   3.776   5.199   1.386  0.2126  0.1225  0.5822
  419MOL0     O55200   3.668   5.203   1.299 -0.4057  0.0541 -0.3491
  419MOL0     C55201   3.575   5.102   1.308  0.8996 -0.5119 -0.0823
  419MOL0     C55202   3.482   5.102   1.199  0.0482  0.1507 -0.4960
  419MOL0     C55203   3.402   4.997   1.178  0.4785  0.4355 -0.5051
  419MOL0     C55204   3.399   4.887   1.269 -0.9535  0.5118  1.4319
  419MOL0     C55205   3.312   4.770   1.254  0.0557 -0.4240  0.1385
  419MOL0     O55206   3.249   4.770   1.136  0.4850 -0.0556  0.0657
  419MOL0     C55207   3.166   4.667   1.110 -0.7325  0.4265  0.4977
  419MOL0     C55208   3.030   4.681   1.128 -0.3665  0.5261 -0.6981
  419MOL0     C55209   2.940   4.581   1.104 -0.3112 -0.1170 -0.1700
  419MOL0     C55210   2.985   4.460   1.045  0.5628  0.7188 -0.3972
  419MOL0     O55211   2.913   4.355   1.009  0.1958 -0.1882 -0.3123
  419MOL0     C55212   2.777   4.365   0.974 -0.4469  0.1465 -0.6655
  419MOL0     C55213   2.757   4.369   0.818  0.7505  0.2091 -0.4941
  419MOL0     C55214   2.642   4.289   0.775  0.3389  0.4343 -0.3337
  419MOL0     C55215   2.513   4.361   0.825 -0.1406 -0.1097 -0.2731
  419MOL0     C55216   2.389   4.290   0.752  0.8315 -0.7567  0.0360
  419MOL0     C55217   2.255   4.352   0.797  0.8403 -0.0921  1.1761
  419MOL0     C55218   2.141   4.303   0.696  0.3795 -0.4655  0.3765
  419MOL0     C55219   2.004   4.317   0.762 -0.5027 -0.6793 -0.2159
  419MOL0    Cl55220   1.982   4.482   0.842  0.0106 -0.4266  0.5576
  419MOL0     C55221   3.127   4.447   1.028 -0.3575  0.3235 -1.0458
  419MOL0     C55222   3.211   4.550   1.050  0.5267  0.2399 -0.3060
  419MOL0     O55223   3.300   4.685   1.343 -0.1402  0.5644 -0.0076
  419MOL0     C55224   3.475   4.896   1.386 -0.2267 -0.0547 -0.4097
  419MOL0     C55225   3.555   5.006   1.407  0.1595 -0.2157 -0.3545
  419MOL0     N55226   4.289   4.910   1.438  0.0751 -0.4625 -0.0348
  419MOL0     N55227   4.400   4.902   1.504  0.4869  0.4746  0.5586
  419MOL0     C55228   5.676   4.953   1.597 -0.9443 -0.3401  0.1641
  419MOL0     C55229   5.782   4.865   1.570  0.2185 -0.3287  0.4516
  419MOL0     C55230   6.016   4.492   1.457 -0.5116 -0.4085  0.5257
  419MOL0     C55231   6.105   4.422   1.542 -0.0556 -0.2625  0.2404
  419MOL0     C55232   6.184   4.324   1.488  0.0587 -0.2033  0.4118
  419MOL0     C55233   6.183   4.302   1.348 -0.7440 -0.2636  0.0490
  419MOL0     O55234   6.265   4.210   1.289  0.4607  0.2493  0.2515
  419MOL0     C55235   6.367   4.142   1.359  0.6628  0.3173 -0.4832
  419MOL0     C55236   6.316   4.023   1.450 -0.9448  0.6548 -0.8183
  419MOL0     C55237   6.232   3.926   1.370 -0.4523  1.3822  0.4189
  419MOL0     C55238   6.211   3.798   1.450 -0.3084 -0.1728  0.1253
  419MOL0     C55239   6.330   3.709   1.442 -0.0882 -0.7367  0.6303
  419MOL0     C55240   6.421   3.632   1.434 -1.3408 -0.6092  0.8371
  419MOL0     C55241   6.086   4.361   1.271  0.0662  0.0234  0.1876
  419MOL0     C55242   6.012   4.469   1.321 -0.1620 -0.4147 -0.2949
  419MOL0     H55243   5.628   4.666   1.356  4.1564 -0.6463  0.7619
  419MOL0     H55244   5.442   4.832   1.380  0.9236  0.3278 -1.3931
  419MOL0     H55245   5.506   5.175   1.681  0.0635 -0.6451 -0.9587
  419MOL0     H55246   5.446   5.022   1.752  0.4357  0.9506  0.2305
  419MOL0     H55247   5.281   5.253   1.638 -0.6383  0.9822 -1.1221
  419MOL0     H55248   5.284   5.181   1.802  0.0594 -1.2218 -0.0827
  419MOL0     H55249   5.189   4.963   1.694 -1.4164 -2.1243 -2.6889
  419MOL0     H55250   5.184   5.048   1.540  0.1787  1.4863  0.0236
  419MOL0     H55251   5.000   5.147   1.775  1.8854 -1.5770  1.5457
  419MOL0     H55252   5.050   5.235   1.629  2.0854 -0.2510  0.3562
  419MOL0     H55253   4.920   4.951   1.640 -3.0928 -0.0659 -2.7821
  419MOL0     H55254   4.950   5.061   1.503  1.0528  1.4593  0.2787
  419MOL0     H55255   4.769   5.225   1.612  2.4129 -1.0928 -4.2162
  419MOL0     H55256   4.782   5.104   1.749 -0.3892 -1.1950  0.1458
  419MOL0     H55257   4.675   5.095   1.462 -0.2386 -0.8189  0.5530
  419MOL0     H55258   4.699   4.944   1.549  0.2458  0.3476  0.2926
  419MOL0     H55259   4.518   5.167   1.671  0.1506  0.8463 -1.1453
  419MOL0     H55260   4.522   5.008   1.716 -1.5499 -0.0841 -1.1361
  419MOL0     H55261   4.349   5.222   1.456 -0.1135 -0.6522 -0.0400
  419MOL0     H55262   4.097   4.967   1.288 -0.1189 -0.8391  2.0718
  419MOL0     H55263   4.176   5.118   1.230  0.9352  1.3594  1.6436
  419MOL0     H55264   4.060   5.255   1.375 -2.5999  1.4279  0.3208
  419MOL0     H55265   4.014   5.131   1.490  2.8816 -0.4317  0.1368
  419MOL0     H55266   3.909   5.171   1.210  1.0697 -0.2329 -0.6943
  419MOL0     H55267   3.888   5.021   1.311  0.1190  0.4753  0.6683
  419MOL0     H55268   3.806   5.300   1.414 -0.3043 -0.0716  1.9118
  419MOL0     H55269   3.759   5.153   1.484  4.1839 -1.6585  0.6584
  419MOL0     H55270   3.482   5.185   1.129 -0.2943  0.2640 -0.3654
  419MOL0     H55271   3.344   4.974   1.090  1.8630 -1.3514 -0.9996
  419MOL0     H55272   2.996   4.780   1.157  1.8341  0.5796  2.1003
  419MOL0     H55273   2.836   4.611   1.107 -0.4831  0.6638 -5.0320
  419MOL0     H55274   2.732   4.454   1.020  1.2408  0.7012  0.0189
  419MOL0     H55275   2.720   4.279   1.009  0.5677 -1.2003 -2.1764
  419MOL0     H55276   2.845   4.333   0.763 -0.0253  0.5351 -2.0139
  419MOL0     H55277   2.740   4.474   0.792  0.5166  0.3249  0.1303
  419MOL0     H55278   2.645   4.185   0.811  0.3845  0.3354 -0.6185
  419MOL0     H55279   2.652   4.265   0.668 -0.6404  1.0336 -0.5740
  419MOL0     H55280   2.491   4.360   0.932 -1.0144 -0.7288 -0.4448
  419MOL0     H55281   2.518   4.464   0.789 -0.7349 -0.8090 -2.5520
  419MOL0     H55282   2.395   4.182   0.768  0.8767 -1.2447 -2.8216
  419MOL0     H55283   2.396   4.297   0.643 -0.2318 -2.5573 -0.1969
  419MOL0     H55284   2.271   4.460   0.786 -0.4492 -0.1413 -2.4109
  419MOL0     H55285   2.234   4.329   0.902 -1.0875  1.7529  1.2708
  419MOL0     H55286   2.168   4.362   0.608  1.3218  0.0308  0.9809
  419MOL0     H55287   2.145   4.195   0.678 -0.9943 -0.1986 -1.9733
  419MOL0     H55288   1.992   4.234   0.831  2.0369 -1.3783 -0.4838
  419MOL0     H55289   1.926   4.303   0.687 -0.1200  1.7580 -1.1710
  419MOL0     H55290   3.163   4.357   0.978 -0.7941  0.0790 -0.9268
  419MOL0     H55291   3.314   4.542   1.017  0.4366  3.4152 -1.7908
  419MOL0     H55292   3.463   4.824   1.466 -0.4233 -1.1983 -1.4312
  419MOL0     H55293   3.611   5.009   1.500  2.9051  2.3022 -1.8962
  419MOL0     H55294   5.711   5.013   1.680  1.4757 -1.1064 -0.2292
  419MOL0     H55295   5.875   4.866   1.626  0.0125  0.8825  0.8182
  419MOL0     H55296   6.113   4.447   1.647 -2.1985  2.4457 -0.1026
  419MOL0     H55297   6.258   4.284   1.557 -1.0564 -1.0689  1.1242
  419MOL0     H55298   6.438   4.209   1.408  1.6454  0.6076 -2.2100
  419MOL0     H55299   6.422   4.099   1.274 -0.4820 -2.0149 -0.1198
  419MOL0     H55300   6.408   3.968   1.472 -0.8402 -1.1840 -4.9731
  419MOL0     H55301   6.276   4.058   1.546 -0.7361  0.5656 -0.6968
  419MOL0     H55302   6.273   3.899   1.273  0.3519  2.0269  0.5627
  419MOL0     H55303   6.135   3.974   1.353 -1.1978 -0.1183  0.3242
  419MOL0     H55304   6.189   3.819   1.556  5.1902  2.1534  1.1506
  419MOL0     H55305   6.126   3.749   1.402 -0.3471  0.3624 -0.3625
  419MOL0     H55306   6.502   3.561   1.429 -0.6886  0.1796 -0.6729
  419MOL0     H55307   6.061   4.323   1.172 -2.7459  0.4295  0.6679
  419MOL0     H55308   5.939   4.519   1.259 -2.4299 -0.3265  2.2831
  420MOL0     O55309   8.365   6.427   8.837  0.4385 -0.0154  0.0685
  420MOL0     C55310   8.459   6.391   8.769 -0.0909  0.4915 -0.6090
  420MOL0     O55311   8.451   6.321   8.661  0.0072 -0.2366  0.1283
  420MOL0     C55312   8.336   6.244   8.637 -0.2574 -0.1568  0.0270
  420MOL0     C55313   8.220   6.283   8.555  0.1274  0.3051 -0.4368
  420MOL0     C55314   8.110   6.199   8.541  0.6051  0.4281  0.3875
  420MOL0     C55315   8.123   6.061   8.583  0.1250 -0.6838 -0.3657
  420MOL0     O55316   8.030   5.970   8.543 -0.4380 -0.4032  0.1523
  420MOL0     C55317   8.076   5.843   8.494  0.7086  0.8919 -0.1790
  420MOL0     C55318   7.987   5.784   8.385  0.5924 -0.5411  0.1620
  420MOL0     C55319   7.853   5.725   8.436 -0.6701 -0.3695 -0.0535
  420MOL0     C55320   7.772   5.823   8.521  0.2181  0.8921 -0.1561
  420MOL0     C55321   7.632   5.766   8.550  0.0400  0.0075  0.2760
  420MOL0     C55322   7.541   5.754   8.432 -0.5182 -0.1520  0.3633
  420MOL0     C55323   7.398   5.745   8.483  0.2993  0.0389  0.0050
  420MOL0     C55324   7.321   5.874   8.507  0.0457 -0.4068  1.2116
  420MOL0     N55325   7.317   5.950   8.375 -0.5033  0.2451 -0.6665
  420MOL0     C55326   7.245   5.907   8.263 -0.3406 -0.7564 -0.4616
  420MOL0     C55327   7.261   6.011   8.173 -0.0212  0.0637 -0.2516
  420MOL0     C55328   7.219   6.008   8.028 -0.0865 -0.2045 -0.7874
  420MOL0     C55329   7.064   6.026   8.013  0.4000  0.1903  0.1790
  420MOL0     C55330   6.975   5.900   7.993  0.8772 -0.4516  0.0021
  420MOL0     C55331   6.828   5.937   7.950 -0.3576 -0.1244  0.0476
  420MOL0     O55332   6.760   5.996   8.061 -0.7135  0.5259  0.0885
  420MOL0     C55333   6.621   5.996   8.054  0.1992  1.6616  0.8774
  420MOL0     C55334   6.547   6.031   8.168 -0.8142 -0.6143 -0.4786
  420MOL0     C55335   6.404   6.019   8.174 -0.1523 -0.3400  0.1756
  420MOL0     C55336   6.340   5.986   8.053 -0.5158 -0.3066  0.1207
  420MOL0     C55337   6.187   5.977   8.052  0.7797 -0.1747  0.7461
  420MOL0     O55338   6.127   6.037   8.161  0.6093  0.1533 -0.6983
  420MOL0     C55339   5.996   6.056   8.165  0.7279 -0.4604 -0.0998
  420MOL0     C55340   5.931   6.019   8.289  0.0114  0.0873 -0.0494
  420MOL0     C55341   5.801   6.056   8.308 -0.7744 -0.1770 -0.0214
  420MOL0     C55342   5.725   6.113   8.204 -0.2438  0.7220  0.1673
  420MOL0     O55343   5.591   6.155   8.213 -0.2130  0.0229 -0.8889
  420MOL0     C55344   5.513   6.090   8.306 -0.5366  0.1271  0.4253
  420MOL0     C55345   5.366   6.140   8.327 -0.0508  0.0122  0.3861
  420MOL0     C55346   5.294   6.120   8.196  0.8510  0.2331 -0.7681
  420MOL0     C55347   5.168   6.205   8.199  0.2637  0.3695  0.5016
  420MOL0     C55348   5.201   6.358   8.181  0.3815  0.0159 -0.0840
  420MOL0     C55349   5.111   6.439   8.082 -0.3273 -0.3268 -0.0942
  420MOL0     C55350   5.125   6.396   7.938 -0.2524  0.4350 -0.0314
  420MOL0     C55351   5.154   6.497   7.833 -0.2779  0.3363 -0.7094
  420MOL0    Cl55352   5.314   6.578   7.867  0.2011  0.2318  0.0626
  420MOL0     C55353   5.779   6.136   8.077  0.3300 -0.1387 -0.8217
  420MOL0     C55354   5.915   6.125   8.061 -1.1482  0.1650 -1.3903
  420MOL0     O55355   6.132   5.910   7.971 -0.2175 -0.1052  0.4053
  420MOL0     C55356   6.419   5.955   7.939  0.1289  0.6646  0.4615
  420MOL0     C55357   6.555   5.953   7.937 -0.5214  0.3560  0.3145
  420MOL0     N55358   7.339   6.112   8.232 -0.0267  0.0536  0.3534
  420MOL0     N55359   7.379   6.067   8.358  0.6063  0.1687  0.8187
  420MOL0     C55360   8.244   6.027   8.658 -0.3940  0.0328  0.4482
  420MOL0     C55361   8.347   6.115   8.693  0.2310 -0.4988  0.5721
  420MOL0     C55362   8.595   6.443   8.800 -0.0261 -0.2217 -0.2218
  420MOL0     C55363   8.712   6.363   8.782  0.2493  0.4480 -1.0121
  420MOL0     C55364   8.836   6.412   8.829 -0.0807  0.3523  0.0741
  420MOL0     C55365   8.847   6.540   8.873 -0.9827 -0.0712 -0.4373
  420MOL0     O55366   8.979   6.571   8.893 -0.0469  0.9319 -0.3497
  420MOL0     C55367   9.009   6.701   8.931 -1.4947 -0.5862 -0.0582
  420MOL0     C55368   9.000   6.725   9.086  0.4646 -0.7049  0.3283
  420MOL0     C55369   9.074   6.610   9.164 -0.4931 -0.1705  0.1828
  420MOL0     C55370   9.228   6.618   9.136  0.5912 -0.7208 -0.2477
  420MOL0     C55371   9.307   6.520   9.223  0.1324  0.1564  0.0036
  420MOL0     C55372   9.376   6.438   9.283  0.4723  0.0683  0.1163
  420MOL0     C55373   8.731   6.618   8.875 -0.3274  0.3333 -0.7325
  420MOL0     C55374   8.604   6.576   8.852  1.1306 -0.0677  0.1317
  420MOL0     H55375   8.219   6.379   8.503  0.0574  1.6346  1.8829
  420MOL0     H55376   8.029   6.211   8.470  0.9304 -0.4891 -0.1553
  420MOL0     H55377   8.076   5.774   8.579  1.5938  0.3166 -0.6300
  420MOL0     H55378   8.177   5.847   8.453  1.3719 -1.1081  1.0757
  420MOL0     H55379   8.031   5.701   8.329 -1.2914 -2.8442  1.9157
  420MOL0     H55380   7.961   5.860   8.310 -2.3769 -1.2908  0.3314
  420MOL0     H55381   7.871   5.642   8.505 -0.3611 -0.1893  0.0829
  420MOL0     H55382   7.797   5.690   8.348 -0.8600 -0.0038 -0.0806
  420MOL0     H55383   7.825   5.853   8.612 -2.6911  3.1829  0.9374
  420MOL0     H55384   7.750   5.913   8.464  1.3925 -1.7071 -5.3404
  420MOL0     H55385   7.597   5.840   8.623  1.9721  0.4709  0.7829
  420MOL0     H55386   7.633   5.670   8.603 -0.0799  0.3624  0.9210
  420MOL0     H55387   7.568   5.663   8.378  4.4240  1.3906 -0.2719
  420MOL0     H55388   7.554   5.841   8.367 -0.9767 -0.7228 -0.5186
  420MOL0     H55389   7.348   5.679   8.412  1.4972 -1.1125  0.1941
  420MOL0     H55390   7.404   5.699   8.582 -3.0938  0.7196  0.6467
  420MOL0     H55391   7.372   5.929   8.587  2.9187 -2.3757  0.9028
  420MOL0     H55392   7.218   5.851   8.534  0.3496 -4.0051 -0.1364
  420MOL0     H55393   7.195   5.811   8.254 -3.8575  0.9986 -1.9004
  420MOL0     H55394   7.254   5.917   7.978  0.1424 -0.0805 -0.8529
  420MOL0     H55395   7.266   6.091   7.975  0.8887  0.1666  0.6122
  420MOL0     H55396   7.050   6.085   7.922  0.2966  0.6168  0.4660
  420MOL0     H55397   7.037   6.094   8.094 -0.7872 -0.4465  0.3306
  420MOL0     H55398   7.015   5.850   7.904 -1.6107 -0.5417 -1.1668
  420MOL0     H55399   6.970   5.839   8.083 -4.1528 -0.1116  0.2206
  420MOL0     H55400   6.793   5.839   7.914  0.6620 -0.4347 -0.1441
  420MOL0     H55401   6.842   6.008   7.868 -0.7542 -0.3326 -0.2069
  420MOL0     H55402   6.598   6.066   8.257  2.9776  1.2272 -3.0987
  420MOL0     H55403   6.355   6.035   8.270 -0.4260  1.0638 -0.1757
  420MOL0     H55404   5.989   5.972   8.368 -0.5953 -0.8712 -0.1601
  420MOL0     H55405   5.756   6.045   8.406  0.2284 -3.0118  0.2143
  420MOL0     H55406   5.559   6.117   8.402 -0.7230  1.4880  0.1466
  420MOL0     H55407   5.521   5.982   8.293  1.7238  0.1287  1.3318
  420MOL0     H55408   5.371   6.246   8.355 -1.0312  0.8944 -2.4845
  420MOL0     H55409   5.323   6.080   8.408 -4.4388 -1.9828 -2.9630
  420MOL0     H55410   5.266   6.014   8.196  0.4394  0.3313  0.2362
  420MOL0     H55411   5.362   6.138   8.112  0.6713 -1.3979 -1.3042
  420MOL0     H55412   5.100   6.179   8.117 -0.3027  0.2610  0.9995
  420MOL0     H55413   5.118   6.188   8.295 -1.5788 -2.1451 -0.7798
  420MOL0     H55414   5.302   6.361   8.140 -0.3085  0.0258 -1.8545
  420MOL0     H55415   5.201   6.412   8.276  3.2790  0.7795 -0.4442
  420MOL0     H55416   5.139   6.545   8.085  1.0435 -0.6672  3.4357
  420MOL0     H55417   5.004   6.449   8.106 -0.3199  3.5675 -0.9960
  420MOL0     H55418   5.197   6.313   7.934 -0.2014  0.4893 -0.2218
  420MOL0     H55419   5.031   6.348   7.911  0.3867 -0.6662 -0.3799
  420MOL0     H55420   5.070   6.568   7.831 -0.9752 -0.4765 -1.6742
  420MOL0     H55421   5.172   6.463   7.731 -1.4117  1.7910 -1.4484
  420MOL0     H55422   5.711   6.173   8.001  0.6219  2.2766  0.0037
  420MOL0     H55423   5.963   6.132   7.964 -1.1525 -1.6026 -1.5640
  420MOL0     H55424   6.377   5.906   7.852  2.3313 -0.0571 -0.2438
  420MOL0     H55425   6.593   5.919   7.841 -1.8632  3.9826 -1.7000
  420MOL0     H55426   8.269   5.924   8.684  1.8652 -0.1456 -1.9948
  420MOL0     H55427   8.433   6.087   8.754  1.6633 -2.5229 -2.1670
  420MOL0     H55428   8.711   6.263   8.740  1.3897  0.8661 -2.0850
  420MOL0     H55429   8.927   6.355   8.815  0.9714  2.2935 -1.4688
  420MOL0     H55430   8.950   6.772   8.871 -3.1374 -2.9203 -1.3908
  420MOL0     H55431   9.113   6.723   8.905 -1.2778 -2.8941 -1.3731
  420MOL0     H55432   9.029   6.821   9.129 -2.3410 -0.5938  2.2064
  420MOL0     H55433   8.892   6.716   9.102  0.5978 -2.9566  0.2880
  420MOL0     H55434   9.044   6.509   9.137  2.0055 -0.7245 -0.7968
  420MOL0     H55435   9.072   6.633   9.271  0.3294 -2.3530  0.7090
  420MOL0     H55436   9.238   6.608   9.027  0.3517  1.8968 -0.5568
  420MOL0     H55437   9.268   6.715   9.165 -0.0199 -0.5877  0.1444
  420MOL0     H55438   9.436   6.364   9.331 -0.9413 -0.9541  0.3701
  420MOL0     H55439   8.725   6.723   8.898  0.6723  0.4933 -1.1555
  420MOL0     H55440   8.521   6.645   8.858  2.3895  1.4775  0.2934
  421MOL0     O55441   2.560   6.362   9.170  0.5885  0.5188  0.4603
  421MOL0     C55442   2.541   6.468   9.224  0.4113  0.0748 -0.7108
  421MOL0     O55443   2.419   6.521   9.264 -0.4526 -0.3198  0.0931
  421MOL0     C55444   2.296   6.474   9.241  0.3384  0.2797  0.3174
  421MOL0     C55445   2.190   6.503   9.324 -0.1189  1.1649  0.0193
  421MOL0     C55446   2.064   6.447   9.318  0.3218 -0.0279  0.0179
  421MOL0     C55447   2.038   6.372   9.203  0.6033 -0.2707  0.4889
  421MOL0     O55448   1.909   6.329   9.201  0.5456 -0.1005  0.3576
  421MOL0     C55449   1.868   6.222   9.113 -0.3785 -0.7340 -0.5894
  421MOL0     C55450   1.715   6.190   9.139  0.0993 -0.0410  0.0499
  421MOL0     C55451   1.708   6.095   9.263  0.2765  0.5440 -1.3074
  421MOL0     C55452   1.754   5.955   9.223 -0.4297  0.5063 -0.9183
  421MOL0     C55453   1.756   5.861   9.350  0.8255 -0.1931  0.0894
  421MOL0     C55454   1.824   5.732   9.317  0.0558  0.3717  0.2597
  421MOL0     C55455   1.826   5.637   9.448 -0.3904 -0.3950 -0.4858
  421MOL0     C55456   1.916   5.670   9.571 -0.6436  0.7710 -0.7290
  421MOL0     N55457   2.056   5.672   9.543  0.6567 -0.5755  0.6508
  421MOL0     C55458   2.136   5.567   9.513  0.2798  0.0138 -0.5084
  421MOL0     C55459   2.257   5.624   9.491  0.0199 -0.1201  0.5652
  421MOL0     C55460   2.370   5.527   9.450  0.0516  0.7540  0.1868
  421MOL0     C55461   2.514   5.557   9.507 -0.7596 -0.4952  0.1135
  421MOL0     C55462   2.566   5.679   9.440 -0.6331 -0.0299 -0.5325
  421MOL0     C55463   2.711   5.699   9.484  0.1491  0.2472 -0.5566
  421MOL0     O55464   2.763   5.806   9.405 -0.2787 -0.0461 -0.7536
  421MOL0     C55465   2.900   5.807   9.390  0.9452  0.5199 -0.3736
  421MOL0     C55466   2.939   5.877   9.282 -0.5895  0.3085  0.2094
  421MOL0     C55467   3.078   5.878   9.249  0.0743  0.1395 -0.6574
  421MOL0     C55468   3.170   5.821   9.342 -0.6363  0.4257 -0.3937
  421MOL0     C55469   3.319   5.805   9.304  0.4483 -0.3245  0.7334
  421MOL0     O55470   3.406   5.781   9.411 -0.1070  0.0912 -0.0178
  421MOL0     C55471   3.535   5.754   9.381  0.1524  0.4066 -0.4143
  421MOL0     C55472   3.573   5.657   9.280 -0.1641 -0.5400 -0.7969
  421MOL0     C55473   3.706   5.638   9.262 -0.4539  0.8277  0.1653
  421MOL0     C55474   3.808   5.714   9.321  0.3211  0.3214  0.0584
  421MOL0     O55475   3.934   5.703   9.268 -0.3627  0.5470 -0.6814
  421MOL0     C55476   3.988   5.824   9.222 -0.2547 -0.6628 -0.4901
  421MOL0     C55477   4.144   5.799   9.210 -0.8014  0.5460 -0.1587
  421MOL0     C55478   4.229   5.928   9.163 -0.1424 -0.3339  0.3196
  421MOL0     C55479   4.169   5.996   9.035 -0.8472 -0.4849  0.0735
  421MOL0     C55480   4.265   6.097   8.964 -0.1217 -0.2057  0.6035
  421MOL0     C55481   4.396   6.042   8.896 -0.3830  0.1593  0.4393
  421MOL0     C55482   4.487   6.145   8.831 -0.0724  0.1045 -0.1043
  421MOL0     C55483   4.613   6.087   8.772 -0.0363  0.2051 -0.6269
  421MOL0    Cl55484   4.724   6.018   8.889 -0.6020  0.1696  0.1784
  421MOL0     C55485   3.771   5.807   9.414  1.0431  0.1529 -0.6189
  421MOL0     C55486   3.633   5.823   9.451 -0.1387  0.3646  0.0790
  421MOL0     O55487   3.345   5.821   9.182  1.1493 -0.1374 -0.5555
  421MOL0     C55488   3.122   5.758   9.461  0.8492 -0.5589  0.1576
  421MOL0     C55489   2.989   5.751   9.483 -0.1513 -0.6706 -0.3564
  421MOL0     N55490   2.257   5.764   9.519  0.2653 -0.2374 -0.4823
  421MOL0     N55491   2.129   5.788   9.540  0.2237 -0.7694 -0.8297
  421MOL0     C55492   2.135   6.352   9.112 -0.2513  0.3070 -0.5411
  421MOL0     C55493   2.268   6.408   9.116  0.4690  0.2403  0.2065
  421MOL0     C55494   2.660   6.552   9.255  0.0328 -0.0654  0.2523
  421MOL0     C55495   2.799   6.497   9.249  0.1407 -0.1900 -0.3668
  421MOL0     C55496   2.908   6.586   9.253  0.9739 -0.2944  0.4020
  421MOL0     C55497   2.881   6.724   9.272  0.0959 -0.1316 -1.5743
  421MOL0     O55498   2.981   6.825   9.279  0.7233 -0.2543 -0.5175
  421MOL0     C55499   3.115   6.780   9.302 -0.0106  0.2980  0.1902
  421MOL0     C55500   3.216   6.891   9.333 -0.1972 -0.5577 -0.2334
  421MOL0     C55501   3.235   6.979   9.206 -0.2498 -0.6150  0.3747
  421MOL0     C55502   3.294   7.122   9.231  1.0225  0.3879 -0.9132
  421MOL0     C55503   3.384   7.122   9.346 -0.3928  0.9193  0.1413
  421MOL0     C55504   3.464   7.118   9.438 -0.8215 -0.2828 -0.2444
  421MOL0     C55505   2.758   6.773   9.282  0.0574  0.0158  0.6022
  421MOL0     C55506   2.644   6.687   9.271  0.6545 -0.2306  1.2485
  421MOL0     H55507   2.208   6.566   9.410 -0.2832 -0.2744  1.1434
  421MOL0     H55508   2.000   6.466   9.404 -0.2671  1.3404 -0.7032
  421MOL0     H55509   1.933   6.136   9.130 -0.8402 -0.7089  1.5044
  421MOL0     H55510   1.866   6.256   9.009  1.8716  0.5360 -0.2850
  421MOL0     H55511   1.686   6.137   9.048  0.7437  1.8163 -1.2954
  421MOL0     H55512   1.651   6.280   9.141 -1.0228 -0.6306 -3.0044
  421MOL0     H55513   1.603   6.082   9.294  1.4998  0.8758  4.0421
  421MOL0     H55514   1.755   6.133   9.354 -1.7619  0.3885 -0.1012
  421MOL0     H55515   1.688   5.905   9.151 -0.1063 -0.3493 -0.6360
  421MOL0     H55516   1.857   5.961   9.187  0.6892  0.8746  2.0964
  421MOL0     H55517   1.655   5.843   9.389  1.1979 -1.1506  0.6524
  421MOL0     H55518   1.821   5.902   9.428  0.0068 -1.0164  1.2582
  421MOL0     H55519   1.928   5.748   9.287 -0.3460 -0.0045 -1.4658
  421MOL0     H55520   1.767   5.684   9.236  2.0038 -1.5573 -0.0628
  421MOL0     H55521   1.723   5.627   9.481 -2.0047  0.7350 -4.5845
  421MOL0     H55522   1.867   5.541   9.417  0.8305 -0.9391  2.4920
  421MOL0     H55523   1.902   5.582   9.634 -2.1591  0.7884 -1.0220
  421MOL0     H55524   1.883   5.760   9.623 -1.0725 -0.9859  2.2704
  421MOL0     H55525   2.110   5.462   9.522  2.5426 -0.4971  0.9070
  421MOL0     H55526   2.364   5.523   9.341 -0.8775 -1.2566  0.2724
  421MOL0     H55527   2.349   5.427   9.490 -0.1824  0.5789 -0.3627
  421MOL0     H55528   2.569   5.467   9.478  1.4919  1.6155 -2.7512
  421MOL0     H55529   2.524   5.554   9.615  0.4579  0.3395  0.0338
  421MOL0     H55530   2.554   5.674   9.332  2.6365  1.6638 -1.1178
  421MOL0     H55531   2.531   5.778   9.472  2.3839  0.6590  1.0154
  421MOL0     H55532   2.757   5.602   9.463  2.4315  0.9700  0.6869
  421MOL0     H55533   2.722   5.721   9.591  2.6070 -0.9832 -0.4833
  421MOL0     H55534   2.871   5.927   9.215  0.6912  2.1526  0.2264
  421MOL0     H55535   3.116   5.922   9.158 -0.1538  1.9135  0.0564
  421MOL0     H55536   3.496   5.611   9.218  0.1315  0.1310 -1.6961
  421MOL0     H55537   3.726   5.568   9.181  1.5489 -1.9308  2.7978
  421MOL0     H55538   3.981   5.905   9.295  2.6411 -1.9851  1.4731
  421MOL0     H55539   3.943   5.847   9.125  0.5945  1.3601 -0.4597
  421MOL0     H55540   4.148   5.715   9.140  1.1701  0.1075  0.4321
  421MOL0     H55541   4.180   5.760   9.305 -1.8161 -1.1475 -0.4258
  421MOL0     H55542   4.335   5.905   9.152 -0.6894 -1.7701 -3.0486
  421MOL0     H55543   4.215   5.994   9.250  1.4468  1.0612 -0.4346
  421MOL0     H55544   4.156   5.917   8.960  4.2269 -3.0855  1.5203
  421MOL0     H55545   4.077   6.052   9.054  0.2402  1.0765  0.9910
  421MOL0     H55546   4.289   6.182   9.029  0.5495  0.4904 -0.5119
  421MOL0     H55547   4.202   6.138   8.885 -0.8346 -2.0033  0.1939
  421MOL0     H55548   4.356   5.972   8.822 -0.6589  0.7141  0.0557
  421MOL0     H55549   4.450   5.989   8.975 -0.2001 -0.4698 -0.1011
  421MOL0     H55550   4.433   6.185   8.745 -0.3661  0.8816  0.4266
  421MOL0     H55551   4.511   6.217   8.910 -0.5505  1.7537 -1.4110
  421MOL0     H55552   4.668   6.159   8.711  0.9378 -0.7780 -0.9402
  421MOL0     H55553   4.595   6.007   8.699 -1.5831 -0.1815  0.1302
  421MOL0     H55554   3.850   5.857   9.468  0.1369  0.3921  0.5177
  421MOL0     H55555   3.598   5.900   9.519  1.6874  0.8707  0.4777
  421MOL0     H55556   3.198   5.721   9.529  0.5054  0.3459  1.0621
  421MOL0     H55557   2.958   5.698   9.573  1.4552 -2.5297 -0.8335
  421MOL0     H55558   2.102   6.293   9.027 -2.4849  0.0116  0.4564
  421MOL0     H55559   2.349   6.392   9.046  0.0841  2.7469 -0.9338
  421MOL0     H55560   2.822   6.393   9.233  1.0899 -0.2848  1.4487
  421MOL0     H55561   3.005   6.555   9.217  0.5234  0.3365 -1.4557
  421MOL0     H55562   3.157   6.713   9.227 -0.8791 -1.1494  0.9588
  421MOL0     H55563   3.110   6.716   9.390 -1.2367  0.8393  0.5275
  421MOL0     H55564   3.183   6.953   9.417  1.3939  1.9030 -1.3353
  421MOL0     H55565   3.314   6.855   9.366 -0.1795  0.0526  0.3869
  421MOL0     H55566   3.143   6.980   9.147  0.3262 -0.6664 -0.5455
  421MOL0     H55567   3.312   6.931   9.145  0.3202  2.8466 -1.8680
  421MOL0     H55568   3.339   7.166   9.142  1.8554  0.0070 -0.6810
  421MOL0     H55569   3.206   7.184   9.254 -1.1617 -2.7266 -0.2160
  421MOL0     H55570   3.527   7.101   9.523  0.5486  0.3619 -1.1060
  421MOL0     H55571   2.733   6.875   9.312 -2.3970  0.3732 -2.2589
  421MOL0     H55572   2.544   6.726   9.281  0.9131  1.9710 -2.8303
  422MOL0     O55573   6.711   4.047   7.337  0.4652  0.6369 -0.5376
  422MOL0     C55574   6.799   4.009   7.418  0.3059 -0.1229 -0.3731
  422MOL0     O55575   6.776   3.941   7.534  0.0491 -0.6192 -0.1211
  422MOL0     C55576   6.646   3.920   7.572 -0.2913  0.9843 -1.1258
  422MOL0     C55577   6.558   3.847   7.497  0.1911  0.2219  0.4217
  422MOL0     C55578   6.432   3.817   7.550 -0.1400  0.6270 -0.2545
  422MOL0     C55579   6.393   3.852   7.681  0.6232 -0.0242  0.7135
  422MOL0     O55580   6.266   3.824   7.725 -0.1592  0.4731 -0.3194
  422MOL0     C55581   6.242   3.827   7.870  0.1829  0.2766 -0.2487
  422MOL0     C55582   6.101   3.766   7.902 -0.3184  0.2590 -0.5217
  422MOL0     C55583   6.094   3.610   7.887 -0.0910 -0.1032  0.1746
  422MOL0     C55584   5.964   3.556   7.944 -0.4786 -0.3779  0.5139
  422MOL0     C55585   5.949   3.406   7.950  1.0259  0.4429 -1.3159
  422MOL0     C55586   5.920   3.353   7.806  0.0415 -0.3532 -1.5153
  422MOL0     C55587   5.849   3.221   7.818 -0.1120  0.0189  0.0246
  422MOL0     C55588   5.861   3.135   7.688  1.0286  0.4552 -0.4345
  422MOL0     N55589   5.811   2.993   7.699 -1.3719 -0.0799 -0.2807
  422MOL0     C55590   5.674   2.968   7.697  0.0382  0.2618  0.7354
  422MOL0     C55591   5.662   2.835   7.689 -0.2606 -0.1847 -0.0820
  422MOL0     C55592   5.524   2.774   7.696  0.3904  0.0059 -0.0323
  422MOL0     C55593   5.469   2.745   7.552  0.4644 -0.0780 -0.2487
  422MOL0     C55594   5.529   2.648   7.449 -0.9143  1.1906 -0.4260
  422MOL0     C55595   5.551   2.508   7.511  0.2561 -0.6575  0.2719
  422MOL0     O55596   5.427   2.463   7.571 -0.5528 -0.5196  0.0173
  422MOL0     C55597   5.344   2.393   7.490  0.6531  0.4764 -0.1941
  422MOL0     C55598   5.364   2.351   7.361 -0.5036  0.0907  0.0978
  422MOL0     C55599   5.269   2.286   7.286 -0.1113  0.3119  0.6680
  422MOL0     C55600   5.158   2.243   7.342  0.5358  0.6397  0.1727
  422MOL0     C55601   5.060   2.180   7.254  1.1350 -0.0082 -0.2881
  422MOL0     O55602   4.945   2.136   7.316  0.5047 -0.4042  0.5770
  422MOL0     C55603   4.830   2.117   7.238 -0.8893  0.7089 -0.3130
  422MOL0     C55604   4.823   1.993   7.173  0.7608 -0.5326  0.0810
  422MOL0     C55605   4.708   1.963   7.089  0.2797  0.3230 -0.6478
  422MOL0     C55606   4.608   2.062   7.073 -0.8946 -0.1861  0.2756
  422MOL0     O55607   4.499   2.039   6.995  0.4220 -0.4742  0.4643
  422MOL0     C55608   4.454   1.904   6.962 -0.5014 -0.5003 -0.3666
  422MOL0     C55609   4.320   1.923   6.910  0.6304 -0.1665 -0.1846
  422MOL0     C55610   4.222   1.961   7.016 -0.2207  0.7695 -1.2348
  422MOL0     C55611   4.093   1.954   6.946 -0.1778 -0.2005 -1.3666
  422MOL0     C55612   3.972   1.968   7.035 -0.5793 -0.5487 -0.4893
  422MOL0     C55613   3.940   1.835   7.109  0.4612  0.3486 -0.2220
  422MOL0     C55614   3.829   1.843   7.211  0.1109  0.7045 -0.1703
  422MOL0     C55615   3.761   1.704   7.224 -0.3598 -0.2576 -0.2590
  422MOL0    Cl55616   3.628   1.702   7.344  0.0661  0.1084  0.0323
  422MOL0     C55617   4.616   2.182   7.143  0.0268 -1.3436 -0.1382
  422MOL0     C55618   4.726   2.211   7.231  0.2297  0.2489  0.0921
  422MOL0     O55619   5.078   2.187   7.129 -0.9210  0.8437  0.7435
  422MOL0     C55620   5.131   2.281   7.473  0.3530 -0.2670  0.1830
  422MOL0     C55621   5.227   2.341   7.548 -0.0747  0.2871 -0.3791
  422MOL0     N55622   5.783   2.777   7.707 -0.1182 -0.0768 -0.2447
  422MOL0     N55623   5.877   2.872   7.704 -0.0632  0.0572 -0.2356
  422MOL0     C55624   6.487   3.925   7.758 -0.3584 -0.9678 -0.5452
  422MOL0     C55625   6.609   3.958   7.702 -0.4958 -0.4003 -0.7018
  422MOL0     C55626   6.940   4.051   7.406  0.0270  0.2203  0.0599
  422MOL0     C55627   7.039   4.010   7.493 -0.0982  0.7974  0.3832
  422MOL0     C55628   7.173   4.052   7.492  0.6431  1.4381  0.0913
  422MOL0     C55629   7.209   4.093   7.367 -0.5855  0.0080 -0.3817
  422MOL0     O55630   7.343   4.106   7.362 -0.0387 -0.6983  0.5696
  422MOL0     C55631   7.400   4.131   7.232 -0.0789  0.2541 -0.0051
  422MOL0     C55632   7.544   4.090   7.221  0.1400 -0.1714 -0.5163
  422MOL0     C55633   7.643   4.200   7.249  0.3196  0.6079  0.5130
  422MOL0     C55634   7.790   4.144   7.254  0.1341 -0.0567 -0.2941
  422MOL0     C55635   7.807   4.044   7.151 -0.0276 -0.7888 -0.6050
  422MOL0     C55636   7.820   3.963   7.060  0.4980  1.1303 -0.6629
  422MOL0     C55637   7.118   4.142   7.269  0.6557  0.3802 -0.4290
  422MOL0     C55638   6.980   4.124   7.290  1.3511  0.0984 -0.6851
  422MOL0     H55639   6.583   3.815   7.396 -0.5590 -4.6036  1.5239
  422MOL0     H55640   6.358   3.766   7.489 -0.0548 -2.0781  1.7176
  422MOL0     H55641   6.241   3.931   7.905 -1.4984  0.1910  0.0486
  422MOL0     H55642   6.324   3.777   7.923  0.5607  1.0717 -0.0771
  422MOL0     H55643   6.028   3.820   7.842  1.3072  0.2011 -2.7057
  422MOL0     H55644   6.085   3.789   8.007  2.2671 -0.5037  0.1258
  422MOL0     H55645   6.164   3.561   7.956  0.7333 -0.4444 -0.8757
  422MOL0     H55646   6.127   3.586   7.786  3.0420  2.7586  0.3447
  422MOL0     H55647   5.958   3.593   8.047 -1.4419 -0.3429  0.4558
  422MOL0     H55648   5.881   3.608   7.896 -1.3301  1.4228  3.6168
  422MOL0     H55649   5.876   3.392   8.030  1.9756  0.2081 -0.4699
  422MOL0     H55650   6.037   3.348   7.980  0.1988 -0.8127 -1.2557
  422MOL0     H55651   6.013   3.347   7.749 -0.2165  0.7414 -2.0809
  422MOL0     H55652   5.867   3.433   7.753  0.6606 -0.2127 -1.9321
  422MOL0     H55653   5.890   3.156   7.896  0.5091  1.7659  1.1997
  422MOL0     H55654   5.745   3.240   7.844 -0.5770 -1.2274 -0.8366
  422MOL0     H55655   5.964   3.115   7.660  1.7064 -1.4748  2.8994
  422MOL0     H55656   5.811   3.186   7.605 -0.8481  0.3048  0.5574
  422MOL0     H55657   5.586   3.032   7.692 -1.0045 -1.2254 -1.6628
  422MOL0     H55658   5.459   2.848   7.745 -0.0287 -0.6768  0.4621
  422MOL0     H55659   5.520   2.682   7.754  0.4324 -0.4708 -0.7753
  422MOL0     H55660   5.446   2.842   7.507  2.6458  1.3158  1.3759
  422MOL0     H55661   5.368   2.708   7.568  0.4265 -1.2281 -2.6536
  422MOL0     H55662   5.458   2.630   7.368 -2.2611 -0.4288  1.0242
  422MOL0     H55663   5.630   2.673   7.417 -1.0341  0.8544 -1.0758
  422MOL0     H55664   5.632   2.521   7.582  1.6616  2.3008 -1.6958
  422MOL0     H55665   5.597   2.438   7.440  1.1846  1.2778 -1.1130
  422MOL0     H55666   5.461   2.355   7.312  0.7782 -0.3614  2.4457
  422MOL0     H55667   5.282   2.271   7.179 -1.6325 -0.9152  0.6237
  422MOL0     H55668   4.905   1.923   7.175  0.5462 -0.9914 -2.8307
  422MOL0     H55669   4.701   1.868   7.037 -0.5852  0.9698 -1.7728
  422MOL0     H55670   4.460   1.837   7.047  0.5584  0.4509  0.3399
  422MOL0     H55671   4.512   1.852   6.885  1.3056 -0.9416  1.2209
  422MOL0     H55672   4.295   1.834   6.852  2.1473  0.3385 -1.7081
  422MOL0     H55673   4.325   1.997   6.830 -0.0599 -0.4963 -0.5424
  422MOL0     H55674   4.238   2.062   7.056 -1.0931  0.0873  0.9969
  422MOL0     H55675   4.237   1.890   7.098  0.0559  3.0121  0.7638
  422MOL0     H55676   4.096   2.032   6.870 -0.4528 -1.2408 -2.4772
  422MOL0     H55677   4.081   1.858   6.895 -1.2952 -1.2936  0.7978
  422MOL0     H55678   3.883   1.994   6.976 -0.4347 -0.0738 -0.4996
  422MOL0     H55679   3.977   2.045   7.112  1.1968 -0.6687 -0.4362
  422MOL0     H55680   4.024   1.794   7.165  0.2184 -1.4350 -1.0851
  422MOL0     H55681   3.901   1.769   7.031 -2.2518 -1.3579  2.3422
  422MOL0     H55682   3.852   1.870   7.315 -3.2554 -1.5722  1.3592
  422MOL0     H55683   3.763   1.928   7.188  0.8771  1.6470  0.9718
  422MOL0     H55684   3.824   1.624   7.265 -1.8335 -3.0938 -3.1102
  422MOL0     H55685   3.731   1.672   7.124 -1.7088 -1.6579  0.5535
  422MOL0     H55686   4.539   2.251   7.112  2.0091  0.0080 -2.3692
  422MOL0     H55687   4.747   2.305   7.281  2.7396 -0.2573  0.0880
  422MOL0     H55688   5.031   2.273   7.515  0.6995 -1.8915  0.7865
  422MOL0     H55689   5.217   2.356   7.655 -0.5688 -1.0760 -0.2094
  422MOL0     H55690   6.477   3.943   7.865  3.2378  0.0974 -0.2531
  422MOL0     H55691   6.669   4.034   7.750 -0.1952 -1.3365  0.4340
  422MOL0     H55692   7.018   3.946   7.578  0.1426 -0.7504 -0.6595
  422MOL0     H55693   7.245   4.025   7.568 -0.9041 -0.1386  1.0946
  422MOL0     H55694   7.380   4.229   7.190  0.6312 -0.3782 -1.9435
  422MOL0     H55695   7.360   4.053   7.166 -1.9085  1.5824 -0.5371
  422MOL0     H55696   7.570   4.002   7.281  2.1579 -0.9354 -2.3747
  422MOL0     H55697   7.567   4.064   7.117  1.1646 -1.2649 -0.0446
  422MOL0     H55698   7.632   4.246   7.348  1.9001 -1.2835  1.6556
  422MOL0     H55699   7.645   4.270   7.165 -0.0438 -1.9156 -1.7420
  422MOL0     H55700   7.864   4.225   7.248 -0.0333  0.2745  1.5308
  422MOL0     H55701   7.805   4.086   7.346 -4.1014  1.1738  1.3969
  422MOL0     H55702   7.833   3.898   6.976  0.1510  0.0059  0.1318
  422MOL0     H55703   7.155   4.183   7.176  0.4181  0.8514 -0.3183
  422MOL0     H55704   6.915   4.146   7.206  0.2321  0.2633  0.1983
  423MOL0     O55705   9.940   1.912  10.787 -0.0938  0.3386 -0.2966
  423MOL0     C55706   9.983   1.933  10.673 -1.7563  0.2748  0.5403
  423MOL0     O55707   9.921   1.916  10.552  0.4467  0.0597 -0.1574
  423MOL0     C55708   9.794   1.861  10.563  0.6264 -0.8184  0.1121
  423MOL0     C55709   9.757   1.766  10.471  0.1665  1.1350 -1.2495
  423MOL0     C55710   9.628   1.714  10.463  0.1425  0.2526  0.4254
  423MOL0     C55711   9.535   1.743  10.559  0.0421 -0.8575 -0.1746
  423MOL0     O55712   9.428   1.664  10.600  0.5337 -0.5284  0.4922
  423MOL0     C55713   9.416   1.531  10.555 -0.1395 -0.5530  0.0354
  423MOL0     C55714   9.292   1.468  10.611  0.8692 -0.6761 -0.6774
  423MOL0     C55715   9.179   1.498  10.522 -0.3668 -0.7182 -0.4118
  423MOL0     C55716   9.059   1.414  10.545  1.5132 -0.0414  0.5508
  423MOL0     C55717   8.953   1.433  10.440  0.2069  0.0179 -0.7367
  423MOL0     C55718   8.816   1.392  10.497 -0.1658 -0.2207  0.1977
  423MOL0     C55719   8.797   1.244  10.524 -0.4043  0.2402  0.0528
  423MOL0     C55720   8.685   1.211  10.632  0.4064 -0.6138  0.5715
  423MOL0     N55721   8.556   1.245  10.570  0.5208 -0.7585 -0.6532
  423MOL0     C55722   8.444   1.295  10.636  0.2545 -0.6840 -0.5336
  423MOL0     C55723   8.352   1.288  10.549  0.5150  0.2149  0.0393
  423MOL0     C55724   8.214   1.335  10.580  0.0646 -0.3040 -0.6235
  423MOL0     C55725   8.100   1.245  10.520  0.1274 -0.3842  0.1414
  423MOL0     C55726   8.057   1.300  10.380  0.5493 -0.5279 -0.4077
  423MOL0     C55727   7.934   1.388  10.402  0.7224 -0.1193  0.2276
  423MOL0     O55728   7.810   1.322  10.386  0.1152  0.8578  0.2719
  423MOL0     C55729   7.696   1.389  10.375 -0.5272 -0.7578 -0.7956
  423MOL0     C55730   7.683   1.526  10.347  0.4433 -0.7663 -0.3810
  423MOL0     C55731   7.551   1.581  10.339  0.8167  0.1615  0.0505
  423MOL0     C55732   7.437   1.512  10.366  0.9588  0.1047  0.1388
  423MOL0     C55733   7.304   1.571  10.377 -0.3257  0.1710  0.7774
  423MOL0     O55734   7.195   1.493  10.359 -0.7987  0.5481  1.2010
  423MOL0     C55735   7.061   1.537  10.380 -0.6123  0.4781 -0.4701
  423MOL0     C55736   7.034   1.617  10.489  1.1559  0.6416 -0.5360
  423MOL0     C55737   6.908   1.674  10.505 -0.3494  0.1915  1.1252
  423MOL0     C55738   6.807   1.644  10.418  0.2747  0.0859  0.3566
  423MOL0     O55739   6.695   1.716  10.437 -0.5068 -0.4814  0.5486
  423MOL0     C55740   6.616   1.746  10.328 -0.0004  0.2250  0.0280
  423MOL0     C55741   6.484   1.668  10.314 -0.5358 -0.1451 -0.0366
  423MOL0     C55742   6.412   1.687  10.182 -0.0038 -0.2434  0.6501
  423MOL0     C55743   6.364   1.829  10.168  0.7002  0.5498  0.2615
  423MOL0     C55744   6.275   1.847  10.043  0.2812 -0.1857  1.2992
  423MOL0     C55745   6.353   1.844   9.906  0.2854  0.2341  0.1743
  423MOL0     C55746   6.259   1.812   9.784 -0.3796  0.4601 -0.4569
  423MOL0     C55747   6.150   1.922   9.757 -0.5289  1.0997  0.9569
  423MOL0    Cl55748   6.066   1.872   9.606 -0.4449 -0.2278 -0.8056
  423MOL0     C55749   6.832   1.554  10.312  0.6194  0.4112 -0.0330
  423MOL0     C55750   6.954   1.497  10.296  0.4669  0.6395 -0.5346
  423MOL0     O55751   7.299   1.691  10.377  0.2693  0.3132  0.8548
  423MOL0     C55752   7.453   1.375  10.393  0.5740  0.0775  0.5016
  423MOL0     C55753   7.580   1.314  10.387 -0.1753 -0.5963 -0.8387
  423MOL0     N55754   8.403   1.245  10.426 -0.5013  0.0916  0.0851
  423MOL0     N55755   8.531   1.224  10.443 -1.3205 -0.7680  0.1952
  423MOL0     C55756   9.557   1.858  10.633 -0.8234 -0.0854 -0.2258
  423MOL0     C55757   9.683   1.918  10.635 -0.0699  0.5223 -0.4381
  423MOL0     C55758  10.111   2.002  10.666  0.4604 -0.5834  0.1699
  423MOL0     C55759  10.167   2.040  10.537 -0.7691 -0.5789  0.0803
  423MOL0     C55760  10.290   2.106  10.540  0.0734 -0.5018 -1.0287
  423MOL0     C55761  10.353   2.150  10.664 -0.4528  0.0263  0.7917
  423MOL0     O55762  10.467   2.236  10.646 -0.3433 -0.0006  0.8688
  423MOL0     C55763  10.535   2.276  10.764 -0.0383 -0.4456  0.0879
  423MOL0     C55764  10.627   2.384  10.709 -0.6994  0.2092 -0.1712
  423MOL0     C55765  10.729   2.430  10.812 -0.0825 -0.1557  0.0754
  423MOL0     C55766  10.672   2.486  10.945 -0.4834 -0.7356  0.4410
  423MOL0     C55767  10.578   2.591  10.939  0.7347  0.4167 -0.0495
  423MOL0     C55768  10.509   2.675  10.899  0.1872 -0.6667 -0.3338
  423MOL0     C55769  10.301   2.111  10.790  0.3779 -0.1464 -0.4543
  423MOL0     C55770  10.186   2.032  10.788 -0.1647  0.0053  0.4548
  423MOL0     H55771   9.846   1.728  10.422  2.8217  2.8966  1.8212
  423MOL0     H55772   9.600   1.648  10.381  2.4566  1.7630 -1.7388
  423MOL0     H55773   9.500   1.471  10.593  0.7725 -2.4608 -4.3017
  423MOL0     H55774   9.415   1.531  10.446 -1.5569  0.7265  0.0216
  423MOL0     H55775   9.275   1.507  10.711 -2.1781  0.5966 -1.5875
  423MOL0     H55776   9.297   1.359  10.618 -4.8677 -1.2742 -1.6175
  423MOL0     H55777   9.206   1.497  10.416  3.0777  3.2186  0.1357
  423MOL0     H55778   9.155   1.603  10.543 -0.7249 -1.1152  1.3332
  423MOL0     H55779   9.096   1.312  10.538  2.3480  0.3505 -1.5604
  423MOL0     H55780   9.013   1.431  10.643 -0.5299  1.0527 -0.5316
  423MOL0     H55781   8.980   1.379  10.348 -0.1035  1.0870 -1.4764
  423MOL0     H55782   8.949   1.540  10.420 -2.2644 -0.0615 -1.0231
  423MOL0     H55783   8.737   1.422  10.428 -1.8137 -0.4970  1.8631
  423MOL0     H55784   8.786   1.438  10.591 -3.3246  1.0250 -1.2791
  423MOL0     H55785   8.781   1.199  10.425  1.2032  1.9201 -1.0400
  423MOL0     H55786   8.887   1.194  10.559 -1.3606 -2.5416 -1.1560
  423MOL0     H55787   8.705   1.265  10.725 -1.2373  0.8300  0.1450
  423MOL0     H55788   8.675   1.107  10.666  1.0946 -1.2334 -1.0472
  423MOL0     H55789   8.434   1.334  10.737 -0.2805 -1.4474 -0.2728
  423MOL0     H55790   8.214   1.434  10.532  2.7048 -0.5561 -1.2787
  423MOL0     H55791   8.202   1.348  10.688  1.6585  1.0470 -0.5656
  423MOL0     H55792   8.022   1.245  10.597  0.9239 -1.4497  0.9775
  423MOL0     H55793   8.130   1.140  10.514  2.6576  0.2274  0.9458
  423MOL0     H55794   8.146   1.355  10.346 -0.8234  2.9043  1.0661
  423MOL0     H55795   8.034   1.215  10.316  2.7257 -1.5023  0.0205
  423MOL0     H55796   7.949   1.469  10.329 -0.8714  0.3034  0.3422
  423MOL0     H55797   7.937   1.431  10.503 -1.3690 -1.9364  1.1372
  423MOL0     H55798   7.768   1.593  10.340 -0.8284  0.7489 -2.7223
  423MOL0     H55799   7.544   1.686  10.313  2.7995 -0.2394 -2.5363
  423MOL0     H55800   7.113   1.649  10.556  0.9262 -0.0728  0.0924
  423MOL0     H55801   6.893   1.740  10.589 -0.0719  0.0263  1.3053
  423MOL0     H55802   6.666   1.744  10.230  1.8949  0.5045  0.9627
  423MOL0     H55803   6.594   1.853  10.334  2.4287  0.9465 -1.9560
  423MOL0     H55804   6.422   1.693  10.401  1.0579  0.2211  1.0249
  423MOL0     H55805   6.510   1.562  10.320 -2.0851 -0.5393  0.3172
  423MOL0     H55806   6.332   1.614  10.161 -0.6337 -0.2950  2.9392
  423MOL0     H55807   6.482   1.665  10.101 -1.7082 -3.3548 -0.1448
  423MOL0     H55808   6.306   1.860  10.256  0.0412  2.6618 -0.8429
  423MOL0     H55809   6.444   1.903  10.153  1.7710 -0.4252  0.9857
  423MOL0     H55810   6.221   1.942  10.035  0.9977  0.2849  1.9526
  423MOL0     H55811   6.195   1.772  10.050  1.6680 -1.5928  3.0078
  423MOL0     H55812   6.426   1.763   9.908  0.7875  0.3909 -3.9749
  423MOL0     H55813   6.402   1.940   9.891  2.1924 -0.6094  0.6896
  423MOL0     H55814   6.323   1.796   9.696 -1.1800 -2.2329 -0.6422
  423MOL0     H55815   6.223   1.716   9.823  0.0320  1.6912  3.3360
  423MOL0     H55816   6.213   2.010   9.740  1.5717 -0.5771 -0.6330
  423MOL0     H55817   6.077   1.940   9.836 -1.1312 -0.7747  0.8623
  423MOL0     H55818   6.749   1.530  10.246  2.6125 -0.4374 -2.3789
  423MOL0     H55819   6.970   1.428  10.214 -1.3489  2.5728 -2.6858
  423MOL0     H55820   7.369   1.312  10.418  0.1735  0.5874  0.4665
  423MOL0     H55821   7.594   1.208  10.403 -2.7740 -1.1609 -1.7857
  423MOL0     H55822   9.486   1.897  10.706  1.4132  0.7015  1.6809
  423MOL0     H55823   9.686   2.005  10.701 -0.2969  0.0408  0.2221
  423MOL0     H55824  10.128   2.009  10.441  0.0994  1.4919 -1.0192
  423MOL0     H55825  10.329   2.131  10.442 -1.9978 -0.7326 -1.9453
  423MOL0     H55826  10.593   2.196  10.811 -0.2517 -0.2650  0.6650
  423MOL0     H55827  10.468   2.329  10.832 -1.2643  1.6099 -2.5047
  423MOL0     H55828  10.681   2.350  10.620  0.4717  0.0254  0.5725
  423MOL0     H55829  10.572   2.472  10.676  2.0541  2.3877  0.5936
  423MOL0     H55830  10.788   2.508  10.763 -1.6722  1.6795  0.9330
  423MOL0     H55831  10.795   2.345  10.829  1.7161  0.6739 -2.2092
  423MOL0     H55832  10.640   2.398  11.002 -0.5432  0.1051  1.7513
  423MOL0     H55833  10.764   2.522  10.992 -1.1361  0.5045  0.8134
  423MOL0     H55834  10.469   2.766  10.858 -1.4067 -1.0025  0.4120
  423MOL0     H55835  10.347   2.139  10.884  2.3727  3.5359 -2.3106
  423MOL0     H55836  10.139   1.989  10.876  2.0415 -1.3067  1.0670
  424MOL0     O55837   7.256   7.657   7.549 -0.4317  0.4920 -0.3160
  424MOL0     C55838   7.326   7.640   7.647 -0.3861  0.3304  0.0671
  424MOL0     O55839   7.286   7.649   7.784  0.2846  1.2252  0.1793
  424MOL0     C55840   7.154   7.619   7.812  0.0696  0.9219  0.0470
  424MOL0     C55841   7.094   7.673   7.927  0.2454 -0.5134 -0.4003
  424MOL0     C55842   6.968   7.643   7.967 -0.1468 -0.1034  0.8309
  424MOL0     C55843   6.896   7.550   7.890  0.3841 -0.0956 -0.0357
  424MOL0     O55844   6.785   7.511   7.953  0.9207 -0.1835 -0.0791
  424MOL0     C55845   6.697   7.427   7.872  0.0210 -0.0577  0.4361
  424MOL0     C55846   6.568   7.403   7.949 -0.6135  0.4730 -0.2604
  424MOL0     C55847   6.483   7.526   7.957  0.0744  0.1694  0.3386
  424MOL0     C55848   6.352   7.507   8.027 -0.7636 -0.8519 -0.0970
  424MOL0     C55849   6.250   7.429   7.944  0.7871 -0.1007 -0.4557
  424MOL0     C55850   6.111   7.464   8.003 -0.3259 -0.6211 -0.3667
  424MOL0     C55851   5.995   7.387   7.939 -0.2644 -0.0724 -0.2199
  424MOL0     C55852   5.958   7.449   7.800 -0.5771  0.0621  0.0919
  424MOL0     N55853   5.838   7.389   7.737 -0.5220 -0.0774  0.6435
  424MOL0     C55854   5.712   7.393   7.792 -0.1772  0.6506 -0.3112
  424MOL0     C55855   5.637   7.323   7.707  0.5807  0.5177  0.1313
  424MOL0     C55856   5.495   7.285   7.723 -0.4829 -0.3423  0.2801
  424MOL0     C55857   5.474   7.146   7.772 -0.4887 -0.3285 -0.6896
  424MOL0     C55858   5.326   7.110   7.784  0.2307 -0.5172 -0.8113
  424MOL0     C55859   5.303   6.960   7.809  0.2841 -0.2794 -0.0508
  424MOL0     O55860   5.231   6.933   7.926  0.1434  0.0949 -0.0914
  424MOL0     C55861   5.097   6.905   7.913 -0.9788  0.1282 -0.5771
  424MOL0     C55862   5.049   6.802   7.997  0.9084 -1.3599  0.2364
  424MOL0     C55863   4.910   6.779   7.994  0.1151 -0.4532 -0.0499
  424MOL0     C55864   4.823   6.854   7.913  0.0190 -0.1083  0.8391
  424MOL0     C55865   4.686   6.812   7.926 -0.2963 -0.1148  0.1236
  424MOL0     O55866   4.609   6.851   7.825 -0.1128 -0.3482  0.7172
  424MOL0     C55867   4.488   6.775   7.813 -0.2138 -0.5543 -0.3543
  424MOL0     C55868   4.369   6.806   7.887 -1.5077  0.2565  0.9058
  424MOL0     C55869   4.255   6.728   7.866 -0.6050 -1.1704  0.8156
  424MOL0     C55870   4.253   6.633   7.770 -0.4798 -1.0106  0.1685
  424MOL0     O55871   4.133   6.574   7.742 -0.5501 -0.1343  0.4220
  424MOL0     C55872   4.100   6.483   7.633 -0.2472  0.7450  0.0712
  424MOL0     C55873   4.129   6.341   7.667 -0.6597 -0.0280  0.1382
  424MOL0     C55874   4.050   6.236   7.587 -0.1680 -0.2243 -0.2645
  424MOL0     C55875   4.101   6.091   7.619  0.0451 -0.2098 -0.3846
  424MOL0     C55876   4.016   5.970   7.548  0.2345  0.3236  0.1748
  424MOL0     C55877   4.001   5.986   7.396 -0.0017 -0.1058  0.5905
  424MOL0     C55878   3.971   5.850   7.331 -0.1238  0.4848  0.0819
  424MOL0     C55879   4.084   5.744   7.321  0.6451  0.4204 -0.2175
  424MOL0    Cl55880   4.202   5.810   7.209 -0.3814  0.1696  0.2581
  424MOL0     C55881   4.373   6.586   7.715 -0.6943  0.1511 -0.6464
  424MOL0     C55882   4.487   6.658   7.736 -0.6215 -0.7119  0.3479
  424MOL0     O55883   4.647   6.749   8.022 -0.4289  0.3619  0.2348
  424MOL0     C55884   4.872   6.945   7.822  0.7346  0.0854  0.3126
  424MOL0     C55885   5.004   6.978   7.837  0.0588  0.1815  1.0718
  424MOL0     N55886   5.714   7.273   7.603 -1.2104  0.0571 -0.2130
  424MOL0     N55887   5.828   7.326   7.614  0.9723 -0.2524  0.1133
  424MOL0     C55888   6.952   7.480   7.781 -0.3934  0.8090  0.5949
  424MOL0     C55889   7.080   7.524   7.741  0.3613  0.0901 -0.1319
  424MOL0     C55890   7.470   7.649   7.632  0.2656  0.6776 -0.4609
  424MOL0     C55891   7.561   7.658   7.740  1.0181  0.2302  0.0680
  424MOL0     C55892   7.694   7.655   7.722 -0.2750  0.0035  0.2597
  424MOL0     C55893   7.747   7.643   7.596 -0.0116  0.7698  0.6822
  424MOL0     O55894   7.880   7.655   7.575 -0.8395 -0.6534  0.7717
  424MOL0     C55895   7.960   7.751   7.648  0.1137  0.5674 -1.2730
  424MOL0     C55896   8.109   7.701   7.656 -0.2972 -0.2079  0.3456
  424MOL0     C55897   8.172   7.648   7.527 -0.1126  0.2248  0.3241
  424MOL0     C55898   8.173   7.750   7.421  0.3032  0.1642 -0.5478
  424MOL0     C55899   8.290   7.724   7.340 -1.3521 -0.5039  0.2788
  424MOL0     C55900   8.383   7.697   7.265  0.0991 -0.1731 -0.5348
  424MOL0     C55901   7.666   7.632   7.486 -0.5687  0.3818 -0.1051
  424MOL0     C55902   7.521   7.636   7.502 -0.4223 -0.1340 -0.3587
  424MOL0     H55903   7.150   7.737   7.994 -0.7165  1.7311 -1.6397
  424MOL0     H55904   6.916   7.686   8.052 -2.9019 -1.3681 -0.1041
  424MOL0     H55905   6.745   7.330   7.855  1.1071  0.2965  1.3949
  424MOL0     H55906   6.679   7.479   7.777  0.2733 -0.3840  0.2061
  424MOL0     H55907   6.589   7.374   8.052 -1.8462  0.5368  0.0196
  424MOL0     H55908   6.508   7.322   7.906 -0.6491  0.3018  0.1105
  424MOL0     H55909   6.464   7.557   7.854 -2.6505 -1.5346  0.2278
  424MOL0     H55910   6.542   7.600   8.011 -1.0343  2.2621 -1.1930
  424MOL0     H55911   6.370   7.461   8.125 -0.3466  1.7523  1.1490
  424MOL0     H55912   6.311   7.607   8.046  2.6119  0.4429  1.1828
  424MOL0     H55913   6.261   7.321   7.931  1.3369 -0.3269  1.6117
  424MOL0     H55914   6.241   7.466   7.842  2.2258 -1.0980 -0.9742
  424MOL0     H55915   6.094   7.572   8.005  0.2732 -0.4434 -2.4143
  424MOL0     H55916   6.127   7.429   8.106 -0.0096 -0.7056 -0.4414
  424MOL0     H55917   6.029   7.283   7.946  1.4090  0.5552  3.3097
  424MOL0     H55918   5.904   7.390   7.999 -0.6526 -0.3654 -0.7779
  424MOL0     H55919   6.037   7.440   7.725 -1.6446 -0.9202 -0.9620
  424MOL0     H55920   5.938   7.556   7.806 -2.8307 -0.3754  2.7944
  424MOL0     H55921   5.688   7.450   7.881  2.2516 -0.8610  1.4071
  424MOL0     H55922   5.445   7.308   7.628 -0.7625 -0.6526  0.3503
  424MOL0     H55923   5.443   7.344   7.799  0.7869 -2.9917  3.3978
  424MOL0     H55924   5.527   7.140   7.868  0.0490  0.7353 -0.9127
  424MOL0     H55925   5.513   7.078   7.696  1.3530  0.1286 -0.1992
  424MOL0     H55926   5.289   7.169   7.868  0.6218 -1.3504 -0.0421
  424MOL0     H55927   5.264   7.130   7.696 -1.3728 -0.9121  0.1969
  424MOL0     H55928   5.398   6.907   7.815  1.6484  2.0135 -0.1458
  424MOL0     H55929   5.250   6.915   7.725 -3.1830 -0.6676  2.1512
  424MOL0     H55930   5.110   6.756   8.075  0.3905 -1.5870  0.5157
  424MOL0     H55931   4.870   6.699   8.055 -1.3748 -2.5563 -3.5054
  424MOL0     H55932   4.368   6.887   7.959 -1.5847 -0.0881  1.3002
  424MOL0     H55933   4.161   6.761   7.908  1.7415  6.0076  1.7499
  424MOL0     H55934   4.163   6.512   7.548  1.2494 -1.9108  0.1757
  424MOL0     H55935   3.993   6.500   7.619 -0.0295  1.7633 -0.5134
  424MOL0     H55936   4.110   6.329   7.774  0.9457 -0.5164  0.4006
  424MOL0     H55937   4.236   6.322   7.653 -0.5178  0.1926  0.8855
  424MOL0     H55938   4.064   6.249   7.480  0.2063  0.7975 -0.1095
  424MOL0     H55939   3.946   6.241   7.621  0.7316  2.0678  2.5893
  424MOL0     H55940   4.209   6.088   7.601 -0.0423 -1.3039 -0.7807
  424MOL0     H55941   4.084   6.082   7.727  1.1864 -1.1248 -0.2611
  424MOL0     H55942   3.917   5.958   7.592  0.0415 -1.5418 -0.6707
  424MOL0     H55943   4.068   5.876   7.571  0.1612  0.4000  0.6506
  424MOL0     H55944   4.101   6.011   7.359  0.4717 -2.9990 -0.4100
  424MOL0     H55945   3.919   6.054   7.373 -0.8956  0.2678  4.3036
  424MOL0     H55946   3.892   5.803   7.390  1.2104  2.5386  3.8078
  424MOL0     H55947   3.924   5.869   7.234 -4.1265 -1.3022  1.4570
  424MOL0     H55948   4.035   5.656   7.278  0.6228 -0.7326  2.0213
  424MOL0     H55949   4.133   5.729   7.417  1.9469  0.7968 -0.8073
  424MOL0     H55950   4.360   6.496   7.656 -3.7398 -2.6448  3.6515
  424MOL0     H55951   4.584   6.629   7.697 -1.1232 -1.9854 -0.0066
  424MOL0     H55952   4.798   6.987   7.755  1.2049 -1.0792 -0.9905
  424MOL0     H55953   5.034   7.070   7.788  1.7995 -1.0689 -0.3774
  424MOL0     H55954   6.915   7.387   7.740  1.2924  0.0089  0.8149
  424MOL0     H55955   7.124   7.473   7.656 -0.7442 -0.5058 -0.3638
  424MOL0     H55956   7.520   7.672   7.840 -0.7451  1.3118 -0.7627
  424MOL0     H55957   7.749   7.669   7.814  0.2409  0.5393 -0.1235
  424MOL0     H55958   7.925   7.765   7.751  2.0504 -0.4955 -0.4217
  424MOL0     H55959   7.965   7.854   7.612 -2.4727  2.2847  2.5199
  424MOL0     H55960   8.173   7.785   7.684  0.5460 -1.0274  0.9088
  424MOL0     H55961   8.119   7.628   7.737  2.2993  0.6599  0.8984
  424MOL0     H55962   8.109   7.564   7.497  0.6734 -2.0428  4.1842
  424MOL0     H55963   8.269   7.599   7.547 -0.5999 -1.0553 -0.3084
  424MOL0     H55964   8.080   7.743   7.364 -1.2815  3.3297  1.3906
  424MOL0     H55965   8.188   7.850   7.463  1.0700 -0.2566  0.2203
  424MOL0     H55966   8.464   7.670   7.199 -1.0384 -1.7594 -1.3502
  424MOL0     H55967   7.712   7.609   7.390 -0.7883 -2.4489  0.3569
  424MOL0     H55968   7.457   7.617   7.417 -1.6709  0.2374  0.4646
  425MOL0     O55969   0.225   0.116  10.057  0.0781 -0.2927  0.3752
  425MOL0     C55970   0.170   0.124   9.947 -0.5912  0.4453 -0.6113
  425MOL0     O55971   0.035   0.134   9.917 -0.4512  0.7687 -0.4737
  425MOL0     C55972  -0.059   0.108  10.018  0.9168  0.5044 -0.1367
  425MOL0     C55973  -0.184   0.113   9.965  0.5217 -0.7307 -0.2810
  425MOL0     C55974  -0.301   0.105  10.046 -0.6340  0.1447  0.6683
  425MOL0     C55975  -0.284   0.069  10.180  0.0950 -0.8701  0.1446
  425MOL0     O55976  -0.399   0.031  10.247  0.3439  0.4275  0.3670
  425MOL0     C55977  -0.383   0.016  10.388  0.7091  0.5272  0.4314
  425MOL0     C55978  -0.528  -0.018  10.441 -0.2472 -1.1648 -0.5066
  425MOL0     C55979  -0.536  -0.043  10.594  0.0740  0.6683 -0.1905
  425MOL0     C55980  -0.444  -0.154  10.644  0.2209  0.4028  0.1443
  425MOL0     C55981  -0.487  -0.220  10.772  0.0744 -0.5164 -0.9611
  425MOL0     C55982  -0.525  -0.123  10.886  0.5481 -0.1669  0.3552
  425MOL0     C55983  -0.565  -0.188  11.014  0.8759 -0.0002  0.0306
  425MOL0     C55984  -0.691  -0.281  11.005 -0.2891 -0.7249  0.5677
  425MOL0     N55985  -0.826  -0.232  11.015  0.8060 -0.2996 -0.0502
  425MOL0     C55986  -0.912  -0.265  10.917  0.3411  0.3016  1.0850
  425MOL0     C55987  -1.038  -0.241  10.968  0.3525 -0.4803  0.3116
  425MOL0     C55988  -1.164  -0.287  10.900 -0.0122 -0.5995 -0.2599
  425MOL0     C55989  -1.304  -0.244  10.960 -0.5469  0.6301 -0.1815
  425MOL0     C55990  -1.421  -0.285  10.873  0.3373 -0.1376  0.0936
  425MOL0     C55991  -1.557  -0.253  10.934 -0.3023 -0.8553  0.1415
  425MOL0     O55992  -1.565  -0.344  11.043  0.8981 -0.9979  0.5330
  425MOL0     C55993  -1.685  -0.363  11.107  0.6407 -0.7762  0.2287
  425MOL0     C55994  -1.700  -0.483  11.172  0.3537  0.1746 -0.2953
  425MOL0     C55995  -1.817  -0.520  11.252 -0.9853 -0.2704  0.9906
  425MOL0     C55996  -1.925  -0.429  11.254 -0.3064  0.5025  0.1658
  425MOL0     C55997  -2.055  -0.464  11.315 -0.1936  0.5463 -0.8553
  425MOL0     O55998  -2.161  -0.381  11.306 -0.8059  0.3029  1.1430
  425MOL0     C55999  -2.289  -0.416  11.352 -0.5634 -0.3919  0.5082
  425MOL0     C56000  -2.390  -0.401  11.269 -0.1817  0.1110  1.3987
  425MOL0     C56001  -2.528  -0.424  11.305  0.2124 -0.0409 -0.4737
  425MOL0     C56002  -2.555  -0.469  11.441 -0.3414  0.5043  0.9656
  425MOL0     O56003  -2.690  -0.479  11.476 -0.2384  1.1537  0.1627
  425MOL0     C56004  -2.719  -0.579  11.577  0.4015 -0.0090 -0.5254
  425MOL0     C56005  -2.872  -0.580  11.575 -0.3672 -0.0915  0.3782
  425MOL0     C56006  -2.918  -0.617  11.714 -0.4745  0.1893 -0.5297
  425MOL0     C56007  -3.065  -0.593  11.738  0.1536  0.2249 -0.0758
  425MOL0     C56008  -3.164  -0.681  11.660  0.2808 -0.4499  0.5456
  425MOL0     C56009  -3.288  -0.739  11.741  0.8276 -0.4026  0.9201
  425MOL0     C56010  -3.359  -0.619  11.809 -1.4348  0.6035 -0.2039
  425MOL0     C56011  -3.511  -0.627  11.818 -0.1103 -0.1942 -0.2837
  425MOL0    Cl56012  -3.580  -0.743  11.940 -0.0877 -0.3591  0.5823
  425MOL0     C56013  -2.443  -0.490  11.527 -0.3591  0.7656  0.3399
  425MOL0     C56014  -2.316  -0.471  11.484  0.5076 -0.5184  0.0505
  425MOL0     O56015  -2.058  -0.573  11.373  0.4950  0.5237  0.4941
  425MOL0     C56016  -1.913  -0.306  11.186 -0.0061 -0.5250  0.2571
  425MOL0     C56017  -1.792  -0.269  11.120 -0.0941  0.4732 -0.4656
  425MOL0     N56018  -1.026  -0.183  11.092 -0.3561 -0.6200  0.0997
  425MOL0     N56019  -0.901  -0.187  11.120  0.6715 -0.6021 -0.0277
  425MOL0     C56020  -0.157   0.070  10.238 -0.2228 -0.8505  0.0704
  425MOL0     C56021  -0.044   0.085  10.155  0.2149  0.4785 -0.0964
  425MOL0     C56022   0.260   0.136   9.827  0.2627 -0.6093 -0.7383
  425MOL0     C56023   0.206   0.124   9.698 -0.2735  0.1444  0.5067
  425MOL0     C56024   0.287   0.123   9.581  0.2668  0.9651  0.4125
  425MOL0     C56025   0.425   0.131   9.592  0.1245  0.2205  0.1797
  425MOL0     O56026   0.501   0.132   9.481 -0.6411 -1.1748  0.4427
  425MOL0     C56027   0.641   0.135   9.488 -0.4199  0.2580 -0.1767
  425MOL0     C56028   0.695   0.092   9.345 -0.4266  0.2186 -0.5104
  425MOL0     C56029   0.846   0.127   9.352 -0.8503  0.7059  0.6124
  425MOL0     C56030   0.920   0.116   9.219  0.3140 -0.0064 -0.2125
  425MOL0     C56031   1.060   0.160   9.247  0.1396  0.4807  0.0374
  425MOL0     C56032   1.174   0.189   9.257 -0.4570 -1.0300 -0.3871
  425MOL0     C56033   0.477   0.152   9.720  1.3658 -1.1740  0.3928
  425MOL0     C56034   0.400   0.162   9.836  0.4482  0.7493  0.1157
  425MOL0     H56035  -0.200   0.141   9.861 -0.0668  2.2277  0.4947
  425MOL0     H56036  -0.403   0.104  10.009 -0.7280 -3.8331  0.6375
  425MOL0     H56037  -0.344   0.105  10.437 -2.2034  0.8658  2.3957
  425MOL0     H56038  -0.317  -0.066  10.416  0.2325  0.3098  0.9523
  425MOL0     H56039  -0.557  -0.109  10.388 -2.9327 -0.2986 -0.6866
  425MOL0     H56040  -0.597   0.064  10.418  0.5015 -0.1633  0.7209
  425MOL0     H56041  -0.639  -0.069  10.617 -0.2815  0.7997 -1.5594
  425MOL0     H56042  -0.514   0.048  10.650  0.7410  0.4421 -0.0764
  425MOL0     H56043  -0.436  -0.227  10.563 -3.0371  0.6028 -0.5018
  425MOL0     H56044  -0.350  -0.100  10.660  0.9572 -0.7898 -0.0779
  425MOL0     H56045  -0.411  -0.287  10.814  0.3215 -0.2371 -0.9630
  425MOL0     H56046  -0.571  -0.283  10.743 -1.4449  1.6883 -1.6018
  425MOL0     H56047  -0.613  -0.067  10.852 -0.2075 -0.7218  1.3505
  425MOL0     H56048  -0.451  -0.048  10.916  2.0552 -1.8930  1.1535
  425MOL0     H56049  -0.472  -0.242  11.035 -0.5002 -2.1874  0.8103
  425MOL0     H56050  -0.584  -0.114  11.092  1.3130 -2.2401  2.3719
  425MOL0     H56051  -0.678  -0.349  11.090 -2.1862 -1.2963  0.4498
  425MOL0     H56052  -0.677  -0.341  10.914  0.9435 -1.4934  1.2338
  425MOL0     H56053  -0.891  -0.318  10.825  1.9774  1.5719  0.6835
  425MOL0     H56054  -1.156  -0.396  10.905 -1.4229 -0.6610  1.4838
  425MOL0     H56055  -1.156  -0.252  10.797 -0.2632 -0.8566 -0.3684
  425MOL0     H56056  -1.301  -0.135  10.969  2.7574  0.5710  0.5579
  425MOL0     H56057  -1.316  -0.299  11.054  0.6033 -2.0639 -1.5155
  425MOL0     H56058  -1.416  -0.221  10.784 -0.5326 -0.6269 -0.3209
  425MOL0     H56059  -1.415  -0.382  10.824  2.2660  0.7313 -1.5787
  425MOL0     H56060  -1.635  -0.265  10.858 -0.2086 -0.6958  0.0186
  425MOL0     H56061  -1.550  -0.150  10.973  3.7817 -1.2964  0.9782
  425MOL0     H56062  -1.610  -0.541  11.150  2.1735  2.7784 -0.1064
  425MOL0     H56063  -1.803  -0.617  11.298 -1.5333  0.4820  2.8492
  425MOL0     H56064  -2.365  -0.363  11.170 -1.7108 -2.8351 -0.2997
  425MOL0     H56065  -2.619  -0.425  11.246 -0.6005  1.5881  0.6674
  425MOL0     H56066  -2.679  -0.535  11.668 -0.4512  2.0784 -1.0953
  425MOL0     H56067  -2.675  -0.678  11.563  0.2980 -0.2556  0.7639
  425MOL0     H56068  -2.904  -0.650  11.498 -1.1018 -0.5057  1.0425
  425MOL0     H56069  -2.908  -0.478  11.556  1.6261  0.3209 -1.6773
  425MOL0     H56070  -2.862  -0.560  11.789  0.0283  0.0330 -0.7784
  425MOL0     H56071  -2.890  -0.720  11.735  2.1972  0.7625 -0.9317
  425MOL0     H56072  -3.082  -0.611  11.845 -1.9367 -1.3008 -0.5953
  425MOL0     H56073  -3.096  -0.491  11.713 -1.1657  0.0303  0.6601
  425MOL0     H56074  -3.103  -0.765  11.628  0.0904  0.2005 -1.6920
  425MOL0     H56075  -3.187  -0.623  11.570  1.9697 -0.8863 -0.1961
  425MOL0     H56076  -3.252  -0.808  11.817 -0.0149  0.7958  2.4559
  425MOL0     H56077  -3.359  -0.792  11.677 -0.8975 -1.2824  3.4152
  425MOL0     H56078  -3.315  -0.608  11.909 -0.8690 -1.1987 -0.2039
  425MOL0     H56079  -3.331  -0.526  11.761  0.6109  0.8721  1.3593
  425MOL0     H56080  -3.562  -0.649  11.724 -1.3458  0.5156  0.2038
  425MOL0     H56081  -3.529  -0.523  11.848 -2.2545 -0.3769 -0.7904
  425MOL0     H56082  -2.458  -0.506  11.633 -1.7707 -2.7211 -0.2449
  425MOL0     H56083  -2.241  -0.495  11.559 -0.0971 -4.3158 -0.3427
  425MOL0     H56084  -1.997  -0.238  11.181  0.8987  1.1861  4.2318
  425MOL0     H56085  -1.780  -0.171  11.077  2.8299  0.9736  1.2395
  425MOL0     H56086  -0.136   0.031  10.337  0.0931  1.4490  0.9709
  425MOL0     H56087   0.048   0.065  10.210  0.3788 -1.4863 -0.9958
  425MOL0     H56088   0.099   0.111   9.684 -0.0248 -1.9168  0.1597
  425MOL0     H56089   0.233   0.114   9.488  1.0973 -1.6729  0.0883
  425MOL0     H56090   0.681   0.054   9.549 -0.0272 -0.3369 -1.2062
  425MOL0     H56091   0.672   0.236   9.516  0.3023  0.6679 -2.2550
  425MOL0     H56092   0.691  -0.017   9.332  1.6352 -0.2913  2.1500
  425MOL0     H56093   0.636   0.148   9.271 -1.2490 -1.3373 -1.0762
  425MOL0     H56094   0.901   0.062   9.420 -2.3295 -0.9913  0.2750
  425MOL0     H56095   0.856   0.233   9.376  0.6613  0.8481 -0.4792
  425MOL0     H56096   0.918   0.014   9.180  0.9868 -0.3377  0.5830
  425MOL0     H56097   0.874   0.169   9.136 -1.2507  1.6533  1.6290
  425MOL0     H56098   1.280   0.204   9.260  0.1262 -3.5774 -2.9472
  425MOL0     H56099   0.584   0.160   9.735  1.5058 -1.1664 -0.5214
  425MOL0     H56100   0.452   0.172   9.931  2.6371  2.0604 -1.1271
  426MOL0     O56101   9.578   5.460   3.721 -0.5238 -0.6915 -0.1425
  426MOL0     C56102   9.590   5.565   3.792 -0.0557 -0.2570  0.3983
  426MOL0     O56103   9.490   5.642   3.845  0.2461  0.1097  0.5298
  426MOL0     C56104   9.360   5.597   3.829  0.0065  0.3769 -0.0244
  426MOL0     C56105   9.259   5.689   3.790 -0.1582  0.0976 -1.9283
  426MOL0     C56106   9.128   5.650   3.771  1.4246  0.0802 -0.3013
  426MOL0     C56107   9.088   5.518   3.777  0.0836 -0.8987 -0.8468
  426MOL0     O56108   8.963   5.483   3.743  0.5192 -0.4922  0.7387
  426MOL0     C56109   8.932   5.346   3.717  0.4135 -0.1179 -0.9875
  426MOL0     C56110   8.785   5.309   3.730 -0.0425 -0.9190  0.5675
  426MOL0     C56111   8.704   5.352   3.604 -0.1133  0.0208  0.2798
  426MOL0     C56112   8.562   5.295   3.604 -0.2257 -0.4432  0.6175
  426MOL0     C56113   8.488   5.340   3.480  0.2734  0.6126 -0.2122
  426MOL0     C56114   8.353   5.266   3.460  0.0679 -0.5007 -0.3610
  426MOL0     C56115   8.300   5.295   3.324  0.8166 -0.5486  0.4595
  426MOL0     C56116   8.201   5.186   3.284 -0.3897 -0.4336 -0.2717
  426MOL0     N56117   8.149   5.213   3.145  0.3251 -0.0393 -0.3553
  426MOL0     C56118   8.072   5.316   3.107  0.6291 -1.0741 -0.5736
  426MOL0     C56119   8.059   5.296   2.981  0.3879 -0.4398  0.6915
  426MOL0     C56120   7.988   5.388   2.885 -0.4798 -0.7757  0.3270
  426MOL0     C56121   7.831   5.415   2.903 -0.1480  0.2172 -0.3601
  426MOL0     C56122   7.748   5.287   2.922  0.2336  0.2347 -0.9607
  426MOL0     C56123   7.746   5.195   2.799 -0.4301  0.3707 -0.0493
  426MOL0     O56124   7.671   5.078   2.834  0.1329  0.0847 -0.1278
  426MOL0     C56125   7.741   4.957   2.857 -0.5269  0.0261 -0.1505
  426MOL0     C56126   7.876   4.950   2.905 -0.2615  0.5497  0.2079
  426MOL0     C56127   7.930   4.831   2.933 -0.7463  0.4010  0.1290
  426MOL0     C56128   7.863   4.708   2.915 -0.6529 -0.2534  0.7600
  426MOL0     C56129   7.933   4.576   2.932 -0.3210  0.3342 -0.5305
  426MOL0     O56130   8.067   4.571   2.929 -0.0735 -0.3737 -0.2124
  426MOL0     C56131   8.128   4.448   2.912  0.5941  0.8288 -0.1038
  426MOL0     C56132   8.251   4.430   2.965  0.1209 -0.3390 -0.1920
  426MOL0     C56133   8.329   4.308   2.954  0.1009  0.6006  0.6131
  426MOL0     C56134   8.271   4.194   2.895  0.0798 -0.4146 -0.2366
  426MOL0     O56135   8.343   4.076   2.887  0.8599 -0.2165  0.4415
  426MOL0     C56136   8.291   3.966   2.807  0.1343 -0.3898 -0.2725
  426MOL0     C56137   8.387   3.845   2.821 -1.0441  0.7560  0.8272
  426MOL0     C56138   8.529   3.871   2.789 -0.4722 -0.8178  0.5101
  426MOL0     C56139   8.611   3.737   2.772 -1.0680 -0.2621 -1.4212
  426MOL0     C56140   8.754   3.749   2.712  0.5855 -0.5134 -0.0581
  426MOL0     C56141   8.846   3.834   2.805 -0.8126 -0.4813 -0.1445
  426MOL0     C56142   8.986   3.838   2.746  0.0253  0.4889 -0.6557
  426MOL0     C56143   9.026   3.949   2.654 -0.9805 -0.5291  1.1370
  426MOL0    Cl56144   9.204   3.950   2.617 -0.3690  0.0469  0.7117
  426MOL0     C56145   8.146   4.210   2.838 -0.1880 -0.0665 -0.7389
  426MOL0     C56146   8.078   4.334   2.843 -0.0669 -0.0036  0.3808
  426MOL0     O56147   7.861   4.479   2.951 -0.0065 -0.7026 -0.0586
  426MOL0     C56148   7.728   4.712   2.864  0.7740 -0.7360 -0.3675
  426MOL0     C56149   7.672   4.839   2.836 -0.4597  0.2013  0.1258
  426MOL0     N56150   8.126   5.182   2.936 -0.4098  0.5431  0.5061
  426MOL0     N56151   8.187   5.137   3.042  0.1420  0.3185  0.0455
  426MOL0     C56152   9.185   5.427   3.833 -0.1144 -0.5389 -0.4661
  426MOL0     C56153   9.316   5.464   3.855 -0.5911 -0.3707 -0.3318
  426MOL0     C56154   9.723   5.627   3.811 -0.5824  0.1960 -0.1717
  426MOL0     C56155   9.747   5.724   3.907  0.6491  0.0990 -0.5367
  426MOL0     C56156   9.873   5.767   3.932 -0.3339 -0.2851  0.5576
  426MOL0     C56157   9.987   5.729   3.856 -0.1991 -0.1523 -0.1278
  426MOL0     O56158  10.107   5.775   3.896  0.7703 -1.0777  0.5369
  426MOL0     C56159  10.213   5.769   3.796  0.0385 -0.3337 -0.3218
  426MOL0     C56160  10.339   5.837   3.845 -0.0924 -0.5520 -0.4523
  426MOL0     C56161  10.404   5.780   3.972  0.2028  0.0631  0.4353
  426MOL0     C56162  10.529   5.853   4.004 -0.3182  0.1084 -0.7359
  426MOL0     C56163  10.639   5.824   3.911  1.0211  0.3631 -0.0350
  426MOL0     C56164  10.734   5.807   3.845 -0.5922  0.4554  0.8683
  426MOL0     C56165   9.964   5.640   3.749 -0.1025 -0.1148  0.2890
  426MOL0     C56166   9.835   5.583   3.738  0.4103 -0.3380  0.8431
  426MOL0     H56167   9.290   5.791   3.773  0.3643  0.0383 -1.3861
  426MOL0     H56168   9.052   5.716   3.732  0.0330  0.0385  2.1086
  426MOL0     H56169   8.980   5.285   3.794  0.8970  0.4109 -0.8598
  426MOL0     H56170   8.971   5.320   3.618 -0.1424 -1.0223 -0.9760
  426MOL0     H56171   8.743   5.359   3.817 -1.1310 -2.1173  0.7614
  426MOL0     H56172   8.775   5.202   3.749  0.0782 -1.5159 -2.1882
  426MOL0     H56173   8.758   5.317   3.515 -1.0635 -1.3146  0.1966
  426MOL0     H56174   8.687   5.460   3.598 -4.7656 -0.4976  0.1712
  426MOL0     H56175   8.575   5.187   3.594 -0.1050 -0.4383  0.7265
  426MOL0     H56176   8.514   5.319   3.699 -0.0780  0.8056  0.3936
  426MOL0     H56177   8.548   5.297   3.399  0.4181 -0.4161  0.4295
  426MOL0     H56178   8.486   5.449   3.473  1.5383  0.7009  0.5702
  426MOL0     H56179   8.292   5.307   3.541  0.4498 -0.8593  0.1175
  426MOL0     H56180   8.361   5.157   3.473  2.5639 -0.2134  1.0124
  426MOL0     H56181   8.257   5.394   3.309  2.9049  0.5807  1.4398
  426MOL0     H56182   8.382   5.297   3.251  0.0481  1.5836 -0.4170
  426MOL0     H56183   8.118   5.186   3.355 -1.1050  0.7679 -1.0690
  426MOL0     H56184   8.249   5.088   3.282  1.3966  0.4057 -1.6968
  426MOL0     H56185   8.031   5.401   3.161 -1.7994 -1.3019 -1.9244
  426MOL0     H56186   7.998   5.353   2.782 -2.2062  0.1426 -0.1821
  426MOL0     H56187   8.047   5.477   2.907 -1.7539  0.2690 -0.3811
  426MOL0     H56188   7.802   5.466   2.811  1.1184  0.7557 -0.4789
  426MOL0     H56189   7.814   5.491   2.980 -1.3241 -0.9360  0.5646
  426MOL0     H56190   7.784   5.229   3.008  1.0769  0.3352 -1.2355
  426MOL0     H56191   7.645   5.315   2.948 -0.1210  2.1311 -3.9327
  426MOL0     H56192   7.846   5.163   2.771 -0.6404 -0.6230  0.3119
  426MOL0     H56193   7.691   5.246   2.718 -2.1998  1.6946  1.8924
  426MOL0     H56194   7.930   5.043   2.920 -1.5495  1.0420  2.3674
  426MOL0     H56195   8.035   4.834   2.962 -0.3531  1.8102 -1.2752
  426MOL0     H56196   8.289   4.517   3.018  0.1592 -0.0652 -0.6607
  426MOL0     H56197   8.428   4.279   2.988 -1.0690 -2.8947  1.4225
  426MOL0     H56198   8.269   3.991   2.703 -1.2935  1.3693  0.4103
  426MOL0     H56199   8.196   3.944   2.857 -0.0951  2.0529  0.5040
  426MOL0     H56200   8.357   3.761   2.758  1.0307  0.1242  0.6337
  426MOL0     H56201   8.378   3.806   2.923 -0.2671  1.2693  1.0992
  426MOL0     H56202   8.579   3.939   2.858  0.8225  1.0128 -2.0586
  426MOL0     H56203   8.521   3.924   2.694 -0.6960  1.3547  1.6908
  426MOL0     H56204   8.627   3.705   2.875  0.6569  3.1559 -0.4723
  426MOL0     H56205   8.557   3.656   2.722 -1.0883 -0.8495 -0.4788
  426MOL0     H56206   8.755   3.784   2.608  0.4427 -2.0375 -0.5903
  426MOL0     H56207   8.785   3.644   2.710  2.2909 -0.0245 -0.9477
  426MOL0     H56208   8.848   3.793   2.907  0.0085 -1.1755 -0.4298
  426MOL0     H56209   8.818   3.939   2.813  0.6202  0.1751 -2.6994
  426MOL0     H56210   9.064   3.845   2.823  3.4458 -2.5340 -3.4537
  426MOL0     H56211   8.991   3.740   2.697 -2.0564  0.4792 -0.9269
  426MOL0     H56212   8.999   4.049   2.687  1.2194  1.2239 -1.8838
  426MOL0     H56213   8.972   3.944   2.559 -0.6775  1.1753  0.8442
  426MOL0     H56214   8.099   4.136   2.774  0.5813 -0.5083 -0.8006
  426MOL0     H56215   7.982   4.344   2.793  0.1019 -0.6856 -0.0931
  426MOL0     H56216   7.677   4.619   2.844 -3.1732  0.7471  1.7610
  426MOL0     H56217   7.578   4.837   2.782  1.0513 -1.0331 -2.6840
  426MOL0     H56218   9.182   5.320   3.852  2.8638 -1.2483 -3.1709
  426MOL0     H56219   9.390   5.390   3.885  2.9254  3.1253  0.4852
  426MOL0     H56220   9.673   5.761   3.977  2.2559 -0.0838  1.3471
  426MOL0     H56221   9.878   5.832   4.018 -2.4531  4.2198 -2.3224
  426MOL0     H56222  10.177   5.811   3.701  0.2551  1.7897  0.4804
  426MOL0     H56223  10.248   5.668   3.775 -1.2489 -0.5949 -1.3535
  426MOL0     H56224  10.412   5.824   3.765  0.4138 -0.9379  0.0641
  426MOL0     H56225  10.315   5.942   3.862 -0.3281 -0.3054 -2.1283
  426MOL0     H56226  10.423   5.673   3.961  1.2099  0.4225 -1.9688
  426MOL0     H56227  10.330   5.787   4.052  0.1389  1.1628  0.2984
  426MOL0     H56228  10.506   5.959   4.017 -2.0209 -0.4089  0.8383
  426MOL0     H56229  10.575   5.831   4.101  0.8523  1.2466 -1.0056
  426MOL0     H56230  10.822   5.789   3.786  0.0739 -1.5558  2.3755
  426MOL0     H56231  10.043   5.597   3.688  0.6267  1.3271  0.1535
  426MOL0     H56232   9.810   5.496   3.678  1.0541  0.8450 -1.2086
  427MOL0     O56233  10.281   3.539   4.704 -0.3803  0.0326  0.4885
  427MOL0     C56234  10.315   3.651   4.675 -0.2235 -0.3537 -0.7701
  427MOL0     O56235  10.227   3.756   4.675 -0.3966  1.1374 -0.6156
  427MOL0     C56236  10.088   3.758   4.683 -0.3099 -0.2142  0.1989
  427MOL0     C56237  10.017   3.643   4.663  0.4374  0.2039  0.7118
  427MOL0     C56238   9.877   3.654   4.681  0.1293  0.1309  0.5882
  427MOL0     C56239   9.813   3.774   4.724  0.9890  0.2890 -0.0227
  427MOL0     O56240   9.680   3.762   4.758  0.4295 -0.0861  0.3425
  427MOL0     C56241   9.601   3.881   4.766  0.0890  0.0526 -0.5654
  427MOL0     C56242   9.460   3.849   4.700 -0.0141  0.5170  0.1374
  427MOL0     C56243   9.365   3.969   4.696 -0.5898 -0.1529  0.5381
  427MOL0     C56244   9.267   3.968   4.578  1.1380  0.7960  0.9630
  427MOL0     C56245   9.156   4.072   4.590  0.4347 -0.2670  0.3350
  427MOL0     C56246   9.054   4.028   4.699 -0.3855  0.1102 -1.3003
  427MOL0     C56247   8.911   4.112   4.699 -0.0343 -0.2213  0.4971
  427MOL0     C56248   8.790   4.024   4.741 -0.0782  0.0864 -0.4648
  427MOL0     N56249   8.660   4.093   4.712  1.5262 -0.1238 -0.4225
  427MOL0     C56250   8.609   4.202   4.780  1.0683 -0.5490 -0.1445
  427MOL0     C56251   8.511   4.255   4.700  1.5352  0.4745  0.3982
  427MOL0     C56252   8.438   4.389   4.724  0.4435 -1.1630  0.6773
  427MOL0     C56253   8.287   4.361   4.740 -0.5937  0.1207  0.0169
  427MOL0     C56254   8.246   4.382   4.892 -0.6737 -0.3529  0.4400
  427MOL0     C56255   8.100   4.393   4.895  0.7000  0.3199 -0.0010
  427MOL0     O56256   8.014   4.297   4.829 -0.5601  0.5629 -0.2002
  427MOL0     C56257   7.888   4.325   4.803 -0.3293 -0.3698  0.5328
  427MOL0     C56258   7.818   4.445   4.822 -1.1677 -0.0879  0.0349
  427MOL0     C56259   7.676   4.452   4.799  0.6822  0.0545  0.4547
  427MOL0     C56260   7.606   4.329   4.761  0.1450  1.0935 -0.4213
  427MOL0     C56261   7.460   4.332   4.745  0.1534  0.6422  0.5375
  427MOL0     O56262   7.390   4.453   4.760 -0.1792  0.4716 -0.6187
  427MOL0     C56263   7.254   4.468   4.736 -0.4573 -0.2208  0.2450
  427MOL0     C56264   7.167   4.361   4.697 -0.2461  0.7142  0.3677
  427MOL0     C56265   7.042   4.389   4.647 -0.4094  0.5799  0.9481
  427MOL0     C56266   6.984   4.513   4.633 -0.6176  0.1071 -0.2556
  427MOL0     O56267   6.860   4.512   4.559 -0.1587 -0.3432 -0.0424
  427MOL0     C56268   6.796   4.637   4.532  0.1013  0.4174  0.0464
  427MOL0     C56269   6.714   4.666   4.663  0.0770  0.1567  0.9435
  427MOL0     C56270   6.561   4.660   4.642  0.2503 -0.3345  0.3245
  427MOL0     C56271   6.520   4.515   4.636 -0.0429  0.3473 -0.1077
  427MOL0     C56272   6.371   4.507   4.594  0.1049  0.1768  0.2246
  427MOL0     C56273   6.264   4.561   4.700  0.1669 -0.3982  0.4126
  427MOL0     C56274   6.118   4.566   4.651  0.4797  0.5820  0.9328
  427MOL0     C56275   6.099   4.644   4.519 -0.8297 -0.2189  0.1276
  427MOL0    Cl56276   6.111   4.826   4.542  0.0510 -0.6149  0.3360
  427MOL0     C56277   7.073   4.623   4.665 -0.1356  0.0316 -0.4522
  427MOL0     C56278   7.205   4.597   4.720  0.3493  0.1464 -0.0320
  427MOL0     O56279   7.413   4.222   4.709  0.8810  0.3790  0.7438
  427MOL0     C56280   7.681   4.214   4.745  0.0558 -0.2718 -1.1246
  427MOL0     C56281   7.819   4.207   4.770  0.4224 -0.2340  0.1247
  427MOL0     N56282   8.493   4.170   4.595 -0.1483  0.1845 -0.1246
  427MOL0     N56283   8.580   4.081   4.599  0.4040  0.1457 -0.1233
  427MOL0     C56284   9.892   3.891   4.741  0.0892 -0.0134 -0.9124
  427MOL0     C56285  10.028   3.876   4.726 -0.9179 -0.2220 -0.3981
  427MOL0     C56286  10.455   3.674   4.655  0.1893  0.4252 -0.3861
  427MOL0     C56287  10.494   3.798   4.601  0.0004  0.6223 -0.6278
  427MOL0     C56288  10.624   3.822   4.582  0.3957 -0.0228 -0.6883
  427MOL0     C56289  10.719   3.728   4.603  0.4045  0.1863 -0.9756
  427MOL0     O56290  10.853   3.761   4.576  0.0188  0.7670 -0.5934
  427MOL0     C56291  10.898   3.878   4.648  0.4150 -0.6161  0.2810
  427MOL0     C56292  11.050   3.836   4.670  0.2698 -0.7739  0.4505
  427MOL0     C56293  11.131   3.956   4.730 -0.5857  0.2025 -0.6772
  427MOL0     C56294  11.265   3.910   4.786 -0.0625  0.4966  0.6089
  427MOL0     C56295  11.365   3.907   4.680  0.5287 -0.2484  0.2549
  427MOL0     C56296  11.442   3.914   4.587 -0.0897  0.6087  0.4656
  427MOL0     C56297  10.685   3.601   4.653 -0.7419 -0.2784  0.4802
  427MOL0     C56298  10.555   3.580   4.688 -0.2093 -0.4383 -0.7983
  427MOL0     H56299  10.057   3.546   4.635 -1.3992 -1.8892  4.5261
  427MOL0     H56300   9.816   3.565   4.672  3.1079 -1.9284 -0.9189
  427MOL0     H56301   9.649   3.965   4.715  1.2299  0.2376  0.7462
  427MOL0     H56302   9.580   3.919   4.866 -2.0588 -0.8549 -0.6189
  427MOL0     H56303   9.406   3.763   4.743 -0.3415  1.1209  0.9489
  427MOL0     H56304   9.471   3.843   4.591 -4.1773  2.8837 -0.6356
  427MOL0     H56305   9.428   4.059   4.700 -2.8276  1.4879  1.0406
  427MOL0     H56306   9.321   3.969   4.796 -0.4747 -3.9706  0.7194
  427MOL0     H56307   9.317   3.979   4.481  0.0947  1.9670  0.5299
  427MOL0     H56308   9.226   3.867   4.579  2.8895  0.0473  1.8336
  427MOL0     H56309   9.107   4.081   4.493 -1.8006  2.7059  1.5565
  427MOL0     H56310   9.188   4.174   4.615 -0.0941 -0.3730  1.5116
  427MOL0     H56311   9.100   4.046   4.796 -1.0725 -2.4279 -0.4199
  427MOL0     H56312   9.045   3.920   4.695 -0.4334 -0.1580  2.4163
  427MOL0     H56313   8.929   4.190   4.773  1.6750 -1.2188  1.1859
  427MOL0     H56314   8.903   4.151   4.597 -0.8344  1.6370  1.2323
  427MOL0     H56315   8.784   4.009   4.849 -0.5271 -0.2319 -0.5288
  427MOL0     H56316   8.791   3.929   4.688  1.1159  0.5883 -1.3830
  427MOL0     H56317   8.656   4.253   4.863  1.6482 -0.2966 -0.6192
  427MOL0     H56318   8.441   4.433   4.625 -0.2618 -0.7201  0.8450
  427MOL0     H56319   8.491   4.444   4.802 -0.1464  3.8299 -2.0369
  427MOL0     H56320   8.268   4.255   4.719 -0.1733  0.1197 -0.3600
  427MOL0     H56321   8.225   4.425   4.677  1.5928  3.1804  0.7379
  427MOL0     H56322   8.283   4.297   4.949  0.0175 -0.3673 -0.0221
  427MOL0     H56323   8.296   4.469   4.933  0.9317  0.8738 -3.5946
  427MOL0     H56324   8.082   4.488   4.844  3.1585 -0.4055 -2.4896
  427MOL0     H56325   8.074   4.412   5.000 -0.6245 -1.3643  0.0113
  427MOL0     H56326   7.870   4.532   4.862 -3.6602  1.1124  0.9066
  427MOL0     H56327   7.612   4.540   4.803 -2.5042 -1.9885 -1.0446
  427MOL0     H56328   7.198   4.259   4.717  0.7246  0.7761 -0.6922
  427MOL0     H56329   6.987   4.303   4.612  0.7781 -0.9045  2.5787
  427MOL0     H56330   6.730   4.621   4.446  1.2351 -1.1496 -0.6021
  427MOL0     H56331   6.866   4.714   4.498 -1.5677  1.1134 -2.0224
  427MOL0     H56332   6.746   4.767   4.688  3.5820 -0.1361 -1.6441
  427MOL0     H56333   6.740   4.601   4.747  1.5671  0.4157  0.7059
  427MOL0     H56334   6.539   4.699   4.542 -0.4435 -2.1916 -0.2874
  427MOL0     H56335   6.495   4.711   4.713 -0.8401 -0.8899 -0.2572
  427MOL0     H56336   6.587   4.462   4.567  0.8287  1.3661 -0.0648
  427MOL0     H56337   6.534   4.472   4.735  0.1274 -1.9409 -1.0538
  427MOL0     H56338   6.343   4.402   4.578 -3.6517  0.9856  0.5553
  427MOL0     H56339   6.372   4.569   4.504  3.4432  0.9682  0.7060
  427MOL0     H56340   6.286   4.664   4.727 -1.9560 -0.1646  1.4209
  427MOL0     H56341   6.270   4.492   4.785 -0.1041 -2.8147 -1.4149
  427MOL0     H56342   6.092   4.460   4.640 -3.3654  1.6565 -2.5445
  427MOL0     H56343   6.056   4.611   4.729 -1.3971 -1.4145  0.6765
  427MOL0     H56344   5.996   4.635   4.485 -0.6145 -4.2095  0.1170
  427MOL0     H56345   6.161   4.605   4.438 -0.0928 -0.9721  1.0386
  427MOL0     H56346   7.044   4.725   4.641 -1.6660 -0.4332 -0.6700
  427MOL0     H56347   7.269   4.682   4.745  1.6439 -1.0357  0.8128
  427MOL0     H56348   7.635   4.118   4.722  0.2094 -1.2745  2.1765
  427MOL0     H56349   7.867   4.110   4.770 -1.3703 -1.1651  0.2287
  427MOL0     H56350   9.869   3.990   4.781 -0.0751 -0.9788  1.5485
  427MOL0     H56351  10.095   3.957   4.753  0.7119 -1.1967 -1.3649
  427MOL0     H56352  10.421   3.876   4.583  1.9832  2.2020 -2.4143
  427MOL0     H56353  10.653   3.924   4.558 -1.5196  1.0648  1.2679
  427MOL0     H56354  10.852   3.902   4.744 -0.7475  1.2707 -0.7029
  427MOL0     H56355  10.903   3.968   4.586  0.2693 -0.5243  0.4056
  427MOL0     H56356  11.048   3.753   4.741  0.8130 -1.1480  0.0371
  427MOL0     H56357  11.095   3.809   4.574 -0.3601  2.0741 -0.7771
  427MOL0     H56358  11.070   4.000   4.809 -0.5477  1.1092 -1.1418
  427MOL0     H56359  11.150   4.033   4.654  1.2100  0.6927  0.2161
  427MOL0     H56360  11.294   3.986   4.860 -3.1724  2.0044  0.4464
  427MOL0     H56361  11.267   3.806   4.819 -1.0429 -0.0947 -1.0811
  427MOL0     H56362  11.503   3.906   4.500 -1.7002 -0.9811 -0.6060
  427MOL0     H56363  10.755   3.521   4.679 -0.9176  0.0892  2.2481
  427MOL0     H56364  10.531   3.484   4.733 -2.2387 -1.6799 -4.0810
  428MOL0     O56365   4.842   7.572   2.090 -0.0108 -0.6267 -0.0556
  428MOL0     C56366   4.899   7.482   2.143 -0.1128 -0.2280 -0.0459
  428MOL0     O56367   4.901   7.449   2.280 -0.7261 -0.2988  0.6514
  428MOL0     C56368   4.819   7.522   2.357 -0.1171 -0.4110  0.6015
  428MOL0     C56369   4.880   7.600   2.458  0.3457  1.3822 -0.3356
  428MOL0     C56370   4.803   7.682   2.546  0.1113 -0.3276  0.3341
  428MOL0     C56371   4.664   7.680   2.528  0.8976 -0.4707  0.4237
  428MOL0     O56372   4.577   7.759   2.606 -0.0758 -0.6364 -0.5569
  428MOL0     C56373   4.627   7.840   2.715  0.6296 -0.0599  0.5345
  428MOL0     C56374   4.515   7.951   2.745 -0.1067 -0.4246 -0.3953
  428MOL0     C56375   4.514   8.063   2.633  0.0346  0.0075  0.5617
  428MOL0     C56376   4.429   8.188   2.667  0.0393 -0.1732 -0.4235
  428MOL0     C56377   4.477   8.317   2.613  0.1531  0.3292  0.6381
  428MOL0     C56378   4.392   8.445   2.643  0.1324 -0.0694  0.1507
  428MOL0     C56379   4.381   8.560   2.539  0.5379 -0.6402  0.7064
  428MOL0     C56380   4.271   8.539   2.438 -0.2411 -1.1107  0.6125
  428MOL0     N56381   4.262   8.645   2.337 -0.5463 -0.0938  0.0747
  428MOL0     C56382   4.353   8.686   2.252  0.3732  0.6362 -0.2668
  428MOL0     C56383   4.325   8.807   2.210 -1.2868  0.2547  0.6033
  428MOL0     C56384   4.401   8.898   2.112 -0.6023  0.6452  0.1530
  428MOL0     C56385   4.549   8.931   2.163 -0.1465  0.3552 -0.2247
  428MOL0     C56386   4.608   9.041   2.072  0.2390  0.6280 -0.1128
  428MOL0     C56387   4.718   9.131   2.128  0.0688  0.0606 -0.0001
  428MOL0     O56388   4.828   9.053   2.182 -0.2604  0.0648 -0.0418
  428MOL0     C56389   4.929   9.015   2.097  1.1564  0.3944 -0.1674
  428MOL0     C56390   5.049   8.995   2.158 -0.5878 -0.0583 -0.1249
  428MOL0     C56391   5.157   8.942   2.084 -0.3251  0.4080 -0.1453
  428MOL0     C56392   5.140   8.896   1.954 -0.3649 -0.6235 -0.7172
  428MOL0     C56393   5.244   8.833   1.884  0.6712 -0.1180  0.2455
  428MOL0     O56394   5.360   8.817   1.952  0.8090 -0.5294 -0.1634
  428MOL0     C56395   5.466   8.770   1.893  0.3954 -0.0141 -0.3096
  428MOL0     C56396   5.588   8.816   1.937  0.3369 -0.4047 -0.0453
  428MOL0     C56397   5.705   8.762   1.899 -1.4146  0.7865 -0.1982
  428MOL0     C56398   5.705   8.648   1.816 -0.0536  0.7807  0.2696
  428MOL0     O56399   5.824   8.577   1.793 -0.4142 -0.4319  0.5269
  428MOL0     C56400   5.824   8.438   1.779 -0.7152 -0.1510 -0.6969
  428MOL0     C56401   5.948   8.379   1.849 -0.1809  0.4148 -0.3518
  428MOL0     C56402   6.078   8.431   1.799 -0.3503 -0.0167 -0.2614
  428MOL0     C56403   6.155   8.341   1.695  1.0148 -0.6512 -0.2914
  428MOL0     C56404   6.261   8.419   1.627 -0.9153  0.2090  0.6619
  428MOL0     C56405   6.339   8.344   1.533 -0.7131  0.1226 -0.6377
  428MOL0     C56406   6.454   8.432   1.465  0.3638 -0.1792 -0.5661
  428MOL0     C56407   6.518   8.377   1.345 -0.5627  0.6798 -0.2851
  428MOL0    Cl56408   6.590   8.212   1.380  0.2216  0.0862  0.4350
  428MOL0     C56409   5.584   8.598   1.772 -0.2289 -0.1069 -0.3061
  428MOL0     C56410   5.464   8.662   1.806 -0.2922  0.5967  0.3323
  428MOL0     O56411   5.216   8.802   1.764 -0.2694 -0.4571 -0.2475
  428MOL0     C56412   5.010   8.918   1.897 -0.5907 -0.1495  0.1024
  428MOL0     C56413   4.910   8.982   1.965 -0.2026  0.0269 -0.1542
  428MOL0     N56414   4.207   8.844   2.270 -0.4496 -0.9001 -0.4318
  428MOL0     N56415   4.164   8.741   2.341  0.1516 -0.5274  0.2252
  428MOL0     C56416   4.602   7.613   2.423  0.2768  0.5489  0.8753
  428MOL0     C56417   4.677   7.535   2.339  0.4363  0.0274  0.1881
  428MOL0     C56418   4.987   7.387   2.067 -1.0323  0.6219 -0.4349
  428MOL0     C56419   5.067   7.292   2.132  0.8897  0.3278  0.0471
  428MOL0     C56420   5.152   7.209   2.060  0.2350 -0.7679  0.7660
  428MOL0     C56421   5.155   7.211   1.926 -0.1359  0.0354  0.0595
  428MOL0     O56422   5.231   7.123   1.850  0.6066 -0.0507  0.5711
  428MOL0     C56423   5.316   7.029   1.921  0.1973 -1.0203 -0.2892
  428MOL0     C56424   5.406   6.958   1.820  0.1650 -1.0507 -0.6551
  428MOL0     C56425   5.318   6.854   1.748 -1.1590  0.0548 -0.6708
  428MOL0     C56426   5.253   6.756   1.847  0.1415 -0.1047  0.2714
  428MOL0     C56427   5.203   6.637   1.771  0.8984 -0.2737 -0.0799
  428MOL0     C56428   5.156   6.555   1.699 -0.8596  0.8658  0.7676
  428MOL0     C56429   5.083   7.305   1.863  0.4467 -0.9612 -0.7113
  428MOL0     C56430   4.998   7.393   1.930 -0.4546 -0.3078 -0.3323
  428MOL0     H56431   4.989   7.604   2.451  0.7525 -2.2005  1.3931
  428MOL0     H56432   4.863   7.728   2.623  0.4896  0.9492 -0.6904
  428MOL0     H56433   4.716   7.899   2.692  0.3900  0.2343  0.3513
  428MOL0     H56434   4.649   7.770   2.795 -0.1642 -1.0867 -0.1306
  428MOL0     H56435   4.538   7.988   2.845 -2.4681 -0.2377  0.1437
  428MOL0     H56436   4.421   7.894   2.753  1.8374 -3.8077  0.4626
  428MOL0     H56437   4.476   8.025   2.538  1.4233  0.5102 -0.2176
  428MOL0     H56438   4.618   8.092   2.617 -1.0547  3.7962 -0.9536
  428MOL0     H56439   4.327   8.170   2.632 -0.3510 -1.0345  1.0892
  428MOL0     H56440   4.425   8.194   2.776  0.6121 -0.2193 -0.3959
  428MOL0     H56441   4.483   8.312   2.504 -1.5943  0.7198  0.5002
  428MOL0     H56442   4.582   8.319   2.642  1.0575 -2.4640 -1.9579
  428MOL0     H56443   4.451   8.498   2.718  0.4317 -2.4915  1.7573
  428MOL0     H56444   4.298   8.413   2.691  0.5769  1.9698  2.5938
  428MOL0     H56445   4.357   8.655   2.588 -2.1250 -0.6625 -0.4021
  428MOL0     H56446   4.475   8.567   2.483  0.6063 -0.6788  0.8162
  428MOL0     H56447   4.178   8.534   2.497 -0.4780  2.5284  0.7758
  428MOL0     H56448   4.290   8.446   2.383  3.1653 -0.1775  0.0010
  428MOL0     H56449   4.432   8.623   2.212 -0.1660 -0.6256  0.5986
  428MOL0     H56450   4.336   8.980   2.080 -0.7229  0.0899 -1.0971
  428MOL0     H56451   4.409   8.838   2.021 -0.4354 -3.6874  2.7362
  428MOL0     H56452   4.618   8.846   2.173 -1.2303 -0.8248 -2.1198
  428MOL0     H56453   4.548   8.961   2.268  1.1819 -1.6291  0.4176
  428MOL0     H56454   4.636   8.998   1.976  2.1756 -1.1735  1.1720
  428MOL0     H56455   4.527   9.112   2.053  0.4047  1.2865  1.4453
  428MOL0     H56456   4.677   9.202   2.201  1.6123  0.9972  0.0070
  428MOL0     H56457   4.769   9.198   2.059 -0.3359  1.4399  0.9861
  428MOL0     H56458   5.067   9.028   2.260 -0.6860  0.5567 -0.3021
  428MOL0     H56459   5.252   8.927   2.133  0.7953  0.3889 -2.2246
  428MOL0     H56460   5.578   8.895   2.012  0.7007 -0.5895  0.2004
  428MOL0     H56461   5.795   8.799   1.945 -1.9431  0.8006  0.8645
  428MOL0     H56462   5.823   8.399   1.677  0.6443  0.2736 -0.8938
  428MOL0     H56463   5.737   8.391   1.826 -0.3476 -0.7489 -0.6112
  428MOL0     H56464   5.950   8.269   1.848 -1.3171  0.3298  1.7481
  428MOL0     H56465   5.934   8.395   1.956 -3.1628 -0.4685 -0.5161
  428MOL0     H56466   6.145   8.447   1.884  0.3798  0.6309 -0.9470
  428MOL0     H56467   6.059   8.530   1.757 -1.5011 -0.0404  0.1674
  428MOL0     H56468   6.200   8.260   1.752 -0.9672 -2.1475 -0.7264
  428MOL0     H56469   6.088   8.294   1.621  1.9984 -2.3784 -0.1396
  428MOL0     H56470   6.326   8.467   1.701 -2.2221  3.1417  0.0286
  428MOL0     H56471   6.220   8.498   1.565  1.0368  0.8240  0.0668
  428MOL0     H56472   6.262   8.319   1.459 -0.6936 -2.2484  0.0610
  428MOL0     H56473   6.372   8.244   1.565  1.8109  1.5235  1.4954
  428MOL0     H56474   6.399   8.520   1.431  0.2302 -0.9742 -2.5111
  428MOL0     H56475   6.533   8.460   1.535  0.7175 -0.9457 -0.6551
  428MOL0     H56476   6.592   8.453   1.317  1.1302 -0.5136  0.7432
  428MOL0     H56477   6.449   8.383   1.261 -0.0090  3.5573 -0.6530
  428MOL0     H56478   5.583   8.510   1.708  0.1859  1.7516 -3.0392
  428MOL0     H56479   5.369   8.622   1.774 -1.7950  3.7505  0.4960
  428MOL0     H56480   4.987   8.889   1.794  2.5721  1.3456 -1.1611
  428MOL0     H56481   4.822   9.003   1.905  0.8591  2.5271 -0.9970
  428MOL0     H56482   4.495   7.616   2.408  0.5053 -0.5965 -1.3291
  428MOL0     H56483   4.636   7.479   2.255  1.6356 -1.5623  0.6092
  428MOL0     H56484   5.077   7.280   2.240  0.9528 -2.7783 -0.2016
  428MOL0     H56485   5.222   7.147   2.115  1.6124 -1.9854 -2.0998
  428MOL0     H56486   5.270   6.964   1.996 -0.5410 -0.2596 -0.0657
  428MOL0     H56487   5.386   7.083   1.985  0.4813 -0.5535 -0.9820
  428MOL0     H56488   5.435   7.036   1.748 -2.9557 -0.4505 -1.4170
  428MOL0     H56489   5.494   6.917   1.871  1.4841  0.7319 -1.3627
  428MOL0     H56490   5.370   6.803   1.667 -3.3167  1.3036 -2.9466
  428MOL0     H56491   5.242   6.910   1.694 -0.6500  1.0789 -0.3562
  428MOL0     H56492   5.320   6.730   1.929 -2.4006  0.3686  2.6754
  428MOL0     H56493   5.174   6.811   1.899  0.5668  1.6207 -0.8055
  428MOL0     H56494   5.117   6.482   1.632  1.4949  0.9179 -0.7861
  428MOL0     H56495   5.077   7.302   1.755 -2.2113  1.8999 -0.7799
  428MOL0     H56496   4.932   7.466   1.882 -1.9991 -1.0223  0.6313
  429MOL0     O56497   7.831   2.422   6.657  0.4969  0.0015  0.3114
  429MOL0     C56498   7.915   2.508   6.676 -0.0578 -0.2907  0.4582
  429MOL0     O56499   7.897   2.626   6.746  0.4974  0.1893  0.0999
  429MOL0     C56500   7.761   2.648   6.783 -0.3988  0.0410 -0.0728
  429MOL0     C56501   7.713   2.611   6.913 -0.8055  0.7977 -0.0046
  429MOL0     C56502   7.582   2.648   6.940  0.0755  0.0872  0.0991
  429MOL0     C56503   7.492   2.716   6.852 -0.5755 -0.3918 -0.4955
  429MOL0     O56504   7.374   2.752   6.915  0.2742 -0.0471  0.4181
  429MOL0     C56505   7.273   2.803   6.835  0.5788 -0.6924  0.8999
  429MOL0     C56506   7.147   2.779   6.909 -0.3937  0.5203  0.7110
  429MOL0     C56507   7.024   2.827   6.831 -0.8116  1.1587 -0.6359
  429MOL0     C56508   6.896   2.767   6.889  0.5007 -0.0882  0.1174
  429MOL0     C56509   6.776   2.844   6.838 -0.5120 -0.1590 -0.0225
  429MOL0     C56510   6.640   2.796   6.895  0.4441 -0.3211 -0.1424
  429MOL0     C56511   6.513   2.881   6.885 -0.3127 -0.1198  0.1686
  429MOL0     C56512   6.387   2.793   6.890  0.1205  0.5212 -0.2773
  429MOL0     N56513   6.292   2.833   6.784  0.0298  0.6267 -0.7101
  429MOL0     C56514   6.295   2.776   6.660  0.1207 -0.0748  0.3129
  429MOL0     C56515   6.209   2.854   6.578 -0.0409  0.5645 -0.7060
  429MOL0     C56516   6.193   2.842   6.432 -0.3805  0.6757  0.8596
  429MOL0     C56517   6.083   2.755   6.392 -0.2930  0.2604 -0.1474
  429MOL0     C56518   6.071   2.616   6.459  0.6243 -0.5626  0.5496
  429MOL0     C56519   5.929   2.554   6.419 -0.8472  0.0798  0.2008
  429MOL0     O56520   5.820   2.642   6.442  0.1493 -0.1067 -0.4000
  429MOL0     C56521   5.687   2.593   6.441 -0.7322  0.8463 -0.4928
  429MOL0     C56522   5.591   2.674   6.511  0.1999  0.8646  0.1281
  429MOL0     C56523   5.458   2.633   6.509 -0.2441 -0.2171 -0.9284
  429MOL0     C56524   5.411   2.523   6.435  0.0938  0.0971 -0.5089
  429MOL0     C56525   5.270   2.486   6.437  0.5637 -0.3046  0.3877
  429MOL0     O56526   5.175   2.565   6.489  0.1950  0.1181  0.4786
  429MOL0     C56527   5.041   2.530   6.497  0.1598  1.0377 -0.2220
  429MOL0     C56528   4.983   2.512   6.617  1.1648  0.2021  0.2433
  429MOL0     C56529   4.844   2.477   6.615 -0.3356 -0.3388  0.5567
  429MOL0     C56530   4.765   2.488   6.500 -0.2199  0.3268  0.2511
  429MOL0     O56531   4.630   2.466   6.496 -0.1468  0.8632 -0.0462
  429MOL0     C56532   4.539   2.453   6.606  0.0732  0.5125 -0.2800
  429MOL0     C56533   4.396   2.500   6.551  0.1587 -0.3120 -0.1899
  429MOL0     C56534   4.307   2.564   6.666 -0.9364 -0.1708 -0.9898
  429MOL0     C56535   4.267   2.471   6.772 -0.2956  1.2848  1.6152
  429MOL0     C56536   4.179   2.552   6.863 -0.3562 -0.3699  0.2351
  429MOL0     C56537   4.113   2.469   6.974 -0.3346 -0.0594 -0.5337
  429MOL0     C56538   4.027   2.565   7.058  0.2509 -0.7217  0.6882
  429MOL0     C56539   3.996   2.502   7.190 -0.2981  0.0055 -0.2614
  429MOL0    Cl56540   3.901   2.349   7.168  0.5389  0.0314  0.1936
  429MOL0     C56541   4.830   2.522   6.377 -0.8204 -0.7197  0.2258
  429MOL0     C56542   4.966   2.534   6.376  0.3195 -1.1689 -0.1492
  429MOL0     O56543   5.245   2.376   6.393  0.1332  0.3076  0.2813
  429MOL0     C56544   5.500   2.441   6.370 -0.1899 -0.0914  0.0890
  429MOL0     C56545   5.638   2.476   6.377 -0.0884 -0.1349  0.1650
  429MOL0     N56546   6.156   2.951   6.663  0.1800  0.4711  0.0583
  429MOL0     N56547   6.211   2.940   6.777  0.1822  0.4904 -0.6428
  429MOL0     C56548   7.543   2.748   6.726 -0.2203  0.5716 -0.1307
  429MOL0     C56549   7.673   2.708   6.691  0.7946 -0.5391  1.1069
  429MOL0     C56550   8.057   2.474   6.638 -1.0105 -0.2794  0.5293
  429MOL0     C56551   8.076   2.384   6.540 -0.6985  0.0333 -1.0016
  429MOL0     C56552   8.198   2.341   6.491 -0.1148 -0.8495  0.3763
  429MOL0     C56553   8.315   2.406   6.539 -0.5842 -0.3025 -0.4993
  429MOL0     O56554   8.448   2.392   6.494  0.7184 -0.4460 -0.5956
  429MOL0     C56555   8.481   2.260   6.446  0.0218  0.4980  0.2335
  429MOL0     C56556   8.483   2.149   6.552 -0.0300  0.0177 -0.0980
  429MOL0     C56557   8.547   2.183   6.691 -0.6089 -0.3117 -0.5322
  429MOL0     C56558   8.510   2.089   6.808  0.4146  0.6192  0.2586
  429MOL0     C56559   8.368   2.090   6.841 -0.7702 -0.7564  0.8239
  429MOL0     C56560   8.251   2.082   6.865  0.4242 -0.0023  0.3368
  429MOL0     C56561   8.292   2.503   6.642  1.1518 -0.7750  0.3714
  429MOL0     C56562   8.171   2.537   6.688 -0.3801  0.2930  0.1665
  429MOL0     H56563   7.775   2.558   6.985 -3.6804 -3.0444 -0.0304
  429MOL0     H56564   7.542   2.634   7.040  0.5556  0.6142  0.3638
  429MOL0     H56565   7.271   2.745   6.742 -2.8098  1.5716 -0.6265
  429MOL0     H56566   7.287   2.909   6.810  2.4898 -1.0187  0.4643
  429MOL0     H56567   7.151   2.830   7.005  2.6668  1.0096  0.4217
  429MOL0     H56568   7.124   2.672   6.915 -1.8592  0.6212 -1.5166
  429MOL0     H56569   7.029   2.806   6.724  0.8443  0.4245 -0.4457
  429MOL0     H56570   7.019   2.937   6.837  0.3982  1.3428 -2.3276
  429MOL0     H56571   6.884   2.664   6.854 -0.3431  0.2171 -0.5285
  429MOL0     H56572   6.912   2.765   6.997  0.8497  0.1471  0.0726
  429MOL0     H56573   6.766   2.827   6.730  2.7974 -0.7804 -0.3164
  429MOL0     H56574   6.781   2.952   6.856 -1.9685  0.0325 -0.5834
  429MOL0     H56575   6.647   2.779   7.003 -1.5823 -3.7108 -0.3795
  429MOL0     H56576   6.624   2.699   6.846  1.2226  0.8430 -2.8583
  429MOL0     H56577   6.509   2.951   6.969  4.2734  2.0280 -1.0713
  429MOL0     H56578   6.524   2.935   6.790  1.5823  1.4226  1.1913
  429MOL0     H56579   6.340   2.811   6.987 -0.1287  2.2009 -0.6805
  429MOL0     H56580   6.403   2.686   6.878  1.3439  0.4959  1.2324
  429MOL0     H56581   6.372   2.703   6.639  4.1054  3.0733  2.5024
  429MOL0     H56582   6.284   2.795   6.394 -3.1437 -4.4725 -0.3184
  429MOL0     H56583   6.157   2.934   6.387 -4.1664  0.8886  3.7871
  429MOL0     H56584   6.082   2.738   6.284  0.4244 -2.0685  0.1656
  429MOL0     H56585   5.996   2.816   6.419  1.2689  2.6525 -0.1705
  429MOL0     H56586   6.152   2.554   6.420  0.7080  1.0744 -2.1098
  429MOL0     H56587   6.081   2.634   6.567 -0.9823 -1.1043  0.8237
  429MOL0     H56588   5.941   2.463   6.478  1.9020 -0.0818 -0.4479
  429MOL0     H56589   5.920   2.522   6.315  0.1374  0.7949 -0.1236
  429MOL0     H56590   5.630   2.764   6.558 -1.2808 -0.0425  3.3645
  429MOL0     H56591   5.387   2.692   6.566  1.1342  0.4727  0.1433
  429MOL0     H56592   5.034   2.520   6.712 -0.5469  2.1853  1.0837
  429MOL0     H56593   4.802   2.449   6.711 -1.0532  0.9518  0.6385
  429MOL0     H56594   4.575   2.533   6.672  2.8559  0.5729 -1.7262
  429MOL0     H56595   4.538   2.356   6.656 -0.8087 -1.8193 -4.3666
  429MOL0     H56596   4.343   2.414   6.509  1.1325  0.0067 -2.1583
  429MOL0     H56597   4.402   2.575   6.472  0.6423 -0.4464 -0.2805
  429MOL0     H56598   4.223   2.611   6.614  0.8685  1.3927 -2.6967
  429MOL0     H56599   4.360   2.648   6.710 -2.5128  0.3182  0.0558
  429MOL0     H56600   4.220   2.380   6.732  0.0984  0.5522  2.7743
  429MOL0     H56601   4.356   2.440   6.829 -0.0738  1.5284  1.4024
  429MOL0     H56602   4.103   2.590   6.794  0.5943 -2.8370 -2.3933
  429MOL0     H56603   4.242   2.629   6.910  1.2256 -0.9600 -0.8131
  429MOL0     H56604   4.192   2.423   7.035 -1.1063  0.4242  0.8776
  429MOL0     H56605   4.051   2.386   6.937  0.4514 -1.9441  2.0394
  429MOL0     H56606   4.074   2.663   7.072 -1.6659  0.8538 -2.6617
  429MOL0     H56607   3.939   2.599   7.003  0.4369 -0.5887  0.4712
  429MOL0     H56608   3.935   2.574   7.245 -2.5666 -0.4238 -2.0858
  429MOL0     H56609   4.096   2.483   7.230 -0.0326  0.2814 -0.7804
  429MOL0     H56610   4.770   2.515   6.287 -1.5368 -4.4068  0.8293
  429MOL0     H56611   5.014   2.553   6.281  1.0600 -2.0805  0.0217
  429MOL0     H56612   5.472   2.350   6.318  1.4787 -0.7699  0.3114
  429MOL0     H56613   5.701   2.403   6.328 -2.1346 -1.8415 -0.0691
  429MOL0     H56614   7.478   2.798   6.655 -0.4452 -1.4154 -1.4195
  429MOL0     H56615   7.719   2.730   6.595  0.5218 -0.5166  0.9802
  429MOL0     H56616   7.987   2.344   6.492 -1.6787  1.5090 -0.4845
  429MOL0     H56617   8.214   2.261   6.419 -0.9051  0.2618 -1.0895
  429MOL0     H56618   8.579   2.249   6.397 -0.8385 -1.6919 -1.1643
  429MOL0     H56619   8.413   2.229   6.366  0.0481 -1.3239  0.8628
  429MOL0     H56620   8.377   2.127   6.566 -0.1131 -1.1647 -2.2130
  429MOL0     H56621   8.523   2.056   6.510 -1.2275 -2.1353  3.1075
  429MOL0     H56622   8.509   2.278   6.730 -1.8797 -1.6924  1.8147
  429MOL0     H56623   8.657   2.185   6.685 -0.5383  1.6158  0.4421
  429MOL0     H56624   8.541   1.984   6.803  1.7875  0.9613  1.0921
  429MOL0     H56625   8.569   2.120   6.894  0.3664 -3.2187  1.8734
  429MOL0     H56626   8.148   2.077   6.896  1.2286  1.2753  3.5805
  429MOL0     H56627   8.369   2.562   6.691 -0.3450  1.8717 -0.2767
  429MOL0     H56628   8.161   2.611   6.767  0.0024 -0.4229  0.8963
  430MOL0     O56629  10.957   2.473   6.620  0.3708 -0.0431  1.1620
  430MOL0     C56630  10.831   2.473   6.617 -0.0268  0.5854  0.2877
  430MOL0     O56631  10.755   2.494   6.499 -0.7895  0.6878 -0.1130
  430MOL0     C56632  10.811   2.563   6.398 -0.4544  0.6966 -0.1601
  430MOL0     C56633  10.807   2.505   6.268  0.8728 -0.2176 -0.2725
  430MOL0     C56634  10.861   2.572   6.164 -0.9033  0.0201  0.7535
  430MOL0     C56635  10.906   2.701   6.181 -0.9476  2.1227 -0.2473
  430MOL0     O56636  10.936   2.765   6.063  0.2771  0.8524 -0.6473
  430MOL0     C56637  10.970   2.906   6.050  0.1439 -0.3687 -0.5109
  430MOL0     C56638  10.928   2.958   5.908  0.7731 -0.1420  0.8743
  430MOL0     C56639  10.775   2.952   5.895  1.1004 -0.0680 -0.0695
  430MOL0     C56640  10.715   3.059   5.987  0.4157  0.0239  0.5422
  430MOL0     C56641  10.561   3.067   5.964 -0.3798  0.3753 -1.0590
  430MOL0     C56642  10.489   3.190   6.041  0.5761  0.8328  0.2612
  430MOL0     C56643  10.343   3.190   5.987 -1.1838 -0.3840 -0.9017
  430MOL0     C56644  10.254   3.291   6.058 -0.4060 -0.3026  0.2400
  430MOL0     N56645  10.239   3.254   6.201 -0.2306  0.6302 -0.1398
  430MOL0     C56646  10.298   3.295   6.321 -0.2229  1.1555 -1.1498
  430MOL0     C56647  10.212   3.259   6.422 -0.0527 -0.3424  0.5793
  430MOL0     C56648  10.225   3.305   6.565  0.1189 -0.3528  0.1475
  430MOL0     C56649  10.223   3.178   6.652 -0.4206  0.2627 -0.1883
  430MOL0     C56650  10.202   3.209   6.803 -0.3973 -0.3230 -0.5496
  430MOL0     C56651  10.313   3.292   6.872 -0.3314  0.1395 -0.3016
  430MOL0     O56652  10.429   3.221   6.844 -0.3262  0.0571  0.6301
  430MOL0     C56653  10.549   3.282   6.890 -0.4707 -0.1169  0.0739
  430MOL0     C56654  10.573   3.329   7.016 -0.1997  0.1762  0.0768
  430MOL0     C56655  10.693   3.392   7.054 -0.0294  0.2476 -0.4672
  430MOL0     C56656  10.790   3.419   6.958 -0.7749  0.5164  0.9023
  430MOL0     C56657  10.918   3.482   6.991  0.5965 -0.0999 -0.0171
  430MOL0     O56658  11.005   3.495   6.885  0.0884 -0.1133 -0.0810
  430MOL0     C56659  11.134   3.520   6.923 -0.4356  0.3705  0.1128
  430MOL0     C56660  11.203   3.422   6.994 -0.0503  0.4142 -0.1432
  430MOL0     C56661  11.343   3.440   7.015  0.7817 -0.1671  1.6085
  430MOL0     C56662  11.403   3.563   6.972 -0.8204  0.3878  0.7990
  430MOL0     O56663  11.537   3.577   6.980 -0.6872  0.5578  0.1212
  430MOL0     C56664  11.616   3.467   7.027 -0.0984 -0.2069 -0.5414
  430MOL0     C56665  11.767   3.491   7.018 -0.5101 -0.3390 -0.1136
  430MOL0     C56666  11.826   3.528   6.878 -0.0087  0.4986 -0.3153
  430MOL0     C56667  11.980   3.516   6.883  0.4231  0.5475 -0.5824
  430MOL0     C56668  12.024   3.537   6.733  0.2608  0.1016  0.6115
  430MOL0     C56669  12.176   3.514   6.712  0.2631 -0.0229  0.1226
  430MOL0     C56670  12.210   3.540   6.567  0.0661  0.0302  0.1691
  430MOL0     C56671  12.363   3.586   6.556 -0.1465  0.1519 -0.9189
  430MOL0    Cl56672  12.384   3.736   6.644 -0.2463  0.0180  0.0610
  430MOL0     C56673  11.329   3.663   6.909 -0.2831 -0.0445 -0.5784
  430MOL0     C56674  11.193   3.645   6.894 -0.3972  0.1327  0.5643
  430MOL0     O56675  10.946   3.524   7.102  0.3937  0.4593 -0.2388
  430MOL0     C56676  10.769   3.365   6.826 -1.0866 -1.3494  0.1618
  430MOL0     C56677  10.651   3.298   6.795 -0.2105  0.7175  0.7447
  430MOL0     N56678  10.106   3.196   6.368  0.1542  0.0264 -0.6407
  430MOL0     N56679  10.123   3.183   6.243 -0.3555 -0.9731 -0.4198
  430MOL0     C56680  10.908   2.759   6.312  0.3112 -0.0539  0.7220
  430MOL0     C56681  10.863   2.688   6.424 -0.2387 -0.3014  0.7615
  430MOL0     C56682  10.754   2.431   6.739  0.4640  0.1497  0.1048
  430MOL0     C56683  10.816   2.426   6.872 -0.1438  0.2170  0.6225
  430MOL0     C56684  10.732   2.390   6.982 -0.5923  0.8955  0.5377
  430MOL0     C56685  10.599   2.357   6.958 -0.2338  0.1251 -0.0194
  430MOL0     O56686  10.516   2.314   7.055  0.1079 -0.6807  0.1800
  430MOL0     C56687  10.535   2.293   7.192 -0.9963 -0.4380  0.9658
  430MOL0     C56688  10.431   2.197   7.230 -0.3310 -0.4149 -0.4820
  430MOL0     C56689  10.444   2.159   7.375  0.3402 -0.4566 -0.8443
  430MOL0     C56690  10.321   2.100   7.439  0.4305 -0.3671 -0.5202
  430MOL0     C56691  10.298   1.969   7.371 -0.0002  0.0370 -0.1935
  430MOL0     C56692  10.268   1.878   7.304 -0.0218  1.1993  0.5196
  430MOL0     C56693  10.537   2.379   6.835  0.7127  0.4368 -0.1532
  430MOL0     C56694  10.607   2.411   6.725  0.6978 -0.6494  0.3767
  430MOL0     H56695  10.751   2.412   6.257 -1.6921  1.1236  0.6763
  430MOL0     H56696  10.854   2.542   6.060  1.5735  2.4831 -0.2228
  430MOL0     H56697  11.075   2.918   6.076 -0.1877 -1.8731  1.8852
  430MOL0     H56698  10.925   2.958   6.135 -1.1383 -2.6124  0.2890
  430MOL0     H56699  10.970   2.888   5.836 -0.7291 -0.6853  0.4911
  430MOL0     H56700  10.980   3.052   5.890 -0.9937  0.8804  0.9306
  430MOL0     H56701  10.747   2.849   5.919 -0.7105 -0.4767 -3.4116
  430MOL0     H56702  10.736   2.971   5.795  2.2622 -0.3444 -0.5979
  430MOL0     H56703  10.728   3.035   6.093 -3.9855  0.6153  1.4144
  430MOL0     H56704  10.760   3.155   5.959  3.1869 -1.7019 -1.3867
  430MOL0     H56705  10.521   2.972   6.000 -1.8559  1.4124  0.1996
  430MOL0     H56706  10.542   3.080   5.857 -0.7461  1.3975 -0.8885
  430MOL0     H56707  10.548   3.276   6.007  1.3140  0.6725  1.0977
  430MOL0     H56708  10.480   3.176   6.149  1.2695  0.1310  0.2294
  430MOL0     H56709  10.351   3.223   5.883  1.4007  1.7936 -0.1224
  430MOL0     H56710  10.293   3.092   5.987 -0.9923 -0.4837 -1.2875
  430MOL0     H56711  10.159   3.301   6.004  0.8349 -1.3262 -2.2958
  430MOL0     H56712  10.298   3.391   6.053  0.7644 -0.7701  0.9863
  430MOL0     H56713  10.385   3.358   6.339  0.9850 -0.7211 -0.0443
  430MOL0     H56714  10.145   3.372   6.598  1.7325  2.2955 -1.0034
  430MOL0     H56715  10.321   3.355   6.582 -1.4191  2.4518  1.2550
  430MOL0     H56716  10.321   3.133   6.637  0.3872  1.4929  1.1144
  430MOL0     H56717  10.142   3.113   6.619  0.1133  1.0759 -3.3747
  430MOL0     H56718  10.115   3.272   6.824 -0.0827 -0.3370  0.8853
  430MOL0     H56719  10.175   3.116   6.854 -1.1380  0.1542 -0.0492
  430MOL0     H56720  10.292   3.310   6.978  4.7345 -0.5615  1.0880
  430MOL0     H56721  10.319   3.390   6.825  0.2101  0.8492  1.1828
  430MOL0     H56722  10.492   3.309   7.086 -0.8179 -1.8972 -1.1472
  430MOL0     H56723  10.723   3.410   7.157  1.5157 -0.7805 -0.6988
  430MOL0     H56724  11.155   3.327   7.017  1.7276 -0.4913  0.0257
  430MOL0     H56725  11.396   3.358   7.062  2.9403  0.4196  0.3245
  430MOL0     H56726  11.595   3.380   6.964 -0.7240 -0.0449 -0.5682
  430MOL0     H56727  11.580   3.449   7.128 -1.9140  0.7503 -0.9637
  430MOL0     H56728  11.814   3.394   7.038 -1.0874 -1.2400 -2.7585
  430MOL0     H56729  11.793   3.568   7.091 -1.0685  0.7553 -1.0518
  430MOL0     H56730  11.792   3.626   6.846 -2.1702 -0.2391 -0.4331
  430MOL0     H56731  11.792   3.454   6.804 -0.9005  0.7726 -0.1930
  430MOL0     H56732  12.023   3.590   6.951  1.0837 -2.5142  2.6068
  430MOL0     H56733  12.020   3.420   6.918  4.7227  2.8227  1.4632
  430MOL0     H56734  11.992   3.638   6.707  1.1391  0.8916  2.4312
  430MOL0     H56735  11.965   3.471   6.668  1.0898 -1.1825  1.1068
  430MOL0     H56736  12.206   3.412   6.740  3.2614  0.4565 -1.0418
  430MOL0     H56737  12.228   3.586   6.776 -0.1832  1.2458 -0.9202
  430MOL0     H56738  12.185   3.450   6.511  0.4540 -0.9556  1.5352
  430MOL0     H56739  12.146   3.619   6.526 -0.1941  0.5686  1.5552
  430MOL0     H56740  12.384   3.603   6.450  1.3242 -1.2107 -0.8867
  430MOL0     H56741  12.422   3.505   6.599  0.6676  2.0031  1.6900
  430MOL0     H56742  11.387   3.751   6.884  1.3759 -1.4093 -1.7845
  430MOL0     H56743  11.131   3.709   6.833  3.1092  2.5712 -0.7788
  430MOL0     H56744  10.844   3.387   6.750 -1.4629  1.3374  0.4799
  430MOL0     H56745  10.625   3.243   6.705 -0.9886 -0.2245  1.5073
  430MOL0     H56746  10.965   2.849   6.333 -0.5352  0.5347  0.5690
  430MOL0     H56747  10.871   2.736   6.521 -0.4975 -0.1658  0.7161
  430MOL0     H56748  10.923   2.441   6.886  0.2975 -0.9025 -1.1636
  430MOL0     H56749  10.768   2.390   7.084  0.5238 -0.9600  0.1946
  430MOL0     H56750  10.516   2.384   7.249 -0.5858  0.5989 -0.4919
  430MOL0     H56751  10.638   2.257   7.205  0.0467  1.8288 -0.3951
  430MOL0     H56752  10.329   2.234   7.214 -0.5957 -0.5647  0.7448
  430MOL0     H56753  10.442   2.102   7.177  0.2159 -0.1061 -0.9283
  430MOL0     H56754  10.468   2.255   7.420 -0.7468 -0.0957 -0.9856
  430MOL0     H56755  10.533   2.099   7.395  0.8766  0.1009 -1.4726
  430MOL0     H56756  10.341   2.075   7.544 -1.4102 -1.5626 -0.3938
  430MOL0     H56757  10.236   2.168   7.429  1.6061  1.0672 -1.0661
  430MOL0     H56758  10.223   1.802   7.244  1.1781  2.2927 -1.9410
  430MOL0     H56759  10.430   2.364   6.835  0.5711  1.3653  0.2633
  430MOL0     H56760  10.564   2.407   6.625  0.6054 -3.8444  0.4330
  431MOL0     O56761   8.749   6.084   8.939  0.7402 -0.6060 -0.1152
  431MOL0     C56762   8.850   6.033   8.888 -0.1706 -0.4204  0.5420
  431MOL0     O56763   8.857   5.930   8.805  0.5133 -0.1018  0.3739
  431MOL0     C56764   8.750   5.880   8.738 -0.3967  0.9267 -0.2168
  431MOL0     C56765   8.622   5.866   8.794 -0.3510 -0.3262  0.2798
  431MOL0     C56766   8.520   5.807   8.714 -0.2473  0.1535 -0.1314
  431MOL0     C56767   8.545   5.762   8.592  0.2348  1.5190  0.0638
  431MOL0     O56768   8.433   5.703   8.535  0.5266 -0.0906  0.3287
  431MOL0     C56769   8.450   5.575   8.475  0.9068  0.2111  0.4983
  431MOL0     C56770   8.306   5.535   8.438 -0.1899 -0.2314 -0.1406
  431MOL0     C56771   8.293   5.414   8.335  0.5674  0.0599 -0.2381
  431MOL0     C56772   8.165   5.388   8.273  0.2267  0.2545 -0.4186
  431MOL0     C56773   8.054   5.360   8.370  0.2287 -0.0141 -0.0072
  431MOL0     C56774   7.945   5.278   8.299 -0.1444 -0.7560  0.8140
  431MOL0     C56775   7.832   5.241   8.390 -0.4009  0.2174 -0.9941
  431MOL0     C56776   7.737   5.363   8.412  0.8704 -0.5483  0.3293
  431MOL0     N56777   7.605   5.336   8.474 -0.2525 -0.5359  0.4721
  431MOL0     C56778   7.572   5.230   8.557 -0.5049  0.1640  0.0658
  431MOL0     C56779   7.454   5.258   8.600  0.5421  0.1699  0.2678
  431MOL0     C56780   7.386   5.207   8.721  1.2301 -0.4097 -0.3375
  431MOL0     C56781   7.235   5.202   8.690  0.1111 -0.1722 -0.0025
  431MOL0     C56782   7.167   5.147   8.821  0.3054  0.0712 -0.6721
  431MOL0     C56783   7.026   5.113   8.796  0.0352  0.0585 -0.4789
  431MOL0     O56784   6.965   5.048   8.912 -0.3475  0.6643  0.1689
  431MOL0     C56785   6.831   5.030   8.917  0.3108  0.0198 -0.2255
  431MOL0     C56786   6.745   5.036   8.808  0.6791 -0.0124  0.3968
  431MOL0     C56787   6.610   5.051   8.826 -0.5430 -0.5609 -0.1849
  431MOL0     C56788   6.547   5.042   8.950 -0.8510 -0.1344  0.3461
  431MOL0     C56789   6.397   5.031   8.962  0.3761  0.4447 -0.2567
  431MOL0     O56790   6.352   5.067   9.090  0.0335  0.0132 -0.0042
  431MOL0     C56791   6.220   5.075   9.118  0.5376 -0.6719  0.6811
  431MOL0     C56792   6.175   5.190   9.186  0.0491 -0.4560 -1.3014
  431MOL0     C56793   6.042   5.202   9.216 -0.3706 -0.2739  0.3838
  431MOL0     C56794   5.955   5.108   9.185  1.4338 -0.1079  0.4835
  431MOL0     O56795   5.825   5.139   9.232  0.1729  0.4460  0.9234
  431MOL0     C56796   5.728   5.061   9.158  0.2114 -0.5548 -0.8813
  431MOL0     C56797   5.595   5.125   9.215  0.4574  0.1088  0.3747
  431MOL0     C56798   5.463   5.062   9.155  0.3478  0.3487  0.6278
  431MOL0     C56799   5.332   5.116   9.214 -0.9764  0.0111 -1.0003
  431MOL0     C56800   5.219   5.032   9.152 -0.3567 -0.8234 -0.0306
  431MOL0     C56801   5.083   5.088   9.195  0.7654 -0.4149  0.7179
  431MOL0     C56802   4.952   5.014   9.159 -0.4169  0.6921  0.2085
  431MOL0     C56803   4.907   5.035   9.010 -0.1591  0.4378 -0.2261
  431MOL0    Cl56804   4.787   5.161   9.016 -0.0713  0.5431 -0.1895
  431MOL0     C56805   5.995   4.988   9.115  0.6942  0.3885 -0.8543
  431MOL0     C56806   6.133   4.971   9.086  0.6045 -0.0454  0.3939
  431MOL0     O56807   6.333   5.009   8.863 -0.0131  0.0892  0.2133
  431MOL0     C56808   6.630   5.014   9.063 -0.1141  0.2529 -0.1823
  431MOL0     C56809   6.767   5.025   9.044 -0.9407  1.3808  0.3806
  431MOL0     N56810   7.410   5.381   8.538 -0.1593 -0.2064 -0.2787
  431MOL0     N56811   7.505   5.429   8.473  0.1363 -0.1091 -0.5740
  431MOL0     C56812   8.674   5.758   8.549  0.6886  0.4560  0.3029
  431MOL0     C56813   8.782   5.805   8.620  0.1979 -0.5220  0.0047
  431MOL0     C56814   8.982   6.103   8.913  0.7063  0.4538 -0.2918
  431MOL0     C56815   9.001   6.176   9.030  0.1578 -0.0997 -0.7258
  431MOL0     C56816   9.130   6.233   9.048 -0.0353  0.3187 -0.3399
  431MOL0     C56817   9.230   6.245   8.951  0.5399 -0.4605 -0.1393
  431MOL0     O56818   9.343   6.310   8.985  0.0340  0.0975 -0.1573
  431MOL0     C56819   9.441   6.218   9.024  0.4191 -0.3479 -0.1276
  431MOL0     C56820   9.578   6.293   9.049 -0.0576 -0.3109  0.1600
  431MOL0     C56821   9.646   6.309   8.916 -0.3118 -0.3595 -0.1961
  431MOL0     C56822   9.751   6.423   8.916 -1.0399 -0.6540 -0.3465
  431MOL0     C56823   9.857   6.379   9.013  0.9989 -0.0734 -0.5533
  431MOL0     C56824   9.949   6.330   9.077 -0.0252  0.6888  0.0826
  431MOL0     C56825   9.205   6.162   8.837  0.5366 -0.2010 -0.8484
  431MOL0     C56826   9.084   6.091   8.816 -1.1495 -0.9777 -0.4184
  431MOL0     H56827   8.580   5.910   8.884 -2.3913  1.0267 -1.2428
  431MOL0     H56828   8.417   5.810   8.750 -1.6556  2.1184 -3.8279
  431MOL0     H56829   8.494   5.510   8.552 -1.2885  0.5856  2.1823
  431MOL0     H56830   8.514   5.576   8.386  1.9161  2.5513  1.1865
  431MOL0     H56831   8.260   5.624   8.394  1.2073  0.0831 -1.0330
  431MOL0     H56832   8.246   5.518   8.528 -4.2751  3.0403 -1.9364
  431MOL0     H56833   8.323   5.318   8.379  0.4539  0.1334  0.0065
  431MOL0     H56834   8.360   5.436   8.252  0.7435 -0.6463 -0.2926
  431MOL0     H56835   8.137   5.483   8.227  0.4991  1.0846  1.0590
  431MOL0     H56836   8.163   5.315   8.193 -2.2516 -1.6657  1.2329
  431MOL0     H56837   8.017   5.446   8.428 -2.0148 -1.9972  1.6885
  431MOL0     H56838   8.098   5.298   8.449  0.8109 -1.3460 -1.3419
  431MOL0     H56839   7.983   5.184   8.258  2.9178  0.8486 -0.3604
  431MOL0     H56840   7.913   5.342   8.216  1.4707 -0.2732  0.5369
  431MOL0     H56841   7.767   5.163   8.349  2.6243 -3.6925  1.0636
  431MOL0     H56842   7.868   5.208   8.488  3.4568  2.4318 -1.4721
  431MOL0     H56843   7.710   5.413   8.319 -0.8530 -1.0618  0.5230
  431MOL0     H56844   7.793   5.437   8.470 -0.8244  0.7568  0.3573
  431MOL0     H56845   7.634   5.146   8.586  0.2509  0.6595 -0.0606
  431MOL0     H56846   7.415   5.265   8.809  0.0506 -4.2471  2.8174
  431MOL0     H56847   7.421   5.106   8.744  0.5977 -0.6586 -0.4530
  431MOL0     H56848   7.216   5.134   8.607  1.4688 -1.7003  0.8752
  431MOL0     H56849   7.198   5.303   8.674  0.8805  0.0188 -0.6033
  431MOL0     H56850   7.219   5.060   8.861 -0.4598 -0.4669 -0.8139
  431MOL0     H56851   7.159   5.232   8.891 -0.2777 -0.2082 -0.3926
  431MOL0     H56852   7.020   5.038   8.717 -0.0430  0.0178 -0.4350
  431MOL0     H56853   6.972   5.202   8.761  0.1065  0.2966  0.0170
  431MOL0     H56854   6.787   5.045   8.708  2.4338 -0.2892  1.0765
  431MOL0     H56855   6.555   5.064   8.733 -1.6290 -0.0862  0.4974
  431MOL0     H56856   6.240   5.262   9.235  0.6313 -2.3140  0.8336
  431MOL0     H56857   6.007   5.296   9.257 -0.0142  0.0914 -0.1380
  431MOL0     H56858   5.737   4.955   9.184  1.3518 -0.4201 -0.6285
  431MOL0     H56859   5.739   5.084   9.052  0.3819  2.8441 -0.2518
  431MOL0     H56860   5.587   5.232   9.194  1.1742  0.7150  2.8721
  431MOL0     H56861   5.591   5.120   9.324 -0.9256 -0.5532  0.3132
  431MOL0     H56862   5.470   4.953   9.159 -1.7492  0.1862  1.0680
  431MOL0     H56863   5.464   5.091   9.050 -3.6504  1.1170  0.6560
  431MOL0     H56864   5.343   5.108   9.323  2.3738 -1.7237 -1.3613
  431MOL0     H56865   5.301   5.218   9.189 -3.3485 -0.9657 -2.3875
  431MOL0     H56866   5.228   4.937   9.205  4.2485  0.5047  2.0770
  431MOL0     H56867   5.231   5.014   9.045 -0.9954 -0.4060 -0.1796
  431MOL0     H56868   5.079   5.189   9.152  2.3364 -1.2337 -1.5007
  431MOL0     H56869   5.083   5.115   9.301 -1.5598  3.8323 -0.1018
  431MOL0     H56870   4.963   4.909   9.191  0.5962  1.4207  2.4361
  431MOL0     H56871   4.875   5.050   9.229  2.4442  1.5467  3.1640
  431MOL0     H56872   4.871   4.942   8.965  3.3501 -2.4078  2.1909
  431MOL0     H56873   4.995   5.057   8.947  1.0653 -1.0687  0.8722
  431MOL0     H56874   5.924   4.911   9.087  0.3465 -0.0460  1.0806
  431MOL0     H56875   6.163   4.875   9.044  2.7569 -0.2373  2.1746
  431MOL0     H56876   6.587   5.012   9.163 -1.0490 -0.2055 -0.5887
  431MOL0     H56877   6.836   5.020   9.128  0.0863  1.3973 -0.4271
  431MOL0     H56878   8.688   5.710   8.453 -0.1372 -4.1932  2.2286
  431MOL0     H56879   8.883   5.800   8.581  0.2989  1.9568 -0.1844
  431MOL0     H56880   8.936   6.185   9.117  1.3252  1.9368  0.0213
  431MOL0     H56881   9.146   6.274   9.147 -1.2048 -0.3768  0.1672
  431MOL0     H56882   9.448   6.130   8.959 -0.0721  0.7806 -1.7752
  431MOL0     H56883   9.400   6.185   9.120  0.7259 -0.6019 -0.0796
  431MOL0     H56884   9.565   6.391   9.096 -1.8441 -1.0028  1.2083
  431MOL0     H56885   9.634   6.230   9.120  1.0068  1.5283  1.0222
  431MOL0     H56886   9.575   6.343   8.840 -1.1562  0.3394  0.8835
  431MOL0     H56887   9.695   6.218   8.880  1.0272  0.5675 -0.8178
  431MOL0     H56888   9.805   6.443   8.823 -0.3905  0.7720  0.3087
  431MOL0     H56889   9.714   6.523   8.941 -0.3496 -0.7353  1.0688
  431MOL0     H56890  10.029   6.300   9.142  0.6757  4.4412  1.1530
  431MOL0     H56891   9.281   6.160   8.760 -0.2048  2.3856 -1.7559
  431MOL0     H56892   9.078   6.035   8.723  2.2316 -2.6155  0.2014
  432MOL0     O56893   3.665   4.754  10.903 -0.0777  0.2384 -0.2814
  432MOL0     C56894   3.673   4.668  10.818  0.0206  0.1860  0.6986
  432MOL0     O56895   3.572   4.590  10.778  0.0670  0.3041  0.3853
  432MOL0     C56896   3.449   4.629  10.811  0.6085  0.0239  0.3962
  432MOL0     C56897   3.369   4.705  10.731 -0.7613 -0.5487 -0.9944
  432MOL0     C56898   3.234   4.729  10.756  0.4362  0.9269  0.6571
  432MOL0     C56899   3.160   4.665  10.857  1.4789  0.8625  0.1639
  432MOL0     O56900   3.021   4.688  10.881 -0.3762  0.4614 -0.7208
  432MOL0     C56901   2.948   4.777  10.798 -0.3613 -0.1375 -0.0049
  432MOL0     C56902   2.799   4.786  10.828  1.1681  1.1282  0.9319
  432MOL0     C56903   2.728   4.657  10.764  0.6071  0.8059 -0.6336
  432MOL0     C56904   2.577   4.676  10.761 -1.4302  0.4847  0.0488
  432MOL0     C56905   2.529   4.790  10.671  0.8724  0.2827  0.2049
  432MOL0     C56906   2.385   4.766  10.629  0.4124 -0.3932  0.5516
  432MOL0     C56907   2.363   4.647  10.534  0.7040 -0.5959  1.2902
  432MOL0     C56908   2.225   4.652  10.457 -0.5035  0.2582  0.8711
  432MOL0     N56909   2.230   4.729  10.334  0.0314  0.1034 -0.3778
  432MOL0     C56910   2.310   4.711  10.221  0.4312  0.3950  0.5013
  432MOL0     C56911   2.284   4.827  10.146  0.2692  0.4236 -0.7950
  432MOL0     C56912   2.344   4.854  10.013 -0.4238 -0.1974  0.2572
  432MOL0     C56913   2.268   4.957   9.929  0.4710 -0.4768  0.3527
  432MOL0     C56914   2.165   4.877   9.851 -0.1313 -0.0580 -0.8811
  432MOL0     C56915   2.055   4.982   9.808 -0.9558  0.4870  0.1760
  432MOL0     O56916   1.970   4.925   9.700  0.5708 -0.2464 -0.7414
  432MOL0     C56917   1.844   4.983   9.687 -0.2001  0.6717 -0.2414
  432MOL0     C56918   1.745   4.904   9.626 -0.8500 -0.1573 -0.2537
  432MOL0     C56919   1.615   4.957   9.598 -0.4928  0.0009 -0.1267
  432MOL0     C56920   1.579   5.084   9.651  0.0132  0.0505  0.0388
  432MOL0     C56921   1.435   5.133   9.632 -0.7066  0.5115  0.1787
  432MOL0     O56922   1.357   5.074   9.531 -0.2673 -0.5495  0.2406
  432MOL0     C56923   1.220   5.089   9.541  0.0489  0.6416  0.6903
  432MOL0     C56924   1.139   4.972   9.508  0.1082  0.0498 -0.0856
  432MOL0     C56925   0.998   4.992   9.491 -0.4919 -0.3056  0.7888
  432MOL0     C56926   0.938   5.119   9.505  0.7778 -0.1172  0.9218
  432MOL0     O56927   0.803   5.155   9.476  0.3649  0.5841  0.1367
  432MOL0     C56928   0.714   5.045   9.434 -0.3862 -0.4359 -1.0489
  432MOL0     C56929   0.576   5.106   9.394  0.4134  0.3768  0.4259
  432MOL0     C56930   0.473   4.992   9.385 -0.4253  0.4365  0.1987
  432MOL0     C56931   0.352   5.029   9.292  0.5089  0.1614 -0.0815
  432MOL0     C56932   0.383   5.076   9.145  0.6114  0.0859  0.5420
  432MOL0     C56933   0.266   5.150   9.070 -0.5841  0.2174 -0.0711
  432MOL0     C56934   0.133   5.074   9.055 -0.4431  0.0956 -0.4472
  432MOL0     C56935   0.073   5.079   8.915  0.4304  0.3041  0.7074
  432MOL0    Cl56936  -0.088   5.007   8.922  0.1986 -0.5221  0.1082
  432MOL0     C56937   1.020   5.233   9.527 -0.7042  0.1043 -0.5651
  432MOL0     C56938   1.154   5.213   9.552 -0.3161  0.7407 -0.2014
  432MOL0     O56939   1.409   5.223   9.714  0.3560  0.0648  0.5295
  432MOL0     C56940   1.673   5.161   9.712  0.2605  0.7874 -0.4301
  432MOL0     C56941   1.799   5.105   9.739  0.1496 -0.7142  0.0204
  432MOL0     N56942   2.197   4.909  10.216 -0.4767 -0.1919 -0.1124
  432MOL0     N56943   2.178   4.856  10.329 -0.0248  0.1581  0.1994
  432MOL0     C56944   3.241   4.583  10.941 -0.0084 -0.6899 -0.2317
  432MOL0     C56945   3.380   4.574  10.924 -1.4726  0.3162  0.2528
  432MOL0     C56946   3.810   4.630  10.752  0.7257 -0.0759 -0.8041
  432MOL0     C56947   3.921   4.717  10.777  0.0499  0.3138 -0.0605
  432MOL0     C56948   4.052   4.693  10.721  0.4400  0.6301  0.7440
  432MOL0     C56949   4.068   4.573  10.644 -0.2512  1.0069  0.0907
  432MOL0     O56950   4.191   4.541  10.595  0.1735 -0.4023  0.0054
  432MOL0     C56951   4.208   4.578  10.454  0.5137 -0.1011  0.0278
  432MOL0     C56952   4.262   4.455  10.369  0.8293 -0.4086 -1.6742
  432MOL0     C56953   4.332   4.513  10.245  0.1282 -0.2197  0.3337
  432MOL0     C56954   4.384   4.387  10.168 -0.1874  0.0583  0.4124
  432MOL0     C56955   4.383   4.428  10.026 -0.0497  0.1047 -0.0183
  432MOL0     C56956   4.393   4.463   9.911  0.3453  0.7916 -1.0987
  432MOL0     C56957   3.962   4.494  10.619 -0.0465 -0.4405  0.1502
  432MOL0     C56958   3.832   4.519  10.675  0.2969  0.6907  0.9975
  432MOL0     H56959   3.404   4.745  10.636  0.6888 -2.5489 -1.3601
  432MOL0     H56960   3.179   4.792  10.688 -0.0665  0.0178  0.2030
  432MOL0     H56961   2.968   4.757  10.692 -1.7293  1.6680 -0.6564
  432MOL0     H56962   2.985   4.878  10.814 -1.1179  0.4638 -1.7320
  432MOL0     H56963   2.749   4.874  10.786 -1.5931 -1.5173 -1.8474
  432MOL0     H56964   2.795   4.794  10.937  3.1957  2.4364  0.9575
  432MOL0     H56965   2.756   4.571  10.825  0.0982  1.4684  0.5612
  432MOL0     H56966   2.756   4.640  10.659  3.4313 -1.2770  0.3333
  432MOL0     H56967   2.526   4.583  10.732 -1.5705  0.6802 -0.3365
  432MOL0     H56968   2.539   4.691  10.863 -1.9540 -1.1189  0.1222
  432MOL0     H56969   2.592   4.813  10.585  2.1735  1.8395  1.5112
  432MOL0     H56970   2.540   4.878  10.735  0.0953  1.6546 -1.4751
  432MOL0     H56971   2.354   4.857  10.576  1.3983 -0.3972 -0.0579
  432MOL0     H56972   2.324   4.759  10.720 -2.8275 -0.8020 -1.4625
  432MOL0     H56973   2.448   4.654  10.466 -0.6626 -0.8421 -0.5403
  432MOL0     H56974   2.369   4.550  10.584 -1.2217 -1.9925 -0.9716
  432MOL0     H56975   2.147   4.696  10.519  1.0782  3.8857  0.5689
  432MOL0     H56976   2.198   4.548  10.436  0.7625 -0.3017  1.8949
  432MOL0     H56977   2.376   4.628  10.199  0.7174  0.6202  0.5056
  432MOL0     H56978   2.352   4.765   9.949  0.2398  1.0030 -1.4125
  432MOL0     H56979   2.448   4.882  10.032 -0.6813  0.5199  0.6375
  432MOL0     H56980   2.334   5.006   9.857 -1.1734  0.0597 -0.8708
  432MOL0     H56981   2.235   5.038   9.995  1.9725  1.8519 -1.5599
  432MOL0     H56982   2.206   4.837   9.758  1.2402 -1.8729  0.4098
  432MOL0     H56983   2.123   4.797   9.914 -1.0682  0.6778 -0.5430
  432MOL0     H56984   2.113   5.068   9.772  0.0282  1.0426  2.8695
  432MOL0     H56985   2.002   5.010   9.900 -0.3001 -1.2460  1.1173
  432MOL0     H56986   1.773   4.808   9.582  0.3183 -0.3536  0.8681
  432MOL0     H56987   1.534   4.904   9.549 -0.2619 -1.1249  0.6808
  432MOL0     H56988   1.168   4.870   9.487 -1.8081 -0.3353 -1.0706
  432MOL0     H56989   0.924   4.923   9.450 -2.0595  2.0220 -0.5264
  432MOL0     H56990   0.698   4.967   9.509 -0.6951  1.6361  1.1512
  432MOL0     H56991   0.761   4.991   9.351 -0.3739  1.0105 -2.0216
  432MOL0     H56992   0.588   5.163   9.301  1.8630  0.3385  0.5753
  432MOL0     H56993   0.546   5.163   9.482  0.2378 -1.5838  1.7017
  432MOL0     H56994   0.434   4.945   9.476  1.3850 -0.8100  0.3700
  432MOL0     H56995   0.516   4.906   9.333 -1.7899  1.1821 -2.3177
  432MOL0     H56996   0.285   4.941   9.292  0.7538 -0.0329  0.7621
  432MOL0     H56997   0.306   5.111   9.347  3.4948  2.0812 -0.2546
  432MOL0     H56998   0.404   4.978   9.101  0.7979 -0.2877  1.4203
  432MOL0     H56999   0.467   5.144   9.154  1.5556 -0.8766 -0.6378
  432MOL0     H57000   0.295   5.185   8.970 -0.1677  2.5597  0.7941
  432MOL0     H57001   0.236   5.240   9.124 -1.7398  0.8059 -1.5994
  432MOL0     H57002   0.148   4.969   9.082 -1.5081  0.0496  0.0060
  432MOL0     H57003   0.066   5.119   9.128  1.6751  0.3336  1.4726
  432MOL0     H57004   0.136   5.025   8.843  2.3138  4.9038 -1.5281
  432MOL0     H57005   0.067   5.180   8.872  1.8017 -0.0844 -0.5105
  432MOL0     H57006   0.978   5.333   9.530  0.0791  0.5989 -3.2103
  432MOL0     H57007   1.218   5.300   9.557  3.7998 -2.0388 -0.0709
  432MOL0     H57008   1.655   5.263   9.744  0.0786  0.7875 -0.5313
  432MOL0     H57009   1.872   5.164   9.794 -1.1943 -1.4154  2.7769
  432MOL0     H57010   3.209   4.527  11.028 -0.8264 -0.8304 -0.6072
  432MOL0     H57011   3.440   4.502  10.980 -0.3943  0.1358 -1.0793
  432MOL0     H57012   3.920   4.805  10.841 -1.1748 -0.3956  0.9552
  432MOL0     H57013   4.141   4.748  10.750  1.7204 -0.9008 -0.0866
  432MOL0     H57014   4.285   4.655  10.449 -1.3696  2.0113  1.1945
  432MOL0     H57015   4.121   4.629  10.410 -1.6967 -3.5949 -0.0284
  432MOL0     H57016   4.335   4.399  10.428 -2.1161 -1.7190  1.0121
  432MOL0     H57017   4.180   4.387  10.347 -1.5824  0.7043  2.7822
  432MOL0     H57018   4.412   4.584  10.268  1.3536 -1.2875 -0.4799
  432MOL0     H57019   4.264   4.567  10.178  2.5126  2.8626  0.1745
  432MOL0     H57020   4.486   4.373  10.203  0.2761 -1.8399 -1.4849
  432MOL0     H57021   4.326   4.294  10.170  0.2258 -0.3111 -1.8978
  432MOL0     H57022   4.405   4.498   9.810  0.3182  1.1979 -0.9611
  432MOL0     H57023   3.962   4.413  10.547  2.9355 -2.3360  2.0206
  432MOL0     H57024   3.748   4.459  10.639 -2.3734  3.8270  1.5297
  433MOL0     O57025   9.810   3.960   2.808  0.5735 -0.0173  0.9760
  433MOL0     C57026   9.911   3.984   2.879 -0.0100 -0.3109  0.2897
  433MOL0     O57027   9.926   4.059   2.995 -0.2497 -0.6020  0.7294
  433MOL0     C57028   9.819   4.125   3.021  0.0670 -0.8930  1.0037
  433MOL0     C57029   9.793   4.253   2.960  0.1193 -0.1814 -0.4921
  433MOL0     C57030   9.683   4.330   3.000  0.2660 -1.0140  0.3704
  433MOL0     C57031   9.607   4.290   3.113  0.4427  0.1191  0.5685
  433MOL0     O57032   9.499   4.359   3.174 -0.1920 -0.0614 -0.5486
  433MOL0     C57033   9.472   4.493   3.135 -0.2511  0.4651 -0.6049
  433MOL0     C57034   9.414   4.580   3.249 -0.1983  0.0559  0.1525
  433MOL0     C57035   9.384   4.730   3.229 -0.0402 -0.5734 -0.5934
  433MOL0     C57036   9.256   4.742   3.150 -0.3513 -0.2528  0.1738
  433MOL0     C57037   9.239   4.890   3.117 -0.1844 -0.8334  0.8931
  433MOL0     C57038   9.090   4.923   3.091  0.5010  0.6192  0.4665
  433MOL0     C57039   9.067   5.009   2.960 -0.6087 -0.1560  0.1068
  433MOL0     C57040   9.127   5.149   2.983  0.2000 -0.5570 -0.1620
  433MOL0     N57041   9.081   5.253   2.888  0.2808 -0.2436  0.1990
  433MOL0     C57042   8.990   5.352   2.925  0.1571  0.3746 -0.3812
  433MOL0     C57043   8.949   5.407   2.810  0.0729 -0.4294  0.0511
  433MOL0     C57044   8.844   5.512   2.778 -0.6411 -0.0031 -0.6026
  433MOL0     C57045   8.750   5.486   2.664  0.4666 -0.1931  0.3735
  433MOL0     C57046   8.638   5.588   2.654  0.8890 -0.4737  0.1411
  433MOL0     C57047   8.497   5.546   2.609  0.4441  0.2709 -0.5125
  433MOL0     O57048   8.425   5.659   2.563 -0.1135 -0.4614  0.4060
  433MOL0     C57049   8.286   5.669   2.570 -0.4760 -0.1667 -0.4602
  433MOL0     C57050   8.184   5.574   2.599 -0.1366 -0.3053  0.2825
  433MOL0     C57051   8.048   5.597   2.597  0.4751 -0.3436 -0.3187
  433MOL0     C57052   8.003   5.726   2.564 -0.6845  0.2550 -0.4823
  433MOL0     C57053   7.864   5.762   2.592  0.7819 -0.1240  0.5730
  433MOL0     O57054   7.814   5.878   2.546 -0.2909 -1.4182  0.2243
  433MOL0     C57055   7.682   5.916   2.556 -0.5033 -0.2556  0.6082
  433MOL0     C57056   7.626   5.934   2.684 -0.4684 -0.4219  0.8523
  433MOL0     C57057   7.488   5.958   2.697 -0.4747 -0.6059 -0.0746
  433MOL0     C57058   7.407   5.978   2.586  0.4359 -0.2567  0.1389
  433MOL0     O57059   7.274   6.027   2.595 -0.5237  0.2351  0.4469
  433MOL0     C57060   7.272   6.170   2.624  0.1028  0.2536 -0.2895
  433MOL0     C57061   7.130   6.230   2.617 -0.2754 -0.2212  0.7241
  433MOL0     C57062   7.035   6.157   2.707  0.9384  0.5845 -0.6745
  433MOL0     C57063   6.898   6.217   2.694 -0.3702 -0.8661 -0.1379
  433MOL0     C57064   6.797   6.179   2.801  0.0754  0.7794 -0.3372
  433MOL0     C57065   6.723   6.046   2.765 -0.2268  0.2451  0.5600
  433MOL0     C57066   6.617   6.018   2.872 -0.3974 -0.9148  0.3850
  433MOL0     C57067   6.650   6.008   3.022 -0.5322 -0.0375  1.0344
  433MOL0    Cl57068   6.774   5.872   3.038  0.2375 -0.1164  0.7014
  433MOL0     C57069   7.467   5.979   2.457 -0.1044  0.1972 -0.1822
  433MOL0     C57070   7.605   5.949   2.439 -0.5990 -0.5695  0.5868
  433MOL0     O57071   7.795   5.672   2.644  0.1633 -0.5186 -0.3262
  433MOL0     C57072   8.098   5.824   2.532 -0.1679 -0.0101 -0.3440
  433MOL0     C57073   8.238   5.788   2.524  0.4717  0.4718 -1.0359
  433MOL0     N57074   9.027   5.347   2.709 -0.3926  0.0586 -0.3093
  433MOL0     N57075   9.111   5.259   2.760  0.6109 -0.0692  1.1219
  433MOL0     C57076   9.628   4.164   3.165  0.8644 -0.3308  0.4745
  433MOL0     C57077   9.726   4.076   3.119  0.2909 -0.3340  0.6370
  433MOL0     C57078  10.039   3.929   2.819  0.9439 -0.9429  0.4847
  433MOL0     C57079  10.054   3.915   2.684  0.0098  0.6943  0.3580
  433MOL0     C57080  10.177   3.885   2.624 -0.1878  0.4688 -0.5560
  433MOL0     C57081  10.290   3.877   2.703  0.8180 -0.6395 -0.0266
  433MOL0     O57082  10.408   3.847   2.640  0.1769 -0.1124 -0.0010
  433MOL0     C57083  10.527   3.919   2.687  1.1229  0.4532 -0.4439
  433MOL0     C57084  10.641   3.931   2.589  0.3870  0.8655  0.1155
  433MOL0     C57085  10.748   3.818   2.604 -1.3901 -0.8949  0.0790
  433MOL0     C57086  10.845   3.826   2.481 -0.1102 -0.3380  0.0638
  433MOL0     C57087  10.953   3.737   2.468 -0.5657  0.7267  0.3091
  433MOL0     C57088  11.033   3.646   2.445 -0.2699 -0.1156  0.4207
  433MOL0     C57089  10.272   3.896   2.846 -0.4214  0.4917  0.2884
  433MOL0     C57090  10.150   3.927   2.899  0.1069  0.2019  0.9784
  433MOL0     H57091   9.863   4.283   2.882  2.2869 -1.2465  0.9212
  433MOL0     H57092   9.658   4.422   2.947 -3.2410 -2.9595 -1.7353
  433MOL0     H57093   9.404   4.502   3.050 -0.4811 -0.2715 -0.5012
  433MOL0     H57094   9.562   4.548   3.103  0.5224  0.5215  1.5309
  433MOL0     H57095   9.469   4.549   3.338  1.7460  1.8227 -0.3559
  433MOL0     H57096   9.311   4.546   3.268 -0.2338  0.5536  0.8997
  433MOL0     H57097   9.466   4.790   3.189 -0.5563 -0.4871 -1.5567
  433MOL0     H57098   9.370   4.771   3.329 -0.4173 -1.2085 -0.3810
  433MOL0     H57099   9.275   4.682   3.060  1.3779  1.6753 -0.8274
  433MOL0     H57100   9.174   4.707   3.213  0.0575 -0.7963  0.4184
  433MOL0     H57101   9.312   4.914   3.040 -0.0866 -1.0467  0.9179
  433MOL0     H57102   9.271   4.960   3.195  0.9606 -0.3130 -0.0281
  433MOL0     H57103   9.029   4.972   3.167 -3.6166 -1.8240 -0.9028
  433MOL0     H57104   9.037   4.827   3.085  2.7725 -0.7789  1.5077
  433MOL0     H57105   9.127   4.962   2.882  5.8775  2.6387  2.6530
  433MOL0     H57106   8.960   5.011   2.939  0.0274  0.8020 -3.7009
  433MOL0     H57107   9.236   5.149   2.985  0.2100  0.4705  0.0165
  433MOL0     H57108   9.091   5.173   3.084  0.2242 -0.5920 -0.1453
  433MOL0     H57109   8.947   5.364   3.024  1.9814 -2.3203  0.8469
  433MOL0     H57110   8.896   5.606   2.757 -0.7577  0.4955  1.2157
  433MOL0     H57111   8.790   5.546   2.866 -1.0193  0.3937 -0.9862
  433MOL0     H57112   8.702   5.388   2.679 -0.8015  0.1973 -0.9060
  433MOL0     H57113   8.801   5.486   2.568  0.8551  1.4780  0.5515
  433MOL0     H57114   8.622   5.647   2.744 -2.2573 -1.1797  0.1722
  433MOL0     H57115   8.674   5.660   2.579  1.4616 -0.1033  0.7599
  433MOL0     H57116   8.452   5.505   2.700  1.9828 -0.6694 -0.1349
  433MOL0     H57117   8.506   5.469   2.532  0.0569 -0.5353  0.2187
  433MOL0     H57118   8.211   5.472   2.624 -0.8311 -0.9867 -1.5343
  433MOL0     H57119   7.975   5.520   2.622  1.1981 -0.8541  0.2521
  433MOL0     H57120   7.683   5.922   2.776 -2.2792  0.5703  2.1661
  433MOL0     H57121   7.447   5.973   2.796  1.5417  1.7435  0.5215
  433MOL0     H57122   7.332   6.213   2.543  1.2376  0.0964  0.4415
  433MOL0     H57123   7.317   6.192   2.721 -0.2818  1.3215 -0.3339
  433MOL0     H57124   7.089   6.223   2.515  0.2829  0.9208  0.4131
  433MOL0     H57125   7.139   6.338   2.630 -0.3719 -0.3041  1.5232
  433MOL0     H57126   7.072   6.170   2.809  2.0850 -0.8358 -0.8835
  433MOL0     H57127   7.027   6.049   2.689 -0.7103  0.1627  1.9614
  433MOL0     H57128   6.916   6.324   2.709  1.4540 -1.2896  0.9919
  433MOL0     H57129   6.874   6.196   2.590 -0.0412 -0.0069 -0.3951
  433MOL0     H57130   6.720   6.255   2.815 -1.0341 -0.2947 -0.4373
  433MOL0     H57131   6.847   6.175   2.899  0.0963 -1.8420 -0.3829
  433MOL0     H57132   6.793   5.963   2.755 -0.3319  0.3702 -2.2142
  433MOL0     H57133   6.675   6.049   2.666  3.2733 -1.7026 -1.3814
  433MOL0     H57134   6.539   6.095   2.867 -0.5721 -1.1109  0.0427
  433MOL0     H57135   6.561   5.926   2.851 -2.2405  0.0908  0.6278
  433MOL0     H57136   6.556   5.985   3.072 -2.4947  0.7027 -2.0871
  433MOL0     H57137   6.682   6.105   3.062  1.9636 -0.7387  0.9334
  433MOL0     H57138   7.399   5.981   2.372  0.6773 -0.0904 -0.8265
  433MOL0     H57139   7.649   5.938   2.341 -1.7037  2.3351 -0.3248
  433MOL0     H57140   8.066   5.924   2.503 -2.6344 -0.6104  0.0469
  433MOL0     H57141   8.309   5.863   2.490  0.1898  1.4896  0.5165
  433MOL0     H57142   9.564   4.114   3.238  1.5699 -2.4430 -0.2709
  433MOL0     H57143   9.739   3.973   3.149  1.6182 -1.2244 -2.4900
  433MOL0     H57144   9.969   3.911   2.616  1.2641 -2.0440 -1.2090
  433MOL0     H57145  10.178   3.862   2.518 -1.2779 -2.3734 -0.0581
  433MOL0     H57146  10.568   3.875   2.778 -0.7682  1.2643  0.8687
  433MOL0     H57147  10.491   4.018   2.716 -2.3848 -1.2297  1.6505
  433MOL0     H57148  10.591   3.945   2.493  2.4395 -1.2405 -1.3499
  433MOL0     H57149  10.690   4.028   2.605  0.7456  0.9708 -1.4649
  433MOL0     H57150  10.705   3.717   2.609  2.3182 -2.6031  0.9120
  433MOL0     H57151  10.804   3.830   2.697  0.1198 -2.4602 -0.5766
  433MOL0     H57152  10.785   3.825   2.390 -0.1593 -1.0523  0.0979
  433MOL0     H57153  10.890   3.925   2.474  1.2078 -0.9450 -0.5708
  433MOL0     H57154  11.104   3.577   2.403 -0.8785 -0.3622 -0.2241
  433MOL0     H57155  10.366   3.877   2.897  1.0944  0.0026 -2.5295
  433MOL0     H57156  10.140   3.945   3.005  0.8584  1.8210  0.8031
  434MOL0     O57157   0.007   8.490   5.175 -0.0388 -0.5420  0.3114
  434MOL0     C57158  -0.054   8.587   5.121  0.2400  0.4707 -0.5405
  434MOL0     O57159   0.004   8.685   5.041  0.0815 -0.6603 -1.4290
  434MOL0     C57160   0.145   8.688   5.050 -0.0684  0.5781  0.2263
  434MOL0     C57161   0.232   8.588   4.989 -0.1040  0.0344 -0.3794
  434MOL0     C57162   0.370   8.612   4.986  0.1066 -0.4391  0.1389
  434MOL0     C57163   0.425   8.724   5.047  0.4947  0.2455  0.5768
  434MOL0     O57164   0.559   8.728   5.049 -0.3395 -0.4107  0.1242
  434MOL0     C57165   0.632   8.800   5.149 -0.1488 -0.2632 -0.5101
  434MOL0     C57166   0.712   8.907   5.081  0.4508 -0.2246  0.0487
  434MOL0     C57167   0.824   8.848   4.993  0.6960  0.4970 -0.6616
  434MOL0     C57168   0.917   8.954   4.950 -0.2673 -0.3048  1.1302
  434MOL0     C57169   1.029   8.922   4.855 -0.0488 -0.6177 -0.5911
  434MOL0     C57170   0.985   8.839   4.730 -0.6369 -0.1751 -0.1452
  434MOL0     C57171   1.109   8.811   4.644  0.5276 -0.0213  1.0664
  434MOL0     C57172   1.083   8.695   4.547  0.1699  0.2838 -0.4847
  434MOL0     N57173   0.976   8.730   4.460  0.1757 -0.7049  0.5800
  434MOL0     C57174   0.875   8.644   4.420 -0.1761 -0.2517  0.4637
  434MOL0     C57175   0.851   8.684   4.296  0.9766  1.0016 -0.7007
  434MOL0     C57176   0.765   8.606   4.199  0.7943  0.3029  0.4152
  434MOL0     C57177   0.619   8.643   4.188 -0.2195  0.2959 -0.1852
  434MOL0     C57178   0.536   8.518   4.176  0.1420  0.2071  0.0421
  434MOL0     C57179   0.380   8.546   4.191  0.7880 -0.0574  0.7821
  434MOL0     O57180   0.297   8.426   4.190  0.4840 -0.5231 -0.3236
  434MOL0     C57181   0.162   8.441   4.192 -0.1725 -1.0693 -0.5667
  434MOL0     C57182   0.094   8.324   4.199 -0.0693 -0.3555  0.2615
  434MOL0     C57183  -0.047   8.334   4.185 -0.0924  0.7854 -0.4752
  434MOL0     C57184  -0.116   8.457   4.165 -0.2307 -0.9699 -1.7135
  434MOL0     C57185  -0.261   8.471   4.160  0.5687  0.3719 -0.1648
  434MOL0     O57186  -0.329   8.581   4.113 -0.5452 -0.1836  0.0453
  434MOL0     C57187  -0.456   8.563   4.065 -0.4398  0.1386 -0.4175
  434MOL0     C57188  -0.501   8.467   3.976 -0.2635 -0.6258 -0.0905
  434MOL0     C57189  -0.635   8.468   3.937  0.5432 -0.1508 -0.1460
  434MOL0     C57190  -0.721   8.572   3.964 -0.6746  0.3897  0.0630
  434MOL0     O57191  -0.840   8.557   3.905 -0.2900  0.2526  0.4800
  434MOL0     C57192  -0.955   8.628   3.960 -0.0661 -0.4799  0.7973
  434MOL0     C57193  -1.081   8.583   3.883 -0.7619  0.6752  0.0656
  434MOL0     C57194  -1.117   8.436   3.920 -0.3555  1.4644  0.3474
  434MOL0     C57195  -1.257   8.395   3.875  0.9712  0.5789 -0.6513
  434MOL0     C57196  -1.287   8.388   3.723  0.4085 -0.0462 -0.0634
  434MOL0     C57197  -1.208   8.287   3.632 -0.1070  0.8732 -0.1907
  434MOL0     C57198  -1.258   8.147   3.669 -0.6140  0.2094  0.3334
  434MOL0     C57199  -1.256   8.054   3.544 -0.3292  0.0704 -0.3368
  434MOL0    Cl57200  -1.395   8.096   3.450 -0.2056 -0.1538  0.2379
  434MOL0     C57201  -0.679   8.669   4.051 -0.4847  0.1866 -1.3523
  434MOL0     C57202  -0.547   8.660   4.104 -0.5448 -0.9249  0.0598
  434MOL0     O57203  -0.316   8.367   4.189 -0.3568 -0.1872 -0.0191
  434MOL0     C57204  -0.037   8.574   4.148  0.0077 -0.2388 -0.1813
  434MOL0     C57205   0.104   8.569   4.161  0.5564 -0.4029 -0.5034
  434MOL0     N57206   0.921   8.793   4.264  0.0289 -0.2418 -0.0914
  434MOL0     N57207   0.991   8.833   4.369  0.1189 -0.4152  0.5109
  434MOL0     C57208   0.341   8.818   5.093  0.2754 -1.1383 -0.4963
  434MOL0     C57209   0.200   8.800   5.098  0.0479 -0.5108  0.0334
  434MOL0     C57210  -0.196   8.586   5.138 -0.2649 -0.7233  0.3879
  434MOL0     C57211  -0.259   8.502   5.232 -0.0719  0.7442 -0.2586
  434MOL0     C57212  -0.397   8.488   5.230 -0.4550 -0.6413 -0.3614
  434MOL0     C57213  -0.483   8.571   5.141 -0.1060  0.8380 -0.2236
  434MOL0     O57214  -0.625   8.546   5.150 -0.7234  0.0698  0.4102
  434MOL0     C57215  -0.712   8.616   5.060  0.0682  0.2418  0.0696
  434MOL0     C57216  -0.840   8.543   5.054  0.1836  0.3384  0.4570
  434MOL0     C57217  -0.906   8.528   5.191 -0.1929 -0.2007  0.1146
  434MOL0     C57218  -1.057   8.496   5.173  0.4238  1.4625 -0.4676
  434MOL0     C57219  -1.136   8.624   5.177  0.2859  0.2053 -0.3520
  434MOL0     C57220  -1.212   8.723   5.167  0.6650  0.6893 -0.0387
  434MOL0     C57221  -0.414   8.653   5.050  1.1231  0.7238  0.3754
  434MOL0     C57222  -0.279   8.653   5.047 -1.2005 -0.0835  0.0887
  434MOL0     H57223   0.193   8.490   4.962 -1.5440 -0.5041  3.1230
  434MOL0     H57224   0.443   8.540   4.951  2.5266  1.3607  1.1147
  434MOL0     H57225   0.692   8.725   5.201 -1.0705  0.0886  1.0968
  434MOL0     H57226   0.574   8.848   5.228  0.3935 -0.5675  0.0826
  434MOL0     H57227   0.757   8.972   5.157  0.6258 -0.8074  0.4479
  434MOL0     H57228   0.639   8.973   5.032  0.3208 -0.0494  0.4715
  434MOL0     H57229   0.775   8.817   4.900  0.6795  1.4704 -0.9952
  434MOL0     H57230   0.879   8.766   5.039  1.5472  1.6735  0.5062
  434MOL0     H57231   0.857   9.020   4.888  0.7705 -0.3093  0.0759
  434MOL0     H57232   0.962   9.016   5.028 -0.6335  0.0626  1.0525
  434MOL0     H57233   1.103   8.869   4.915 -0.2564 -1.2554 -0.8905
  434MOL0     H57234   1.080   9.017   4.838  2.2516 -1.6980 -0.0247
  434MOL0     H57235   0.914   8.897   4.671 -0.8002  0.4452  0.6372
  434MOL0     H57236   0.947   8.742   4.763  3.8152 -1.9982  0.2938
  434MOL0     H57237   1.147   8.900   4.592  1.4435  1.8749  4.6760
  434MOL0     H57238   1.190   8.781   4.711  0.6678  2.5949  2.1931
  434MOL0     H57239   1.062   8.602   4.600  0.2404  2.2952  3.4606
  434MOL0     H57240   1.165   8.668   4.479 -1.5547 -0.6270 -2.3019
  434MOL0     H57241   0.841   8.557   4.476  1.0100 -1.9536 -1.3193
  434MOL0     H57242   0.768   8.499   4.223 -2.0644  0.1431  0.3844
  434MOL0     H57243   0.803   8.605   4.096  1.9652 -4.5907  0.6700
  434MOL0     H57244   0.599   8.717   4.109 -0.0850  1.8966  1.2150
  434MOL0     H57245   0.587   8.695   4.279  0.1318  1.0737 -0.4907
  434MOL0     H57246   0.551   8.457   4.086 -3.7368  0.1459 -0.7390
  434MOL0     H57247   0.556   8.457   4.264 -2.9368  0.0609  0.7452
  434MOL0     H57248   0.348   8.606   4.105 -0.8853  2.6506  3.1043
  434MOL0     H57249   0.355   8.602   4.281 -1.1090  2.2895 -1.0561
  434MOL0     H57250   0.157   8.240   4.225  0.8496  0.2351 -0.0196
  434MOL0     H57251  -0.104   8.243   4.199 -0.1356  0.5976 -1.7314
  434MOL0     H57252  -0.435   8.390   3.937 -0.3875 -0.3833 -0.7986
  434MOL0     H57253  -0.680   8.386   3.882 -1.7902  0.4897  0.6631
  434MOL0     H57254  -0.944   8.736   3.950 -0.3194 -0.5869 -1.2097
  434MOL0     H57255  -0.972   8.606   4.065 -3.5242  0.4423  0.5399
  434MOL0     H57256  -1.068   8.583   3.775 -0.6600 -1.1218  0.0594
  434MOL0     H57257  -1.163   8.652   3.906 -0.8440 -0.2272  2.8186
  434MOL0     H57258  -1.102   8.407   4.025 -1.6492  0.7030  0.3443
  434MOL0     H57259  -1.053   8.371   3.860 -0.6316  1.0417  0.5128
  434MOL0     H57260  -1.274   8.296   3.918 -1.6284  0.6026 -1.4701
  434MOL0     H57261  -1.329   8.457   3.928  0.8872 -0.1614  0.1290
  434MOL0     H57262  -1.255   8.488   3.689 -2.4535  1.9889  2.6949
  434MOL0     H57263  -1.393   8.372   3.704 -0.1819  3.1256  0.0292
  434MOL0     H57264  -1.100   8.293   3.648 -0.2744  0.2506  1.4184
  434MOL0     H57265  -1.230   8.311   3.528 -0.3124  2.2455  0.1452
  434MOL0     H57266  -1.184   8.104   3.737 -1.0356 -1.9543 -0.4785
  434MOL0     H57267  -1.355   8.145   3.721  0.8866 -0.5785  3.3040
  434MOL0     H57268  -1.267   7.950   3.575  0.3643  0.5511  1.6764
  434MOL0     H57269  -1.169   8.075   3.482 -1.2091  1.5824 -1.1198
  434MOL0     H57270  -0.745   8.751   4.078 -2.6065 -1.8869  0.2125
  434MOL0     H57271  -0.519   8.745   4.164  0.2871 -2.2345  1.6202
  434MOL0     H57272  -0.087   8.668   4.123 -4.2983 -2.2248  0.0649
  434MOL0     H57273   0.163   8.660   4.150 -1.8409  0.9839 -3.2306
  434MOL0     H57274   0.373   8.915   5.131  1.2844 -2.2831  1.8070
  434MOL0     H57275   0.130   8.879   5.124  1.1761 -0.2329  2.5960
  434MOL0     H57276  -0.204   8.446   5.307 -0.3003  0.3892 -0.3591
  434MOL0     H57277  -0.449   8.426   5.302  1.9196 -3.4132 -0.8416
  434MOL0     H57278  -0.674   8.628   4.958 -3.4201  1.2432 -1.2312
  434MOL0     H57279  -0.727   8.715   5.104  2.1329  0.6426 -0.0359
  434MOL0     H57280  -0.900   8.617   4.999  0.2737 -0.1969 -0.3859
  434MOL0     H57281  -0.839   8.448   5.001 -2.0435  0.0829  0.7782
  434MOL0     H57282  -0.901   8.617   5.254 -0.1439  0.1890 -0.4346
  434MOL0     H57283  -0.871   8.442   5.250 -2.7564  0.1047  2.2664
  434MOL0     H57284  -1.066   8.443   5.078 -2.0371  0.0249  0.4924
  434MOL0     H57285  -1.087   8.439   5.261  0.0970 -1.4083 -2.3314
  434MOL0     H57286  -1.290   8.794   5.153 -0.3930 -0.9383 -3.5520
  434MOL0     H57287  -0.475   8.709   4.980 -0.6159 -2.4689 -0.8766
  434MOL0     H57288  -0.227   8.710   4.971 -2.0524  1.6276  0.7266
  435MOL0     O57289   1.493   8.054   9.422 -1.0603 -0.7279  0.7053
  435MOL0     C57290   1.495   8.029   9.306 -0.4880 -0.5551  0.1343
  435MOL0     O57291   1.388   7.996   9.224  0.2355  0.0179 -1.1302
  435MOL0     C57292   1.263   7.982   9.269  0.2218 -0.1649 -0.6620
  435MOL0     C57293   1.204   8.089   9.324 -0.2155 -0.3054  0.4246
  435MOL0     C57294   1.074   8.074   9.367 -0.4100  0.9115  0.0276
  435MOL0     C57295   1.003   7.943   9.362 -0.2835  0.5494  0.1291
  435MOL0     O57296   0.874   7.917   9.404  0.0346 -0.4438 -0.1364
  435MOL0     C57297   0.806   8.025   9.475 -0.3357  0.8878 -0.2719
  435MOL0     C57298   0.656   8.005   9.465 -0.7209  0.2725  0.1741
  435MOL0     C57299   0.602   7.894   9.563  0.3071 -0.4358  0.1917
  435MOL0     C57300   0.450   7.868   9.547 -0.0026 -0.1374 -0.5907
  435MOL0     C57301   0.412   7.795   9.418 -0.1781 -0.6006 -0.8103
  435MOL0     C57302   0.267   7.734   9.443 -0.0733 -0.4420  0.2288
  435MOL0     C57303   0.162   7.845   9.449  0.7201  0.0508  0.0824
  435MOL0     C57304   0.019   7.800   9.462  1.0473 -0.2521 -0.3440
  435MOL0     N57305  -0.069   7.919   9.457 -0.2440  0.9845  0.1872
  435MOL0     C57306  -0.091   7.994   9.344  0.0295 -0.3605  0.2663
  435MOL0     C57307  -0.197   8.084   9.368  0.3213 -0.1920  0.0990
  435MOL0     C57308  -0.268   8.185   9.280  0.6123 -0.1513  0.6578
  435MOL0     C57309  -0.413   8.126   9.235  0.0244  0.5929 -0.7384
  435MOL0     C57310  -0.491   8.227   9.153  0.1434 -0.2532 -0.6938
  435MOL0     C57311  -0.545   8.336   9.239 -0.3835 -0.0181  0.4184
  435MOL0     O57312  -0.631   8.423   9.165 -0.1869 -0.2305 -0.2506
  435MOL0     C57313  -0.763   8.417   9.203  0.2650  0.1425  0.1675
  435MOL0     C57314  -0.864   8.406   9.105  0.1191 -0.4244 -1.1943
  435MOL0     C57315  -0.995   8.386   9.130 -0.0684 -0.1188  0.2211
  435MOL0     C57316  -1.036   8.385   9.269 -0.9284  0.6139 -1.6232
  435MOL0     C57317  -1.174   8.372   9.309  0.5421 -0.4665 -0.8479
  435MOL0     O57318  -1.262   8.378   9.205  0.1189  0.3001  0.0802
  435MOL0     C57319  -1.396   8.379   9.214  0.5022 -0.0926 -0.2557
  435MOL0     C57320  -1.475   8.355   9.324 -0.0970 -0.4421 -0.6966
  435MOL0     C57321  -1.613   8.341   9.312  0.9433  0.6715  0.3455
  435MOL0     C57322  -1.678   8.372   9.187 -0.0863 -0.8331  0.0627
  435MOL0     O57323  -1.815   8.350   9.163 -0.0616 -0.8595 -0.5224
  435MOL0     C57324  -1.905   8.303   9.269  0.7303  0.0927 -0.5712
  435MOL0     C57325  -2.016   8.395   9.255 -0.0155 -0.3320  0.3121
  435MOL0     C57326  -2.121   8.382   9.368  0.2653  0.6235  0.0077
  435MOL0     C57327  -2.220   8.489   9.370  0.3677 -0.1881 -0.3822
  435MOL0     C57328  -2.314   8.491   9.492  0.2768 -0.7123 -0.3504
  435MOL0     C57329  -2.389   8.363   9.518  0.5339 -0.1210  0.0183
  435MOL0     C57330  -2.510   8.388   9.613  0.6699  0.5378  1.4640
  435MOL0     C57331  -2.639   8.309   9.582 -1.0513  0.2531 -0.8606
  435MOL0    Cl57332  -2.714   8.388   9.448 -0.2641 -0.3409 -0.2956
  435MOL0     C57333  -1.599   8.416   9.082  0.1524  0.9877 -0.0937
  435MOL0     C57334  -1.460   8.420   9.100 -0.1316 -0.3858 -0.7397
  435MOL0     O57335  -1.206   8.319   9.418 -0.7903  0.2681  0.4178
  435MOL0     C57336  -0.942   8.395   9.371  0.4330 -0.0839 -0.1000
  435MOL0     C57337  -0.807   8.415   9.342 -0.5293  1.0671 -0.3456
  435MOL0     N57338  -0.219   8.076   9.500 -0.0856  0.2960 -0.3152
  435MOL0     N57339  -0.148   7.982   9.560 -0.4027 -0.6923 -0.4165
  435MOL0     C57340   1.064   7.842   9.290  0.5910  0.8867  0.3338
  435MOL0     C57341   1.198   7.858   9.255 -0.4494  0.1373  0.5753
  435MOL0     C57342   1.628   8.034   9.245 -0.6540 -0.8771 -0.2038
  435MOL0     C57343   1.653   7.989   9.115  0.9415 -0.3983  0.6125
  435MOL0     C57344   1.773   8.008   9.055  0.0224  0.8718  0.7120
  435MOL0     C57345   1.884   8.050   9.118 -0.1997 -0.5660 -0.4293
  435MOL0     O57346   2.010   8.064   9.058 -0.0493 -0.0523  0.0607
  435MOL0     C57347   2.041   7.973   8.947 -0.1564 -0.3078  0.4343
  435MOL0     C57348   2.181   8.006   8.873  0.4343  0.8653  0.1354
  435MOL0     C57349   2.197   8.163   8.861  0.1653  0.6842 -0.1237
  435MOL0     C57350   2.273   8.222   8.978  0.0735 -0.4042  0.2183
  435MOL0     C57351   2.415   8.191   8.977 -0.2825  0.1295 -0.0023
  435MOL0     C57352   2.534   8.182   8.989 -0.3530  0.3132 -0.4647
  435MOL0     C57353   1.866   8.104   9.245  0.0832  0.0688  0.5780
  435MOL0     C57354   1.740   8.102   9.307  0.1507 -0.7716  0.0377
  435MOL0     H57355   1.247   8.187   9.342 -0.0021 -0.3519  0.1735
  435MOL0     H57356   1.032   8.157   9.422  1.2858  2.6568 -1.1900
  435MOL0     H57357   0.824   8.125   9.435 -2.4321  1.7060  0.7002
  435MOL0     H57358   0.834   8.019   9.580 -3.1272  0.2376  0.5417
  435MOL0     H57359   0.647   7.987   9.357  0.9407 -1.4275  0.2626
  435MOL0     H57360   0.611   8.102   9.487 -0.5044  0.2936  0.5430
  435MOL0     H57361   0.621   7.931   9.664 -2.1853 -0.8946  0.9040
  435MOL0     H57362   0.665   7.805   9.553  4.8364  2.4703 -0.0607
  435MOL0     H57363   0.418   7.805   9.630 -2.8165 -1.0493 -2.2428
  435MOL0     H57364   0.390   7.960   9.545 -0.9787 -0.7830 -1.7185
  435MOL0     H57365   0.482   7.713   9.400 -0.6470 -1.4168  0.8628
  435MOL0     H57366   0.405   7.860   9.330  1.9951  2.2910  0.9483
  435MOL0     H57367   0.255   7.662   9.525 -2.1667 -0.3060  0.0955
  435MOL0     H57368   0.242   7.677   9.354  1.8672 -0.8406 -0.1162
  435MOL0     H57369   0.181   7.910   9.535  0.5048  0.1134  0.0849
  435MOL0     H57370   0.178   7.908   9.360 -0.4467 -2.6812 -2.2258
  435MOL0     H57371   0.012   7.745   9.556  0.0713  1.4399  0.6347
  435MOL0     H57372  -0.015   7.726   9.389  1.4006 -0.4519 -0.3046
  435MOL0     H57373  -0.039   7.987   9.249  0.6763 -0.9678  0.6533
  435MOL0     H57374  -0.215   8.194   9.185 -0.7833 -2.6596 -0.4714
  435MOL0     H57375  -0.294   8.274   9.337 -3.6041 -1.9288  1.9675
  435MOL0     H57376  -0.456   8.095   9.331  3.4804  1.0697  1.1203
  435MOL0     H57377  -0.408   8.036   9.173  1.0720  0.7696 -0.9219
  435MOL0     H57378  -0.435   8.284   9.079 -0.2217  0.1520 -0.6629
  435MOL0     H57379  -0.573   8.176   9.103 -1.9886 -0.2190  2.4490
  435MOL0     H57380  -0.459   8.388   9.281 -2.2825  1.8945  2.1565
  435MOL0     H57381  -0.592   8.283   9.321  0.7665 -3.5663 -1.0287
  435MOL0     H57382  -0.830   8.403   9.002  1.4696  1.2192 -0.8535
  435MOL0     H57383  -1.060   8.370   9.044  2.9981 -2.4626 -1.9131
  435MOL0     H57384  -1.435   8.327   9.421 -1.5882 -1.0117 -0.2175
  435MOL0     H57385  -1.664   8.309   9.403  0.6822  2.2203  0.7694
  435MOL0     H57386  -1.870   8.298   9.372  0.7524 -1.4990 -0.6302
  435MOL0     H57387  -1.942   8.202   9.248  0.1446 -0.3748  2.3093
  435MOL0     H57388  -2.062   8.380   9.157  1.9756  2.3414 -1.1640
  435MOL0     H57389  -1.988   8.501   9.254 -1.9988  0.3824  3.7485
  435MOL0     H57390  -2.074   8.391   9.466 -2.0728 -1.0733  1.3829
  435MOL0     H57391  -2.163   8.282   9.353 -0.2416  0.9361 -0.7159
  435MOL0     H57392  -2.173   8.588   9.367 -2.7061  1.4792  1.3412
  435MOL0     H57393  -2.285   8.497   9.282  0.7352  0.1442 -0.6269
  435MOL0     H57394  -2.385   8.567   9.459  2.0765  2.3393  2.1199
  435MOL0     H57395  -2.252   8.514   9.579  1.8242 -3.4687 -0.6187
  435MOL0     H57396  -2.320   8.289   9.560  0.7179 -0.2810 -0.5543
  435MOL0     H57397  -2.419   8.331   9.418  1.2703 -1.0426  0.0687
  435MOL0     H57398  -2.474   8.361   9.713  0.5304  0.2044  1.4277
  435MOL0     H57399  -2.551   8.489   9.614  1.1766  0.7554  3.1526
  435MOL0     H57400  -2.698   8.303   9.674  1.0340  1.2159  0.6231
  435MOL0     H57401  -2.609   8.209   9.551  0.0766 -0.3239  1.7935
  435MOL0     H57402  -1.647   8.447   8.990 -1.6543 -0.0064  0.4608
  435MOL0     H57403  -1.402   8.449   9.014 -0.1730  1.1041 -0.2833
  435MOL0     H57404  -0.966   8.389   9.477  2.7755 -0.0099  0.4834
  435MOL0     H57405  -0.729   8.426   9.417 -1.9771  1.7477  1.1262
  435MOL0     H57406   1.022   7.748   9.257  2.7454 -0.4947  1.2769
  435MOL0     H57407   1.259   7.782   9.207  1.9790  3.1059 -1.5009
  435MOL0     H57408   1.566   7.946   9.068  0.3336  1.6944 -0.3035
  435MOL0     H57409   1.784   7.967   8.955 -0.0978 -0.5257  1.2609
  435MOL0     H57410   1.969   7.989   8.866  1.6156  2.9104 -0.6981
  435MOL0     H57411   2.048   7.866   8.966  0.6671 -1.1381 -3.6962
  435MOL0     H57412   2.275   7.970   8.916  1.9793  3.5496 -0.7405
  435MOL0     H57413   2.162   7.944   8.785 -1.3681 -0.1299  1.1598
  435MOL0     H57414   2.097   8.207   8.857  0.1185  0.4884 -1.8662
  435MOL0     H57415   2.250   8.193   8.771 -1.3933  2.7051 -0.4390
  435MOL0     H57416   2.246   8.327   8.991 -0.2979 -0.4495 -0.1381
  435MOL0     H57417   2.227   8.171   9.064 -0.6940 -1.2866 -0.6873
  435MOL0     H57418   2.639   8.174   9.007  0.1897  2.0882 -2.5223
  435MOL0     H57419   1.941   8.165   9.293 -0.0071  2.5421 -2.1376
  435MOL0     H57420   1.714   8.158   9.397 -0.3513 -1.4237  0.3055
  436MOL0     O57421   9.704   0.773   0.569 -0.1814  0.1325 -0.4898
  436MOL0     C57422   9.686   0.668   0.511 -0.4876  0.0978  1.0113
  436MOL0     O57423   9.777   0.560   0.488  0.2679  0.1861 -0.5950
  436MOL0     C57424   9.909   0.589   0.511 -0.1356  0.5062 -0.3062
  436MOL0     C57425   9.981   0.708   0.490 -0.2635  0.3608 -1.0630
  436MOL0     C57426  10.117   0.706   0.501 -0.4770 -0.3488 -0.2337
  436MOL0     C57427  10.192   0.587   0.534 -1.0549  0.4741 -0.3194
  436MOL0     O57428  10.328   0.581   0.562  0.5319 -0.3431  0.6590
  436MOL0     C57429  10.411   0.691   0.530  0.6391 -0.3462  0.6368
  436MOL0     C57430  10.453   0.718   0.390 -0.6383  0.9893  0.3133
  436MOL0     C57431  10.535   0.607   0.320 -0.0152  0.0910 -0.7245
  436MOL0     C57432  10.645   0.542   0.413 -0.6477 -0.8055 -0.0107
  436MOL0     C57433  10.721   0.431   0.326 -0.5873  0.4138 -0.5319
  436MOL0     C57434  10.863   0.406   0.378  0.3695 -0.3098  0.2713
  436MOL0     C57435  10.923   0.286   0.304  0.4583  0.2761  0.5327
  436MOL0     C57436  11.068   0.266   0.349 -0.5444  0.8806 -0.3666
  436MOL0     N57437  11.176   0.365   0.324 -0.1714  0.0028 -0.4825
  436MOL0     C57438  11.192   0.434   0.210 -0.5575  0.3634  0.1935
  436MOL0     C57439  11.287   0.528   0.237  0.8281  0.4789 -0.6043
  436MOL0     C57440  11.335   0.633   0.148  1.4426 -0.1708  0.8385
  436MOL0     C57441  11.219   0.733   0.123 -0.8298 -0.3077 -0.0648
  436MOL0     C57442  11.177   0.803   0.251 -0.1920 -0.6203 -0.1307
  436MOL0     C57443  11.124   0.950   0.221 -0.9480  0.3837 -0.7742
  436MOL0     O57444  10.989   0.948   0.163 -0.4044 -0.7587  0.0508
  436MOL0     C57445  10.892   1.006   0.244  0.8286 -0.6607 -0.5729
  436MOL0     C57446  10.845   1.135   0.208 -0.3236  0.0606 -0.1793
  436MOL0     C57447  10.731   1.183   0.270  0.7605  1.0215 -0.1409
  436MOL0     C57448  10.669   1.109   0.372  0.3964 -0.7553  0.5036
  436MOL0     C57449  10.541   1.163   0.432 -0.1418 -0.2125 -0.7473
  436MOL0     O57450  10.493   1.108   0.547  0.0363  0.3727  0.2837
  436MOL0     C57451  10.352   1.120   0.567 -0.3694  0.2236 -0.7395
  436MOL0     C57452  10.243   1.142   0.475  0.3076 -0.3053  0.1788
  436MOL0     C57453  10.108   1.126   0.522  0.3243  0.8878 -0.3695
  436MOL0     C57454  10.087   1.093   0.652 -0.3164 -0.5674 -0.0875
  436MOL0     O57455   9.969   1.098   0.715 -0.8000  0.2302  0.0583
  436MOL0     C57456   9.850   1.087   0.627 -0.4204 -0.5134  0.7979
  436MOL0     C57457   9.736   1.035   0.723 -0.0829 -0.5965 -0.1127
  436MOL0     C57458   9.701   1.131   0.836 -0.3201 -0.5682  0.0107
  436MOL0     C57459   9.583   1.081   0.920 -0.0863  0.4216  0.8847
  436MOL0     C57460   9.535   1.187   1.022  0.1928 -0.4952 -1.5125
  436MOL0     C57461   9.396   1.153   1.082  0.6520 -0.7782  0.1366
  436MOL0     C57462   9.357   1.268   1.179  0.6212  0.5818  0.0422
  436MOL0     C57463   9.203   1.264   1.183  1.1827  0.4244  0.7797
  436MOL0    Cl57464   9.135   1.328   1.023 -0.2024  0.4372 -0.3625
  436MOL0     C57465  10.187   1.073   0.741  0.5075 -0.9437 -1.4437
  436MOL0     C57466  10.313   1.086   0.699 -0.6571 -0.0869 -0.8138
  436MOL0     O57467  10.483   1.244   0.370 -0.0755  0.0081  0.3491
  436MOL0     C57468  10.714   0.981   0.408  0.8274  0.3330 -0.1263
  436MOL0     C57469  10.821   0.927   0.343  0.0578  0.7702  0.1668
  436MOL0     N57470  11.331   0.503   0.363  0.3960 -0.6512 -0.3999
  436MOL0     N57471  11.267   0.403   0.416 -0.1452 -0.2248 -1.1125
  436MOL0     C57472  10.114   0.472   0.563  0.3845 -0.0304  0.2183
  436MOL0     C57473   9.970   0.468   0.548 -0.2966  0.2326  0.2543
  436MOL0     C57474   9.551   0.659   0.467  0.7902 -0.0858  0.0752
  436MOL0     C57475   9.516   0.555   0.378 -0.6459 -0.2725  0.6927
  436MOL0     C57476   9.388   0.543   0.332  0.5222  0.0250 -0.5523
  436MOL0     C57477   9.281   0.619   0.387 -0.2455 -0.5259  0.1048
  436MOL0     O57478   9.142   0.609   0.371  0.1458  0.2168  0.5964
  436MOL0     C57479   9.097   0.536   0.251  0.3527 -0.6281 -0.5304
  436MOL0     C57480   8.943   0.547   0.241  0.2693  0.0198  0.5333
  436MOL0     C57481   8.891   0.684   0.195  0.0537 -0.4636 -0.8389
  436MOL0     C57482   8.950   0.815   0.248 -0.5581  0.3112  0.1603
  436MOL0     C57483   9.055   0.847   0.153  0.0922  0.0771  0.2532
  436MOL0     C57484   9.131   0.876   0.064 -0.6030 -0.6557 -0.0039
  436MOL0     C57485   9.315   0.710   0.482  0.2752  0.4405  0.4480
  436MOL0     C57486   9.444   0.738   0.523  0.5590 -0.2539 -0.1067
  436MOL0     H57487   9.930   0.800   0.464 -0.6806  0.5598  0.3773
  436MOL0     H57488  10.172   0.799   0.487 -0.6465 -0.1961  0.1010
  436MOL0     H57489  10.504   0.678   0.586  0.9221 -0.3310  0.1737
  436MOL0     H57490  10.363   0.777   0.576  1.3746  0.2147  0.3727
  436MOL0     H57491  10.511   0.811   0.384 -2.2199  2.0282  0.3544
  436MOL0     H57492  10.362   0.729   0.331  0.2190 -1.6399 -1.6757
  436MOL0     H57493  10.587   0.644   0.231  1.3483 -1.8514 -0.7979
  436MOL0     H57494  10.461   0.533   0.291  0.8525 -1.3796  0.6603
  436MOL0     H57495  10.716   0.618   0.445  1.9182 -1.4206 -3.7158
  436MOL0     H57496  10.603   0.485   0.497  1.3457  1.7966  2.9888
  436MOL0     H57497  10.725   0.472   0.225  0.8968  1.6987  0.0120
  436MOL0     H57498  10.660   0.340   0.331 -1.1769  0.8807  1.4276
  436MOL0     H57499  10.862   0.385   0.485 -4.7667  0.9939  0.7206
  436MOL0     H57500  10.926   0.495   0.367  0.0605  0.1600  1.9772
  436MOL0     H57501  10.865   0.199   0.335  0.2558  0.3373  0.3290
  436MOL0     H57502  10.920   0.301   0.196  2.8371 -1.3749  0.1754
  436MOL0     H57503  11.098   0.174   0.298  2.6731  1.5603  0.0333
  436MOL0     H57504  11.071   0.233   0.453  0.3772 -1.8084 -1.1565
  436MOL0     H57505  11.145   0.406   0.117 -0.3237  0.0042  0.1826
  436MOL0     H57506  11.347   0.599   0.044 -1.6987 -1.0434  0.6722
  436MOL0     H57507  11.419   0.683   0.196 -0.2535  0.0965  3.7033
  436MOL0     H57508  11.127   0.692   0.081 -1.0257 -1.5611  1.4839
  436MOL0     H57509  11.262   0.800   0.048 -1.6302 -1.6301 -1.7718
  436MOL0     H57510  11.099   0.749   0.306  0.3315 -0.7635  0.4800
  436MOL0     H57511  11.267   0.815   0.312  2.8327 -1.2253 -4.1295
  436MOL0     H57512  11.187   1.002   0.149 -1.0095  3.4007  1.1651
  436MOL0     H57513  11.121   1.004   0.316 -0.8097  0.5584 -0.8710
  436MOL0     H57514  10.892   1.201   0.136 -0.4109  0.1390 -0.1640
  436MOL0     H57515  10.689   1.280   0.245 -1.7809 -0.3119 -1.3971
  436MOL0     H57516  10.261   1.181   0.375 -0.0073  2.9507  1.2653
  436MOL0     H57517  10.032   1.148   0.448 -0.3816 -1.8971 -0.5629
  436MOL0     H57518   9.867   1.009   0.552  1.4883  1.1838 -0.6345
  436MOL0     H57519   9.832   1.180   0.573  0.0660 -0.2054  1.1583
  436MOL0     H57520   9.764   0.937   0.762  2.6259  0.5243  0.9500
  436MOL0     H57521   9.645   1.018   0.664  0.1880 -3.4609  0.1439
  436MOL0     H57522   9.692   1.234   0.799  0.8108  0.7301  3.0344
  436MOL0     H57523   9.784   1.133   0.908 -1.7661  0.6391  1.7152
  436MOL0     H57524   9.503   1.063   0.847  1.5844  0.5012 -1.0512
  436MOL0     H57525   9.609   0.992   0.977  1.7116 -1.3080 -2.3771
  436MOL0     H57526   9.537   1.290   0.985 -0.5495  0.8936  1.9058
  436MOL0     H57527   9.609   1.185   1.103  0.5609  2.4652 -1.6550
  436MOL0     H57528   9.396   1.061   1.142  1.8479 -0.1207  1.1822
  436MOL0     H57529   9.332   1.145   0.993 -1.2210  1.1774  1.2152
  436MOL0     H57530   9.403   1.245   1.275  1.2590 -2.7163 -0.9452
  436MOL0     H57531   9.384   1.365   1.137 -3.9565  1.6979 -0.9226
  436MOL0     H57532   9.167   1.330   1.263  5.5288  2.9654  0.9677
  436MOL0     H57533   9.176   1.160   1.205  0.5695  1.0055  3.1509
  436MOL0     H57534  10.166   1.050   0.845  3.5087 -2.4111 -1.0595
  436MOL0     H57535  10.388   1.072   0.776  0.3665 -1.2628 -1.9602
  436MOL0     H57536  10.661   0.920   0.480  1.1388 -1.2341 -1.1754
  436MOL0     H57537  10.849   0.822   0.348  1.6835  1.1269 -0.8174
  436MOL0     H57538  10.161   0.386   0.609  0.5841 -0.0992 -0.1098
  436MOL0     H57539   9.898   0.389   0.570 -5.1417  2.5479 -4.7315
  436MOL0     H57540   9.583   0.483   0.331 -1.4172 -1.0544  0.7775
  436MOL0     H57541   9.351   0.465   0.267 -2.2571  1.0091 -0.2851
  436MOL0     H57542   9.106   0.428   0.265 -0.4399 -1.1021 -3.1563
  436MOL0     H57543   9.139   0.566   0.154  0.1481  1.5252  0.0062
  436MOL0     H57544   8.913   0.467   0.173  0.3196  0.1351  0.3731
  436MOL0     H57545   8.896   0.516   0.335 -1.5136 -0.2408 -0.4008
  436MOL0     H57546   8.789   0.699   0.231  0.9195 -0.1836  1.6517
  436MOL0     H57547   8.881   0.673   0.086 -2.9015 -0.7703 -0.6055
  436MOL0     H57548   8.873   0.893   0.252  0.2807  1.1175  0.9805
  436MOL0     H57549   8.979   0.804   0.352  0.1333 -0.1417 -0.0737
  436MOL0     H57550   9.202   0.888  -0.016 -2.2723  0.2481 -1.4404
  436MOL0     H57551   9.235   0.770   0.526 -1.6870 -1.6701 -0.0277
  436MOL0     H57552   9.455   0.827   0.585 -0.5945  0.2892 -0.6440
  437MOL0     O57553   7.218  10.694   8.202  0.4963 -0.1802  0.6309
  437MOL0     C57554   7.215  10.627   8.306  0.1044 -0.3946  0.0540
  437MOL0     O57555   7.120  10.540   8.342 -0.5317 -0.1267  0.4254
  437MOL0     C57556   6.996  10.537   8.280 -0.5521  0.2057 -0.1274
  437MOL0     C57557   6.937  10.416   8.257  0.9553 -0.4649 -0.0411
  437MOL0     C57558   6.816  10.416   8.186 -0.9363 -0.0254  0.4983
  437MOL0     C57559   6.754  10.531   8.140  0.3005  0.4915 -0.0285
  437MOL0     O57560   6.629  10.526   8.079  0.1863  0.4507  0.0036
  437MOL0     C57561   6.539  10.639   8.094  0.1713 -0.1492  0.5107
  437MOL0     C57562   6.404  10.615   8.024 -0.3415 -0.1852  0.1892
  437MOL0     C57563   6.297  10.673   8.101  0.0849 -0.2378 -0.6017
  437MOL0     C57564   6.155  10.642   8.049 -0.4331  0.7206 -0.9790
  437MOL0     C57565   6.050  10.675   8.151 -0.3686 -0.0830  0.4961
  437MOL0     C57566   5.906  10.631   8.102  0.0858  0.6498  0.2852
  437MOL0     C57567   5.793  10.645   8.201 -0.4953  0.2897 -0.5394
  437MOL0     C57568   5.762  10.795   8.228  0.7243 -0.1535  0.9034
  437MOL0     N57569   5.655  10.811   8.335  0.1035  0.8099 -0.3360
  437MOL0     C57570   5.686  10.825   8.460  0.2027  0.1338  0.1060
  437MOL0     C57571   5.562  10.830   8.518 -0.4747 -1.4208 -0.2450
  437MOL0     C57572   5.555  10.868   8.664  0.2775  0.3475  0.5581
  437MOL0     C57573   5.415  10.821   8.715 -0.3922  0.2543  0.1128
  437MOL0     C57574   5.406  10.876   8.861  0.5418 -0.0377  0.8889
  437MOL0     C57575   5.260  10.852   8.906  0.2563 -0.5392  0.3695
  437MOL0     O57576   5.153  10.924   8.846 -0.4898 -0.2226 -0.2936
  437MOL0     C57577   5.025  10.943   8.884  0.2781 -0.2396  0.2164
  437MOL0     C57578   4.928  11.004   8.808 -0.1866 -0.3854  0.1660
  437MOL0     C57579   4.791  11.004   8.850 -0.3156  0.0954  0.1238
  437MOL0     C57580   4.756  10.956   8.979 -0.2946 -0.1269  0.0828
  437MOL0     C57581   4.621  10.966   9.029  0.3281 -0.2907  0.5920
  437MOL0     O57582   4.516  11.010   8.941  0.1789 -0.3906  0.6588
  437MOL0     C57583   4.391  11.040   8.975 -0.6120 -0.3181  0.5730
  437MOL0     C57584   4.315  10.992   9.089  0.1708  0.2154  0.0696
  437MOL0     C57585   4.180  11.045   9.109 -0.2015  0.1471  0.1943
  437MOL0     C57586   4.124  11.141   9.018 -0.2913 -0.1541 -0.1611
  437MOL0     O57587   4.002  11.188   9.034  0.3843  0.3281 -0.3922
  437MOL0     C57588   3.910  11.176   8.924 -0.0383  0.1516 -0.0109
  437MOL0     C57589   3.773  11.206   8.981 -0.3409 -0.9179 -0.3062
  437MOL0     C57590   3.762  11.345   9.054 -0.2775  0.6890  0.5263
  437MOL0     C57591   3.635  11.365   9.139 -0.0213 -0.8638  0.1195
  437MOL0     C57592   3.523  11.405   9.045 -0.3813 -0.7662 -0.9414
  437MOL0     C57593   3.397  11.409   9.136  0.0278  0.8959 -0.1771
  437MOL0     C57594   3.269  11.452   9.073  0.0025 -0.6960  0.3721
  437MOL0     C57595   3.159  11.481   9.174 -0.6274 -0.0012  0.9276
  437MOL0    Cl57596   3.023  11.553   9.090  0.0429 -0.8842 -0.4137
  437MOL0     C57597   4.203  11.187   8.920  0.3362 -0.7346 -0.4996
  437MOL0     C57598   4.328  11.136   8.898 -0.6039 -0.4703  0.6993
  437MOL0     O57599   4.600  10.943   9.148 -0.1768 -0.1374 -0.3851
  437MOL0     C57600   4.853  10.898   9.055  0.2664 -0.8661 -0.2050
  437MOL0     C57601   4.982  10.891   9.009  0.2333 -0.1741 -0.3270
  437MOL0     N57602   5.465  10.822   8.425 -0.1562  0.0011  0.3623
  437MOL0     N57603   5.521  10.802   8.311  0.3200  0.4823  0.1006
  437MOL0     C57604   6.820  10.650   8.167 -0.7462  0.4325  1.0244
  437MOL0     C57605   6.934  10.653   8.239  0.0953 -0.1784 -0.8646
  437MOL0     C57606   7.338  10.634   8.388  0.3566 -0.3786 -0.1851
  437MOL0     C57607   7.445  10.724   8.357  0.6220  0.2961 -0.2144
  437MOL0     C57608   7.554  10.750   8.437  0.3867 -0.6137 -0.3867
  437MOL0     C57609   7.565  10.691   8.561  1.0221 -1.0102  0.3968
  437MOL0     O57610   7.664  10.716   8.651  0.3283  0.4927  0.0495
  437MOL0     C57611   7.787  10.783   8.614  0.0622  1.0986 -0.9629
  437MOL0     C57612   7.841  10.857   8.736 -0.5006  0.5050  0.5901
  437MOL0     C57613   7.989  10.881   8.737 -0.0064 -0.1784 -0.7602
  437MOL0     C57614   8.014  10.990   8.634  1.3564  0.2565  0.0649
  437MOL0     C57615   8.149  11.025   8.647 -0.9865  0.1319 -0.0411
  437MOL0     C57616   8.265  11.063   8.659  0.2432 -0.6082  0.4254
  437MOL0     C57617   7.471  10.594   8.592 -0.7008  0.2154 -0.0987
  437MOL0     C57618   7.355  10.573   8.512 -0.5770  0.1553  0.0254
  437MOL0     H57619   6.978  10.322   8.292 -0.1460 -0.4835  1.2467
  437MOL0     H57620   6.757  10.325   8.176  2.7319 -2.4992 -0.9334
  437MOL0     H57621   6.580  10.732   8.054 -2.3168  1.3772  1.2927
  437MOL0     H57622   6.536  10.655   8.202  3.8764  0.2965  0.6842
  437MOL0     H57623   6.392  10.506   8.020 -0.0602 -0.2610  1.3274
  437MOL0     H57624   6.409  10.663   7.925 -0.5011  2.4227  1.3746
  437MOL0     H57625   6.307  10.782   8.110  1.6672 -0.4172  0.2257
  437MOL0     H57626   6.305  10.632   8.202 -1.7784  1.9703  0.5367
  437MOL0     H57627   6.125  10.694   7.958 -0.6361 -0.2323 -1.4732
  437MOL0     H57628   6.152  10.534   8.032  0.6334  0.6416 -0.7617
  437MOL0     H57629   6.053  10.781   8.175 -0.2874  0.7491 -2.7080
  437MOL0     H57630   6.077  10.629   8.247  5.1165  2.8374  0.7635
  437MOL0     H57631   5.914  10.529   8.062  0.4649  0.7112  0.2010
  437MOL0     H57632   5.877  10.706   8.029 -1.6256  1.1787  1.4640
  437MOL0     H57633   5.708  10.593   8.155 -0.5311  1.0879 -1.3846
  437MOL0     H57634   5.806  10.605   8.302 -1.1648  0.8957 -0.2043
  437MOL0     H57635   5.718  10.830   8.135  2.0221  1.7050  0.9580
  437MOL0     H57636   5.854  10.849   8.250  1.9018 -2.4521  2.1117
  437MOL0     H57637   5.782  10.836   8.509  0.3297 -1.3718  0.2640
  437MOL0     H57638   5.552  10.976   8.682 -0.3943  0.5575 -0.6542
  437MOL0     H57639   5.639  10.834   8.725  1.2078  1.1440 -0.2333
  437MOL0     H57640   5.411  10.712   8.719  0.3940  0.2485  0.7784
  437MOL0     H57641   5.338  10.850   8.643 -1.6673 -3.1088 -0.0424
  437MOL0     H57642   5.475  10.825   8.929  2.3742  1.7113  0.4083
  437MOL0     H57643   5.426  10.983   8.867 -0.5920  0.3715 -1.3571
  437MOL0     H57644   5.243  10.866   9.013 -1.2254  1.8419 -0.1059
  437MOL0     H57645   5.240  10.745   8.894 -1.6413  0.0085 -2.3584
  437MOL0     H57646   4.944  11.041   8.707 -2.4421  0.5814  0.0899
  437MOL0     H57647   4.710  11.038   8.786 -0.3216 -0.6832 -0.2972
  437MOL0     H57648   4.354  10.918   9.158 -1.6403  1.1999  2.2646
  437MOL0     H57649   4.116  11.014   9.190  0.4187  0.5472  0.8494
  437MOL0     H57650   3.911  11.077   8.878 -1.4935  0.3940 -0.6180
  437MOL0     H57651   3.940  11.242   8.842  2.4476  1.0963  1.5397
  437MOL0     H57652   3.763  11.137   9.066 -4.7454  2.3359  2.2614
  437MOL0     H57653   3.692  11.193   8.908  1.4987 -0.9265 -2.4269
  437MOL0     H57654   3.760  11.421   8.976  0.0842  1.3598  1.1514
  437MOL0     H57655   3.843  11.357   9.127  0.2949 -1.4531  0.3145
  437MOL0     H57656   3.619  11.279   9.204  0.0577 -0.6250  0.4594
  437MOL0     H57657   3.668  11.442   9.210  0.5800 -0.9199 -0.0894
  437MOL0     H57658   3.513  11.331   8.966 -2.9771 -0.6567 -0.8093
  437MOL0     H57659   3.544  11.502   9.000  0.5032 -1.1651 -1.4024
  437MOL0     H57660   3.417  11.493   9.203 -2.1114 -0.3583  2.2075
  437MOL0     H57661   3.384  11.318   9.194  0.7092 -0.3319 -1.8798
  437MOL0     H57662   3.284  11.547   9.022  1.9219 -1.0200  0.2792
  437MOL0     H57663   3.236  11.379   8.998 -0.0546  0.4455 -0.7476
  437MOL0     H57664   3.199  11.556   9.243  2.4070 -2.5888  2.2889
  437MOL0     H57665   3.132  11.385   9.219 -1.4482 -0.8628 -1.2383
  437MOL0     H57666   4.169  11.268   8.855 -0.6555 -0.2717  0.5632
  437MOL0     H57667   4.374  11.165   8.803 -4.1282 -0.6586 -1.2254
  437MOL0     H57668   4.830  10.854   9.151  0.9782 -1.0796 -0.1284
  437MOL0     H57669   5.048  10.826   9.065 -1.1208 -0.3249  1.1668
  437MOL0     H57670   6.772  10.745   8.146  0.0231  0.5362 -0.3927
  437MOL0     H57671   6.967  10.754   8.261 -0.9675  0.0069 -0.0390
  437MOL0     H57672   7.438  10.767   8.257  3.0240 -1.9909 -1.4655
  437MOL0     H57673   7.624  10.826   8.403 -0.8364  1.2579  1.1002
  437MOL0     H57674   7.778  10.852   8.530 -1.8326  0.3868 -1.3937
  437MOL0     H57675   7.854  10.708   8.571  1.1873  1.4878  0.0396
  437MOL0     H57676   7.784  10.947   8.762 -2.3629 -0.4904  0.1833
  437MOL0     H57677   7.824  10.783   8.814 -3.3494 -1.7364 -1.9127
  437MOL0     H57678   8.056  10.795   8.736 -1.1614 -1.1476  0.6189
  437MOL0     H57679   8.008  10.923   8.837 -1.4141 -0.5457 -0.3179
  437MOL0     H57680   7.991  10.947   8.536  1.6533 -0.8461  0.4631
  437MOL0     H57681   7.952  11.079   8.645 -0.5612 -1.0875  0.5571
  437MOL0     H57682   8.365  11.101   8.665  0.0742 -0.1568  0.4183
  437MOL0     H57683   7.467  10.546   8.690 -1.4244 -3.0797 -1.6086
  437MOL0     H57684   7.283  10.498   8.542  0.4155 -0.2447  1.5007
  438MOL0     O57685   6.291  10.891   1.437  0.1176  0.6336  0.3778
  438MOL0     C57686   6.298  10.799   1.518 -0.0742 -0.2888  0.1761
  438MOL0     O57687   6.198  10.764   1.605 -0.6290 -0.2150  0.2623
  438MOL0     C57688   6.069  10.811   1.583  0.2385  0.0812  0.0547
  438MOL0     C57689   6.022  10.940   1.621 -0.0612 -0.0810 -0.5095
  438MOL0     C57690   5.882  10.970   1.603  0.4098 -0.9605  0.5092
  438MOL0     C57691   5.802  10.896   1.536  0.7743 -0.9985  0.3747
  438MOL0     O57692   5.664  10.935   1.534  0.7598  0.6343  0.1230
  438MOL0     C57693   5.597  10.914   1.407  0.0110 -0.6559 -0.2496
  438MOL0     C57694   5.467  11.003   1.396 -0.3618 -0.7754 -0.3112
  438MOL0     C57695   5.490  11.147   1.444 -0.2672  0.3206 -0.6127
  438MOL0     C57696   5.372  11.235   1.448  0.5799  0.6320  0.0783
  438MOL0     C57697   5.286  11.201   1.567 -1.1324  0.8132  0.0053
  438MOL0     C57698   5.173  11.305   1.573  0.8694  0.0645 -0.1016
  438MOL0     C57699   5.108  11.315   1.711  0.0581  0.6637  0.0302
  438MOL0     C57700   5.193  11.360   1.819  0.0068 -0.1923 -0.9375
  438MOL0     N57701   5.267  11.485   1.791  0.3699 -0.7228  0.6500
  438MOL0     C57702   5.218  11.609   1.772 -0.8003  0.0122 -0.2733
  438MOL0     C57703   5.317  11.688   1.748 -1.1323 -0.3343  0.4769
  438MOL0     C57704   5.327  11.836   1.716 -0.4820 -0.4746  0.2439
  438MOL0     C57705   5.248  11.871   1.590 -0.4266 -0.4308 -0.1491
  438MOL0     C57706   5.258  12.015   1.541 -0.0936 -0.9378  0.1622
  438MOL0     C57707   5.397  12.037   1.478 -0.1495  0.7174 -0.5387
  438MOL0     O57708   5.399  12.172   1.428 -0.5574  0.1940  0.2245
  438MOL0     C57709   5.522  12.231   1.421  0.4024 -0.0141 -0.3342
  438MOL0     C57710   5.641  12.160   1.381 -0.5666 -0.5606 -0.3135
  438MOL0     C57711   5.754  12.239   1.355 -0.1091 -0.2313  0.3481
  438MOL0     C57712   5.758  12.385   1.368 -0.1424  0.3666  0.4133
  438MOL0     C57713   5.882  12.453   1.356  0.6738 -0.9012 -0.1608
  438MOL0     O57714   5.873  12.586   1.407 -0.3919  0.7342  0.2132
  438MOL0     C57715   5.989  12.662   1.405  0.4874  0.2281  0.0939
  438MOL0     C57716   6.108  12.622   1.460 -0.1651 -0.3541 -0.8217
  438MOL0     C57717   6.215  12.713   1.478 -0.7755 -0.1100 -0.2376
  438MOL0     C57718   6.205  12.856   1.454  0.9927 -0.5617  1.2466
  438MOL0     O57719   6.299  12.952   1.471  0.1152 -0.9177 -0.1505
  438MOL0     C57720   6.398  12.921   1.568 -0.4142 -0.2563 -0.7660
  438MOL0     C57721   6.492  13.044   1.584  0.5031  0.7475 -0.3131
  438MOL0     C57722   6.603  12.994   1.678 -0.0146  0.5209  0.0202
  438MOL0     C57723   6.723  13.087   1.677  0.6212  0.8060  0.1638
  438MOL0     C57724   6.810  13.046   1.800 -0.2958 -0.7722  0.3710
  438MOL0     C57725   6.944  13.115   1.810  0.2559 -1.2260  0.4285
  438MOL0     C57726   6.927  13.259   1.856  0.1622  0.3248  0.4904
  438MOL0     C57727   7.055  13.328   1.910 -0.0326  0.1213  0.6965
  438MOL0    Cl57728   7.189  13.276   1.800  0.0694  0.0866  0.1462
  438MOL0     C57729   6.083  12.890   1.390  0.8966  0.2500  0.2246
  438MOL0     C57730   5.978  12.794   1.372  0.7449 -0.5550  0.5051
  438MOL0     O57731   5.981  12.397   1.320  0.2379  0.1691  0.1735
  438MOL0     C57732   5.631  12.450   1.384 -0.5643 -0.5869  1.5316
  438MOL0     C57733   5.521  12.373   1.415 -0.4186  0.7821 -0.0941
  438MOL0     N57734   5.433  11.616   1.769  0.7686  1.0128 -0.1229
  438MOL0     N57735   5.398  11.491   1.785 -0.2038  0.3575  0.2614
  438MOL0     C57736   5.841  10.774   1.504  0.8724  0.4314  0.5704
  438MOL0     C57737   5.970  10.723   1.531  0.2481  0.2306 -0.2003
  438MOL0     C57738   6.421  10.715   1.524 -0.6403  0.5991  0.6501
  438MOL0     C57739   6.512  10.717   1.417 -0.7732  0.1595  0.1995
  438MOL0     C57740   6.636  10.646   1.437  0.8345  0.0949 -0.4040
  438MOL0     C57741   6.660  10.558   1.545 -0.6158 -0.9040  0.4309
  438MOL0     O57742   6.788  10.503   1.545  0.6712 -0.0443  0.2045
  438MOL0     C57743   6.840  10.450   1.670 -0.1416  0.4726 -0.2364
  438MOL0     C57744   6.969  10.383   1.645  0.7892  0.3764  0.3746
  438MOL0     C57745   7.033  10.321   1.775 -0.4140  0.0294  0.5272
  438MOL0     C57746   7.171  10.249   1.744 -0.6141  0.9181 -0.2518
  438MOL0     C57747   7.254  10.211   1.864  0.0504  0.5349 -0.1710
  438MOL0     C57748   7.329  10.163   1.952 -0.2220 -0.5410  0.0698
  438MOL0     C57749   6.565  10.557   1.644  0.0309  0.0052 -0.0014
  438MOL0     C57750   6.449  10.638   1.635  0.1917  0.1673  0.3979
  438MOL0     H57751   6.082  11.022   1.659  0.7557  0.5154 -2.8836
  438MOL0     H57752   5.854  11.067   1.644  0.3740 -0.5221 -0.5204
  438MOL0     H57753   5.566  10.809   1.395 -0.3400 -0.4968 -0.7634
  438MOL0     H57754   5.658  10.933   1.319 -0.8943  3.1981 -0.1960
  438MOL0     H57755   5.380  10.956   1.443  0.1086 -0.4816  0.9085
  438MOL0     H57756   5.446  11.005   1.289 -0.1586  1.5050 -0.3657
  438MOL0     H57757   5.564  11.179   1.369 -1.8110  0.6722 -2.0482
  438MOL0     H57758   5.538  11.147   1.542 -0.6939 -2.0345 -0.3513
  438MOL0     H57759   5.407  11.338   1.450  0.7295  0.5745  1.0117
  438MOL0     H57760   5.308  11.218   1.361  0.4261 -0.4477  0.3780
  438MOL0     H57761   5.344  11.207   1.659 -3.3909  1.9297  1.4469
  438MOL0     H57762   5.249  11.100   1.554 -2.5698  1.4067 -0.7277
  438MOL0     H57763   5.095  11.284   1.499 -0.8096  0.2891  1.5294
  438MOL0     H57764   5.204  11.408   1.552  0.3150  0.2648  0.0419
  438MOL0     H57765   5.027  11.388   1.710 -3.3732 -2.8410  0.0208
  438MOL0     H57766   5.058  11.222   1.736 -1.3638  1.3092 -0.3135
  438MOL0     H57767   5.269  11.282   1.823  0.4090  0.1910 -1.0666
  438MOL0     H57768   5.134  11.365   1.911  0.0355 -1.3062 -0.8370
  438MOL0     H57769   5.121  11.658   1.771 -0.4394  0.9234  2.1734
  438MOL0     H57770   5.432  11.861   1.694 -1.4713  1.0300 -3.6135
  438MOL0     H57771   5.299  11.906   1.796 -0.8523  1.6100 -1.6198
  438MOL0     H57772   5.144  11.849   1.614 -0.1310 -0.3590  1.2542
  438MOL0     H57773   5.269  11.805   1.505 -1.2594  0.4580 -1.0693
  438MOL0     H57774   5.183  12.035   1.463  0.5964 -0.7563 -0.4678
  438MOL0     H57775   5.252  12.075   1.632 -1.3727 -0.5214 -0.1683
  438MOL0     H57776   5.411  11.963   1.398  1.1100 -2.4665  2.4069
  438MOL0     H57777   5.463  12.021   1.563 -0.1203  1.4754 -0.4173
  438MOL0     H57778   5.653  12.052   1.381  0.4293 -0.4729 -1.5828
  438MOL0     H57779   5.851  12.196   1.331  1.2873  2.2064  1.1668
  438MOL0     H57780   6.122  12.518   1.486 -1.0807 -0.6563 -1.4995
  438MOL0     H57781   6.306  12.664   1.511 -2.0121 -0.9561  2.1701
  438MOL0     H57782   6.455  12.835   1.533  1.5909  0.2987  0.9047
  438MOL0     H57783   6.350  12.910   1.666  1.3811 -2.4549 -0.0545
  438MOL0     H57784   6.430  13.127   1.618 -1.7781 -1.4189  1.2112
  438MOL0     H57785   6.544  13.063   1.489  1.6582  0.1317  0.1735
  438MOL0     H57786   6.638  12.893   1.653 -1.4747  0.0132 -0.0677
  438MOL0     H57787   6.552  12.985   1.774 -2.2025 -0.4665 -1.1421
  438MOL0     H57788   6.773  13.077   1.580 -2.2440  1.3887 -1.5013
  438MOL0     H57789   6.688  13.190   1.683 -2.3778 -0.0077 -1.1455
  438MOL0     H57790   6.831  12.940   1.786  1.8403 -0.5589  1.6605
  438MOL0     H57791   6.743  13.046   1.886  2.7005 -0.2156  2.8382
  438MOL0     H57792   6.983  13.100   1.709 -1.2208 -2.0797 -0.0408
  438MOL0     H57793   7.012  13.061   1.877  2.6180  1.1479  0.0850
  438MOL0     H57794   6.903  13.325   1.772  2.6462  0.9589  0.2173
  438MOL0     H57795   6.852  13.250   1.935  0.5934 -0.3560  0.8349
  438MOL0     H57796   7.074  13.295   2.012  0.2402 -0.3294  0.5032
  438MOL0     H57797   7.042  13.436   1.914 -0.4030  0.3122 -2.5270
  438MOL0     H57798   6.077  12.986   1.341 -0.9300  1.0100  1.8334
  438MOL0     H57799   5.887  12.825   1.322  0.7289  0.7021  1.2719
  438MOL0     H57800   5.634  12.557   1.402 -2.7056 -0.6153  2.2604
  438MOL0     H57801   5.421  12.414   1.426 -3.2698 -4.5720 -1.8624
  438MOL0     H57802   5.777  10.694   1.467  0.5595  1.4085 -1.0781
  438MOL0     H57803   5.992  10.621   1.502  0.7554  0.7136 -1.5801
  438MOL0     H57804   6.479  10.778   1.334 -3.1990  0.4691  1.3086
  438MOL0     H57805   6.714  10.670   1.365 -0.4002 -0.6128 -2.0319
  438MOL0     H57806   6.770  10.380   1.717 -1.1832  0.4754 -1.7194
  438MOL0     H57807   6.853  10.542   1.727  0.8157 -0.4669  1.1319
  438MOL0     H57808   6.964  10.310   1.563  2.7956  0.5284  0.0571
  438MOL0     H57809   7.038  10.461   1.612  0.1856  1.2047  1.0405
  438MOL0     H57810   6.965  10.244   1.813  0.0582  0.0018  1.3433
  438MOL0     H57811   7.047  10.391   1.857 -1.9177 -0.0648  0.8854
  438MOL0     H57812   7.151  10.153   1.696 -0.0318  1.2414 -1.1555
  438MOL0     H57813   7.223  10.320   1.680  0.0132  2.7175  2.0888
  438MOL0     H57814   7.371  10.134   2.046 -0.8278 -1.9074 -0.0601
  438MOL0     H57815   6.572  10.502   1.738  0.0854  0.8614  0.5022
  438MOL0     H57816   6.382  10.658   1.717  1.2567  3.0374  0.6738
  439MOL0     O57817   5.821   6.892   4.267  0.2436 -0.6781 -0.0012
  439MOL0     C57818   5.813   6.842   4.155 -0.8897  0.6665 -0.4959
  439MOL0     O57819   5.693   6.794   4.103 -0.2233 -0.7361 -0.0621
  439MOL0     C57820   5.584   6.775   4.182 -0.0193  0.0954  0.7598
  439MOL0     C57821   5.579   6.719   4.307 -0.2967  0.4118  0.2901
  439MOL0     C57822   5.452   6.695   4.368 -0.5496  0.8031  0.0187
  439MOL0     C57823   5.334   6.727   4.302 -0.7778 -0.1625  0.5717
  439MOL0     O57824   5.207   6.705   4.345 -0.0055 -0.5642 -0.3604
  439MOL0     C57825   5.169   6.671   4.479  0.2353  0.2542 -0.1915
  439MOL0     C57826   5.028   6.692   4.529 -0.0053 -0.8324 -0.2129
  439MOL0     C57827   4.911   6.666   4.425  0.2940  0.0304 -0.7662
  439MOL0     C57828   4.767   6.701   4.495 -0.4164  0.4629  0.3304
  439MOL0     C57829   4.647   6.650   4.419  0.3764  0.1953 -0.0797
  439MOL0     C57830   4.506   6.702   4.463  0.4304  0.2532 -0.2755
  439MOL0     C57831   4.486   6.854   4.431  0.6090 -0.8081  0.0586
  439MOL0     C57832   4.370   6.905   4.515  0.7662 -0.1319  0.0678
  439MOL0     N57833   4.242   6.831   4.521  0.6337  0.4965 -0.5200
  439MOL0     C57834   4.199   6.740   4.613  0.6293  0.2253  0.0234
  439MOL0     C57835   4.068   6.719   4.592 -0.3905 -0.7381  0.9289
  439MOL0     C57836   3.971   6.657   4.687  0.1327  0.8312 -0.7620
  439MOL0     C57837   3.962   6.717   4.825  0.4745 -0.8589  0.2596
  439MOL0     C57838   3.879   6.841   4.834  0.6763  1.1624  0.0558
  439MOL0     C57839   3.729   6.791   4.853 -0.8428  0.2876  0.1161
  439MOL0     O57840   3.705   6.740   4.980  0.6347  0.3168 -0.6179
  439MOL0     C57841   3.572   6.696   4.996  0.4401  0.8606  0.6571
  439MOL0     C57842   3.499   6.633   4.890  0.1129  0.5548  0.8169
  439MOL0     C57843   3.365   6.594   4.914  0.5929  0.7404 -0.6224
  439MOL0     C57844   3.300   6.611   5.038  0.0324  0.5947 -0.6019
  439MOL0     C57845   3.148   6.586   5.059  0.0445 -0.2543 -0.4719
  439MOL0     O57846   3.072   6.569   4.946  0.0021 -0.6671 -0.5122
  439MOL0     C57847   2.941   6.548   4.933 -0.5072 -0.2353  0.7826
  439MOL0     C57848   2.895   6.561   4.806 -0.7126 -0.4757  0.5971
  439MOL0     C57849   2.758   6.548   4.771  0.7312 -0.3424  0.5599
  439MOL0     C57850   2.664   6.532   4.870 -0.3843  1.1817  0.6050
  439MOL0     O57851   2.534   6.522   4.829  0.1734 -0.4181  0.0293
  439MOL0     C57852   2.438   6.610   4.900  0.3185  1.0760  0.4463
  439MOL0     C57853   2.301   6.601   4.840 -0.2267 -1.1691  0.4107
  439MOL0     C57854   2.198   6.520   4.927 -0.5001  0.2971  0.7588
  439MOL0     C57855   2.054   6.527   4.877 -0.3564 -1.4457  0.0106
  439MOL0     C57856   1.961   6.446   4.967  0.0842 -0.0991 -0.2538
  439MOL0     C57857   1.818   6.470   4.915  0.1181  0.5497 -0.3813
  439MOL0     C57858   1.714   6.383   4.972 -0.1251 -0.3378  0.4008
  439MOL0     C57859   1.580   6.412   4.902 -0.1137  0.7504 -0.0524
  439MOL0    Cl57860   1.587   6.321   4.749 -0.0305 -0.2072  0.1140
  439MOL0     C57861   2.711   6.522   4.998 -0.7701  0.1733 -0.5365
  439MOL0     C57862   2.847   6.544   5.039  0.0108 -0.0692 -0.4244
  439MOL0     O57863   3.110   6.587   5.177 -0.3151 -0.0454  0.2224
  439MOL0     C57864   3.381   6.666   5.135 -0.1463 -0.0894 -0.3970
  439MOL0     C57865   3.513   6.709   5.117  0.1366  0.5902  0.5741
  439MOL0     N57866   4.036   6.773   4.476  0.0022  0.4692  0.8671
  439MOL0     N57867   4.140   6.831   4.429  0.4477  0.5283  0.2074
  439MOL0     C57868   5.343   6.791   4.174  0.7905  0.4533 -0.6253
  439MOL0     C57869   5.465   6.813   4.115 -0.1439  0.4732  0.1252
  439MOL0     C57870   5.945   6.812   4.085  0.1646  0.2236 -0.2663
  439MOL0     C57871   5.945   6.780   3.947 -0.0163  0.3516 -0.2561
  439MOL0     C57872   6.073   6.756   3.886 -0.9561 -0.9911 -0.4062
  439MOL0     C57873   6.194   6.764   3.951 -0.0406 -0.0488  0.5806
  439MOL0     O57874   6.310   6.732   3.882  1.1851  0.2059  0.2440
  439MOL0     C57875   6.329   6.589   3.879 -0.1741 -0.2132 -0.9761
  439MOL0     C57876   6.392   6.524   4.005 -0.0208 -0.0732  0.6737
  439MOL0     C57877   6.528   6.590   4.030  0.5812  0.2719 -0.0543
  439MOL0     C57878   6.562   6.567   4.178 -0.0921 -0.1546  0.1929
  439MOL0     C57879   6.706   6.589   4.201  0.5687 -0.0323  0.3581
  439MOL0     C57880   6.823   6.620   4.221  0.6660 -0.1239  0.6215
  439MOL0     C57881   6.196   6.815   4.080  1.1160  0.3985 -0.3175
  439MOL0     C57882   6.074   6.825   4.148  0.1183 -0.4227  0.3943
  439MOL0     H57883   5.675   6.700   4.355  0.5626 -1.2347 -1.9286
  439MOL0     H57884   5.440   6.637   4.460 -0.6626 -1.4895 -1.3699
  439MOL0     H57885   5.231   6.715   4.558 -2.2811 -0.8388  2.5490
  439MOL0     H57886   5.189   6.564   4.489  2.9296  0.3721 -2.7024
  439MOL0     H57887   5.020   6.796   4.560 -0.0025  0.0733 -2.9901
  439MOL0     H57888   5.024   6.620   4.611  0.2727 -2.0256 -1.2032
  439MOL0     H57889   4.923   6.563   4.392  0.2627  0.2393 -1.4579
  439MOL0     H57890   4.936   6.721   4.333 -0.4311 -1.1977 -1.7387
  439MOL0     H57891   4.771   6.655   4.594  1.0911 -0.0428  0.0664
  439MOL0     H57892   4.760   6.810   4.498  0.6088  0.5119  3.4423
  439MOL0     H57893   4.642   6.541   4.421 -2.5346  0.2567 -0.1669
  439MOL0     H57894   4.658   6.681   4.314  0.9324  1.4036  0.3116
  439MOL0     H57895   4.501   6.691   4.572  0.0721  0.9654 -0.2114
  439MOL0     H57896   4.431   6.634   4.421 -0.7929  1.2192  0.2754
  439MOL0     H57897   4.570   6.918   4.458 -0.9366  0.4649  2.1505
  439MOL0     H57898   4.467   6.862   4.323  1.7805  0.4464 -0.0714
  439MOL0     H57899   4.337   7.003   4.477 -1.8406 -0.5146  1.1676
  439MOL0     H57900   4.406   6.934   4.615  0.8628  4.0383 -0.9679
  439MOL0     H57901   4.253   6.717   4.705  1.2809  2.8320  0.3727
  439MOL0     H57902   3.992   6.551   4.701 -2.5780  0.5149  2.3085
  439MOL0     H57903   3.877   6.659   4.631  1.5856 -0.4399 -3.3920
  439MOL0     H57904   4.065   6.732   4.861  0.1927 -1.2988  1.2899
  439MOL0     H57905   3.921   6.647   4.899  2.4989 -0.0160  2.3053
  439MOL0     H57906   3.896   6.909   4.917  2.4165  0.4520  0.3216
  439MOL0     H57907   3.886   6.900   4.742  0.9739  1.0432  0.0009
  439MOL0     H57908   3.706   6.723   4.771  4.6173  0.2129 -1.7667
  439MOL0     H57909   3.666   6.879   4.838  1.5839  1.6069 -3.7342
  439MOL0     H57910   3.538   6.624   4.790  0.9714  1.2844  1.0717
  439MOL0     H57911   3.314   6.555   4.827  1.8497  2.4971 -2.2253
  439MOL0     H57912   2.964   6.601   4.732 -1.6078  0.7195  0.3824
  439MOL0     H57913   2.721   6.565   4.670  0.0399 -0.0385  0.8606
  439MOL0     H57914   2.475   6.713   4.896 -1.6738  1.9270  1.9481
  439MOL0     H57915   2.435   6.577   5.004 -1.5579 -0.0028  0.0914
  439MOL0     H57916   2.301   6.557   4.740  0.6390 -1.7681  0.6641
  439MOL0     H57917   2.257   6.701   4.840  0.4110 -0.8869  0.1428
  439MOL0     H57918   2.209   6.569   5.024 -0.6711  0.8139  0.5235
  439MOL0     H57919   2.243   6.421   4.937  0.1793  0.4943 -0.2222
  439MOL0     H57920   2.031   6.633   4.878  1.3385 -1.0234 -1.5558
  439MOL0     H57921   2.055   6.500   4.771  2.9163  1.4439 -0.8777
  439MOL0     H57922   1.963   6.478   5.072 -0.1891 -0.9020  0.0016
  439MOL0     H57923   1.984   6.340   4.958 -0.0576  0.0161 -2.7009
  439MOL0     H57924   1.815   6.434   4.812 -2.2763 -3.2065  0.8112
  439MOL0     H57925   1.793   6.575   4.936 -0.0842  0.2866  0.7556
  439MOL0     H57926   1.757   6.285   4.952 -0.9270  0.0044 -4.0357
  439MOL0     H57927   1.705   6.391   5.080  1.5683  1.8823  0.4609
  439MOL0     H57928   1.570   6.521   4.895 -1.8883  0.6736  0.7415
  439MOL0     H57929   1.490   6.383   4.956  0.2736  1.6124  1.1088
  439MOL0     H57930   2.650   6.479   5.078 -0.5121  1.1536  0.2060
  439MOL0     H57931   2.881   6.544   5.142  1.4481  0.5607 -0.8620
  439MOL0     H57932   3.336   6.678   5.233 -1.1638 -0.1738 -0.8355
  439MOL0     H57933   3.566   6.756   5.199 -0.4772 -1.1623  2.0547
  439MOL0     H57934   5.246   6.813   4.130  0.0516 -1.3512 -0.0012
  439MOL0     H57935   5.475   6.858   4.016 -1.4536 -0.0518 -0.2749
  439MOL0     H57936   5.848   6.771   3.899 -0.9141  2.0116  1.1339
  439MOL0     H57937   6.059   6.724   3.783 -0.1927 -1.4012 -0.3927
  439MOL0     H57938   6.391   6.586   3.789  0.3703 -1.4061 -0.5808
  439MOL0     H57939   6.234   6.537   3.859 -0.2431 -0.5529  0.2049
  439MOL0     H57940   6.319   6.522   4.087 -0.9365 -0.1749 -0.1316
  439MOL0     H57941   6.415   6.420   3.981 -0.5179  0.0121 -0.2006
  439MOL0     H57942   6.523   6.698   4.014  0.9112 -0.0404 -2.7409
  439MOL0     H57943   6.603   6.550   3.960  1.6110 -0.0677  1.2086
  439MOL0     H57944   6.504   6.635   4.241  1.1468  0.6418  0.5172
  439MOL0     H57945   6.545   6.463   4.209  0.3398 -0.4253 -0.4628
  439MOL0     H57946   6.920   6.657   4.247  1.2128 -1.3824  0.4804
  439MOL0     H57947   6.285   6.833   4.140  0.6241  0.7706  0.3066
  439MOL0     H57948   6.073   6.846   4.255 -1.8403 -0.1739  0.3655
  440MOL0     O57949   3.734   7.305   1.812 -0.1972  0.1024 -0.1429
  440MOL0     C57950   3.812   7.226   1.848 -0.6030  0.0026 -0.4717
  440MOL0     O57951   3.776   7.112   1.909  0.3123  0.0997 -0.7281
  440MOL0     C57952   3.643   7.079   1.943  0.1102  0.5712 -0.7635
  440MOL0     C57953   3.615   6.951   1.900  0.1752  0.9595 -0.1279
  440MOL0     C57954   3.488   6.896   1.911 -0.3706 -0.8446 -0.4513
  440MOL0     C57955   3.386   6.967   1.971  0.5363 -0.6988  0.1768
  440MOL0     O57956   3.262   6.916   1.998  0.2211 -0.2723 -0.0928
  440MOL0     C57957   3.243   6.780   1.967 -0.3924  0.1506  0.5274
  440MOL0     C57958   3.093   6.749   1.979 -0.1266  0.8387 -0.1759
  440MOL0     C57959   3.031   6.747   2.119  0.6239  0.2736  0.2276
  440MOL0     C57960   2.879   6.734   2.135  0.2103  0.6845 -0.2745
  440MOL0     C57961   2.838   6.803   2.262 -0.5967 -0.1434  0.1905
  440MOL0     C57962   2.712   6.876   2.257 -0.0159  0.4540  0.0430
  440MOL0     C57963   2.698   6.952   2.385  0.3836 -1.1765  0.4838
  440MOL0     C57964   2.551   6.999   2.399  0.1500 -0.2225 -0.5653
  440MOL0     N57965   2.511   7.047   2.531 -0.1479  0.4618  0.8040
  440MOL0     C57966   2.511   7.187   2.553  0.0987  0.1929 -0.6240
  440MOL0     C57967   2.413   7.208   2.647 -0.2206 -0.4224 -0.0047
  440MOL0     C57968   2.380   7.336   2.705  0.1540 -0.7012 -0.2960
  440MOL0     C57969   2.435   7.362   2.847 -0.4270  0.0662  0.3009
  440MOL0     C57970   2.449   7.512   2.883  0.0531 -0.9196  0.5721
  440MOL0     C57971   2.569   7.568   2.812 -0.6412 -0.1974 -0.9644
  440MOL0     O57972   2.665   7.552   2.914  0.9228  0.1502 -0.1403
  440MOL0     C57973   2.796   7.548   2.877 -0.6211 -0.2912  0.3265
  440MOL0     C57974   2.846   7.609   2.764  0.7885 -0.4804  0.5217
  440MOL0     C57975   2.976   7.596   2.731  0.2432  0.1829  0.8565
  440MOL0     C57976   3.068   7.519   2.800  0.3216  0.1760 -0.7443
  440MOL0     C57977   3.214   7.526   2.768 -0.9234 -0.5568  0.1807
  440MOL0     O57978   3.251   7.597   2.654 -0.3177 -0.1308  0.5881
  440MOL0     C57979   3.381   7.630   2.631 -0.1973  0.3980  0.6679
  440MOL0     C57980   3.481   7.528   2.647  0.0316  0.2316  0.0529
  440MOL0     C57981   3.608   7.562   2.623 -0.1481  0.5187 -0.1256
  440MOL0     C57982   3.651   7.694   2.577  0.2837  0.3537  0.0643
  440MOL0     O57983   3.781   7.717   2.549  0.4516 -0.5007  0.6128
  440MOL0     C57984   3.893   7.645   2.618  1.1513  0.2385  0.6717
  440MOL0     C57985   4.023   7.710   2.559  0.3559  0.1137  0.7179
  440MOL0     C57986   4.019   7.861   2.580  0.3438 -0.0523  1.0163
  440MOL0     C57987   4.052   7.895   2.725 -0.5373 -0.3461 -0.8918
  440MOL0     C57988   4.000   8.029   2.769 -0.8981  0.2976  0.1371
  440MOL0     C57989   3.996   8.031   2.928 -0.5802  0.2794 -0.4029
  440MOL0     C57990   4.126   8.035   3.004  0.5932  0.7565  0.4462
  440MOL0     C57991   4.174   8.178   3.038  0.5129 -0.8446 -1.2736
  440MOL0    Cl57992   4.185   8.300   2.908  0.6227  0.3591  0.0385
  440MOL0     C57993   3.552   7.783   2.556  0.3611 -0.6291  0.8009
  440MOL0     C57994   3.417   7.752   2.586  0.0342  0.5026 -0.7011
  440MOL0     O57995   3.292   7.482   2.852 -0.3879 -0.2046 -0.5608
  440MOL0     C57996   3.017   7.461   2.920 -0.5992  0.8389 -0.2639
  440MOL0     C57997   2.885   7.463   2.954  0.4922  0.1579 -0.6208
  440MOL0     N57998   2.354   7.091   2.677  0.3918  1.1606  0.0734
  440MOL0     N57999   2.405   7.002   2.598 -0.1873 -0.0576 -0.7458
  440MOL0     C58000   3.420   7.097   2.022  0.1347  1.3324 -0.4335
  440MOL0     C58001   3.545   7.156   2.005  0.3200  0.5173  0.4917
  440MOL0     C58002   3.955   7.246   1.825 -0.1020 -0.2159 -0.0431
  440MOL0     C58003   4.057   7.149   1.847 -0.2153  0.3760 -1.4920
  440MOL0     C58004   4.186   7.179   1.819 -0.3582  0.0770  0.5393
  440MOL0     C58005   4.230   7.302   1.762  0.5761  0.4540  0.2391
  440MOL0     O58006   4.358   7.299   1.716 -0.6347 -0.3529  0.2047
  440MOL0     C58007   4.436   7.424   1.717  0.2837  0.4965  0.3333
  440MOL0     C58008   4.530   7.407   1.597 -0.6834  0.1873 -0.6299
  440MOL0     C58009   4.656   7.320   1.643  0.8796  0.0251 -0.4149
  440MOL0     C58010   4.716   7.241   1.525  0.0794 -0.1244 -0.1758
  440MOL0     C58011   4.832   7.165   1.557 -0.0854  0.2700 -0.7589
  440MOL0     C58012   4.931   7.097   1.588 -0.6433  0.2694  0.8382
  440MOL0     C58013   4.136   7.407   1.750 -0.1532  0.5875 -0.1377
  440MOL0     C58014   4.003   7.378   1.783  0.4096 -0.6295  0.4319
  440MOL0     H58015   3.689   6.897   1.842 -0.7679  2.2669 -2.7281
  440MOL0     H58016   3.471   6.794   1.879  0.2762 -1.0342 -0.2113
  440MOL0     H58017   3.303   6.720   2.036  0.4395 -0.4358 -0.6633
  440MOL0     H58018   3.270   6.758   1.863 -2.7891  0.7061 -0.2693
  440MOL0     H58019   3.085   6.656   1.922 -2.1098  0.2365  0.9812
  440MOL0     H58020   3.036   6.825   1.925 -1.4322  0.8902  1.1833
  440MOL0     H58021   3.072   6.840   2.160  0.3292  0.3241  0.4082
  440MOL0     H58022   3.074   6.659   2.168  0.9935  0.3422  0.0281
  440MOL0     H58023   2.827   6.778   2.049 -1.2200 -3.8945 -2.0545
  440MOL0     H58024   2.849   6.629   2.130  0.2471  0.6995 -0.9753
  440MOL0     H58025   2.922   6.867   2.293  1.3459 -0.6842 -3.3784
  440MOL0     H58026   2.837   6.726   2.340  2.0405 -1.3266 -0.8138
  440MOL0     H58027   2.635   6.800   2.243 -0.2397  0.4152  1.3352
  440MOL0     H58028   2.713   6.938   2.167 -1.7328 -0.6742 -0.8076
  440MOL0     H58029   2.715   6.885   2.470 -0.3522 -0.5583  1.1409
  440MOL0     H58030   2.764   7.039   2.388  0.0928 -0.7557 -2.6242
  440MOL0     H58031   2.496   6.907   2.379  1.7766 -1.5152  0.6921
  440MOL0     H58032   2.535   7.076   2.322 -2.4706  1.0709  1.1257
  440MOL0     H58033   2.577   7.246   2.491  1.7558 -2.0231 -1.1098
  440MOL0     H58034   2.272   7.346   2.720  0.5118 -0.7274  3.3383
  440MOL0     H58035   2.398   7.416   2.632 -2.1827  1.4460  1.2882
  440MOL0     H58036   2.533   7.314   2.859 -1.5329 -2.2418  0.6428
  440MOL0     H58037   2.365   7.325   2.922 -2.1864 -2.7544 -2.4892
  440MOL0     H58038   2.365   7.569   2.843  0.4212 -1.5830 -1.2591
  440MOL0     H58039   2.447   7.532   2.991 -2.6194 -3.8344  1.2084
  440MOL0     H58040   2.560   7.676   2.795 -1.1165 -0.0941 -0.0784
  440MOL0     H58041   2.595   7.508   2.724 -0.7535 -0.6837 -0.6733
  440MOL0     H58042   2.782   7.675   2.706  1.7807  0.5846  0.6170
  440MOL0     H58043   3.004   7.650   2.642 -4.1672  1.6383  0.1384
  440MOL0     H58044   3.460   7.428   2.684  1.6922  0.2752  1.2517
  440MOL0     H58045   3.679   7.481   2.637 -1.1140 -0.3300 -0.0064
  440MOL0     H58046   3.892   7.536   2.613 -2.2673  0.1073  1.6700
  440MOL0     H58047   3.881   7.665   2.724 -0.0171  0.3643  0.5355
  440MOL0     H58048   4.046   7.678   2.457  1.5534  1.0238  0.6681
  440MOL0     H58049   4.105   7.673   2.622  0.6575  2.2614  1.6824
  440MOL0     H58050   3.923   7.894   2.540  0.6301 -0.5631 -0.1448
  440MOL0     H58051   4.086   7.913   2.511  1.5018 -1.6686  0.8545
  440MOL0     H58052   4.008   7.810   2.779  0.9187 -2.2012 -2.4688
  440MOL0     H58053   4.159   7.897   2.744 -0.7655  2.4339  0.6504
  440MOL0     H58054   3.896   8.041   2.736 -1.2114  3.6769  1.9949
  440MOL0     H58055   4.072   8.101   2.730  2.8585 -2.1077  1.9921
  440MOL0     H58056   3.948   7.935   2.949 -0.3017 -0.5048 -3.0135
  440MOL0     H58057   3.934   8.117   2.953 -1.0909 -0.4139  0.7897
  440MOL0     H58058   4.113   7.978   3.097 -0.1782 -0.2344 -0.2391
  440MOL0     H58059   4.200   7.986   2.940 -1.5551 -0.6677 -1.0973
  440MOL0     H58060   4.266   8.184   3.098 -1.0279  3.3456  1.0407
  440MOL0     H58061   4.106   8.222   3.111  1.3869 -0.5713 -0.6057
  440MOL0     H58062   3.579   7.882   2.523  0.8291 -1.0952 -0.2709
  440MOL0     H58063   3.341   7.828   2.570 -0.9692 -0.4619 -0.5997
  440MOL0     H58064   3.086   7.417   2.991  1.8778  1.5769 -2.0747
  440MOL0     H58065   2.842   7.408   3.037 -0.0944 -2.1308 -2.3405
  440MOL0     H58066   3.347   7.153   2.080  0.9311 -0.0853  2.1090
  440MOL0     H58067   3.567   7.250   2.056  1.9745 -0.1199  0.9934
  440MOL0     H58068   4.024   7.054   1.886 -0.5830  0.0466 -2.5865
  440MOL0     H58069   4.258   7.099   1.833 -0.2927  0.3504  1.8655
  440MOL0     H58070   4.499   7.438   1.805  0.4171  4.1001 -0.1941
  440MOL0     H58071   4.379   7.517   1.720  0.1079  0.3822  3.7914
  440MOL0     H58072   4.479   7.375   1.506  1.9494 -3.2656 -1.1221
  440MOL0     H58073   4.577   7.505   1.584  0.6795 -0.6304 -2.4309
  440MOL0     H58074   4.626   7.245   1.717 -0.6729 -1.4662 -2.4267
  440MOL0     H58075   4.722   7.391   1.693 -0.7558  1.2701  0.0571
  440MOL0     H58076   4.633   7.177   1.495 -0.4976  0.9305 -0.8970
  440MOL0     H58077   4.754   7.297   1.439  0.4608  1.2057  0.8160
  440MOL0     H58078   5.021   7.041   1.605  0.4854  0.3444 -3.6235
  440MOL0     H58079   4.155   7.507   1.711 -3.8909  0.8151 -1.7264
  440MOL0     H58080   3.925   7.452   1.768 -1.5163 -2.7318 -0.5870
  441MOL0     O58081   5.578   5.362   3.589 -0.4657 -0.1968  0.5627
  441MOL0     C58082   5.562   5.457   3.509 -0.0271  0.8593  0.2427
  441MOL0     O58083   5.452   5.472   3.427  0.9006  0.4501 -0.2732
  441MOL0     C58084   5.333   5.409   3.451 -0.2495  0.1704  0.7233
  441MOL0     C58085   5.229   5.441   3.348 -0.4226 -0.3557  0.8720
  441MOL0     C58086   5.102   5.396   3.361 -0.0522  0.1380  0.1309
  441MOL0     C58087   5.065   5.321   3.471  0.7307 -0.4213  0.2361
  441MOL0     O58088   4.938   5.267   3.469 -0.6931  0.3024 -0.5116
  441MOL0     C58089   4.879   5.227   3.585  1.2685 -0.3239  0.4316
  441MOL0     C58090   4.725   5.178   3.561  0.0452 -0.3597 -0.2191
  441MOL0     C58091   4.640   5.177   3.679 -0.0868  0.9970 -0.4780
  441MOL0     C58092   4.483   5.166   3.675 -0.5910  0.0376  0.1746
  441MOL0     C58093   4.442   5.011   3.671  0.7851 -0.0685  0.2652
  441MOL0     C58094   4.287   4.984   3.664 -0.5165  0.5439 -0.6553
  441MOL0     C58095   4.206   5.027   3.543 -0.9212 -0.7700 -0.0394
  441MOL0     C58096   4.078   4.964   3.525 -0.2586 -0.0302 -0.2728
  441MOL0     N58097   3.962   5.012   3.608 -0.3462  0.8081 -0.0182
  441MOL0     C58098   3.950   5.116   3.691 -0.4725  0.3486 -0.0155
  441MOL0     C58099   3.823   5.117   3.732  0.0030  0.9602 -0.2652
  441MOL0     C58100   3.749   5.220   3.825 -0.2243  1.1083 -0.0658
  441MOL0     C58101   3.732   5.364   3.768 -0.3186 -0.0139 -0.1344
  441MOL0     C58102   3.690   5.466   3.872 -0.8074  1.1644  0.0658
  441MOL0     C58103   3.711   5.611   3.829  0.8647  0.8103 -0.5165
  441MOL0     O58104   3.645   5.632   3.708 -0.0638  0.3943  0.3092
  441MOL0     C58105   3.506   5.639   3.693  0.6254 -0.4621 -0.2539
  441MOL0     C58106   3.409   5.659   3.795 -0.7238 -1.1069  0.1584
  441MOL0     C58107   3.278   5.684   3.763  0.0916  0.6653 -0.4174
  441MOL0     C58108   3.236   5.687   3.629  0.1708 -0.3041 -0.5225
  441MOL0     C58109   3.092   5.694   3.596 -0.1714  0.4650  0.2673
  441MOL0     O58110   3.063   5.686   3.462  0.8758 -0.1406  0.3865
  441MOL0     C58111   2.935   5.710   3.420 -0.1654  1.1506  1.1065
  441MOL0     C58112   2.862   5.822   3.445 -0.5691  0.5763  0.2893
  441MOL0     C58113   2.736   5.850   3.385 -1.3732 -0.2792 -0.2659
  441MOL0     C58114   2.683   5.758   3.297 -0.2375  0.5218 -0.1149
  441MOL0     O58115   2.564   5.798   3.236  0.4479  0.3132  0.0752
  441MOL0     C58116   2.501   5.704   3.146 -1.0903 -1.0110 -0.4121
  441MOL0     C58117   2.378   5.767   3.091 -0.0356  0.1633 -0.2804
  441MOL0     C58118   2.302   5.695   2.982 -0.1123 -0.1049 -0.2344
  441MOL0     C58119   2.195   5.599   3.027  0.2025  0.0454  0.2602
  441MOL0     C58120   2.072   5.573   2.937  0.0958 -0.6881  0.0167
  441MOL0     C58121   2.096   5.513   2.796  0.4606  0.0218  0.0796
  441MOL0     C58122   1.961   5.464   2.737 -0.8877  0.3780  0.8516
  441MOL0     C58123   1.992   5.403   2.604 -0.3609 -0.8591 -0.1261
  441MOL0    Cl58124   1.847   5.318   2.553  0.3950 -0.3866 -0.1216
  441MOL0     C58125   2.761   5.645   3.265 -0.4873 -0.2947 -0.2121
  441MOL0     C58126   2.878   5.615   3.342 -0.8765 -0.0112  0.7337
  441MOL0     O58127   3.013   5.705   3.689 -0.0625 -0.0100  0.0128
  441MOL0     C58128   3.336   5.679   3.532  0.1474 -0.3757 -0.8216
  441MOL0     C58129   3.467   5.651   3.559  0.7131 -0.9152  0.7318
  441MOL0     N58130   3.763   5.006   3.675  0.8204 -0.4950 -0.2414
  441MOL0     N58131   3.845   4.953   3.594 -0.2548 -0.6428  0.3093
  441MOL0     C58132   5.161   5.299   3.577 -0.0165  0.7810 -0.0620
  441MOL0     C58133   5.287   5.339   3.565 -0.5511  0.4438 -0.2403
  441MOL0     C58134   5.660   5.564   3.492  0.3383 -0.2987  0.3418
  441MOL0     C58135   5.636   5.681   3.415  0.2377  0.5634 -0.0454
  441MOL0     C58136   5.735   5.782   3.403  0.1659  0.1387 -0.1614
  441MOL0     C58137   5.860   5.761   3.448 -0.1493 -0.6070 -0.4547
  441MOL0     O58138   5.944   5.870   3.433  0.5020  0.7127  0.1181
  441MOL0     C58139   6.067   5.851   3.495  0.6238 -0.6975 -0.2234
  441MOL0     C58140   6.136   5.993   3.482  0.3501  0.9972 -0.1888
  441MOL0     C58141   6.284   6.002   3.513  0.1082 -0.1874  0.4025
  441MOL0     C58142   6.349   6.131   3.463 -0.4288  0.1268  0.3855
  441MOL0     C58143   6.279   6.251   3.511 -0.7218  0.4487  0.3359
  441MOL0     C58144   6.216   6.342   3.541 -0.9128 -0.5857  0.2528
  441MOL0     C58145   5.894   5.639   3.495  0.7998  0.0574 -0.3742
  441MOL0     C58146   5.797   5.545   3.531  0.5585  0.0907 -0.1947
  441MOL0     H58147   5.263   5.495   3.260  1.6226 -0.5874  1.4647
  441MOL0     H58148   5.034   5.432   3.285  1.8867  1.4293 -1.0816
  441MOL0     H58149   4.876   5.317   3.647 -1.4594  0.9919 -1.4191
  441MOL0     H58150   4.932   5.145   3.634  1.7622 -1.1764 -1.4466
  441MOL0     H58151   4.740   5.074   3.530 -2.0486 -0.4285 -1.1168
  441MOL0     H58152   4.683   5.233   3.476  1.4725 -1.3131 -1.6012
  441MOL0     H58153   4.664   5.279   3.709 -1.4098  1.3974 -0.6903
  441MOL0     H58154   4.677   5.100   3.748  0.5909 -1.0533 -2.9912
  441MOL0     H58155   4.429   5.206   3.761  0.1413 -1.1089  1.2025
  441MOL0     H58156   4.451   5.217   3.583  1.8341  1.2702 -0.0472
  441MOL0     H58157   4.482   4.946   3.749 -0.4728 -3.9380 -1.9968
  441MOL0     H58158   4.482   4.967   3.579 -2.6063  1.8463 -2.4025
  441MOL0     H58159   4.248   5.022   3.759  0.0728 -1.2351  0.3508
  441MOL0     H58160   4.296   4.875   3.666  0.7003  0.6262  0.6573
  441MOL0     H58161   4.196   5.136   3.542  1.5476 -0.4639 -1.7643
  441MOL0     H58162   4.270   5.007   3.456  0.8334 -0.9964  1.2454
  441MOL0     H58163   4.070   4.856   3.542 -0.0273 -0.5881 -3.1911
  441MOL0     H58164   4.052   4.976   3.419 -3.2586  0.0025  0.3884
  441MOL0     H58165   4.024   5.191   3.717 -2.5956  2.5357  0.0487
  441MOL0     H58166   3.815   5.225   3.912 -1.6269  1.3140  1.0344
  441MOL0     H58167   3.648   5.189   3.855  0.8445 -3.3014 -0.2681
  441MOL0     H58168   3.650   5.361   3.696 -0.2096 -1.3025 -0.2205
  441MOL0     H58169   3.827   5.402   3.728 -1.4649  1.2350 -1.7725
  441MOL0     H58170   3.584   5.456   3.897 -0.2519  1.6094  2.8671
  441MOL0     H58171   3.755   5.463   3.960 -1.7755 -0.6530  0.7636
  441MOL0     H58172   3.819   5.627   3.821  1.1742  0.8955  2.4197
  441MOL0     H58173   3.680   5.683   3.906  0.1143  0.3991 -0.4272
  441MOL0     H58174   3.439   5.651   3.899  0.1072 -0.5107 -0.0234
  441MOL0     H58175   3.205   5.712   3.838 -0.1193  1.6051 -0.9474
  441MOL0     H58176   2.901   5.899   3.511 -1.5382 -0.1380  1.7553
  441MOL0     H58177   2.695   5.949   3.400  0.9751  1.2424 -2.8097
  441MOL0     H58178   2.473   5.621   3.211  0.9333 -1.4073  0.0025
  441MOL0     H58179   2.569   5.671   3.067 -3.9658 -5.3594 -1.4544
  441MOL0     H58180   2.405   5.866   3.053 -0.4817  0.5040  0.2815
  441MOL0     H58181   2.307   5.778   3.174 -1.9621  0.1712 -1.8576
  441MOL0     H58182   2.369   5.631   2.924 -1.4918 -3.2940  1.4430
  441MOL0     H58183   2.260   5.769   2.913  0.9880  1.6593  0.9066
  441MOL0     H58184   2.235   5.503   3.061 -2.3530 -0.2083  2.9259
  441MOL0     H58185   2.152   5.636   3.120 -0.9712 -3.4827  1.2434
  441MOL0     H58186   2.013   5.664   2.918  0.7292 -0.3894 -0.5678
  441MOL0     H58187   2.003   5.516   2.999 -0.2812  0.2739  0.4918
  441MOL0     H58188   2.154   5.423   2.816  0.0768 -0.2780 -0.1352
  441MOL0     H58189   2.150   5.575   2.723  0.4203 -0.4529 -0.3596
  441MOL0     H58190   1.915   5.390   2.803  0.4572  0.5823  2.0550
  441MOL0     H58191   1.889   5.543   2.711 -1.1564  0.0477  0.5875
  441MOL0     H58192   2.076   5.333   2.605 -0.0134 -0.5368 -2.2657
  441MOL0     H58193   2.015   5.490   2.541 -0.1983 -0.6263  0.2517
  441MOL0     H58194   2.741   5.560   3.200 -4.5039  0.1717  0.1936
  441MOL0     H58195   2.931   5.529   3.304 -0.0111  1.9039 -2.8884
  441MOL0     H58196   3.304   5.699   3.430 -0.1522  0.2151 -0.6204
  441MOL0     H58197   3.543   5.645   3.482  0.6145 -0.3469  0.5906
  441MOL0     H58198   5.136   5.240   3.664  1.0094 -0.0721 -0.3194
  441MOL0     H58199   5.354   5.323   3.649  0.0648  2.0883 -0.3765
  441MOL0     H58200   5.535   5.706   3.385  0.5904 -0.6383 -2.4336
  441MOL0     H58201   5.694   5.865   3.347 -1.9904 -1.3536 -0.9292
  441MOL0     H58202   6.131   5.781   3.441  1.1960  0.1130 -0.6069
  441MOL0     H58203   6.052   5.819   3.599  4.6022 -0.1018  0.7217
  441MOL0     H58204   6.120   6.019   3.377 -1.0476  0.2993 -0.1779
  441MOL0     H58205   6.079   6.058   3.549  0.1088  0.4408  0.1543
  441MOL0     H58206   6.338   5.920   3.464  0.1188  1.2282 -2.1563
  441MOL0     H58207   6.298   6.004   3.621  0.9358  2.4182  0.3333
  441MOL0     H58208   6.457   6.129   3.482 -0.7476 -0.6776  2.3637
  441MOL0     H58209   6.340   6.138   3.354 -0.3733  0.2018  0.3856
  441MOL0     H58210   6.163   6.433   3.562  2.5684  1.4072  1.1891
  441MOL0     H58211   5.997   5.617   3.524  0.2324 -1.3994  0.6808
  441MOL0     H58212   5.828   5.447   3.566 -0.1555  0.3355  1.2346
  442MOL0     O58213   3.436   3.318   8.892  0.0064  0.0439 -0.2119
  442MOL0     C58214   3.472   3.205   8.852  0.0765  0.0486 -0.0130
  442MOL0     O58215   3.395   3.110   8.781 -0.6339  0.2314 -0.2570
  442MOL0     C58216   3.268   3.146   8.745 -0.0352  0.4574 -0.3504
  442MOL0     C58217   3.248   3.202   8.623  0.0256  0.1767 -0.1750
  442MOL0     C58218   3.116   3.239   8.575 -0.3626  1.0753  0.6249
  442MOL0     C58219   3.007   3.208   8.656  0.8401  0.1161  0.5551
  442MOL0     O58220   2.879   3.228   8.601 -0.4780 -0.8514  0.0165
  442MOL0     C58221   2.771   3.218   8.676  0.4428 -0.1223 -0.2909
  442MOL0     C58222   2.643   3.233   8.596 -0.0905 -0.3135  1.1420
  442MOL0     C58223   2.516   3.216   8.693 -0.0273  0.5913  0.5527
  442MOL0     C58224   2.397   3.264   8.616  0.4049 -0.0259 -1.2170
  442MOL0     C58225   2.262   3.253   8.695 -0.2591  0.1912  0.2481
  442MOL0     C58226   2.150   3.303   8.601 -0.6133 -1.1604  1.3943
  442MOL0     C58227   2.016   3.315   8.673 -0.4461  0.6504  0.7912
  442MOL0     C58228   2.006   3.442   8.759 -0.9773 -0.5431 -0.3281
  442MOL0     N58229   1.965   3.557   8.673 -0.2476 -0.1196 -0.5615
  442MOL0     C58230   1.844   3.550   8.618 -0.0712  0.5199 -0.0421
  442MOL0     C58231   1.826   3.665   8.554  0.5502 -0.9940  0.4238
  442MOL0     C58232   1.708   3.721   8.481 -0.2176  0.9485 -0.3687
  442MOL0     C58233   1.618   3.783   8.587 -0.8728 -0.1157  0.9483
  442MOL0     C58234   1.653   3.936   8.609 -0.6431  1.0717 -1.4778
  442MOL0     C58235   1.542   4.018   8.667  0.1518 -0.6619 -0.2260
  442MOL0     O58236   1.496   3.943   8.777 -0.1711 -0.0939 -0.3683
  442MOL0     C58237   1.357   3.936   8.789 -0.3691  0.1163  0.0496
  442MOL0     C58238   1.284   3.817   8.747 -0.3083  0.0443 -0.7973
  442MOL0     C58239   1.152   3.798   8.781 -1.7359 -0.7012 -0.5098
  442MOL0     C58240   1.080   3.900   8.856 -0.6728 -0.8232  0.6303
  442MOL0     C58241   0.940   3.897   8.871  0.1022  0.7197 -0.0674
  442MOL0     O58242   0.881   3.943   8.986  0.6881  0.2304  0.5336
  442MOL0     C58243   0.743   3.943   8.993  0.1985 -0.4937  0.3210
  442MOL0     C58244   0.684   3.896   9.109  0.6010  0.4828  0.5142
  442MOL0     C58245   0.553   3.924   9.137 -0.2458  1.3151 -0.3266
  442MOL0     C58246   0.465   4.000   9.061 -0.2370  0.0726 -0.7145
  442MOL0     O58247   0.335   4.033   9.081 -0.2983  0.2479 -0.3896
  442MOL0     C58248   0.252   3.922   9.118 -0.2604 -0.9700 -0.1468
  442MOL0     C58249   0.102   3.976   9.142  0.6007 -0.5131  0.0510
  442MOL0     C58250   0.006   3.861   9.186 -0.1091 -1.0863  0.5023
  442MOL0     C58251  -0.021   3.752   9.067 -0.5234  0.6148 -0.0812
  442MOL0     C58252  -0.125   3.632   9.088  0.5703 -0.1012 -0.6996
  442MOL0     C58253  -0.259   3.671   9.157 -0.3171 -0.1983 -0.1725
  442MOL0     C58254  -0.350   3.540   9.182  0.8466 -0.0096  0.1128
  442MOL0     C58255  -0.414   3.506   9.047 -0.3859  0.4507  0.1146
  442MOL0    Cl58256  -0.519   3.361   9.083 -0.0226 -0.3895 -0.4397
  442MOL0     C58257   0.518   4.034   8.939 -0.6543 -0.4518  0.2453
  442MOL0     C58258   0.655   4.011   8.904 -0.5755  0.8953  0.2861
  442MOL0     O58259   0.876   3.846   8.778 -0.4224 -0.2737  0.4661
  442MOL0     C58260   1.155   4.015   8.892 -0.5565  0.7667  0.0491
  442MOL0     C58261   1.290   4.033   8.854 -0.5650 -0.3783 -0.2845
  442MOL0     N58262   1.944   3.739   8.565 -0.9612  0.1818 -0.0586
  442MOL0     N58263   2.030   3.671   8.632 -0.1140 -0.1449 -0.0622
  442MOL0     C58264   3.028   3.145   8.780  0.6138  0.1063  0.1517
  442MOL0     C58265   3.161   3.127   8.830  0.1215 -0.6117  0.2281
  442MOL0     C58266   3.602   3.163   8.911 -0.4113 -0.6479 -0.0941
  442MOL0     C58267   3.678   3.251   8.989  0.7627  0.0401 -0.0815
  442MOL0     C58268   3.799   3.215   9.054 -0.0845 -0.2546  0.9714
  442MOL0     C58269   3.828   3.083   9.065  0.0311  1.2184  0.2792
  442MOL0     O58270   3.937   3.050   9.139  0.0958  0.0504 -0.2752
  442MOL0     C58271   3.952   2.921   9.197  0.4799 -0.3733 -0.4931
  442MOL0     C58272   4.094   2.883   9.204  0.5553  0.4220 -0.0700
  442MOL0     C58273   4.125   2.766   9.304 -0.1386  0.1633  0.3937
  442MOL0     C58274   4.262   2.730   9.279 -0.3643 -0.2203  0.2237
  442MOL0     C58275   4.269   2.633   9.169 -0.1187  1.1877 -0.2536
  442MOL0     C58276   4.279   2.546   9.086 -0.5751 -0.6256  0.1880
  442MOL0     C58277   3.757   2.998   8.988 -0.2055  0.3026  0.5100
  442MOL0     C58278   3.652   3.032   8.908 -0.2585  0.3837  0.6622
  442MOL0     H58279   3.341   3.211   8.569  0.5963  0.8521  0.8996
  442MOL0     H58280   3.097   3.268   8.472  2.0972 -0.0604 -0.2357
  442MOL0     H58281   2.777   3.293   8.755 -1.7350 -1.4748  1.2512
  442MOL0     H58282   2.768   3.114   8.712 -1.2331  0.1193  0.3764
  442MOL0     H58283   2.639   3.164   8.511  3.2707  3.2099 -2.2187
  442MOL0     H58284   2.652   3.329   8.545 -0.7266  0.1514  1.8767
  442MOL0     H58285   2.530   3.282   8.779 -0.6722 -0.0044  1.1338
  442MOL0     H58286   2.501   3.112   8.722 -1.9801  0.8004  0.3866
  442MOL0     H58287   2.408   3.367   8.583  0.0174  1.2631  2.2560
  442MOL0     H58288   2.392   3.207   8.523 -1.1638  0.1267 -1.2446
  442MOL0     H58289   2.270   3.312   8.786 -0.4776 -2.6440  2.2128
  442MOL0     H58290   2.260   3.146   8.717 -2.5660  0.0974 -0.2111
  442MOL0     H58291   2.137   3.227   8.524 -0.9750 -1.8331  2.0959
  442MOL0     H58292   2.183   3.391   8.545  0.1404  0.0575  3.6056
  442MOL0     H58293   1.938   3.314   8.597  2.0011  1.9596 -1.9619
  442MOL0     H58294   2.004   3.222   8.730 -2.2237  1.0657  1.1415
  442MOL0     H58295   2.101   3.445   8.812 -0.5925 -3.8997 -0.6305
  442MOL0     H58296   1.918   3.426   8.823 -2.0433 -3.5855 -2.3093
  442MOL0     H58297   1.770   3.471   8.627  0.1671 -0.0098 -2.1202
  442MOL0     H58298   1.652   3.640   8.434  1.3815  0.1946 -1.0380
  442MOL0     H58299   1.731   3.793   8.401  0.2575 -1.5146 -2.5733
  442MOL0     H58300   1.631   3.737   8.685  1.0892 -1.5677  0.0620
  442MOL0     H58301   1.516   3.774   8.547 -1.0489 -0.2514  1.4287
  442MOL0     H58302   1.740   3.951   8.674 -2.2393 -0.9998  1.3566
  442MOL0     H58303   1.678   3.984   8.514  3.7557  0.5276 -0.7895
  442MOL0     H58304   1.468   4.047   8.592  0.0006  0.6646  0.4047
  442MOL0     H58305   1.583   4.112   8.705  0.3060 -0.6808 -0.3459
  442MOL0     H58306   1.339   3.735   8.702 -2.4862 -2.3605  0.6047
  442MOL0     H58307   1.113   3.705   8.741  4.7545 -3.1075 -2.6383
  442MOL0     H58308   0.740   3.841   9.183  0.0180 -0.4944  0.2407
  442MOL0     H58309   0.517   3.882   9.230  1.5613  0.6582  0.1227
  442MOL0     H58310   0.291   3.887   9.214  0.8755 -1.5917 -0.8281
  442MOL0     H58311   0.254   3.840   9.046  2.4084 -1.2100  0.1252
  442MOL0     H58312   0.062   4.004   9.044  3.1974  0.6021 -0.7846
  442MOL0     H58313   0.103   4.047   9.226  0.0182 -1.3417  0.7703
  442MOL0     H58314  -0.093   3.896   9.216 -0.2210 -0.7344 -0.2648
  442MOL0     H58315   0.047   3.814   9.276  1.3527  0.3861  0.6643
  442MOL0     H58316  -0.063   3.798   8.977 -1.5791 -3.6698 -2.0793
  442MOL0     H58317   0.078   3.713   9.042 -1.3105 -0.7713 -1.2328
  442MOL0     H58318  -0.079   3.546   9.137 -0.6240 -0.0500  0.5492
  442MOL0     H58319  -0.157   3.600   8.988 -4.0622  4.8073 -1.2770
  442MOL0     H58320  -0.299   3.742   9.084 -0.9481 -1.7663 -1.4013
  442MOL0     H58321  -0.226   3.712   9.253 -0.4517 -1.2686  0.3413
  442MOL0     H58322  -0.288   3.458   9.220  2.7306  1.7691  1.0840
  442MOL0     H58323  -0.431   3.573   9.247 -0.7100 -1.9254 -0.7466
  442MOL0     H58324  -0.338   3.477   8.974  1.1857 -0.1565  1.9113
  442MOL0     H58325  -0.474   3.590   9.013 -0.4243 -0.5541 -2.5561
  442MOL0     H58326   0.461   4.088   8.864  0.3026 -1.6198 -1.3655
  442MOL0     H58327   0.697   4.057   8.815 -2.0818  0.4228 -0.7162
  442MOL0     H58328   1.111   4.102   8.942 -0.5915  1.3548 -0.9749
  442MOL0     H58329   1.338   4.129   8.868 -0.5200 -0.5943  1.1844
  442MOL0     H58330   2.938   3.113   8.832 -1.3937  0.4356 -2.8797
  442MOL0     H58331   3.188   3.095   8.930  0.8620  0.5224  0.4102
  442MOL0     H58332   3.657   3.357   9.003  0.3639 -0.3026  2.3390
  442MOL0     H58333   3.843   3.292   9.115  2.6804 -0.9025 -0.0747
  442MOL0     H58334   3.897   2.843   9.144  1.7806 -3.3952  2.2450
  442MOL0     H58335   3.916   2.924   9.300 -0.9962 -0.5056 -0.9795
  442MOL0     H58336   4.125   2.845   9.106 -0.4726 -1.4391  0.2905
  442MOL0     H58337   4.161   2.967   9.223  1.4884  0.0041 -1.3832
  442MOL0     H58338   4.055   2.687   9.277 -0.4085  1.2172 -2.3460
  442MOL0     H58339   4.099   2.788   9.408 -0.2590  2.7176 -0.0934
  442MOL0     H58340   4.327   2.814   9.254 -0.1126 -0.5752 -0.3259
  442MOL0     H58341   4.294   2.678   9.370  3.3093  3.6368  1.4618
  442MOL0     H58342   4.276   2.464   9.017  1.7715 -1.3350  0.8577
  442MOL0     H58343   3.778   2.891   8.985 -1.9665 -0.0515 -1.8251
  442MOL0     H58344   3.591   2.962   8.853  2.2004 -1.0702 -0.3824
  443MOL0     O58345   4.624   5.701   5.630 -0.4547 -0.4912  0.2735
  443MOL0     C58346   4.650   5.827   5.649 -0.4655  0.4085 -0.0247
  443MOL0     O58347   4.578   5.923   5.709  0.3892  0.7309  0.3325
  443MOL0     C58348   4.450   5.885   5.748  1.0320 -0.2645 -0.4535
  443MOL0     C58349   4.326   5.931   5.690 -0.6963  0.1335 -0.1006
  443MOL0     C58350   4.207   5.896   5.753  0.7333  0.1701 -0.0691
  443MOL0     C58351   4.210   5.798   5.855  0.1609  0.1005 -0.5869
  443MOL0     O58352   4.085   5.772   5.904 -0.0720  0.5700  0.0098
  443MOL0     C58353   4.071   5.696   6.031 -0.1174 -0.8054  1.0476
  443MOL0     C58354   3.917   5.700   6.056  1.0950 -0.2510  0.3732
  443MOL0     C58355   3.886   5.723   6.199 -0.0611  0.6531 -0.2399
  443MOL0     C58356   3.742   5.676   6.241 -0.0955 -0.3329  0.3939
  443MOL0     C58357   3.720   5.721   6.376  0.4879 -0.6447  0.6459
  443MOL0     C58358   3.599   5.667   6.449  0.1313 -0.0313  0.5539
  443MOL0     C58359   3.584   5.741   6.582  0.7484 -0.5604 -0.2538
  443MOL0     C58360   3.513   5.872   6.577 -0.8974  0.1349  0.8067
  443MOL0     N58361   3.485   5.929   6.703  0.2917 -0.6314 -1.2330
  443MOL0     C58362   3.367   5.990   6.736 -0.9618  0.0439  0.6676
  443MOL0     C58363   3.390   6.040   6.858 -0.7018 -1.3923  0.1194
  443MOL0     C58364   3.281   6.107   6.940 -0.3725  0.3111 -0.2615
  443MOL0     C58365   3.202   6.001   7.024  0.3317  0.5291 -0.5881
  443MOL0     C58366   3.130   5.895   6.928 -0.4737  1.4318 -0.3447
  443MOL0     C58367   3.055   5.796   7.009  0.3182  0.7225  0.3265
  443MOL0     O58368   2.986   5.696   6.935 -0.2641 -0.5724 -0.4273
  443MOL0     C58369   2.850   5.708   6.925 -0.1651  0.4111  0.1840
  443MOL0     C58370   2.764   5.695   7.035  0.0120 -0.2022 -0.3327
  443MOL0     C58371   2.629   5.697   7.026  0.5961 -0.7306  0.2489
  443MOL0     C58372   2.567   5.723   6.896  0.5894 -0.2604  0.0979
  443MOL0     C58373   2.424   5.719   6.876 -0.4667  0.7919 -0.7523
  443MOL0     O58374   2.393   5.720   6.740  0.1541  0.1430 -1.0608
  443MOL0     C58375   2.266   5.745   6.700 -0.0540  0.4023  0.2197
  443MOL0     C58376   2.243   5.727   6.555 -0.4547 -0.6861  0.1975
  443MOL0     C58377   2.115   5.731   6.497 -0.0551 -0.0364 -1.0616
  443MOL0     C58378   2.010   5.773   6.565  0.6236 -0.0201 -0.6598
  443MOL0     O58379   1.895   5.772   6.491 -0.3450 -0.0398  0.2455
  443MOL0     C58380   1.878   5.882   6.397  0.5618 -0.1068  0.4994
  443MOL0     C58381   1.843   6.006   6.473 -0.4395 -0.4137 -0.5163
  443MOL0     C58382   1.695   6.014   6.504 -0.1556  1.1502  0.8132
  443MOL0     C58383   1.650   5.901   6.599  0.4169  0.5771 -0.2675
  443MOL0     C58384   1.498   5.881   6.596  0.1692 -0.1146  0.5606
  443MOL0     C58385   1.460   5.787   6.706 -0.4662 -0.0411 -0.5327
  443MOL0     C58386   1.310   5.745   6.698 -0.3195 -0.2744 -0.7916
  443MOL0     C58387   1.269   5.661   6.827 -0.1365  0.2318  0.3895
  443MOL0    Cl58388   1.344   5.719   6.978  0.0770 -0.2947 -0.1615
  443MOL0     C58389   2.033   5.805   6.699 -0.1789  0.3269  0.7297
  443MOL0     C58390   2.156   5.801   6.761 -1.4556  0.3894 -0.9830
  443MOL0     O58391   2.348   5.722   6.971  0.3750 -0.5671  0.0027
  443MOL0     C58392   2.659   5.749   6.787 -0.1652  0.1055 -0.4992
  443MOL0     C58393   2.797   5.742   6.804  1.3515  0.0242  0.1270
  443MOL0     N58394   3.516   6.026   6.895 -0.0225  1.0712  0.5265
  443MOL0     N58395   3.581   5.954   6.807 -0.4422  0.8564  0.5056
  443MOL0     C58396   4.327   5.754   5.917 -0.6240 -0.4443  0.3771
  443MOL0     C58397   4.446   5.800   5.863  0.3916 -0.6773 -0.3856
  443MOL0     C58398   4.793   5.854   5.635  0.2510 -0.2785  0.1554
  443MOL0     C58399   4.887   5.760   5.582  0.4387 -0.2510 -0.1284
  443MOL0     C58400   5.015   5.799   5.542  0.5670 -0.3763 -0.1782
  443MOL0     C58401   5.047   5.938   5.540  0.7177  0.3352  0.1798
  443MOL0     O58402   5.169   5.970   5.484 -0.6990  0.3072  0.1567
  443MOL0     C58403   5.203   6.110   5.483 -0.0390  0.0296 -0.1718
  443MOL0     C58404   5.335   6.126   5.416 -1.4200  0.6310  0.2892
  443MOL0     C58405   5.351   6.052   5.279  0.1022  0.6247 -1.3876
  443MOL0     C58406   5.478   6.097   5.205 -0.6810  1.0301  0.8046
  443MOL0     C58407   5.600   6.038   5.262 -0.0152  0.5037  0.2441
  443MOL0     C58408   5.691   5.976   5.321  0.4789 -0.3785  0.2958
  443MOL0     C58409   4.959   6.022   5.598 -0.0925 -0.5670 -0.4358
  443MOL0     C58410   4.835   5.988   5.641  0.2832 -0.1577  0.2074
  443MOL0     H58411   4.323   6.012   5.618 -2.0332 -1.3429 -1.7999
  443MOL0     H58412   4.113   5.947   5.739  2.4358  3.0389 -1.8884
  443MOL0     H58413   4.125   5.749   6.110  0.1310 -1.3401  1.2345
  443MOL0     H58414   4.103   5.592   6.029  0.1839 -0.7075  0.1856
  443MOL0     H58415   3.871   5.606   6.024  0.6068 -0.7588  2.4119
  443MOL0     H58416   3.870   5.789   6.014  0.2123 -0.3986  1.0414
  443MOL0     H58417   3.894   5.827   6.230 -0.7127  0.0393  2.2259
  443MOL0     H58418   3.957   5.664   6.258 -0.7116  1.2943  1.2316
  443MOL0     H58419   3.667   5.708   6.168 -0.5810  0.8567  1.3866
  443MOL0     H58420   3.747   5.567   6.232 -1.5418 -0.2542 -3.0125
  443MOL0     H58421   3.695   5.827   6.370 -2.8717 -1.2668  1.5595
  443MOL0     H58422   3.802   5.694   6.443  0.0867 -1.7650  0.7139
  443MOL0     H58423   3.622   5.565   6.482  1.4649  0.9536  2.8793
  443MOL0     H58424   3.510   5.672   6.385 -0.2649 -1.6877  0.9362
  443MOL0     H58425   3.520   5.680   6.647  1.7557  1.9123  3.3109
  443MOL0     H58426   3.682   5.768   6.622  0.8522  0.6063 -1.2198
  443MOL0     H58427   3.413   5.852   6.536 -0.3671 -0.5196 -0.1904
  443MOL0     H58428   3.562   5.951   6.520  0.6719  0.2602  2.2437
  443MOL0     H58429   3.271   5.990   6.685 -0.1410 -0.1992 -0.9410
  443MOL0     H58430   3.212   6.170   6.882 -4.5026 -0.9500  2.8162
  443MOL0     H58431   3.339   6.180   6.999  1.1801 -0.5278 -0.6830
  443MOL0     H58432   3.127   6.048   7.087 -0.0473 -0.3270 -0.3842
  443MOL0     H58433   3.271   5.949   7.091  0.8663 -0.2328 -1.7017
  443MOL0     H58434   3.058   5.942   6.860 -2.5959 -0.3265  0.5616
  443MOL0     H58435   3.201   5.833   6.872 -1.7174 -0.6529  0.2701
  443MOL0     H58436   2.989   5.852   7.076 -1.1349 -0.2226 -0.2551
  443MOL0     H58437   3.122   5.748   7.081  0.3419 -0.4736 -0.4672
  443MOL0     H58438   2.806   5.676   7.132  1.3120  1.0204 -0.6258
  443MOL0     H58439   2.564   5.679   7.111 -1.3563  0.0397 -1.0210
  443MOL0     H58440   2.320   5.684   6.491 -0.8085 -2.4933  0.9315
  443MOL0     H58441   2.104   5.702   6.393  0.8266 -1.4207 -0.7974
  443MOL0     H58442   1.801   5.856   6.323  1.1617  0.5329 -0.3743
  443MOL0     H58443   1.962   5.913   6.334 -1.8703  3.4625 -1.3993
  443MOL0     H58444   1.878   6.092   6.415  0.3569  1.1571  2.1158
  443MOL0     H58445   1.901   6.011   6.566  1.2028  1.8410 -1.5679
  443MOL0     H58446   1.645   6.001   6.408 -1.0183  1.1467  1.2559
  443MOL0     H58447   1.661   6.107   6.550 -4.5012 -0.0619  0.5292
  443MOL0     H58448   1.691   5.804   6.569 -1.1790  0.1254 -1.1250
  443MOL0     H58449   1.679   5.919   6.703  0.1175  1.6486 -0.3661
  443MOL0     H58450   1.472   5.841   6.498 -3.0158 -4.0083  2.6947
  443MOL0     H58451   1.450   5.979   6.602 -1.2941 -0.8489  1.4389
  443MOL0     H58452   1.485   5.845   6.795  1.6942 -1.2150 -0.3234
  443MOL0     H58453   1.524   5.699   6.707  2.5955  2.0208  0.3303
  443MOL0     H58454   1.274   5.848   6.700  1.7539  0.4942  1.4477
  443MOL0     H58455   1.285   5.693   6.605  1.0161 -2.6309  0.0736
  443MOL0     H58456   1.287   5.554   6.808  0.6912  0.7684 -2.2376
  443MOL0     H58457   1.160   5.667   6.839 -0.1690 -1.3436  1.1700
  443MOL0     H58458   1.945   5.825   6.760  0.2003  2.5062  0.6626
  443MOL0     H58459   2.159   5.844   6.860  1.2397 -0.9904 -0.3732
  443MOL0     H58460   2.623   5.772   6.687  1.2553  1.8837 -0.6587
  443MOL0     H58461   2.863   5.746   6.718  0.2942  1.7331 -0.6620
  443MOL0     H58462   4.332   5.688   6.003 -1.8401  0.9822  1.6029
  443MOL0     H58463   4.528   5.751   5.915 -0.6495 -1.4031  0.6192
  443MOL0     H58464   4.862   5.658   5.552  0.5246 -0.0934 -0.7355
  443MOL0     H58465   5.091   5.727   5.513  3.2588  1.3147  2.0594
  443MOL0     H58466   5.211   6.153   5.583  0.5445  2.7883 -1.3081
  443MOL0     H58467   5.129   6.151   5.413 -0.2414 -0.5658 -0.3078
  443MOL0     H58468   5.349   6.233   5.399  0.6661  0.2821 -0.4963
  443MOL0     H58469   5.417   6.093   5.479 -1.6540 -0.4543  0.0414
  443MOL0     H58470   5.261   6.065   5.218 -0.6291 -0.4140 -0.5656
  443MOL0     H58471   5.356   5.945   5.300  2.5955  0.6861 -1.4196
  443MOL0     H58472   5.474   6.033   5.116  3.6863 -0.9040  1.7163
  443MOL0     H58473   5.499   6.203   5.188  1.4647  0.6295  0.6801
  443MOL0     H58474   5.781   5.941   5.367  0.0522 -2.4370 -0.3636
  443MOL0     H58475   4.989   6.125   5.616  0.3757 -0.4282 -1.9084
  443MOL0     H58476   4.775   6.076   5.660 -2.9668 -2.3157  0.8192
  444MOL0     O58477  10.113   7.252   2.110 -0.1132 -0.3787 -0.2005
  444MOL0     C58478  10.197   7.171   2.151  0.9675 -0.5490 -0.1653
  444MOL0     O58479  10.235   7.139   2.279 -0.6327  0.1988  0.5012
  444MOL0     C58480  10.145   7.167   2.376 -0.5380 -0.0319 -0.1425
  444MOL0     C58481  10.120   7.300   2.427 -0.7925  0.4740 -0.1434
  444MOL0     C58482  10.026   7.318   2.528 -0.3474 -0.2312  0.5064
  444MOL0     C58483   9.960   7.208   2.582  0.5307 -0.1264 -0.2181
  444MOL0     O58484   9.865   7.217   2.682  0.4037  0.1054 -0.1967
  444MOL0     C58485   9.874   7.121   2.787  0.1819 -0.6091 -0.0126
  444MOL0     C58486   9.852   7.187   2.919  0.5339 -0.0285 -0.3500
  444MOL0     C58487   9.763   7.109   3.024  0.8868  0.3797  0.0965
  444MOL0     C58488   9.702   7.184   3.147 -0.1191 -0.1441  0.7144
  444MOL0     C58489   9.582   7.249   3.095  0.1709 -0.8487  0.0325
  444MOL0     C58490   9.544   7.347   3.208  0.5684 -0.4737  0.6320
  444MOL0     C58491   9.415   7.423   3.181  0.0393 -0.9599 -0.1180
  444MOL0     C58492   9.288   7.346   3.240  0.4723  0.3251 -0.0620
  444MOL0     N58493   9.164   7.414   3.205  0.0092  0.2118  0.3277
  444MOL0     C58494   9.145   7.532   3.137  0.0365  0.2996 -0.5358
  444MOL0     C58495   9.022   7.571   3.184  0.6995 -0.1407 -0.6040
  444MOL0     C58496   8.964   7.706   3.149  0.0442  0.0753  0.1706
  444MOL0     C58497   8.923   7.792   3.266 -0.4576  1.4983  0.5485
  444MOL0     C58498   9.046   7.822   3.347 -0.4839  0.0665 -0.6990
  444MOL0     C58499   9.104   7.957   3.294 -1.1265 -0.4265  0.4896
  444MOL0     O58500   9.185   8.027   3.385  0.3232  0.4935 -0.1537
  444MOL0     C58501   9.123   8.125   3.464  0.0764 -0.2165  0.7348
  444MOL0     C58502   8.980   8.146   3.486  0.2806  0.2538 -1.2541
  444MOL0     C58503   8.941   8.233   3.585  0.5667  1.0408  0.6330
  444MOL0     C58504   9.032   8.314   3.660  0.5899  0.1000 -0.4147
  444MOL0     C58505   8.989   8.404   3.773 -0.2946  0.7418  0.1506
  444MOL0     O58506   8.849   8.444   3.761  0.1467  0.5715  0.0132
  444MOL0     C58507   8.797   8.523   3.854 -0.5171 -0.0148  0.4613
  444MOL0     C58508   8.656   8.523   3.865 -0.2566 -1.6765 -0.1697
  444MOL0     C58509   8.590   8.636   3.922  0.1360 -0.1825 -0.3780
  444MOL0     C58510   8.659   8.726   4.007  0.5836 -0.3807 -0.4060
  444MOL0     O58511   8.600   8.824   4.084  0.2582  0.5078  0.1126
  444MOL0     C58512   8.466   8.864   4.070 -0.0071 -0.0474 -0.2335
  444MOL0     C58513   8.428   8.932   3.937 -0.8927  0.4571 -0.8494
  444MOL0     C58514   8.277   8.969   3.910 -0.2478 -0.2633  0.7105
  444MOL0     C58515   8.261   9.020   3.768  0.8699  0.3046 -0.1672
  444MOL0     C58516   8.121   9.063   3.741  0.6288  1.0215 -0.6753
  444MOL0     C58517   8.089   9.134   3.609 -0.0017  0.0696  0.2538
  444MOL0     C58518   8.015   9.265   3.622  0.0780 -0.2234  0.5562
  444MOL0     C58519   7.980   9.312   3.478 -0.8921 -0.0106  0.1741
  444MOL0    Cl58520   8.134   9.359   3.384  0.3855  0.2221  0.0885
  444MOL0     C58521   8.800   8.716   4.008  0.0386  0.0931  0.4191
  444MOL0     C58522   8.867   8.617   3.933  0.4017 -0.4633  0.1685
  444MOL0     O58523   9.075   8.435   3.857  0.0060  0.1935  0.2288
  444MOL0     C58524   9.171   8.285   3.645 -0.1527  0.2481  0.4375
  444MOL0     C58525   9.213   8.199   3.546  0.2853  0.2168 -0.8657
  444MOL0     N58526   8.971   7.470   3.269 -0.6784  0.2516  0.4496
  444MOL0     N58527   9.055   7.382   3.278  0.0066 -0.4030  0.3137
  444MOL0     C58528   9.981   7.081   2.527 -0.2186 -0.0099 -0.2308
  444MOL0     C58529  10.069   7.061   2.422 -0.6723 -0.3498  0.6380
  444MOL0     C58530  10.263   7.088   2.048 -0.2932 -0.4304 -0.0740
  444MOL0     C58531  10.282   6.949   2.079  0.8784  0.7288  0.5091
  444MOL0     C58532  10.346   6.859   1.981  0.4506 -0.1823  0.0317
  444MOL0     C58533  10.373   6.907   1.853 -0.6028 -1.2006 -0.5129
  444MOL0     O58534  10.426   6.839   1.753 -0.5025  0.2402  0.7647
  444MOL0     C58535  10.504   6.729   1.797  0.1190 -0.6831 -0.4178
  444MOL0     C58536  10.590   6.652   1.692  0.4196  0.1648 -0.2614
  444MOL0     C58537  10.683   6.753   1.624 -0.2014 -0.0618  0.2483
  444MOL0     C58538  10.763   6.700   1.511  0.3720  1.0560  0.0692
  444MOL0     C58539  10.862   6.608   1.571  0.3900  0.7761  0.0043
  444MOL0     C58540  10.931   6.519   1.620 -0.5242  0.4130 -0.0040
  444MOL0     C58541  10.352   7.039   1.824  0.2558 -0.2048  0.6948
  444MOL0     C58542  10.306   7.131   1.919  0.0487 -0.1306 -1.3425
  444MOL0     H58543  10.176   7.376   2.373  1.4599 -2.3371 -2.0597
  444MOL0     H58544   9.993   7.417   2.561  1.6127  0.6330 -0.0043
  444MOL0     H58545   9.980   7.093   2.793 -0.1628 -1.7857  1.0992
  444MOL0     H58546   9.806   7.036   2.776 -0.1303 -0.1821 -1.5283
  444MOL0     H58547   9.805   7.285   2.908  0.9334  0.0254 -1.8059
  444MOL0     H58548   9.945   7.209   2.973 -0.2641 -1.5146  1.7873
  444MOL0     H58549   9.828   7.032   3.066 -0.2135 -1.2540 -1.0868
  444MOL0     H58550   9.683   7.073   2.959  1.5165  1.0107 -1.0764
  444MOL0     H58551   9.680   7.119   3.232 -0.1408 -1.8292 -0.5351
  444MOL0     H58552   9.782   7.257   3.162  1.0976 -0.7432 -2.2097
  444MOL0     H58553   9.502   7.177   3.075 -0.5013  0.0977 -0.7645
  444MOL0     H58554   9.601   7.304   3.002 -1.3939  1.1827  0.8340
  444MOL0     H58555   9.626   7.414   3.235 -1.5751  2.4360  0.3668
  444MOL0     H58556   9.537   7.300   3.307 -0.3430  1.6146  1.6246
  444MOL0     H58557   9.430   7.519   3.232  2.3654 -0.7455 -1.0482
  444MOL0     H58558   9.407   7.446   3.074  3.2294 -0.0675 -0.2732
  444MOL0     H58559   9.287   7.344   3.349 -2.0201 -0.7252 -0.0275
  444MOL0     H58560   9.268   7.244   3.206 -1.6783 -0.6233  3.5102
  444MOL0     H58561   9.218   7.595   3.089 -1.1745  3.2818  1.2615
  444MOL0     H58562   8.871   7.691   3.094 -0.2223  2.3170 -0.0734
  444MOL0     H58563   9.027   7.763   3.081 -2.2502  0.6844 -1.5640
  444MOL0     H58564   8.849   7.740   3.328 -1.5856  1.4460 -0.8132
  444MOL0     H58565   8.867   7.881   3.236 -1.8467  0.3255 -0.4479
  444MOL0     H58566   9.008   7.838   3.448 -1.6249  0.7329 -1.2143
  444MOL0     H58567   9.130   7.753   3.358 -0.0383  0.8950  1.7106
  444MOL0     H58568   9.041   8.024   3.235 -0.5009  1.2079  1.5795
  444MOL0     H58569   9.178   7.921   3.222  0.6373 -0.3101  2.1487
  444MOL0     H58570   8.905   8.105   3.419 -1.8691  1.6321  0.1817
  444MOL0     H58571   8.834   8.246   3.598  0.4687  0.3477  0.5932
  444MOL0     H58572   8.598   8.447   3.815  0.7045 -1.8027 -1.1153
  444MOL0     H58573   8.482   8.639   3.909  0.2091  2.5632 -1.0310
  444MOL0     H58574   8.449   8.929   4.157  0.7023 -1.6469  1.1590
  444MOL0     H58575   8.406   8.773   4.079 -0.4663  0.1741 -0.9705
  444MOL0     H58576   8.471   8.882   3.850  1.4716  1.0775 -0.1150
  444MOL0     H58577   8.477   9.030   3.943  0.2683 -0.1804  1.1393
  444MOL0     H58578   8.224   9.040   3.975  0.2246  2.4216 -1.6603
  444MOL0     H58579   8.224   8.874   3.909 -1.1007  0.2063 -0.7063
  444MOL0     H58580   8.321   9.107   3.740  0.3188  1.2635  1.4704
  444MOL0     H58581   8.291   8.946   3.693 -0.7998 -1.5690  0.9194
  444MOL0     H58582   8.097   9.141   3.814 -0.1833  0.4529 -0.3147
  444MOL0     H58583   8.052   8.980   3.758  1.4377  0.3168 -0.7778
  444MOL0     H58584   8.037   9.058   3.550 -1.9148 -1.4626  3.6017
  444MOL0     H58585   8.186   9.171   3.577 -0.9396  1.6124 -0.9779
  444MOL0     H58586   7.918   9.248   3.670  0.2071  0.2912  1.0137
  444MOL0     H58587   8.073   9.341   3.675 -2.3840  3.7108 -1.8367
  444MOL0     H58588   7.911   9.397   3.475  1.1644  1.7094 -1.4703
  444MOL0     H58589   7.920   9.235   3.430  0.9033 -0.8589 -0.7796
  444MOL0     H58590   8.871   8.784   4.053 -0.8982  1.1562  0.3299
  444MOL0     H58591   8.974   8.631   3.928  0.3067 -0.1028 -1.3931
  444MOL0     H58592   9.239   8.350   3.699 -0.5137  3.6639 -2.8081
  444MOL0     H58593   9.320   8.183   3.532  0.2603 -0.7904 -0.0201
  444MOL0     H58594   9.927   6.999   2.573  3.8040 -2.8674 -0.0547
  444MOL0     H58595  10.070   6.967   2.369 -2.7383  0.0831 -0.2670
  444MOL0     H58596  10.244   6.898   2.167  0.0548  0.0618 -0.2124
  444MOL0     H58597  10.359   6.755   2.009  0.1650  0.4945  2.9355
  444MOL0     H58598  10.430   6.653   1.825  0.8850 -1.4576 -0.4727
  444MOL0     H58599  10.566   6.763   1.881  0.7160 -0.7971 -0.8091
  444MOL0     H58600  10.641   6.562   1.727 -1.9641 -1.0939  0.1926
  444MOL0     H58601  10.524   6.610   1.616  0.1091 -0.9963  0.6245
  444MOL0     H58602  10.752   6.795   1.697  0.3434  0.9968 -0.8332
  444MOL0     H58603  10.617   6.831   1.584  0.6244 -0.0612 -1.1884
  444MOL0     H58604  10.697   6.646   1.443 -1.2946  2.5805  0.4140
  444MOL0     H58605  10.817   6.779   1.458  2.6031  1.3962  2.6034
  444MOL0     H58606  10.997   6.438   1.644 -1.1642 -0.4087 -0.9384
  444MOL0     H58607  10.390   7.081   1.732  0.6002 -1.9363  0.0150
  444MOL0     H58608  10.281   7.233   1.894 -1.9634 -0.1764  0.2118
  445MOL0     O58609   0.666  10.245   7.549 -0.0504 -0.3764  0.7279
  445MOL0     C58610   0.622  10.296   7.444 -0.0279 -0.0151  0.4985
  445MOL0     O58611   0.491  10.282   7.400  0.0489  0.1301 -0.7665
  445MOL0     C58612   0.398  10.205   7.455 -0.0702  0.4778 -0.5131
  445MOL0     C58613   0.272  10.246   7.440  0.4664 -0.2893  0.8079
  445MOL0     C58614   0.169  10.178   7.501  0.5638  0.3246  1.0249
  445MOL0     C58615   0.195  10.061   7.583 -0.0230  0.1695 -0.9272
  445MOL0     O58616   0.089   9.996   7.647  0.0424  0.0089  0.0784
  445MOL0     C58617   0.097   9.881   7.734 -0.0105  0.1589 -0.1992
  445MOL0     C58618  -0.025   9.867   7.834  0.4885 -0.2049  0.6233
  445MOL0     C58619  -0.153   9.837   7.757  0.5328 -0.7238 -0.2196
  445MOL0     C58620  -0.165   9.698   7.717  0.4342  0.0836 -0.0419
  445MOL0     C58621  -0.284   9.682   7.624  0.5279 -0.3420  0.8909
  445MOL0     C58622  -0.422   9.681   7.685  0.1660  0.7581 -0.4809
  445MOL0     C58623  -0.525   9.660   7.574 -0.6948  0.8998 -0.1734
  445MOL0     C58624  -0.667   9.659   7.625 -0.0977  0.5575  1.0275
  445MOL0     N58625  -0.769   9.673   7.527 -0.3282  0.0121  0.0537
  445MOL0     C58626  -0.889   9.603   7.533  0.4920 -0.8385 -0.3187
  445MOL0     C58627  -0.944   9.629   7.408  0.4278  0.3107  0.2040
  445MOL0     C58628  -1.076   9.565   7.363  0.8344 -0.3484 -0.8136
  445MOL0     C58629  -1.203   9.647   7.403  0.5727 -0.1994  0.6135
  445MOL0     C58630  -1.313   9.583   7.323 -0.3899 -0.2914 -0.2059
  445MOL0     C58631  -1.451   9.630   7.368 -0.1343 -0.9069  0.3282
  445MOL0     O58632  -1.547   9.556   7.281 -1.0094  0.3703 -0.8939
  445MOL0     C58633  -1.679   9.558   7.315  0.1657 -0.2996 -0.8162
  445MOL0     C58634  -1.760   9.477   7.238  0.2013  0.5067 -0.4724
  445MOL0     C58635  -1.898   9.474   7.261  0.5217 -0.3729  0.0707
  445MOL0     C58636  -1.955   9.553   7.368 -0.4977 -0.2281 -0.5020
  445MOL0     C58637  -2.100   9.552   7.399  0.1530  0.4207  0.3150
  445MOL0     O58638  -2.170   9.440   7.363 -0.4776 -0.0427  0.3798
  445MOL0     C58639  -2.304   9.415   7.388  0.2338 -0.4590  0.1110
  445MOL0     C58640  -2.351   9.299   7.322  0.6887  0.6678 -0.1237
  445MOL0     C58641  -2.487   9.272   7.312  0.0650  0.0439 -0.6461
  445MOL0     C58642  -2.582   9.361   7.381  0.0358  0.3507 -0.1841
  445MOL0     O58643  -2.712   9.323   7.389 -0.1436 -0.4476  0.1549
  445MOL0     C58644  -2.808   9.424   7.420  0.0155 -0.7082  0.2139
  445MOL0     C58645  -2.940   9.358   7.398  0.3738 -0.4397 -0.3689
  445MOL0     C58646  -3.048   9.457   7.438  0.4720  0.1077  0.4577
  445MOL0     C58647  -3.185   9.396   7.442  0.4441  0.5477 -0.5578
  445MOL0     C58648  -3.281   9.492   7.491  1.1341 -0.0007  0.1448
  445MOL0     C58649  -3.414   9.417   7.509  0.0918  0.1631 -0.4901
  445MOL0     C58650  -3.516   9.504   7.589  0.2672 -0.5829 -0.0675
  445MOL0     C58651  -3.646   9.417   7.606  0.3423 -0.4541 -0.0243
  445MOL0    Cl58652  -3.773   9.521   7.679 -0.5450  0.3190  0.5537
  445MOL0     C58653  -2.532   9.479   7.438  0.8110  0.0109  0.5422
  445MOL0     C58654  -2.398   9.501   7.443 -0.8158 -1.1097  0.0817
  445MOL0     O58655  -2.139   9.632   7.478 -0.3439  0.0791 -0.3440
  445MOL0     C58656  -1.871   9.635   7.449  0.0753  0.0529  0.1297
  445MOL0     C58657  -1.734   9.629   7.420 -0.6690 -0.4438  0.0669
  445MOL0     N58658  -0.858   9.704   7.342 -0.3712  0.5572  1.3720
  445MOL0     N58659  -0.747   9.719   7.407 -1.0067 -0.4039 -0.1015
  445MOL0     C58660   0.328  10.015   7.588  0.5267  0.8586  0.5400
  445MOL0     C58661   0.431  10.084   7.527 -0.4951  0.4946 -0.2927
  445MOL0     C58662   0.715  10.383   7.371  0.4339 -0.2663  0.3152
  445MOL0     C58663   0.677  10.459   7.261 -1.0782  0.4995  0.5015
  445MOL0     C58664   0.759  10.561   7.204  0.2658  1.4611  0.7743
  445MOL0     C58665   0.878  10.592   7.263 -0.5656 -0.0938 -0.4919
  445MOL0     O58666   0.946  10.698   7.211  0.8710 -0.3150  0.6429
  445MOL0     C58667   1.049  10.766   7.288 -0.2759  0.7823 -0.4094
  445MOL0     C58668   1.125  10.859   7.188 -0.1660 -0.3097 -0.0510
  445MOL0     C58669   1.267  10.904   7.233 -0.3133  0.7214  0.5178
  445MOL0     C58670   1.332  10.995   7.126 -0.1280  0.3638 -0.5182
  445MOL0     C58671   1.333  11.142   7.150  0.1726 -0.7001 -0.5605
  445MOL0     C58672   1.328  11.340   7.181 -0.0721  0.0994 -0.2698
  445MOL0     C58673   0.919  10.516   7.379  0.0323  0.3876 -0.4309
  445MOL0     C58674   0.837  10.412   7.430 -0.0323 -0.6611  0.1110
  445MOL0     H58675   0.251  10.309   7.354  1.8006  0.9201  1.3116
  445MOL0     H58676   0.068  10.212   7.481  0.0662 -0.6984  1.6782
  445MOL0     H58677   0.192   9.885   7.788  0.0053  0.8644 -0.2671
  445MOL0     H58678   0.106   9.795   7.667  1.9244 -0.8462  1.2648
  445MOL0     H58679  -0.046   9.958   7.890  3.3023 -0.4728  2.2970
  445MOL0     H58680  -0.018   9.797   7.918  1.7236 -0.6828  0.1373
  445MOL0     H58681  -0.174   9.897   7.669 -1.4336 -0.7355  0.1914
  445MOL0     H58682  -0.230   9.856   7.832  0.9887 -2.7408  0.8418
  445MOL0     H58683  -0.071   9.658   7.678 -1.1357 -1.3707 -2.5706
  445MOL0     H58684  -0.191   9.640   7.806  0.2529  0.6641  0.2894
  445MOL0     H58685  -0.271   9.590   7.566 -0.8391  0.4927 -0.8209
  445MOL0     H58686  -0.282   9.766   7.554  0.9913  0.3306  1.7000
  445MOL0     H58687  -0.441   9.781   7.727  3.0802  0.7752  1.0466
  445MOL0     H58688  -0.434   9.621   7.776 -1.4797  2.7211  0.7074
  445MOL0     H58689  -0.507   9.742   7.503  1.7462  1.6389  1.1819
  445MOL0     H58690  -0.507   9.564   7.525  0.3690  1.1343 -0.2630
  445MOL0     H58691  -0.693   9.748   7.683 -1.1317  2.3284 -1.8689
  445MOL0     H58692  -0.687   9.570   7.685 -1.5610 -1.3055 -1.9548
  445MOL0     H58693  -0.923   9.550   7.621  1.2283 -2.5896 -1.0492
  445MOL0     H58694  -1.087   9.473   7.420  0.9389 -1.0851 -1.9519
  445MOL0     H58695  -1.074   9.534   7.258 -0.2596  2.3344 -1.7167
  445MOL0     H58696  -1.196   9.753   7.374  0.9526 -0.6684 -1.1557
  445MOL0     H58697  -1.232   9.642   7.508 -1.2732  2.0405  0.2974
  445MOL0     H58698  -1.300   9.599   7.216  1.7083 -0.2836  0.0069
  445MOL0     H58699  -1.298   9.476   7.337  0.8100 -0.3649 -1.7946
  445MOL0     H58700  -1.464   9.738   7.351  3.2394 -0.6647 -1.6482
  445MOL0     H58701  -1.466   9.597   7.471  0.2964  1.0060  1.0495
  445MOL0     H58702  -1.711   9.415   7.164  0.9290  0.9016 -0.3252
  445MOL0     H58703  -1.965   9.408   7.208  1.2862 -2.3881  1.4629
  445MOL0     H58704  -2.279   9.242   7.263 -0.5642  0.4625 -1.4967
  445MOL0     H58705  -2.509   9.187   7.249  0.5751  0.1930 -1.0387
  445MOL0     H58706  -2.806   9.514   7.359  0.5133 -0.4283  0.6378
  445MOL0     H58707  -2.800   9.449   7.526 -1.3813  1.9081 -0.2218
  445MOL0     H58708  -2.948   9.273   7.466  0.1490  0.2426  0.4815
  445MOL0     H58709  -2.954   9.320   7.297 -1.9905 -1.9756  0.4602
  445MOL0     H58710  -3.044   9.544   7.370  1.6122  0.1031  0.4915
  445MOL0     H58711  -3.025   9.499   7.536 -1.0027  2.4803 -0.1364
  445MOL0     H58712  -3.219   9.344   7.352  0.7970 -1.1011  0.2312
  445MOL0     H58713  -3.181   9.317   7.518 -0.9497  1.5014  0.5722
  445MOL0     H58714  -3.308   9.575   7.425  0.2307 -0.0001  0.5011
  445MOL0     H58715  -3.253   9.522   7.592  2.1269 -1.8066  0.4596
  445MOL0     H58716  -3.403   9.321   7.560 -2.7551  1.3691  2.8322
  445MOL0     H58717  -3.456   9.387   7.413  1.0849 -1.0986 -0.5461
  445MOL0     H58718  -3.474   9.541   7.682 -0.9867  4.1518 -1.1271
  445MOL0     H58719  -3.543   9.594   7.532  0.1446  0.0721  0.9975
  445MOL0     H58720  -3.614   9.332   7.667  1.8850 -0.3022 -0.5781
  445MOL0     H58721  -3.674   9.370   7.512  2.5792 -0.7336 -0.5950
  445MOL0     H58722  -2.588   9.566   7.473  0.4770 -0.1432  0.3984
  445MOL0     H58723  -2.367   9.597   7.483  2.7025 -0.6869 -3.1439
  445MOL0     H58724  -1.911   9.690   7.533  1.7050  1.4892  0.0094
  445MOL0     H58725  -1.673   9.701   7.473 -0.6148  0.0306 -0.6392
  445MOL0     H58726   0.347   9.922   7.640  2.0399  1.2521  0.7304
  445MOL0     H58727   0.531  10.042   7.538 -1.1565 -1.0893 -0.1363
  445MOL0     H58728   0.578  10.445   7.218 -0.3298  3.0305 -2.3932
  445MOL0     H58729   0.731  10.624   7.120 -1.9892 -2.6068 -1.8225
  445MOL0     H58730   1.121  10.694   7.328 -1.7236 -0.6636 -0.3229
  445MOL0     H58731   1.002  10.826   7.366  0.7491  2.3980 -0.9771
  445MOL0     H58732   1.140  10.806   7.094 -0.9919 -1.4655  0.4529
  445MOL0     H58733   1.062  10.943   7.156  1.0762 -0.5202 -3.5008
  445MOL0     H58734   1.331  10.818   7.258 -0.0019  1.3263  1.9034
  445MOL0     H58735   1.258  10.971   7.318 -0.8753  1.3868 -0.0528
  445MOL0     H58736   1.434  10.958   7.110  0.0704  0.8465 -0.4038
  445MOL0     H58737   1.272  10.991   7.035 -0.3035  3.5302 -0.6577
  445MOL0     H58738   1.319  11.446   7.189 -2.5548 -0.0343 -0.5517
  445MOL0     H58739   1.017  10.536   7.423 -0.2360  3.1349 -0.8976
  445MOL0     H58740   0.881  10.349   7.507 -0.5895 -0.1773  0.8424
  446MOL0     O58741   7.144  10.090   3.092  0.5128 -0.6142  0.4154
  446MOL0     C58742   7.147  10.203   3.144  0.0314 -0.5326 -0.5546
  446MOL0     O58743   7.040  10.283   3.176 -0.1899  0.3155  0.1964
  446MOL0     C58744   6.903  10.252   3.165  0.2608 -0.7224  0.1806
  446MOL0     C58745   6.813  10.335   3.249 -0.9972 -0.4990  0.2283
  446MOL0     C58746   6.681  10.312   3.254  0.7395 -0.1486 -0.7457
  446MOL0     C58747   6.618  10.222   3.159 -0.3284  0.2748 -1.3795
  446MOL0     O58748   6.484  10.226   3.146  0.6653  0.6672 -0.2335
  446MOL0     C58749   6.423  10.142   3.041  0.4237 -0.1408  0.2485
  446MOL0     C58750   6.276  10.177   3.019 -0.3710  0.0548 -0.8328
  446MOL0     C58751   6.223  10.079   2.919 -0.4030  0.2683  0.1060
  446MOL0     C58752   6.079  10.118   2.887 -0.1659 -0.0709  0.8400
  446MOL0     C58753   5.969  10.129   3.000 -0.1234  0.4117  0.4068
  446MOL0     C58754   5.840  10.160   2.921 -0.1420 -0.0745  0.3644
  446MOL0     C58755   5.711  10.158   2.999 -0.2349  0.2983 -0.2940
  446MOL0     C58756   5.578  10.163   2.926  0.0402  0.0406 -0.3346
  446MOL0     N58757   5.572  10.044   2.838 -0.1408 -0.0389  0.1798
  446MOL0     C58758   5.551   9.919   2.896  0.0797  0.5928  0.9313
  446MOL0     C58759   5.535   9.843   2.781  0.6651  0.8005 -0.3587
  446MOL0     C58760   5.485   9.704   2.773  0.6977  0.0447 -0.5408
  446MOL0     C58761   5.353   9.689   2.684 -0.4423 -0.1743  0.7310
  446MOL0     C58762   5.323   9.554   2.640  0.7546  0.5542  0.6339
  446MOL0     C58763   5.303   9.443   2.749 -0.1902  0.5568  0.1923
  446MOL0     O58764   5.225   9.500   2.862  0.4798 -0.1895  0.6362
  446MOL0     C58765   5.108   9.437   2.898  0.6918 -0.4391  0.5035
  446MOL0     C58766   5.024   9.381   2.810  0.4308  0.1521 -0.8098
  446MOL0     C58767   4.906   9.326   2.867  0.2090  0.0958 -0.1140
  446MOL0     C58768   4.882   9.301   3.000  0.6314 -0.3059  0.6388
  446MOL0     C58769   4.760   9.241   3.049 -0.3820 -0.4744  0.2582
  446MOL0     O58770   4.699   9.146   2.978  1.1246 -0.1648  0.5951
  446MOL0     C58771   4.585   9.085   3.013  0.0611 -0.4287 -0.9668
  446MOL0     C58772   4.477   9.144   3.080 -1.0125  0.0571 -0.6110
  446MOL0     C58773   4.363   9.071   3.103  0.6529  0.4468  0.4282
  446MOL0     C58774   4.350   8.937   3.082  1.1224  0.7286  0.1617
  446MOL0     O58775   4.238   8.863   3.085 -0.7506 -0.3852  0.6108
  446MOL0     C58776   4.164   8.868   2.963 -0.3291 -0.1868 -0.5328
  446MOL0     C58777   4.026   8.803   2.981 -0.1702  0.1082  0.2112
  446MOL0     C58778   4.043   8.654   2.984  1.0855  1.3926 -0.0317
  446MOL0     C58779   3.908   8.588   3.027 -0.0582 -1.0471  0.3730
  446MOL0     C58780   3.928   8.438   3.051  0.1939 -0.3059  0.4395
  446MOL0     C58781   3.803   8.377   3.103 -0.5236 -0.4013  0.6381
  446MOL0     C58782   3.669   8.391   3.023  0.0938 -0.6572 -0.2547
  446MOL0     C58783   3.572   8.291   3.065  0.7048  0.4251  0.4577
  446MOL0    Cl58784   3.415   8.320   2.985 -0.0805  0.1636 -0.1139
  446MOL0     C58785   4.456   8.885   3.011  0.1195  0.5645  0.0615
  446MOL0     C58786   4.577   8.954   2.981 -0.8738  0.4710 -0.2815
  446MOL0     O58787   4.729   9.284   3.164 -0.4227 -0.1016  0.3354
  446MOL0     C58788   4.982   9.350   3.090 -0.3568 -0.1582 -0.0689
  446MOL0     C58789   5.097   9.420   3.031 -1.1594 -0.0161 -0.3073
  446MOL0     N58790   5.558   9.910   2.672  0.1434 -0.4836  0.3431
  446MOL0     N58791   5.566  10.037   2.702 -0.3870  0.5641  0.0341
  446MOL0     C58792   6.699  10.136   3.084 -0.4679  0.8138  0.2851
  446MOL0     C58793   6.842  10.150   3.097  0.0333 -0.4883 -0.2400
  446MOL0     C58794   7.280  10.262   3.179 -0.1900 -0.4926 -0.3806
  446MOL0     C58795   7.285  10.390   3.253  0.4587  0.7468  0.2324
  446MOL0     C58796   7.409  10.444   3.282 -0.1556 -0.6250 -1.0126
  446MOL0     C58797   7.524  10.390   3.234 -0.4755 -0.3989  0.7662
  446MOL0     O58798   7.655  10.435   3.258  0.1961  0.4887  0.6151
  446MOL0     C58799   7.679  10.545   3.347 -0.0239 -0.0004  0.3411
  446MOL0     C58800   7.662  10.677   3.272 -1.2934 -0.1455 -0.3692
  446MOL0     C58801   7.640  10.794   3.369 -1.0676  0.3610  0.0271
  446MOL0     C58802   7.641  10.932   3.301  0.4587  0.2921  0.4621
  446MOL0     C58803   7.524  10.952   3.217  0.3805 -0.0047 -0.5708
  446MOL0     C58804   7.421  10.960   3.145 -0.4933 -0.4115 -0.9161
  446MOL0     C58805   7.520  10.266   3.163  0.2001 -0.6818 -0.3672
  446MOL0     C58806   7.401  10.200   3.128 -0.1428 -0.0195 -0.1717
  446MOL0     H58807   6.851  10.413   3.315 -1.9688 -1.9390  2.6142
  446MOL0     H58808   6.613  10.362   3.322 -1.7058 -1.1456 -2.3234
  446MOL0     H58809   6.441  10.036   3.061  2.1916 -0.1947 -1.3238
  446MOL0     H58810   6.466  10.177   2.947 -1.1568  0.4659 -0.2760
  446MOL0     H58811   6.277  10.281   2.985  1.7753  1.0740  1.8932
  446MOL0     H58812   6.227  10.161   3.116 -0.2586 -0.8560 -0.9255
  446MOL0     H58813   6.221   9.983   2.973 -0.3973  0.5984  0.7068
  446MOL0     H58814   6.289  10.087   2.833  1.1477 -1.8333  1.0211
  446MOL0     H58815   6.073  10.203   2.820  1.1445 -1.6642 -1.4214
  446MOL0     H58816   6.042  10.034   2.828  1.3607 -0.4461  0.3745
  446MOL0     H58817   5.990  10.206   3.075  1.7465  0.7675 -0.4424
  446MOL0     H58818   5.966  10.031   3.049  0.4540 -1.1135 -2.4063
  446MOL0     H58819   5.830  10.099   2.832 -1.8209 -0.4754  0.8007
  446MOL0     H58820   5.859  10.257   2.874 -1.2960 -0.4975 -1.0082
  446MOL0     H58821   5.722  10.061   3.048  0.3397 -0.5419 -1.9971
  446MOL0     H58822   5.713  10.239   3.073 -1.0471  0.2926 -0.2558
  446MOL0     H58823   5.576  10.262   2.879 -3.8751 -0.3533 -1.3739
  446MOL0     H58824   5.490  10.174   2.991 -0.7166  3.8504 -1.6949
  446MOL0     H58825   5.539   9.896   3.001  0.2279 -0.1739  0.7819
  446MOL0     H58826   5.474   9.670   2.877 -0.9872  0.0891 -0.6783
  446MOL0     H58827   5.563   9.643   2.728 -0.4707 -1.7643 -0.2139
  446MOL0     H58828   5.364   9.750   2.594  1.6998 -0.9907  0.3724
  446MOL0     H58829   5.266   9.734   2.733 -2.7783 -0.3354 -2.8843
  446MOL0     H58830   5.223   9.556   2.594  0.8965  3.2188  0.3117
  446MOL0     H58831   5.395   9.531   2.562 -2.9853  0.5514 -3.1979
  446MOL0     H58832   5.402   9.422   2.791 -0.4078 -1.2693 -0.1324
  446MOL0     H58833   5.263   9.357   2.695 -0.9395  1.9322 -1.5391
  446MOL0     H58834   5.042   9.383   2.703  2.3735  0.5486 -0.5222
  446MOL0     H58835   4.817   9.305   2.809 -0.5975  1.7354  0.4886
  446MOL0     H58836   4.493   9.243   3.123 -0.3536 -0.3231  0.0497
  446MOL0     H58837   4.277   9.115   3.152  1.5275  2.9845 -0.1316
  446MOL0     H58838   4.217   8.812   2.886 -0.2290  0.3595 -0.8676
  446MOL0     H58839   4.158   8.970   2.924  1.7330 -0.9555 -3.1894
  446MOL0     H58840   3.970   8.820   2.889  2.2594  2.5589 -0.9846
  446MOL0     H58841   3.974   8.831   3.073 -1.8230 -2.6858  0.2111
  446MOL0     H58842   4.121   8.615   3.050  0.2528  1.0253  0.7610
  446MOL0     H58843   4.076   8.626   2.884 -2.2352  1.1108 -1.1765
  446MOL0     H58844   3.882   8.635   3.123 -2.2479  1.5714 -1.3486
  446MOL0     H58845   3.834   8.612   2.950  2.0811 -0.1060 -1.4947
  446MOL0     H58846   4.002   8.420   3.130  0.9809 -0.4400 -0.3078
  446MOL0     H58847   3.960   8.389   2.958 -0.9892 -2.1316  0.9575
  446MOL0     H58848   3.782   8.417   3.202  2.0918 -2.6473  2.2196
  446MOL0     H58849   3.819   8.270   3.120  0.3634 -0.6278 -1.3031
  446MOL0     H58850   3.623   8.489   3.037 -1.2110 -0.9319 -2.2596
  446MOL0     H58851   3.686   8.389   2.915  0.4358  3.1349 -0.4142
  446MOL0     H58852   3.553   8.300   3.172  0.6789 -2.0776  0.7168
  446MOL0     H58853   3.600   8.188   3.044 -0.7952 -0.1400  1.0547
  446MOL0     H58854   4.444   8.781   2.982 -0.1567  0.9508 -1.2920
  446MOL0     H58855   4.662   8.914   2.928  1.6586 -1.1062  4.4259
  446MOL0     H58856   4.983   9.324   3.195  1.2894  2.3525  0.6095
  446MOL0     H58857   5.176   9.467   3.091 -0.6049 -0.3310 -0.7833
  446MOL0     H58858   6.656  10.055   3.025  0.5243  1.0223 -0.7772
  446MOL0     H58859   6.901  10.074   3.046 -2.8531 -2.8923 -0.3580
  446MOL0     H58860   7.203  10.450   3.292 -0.2583 -0.5279  0.7335
  446MOL0     H58861   7.413  10.531   3.348 -0.6464  1.3399 -3.4262
  446MOL0     H58862   7.776  10.535   3.397  0.7319  0.5405 -0.9528
  446MOL0     H58863   7.607  10.535   3.429 -0.5547 -4.9033 -0.4075
  446MOL0     H58864   7.756  10.684   3.217 -0.5994 -0.9277  0.6669
  446MOL0     H58865   7.580  10.662   3.202 -1.7531 -0.0315  0.1360
  446MOL0     H58866   7.727  10.797   3.435  0.8925  1.5535 -2.4279
  446MOL0     H58867   7.547  10.780   3.426 -0.9595  3.8812  1.3450
  446MOL0     H58868   7.638  11.007   3.380  1.9301  0.2617  0.5749
  446MOL0     H58869   7.730  10.949   3.240 -0.7326  1.8315 -0.9397
  446MOL0     H58870   7.332  10.950   3.088 -2.3940 -1.4720  1.9844
  446MOL0     H58871   7.620  10.225   3.147 -0.7962 -3.1898 -0.5882
  446MOL0     H58872   7.389  10.105   3.077  0.0485 -0.9375  1.4236
  447MOL0     O58873   8.659   1.925   7.962 -0.3610  0.7573 -0.4308
  447MOL0     C58874   8.645   1.963   7.848  0.2027 -0.3596 -0.1690
  447MOL0     O58875   8.522   1.999   7.787  0.2149 -0.1368  0.3243
  447MOL0     C58876   8.411   1.945   7.844  0.9096 -0.0952  0.0038
  447MOL0     C58877   8.342   1.984   7.964  0.1941 -0.7631  0.4510
  447MOL0     C58878   8.234   1.914   8.019 -0.3006 -0.1904 -0.3630
  447MOL0     C58879   8.185   1.806   7.961 -1.5167  0.2914  0.6748
  447MOL0     O58880   8.087   1.741   8.030 -0.0055  0.1728  0.2731
  447MOL0     C58881   7.954   1.806   7.992 -0.8512  0.1668 -0.3759
  447MOL0     C58882   7.859   1.691   7.978  0.1070 -0.1919  0.2795
  447MOL0     C58883   7.732   1.728   7.894 -0.3299  0.3967  0.3682
  447MOL0     C58884   7.638   1.838   7.959  0.0316 -0.5817 -0.3196
  447MOL0     C58885   7.504   1.849   7.883  0.7691  0.5948  0.0402
  447MOL0     C58886   7.409   1.737   7.942 -0.5791  0.0823  1.1237
  447MOL0     C58887   7.263   1.768   7.895 -0.2192  0.0082  0.7397
  447MOL0     C58888   7.165   1.766   8.014 -0.0474  0.2621 -0.2924
  447MOL0     N58889   7.022   1.764   7.974  0.2787 -0.2010  0.3071
  447MOL0     C58890   6.955   1.676   7.900  0.9265 -0.0825  0.5164
  447MOL0     C58891   6.826   1.719   7.889  0.1513 -0.5523 -0.2659
  447MOL0     C58892   6.712   1.650   7.813  0.2557 -1.1737 -0.8177
  447MOL0     C58893   6.688   1.725   7.692  0.6909  0.0788  0.7454
  447MOL0     C58894   6.551   1.802   7.694 -0.2710  0.2969 -0.2023
  447MOL0     C58895   6.541   1.903   7.577  0.4241 -0.8543 -0.1485
  447MOL0     O58896   6.439   2.006   7.603 -0.3201 -0.1970 -0.4745
  447MOL0     C58897   6.309   1.982   7.599  1.2043 -0.1273 -0.1474
  447MOL0     C58898   6.219   2.085   7.620  0.6572 -0.6557 -0.0987
  447MOL0     C58899   6.075   2.069   7.628  0.1868  0.7182  0.1402
  447MOL0     C58900   6.026   1.940   7.593  0.2494  0.5989 -0.2754
  447MOL0     C58901   5.881   1.912   7.597 -0.2970  0.1561 -0.8285
  447MOL0     O58902   5.844   1.785   7.587  0.8947  0.4413 -0.4829
  447MOL0     C58903   5.711   1.759   7.603 -1.0589 -0.4360  0.1933
  447MOL0     C58904   5.636   1.742   7.485 -0.4994  0.5758 -0.0860
  447MOL0     C58905   5.501   1.721   7.477 -0.3770  0.7119 -0.6261
  447MOL0     C58906   5.435   1.674   7.592 -0.3846 -0.3664 -0.4970
  447MOL0     O58907   5.301   1.635   7.584 -0.0345  0.3884  0.1131
  447MOL0     C58908   5.236   1.560   7.690 -1.3112 -0.3399  0.6320
  447MOL0     C58909   5.092   1.524   7.650 -0.1405  0.1473  0.3851
  447MOL0     C58910   4.984   1.553   7.753  0.3300  0.3778 -0.0578
  447MOL0     C58911   4.991   1.456   7.871 -0.0583  0.0623  0.8665
  447MOL0     C58912   4.928   1.510   8.002  0.2853  0.1016  0.3699
  447MOL0     C58913   4.794   1.438   8.024 -0.1021  0.6479 -0.2633
  447MOL0     C58914   4.704   1.504   8.133  0.8306 -0.6009  0.5362
  447MOL0     C58915   4.562   1.446   8.132  0.1414  0.1449 -0.2264
  447MOL0    Cl58916   4.570   1.278   8.213 -0.3141  0.0138 -0.2157
  447MOL0     C58917   5.513   1.673   7.710 -0.0808  0.7699 -0.1701
  447MOL0     C58918   5.642   1.730   7.718  0.6968  0.4848 -0.2016
  447MOL0     O58919   5.803   2.008   7.603  0.0335  0.1892 -1.2599
  447MOL0     C58920   6.112   1.835   7.573 -0.0052  0.0163 -0.0135
  447MOL0     C58921   6.251   1.855   7.578 -0.1422  0.0278  0.4016
  447MOL0     N58922   6.819   1.839   7.959 -0.7218  0.3094  0.3443
  447MOL0     N58923   6.937   1.858   8.000  1.0760  0.0325  0.8668
  447MOL0     C58924   8.245   1.771   7.839 -0.3888  0.0796  0.3558
  447MOL0     C58925   8.357   1.832   7.785  0.5200 -0.1283  0.0817
  447MOL0     C58926   8.762   2.021   7.774 -0.0952 -0.0604 -0.1825
  447MOL0     C58927   8.751   2.109   7.666  0.5368  0.3567  0.6804
  447MOL0     C58928   8.862   2.165   7.600  0.2996  0.2183  0.2202
  447MOL0     C58929   8.996   2.131   7.636  0.3076 -0.5769  0.1140
  447MOL0     O58930   9.111   2.174   7.583  0.4525  0.2986  0.3439
  447MOL0     C58931   9.121   2.255   7.460 -1.1488  0.8052  0.1163
  447MOL0     C58932   9.111   2.402   7.493  0.6175 -0.4408 -0.0224
  447MOL0     C58933   9.223   2.441   7.584 -0.7524 -0.5274  0.2239
  447MOL0     C58934   9.248   2.592   7.582  0.0512  0.4865  0.2981
  447MOL0     C58935   9.360   2.619   7.676  0.3433  0.3012  0.4103
  447MOL0     C58936   9.421   2.644   7.774  1.0284  0.7262 -0.7908
  447MOL0     C58937   9.006   2.039   7.747 -0.0616  0.1678  0.3724
  447MOL0     C58938   8.893   1.986   7.816  0.0466  0.7354  0.9051
  447MOL0     H58939   8.377   2.072   8.018 -1.0049  1.6669 -2.4949
  447MOL0     H58940   8.197   1.934   8.119 -2.2460 -3.5684 -0.2919
  447MOL0     H58941   7.958   1.865   7.900  0.0946  0.9382  0.1391
  447MOL0     H58942   7.929   1.869   8.077  0.6392 -0.1134  0.3152
  447MOL0     H58943   7.827   1.667   8.079  1.4787 -1.5252  0.4374
  447MOL0     H58944   7.899   1.600   7.932 -1.3219 -0.4301 -0.5580
  447MOL0     H58945   7.672   1.639   7.873  0.4085  0.6123 -3.2552
  447MOL0     H58946   7.754   1.769   7.795 -1.0700  0.4571  0.2228
  447MOL0     H58947   7.625   1.797   8.059  0.1822 -2.4241 -1.0122
  447MOL0     H58948   7.689   1.935   7.963 -3.1902  1.3044 -1.5392
  447MOL0     H58949   7.510   1.846   7.774 -1.0467 -0.2423 -0.0824
  447MOL0     H58950   7.465   1.948   7.909 -0.6603 -0.3648  1.8148
  447MOL0     H58951   7.412   1.736   8.051 -2.9742  1.6018  1.2837
  447MOL0     H58952   7.434   1.638   7.903  1.2915  1.3782 -1.3067
  447MOL0     H58953   7.255   1.871   7.859  0.7664  0.7492  2.5299
  447MOL0     H58954   7.247   1.688   7.822  1.5112 -1.6554  2.0703
  447MOL0     H58955   7.189   1.844   8.087 -0.6776 -0.1706  0.3916
  447MOL0     H58956   7.170   1.667   8.061 -0.4203 -1.8169 -4.2205
  447MOL0     H58957   6.999   1.585   7.863 -0.4899 -0.7978  0.5227
  447MOL0     H58958   6.633   1.655   7.889  0.2257  3.3861 -0.8974
  447MOL0     H58959   6.738   1.546   7.788 -2.4471 -1.9019 -0.9214
  447MOL0     H58960   6.675   1.648   7.615 -1.1472 -0.8430  1.9187
  447MOL0     H58961   6.773   1.792   7.675 -0.0282  0.2834 -2.9179
  447MOL0     H58962   6.467   1.732   7.695  0.0773 -0.1212  0.7356
  447MOL0     H58963   6.551   1.856   7.789  3.0579  3.0739 -1.5617
  447MOL0     H58964   6.507   1.862   7.482 -3.5649  1.5986 -0.0193
  447MOL0     H58965   6.639   1.950   7.569  0.3930 -0.4512  1.4773
  447MOL0     H58966   6.274   2.176   7.642 -1.4789  0.5775  0.4180
  447MOL0     H58967   6.014   2.158   7.635 -2.1812 -0.9257  1.3608
  447MOL0     H58968   5.694   1.760   7.395 -0.9498  2.4169 -0.0616
  447MOL0     H58969   5.449   1.740   7.384 -1.1034  1.2888 -0.1081
  447MOL0     H58970   5.239   1.615   7.785 -0.6521 -0.5368  0.7285
  447MOL0     H58971   5.294   1.469   7.707 -1.6328 -1.0670 -1.7673
  447MOL0     H58972   5.091   1.424   7.606  2.5913  1.0742 -2.1463
  447MOL0     H58973   5.060   1.592   7.570 -0.8759 -0.7881 -0.1482
  447MOL0     H58974   4.882   1.552   7.712  1.4099  1.6174 -3.0537
  447MOL0     H58975   4.994   1.655   7.790 -1.7101  0.8252 -0.5743
  447MOL0     H58976   4.936   1.366   7.843 -1.6327  2.1745 -3.7794
  447MOL0     H58977   5.093   1.420   7.888 -0.1281 -1.5682 -1.6655
  447MOL0     H58978   4.924   1.617   8.020  0.9315  0.1259  0.3794
  447MOL0     H58979   5.004   1.490   8.079  0.2589  0.1355  0.4064
  447MOL0     H58980   4.818   1.340   8.066  1.2084  1.5653  1.2215
  447MOL0     H58981   4.747   1.439   7.925  0.5534  1.0540 -0.5752
  447MOL0     H58982   4.760   1.483   8.225  1.6866  0.4899  0.2867
  447MOL0     H58983   4.691   1.612   8.126 -0.5323 -0.6889  1.3330
  447MOL0     H58984   4.519   1.433   8.033 -1.8549 -0.4238  0.6587
  447MOL0     H58985   4.507   1.511   8.201 -0.6280 -1.0904  0.3557
  447MOL0     H58986   5.477   1.628   7.802  1.2492  0.2564  0.1175
  447MOL0     H58987   5.697   1.753   7.809 -1.2306  1.9909  0.6546
  447MOL0     H58988   6.084   1.733   7.548 -0.0806 -1.2410  4.3950
  447MOL0     H58989   6.307   1.769   7.543 -0.7711 -0.6206  0.9836
  447MOL0     H58990   8.201   1.686   7.788  0.9012  0.3526 -1.2715
  447MOL0     H58991   8.409   1.794   7.698  1.4049  1.5639 -0.1653
  447MOL0     H58992   8.652   2.143   7.635  1.7151  1.8556 -1.6896
  447MOL0     H58993   8.843   2.238   7.522  2.6752  1.7377  0.9794
  447MOL0     H58994   9.047   2.223   7.386 -1.2494 -3.0755  1.6453
  447MOL0     H58995   9.220   2.244   7.414 -0.4922  0.1626  1.5972
  447MOL0     H58996   9.106   2.451   7.396  1.9756 -1.3673 -0.5863
  447MOL0     H58997   9.018   2.412   7.550  1.4914  1.1965  1.2312
  447MOL0     H58998   9.317   2.387   7.567 -1.7123 -1.6026 -2.1614
  447MOL0     H58999   9.186   2.412   7.683 -2.2318 -1.3694 -0.5565
  447MOL0     H59000   9.280   2.620   7.481 -1.8037  1.2093 -0.1145
  447MOL0     H59001   9.149   2.636   7.594  0.3032  0.7376  1.6401
  447MOL0     H59002   9.467   2.681   7.863  1.2430  0.1288 -0.6496
  447MOL0     H59003   9.104   2.007   7.782  1.8109  2.8516 -2.0053
  447MOL0     H59004   8.923   1.933   7.906 -0.7304  1.7046  1.7607
  448MOL0     O59005   4.866   2.115   7.747  0.3710 -0.4664 -0.3896
  448MOL0     C59006   4.951   2.036   7.721  1.1405 -0.0432  0.4624
  448MOL0     O59007   4.930   1.918   7.647 -0.6168 -0.2775  0.6718
  448MOL0     C59008   4.802   1.886   7.622  0.6683 -0.0393 -0.1161
  448MOL0     C59009   4.750   1.907   7.496  0.5056  0.2732 -0.0384
  448MOL0     C59010   4.613   1.863   7.470 -1.2726  0.5901  0.0406
  448MOL0     C59011   4.535   1.806   7.571 -0.9822  0.3402 -0.0455
  448MOL0     O59012   4.407   1.779   7.569 -0.4168 -0.0026  0.7005
  448MOL0     C59013   4.339   1.782   7.438 -0.2123 -0.3703  1.1268
  448MOL0     C59014   4.200   1.719   7.432  0.4149 -1.0429 -0.7942
  448MOL0     C59015   4.209   1.574   7.489  0.3629 -0.3421  0.9836
  448MOL0     C59016   4.072   1.502   7.480  0.1214 -0.2491 -0.9412
  448MOL0     C59017   4.089   1.349   7.455 -0.0137  0.3347 -0.3365
  448MOL0     C59018   3.952   1.292   7.445  1.0475 -0.5112  0.0296
  448MOL0     C59019   3.943   1.142   7.422  0.2778  1.1180 -0.0180
  448MOL0     C59020   4.031   1.092   7.300 -0.8819  0.1547  0.2019
  448MOL0     N59021   4.006   0.951   7.278 -0.3945 -0.1355  0.0939
  448MOL0     C59022   3.877   0.907   7.238 -0.7532 -0.3893  0.4151
  448MOL0     C59023   3.883   0.772   7.252  0.8902 -1.2673 -0.1507
  448MOL0     C59024   3.772   0.670   7.211 -0.3875  0.6531 -0.2501
  448MOL0     C59025   3.633   0.707   7.248 -0.1533  0.6233  0.0847
  448MOL0     C59026   3.529   0.650   7.148  0.3552 -0.5499 -1.1409
  448MOL0     C59027   3.379   0.629   7.201 -0.3770 -0.1458  0.2941
  448MOL0     O59028   3.279   0.570   7.108  0.1634 -0.4286 -0.7528
  448MOL0     C59029   3.154   0.556   7.152  0.1167 -0.6853  1.0201
  448MOL0     C59030   3.098   0.558   7.273 -1.4648  0.1330  0.3260
  448MOL0     C59031   2.960   0.546   7.290 -0.2164 -0.0988  0.2744
  448MOL0     C59032   2.876   0.540   7.176  0.7830  0.4337  0.7573
  448MOL0     C59033   2.727   0.532   7.198  0.5760  0.3780 -0.7992
  448MOL0     O59034   2.663   0.473   7.097 -0.0758  0.7170  0.0366
  448MOL0     C59035   2.530   0.463   7.103  0.3352 -0.6835  0.2441
  448MOL0     C59036   2.444   0.568   7.065  0.0537 -0.4158 -0.4868
  448MOL0     C59037   2.307   0.547   7.044 -0.5794 -0.7742 -0.3740
  448MOL0     C59038   2.254   0.427   7.073  0.2945  0.0696 -0.6005
  448MOL0     O59039   2.120   0.408   7.068  0.0427  0.3892  0.2029
  448MOL0     C59040   2.036   0.522   7.041  0.9576  0.4111 -0.3541
  448MOL0     C59041   1.888   0.502   7.048 -0.2124 -0.2560  0.1202
  448MOL0     C59042   1.838   0.377   6.984  1.3595  0.4100  0.1279
  448MOL0     C59043   1.678   0.358   7.010  0.2513  0.2106  0.6102
  448MOL0     C59044   1.607   0.369   6.873 -0.2053  0.2732 -0.0243
  448MOL0     C59045   1.460   0.370   6.901  0.5462  0.3869  0.9643
  448MOL0     C59046   1.372   0.384   6.774 -0.2498  0.5123  0.5353
  448MOL0     C59047   1.410   0.279   6.671  0.0176 -0.7291  0.0128
  448MOL0    Cl59048   1.267   0.262   6.560  0.2340  0.0590 -0.0037
  448MOL0     C59049   2.341   0.315   7.088 -0.1074  0.1443  0.0117
  448MOL0     C59050   2.476   0.331   7.103 -0.4789 -0.2317  0.0579
  448MOL0     O59051   2.673   0.575   7.304  0.1288  0.0868  0.9751
  448MOL0     C59052   2.933   0.527   7.053  0.0876  0.4864  0.0230
  448MOL0     C59053   3.071   0.530   7.039 -0.7199 -0.2882 -0.3536
  448MOL0     N59054   4.015   0.739   7.287  0.1162  0.5592 -0.4878
  448MOL0     N59055   4.084   0.847   7.294  0.4961 -0.5161  0.3646
  448MOL0     C59056   4.589   1.787   7.700  0.2076  0.4206 -0.0936
  448MOL0     C59057   4.726   1.814   7.722  0.1564 -0.0561 -0.4889
  448MOL0     C59058   5.089   2.056   7.762 -0.3036  0.4823 -1.1674
  448MOL0     C59059   5.112   2.147   7.862  0.3128 -0.8102 -0.0694
  448MOL0     C59060   5.234   2.177   7.911 -0.6773 -0.3078  0.2781
  448MOL0     C59061   5.345   2.111   7.864  0.4436  0.4988  0.5411
  448MOL0     O59062   5.474   2.126   7.923  0.2182 -0.8679  0.1585
  448MOL0     C59063   5.587   2.089   7.843 -0.3617 -0.2138 -0.0763
  448MOL0     C59064   5.708   2.165   7.891  1.5695  0.3265  0.1825
  448MOL0     C59065   5.705   2.316   7.852  0.6755 -0.1922  0.9430
  448MOL0     C59066   5.833   2.398   7.876  0.2256 -0.4694 -0.1885
  448MOL0     C59067   5.876   2.391   8.014  0.2295 -0.5145  0.3645
  448MOL0     C59068   5.923   2.368   8.118  0.2008  0.9775  0.5602
  448MOL0     C59069   5.322   2.017   7.761 -0.5472  0.8026 -0.3469
  448MOL0     C59070   5.197   1.986   7.713 -0.6334  1.0305 -0.6139
  448MOL0     H59071   4.802   1.961   7.418 -1.1627  0.8148 -0.8241
  448MOL0     H59072   4.577   1.868   7.368 -0.1986 -0.2613 -0.4001
  448MOL0     H59073   4.392   1.714   7.370 -0.2350  0.2718  0.4572
  448MOL0     H59074   4.342   1.878   7.386 -2.6207 -0.6342  0.3805
  448MOL0     H59075   4.169   1.711   7.327 -3.2213 -0.1198  0.0551
  448MOL0     H59076   4.130   1.784   7.486 -0.0056 -3.0465  1.2310
  448MOL0     H59077   4.236   1.594   7.593 -2.0377 -1.0241  1.8100
  448MOL0     H59078   4.280   1.516   7.430 -1.1785 -2.0427  0.7319
  448MOL0     H59079   4.022   1.511   7.576  1.1074 -0.0602 -0.4257
  448MOL0     H59080   4.016   1.540   7.394  2.0786  1.2927 -1.6093
  448MOL0     H59081   4.144   1.299   7.535 -3.0632 -0.3078  1.5080
  448MOL0     H59082   4.134   1.342   7.356  0.0486  3.8498 -0.6852
  448MOL0     H59083   3.900   1.343   7.363  2.6587  1.5181  0.2040
  448MOL0     H59084   3.889   1.317   7.531 -1.4095  1.1753 -2.0961
  448MOL0     H59085   3.977   1.089   7.511  1.3369  1.2677 -0.3196
  448MOL0     H59086   3.841   1.113   7.396  0.3505 -0.1455  1.0212
  448MOL0     H59087   4.137   1.105   7.322 -0.8153  2.1697 -1.0457
  448MOL0     H59088   4.028   1.155   7.211  2.1552 -0.9243 -0.7959
  448MOL0     H59089   3.786   0.960   7.209 -0.3461  1.5751  2.4579
  448MOL0     H59090   3.787   0.570   7.253  2.4189  1.3913  0.7295
  448MOL0     H59091   3.772   0.651   7.103 -0.4381  0.4645 -0.2174
  448MOL0     H59092   3.636   0.816   7.261 -1.4902  0.3628  3.3985
  448MOL0     H59093   3.610   0.674   7.349  0.0211  1.8506  0.5472
  448MOL0     H59094   3.528   0.713   7.059  0.0157 -0.1665 -0.8671
  448MOL0     H59095   3.571   0.552   7.122  0.9691 -1.3978  2.4979
  448MOL0     H59096   3.334   0.721   7.238  2.0653  0.7804  1.1658
  448MOL0     H59097   3.375   0.562   7.288 -0.3185  0.1497  0.5240
  448MOL0     H59098   3.171   0.579   7.351  0.2898 -0.0854 -1.1883
  448MOL0     H59099   2.919   0.545   7.390 -1.6478 -2.2199 -0.2433
  448MOL0     H59100   2.493   0.663   7.048  1.1537 -0.6705  1.0817
  448MOL0     H59101   2.253   0.639   7.021 -0.5214 -0.9286 -1.1473
  448MOL0     H59102   2.061   0.553   6.939 -0.9806 -3.0201 -2.0742
  448MOL0     H59103   2.068   0.609   7.099  0.5772  0.2913  0.0394
  448MOL0     H59104   1.845   0.585   6.992  1.5058  1.1201  0.7612
  448MOL0     H59105   1.863   0.508   7.154  2.9119 -1.5462  1.0605
  448MOL0     H59106   1.893   0.292   7.027  1.2975  0.5661  0.5146
  448MOL0     H59107   1.850   0.384   6.875 -1.9173  0.5676 -0.3294
  448MOL0     H59108   1.643   0.263   7.052 -0.7060 -1.0833 -2.8239
  448MOL0     H59109   1.649   0.437   7.081 -1.1119  1.5883 -1.3812
  448MOL0     H59110   1.634   0.285   6.809 -0.4232 -0.5673  0.9555
  448MOL0     H59111   1.637   0.461   6.822 -2.0960  0.0476 -1.6680
  448MOL0     H59112   1.422   0.444   6.971 -1.3624 -1.3874  1.9039
  448MOL0     H59113   1.439   0.272   6.944  0.8936 -0.5332 -0.8463
  448MOL0     H59114   1.272   0.354   6.807 -1.3148 -1.0452 -3.5212
  448MOL0     H59115   1.380   0.480   6.722  0.3866 -1.1871 -2.7747
  448MOL0     H59116   1.441   0.185   6.718  0.1126 -2.5065 -3.3308
  448MOL0     H59117   1.503   0.315   6.626  2.5097 -1.8372  3.7899
  448MOL0     H59118   2.291   0.219   7.097  1.6630 -1.2471 -3.2131
  448MOL0     H59119   2.544   0.246   7.103 -1.2617 -0.9161 -1.6885
  448MOL0     H59120   2.865   0.518   6.969 -0.5848 -1.3381  0.6921
  448MOL0     H59121   3.118   0.527   6.942 -0.1150 -0.9554 -0.0489
  448MOL0     H59122   4.521   1.746   7.774  0.8937  0.9709  0.8562
  448MOL0     H59123   4.767   1.796   7.821  0.0519 -0.6134 -0.5423
  448MOL0     H59124   5.024   2.195   7.905 -0.3904 -1.7741 -0.3823
  448MOL0     H59125   5.250   2.250   7.989  1.1564 -0.1599 -0.1840
  448MOL0     H59126   5.578   2.103   7.735 -0.5069  0.9086  0.0696
  448MOL0     H59127   5.610   1.983   7.859  1.2812  0.2151  0.6134
  448MOL0     H59128   5.713   2.159   8.001 -1.1691 -1.5402  0.2971
  448MOL0     H59129   5.788   2.103   7.849 -1.7235 -3.8851 -0.6202
  448MOL0     H59130   5.613   2.363   7.887  0.5743 -0.1992  0.6881
  448MOL0     H59131   5.714   2.321   7.743  0.1416  3.3054  0.9649
  448MOL0     H59132   5.913   2.368   7.807 -1.3862 -3.2581 -1.0028
  448MOL0     H59133   5.810   2.504   7.861  0.7383 -0.2939  0.2621
  448MOL0     H59134   5.970   2.360   8.213  2.0336  0.6755 -0.3360
  448MOL0     H59135   5.407   1.963   7.722 -2.1415 -1.8238 -0.4269
  448MOL0     H59136   5.193   1.911   7.634 -0.6224  0.5506 -0.1690
  449MOL0     O59137   4.231   1.996   8.705 -0.6070  0.9068  0.4458
  449MOL0     C59138   4.197   2.033   8.817  0.2847  0.3054  0.4080
  449MOL0     O59139   4.089   2.104   8.853  0.5783 -0.6753  0.0578
  449MOL0     C59140   3.997   2.132   8.749  0.4733 -0.4747 -0.8336
  449MOL0     C59141   3.870   2.065   8.758 -0.0704 -0.5032 -0.8499
  449MOL0     C59142   3.779   2.093   8.656 -0.3533 -0.5450  0.0103
  449MOL0     C59143   3.812   2.175   8.546 -0.5306  1.0373  0.3453
  449MOL0     O59144   3.708   2.203   8.453  0.4780  0.3820  0.6259
  449MOL0     C59145   3.730   2.173   8.311  0.4719 -0.6128  0.4350
  449MOL0     C59146   3.678   2.290   8.229  0.1486  0.4685 -0.1987
  449MOL0     C59147   3.532   2.341   8.257 -0.1323  0.3359 -0.6755
  449MOL0     C59148   3.504   2.469   8.178  0.7381  0.2546 -0.0119
  449MOL0     C59149   3.371   2.531   8.210 -0.6711 -0.2182 -0.3379
  449MOL0     C59150   3.341   2.656   8.119  0.3533 -0.7531  0.3192
  449MOL0     C59151   3.207   2.715   8.168  0.9344  0.4675  0.1814
  449MOL0     C59152   3.144   2.812   8.067 -0.7372  0.2332 -0.2953
  449MOL0     N59153   3.024   2.881   8.114  0.7501 -0.6997  0.5246
  449MOL0     C59154   3.010   2.966   8.221  0.6085 -0.0506 -0.2318
  449MOL0     C59155   2.883   3.011   8.213  0.5649 -0.1580  0.1994
  449MOL0     C59156   2.813   3.103   8.309 -0.4207 -0.5044  0.6081
  449MOL0     C59157   2.722   3.199   8.230  0.5596  0.0712 -0.6175
  449MOL0     C59158   2.796   3.296   8.143  0.1908  0.0885  1.0904
  449MOL0     C59159   2.687   3.374   8.058  0.1086 -0.5221  0.7743
  449MOL0     O59160   2.604   3.475   8.128 -0.3324  0.1756  0.3422
  449MOL0     C59161   2.470   3.451   8.113  0.8401  0.7267 -0.4713
  449MOL0     C59162   2.408   3.476   7.994 -0.0231  0.9622  0.7686
  449MOL0     C59163   2.269   3.451   7.977 -0.4568 -0.6765  0.9808
  449MOL0     C59164   2.199   3.411   8.084 -0.1230 -0.1780 -0.7419
  449MOL0     C59165   2.050   3.391   8.060 -0.4950  0.1022 -0.8789
  449MOL0     O59166   1.974   3.374   8.176 -0.7532  0.4270  1.3184
  449MOL0     C59167   1.839   3.353   8.162 -0.3676  0.0907 -0.0624
  449MOL0     C59168   1.765   3.425   8.253  0.0714  1.1884 -0.2855
  449MOL0     C59169   1.627   3.405   8.270  0.7922 -0.1367 -0.3644
  449MOL0     C59170   1.562   3.321   8.187 -0.0773  0.2169  0.6918
  449MOL0     O59171   1.424   3.309   8.207  0.0960 -0.4749  0.6261
  449MOL0     C59172   1.352   3.208   8.139 -0.6711 -0.1467 -1.3037
  449MOL0     C59173   1.214   3.220   8.188  0.9174 -0.3998  0.0591
  449MOL0     C59174   1.132   3.327   8.109  0.0449  0.0060  0.1749
  449MOL0     C59175   0.978   3.297   8.130 -0.4525 -0.0320 -0.5383
  449MOL0     C59176   0.896   3.415   8.113  0.5320 -0.5874  0.6517
  449MOL0     C59177   0.755   3.379   8.158  0.1874  0.8986  0.5533
  449MOL0     C59178   0.662   3.497   8.121 -0.7405  0.2453  0.1529
  449MOL0     C59179   0.529   3.439   8.079  0.8399 -0.4806 -0.1426
  449MOL0    Cl59180   0.398   3.565   8.080  0.4730 -0.0812 -0.0381
  449MOL0     C59181   1.629   3.257   8.082 -0.9110 -0.3299 -0.3533
  449MOL0     C59182   1.762   3.280   8.065 -0.1973 -0.2293 -0.3309
  449MOL0     O59183   2.009   3.389   7.942  0.2473  0.7505 -0.1988
  449MOL0     C59184   2.268   3.390   8.206  0.3747 -0.1927 -0.2235
  449MOL0     C59185   2.398   3.415   8.224  1.8306  1.1090 -0.2714
  449MOL0     N59186   2.832   2.957   8.099 -0.7846 -0.0746  0.0769
  449MOL0     N59187   2.909   2.873   8.043  0.4502  0.9764  0.4777
  449MOL0     C59188   3.947   2.220   8.534 -0.8210  0.2840  0.2586
  449MOL0     C59189   4.037   2.207   8.638  1.4042  0.0824 -0.7959
  449MOL0     C59190   4.292   2.010   8.930 -0.7172 -0.7142 -0.2553
  449MOL0     C59191   4.430   2.000   8.905 -1.0016  0.0037 -0.0919
  449MOL0     C59192   4.515   1.981   9.014 -0.0027 -0.2004  0.3665
  449MOL0     C59193   4.465   1.966   9.151 -0.1803 -0.0893 -0.5615
  449MOL0     O59194   4.540   1.947   9.267 -0.0903 -1.0527 -0.7701
  449MOL0     C59195   4.688   1.945   9.247  0.1750  0.5347  0.3511
  449MOL0     C59196   4.748   1.910   9.381 -0.3070  0.1893 -0.5662
  449MOL0     C59197   4.895   1.857   9.374  0.5148  0.9565  0.2065
  449MOL0     C59198   4.980   1.928   9.270 -0.5983  0.3559 -0.2115
  449MOL0     C59199   4.975   2.073   9.293  0.2265  0.4400 -0.0294
  449MOL0     C59200   4.967   2.191   9.319 -0.3378  0.1424  0.3006
  449MOL0     C59201   4.330   1.968   9.163 -0.0475 -0.4666 -0.5771
  449MOL0     C59202   4.247   1.989   9.065  0.1194  0.4151 -0.6030
  449MOL0     H59203   3.845   2.001   8.842  2.1924 -0.7681 -0.2880
  449MOL0     H59204   3.679   2.051   8.665 -0.8784  0.8026  0.7780
  449MOL0     H59205   3.689   2.076   8.279 -0.1997 -0.0284 -0.5477
  449MOL0     H59206   3.837   2.167   8.290  0.0458 -0.3250 -2.2262
  449MOL0     H59207   3.683   2.251   8.127 -0.3369  1.9752 -0.8156
  449MOL0     H59208   3.743   2.377   8.239  0.4851  0.4060 -1.6299
  449MOL0     H59209   3.515   2.364   8.362  1.0599  0.6541 -0.5460
  449MOL0     H59210   3.472   2.252   8.234  0.8368 -0.1656 -1.3291
  449MOL0     H59211   3.577   2.550   8.193  1.8529 -0.3042 -2.0620
  449MOL0     H59212   3.511   2.450   8.071  3.3628  0.1187  0.1154
  449MOL0     H59213   3.368   2.560   8.315 -4.5126 -0.1755 -0.2999
  449MOL0     H59214   3.292   2.455   8.202 -0.2889 -0.6318 -0.2587
  449MOL0     H59215   3.328   2.618   8.017  0.8680  1.7937 -0.7775
  449MOL0     H59216   3.412   2.739   8.126 -1.8846  1.2547  0.4926
  449MOL0     H59217   3.131   2.640   8.193 -0.2593  1.0751 -1.4709
  449MOL0     H59218   3.225   2.774   8.258 -0.5187  1.2211  0.0222
  449MOL0     H59219   3.121   2.751   7.979  2.2757 -2.2988  0.4572
  449MOL0     H59220   3.220   2.887   8.042 -2.4552  1.1797 -3.1433
  449MOL0     H59221   3.078   2.975   8.305  0.9611 -1.1534 -0.3814
  449MOL0     H59222   2.880   3.171   8.363 -0.2367 -1.0100  1.0245
  449MOL0     H59223   2.755   3.046   8.383  0.4928 -1.5450  0.5417
  449MOL0     H59224   2.668   3.262   8.301  0.5243 -1.2350  0.5592
  449MOL0     H59225   2.642   3.141   8.183  0.6036 -2.4734  2.1561
  449MOL0     H59226   2.860   3.366   8.198  2.5301 -0.6331 -0.5871
  449MOL0     H59227   2.867   3.243   8.079 -1.2226 -2.6769  1.6478
  449MOL0     H59228   2.623   3.304   8.005 -0.6791  0.3464  0.5586
  449MOL0     H59229   2.745   3.420   7.977  0.9215  0.7540  2.0259
  449MOL0     H59230   2.476   3.518   7.920  0.2227  0.9188  0.9667
  449MOL0     H59231   2.224   3.487   7.885 -1.4612 -1.5439  1.1127
  449MOL0     H59232   1.816   3.507   8.304 -3.8978  3.9701 -0.3287
  449MOL0     H59233   1.578   3.442   8.360  1.2034 -2.7321  1.0142
  449MOL0     H59234   1.392   3.108   8.154  1.6467  0.1610 -4.3137
  449MOL0     H59235   1.354   3.222   8.030  2.1664  0.2657 -1.2755
  449MOL0     H59236   1.213   3.235   8.297  0.2098  1.0124 -0.1235
  449MOL0     H59237   1.162   3.125   8.172  1.3271 -0.2543 -2.5282
  449MOL0     H59238   1.156   3.317   8.003  0.9563  0.6540  0.3091
  449MOL0     H59239   1.162   3.429   8.134  2.9927  0.4146 -3.8950
  449MOL0     H59240   0.942   3.214   8.068 -3.2310  0.2527  0.5548
  449MOL0     H59241   0.971   3.260   8.233 -0.3893  1.2889 -0.0450
  449MOL0     H59242   0.896   3.448   8.009 -0.7795  0.6579  1.0078
  449MOL0     H59243   0.940   3.495   8.173 -0.1153 -0.8271  1.4684
  449MOL0     H59244   0.750   3.367   8.267  2.4506 -1.2834  0.5069
  449MOL0     H59245   0.721   3.283   8.118  2.9667 -1.4903  3.3756
  449MOL0     H59246   0.650   3.557   8.212  3.3698 -0.6991  1.5297
  449MOL0     H59247   0.703   3.557   8.039 -0.6578 -2.1127 -1.6210
  449MOL0     H59248   0.488   3.372   8.155 -1.9586  0.9498 -0.2402
  449MOL0     H59249   0.528   3.383   7.985 -0.3697 -2.3649  0.9288
  449MOL0     H59250   1.580   3.188   8.015 -0.7300 -1.5139  0.6803
  449MOL0     H59251   1.814   3.232   7.983 -1.6653  2.3940 -2.9619
  449MOL0     H59252   2.209   3.356   8.290  1.0972  0.5891  0.6242
  449MOL0     H59253   2.431   3.420   8.327  0.9739 -0.0157  0.0746
  449MOL0     H59254   3.994   2.280   8.456  2.0896 -4.1286 -1.8604
  449MOL0     H59255   4.129   2.265   8.640  1.7908 -0.5202 -1.0877
  449MOL0     H59256   4.468   2.023   8.806  1.3681  2.7471  1.3143
  449MOL0     H59257   4.623   1.991   9.004 -0.1400 -0.8686 -3.6729
  449MOL0     H59258   4.726   2.039   9.207  0.4339  1.7242  3.1447
  449MOL0     H59259   4.710   1.860   9.182  0.1860  0.9888 -0.2402
  449MOL0     H59260   4.741   2.006   9.434 -0.3077 -0.9129  1.4928
  449MOL0     H59261   4.684   1.841   9.436  0.6813 -0.0331  0.3366
  449MOL0     H59262   4.879   1.757   9.334  0.9941  1.3334 -0.9706
  449MOL0     H59263   4.945   1.846   9.471 -1.6865 -1.7828  1.1368
  449MOL0     H59264   5.080   1.888   9.287 -1.4749 -1.7127  0.3616
  449MOL0     H59265   4.952   1.901   9.167  1.9763  1.1789 -1.1965
  449MOL0     H59266   4.966   2.293   9.354  1.4707 -0.9782  4.1261
  449MOL0     H59267   4.284   1.952   9.259 -0.6512  0.1404 -0.7528
  449MOL0     H59268   4.140   1.983   9.085  0.3160 -0.7438  0.1802
  450MOL0     O59269   5.753   0.990   9.004 -0.0665 -0.2286  0.2742
  450MOL0     C59270   5.724   1.106   8.990 -1.2361 -0.4134 -0.2514
  450MOL0     O59271   5.604   1.163   8.961  0.6438  0.4081  0.7597
  450MOL0     C59272   5.485   1.083   8.960  0.1321  0.4663  0.6588
  450MOL0     C59273   5.476   0.966   9.037  0.1120 -0.3756 -0.2466
  450MOL0     C59274   5.364   0.878   9.034 -0.3271  0.0290  0.2772
  450MOL0     C59275   5.273   0.910   8.936 -0.0173 -0.2125  0.5595
  450MOL0     O59276   5.157   0.837   8.900  0.5320 -0.2848  0.0271
  450MOL0     C59277   5.132   0.727   8.976  0.2679  0.0058 -0.4045
  450MOL0     C59278   5.009   0.656   8.910 -0.2656  0.2193 -0.2993
  450MOL0     C59279   4.882   0.736   8.959 -0.4914  0.0142  0.6426
  450MOL0     C59280   4.760   0.687   8.881 -0.2317  0.1000  0.5719
  450MOL0     C59281   4.641   0.780   8.899 -0.9172 -0.4177  0.3021
  450MOL0     C59282   4.512   0.729   8.853 -0.0739  0.1009  0.7204
  450MOL0     C59283   4.392   0.833   8.858  0.1247  0.1627 -0.3687
  450MOL0     C59284   4.264   0.754   8.876  1.2924 -0.6726 -0.6400
  450MOL0     N59285   4.143   0.847   8.875  0.1691 -0.1104 -0.4730
  450MOL0     C59286   4.104   0.904   8.990  1.0983 -0.8685 -0.4021
  450MOL0     C59287   3.997   0.981   8.947 -0.0154  0.2918  0.8778
  450MOL0     C59288   3.928   1.068   9.046  0.3259  0.5792  0.7136
  450MOL0     C59289   3.854   0.984   9.151 -0.2596  0.4643 -0.3258
  450MOL0     C59290   3.735   0.915   9.091  0.0696 -0.1432  0.5248
  450MOL0     C59291   3.609   1.001   9.093 -0.3360  0.3588 -0.6950
  450MOL0     O59292   3.611   1.122   9.014  0.3077  0.1198 -0.2171
  450MOL0     C59293   3.489   1.188   9.016  0.4748  0.4474  0.1501
  450MOL0     C59294   3.427   1.213   8.895  0.5280  0.4963  0.7085
  450MOL0     C59295   3.302   1.283   8.893 -0.0629  0.6634  0.1750
  450MOL0     C59296   3.230   1.315   9.010 -0.4879  0.5135  0.0585
  450MOL0     C59297   3.101   1.398   9.006 -0.3448  0.7246  0.3861
  450MOL0     O59298   3.041   1.392   8.894 -0.1893  0.0049  0.1578
  450MOL0     C59299   2.906   1.423   8.894  0.3810 -0.1036 -0.3306
  450MOL0     C59300   2.843   1.533   8.950  0.9099  0.2760 -0.1278
  450MOL0     C59301   2.707   1.546   8.939  0.1138  0.0895  0.0648
  450MOL0     C59302   2.631   1.454   8.860 -0.2385 -0.3160 -1.1195
  450MOL0     O59303   2.496   1.467   8.852 -0.0814  0.0567 -0.0631
  450MOL0     C59304   2.428   1.597   8.824  0.1332 -0.2578 -0.1183
  450MOL0     C59305   2.289   1.617   8.886  0.2469 -0.7143  0.3646
  450MOL0     C59306   2.205   1.490   8.887  0.9223  0.3669 -0.0411
  450MOL0     C59307   2.079   1.502   8.976 -0.0559 -0.1462 -0.2690
  450MOL0     C59308   1.981   1.576   8.899  0.0658  0.4455  0.5159
  450MOL0     C59309   1.844   1.563   8.982  0.5034 -0.1035  0.3568
  450MOL0     C59310   1.729   1.642   8.919  0.5908  0.3312 -0.3616
  450MOL0     C59311   1.613   1.667   9.015 -0.1681  0.6145 -0.1739
  450MOL0    Cl59312   1.559   1.515   9.088  0.2047  0.2277  0.1235
  450MOL0     C59313   2.694   1.344   8.807  0.5252 -0.6237 -0.2513
  450MOL0     C59314   2.838   1.326   8.820  1.0376  1.5459  0.9914
  450MOL0     O59315   3.059   1.449   9.106  0.1677 -0.2170 -0.3708
  450MOL0     C59316   3.287   1.269   9.135  0.5090 -1.0149 -0.5265
  450MOL0     C59317   3.413   1.211   9.133  0.2001 -0.0931  0.3426
  450MOL0     N59318   3.974   0.963   8.812 -0.2006 -0.0023 -0.5734
  450MOL0     N59319   4.062   0.881   8.768 -0.0872  0.3039 -0.0262
  450MOL0     C59320   5.268   1.038   8.864  0.5791 -0.3630  0.1884
  450MOL0     C59321   5.379   1.119   8.872 -0.6207 -0.0615  0.3103
  450MOL0     C59322   5.838   1.205   8.969  0.6126  1.1534  0.2198
  450MOL0     C59323   5.977   1.154   8.979 -0.2801 -0.2172 -0.1197
  450MOL0     C59324   6.082   1.241   8.953 -0.2706 -0.1224  0.7183
  450MOL0     C59325   6.055   1.380   8.921 -0.0412  0.1676  0.5596
  450MOL0     O59326   6.168   1.455   8.895 -0.0403 -0.5611 -0.1019
  450MOL0     C59327   6.153   1.597   8.880 -0.2744  0.8763  0.0044
  450MOL0     C59328   6.282   1.665   8.856 -0.5121 -0.0930 -0.2846
  450MOL0     C59329   6.371   1.634   8.971  0.1399  0.6118 -0.5131
  450MOL0     C59330   6.474   1.520   8.944  0.0264 -0.4819 -0.0701
  450MOL0     C59331   6.607   1.554   8.887 -0.1155  0.9904  0.1305
  450MOL0     C59332   6.723   1.547   8.856  0.2830 -0.4285 -0.1331
  450MOL0     C59333   5.923   1.418   8.912 -0.6865 -0.9526 -0.2208
  450MOL0     C59334   5.811   1.332   8.929  0.6744 -0.1602  0.2488
  450MOL0     H59335   5.561   0.939   9.100  0.9228  1.3264 -0.5500
  450MOL0     H59336   5.362   0.786   9.091 -2.1018  1.2611  2.3347
  450MOL0     H59337   5.113   0.756   9.080 -2.6181 -0.7239 -0.6192
  450MOL0     H59338   5.220   0.663   8.968 -0.4720 -0.9861 -0.8379
  450MOL0     H59339   4.985   0.556   8.949 -0.0934 -0.4160 -1.7480
  450MOL0     H59340   5.014   0.642   8.802 -2.6557 -0.8982 -0.3462
  450MOL0     H59341   4.901   0.841   8.935  0.9075 -0.2095  0.6728
  450MOL0     H59342   4.867   0.715   9.066 -0.6872 -1.0278  0.4236
  450MOL0     H59343   4.796   0.672   8.779 -0.7834 -0.8649  0.5106
  450MOL0     H59344   4.738   0.588   8.922 -1.4580  0.4333  0.7803
  450MOL0     H59345   4.663   0.871   8.842 -0.1613 -1.3429 -0.9483
  450MOL0     H59346   4.639   0.817   9.002  1.8571 -0.2776  0.3908
  450MOL0     H59347   4.478   0.644   8.913 -2.1257  1.3374  1.4309
  450MOL0     H59348   4.524   0.702   8.747  0.7133  1.5625  0.4054
  450MOL0     H59349   4.402   0.907   8.938 -0.3586  2.2855 -2.1689
  450MOL0     H59350   4.388   0.901   8.773  0.2801  0.5101 -0.1000
  450MOL0     H59351   4.271   0.698   8.970  2.1019 -0.8551 -0.8023
  450MOL0     H59352   4.250   0.682   8.794  1.2413  0.3222 -1.5190
  450MOL0     H59353   4.142   0.907   9.092  0.8580  0.8324 -0.3337
  450MOL0     H59354   3.852   1.135   9.005 -0.5919 -0.8899 -0.0855
  450MOL0     H59355   3.998   1.138   9.091  1.1517  0.4217 -0.3029
  450MOL0     H59356   3.823   1.055   9.229 -0.1472  0.1790 -0.0221
  450MOL0     H59357   3.913   0.908   9.202  0.1234  0.9550 -0.0233
  450MOL0     H59358   3.757   0.882   8.989 -1.6210  2.0995 -0.6681
  450MOL0     H59359   3.701   0.832   9.154  0.2263  0.3476  1.2725
  450MOL0     H59360   3.583   1.031   9.195 -2.5773  0.2535 -1.1897
  450MOL0     H59361   3.525   0.944   9.053 -2.3311  3.0687 -0.6271
  450MOL0     H59362   3.467   1.197   8.796 -4.9856  2.6073 -2.3181
  450MOL0     H59363   3.246   1.297   8.802 -1.0521  0.6647  0.7743
  450MOL0     H59364   2.897   1.615   8.996  2.5576  0.5966 -2.4531
  450MOL0     H59365   2.659   1.625   8.995 -0.0880  0.0601 -0.0639
  450MOL0     H59366   2.410   1.585   8.717  3.6444 -0.8857 -0.7543
  450MOL0     H59367   2.492   1.683   8.845 -0.3309  0.1062 -0.1838
  450MOL0     H59368   2.226   1.691   8.837 -1.8441 -2.1063  0.8227
  450MOL0     H59369   2.297   1.657   8.988 -1.3696 -0.9005  0.5817
  450MOL0     H59370   2.262   1.400   8.914  1.9609  1.7601  2.8318
  450MOL0     H59371   2.169   1.473   8.785 -2.8733  1.1043  1.0296
  450MOL0     H59372   2.027   1.410   9.006 -1.1303  0.3589 -0.5166
  450MOL0     H59373   2.116   1.557   9.063  1.7110 -0.3006 -0.8967
  450MOL0     H59374   1.970   1.541   8.796 -0.9573 -0.5992  0.9632
  450MOL0     H59375   2.002   1.684   8.900 -0.2353  0.6588 -3.0276
  450MOL0     H59376   1.856   1.575   9.090  0.5705 -0.4466  0.3884
  450MOL0     H59377   1.824   1.455   8.981  3.8072 -0.9324  3.7587
  450MOL0     H59378   1.773   1.736   8.882 -0.6069 -0.0332 -2.9211
  450MOL0     H59379   1.694   1.595   8.827 -1.8929  1.6801 -0.2062
  450MOL0     H59380   1.531   1.721   8.966  0.6500  1.2100 -0.8972
  450MOL0     H59381   1.652   1.744   9.082  1.0602  0.8806 -1.1680
  450MOL0     H59382   2.639   1.269   8.752 -0.5605 -1.3589  1.7344
  450MOL0     H59383   2.889   1.241   8.775 -2.0393 -0.5323  1.1313
  450MOL0     H59384   3.227   1.295   9.222  1.6927 -0.3172  0.0893
  450MOL0     H59385   3.460   1.182   9.226 -0.2645 -2.8023 -0.1903
  450MOL0     H59386   5.178   1.060   8.809  0.5461  0.0310  0.4007
  450MOL0     H59387   5.374   1.206   8.808 -0.9081  1.5106  2.3523
  450MOL0     H59388   5.982   1.047   8.996  1.4384 -0.5855 -2.4884
  450MOL0     H59389   6.186   1.213   8.959 -0.3333 -0.1439  1.8949
  450MOL0     H59390   6.110   1.630   8.974 -0.0710 -0.9470  0.7943
  450MOL0     H59391   6.084   1.614   8.797  0.2237  2.6978 -0.0621
  450MOL0     H59392   6.329   1.633   8.763 -1.8489  0.7143 -1.2681
  450MOL0     H59393   6.256   1.771   8.849  1.3693  0.4876  0.7592
  450MOL0     H59394   6.312   1.605   9.058  0.5438 -3.5059 -1.3675
  450MOL0     H59395   6.415   1.730   9.000 -0.3820  0.9313 -0.7631
  450MOL0     H59396   6.497   1.488   9.046  0.4744  3.1459  1.1085
  450MOL0     H59397   6.425   1.442   8.885 -1.5434  0.0887  0.4401
  450MOL0     H59398   6.826   1.532   8.832  0.5906  4.0480 -2.7415
  450MOL0     H59399   5.901   1.522   8.893  2.1670  0.1328  1.7510
  450MOL0     H59400   5.711   1.373   8.919  0.9376  0.2540 -0.8300
  451MOL0     O59401   5.780   0.591   4.709  0.0920 -0.1240  0.6995
  451MOL0     C59402   5.864   0.562   4.622  0.9977 -0.9241 -0.0880
  451MOL0     O59403   5.838   0.514   4.498 -0.2490  0.1550  0.1566
  451MOL0     C59404   5.715   0.519   4.444  0.1441  0.3367 -0.0839
  451MOL0     C59405   5.642   0.636   4.435 -0.7457  0.0167  0.3519
  451MOL0     C59406   5.509   0.642   4.402 -0.6057  0.8149  0.4072
  451MOL0     C59407   5.448   0.527   4.356 -0.2903  0.2454  0.4139
  451MOL0     O59408   5.331   0.539   4.284  0.2670 -0.3453 -0.0304
  451MOL0     C59409   5.233   0.429   4.284 -0.2235  0.1101 -0.2203
  451MOL0     C59410   5.103   0.464   4.213 -0.3700 -0.4240  0.6416
  451MOL0     C59411   5.122   0.514   4.059  0.5649 -0.2933 -0.5193
  451MOL0     C59412   4.976   0.559   4.007  0.2432  0.1151 -0.1025
  451MOL0     C59413   4.929   0.695   4.065  0.1671  0.0568  0.1688
  451MOL0     C59414   4.812   0.752   3.977  0.2113 -0.4730 -0.7759
  451MOL0     C59415   4.801   0.904   4.002 -0.3817 -1.4325  0.0827
  451MOL0     C59416   4.720   0.976   3.903  0.6328 -0.0856  1.1135
  451MOL0     N59417   4.716   1.121   3.925 -0.1050  0.5112 -0.5805
  451MOL0     C59418   4.824   1.208   3.945  0.3491 -0.3289 -0.4229
  451MOL0     C59419   4.767   1.330   3.977  0.3764  0.5903  0.4422
  451MOL0     C59420   4.829   1.453   4.019  0.3998 -1.2546  0.2173
  451MOL0     C59421   4.901   1.445   4.153  0.0650  0.2439 -0.0445
  451MOL0     C59422   4.986   1.568   4.180  0.3696 -0.8380 -0.3058
  451MOL0     C59423   5.067   1.558   4.304  0.4856 -0.2234  0.3279
  451MOL0     O59424   5.167   1.457   4.308 -0.7233  0.0349  0.3261
  451MOL0     C59425   5.296   1.488   4.292 -0.4854 -0.4634 -0.1094
  451MOL0     C59426   5.339   1.605   4.232 -0.1712  0.4202  0.8567
  451MOL0     C59427   5.479   1.641   4.244  0.4269  0.1924  0.2027
  451MOL0     C59428   5.568   1.545   4.295  0.6248 -0.0081  0.5789
  451MOL0     C59429   5.706   1.574   4.310 -0.2579 -0.3201  0.2747
  451MOL0     O59430   5.772   1.483   4.386 -0.7508  0.4364 -0.2507
  451MOL0     C59431   5.908   1.493   4.417 -0.1013  0.1380 -0.3581
  451MOL0     C59432   5.975   1.614   4.450 -0.1740 -0.1294  0.6274
  451MOL0     C59433   6.109   1.606   4.493 -0.6500  0.6663  0.1955
  451MOL0     C59434   6.160   1.479   4.519 -0.1417 -0.5100 -0.0397
  451MOL0     O59435   6.297   1.484   4.560 -0.3723 -0.2811 -0.6883
  451MOL0     C59436   6.350   1.369   4.628  0.6676  0.2736  0.4939
  451MOL0     C59437   6.499   1.393   4.669  0.3775  0.1086  0.2509
  451MOL0     C59438   6.587   1.443   4.556 -0.2492 -0.7562 -0.0665
  451MOL0     C59439   6.736   1.459   4.599 -0.1983  0.7272 -0.0188
  451MOL0     C59440   6.835   1.479   4.483  0.1968 -0.2272  0.4415
  451MOL0     C59441   6.969   1.555   4.525  0.3945 -0.6303  0.5911
  451MOL0     C59442   7.050   1.467   4.610 -0.3312  0.1400 -0.0289
  451MOL0     C59443   7.195   1.494   4.572  0.3495  0.7137  0.1337
  451MOL0    Cl59444   7.326   1.483   4.700  0.3677 -0.4516  0.1907
  451MOL0     C59445   6.095   1.360   4.493  0.9767 -0.0685 -1.5246
  451MOL0     C59446   5.967   1.369   4.445 -0.1750 -1.1139 -0.2236
  451MOL0     O59447   5.749   1.682   4.259 -0.5489  0.7168 -0.3815
  451MOL0     C59448   5.517   1.425   4.336  0.0980  0.5151  1.1691
  451MOL0     C59449   5.381   1.392   4.337 -0.3246  0.3011 -0.5491
  451MOL0     N59450   4.633   1.314   3.968 -0.1870 -0.0577 -0.2981
  451MOL0     N59451   4.603   1.190   3.940  0.5267  0.7406 -0.4825
  451MOL0     C59452   5.513   0.401   4.359 -0.4801  0.3118 -1.2106
  451MOL0     C59453   5.654   0.403   4.400 -0.5339 -0.6249 -0.4792
  451MOL0     C59454   6.007   0.588   4.659  0.4549 -0.3535 -0.8610
  451MOL0     C59455   6.054   0.628   4.788  0.7952 -0.4909 -0.1179
  451MOL0     C59456   6.186   0.625   4.812 -0.4963  0.3114 -0.4751
  451MOL0     C59457   6.288   0.590   4.721 -0.7147  0.1094 -0.1731
  451MOL0     O59458   6.422   0.580   4.754  0.1526  0.0349 -0.2216
  451MOL0     C59459   6.451   0.556   4.896 -0.2425 -0.4482 -0.1503
  451MOL0     C59460   6.607   0.530   4.909 -0.2191  0.5464 -0.3764
  451MOL0     C59461   6.642   0.480   5.052  0.1358  0.1901  0.2375
  451MOL0     C59462   6.796   0.467   5.053 -0.1463  0.0665 -0.4317
  451MOL0     C59463   6.844   0.414   5.180  0.2812 -0.9788  0.0544
  451MOL0     C59464   6.898   0.385   5.289 -0.3103 -0.0640 -0.1151
  451MOL0     C59465   6.239   0.554   4.594  0.4907  0.5494  0.2473
  451MOL0     C59466   6.102   0.551   4.562  0.0438 -0.4697  0.0735
  451MOL0     H59467   5.679   0.733   4.466  3.9934 -1.6610  0.6081
  451MOL0     H59468   5.453   0.734   4.385 -1.8982 -0.1484 -0.8878
  451MOL0     H59469   5.218   0.408   4.391  0.2911  2.4791  0.3920
  451MOL0     H59470   5.270   0.337   4.239  1.0774  0.0863  0.8325
  451MOL0     H59471   5.054   0.541   4.274  0.8971  1.6388 -0.8138
  451MOL0     H59472   5.031   0.382   4.206 -1.6527  0.8179 -2.4725
  451MOL0     H59473   5.137   0.422   4.002  1.6139 -3.4220  4.1546
  451MOL0     H59474   5.212   0.574   4.045 -0.2212  0.6535 -1.6542
  451MOL0     H59475   4.983   0.585   3.901  1.4011  0.0134 -0.0667
  451MOL0     H59476   4.900   0.482   4.026  0.8601 -0.6207 -0.5388
  451MOL0     H59477   5.015   0.762   4.058  0.2524 -0.0166  0.5252
  451MOL0     H59478   4.886   0.684   4.165 -3.3280  0.6725 -1.1062
  451MOL0     H59479   4.724   0.696   4.010 -1.0145  2.0470  0.5540
  451MOL0     H59480   4.816   0.726   3.871 -2.0638 -1.2580 -0.7257
  451MOL0     H59481   4.744   0.926   4.093 -0.7107  2.3301 -0.8370
  451MOL0     H59482   4.899   0.953   4.006 -1.0336 -0.1312  1.6534
  451MOL0     H59483   4.619   0.935   3.910 -0.2386  0.9073 -3.2189
  451MOL0     H59484   4.753   0.961   3.800  1.5069  0.4361  1.3019
  451MOL0     H59485   4.928   1.180   3.946  0.5060  0.2484  0.1977
  451MOL0     H59486   4.744   1.521   4.025  1.1558 -0.2579 -0.0418
  451MOL0     H59487   4.886   1.500   3.938  1.5181  1.0830  2.2185
  451MOL0     H59488   4.972   1.363   4.140  1.2506  1.2969 -0.4491
  451MOL0     H59489   4.834   1.421   4.235  2.7955  0.4866  2.4067
  451MOL0     H59490   5.043   1.601   4.092  2.1975 -0.9764  0.7873
  451MOL0     H59491   4.918   1.653   4.189  1.9309  0.8713 -3.0084
  451MOL0     H59492   5.006   1.513   4.383  1.4718 -2.9864 -0.3742
  451MOL0     H59493   5.101   1.657   4.334 -0.2770 -0.3869  1.8036
  451MOL0     H59494   5.277   1.677   4.179 -1.0697 -0.8983  0.0664
  451MOL0     H59495   5.516   1.733   4.199 -1.9017  0.5786 -1.1025
  451MOL0     H59496   5.929   1.709   4.424 -2.6873 -1.2692  0.5342
  451MOL0     H59497   6.177   1.691   4.496 -0.0916  0.4072 -2.6198
  451MOL0     H59498   6.349   1.281   4.563 -1.7515 -1.7014  2.9469
  451MOL0     H59499   6.295   1.336   4.717 -1.1433 -0.3800 -0.8133
  451MOL0     H59500   6.547   1.298   4.694  0.0252 -0.0079  0.4961
  451MOL0     H59501   6.513   1.459   4.755 -2.0557  2.4507 -0.9604
  451MOL0     H59502   6.548   1.540   4.523  2.1727 -0.7387 -3.3893
  451MOL0     H59503   6.579   1.362   4.483 -1.5098 -1.7843  1.1603
  451MOL0     H59504   6.747   1.544   4.667 -1.5045 -1.6564  3.3835
  451MOL0     H59505   6.770   1.373   4.657  0.0998 -0.6056 -2.0616
  451MOL0     H59506   6.793   1.550   4.411  1.6567 -0.8420 -1.0805
  451MOL0     H59507   6.858   1.387   4.430  0.6388 -0.5422  1.1633
  451MOL0     H59508   6.944   1.635   4.595  1.9225 -1.0610  1.6598
  451MOL0     H59509   7.021   1.599   4.439  2.3943 -0.9632  1.5971
  451MOL0     H59510   7.020   1.485   4.713 -1.2022 -0.0932 -0.2343
  451MOL0     H59511   7.018   1.368   4.578 -0.6399  0.1847  0.1470
  451MOL0     H59512   7.204   1.601   4.551  0.1112  1.0869  1.7725
  451MOL0     H59513   7.227   1.435   4.485  2.4595  1.7164  0.1606
  451MOL0     H59514   6.149   1.267   4.509 -0.1573 -0.4482  0.5904
  451MOL0     H59515   5.910   1.278   4.429  1.0258 -2.0013  0.4456
  451MOL0     H59516   5.583   1.353   4.384 -0.4960 -3.3849 -3.1862
  451MOL0     H59517   5.344   1.312   4.399 -2.4067  2.9945  1.9990
  451MOL0     H59518   5.476   0.300   4.340  1.4102 -1.3433  2.7220
  451MOL0     H59519   5.723   0.320   4.405 -0.1622 -0.3044 -0.1585
  451MOL0     H59520   5.985   0.654   4.868  0.4939 -1.1120 -0.1727
  451MOL0     H59521   6.217   0.652   4.913 -2.7881  0.9558  0.1400
  451MOL0     H59522   6.395   0.471   4.938 -0.5996 -1.0991 -1.8481
  451MOL0     H59523   6.428   0.651   4.945 -0.9659 -1.3716  1.3920
  451MOL0     H59524   6.628   0.458   4.829 -1.0955  0.3641 -0.4549
  451MOL0     H59525   6.651   0.628   4.887 -0.1317  0.4841 -0.4779
  451MOL0     H59526   6.595   0.385   5.077  1.8941 -0.2800  1.9751
  451MOL0     H59527   6.620   0.560   5.123 -0.9218  1.0723 -1.0432
  451MOL0     H59528   6.827   0.406   4.967 -1.6986 -0.5347 -0.5828
  451MOL0     H59529   6.843   0.564   5.034 -1.3048  0.4966 -1.1885
  451MOL0     H59530   6.948   0.353   5.378  1.6586 -1.5081 -1.6505
  451MOL0     H59531   6.318   0.518   4.529  0.0519 -3.1159  1.5176
  451MOL0     H59532   6.073   0.511   4.465  0.4210  1.0607 -0.7041
  452MOL0     O59533   1.058   8.831   3.265  0.4825  0.1012 -0.1291
  452MOL0     C59534   1.109   8.755   3.180 -0.3616  0.7225  0.0644
  452MOL0     O59535   1.043   8.667   3.101  0.6168  0.4983  0.1352
  452MOL0     C59536   0.904   8.675   3.102  0.4424 -0.2523  0.1248
  452MOL0     C59537   0.838   8.773   3.030 -0.3639 -0.7641  0.1439
  452MOL0     C59538   0.698   8.778   3.033  0.0826  0.5574 -0.4475
  452MOL0     C59539   0.625   8.670   3.085  0.4056 -0.0974 -1.6527
  452MOL0     O59540   0.486   8.664   3.066 -0.9653 -0.3492  0.4204
  452MOL0     C59541   0.401   8.556   3.122  0.4558  0.0603  0.3890
  452MOL0     C59542   0.263   8.601   3.098  0.3980  0.5683 -0.5520
  452MOL0     C59543   0.166   8.477   3.121 -1.1425  0.3109 -0.4824
  452MOL0     C59544   0.024   8.517   3.073  0.1126  0.1137 -0.4775
  452MOL0     C59545  -0.085   8.420   3.108  1.1038  0.3895 -0.0183
  452MOL0     C59546  -0.203   8.456   3.022 -0.3821  0.4484  1.1886
  452MOL0     C59547  -0.309   8.543   3.095  0.3138  0.5852 -0.3925
  452MOL0     C59548  -0.420   8.612   3.014  0.4884 -0.5650  0.7826
  452MOL0     N59549  -0.544   8.623   3.094 -0.3456 -0.2634 -0.0100
  452MOL0     C59550  -0.602   8.742   3.099  0.5370 -0.0476  0.3573
  452MOL0     C59551  -0.728   8.721   3.135  0.4452  0.3059  0.1155
  452MOL0     C59552  -0.838   8.830   3.140 -0.4041  0.4442  0.3867
  452MOL0     C59553  -0.927   8.827   3.272 -1.0597  0.0250 -0.2720
  452MOL0     C59554  -1.055   8.901   3.261 -0.5253 -0.6648 -0.3309
  452MOL0     C59555  -1.052   9.051   3.295  0.3748  0.6796 -0.5157
  452MOL0     O59556  -1.155   9.128   3.228 -0.3164 -0.2657 -0.7889
  452MOL0     C59557  -1.287   9.111   3.253  0.0485  0.4740  0.7408
  452MOL0     C59558  -1.364   9.147   3.137  0.2164  0.5859  0.0159
  452MOL0     C59559  -1.503   9.141   3.146 -0.1782  0.1051  0.2693
  452MOL0     C59560  -1.564   9.103   3.267  0.1974  0.6866 -0.7760
  452MOL0     C59561  -1.707   9.100   3.273 -0.4925  0.4247 -0.0789
  452MOL0     O59562  -1.778   9.141   3.166 -0.1580 -0.4120  0.4564
  452MOL0     C59563  -1.921   9.135   3.159  0.6817  0.6291 -0.6835
  452MOL0     C59564  -1.998   9.222   3.081  0.7410 -0.3379  0.0449
  452MOL0     C59565  -2.131   9.222   3.072 -1.0268 -0.1671  0.7414
  452MOL0     C59566  -2.202   9.126   3.135  0.6987 -0.6752 -0.0856
  452MOL0     O59567  -2.334   9.109   3.102 -0.3815 -0.3034  0.1299
  452MOL0     C59568  -2.431   9.130   3.207  0.3353 -0.7676  0.9353
  452MOL0     C59569  -2.578   9.116   3.140 -0.0810  0.0974  0.5149
  452MOL0     C59570  -2.686   9.155   3.241 -0.3600 -0.5456 -0.1879
  452MOL0     C59571  -2.820   9.117   3.192  0.4364 -0.6726 -0.0845
  452MOL0     C59572  -2.914   9.099   3.303 -0.1921  0.9006 -0.7305
  452MOL0     C59573  -3.060   9.092   3.251 -0.3464  0.1156  1.4625
  452MOL0     C59574  -3.101   8.953   3.185 -0.4511  0.4648  0.5001
  452MOL0     C59575  -3.250   8.949   3.187 -0.6249  0.7345 -0.0312
  452MOL0    Cl59576  -3.326   8.909   3.345  0.0608 -0.2608 -0.3378
  452MOL0     C59577  -2.139   9.024   3.209  0.4181 -0.1601  0.4274
  452MOL0     C59578  -1.998   9.036   3.225  0.4839  0.0096 -0.9930
  452MOL0     O59579  -1.754   9.059   3.380  0.1126 -0.3889 -0.0685
  452MOL0     C59580  -1.489   9.060   3.377  0.5686  0.0131 -0.0144
  452MOL0     C59581  -1.349   9.061   3.370 -0.2856 -0.8477 -0.0466
  452MOL0     N59582  -0.750   8.586   3.152 -0.4973 -0.7625 -0.0378
  452MOL0     N59583  -0.636   8.525   3.127 -0.9871 -0.3903  0.1743
  452MOL0     C59584   0.697   8.565   3.149 -0.4296  0.2519  0.3136
  452MOL0     C59585   0.832   8.568   3.157  0.1903 -0.2101 -0.7045
  452MOL0     C59586   1.251   8.767   3.164 -0.7527 -0.0100 -0.9638
  452MOL0     C59587   1.311   8.890   3.216  0.9435  0.2200  0.5977
  452MOL0     C59588   1.446   8.916   3.184  0.0426 -1.1276 -0.4668
  452MOL0     C59589   1.520   8.826   3.116 -0.3533 -0.3814 -0.5231
  452MOL0     O59590   1.654   8.844   3.088 -0.6186 -0.0617  0.4234
  452MOL0     C59591   1.744   8.833   3.195 -0.5099  0.0683 -0.5126
  452MOL0     C59592   1.738   8.684   3.238  0.2046  0.7244  0.3591
  452MOL0     C59593   1.808   8.678   3.373 -0.4066  0.6161  0.4113
  452MOL0     C59594   1.949   8.735   3.372 -0.1680 -0.7652  0.0997
  452MOL0     C59595   2.009   8.696   3.501  0.2922  0.0725 -0.3591
  452MOL0     C59596   2.062   8.673   3.615 -0.7750  0.2038 -0.1022
  452MOL0     C59597   1.465   8.705   3.069  0.1252  0.4890 -0.4084
  452MOL0     C59598   1.327   8.680   3.088  0.6111 -1.0704  0.4007
  452MOL0     H59599   0.903   8.849   2.988 -0.2468 -1.2844 -0.6328
  452MOL0     H59600   0.647   8.857   2.980  1.0896 -0.5292 -3.2189
  452MOL0     H59601   0.420   8.545   3.229 -2.0507  1.0815  1.0017
  452MOL0     H59602   0.418   8.461   3.070 -2.1293 -2.3671  3.5761
  452MOL0     H59603   0.247   8.641   2.998  2.2660  0.6788 -0.8310
  452MOL0     H59604   0.240   8.682   3.168 -0.7248  0.5114 -0.8323
  452MOL0     H59605   0.179   8.441   3.223  0.4852  0.0053 -0.7790
  452MOL0     H59606   0.201   8.392   3.062 -0.5234 -0.5403  1.0832
  452MOL0     H59607  -0.013   8.612   3.111 -2.6482 -0.1594 -2.2157
  452MOL0     H59608   0.043   8.535   2.966  1.0717 -0.1997 -0.3779
  452MOL0     H59609  -0.112   8.435   3.213  3.0470 -0.4767  0.6599
  452MOL0     H59610  -0.062   8.314   3.099 -1.4206 -0.0966 -1.5559
  452MOL0     H59611  -0.254   8.366   2.988  1.6719 -0.3263 -0.0579
  452MOL0     H59612  -0.169   8.506   2.931  0.7953  0.2697  1.5066
  452MOL0     H59613  -0.360   8.480   3.167  1.6466  2.2659  2.1647
  452MOL0     H59614  -0.251   8.626   3.138 -0.7910 -0.3912  3.3164
  452MOL0     H59615  -0.443   8.557   2.923  0.2612  1.3888 -0.3916
  452MOL0     H59616  -0.378   8.708   2.983 -0.8729  0.6343  2.4130
  452MOL0     H59617  -0.557   8.836   3.069 -1.1617  0.1257 -1.9517
  452MOL0     H59618  -0.902   8.812   3.053 -0.3965 -0.2300  0.5102
  452MOL0     H59619  -0.792   8.928   3.128  0.4029 -0.2435 -3.2394
  452MOL0     H59620  -0.868   8.864   3.356 -1.8170 -0.8374  0.6829
  452MOL0     H59621  -0.943   8.723   3.303  2.6870 -1.0685 -1.5520
  452MOL0     H59622  -1.099   8.888   3.161 -1.3433 -0.1185 -0.0485
  452MOL0     H59623  -1.117   8.851   3.336 -1.4813  0.3440 -0.4199
  452MOL0     H59624  -0.956   9.081   3.251  1.0652 -2.1290 -1.1249
  452MOL0     H59625  -1.058   9.079   3.400 -0.2895  2.0968 -0.9142
  452MOL0     H59626  -1.304   9.178   3.052 -0.5948 -0.8342 -1.1037
  452MOL0     H59627  -1.558   9.168   3.056 -1.1335 -0.9030  0.5288
  452MOL0     H59628  -1.943   9.305   3.038  1.9353 -1.4296 -0.5881
  452MOL0     H59629  -2.176   9.299   3.010 -1.1963 -1.0438 -0.2435
  452MOL0     H59630  -2.416   9.226   3.257  2.2134 -1.6706  2.1947
  452MOL0     H59631  -2.407   9.051   3.278  1.3373 -1.6549 -0.3302
  452MOL0     H59632  -2.596   9.012   3.111  0.2588 -0.0589  0.8571
  452MOL0     H59633  -2.589   9.184   3.054  0.9982 -2.0985 -1.4934
  452MOL0     H59634  -2.679   9.263   3.257  2.8163 -0.5632 -0.8359
  452MOL0     H59635  -2.665   9.105   3.336 -0.3989  0.7661  0.5329
  452MOL0     H59636  -2.858   9.201   3.135 -1.5300 -1.1915  0.3982
  452MOL0     H59637  -2.817   9.029   3.127  0.3653 -0.1338 -0.8280
  452MOL0     H59638  -2.903   9.179   3.377  2.8575 -1.4566  1.5868
  452MOL0     H59639  -2.882   9.008   3.353  0.9242  2.0343  0.7345
  452MOL0     H59640  -3.073   9.170   3.176 -0.4406 -0.4671  0.8553
  452MOL0     H59641  -3.132   9.104   3.332 -1.4267  1.7182  0.3207
  452MOL0     H59642  -3.075   8.934   3.080 -3.2906 -0.8328 -0.0797
  452MOL0     H59643  -3.057   8.864   3.231 -0.6643  0.3470  0.4777
  452MOL0     H59644  -3.282   8.878   3.110  0.8791 -0.5491  0.4836
  452MOL0     H59645  -3.296   9.042   3.151  1.8196  1.7739 -0.6833
  452MOL0     H59646  -2.187   8.938   3.255  2.4949 -1.3878  0.4034
  452MOL0     H59647  -1.952   8.953   3.278 -1.0517 -0.5108 -0.4189
  452MOL0     H59648  -1.540   9.032   3.468  1.2919  1.4681  0.8765
  452MOL0     H59649  -1.281   9.044   3.453  0.2530  1.2777 -0.0067
  452MOL0     H59650   0.639   8.482   3.188  0.0516 -1.4289 -2.3036
  452MOL0     H59651   0.894   8.487   3.194  2.7164  1.4799 -0.9589
  452MOL0     H59652   1.275   8.964   3.287  4.6759  4.5090 -1.4031
  452MOL0     H59653   1.488   9.012   3.214 -2.0641  0.7154 -2.9308
  452MOL0     H59654   1.711   8.909   3.266 -1.4179 -0.0158 -0.8415
  452MOL0     H59655   1.847   8.857   3.166 -0.4135 -0.3285 -0.5021
  452MOL0     H59656   1.640   8.643   3.265  1.5351 -1.5561  2.1871
  452MOL0     H59657   1.791   8.619   3.168  1.3418  3.1418 -1.1228
  452MOL0     H59658   1.809   8.575   3.410  1.4411  0.3948 -0.1587
  452MOL0     H59659   1.748   8.739   3.442  0.1437  0.1057  1.3655
  452MOL0     H59660   2.009   8.695   3.289  3.1778  5.1620 -0.9034
  452MOL0     H59661   1.950   8.844   3.364  1.4835 -0.7893 -0.4234
  452MOL0     H59662   2.102   8.646   3.711  0.7166  0.0367 -0.7468
  452MOL0     H59663   1.529   8.644   3.006  3.1884 -0.1678  3.0663
  452MOL0     H59664   1.279   8.591   3.048 -0.9742  0.0549 -0.3517
  453MOL0     O59665   0.400   8.359   7.848 -0.0022  0.4677  0.3340
  453MOL0     C59666   0.459   8.291   7.758 -0.8096 -0.8835 -0.2997
  453MOL0     O59667   0.400   8.249   7.637 -0.5665 -0.8968 -0.4793
  453MOL0     C59668   0.269   8.257   7.608 -0.1770 -0.1069  0.2831
  453MOL0     C59669   0.174   8.328   7.680  0.1355  0.6680  0.1889
  453MOL0     C59670   0.035   8.325   7.638 -0.7623  1.2044 -0.8393
  453MOL0     C59671  -0.011   8.247   7.539  0.6219 -0.1068  0.9686
  453MOL0     O59672  -0.153   8.242   7.521  0.7360  0.5279  0.1480
  453MOL0     C59673  -0.205   8.121   7.469 -0.0989 -0.4889  0.0912
  453MOL0     C59674  -0.359   8.131   7.504 -0.1182  0.6364  0.5399
  453MOL0     C59675  -0.418   8.231   7.394  0.2117  0.2247  0.1361
  453MOL0     C59676  -0.563   8.243   7.401 -0.6073 -0.0049  0.9505
  453MOL0     C59677  -0.612   8.376   7.340 -1.3295 -0.5035  0.2074
  453MOL0     C59678  -0.770   8.390   7.321  0.1628  0.3782 -0.1114
  453MOL0     C59679  -0.829   8.455   7.450  0.7892  0.5576 -0.0717
  453MOL0     C59680  -0.980   8.462   7.449  0.3640  0.4518  0.2660
  453MOL0     N59681  -1.040   8.488   7.583 -0.2698 -0.0340  0.1392
  453MOL0     C59682  -1.088   8.401   7.680 -1.0591  0.4171 -0.8777
  453MOL0     C59683  -1.105   8.475   7.797 -0.1796 -1.2218  0.4361
  453MOL0     C59684  -1.149   8.412   7.924  0.6144 -1.0448 -0.5450
  453MOL0     C59685  -1.293   8.376   7.918  1.0748 -0.0999  0.0178
  453MOL0     C59686  -1.319   8.306   8.054 -0.0045 -0.0240  0.5710
  453MOL0     C59687  -1.457   8.241   8.068 -0.5878  0.1684  0.6425
  453MOL0     O59688  -1.560   8.319   8.021 -0.0871  0.0758  0.4420
  453MOL0     C59689  -1.679   8.276   8.063 -0.2065 -0.3593  0.9186
  453MOL0     C59690  -1.759   8.200   7.985 -0.1122  0.4056  0.0012
  453MOL0     C59691  -1.890   8.164   8.017  0.1068 -0.7734 -0.3817
  453MOL0     C59692  -1.932   8.190   8.147 -0.0046 -0.3292 -0.3329
  453MOL0     C59693  -2.062   8.142   8.194  0.2184  0.8413 -0.3661
  453MOL0     O59694  -2.089   8.171   8.324  0.3865  0.0712 -0.3577
  453MOL0     C59695  -2.202   8.135   8.386  0.2319 -0.1924  0.0273
  453MOL0     C59696  -2.328   8.142   8.325 -0.1030 -0.0036 -0.4663
  453MOL0     C59697  -2.444   8.093   8.387  0.1667  0.2831 -0.1211
  453MOL0     C59698  -2.435   8.032   8.518  0.2940  0.1816  0.1004
  453MOL0     O59699  -2.553   7.981   8.563  0.2424 -0.0375 -0.6027
  453MOL0     C59700  -2.559   7.916   8.690  0.3626  0.1994  0.3952
  453MOL0     C59701  -2.700   7.852   8.713 -0.0629 -0.3665 -0.5914
  453MOL0     C59702  -2.788   7.975   8.742  0.4599  0.0967  0.3033
  453MOL0     C59703  -2.934   7.947   8.690  0.4820  1.1468  0.7442
  453MOL0     C59704  -3.031   8.057   8.729 -0.2016 -0.3731  0.2614
  453MOL0     C59705  -3.006   8.184   8.646 -0.1977 -0.8084  0.5515
  453MOL0     C59706  -3.089   8.311   8.670 -0.1428 -0.3700  0.4474
  453MOL0     C59707  -3.232   8.290   8.619  0.4736 -0.0302 -0.2089
  453MOL0    Cl59708  -3.327   8.209   8.739 -0.1803 -0.1615  0.0233
  453MOL0     C59709  -2.313   8.039   8.584 -0.4440 -0.2938 -0.4142
  453MOL0     C59710  -2.193   8.080   8.521 -0.0695 -0.0766 -0.6411
  453MOL0     O59711  -2.138   8.085   8.117  0.3283  0.6717 -0.0765
  453MOL0     C59712  -1.857   8.289   8.224  0.2195  0.5926  0.4428
  453MOL0     C59713  -1.728   8.321   8.179  0.0344  0.4078 -0.0799
  453MOL0     N59714  -1.075   8.608   7.765  0.7444 -0.7990 -0.6402
  453MOL0     N59715  -1.027   8.609   7.646  0.0375 -0.1867  0.6626
  453MOL0     C59716   0.084   8.167   7.468  0.6103 -0.5424 -0.0699
  453MOL0     C59717   0.220   8.177   7.505  0.1225 -0.7604  0.2153
  453MOL0     C59718   0.600   8.261   7.786 -0.8145  0.8840  0.8380
  453MOL0     C59719   0.660   8.292   7.906 -0.6503  0.4642  0.1853
  453MOL0     C59720   0.792   8.246   7.934 -0.7620 -0.3113 -0.7902
  453MOL0     C59721   0.873   8.189   7.837  1.2351 -0.0613  0.1033
  453MOL0     O59722   1.000   8.154   7.880 -0.0731  0.2906  0.5639
  453MOL0     C59723   1.079   8.067   7.796  0.5846  0.5066  0.1330
  453MOL0     C59724   1.231   8.071   7.816 -0.6622 -0.0540  1.1866
  453MOL0     C59725   1.290   7.935   7.751  0.0465  0.1631  0.3847
  453MOL0     C59726   1.433   7.893   7.789 -0.0010 -0.1233 -0.5270
  453MOL0     C59727   1.461   7.751   7.767 -0.2002 -0.5392 -0.4012
  453MOL0     C59728   1.480   7.632   7.750  0.4149 -0.3543 -0.0674
  453MOL0     C59729   0.806   8.160   7.712 -0.6438 -0.6452 -0.2258
  453MOL0     C59730   0.679   8.203   7.685 -0.0851  0.3879 -0.2709
  453MOL0     H59731   0.210   8.402   7.750  0.4052  0.0558  0.7118
  453MOL0     H59732  -0.031   8.397   7.686 -0.2535  0.5597  0.9187
  453MOL0     H59733  -0.173   8.026   7.514 -0.8350  0.2834  2.3516
  453MOL0     H59734  -0.184   8.119   7.362  0.7575 -0.8848  0.2559
  453MOL0     H59735  -0.380   8.168   7.605  3.0866  3.3355  0.3847
  453MOL0     H59736  -0.409   8.034   7.494 -0.7794  0.9503  0.6844
  453MOL0     H59737  -0.394   8.202   7.291 -2.0749  1.0553 -0.6841
  453MOL0     H59738  -0.368   8.327   7.409 -1.4476  0.9823  1.0138
  453MOL0     H59739  -0.606   8.153   7.356 -0.9627 -0.2535  1.7581
  453MOL0     H59740  -0.605   8.250   7.502  0.8833  0.5420  1.5571
  453MOL0     H59741  -0.570   8.392   7.241 -3.4324 -2.3812 -1.0752
  453MOL0     H59742  -0.578   8.457   7.406  1.3050 -1.6078  0.3063
  453MOL0     H59743  -0.824   8.296   7.304 -0.9484  0.6639  1.5619
  453MOL0     H59744  -0.790   8.453   7.234  3.9042 -0.1323 -1.5118
  453MOL0     H59745  -0.791   8.397   7.536  1.5151 -2.1817 -2.0869
  453MOL0     H59746  -0.794   8.557   7.467  0.1375  0.4019  2.6120
  453MOL0     H59747  -1.011   8.366   7.408 -0.4891 -0.9303  3.7512
  453MOL0     H59748  -1.010   8.542   7.381 -0.9179 -0.0272  0.2495
  453MOL0     H59749  -1.080   8.292   7.675 -0.8870  0.1775  2.6213
  453MOL0     H59750  -1.127   8.482   8.005  1.2474 -0.9014 -0.8407
  453MOL0     H59751  -1.091   8.323   7.951  0.0459 -1.9748 -2.2340
  453MOL0     H59752  -1.304   8.312   7.830 -0.4096  2.1587 -1.5218
  453MOL0     H59753  -1.358   8.463   7.906 -2.5628 -2.7321 -0.9585
  453MOL0     H59754  -1.243   8.238   8.093  0.5179  0.3887  0.2872
  453MOL0     H59755  -1.316   8.376   8.137 -2.4593  1.0642 -0.1767
  453MOL0     H59756  -1.470   8.209   8.172  1.9191 -1.8010  0.4441
  453MOL0     H59757  -1.446   8.148   8.013  1.1090  0.7749 -0.1097
  453MOL0     H59758  -1.717   8.155   7.895 -2.5060 -2.7266  0.2622
  453MOL0     H59759  -1.958   8.107   7.953 -0.2935 -1.2133  0.4218
  453MOL0     H59760  -2.336   8.181   8.224  3.6788  1.2959 -0.4372
  453MOL0     H59761  -2.539   8.088   8.335  1.5952 -1.9257 -2.7200
  453MOL0     H59762  -2.538   7.990   8.768 -1.2035 -0.5678  1.6037
  453MOL0     H59763  -2.494   7.828   8.697  0.2860 -0.0052 -1.0922
  453MOL0     H59764  -2.703   7.779   8.794 -2.0359 -0.1171 -0.3944
  453MOL0     H59765  -2.730   7.812   8.616  0.7051  0.6692 -1.2824
  453MOL0     H59766  -2.756   8.060   8.681  0.7082 -0.1110  0.1439
  453MOL0     H59767  -2.787   7.994   8.850 -4.1130  0.7799  0.4394
  453MOL0     H59768  -2.933   7.938   8.581  2.0026 -0.1778  0.8344
  453MOL0     H59769  -2.958   7.852   8.738  5.0659 -1.4419 -1.4696
  453MOL0     H59770  -3.029   8.086   8.834 -1.3832  0.1574  0.1577
  453MOL0     H59771  -3.134   8.022   8.715 -0.2541 -0.4228  0.7601
  453MOL0     H59772  -3.030   8.162   8.541 -0.2593  2.6805 -0.2845
  453MOL0     H59773  -2.898   8.203   8.654  1.0064 -4.6927 -2.8376
  453MOL0     H59774  -3.094   8.323   8.779 -2.3859  1.8982  0.1998
  453MOL0     H59775  -3.061   8.403   8.618 -3.1760  1.3033  1.5006
  453MOL0     H59776  -3.234   8.229   8.528  0.3697  0.4921 -0.5562
  453MOL0     H59777  -3.265   8.393   8.602  0.9988  0.6094  2.2384
  453MOL0     H59778  -2.304   8.002   8.685  0.0489 -1.6177 -0.9254
  453MOL0     H59779  -2.101   8.066   8.576 -0.7781  1.3531  0.9994
  453MOL0     H59780  -1.885   8.318   8.324  2.1746 -0.0720  1.2399
  453MOL0     H59781  -1.662   8.379   8.244 -2.9540  1.7305  2.0086
  453MOL0     H59782   0.055   8.098   7.389 -1.6381  0.8527 -0.5772
  453MOL0     H59783   0.293   8.122   7.447  0.1678  0.4166 -0.8603
  453MOL0     H59784   0.607   8.343   7.986  0.8011  1.2549  0.6940
  453MOL0     H59785   0.835   8.266   8.031  0.2266 -2.2380 -0.7927
  453MOL0     H59786   1.058   8.075   7.688  2.7762 -0.4419 -0.4152
  453MOL0     H59787   1.051   7.965   7.821  0.3887  0.4067 -0.4621
  453MOL0     H59788   1.275   8.161   7.772 -1.2071  1.0004  2.7016
  453MOL0     H59789   1.259   8.074   7.921  1.2410 -0.7829  0.7394
  453MOL0     H59790   1.282   7.934   7.642  0.7711 -0.6050  0.3272
  453MOL0     H59791   1.229   7.854   7.791  0.1981 -0.6624 -1.0025
  453MOL0     H59792   1.490   7.961   7.725 -0.5010  0.1384 -0.7070
  453MOL0     H59793   1.443   7.918   7.895  2.6700  0.5270 -0.8753
  453MOL0     H59794   1.478   7.525   7.741  1.8012 -0.4070 -0.0204
  453MOL0     H59795   0.848   8.111   7.625 -2.0190 -2.3039 -0.0216
  453MOL0     H59796   0.626   8.189   7.592  0.1432  2.6866 -0.8043
  454MOL0     O59797   0.490   5.682   6.054  0.8196  0.4356  0.6741
  454MOL0     C59798   0.489   5.576   6.120 -0.3273  0.7014 -0.1756
  454MOL0     O59799   0.476   5.565   6.255  0.2345 -0.6117  0.2551
  454MOL0     C59800   0.424   5.678   6.315 -0.4027  0.8767  0.4642
  454MOL0     C59801   0.497   5.756   6.405 -0.8514 -0.8394  0.9041
  454MOL0     C59802   0.434   5.864   6.468  0.0531 -0.6175 -0.8571
  454MOL0     C59803   0.302   5.903   6.443  0.8668 -0.9772  0.7961
  454MOL0     O59804   0.239   6.007   6.494  0.5810 -0.1120  0.3212
  454MOL0     C59805   0.284   6.135   6.461 -0.3760  0.3828  0.2624
  454MOL0     C59806   0.196   6.241   6.521 -0.0700 -0.2341  0.1084
  454MOL0     C59807   0.248   6.395   6.521  0.1947 -0.4866 -0.3308
  454MOL0     C59808   0.148   6.493   6.581  0.1641 -0.6370  0.5880
  454MOL0     C59809   0.132   6.500   6.732  0.1313  0.3052 -0.0644
  454MOL0     C59810   0.001   6.417   6.766 -0.1833 -0.1498 -1.0020
  454MOL0     C59811  -0.033   6.414   6.923  0.1970  0.3890  0.0172
  454MOL0     C59812   0.094   6.364   7.009 -0.3177  1.0192  0.9204
  454MOL0     N59813   0.063   6.315   7.139  0.2923 -0.1652  0.3469
  454MOL0     C59814  -0.017   6.211   7.175  0.1007  0.0082 -0.5795
  454MOL0     C59815  -0.011   6.200   7.311 -0.2663 -0.8250  1.0013
  454MOL0     C59816  -0.099   6.116   7.397 -0.5357  0.9288  0.0686
  454MOL0     C59817  -0.171   6.193   7.502  0.0687 -0.6800  0.3506
  454MOL0     C59818  -0.272   6.107   7.569  0.7788  0.4728  0.2212
  454MOL0     C59819  -0.321   6.182   7.694  0.4338  0.4362 -0.8109
  454MOL0     O59820  -0.405   6.086   7.776 -0.3562 -0.4235  0.1318
  454MOL0     C59821  -0.538   6.065   7.755 -0.0469 -0.2483  0.4047
  454MOL0     C59822  -0.606   5.972   7.836 -0.8861  0.2995 -0.0682
  454MOL0     C59823  -0.744   5.936   7.817 -0.8354 -0.0612  0.0437
  454MOL0     C59824  -0.825   5.999   7.715  0.1896 -0.8156 -0.3128
  454MOL0     C59825  -0.964   5.971   7.706  0.3103 -0.0051 -0.6337
  454MOL0     O59826  -1.037   6.039   7.605  0.1496 -0.1498  0.1271
  454MOL0     C59827  -1.170   6.013   7.608 -0.3666 -0.4188  0.4499
  454MOL0     C59828  -1.223   5.887   7.569 -0.1448  0.2792 -0.8711
  454MOL0     C59829  -1.358   5.860   7.573 -0.5778 -0.4610  0.1642
  454MOL0     C59830  -1.445   5.968   7.609 -0.9303  0.1820  0.1465
  454MOL0     O59831  -1.582   5.966   7.608  0.1440  0.5176 -0.3103
  454MOL0     C59832  -1.640   5.866   7.517  0.4042  0.7018 -0.3958
  454MOL0     C59833  -1.782   5.926   7.496  0.5993 -0.6968  0.4733
  454MOL0     C59834  -1.857   5.903   7.633 -0.0211 -0.0564  0.0625
  454MOL0     C59835  -1.993   5.960   7.628 -0.8758  0.8107 -0.7872
  454MOL0     C59836  -2.056   5.990   7.766 -0.1069 -0.4281  0.3956
  454MOL0     C59837  -2.172   6.089   7.753 -0.3897 -0.1449  0.5375
  454MOL0     C59838  -2.290   6.041   7.666  0.0258  0.4643  0.3043
  454MOL0     C59839  -2.368   5.946   7.757  0.3839 -0.3063  0.9462
  454MOL0    Cl59840  -2.511   5.877   7.664  0.0765 -0.0566 -0.0235
  454MOL0     C59841  -1.388   6.094   7.633  0.7477 -0.1066  0.3422
  454MOL0     C59842  -1.258   6.120   7.640  0.9006 -0.5923 -0.3598
  454MOL0     O59843  -1.012   5.892   7.791 -1.1207  0.0528  0.1053
  454MOL0     C59844  -0.753   6.093   7.632 -0.9154  0.6875 -0.9659
  454MOL0     C59845  -0.618   6.129   7.658  0.2917 -0.1039 -0.2238
  454MOL0     N59846   0.077   6.290   7.350  0.1922 -0.2427 -0.2380
  454MOL0     N59847   0.119   6.367   7.252 -0.6342  0.3295 -0.7095
  454MOL0     C59848   0.225   5.824   6.348 -0.1815 -0.2222  0.4157
  454MOL0     C59849   0.294   5.714   6.290 -0.6479 -0.7786  0.5455
  454MOL0     C59850   0.509   5.451   6.048  0.8675 -0.7112 -1.1001
  454MOL0     C59851   0.589   5.445   5.934 -0.0868 -1.2678 -0.1968
  454MOL0     C59852   0.615   5.328   5.870  0.3978  1.0946 -0.1451
  454MOL0     C59853   0.549   5.210   5.909 -0.3743  0.2511 -0.4484
  454MOL0     O59854   0.564   5.094   5.844  0.4140  0.8274 -0.2460
  454MOL0     C59855   0.567   5.099   5.696  0.5301 -0.3372  0.8325
  454MOL0     C59856   0.429   5.140   5.639  0.9002  0.2996 -0.7828
  454MOL0     C59857   0.327   5.024   5.641 -0.6131 -0.4378 -0.1699
  454MOL0     C59858   0.192   5.073   5.593 -0.7243  0.0422  0.4420
  454MOL0     C59859   0.078   4.995   5.632 -0.3231 -0.7805 -0.0263
  454MOL0     C59860  -0.021   4.931   5.652  0.3947 -1.0450 -0.3867
  454MOL0     C59861   0.476   5.209   6.024  0.0776 -0.1620 -0.5658
  454MOL0     C59862   0.461   5.327   6.094  0.5454 -0.5351  0.0458
  454MOL0     H59863   0.603   5.739   6.422 -1.0136  0.1572  3.3703
  454MOL0     H59864   0.491   5.925   6.537 -1.9058  0.2793  0.0425
  454MOL0     H59865   0.283   6.135   6.352  0.3237 -1.0792  0.2406
  454MOL0     H59866   0.383   6.157   6.501 -0.7683 -0.1426  1.5788
  454MOL0     H59867   0.180   6.208   6.624  1.5143  1.5371  0.9928
  454MOL0     H59868   0.103   6.223   6.467  0.4049  0.3858 -0.9391
  454MOL0     H59869   0.279   6.424   6.420 -0.3507 -0.2944 -0.4460
  454MOL0     H59870   0.343   6.390   6.576  0.7806 -1.5759 -1.3769
  454MOL0     H59871   0.181   6.591   6.545 -1.1527 -1.7003 -4.2368
  454MOL0     H59872   0.050   6.490   6.533  0.5544  0.0457 -0.2964
  454MOL0     H59873   0.130   6.607   6.755  1.1514  0.3949 -0.3281
  454MOL0     H59874   0.223   6.458   6.776 -0.9249  0.2881  2.2501
  454MOL0     H59875   0.015   6.315   6.727 -0.7898 -1.5188  2.0396
  454MOL0     H59876  -0.087   6.463   6.720  0.0242  0.3431 -0.9078
  454MOL0     H59877  -0.047   6.518   6.956  0.6243  0.4614 -0.0240
  454MOL0     H59878  -0.119   6.350   6.943  0.2685  0.8325  1.9974
  454MOL0     H59879   0.169   6.444   7.016  0.9902 -0.0531 -0.2546
  454MOL0     H59880   0.135   6.275   6.960 -3.2798  0.8057 -1.4825
  454MOL0     H59881  -0.088   6.167   7.106 -1.0009  1.0409 -0.1299
  454MOL0     H59882  -0.040   6.043   7.452 -1.7791 -0.5219 -0.4610
  454MOL0     H59883  -0.170   6.050   7.346 -0.4738 -3.2892  4.7533
  454MOL0     H59884  -0.220   6.280   7.458  1.8661  0.0176 -0.3764
  454MOL0     H59885  -0.092   6.236   7.565  1.8146  1.3835 -2.9929
  454MOL0     H59886  -0.360   6.098   7.505  0.5251  0.6031  0.5535
  454MOL0     H59887  -0.235   6.005   7.587 -0.2773 -0.5181 -2.6858
  454MOL0     H59888  -0.387   6.262   7.660 -1.1248 -1.1333 -1.6909
  454MOL0     H59889  -0.238   6.211   7.758  0.2910 -2.1863  0.7088
  454MOL0     H59890  -0.550   5.924   7.916  0.3508 -2.0960 -2.2298
  454MOL0     H59891  -0.796   5.871   7.886 -1.5701  1.4606  0.9787
  454MOL0     H59892  -1.150   5.814   7.538 -1.4303 -0.4282 -2.3992
  454MOL0     H59893  -1.392   5.761   7.546  0.1010 -1.5578  2.9891
  454MOL0     H59894  -1.647   5.763   7.553  5.1836 -2.1549 -5.9436
  454MOL0     H59895  -1.574   5.862   7.430  0.8981 -2.7279 -0.0065
  454MOL0     H59896  -1.837   5.882   7.412  0.8299  0.0604 -0.0904
  454MOL0     H59897  -1.776   6.033   7.473 -0.0951 -0.8700 -0.6094
  454MOL0     H59898  -1.805   5.947   7.719  2.2295 -1.1130 -0.6932
  454MOL0     H59899  -1.864   5.795   7.648  0.2630 -0.4935 -2.5581
  454MOL0     H59900  -1.995   6.052   7.569  0.0220  0.8427 -0.7833
  454MOL0     H59901  -2.059   5.894   7.571 -2.1250 -1.9316  3.3429
  454MOL0     H59902  -1.981   6.038   7.830 -1.1482  2.4012 -0.3570
  454MOL0     H59903  -2.084   5.893   7.809 -0.5074 -0.3281  0.3651
  454MOL0     H59904  -2.142   6.185   7.711 -1.1712  0.6975  1.8348
  454MOL0     H59905  -2.200   6.117   7.855  1.2423  0.3988  0.8666
  454MOL0     H59906  -2.338   6.131   7.628  1.6479  0.3597 -2.2440
  454MOL0     H59907  -2.265   5.991   7.572 -0.8280  1.5047 -0.5007
  454MOL0     H59908  -2.406   5.992   7.849  0.6873  0.6118  0.6231
  454MOL0     H59909  -2.299   5.871   7.795  2.1347 -0.4417 -2.1578
  454MOL0     H59910  -1.456   6.175   7.657  1.0422  0.1752  0.2317
  454MOL0     H59911  -1.218   6.214   7.676 -1.8672  0.4964  0.0814
  454MOL0     H59912  -0.823   6.151   7.571  0.0149  2.4425 -0.4526
  454MOL0     H59913  -0.588   6.200   7.582 -2.2455 -0.9442 -2.1463
  454MOL0     H59914   0.121   5.849   6.332 -0.6777 -1.7317  1.0857
  454MOL0     H59915   0.245   5.647   6.221 -1.0511  1.1847 -1.1456
  454MOL0     H59916   0.632   5.534   5.890 -0.3687 -0.5554  0.9237
  454MOL0     H59917   0.687   5.340   5.791  0.3423  1.8651 -0.0865
  454MOL0     H59918   0.584   5.000   5.653 -3.4977 -1.1097  0.5955
  454MOL0     H59919   0.638   5.174   5.659 -0.9143  0.1409 -1.1038
  454MOL0     H59920   0.391   5.222   5.701  1.8220 -0.3634  0.7186
  454MOL0     H59921   0.438   5.163   5.533 -0.8193 -0.0711 -1.0484
  454MOL0     H59922   0.319   4.990   5.744  1.9927 -1.2559 -0.1570
  454MOL0     H59923   0.343   4.936   5.578 -1.0688 -0.0879 -0.7825
  454MOL0     H59924   0.169   5.179   5.609  1.5989  1.1198 -2.4110
  454MOL0     H59925   0.201   5.068   5.484 -1.9800  2.6112  0.1367
  454MOL0     H59926  -0.104   4.869   5.682  1.0759 -1.4328  0.7353
  454MOL0     H59927   0.424   5.119   6.055 -3.2233  1.4347 -1.0071
  454MOL0     H59928   0.401   5.322   6.184  0.3575  2.6890  0.2093
  455MOL0     O59929   2.050   5.179   8.701 -0.1119 -0.1425 -0.8602
  455MOL0     C59930   2.128   5.169   8.607  0.1535  0.0644  0.2153
  455MOL0     O59931   2.096   5.196   8.474 -0.6412  0.1482  0.4364
  455MOL0     C59932   1.964   5.192   8.442  0.9298  0.1424  0.7065
  455MOL0     C59933   1.907   5.295   8.363  0.1559 -0.7133 -0.8013
  455MOL0     C59934   1.784   5.279   8.302  0.1220 -0.4361  0.3414
  455MOL0     C59935   1.717   5.159   8.316 -0.3381 -0.4996 -0.3594
  455MOL0     O59936   1.588   5.122   8.259  0.4271 -0.1961 -0.1390
  455MOL0     C59937   1.503   5.217   8.199  0.6646 -0.1657 -0.1723
  455MOL0     C59938   1.438   5.317   8.304  0.3564  0.6066  0.4890
  455MOL0     C59939   1.333   5.411   8.227  0.2947  0.3834 -0.2052
  455MOL0     C59940   1.299   5.535   8.306 -0.9642 -0.7726 -0.3349
  455MOL0     C59941   1.192   5.630   8.246  0.4286  0.2690 -0.9062
  455MOL0     C59942   1.147   5.761   8.328 -0.1019 -0.0020 -0.2348
  455MOL0     C59943   1.024   5.826   8.260  0.2933  0.0808  0.3333
  455MOL0     C59944   1.021   5.847   8.106  0.2075  0.5582  0.4117
  455MOL0     N59945   0.913   5.770   8.049  0.2085  0.3543 -0.2307
  455MOL0     C59946   0.783   5.808   8.042  0.8733  0.8965  0.6438
  455MOL0     C59947   0.722   5.720   7.956 -0.3251  0.1585 -0.4553
  455MOL0     C59948   0.579   5.706   7.923 -0.2024 -0.2630  0.1878
  455MOL0     C59949   0.541   5.556   7.914 -0.5237  0.0727 -0.7154
  455MOL0     C59950   0.387   5.545   7.899  0.1611  1.5288  0.2046
  455MOL0     C59951   0.356   5.404   7.853 -0.2671  0.5057 -0.2013
  455MOL0     O59952   0.373   5.322   7.969  0.2532  0.2983 -0.5281
  455MOL0     C59953   0.259   5.290   8.042  0.1427 -0.2442 -0.2807
  455MOL0     C59954   0.123   5.275   7.991 -0.8723 -0.0600  0.6388
  455MOL0     C59955   0.023   5.236   8.080  0.1939  0.0036  0.0607
  455MOL0     C59956   0.042   5.202   8.215 -0.1239 -0.8180  0.2655
  455MOL0     C59957  -0.067   5.164   8.301  0.4574  0.1667 -0.3802
  455MOL0     O59958  -0.041   5.132   8.428 -0.0908  0.0559 -0.1198
  455MOL0     C59959  -0.142   5.098   8.517 -0.3161  0.0679  0.1694
  455MOL0     C59960  -0.197   4.977   8.505 -0.4673  0.1819 -1.0228
  455MOL0     C59961  -0.289   4.940   8.599  0.5740  0.2031 -0.1964
  455MOL0     C59962  -0.335   5.027   8.690  0.0298 -0.0848 -0.1229
  455MOL0     O59963  -0.421   4.983   8.794 -0.2629 -1.0200  0.1036
  455MOL0     C59964  -0.510   4.874   8.768  0.2176 -0.9762  0.7834
  455MOL0     C59965  -0.636   4.898   8.850  0.6374  0.1207  0.1879
  455MOL0     C59966  -0.722   5.013   8.798 -0.9560  0.0977  0.4645
  455MOL0     C59967  -0.868   5.012   8.854  0.6252 -0.9875 -0.0064
  455MOL0     C59968  -0.947   4.886   8.830  0.9590  0.0239 -0.4753
  455MOL0     C59969  -1.092   4.914   8.880  0.1738 -0.6475  0.3267
  455MOL0     C59970  -1.184   4.788   8.877  0.3793  0.2177  0.5402
  455MOL0     C59971  -1.320   4.844   8.932  0.7843 -0.8081 -0.0529
  455MOL0    Cl59972  -1.439   4.719   8.938  0.1059 -0.0619 -0.1071
  455MOL0     C59973  -0.282   5.156   8.701  0.8056  0.0155 -0.0515
  455MOL0     C59974  -0.181   5.189   8.617 -0.1296 -0.5033 -0.3764
  455MOL0     O59975  -0.179   5.156   8.250  0.4238  0.8216 -0.1691
  455MOL0     C59976   0.177   5.221   8.255  0.5108 -0.3277 -0.7798
  455MOL0     C59977   0.278   5.267   8.177  0.5826  0.4907 -0.7244
  455MOL0     N59978   0.809   5.618   7.922 -0.1294  0.3403 -0.4256
  455MOL0     N59979   0.923   5.652   7.984  0.0484  0.9630  0.3383
  455MOL0     C59980   1.774   5.057   8.395 -0.5513  0.5752 -0.1925
  455MOL0     C59981   1.895   5.072   8.458  0.4489 -0.5810  0.1514
  455MOL0     C59982   2.269   5.130   8.632  0.9218  0.4603 -0.0878
  455MOL0     C59983   2.294   5.038   8.730  1.2012  0.2598  0.4915
  455MOL0     C59984   2.418   4.993   8.761  0.1310  0.9582 -0.1898
  455MOL0     C59985   2.529   5.057   8.707 -0.5800 -0.1503 -0.4033
  455MOL0     O59986   2.655   5.016   8.738  0.9398  0.4486 -0.1222
  455MOL0     C59987   2.695   5.022   8.877 -0.2456 -0.8394  0.1860
  455MOL0     C59988   2.845   5.015   8.908  0.2766  0.2674  0.3813
  455MOL0     C59989   2.869   5.048   9.052  0.1063  0.2137 -0.0635
  455MOL0     C59990   2.909   4.926   9.135 -0.0047  0.0145  0.0540
  455MOL0     C59991   3.050   4.898   9.120  0.5225  0.7352  0.0478
  455MOL0     C59992   3.163   4.858   9.114 -0.1915  0.7164 -0.6989
  455MOL0     C59993   2.509   5.163   8.611 -0.0297 -0.0783 -0.7627
  455MOL0     C59994   2.375   5.198   8.576  0.5705 -0.5549  0.0960
  455MOL0     H59995   1.960   5.390   8.358  1.7964 -1.6190 -1.2919
  455MOL0     H59996   1.732   5.359   8.250  0.4225  0.3762  1.2603
  455MOL0     H59997   1.427   5.170   8.136  1.2996 -2.5647  0.7402
  455MOL0     H59998   1.565   5.280   8.135 -3.4904  0.3146 -4.2120
  455MOL0     H59999   1.526   5.375   8.334 -0.3107  1.8520  0.1085
  455MOL0     H60000   1.395   5.262   8.389 -2.8303  3.0005  0.6201
  455MOL0     H60001   1.233   5.368   8.213  0.5024  0.1151 -0.9345
  455MOL0     H60002   1.363   5.431   8.124  2.5359 -3.0694 -0.4106
  455MOL0     H60003   1.261   5.498   8.402 -0.9489  2.3609  0.9821
  455MOL0     H60004   1.397   5.579   8.326 -0.5196 -1.4527 -0.9772
  455MOL0     H60005   1.110   5.557   8.239  1.0766 -0.6866  0.7276
  455MOL0     H60006   1.222   5.658   8.145  1.3305  4.4671  0.3397
  455MOL0     H60007   1.234   5.827   8.336  1.4493 -2.1589  1.7970
  455MOL0     H60008   1.118   5.717   8.423  2.1846 -3.5911 -0.9810
  455MOL0     H60009   0.932   5.784   8.302 -1.6051  1.1117 -2.4913
  455MOL0     H60010   1.023   5.929   8.295  4.6291  0.2340  0.4940
  455MOL0     H60011   1.120   5.821   8.067  0.2514 -0.2102  1.0095
  455MOL0     H60012   1.003   5.952   8.083 -0.7331  0.0216 -1.4445
  455MOL0     H60013   0.741   5.894   8.094  1.0345  1.1329  0.3872
  455MOL0     H60014   0.554   5.738   7.822  0.5372 -5.5440 -1.9925
  455MOL0     H60015   0.512   5.750   7.997 -0.4265 -3.7064  2.2451
  455MOL0     H60016   0.561   5.505   8.008 -1.2937 -1.4306 -1.3384
  455MOL0     H60017   0.595   5.506   7.833  2.7714  3.1123 -0.6461
  455MOL0     H60018   0.334   5.573   7.990 -2.1574  3.7449 -1.6975
  455MOL0     H60019   0.346   5.613   7.824 -3.9544  0.0281  0.8689
  455MOL0     H60020   0.425   5.356   7.782 -0.8111 -1.1476  0.3457
  455MOL0     H60021   0.267   5.398   7.790 -0.2511  0.5497 -0.2291
  455MOL0     H60022   0.092   5.284   7.887  3.9009  0.1284 -1.0058
  455MOL0     H60023  -0.078   5.230   8.040 -0.2072  2.1097  0.6384
  455MOL0     H60024  -0.148   4.904   8.442  1.2900  1.9525 -1.7952
  455MOL0     H60025  -0.315   4.835   8.588 -1.3091  0.6149 -0.0696
  455MOL0     H60026  -0.467   4.776   8.791 -0.0721 -1.5730 -1.0044
  455MOL0     H60027  -0.538   4.876   8.662  1.0122  1.1808  0.5772
  455MOL0     H60028  -0.610   4.915   8.955  3.2450  1.2494 -0.5461
  455MOL0     H60029  -0.694   4.807   8.833  0.7847  0.1506 -0.5039
  455MOL0     H60030  -0.730   4.992   8.691 -2.1486 -2.5140  0.9694
  455MOL0     H60031  -0.668   5.106   8.814  0.3271 -0.6614  0.7644
  455MOL0     H60032  -0.857   5.045   8.958 -1.8839  1.0295 -0.2896
  455MOL0     H60033  -0.919   5.098   8.811  0.9010 -0.6646  0.3116
  455MOL0     H60034  -0.918   4.799   8.890  1.5051 -2.2143 -3.7506
  455MOL0     H60035  -0.952   4.856   8.725 -1.0709  0.8394 -0.6637
  455MOL0     H60036  -1.140   4.993   8.823 -0.1254 -1.7972 -1.0698
  455MOL0     H60037  -1.088   4.948   8.984 -1.0437 -1.0190  0.5081
  455MOL0     H60038  -1.207   4.747   8.778 -0.5715  1.6856  0.1322
  455MOL0     H60039  -1.145   4.702   8.933  2.4147 -0.6421 -1.9760
  455MOL0     H60040  -1.357   4.926   8.870 -0.5325 -1.0613  0.3634
  455MOL0     H60041  -1.285   4.866   9.033  0.2808  0.1854 -0.0833
  455MOL0     H60042  -0.324   5.226   8.773  0.8053 -2.3009  2.3786
  455MOL0     H60043  -0.122   5.279   8.634  2.6321 -2.1585 -0.6939
  455MOL0     H60044   0.199   5.198   8.359 -0.7038  0.8836 -0.2353
  455MOL0     H60045   0.381   5.289   8.204  0.9198  0.5454 -1.9790
  455MOL0     H60046   1.729   4.960   8.415  1.4906 -0.2031  0.9915
  455MOL0     H60047   1.932   5.004   8.534  1.5821  0.3960  0.5248
  455MOL0     H60048   2.214   4.989   8.783  0.1489 -0.8813 -2.0075
  455MOL0     H60049   2.430   4.926   8.846 -0.0247 -0.9336 -1.5859
  455MOL0     H60050   2.645   4.950   8.942 -0.3986 -3.1736 -2.3572
  455MOL0     H60051   2.656   5.119   8.909 -2.9749 -2.0836  0.8434
  455MOL0     H60052   2.884   4.916   8.885 -2.4648 -0.7768 -0.1885
  455MOL0     H60053   2.896   5.089   8.845 -0.1136 -0.6703 -1.0797
  455MOL0     H60054   2.774   5.077   9.096 -0.8507  1.6149 -2.8416
  455MOL0     H60055   2.952   5.118   9.064  1.7035 -2.0276  3.5443
  455MOL0     H60056   2.896   4.960   9.238 -2.1254 -2.2301  0.6094
  455MOL0     H60057   2.848   4.841   9.105  1.4076 -0.8945 -0.3389
  455MOL0     H60058   3.257   4.812   9.136  0.9144  1.3107 -3.7074
  455MOL0     H60059   2.603   5.194   8.565 -0.5047  0.7329 -1.2023
  455MOL0     H60060   2.356   5.280   8.508 -0.7946  1.0181  2.2110
  456MOL0     O60061   0.741   5.053   0.521 -0.3587 -0.5714  0.7219
  456MOL0     C60062   0.759   4.942   0.567 -0.8964  0.2163 -0.1198
  456MOL0     O60063   0.666   4.854   0.603 -0.0715  0.4435 -0.0845
  456MOL0     C60064   0.538   4.904   0.599 -0.0475 -0.5579  0.6520
  456MOL0     C60065   0.488   4.941   0.476 -0.4804 -0.0485 -0.5118
  456MOL0     C60066   0.354   4.974   0.465  0.7903 -0.1008 -0.1880
  456MOL0     C60067   0.276   4.983   0.577  0.2947 -0.1816 -0.3778
  456MOL0     O60068   0.142   5.018   0.590  0.6756  0.0008  0.4787
  456MOL0     C60069   0.033   4.957   0.515  0.0465 -0.2051  0.7488
  456MOL0     C60070  -0.040   4.851   0.602  0.4819 -0.1078 -0.3889
  456MOL0     C60071  -0.100   4.926   0.725 -0.5477 -0.0666 -0.5589
  456MOL0     C60072  -0.194   4.816   0.795 -0.4626 -0.2288  0.2103
  456MOL0     C60073  -0.215   4.870   0.937 -0.1144 -0.2952  0.3541
  456MOL0     C60074  -0.315   4.776   1.015 -0.8363  0.6833  0.3374
  456MOL0     C60075  -0.324   4.828   1.152  0.1485  0.5221 -0.7493
  456MOL0     C60076  -0.407   4.737   1.244  0.1813  0.1295  0.1684
  456MOL0     N60077  -0.548   4.772   1.225 -0.1943  0.4193  0.0153
  456MOL0     C60078  -0.615   4.863   1.307 -0.6914  0.6495 -0.4463
  456MOL0     C60079  -0.731   4.880   1.250  0.3790  0.0091 -0.5661
  456MOL0     C60080  -0.839   4.970   1.293  0.0063  0.5202 -0.2757
  456MOL0     C60081  -0.979   4.899   1.311  0.2662 -0.4044 -0.0777
  456MOL0     C60082  -1.081   5.006   1.304  0.1609 -0.0271  0.2602
  456MOL0     C60083  -1.229   4.974   1.316  0.7702 -0.2728 -0.8085
  456MOL0     O60084  -1.248   4.934   1.450  0.3995  0.3333 -0.4694
  456MOL0     C60085  -1.374   4.910   1.490  1.0213 -0.0870  0.5553
  456MOL0     C60086  -1.479   4.899   1.392  0.6052  0.1119 -0.4254
  456MOL0     C60087  -1.609   4.885   1.456  0.1046  0.6088  0.1923
  456MOL0     C60088  -1.633   4.879   1.600  0.5923  1.0354 -1.0953
  456MOL0     C60089  -1.773   4.874   1.654  0.4943 -0.9074  0.1558
  456MOL0     O60090  -1.886   4.882   1.571  0.4140  0.4558 -0.0623
  456MOL0     C60091  -2.008   4.836   1.614 -0.4868 -0.0576 -0.4460
  456MOL0     C60092  -2.126   4.914   1.598 -0.9432 -0.4294 -0.1361
  456MOL0     C60093  -2.250   4.873   1.655 -0.3252 -0.0870  1.0757
  456MOL0     C60094  -2.263   4.759   1.725  0.8171  0.6023 -0.5644
  456MOL0     O60095  -2.382   4.737   1.779 -0.8070  0.6713 -0.0431
  456MOL0     C60096  -2.400   4.603   1.828 -0.2676 -0.2590  0.6020
  456MOL0     C60097  -2.547   4.598   1.861  0.0805  0.5609 -1.0770
  456MOL0     C60098  -2.582   4.472   1.941 -0.4009 -0.2821  0.6146
  456MOL0     C60099  -2.724   4.468   1.976  0.3531 -0.1634 -0.1256
  456MOL0     C60100  -2.773   4.350   2.055 -0.2762  1.2750  0.4669
  456MOL0     C60101  -2.915   4.375   2.109  0.1222  0.6778  0.1504
  456MOL0     C60102  -3.023   4.370   1.994 -0.2673  0.0026 -0.1461
  456MOL0     C60103  -3.169   4.340   2.044 -0.2282  0.6202  0.7557
  456MOL0    Cl60104  -3.184   4.187   2.145 -0.5009  0.1825  0.3119
  456MOL0     C60105  -2.152   4.677   1.744  0.1935 -0.5341 -0.0952
  456MOL0     C60106  -2.026   4.715   1.686 -0.2208 -0.0205  0.1162
  456MOL0     O60107  -1.778   4.869   1.776 -0.1010  0.3390  0.0146
  456MOL0     C60108  -1.521   4.886   1.682 -0.0608 -0.1901  1.3149
  456MOL0     C60109  -1.396   4.901   1.630  0.7278 -0.4752  0.4265
  456MOL0     N60110  -0.733   4.813   1.127 -0.1420 -0.4101 -0.2383
  456MOL0     N60111  -0.618   4.759   1.111  0.6394  0.1771  0.3889
  456MOL0     C60112   0.334   4.965   0.701  0.2603 -0.5873  0.1276
  456MOL0     C60113   0.459   4.920   0.713 -0.6935 -0.5531  0.4071
  456MOL0     C60114   0.902   4.896   0.593  0.1701  0.1192  1.1342
  456MOL0     C60115   1.010   4.983   0.566 -0.5588  0.2102  0.2817
  456MOL0     C60116   1.145   4.945   0.581  0.2806  0.2246 -0.0397
  456MOL0     C60117   1.168   4.817   0.624 -0.6435 -0.0549  0.0126
  456MOL0     O60118   1.298   4.778   0.640  0.4888 -0.0219 -0.6044
  456MOL0     C60119   1.330   4.655   0.709 -0.5012 -0.8357 -0.2225
  456MOL0     C60120   1.481   4.643   0.737 -0.2110  0.7058 -0.5737
  456MOL0     C60121   1.514   4.702   0.872 -0.3457 -0.4569  0.3976
  456MOL0     C60122   1.636   4.641   0.945  0.8649 -1.2025  0.0918
  456MOL0     C60123   1.614   4.502   0.998 -0.4089 -0.3381 -0.2408
  456MOL0     C60124   1.576   4.396   1.032 -0.1382  0.9166 -0.2901
  456MOL0     C60125   1.061   4.729   0.639  0.9181 -0.4205 -0.5590
  456MOL0     C60126   0.930   4.774   0.634  0.2335  0.9188 -0.3547
  456MOL0     H60127   0.560   4.937   0.395  0.9259  2.8024  0.4574
  456MOL0     H60128   0.310   4.987   0.367 -0.0316 -1.7370 -0.0686
  456MOL0     H60129   0.081   4.911   0.428  2.3726  0.8078  1.4258
  456MOL0     H60130  -0.035   5.032   0.475  2.1587  0.5275 -1.7691
  456MOL0     H60131   0.024   4.777   0.650  1.9606  1.1308 -0.3513
  456MOL0     H60132  -0.116   4.804   0.539 -1.4156  1.2145  0.7848
  456MOL0     H60133  -0.157   5.015   0.698 -0.3884  0.3627  0.4877
  456MOL0     H60134  -0.027   4.957   0.800 -1.1486 -2.0320  0.9365
  456MOL0     H60135  -0.290   4.794   0.748 -1.4460  0.6042  1.7231
  456MOL0     H60136  -0.138   4.723   0.810 -1.3310 -0.5093  2.0230
  456MOL0     H60137  -0.241   4.976   0.938  0.0851 -0.2403 -0.2313
  456MOL0     H60138  -0.120   4.861   0.991 -0.6113  2.5875  1.9269
  456MOL0     H60139  -0.270   4.676   1.011  1.6869  1.7669 -1.2258
  456MOL0     H60140  -0.414   4.780   0.969 -1.7143  1.2852  2.1656
  456MOL0     H60141  -0.223   4.840   1.192 -0.5799  0.4473  1.2338
  456MOL0     H60142  -0.368   4.928   1.157 -0.8115  0.0625  0.9908
  456MOL0     H60143  -0.382   4.757   1.348 -0.5918  0.7208  0.2486
  456MOL0     H60144  -0.406   4.628   1.235  1.3427  0.0316  1.1963
  456MOL0     H60145  -0.582   4.897   1.405  0.8638 -2.4011  0.1914
  456MOL0     H60146  -0.848   5.049   1.218  1.2014  0.6491 -0.3038
  456MOL0     H60147  -0.813   5.028   1.382  0.5268 -1.0536  0.6403
  456MOL0     H60148  -0.983   4.855   1.411 -1.3777 -1.0700 -0.4053
  456MOL0     H60149  -0.996   4.826   1.231  0.3032 -1.1162  0.5541
  456MOL0     H60150  -1.050   5.081   1.378  2.6313 -0.2217 -0.4911
  456MOL0     H60151  -1.065   5.047   1.204 -2.3763 -1.9387 -1.0214
  456MOL0     H60152  -1.254   4.893   1.246  1.7941 -0.9551 -0.4071
  456MOL0     H60153  -1.285   5.067   1.299  2.3710  1.6503  3.1800
  456MOL0     H60154  -1.468   4.905   1.284  3.9356  1.3222 -0.1289
  456MOL0     H60155  -1.702   4.900   1.403 -1.4873 -0.6127  2.4569
  456MOL0     H60156  -2.111   5.007   1.543  4.0477 -0.5845  0.5086
  456MOL0     H60157  -2.330   4.945   1.636 -1.1973 -1.1501  0.6115
  456MOL0     H60158  -2.354   4.586   1.925  1.2057 -1.9122 -0.3303
  456MOL0     H60159  -2.380   4.525   1.754 -2.9151  0.9397 -1.5790
  456MOL0     H60160  -2.603   4.599   1.767 -0.1539 -1.8610 -1.0371
  456MOL0     H60161  -2.574   4.686   1.920 -0.4919  0.5318 -1.2884
  456MOL0     H60162  -2.524   4.470   2.033  2.7268 -0.6959 -1.2244
  456MOL0     H60163  -2.552   4.384   1.884  1.1641 -0.0184  0.9977
  456MOL0     H60164  -2.735   4.547   2.051 -1.1564 -1.3264  0.9518
  456MOL0     H60165  -2.794   4.488   1.894 -0.0596  1.8596  0.6638
  456MOL0     H60166  -2.705   4.327   2.137 -0.4561 -0.7260  0.1074
  456MOL0     H60167  -2.764   4.262   1.990  1.7198  0.7620  1.3659
  456MOL0     H60168  -2.926   4.466   2.169 -0.4438  0.3390  0.5634
  456MOL0     H60169  -2.933   4.291   2.176  0.1047 -1.8771 -2.8218
  456MOL0     H60170  -3.024   4.469   1.946  3.1892  1.0532  1.5864
  456MOL0     H60171  -2.995   4.297   1.917 -0.3074  2.2692 -2.4689
  456MOL0     H60172  -3.233   4.324   1.958  3.1669 -2.2612 -1.4867
  456MOL0     H60173  -3.208   4.432   2.089 -0.6457  1.0000 -0.3586
  456MOL0     H60174  -2.156   4.592   1.811  0.6174 -0.7015 -0.2792
  456MOL0     H60175  -1.938   4.657   1.710  0.7248  0.1145 -2.6848
  456MOL0     H60176  -1.523   4.863   1.788  0.3327 -1.0167  1.1570
  456MOL0     H60177  -1.315   4.894   1.701  1.2290  2.4579  0.2804
  456MOL0     H60178   0.272   4.972   0.790 -0.0802 -2.4264  0.0710
  456MOL0     H60179   0.507   4.886   0.804 -0.1858 -1.5830 -0.2234
  456MOL0     H60180   0.988   5.083   0.528  1.1231 -0.0466 -1.5254
  456MOL0     H60181   1.227   5.014   0.562 -1.0623  1.5328 -1.3656
  456MOL0     H60182   1.285   4.578   0.645 -3.8505  1.3443 -0.7178
  456MOL0     H60183   1.275   4.639   0.803 -3.8538 -1.5118 -2.1334
  456MOL0     H60184   1.507   4.537   0.745  0.4584  1.0042  1.8882
  456MOL0     H60185   1.543   4.683   0.657 -0.1792 -0.3686 -1.1046
  456MOL0     H60186   1.433   4.681   0.942 -0.6862  0.3189  0.2419
  456MOL0     H60187   1.530   4.809   0.856 -1.8693 -0.3403 -0.6120
  456MOL0     H60188   1.715   4.635   0.869 -0.7572  0.5256 -1.8660
  456MOL0     H60189   1.674   4.715   1.016 -1.7012  0.1684  0.1528
  456MOL0     H60190   1.536   4.305   1.073 -1.2501  2.4011  2.0843
  456MOL0     H60191   1.078   4.625   0.662 -1.8747 -0.8110  0.1401
  456MOL0     H60192   0.849   4.704   0.649  0.5966  0.6758  0.5489
  457MOL0     O60193  10.407   5.064   7.968 -0.5700 -0.3007 -0.3203
  457MOL0     C60194  10.502   5.092   8.037 -0.6279  0.1681  0.3923
  457MOL0     O60195  10.500   5.127   8.166  0.2183  0.0236 -0.2714
  457MOL0     C60196  10.381   5.120   8.233  0.6709 -0.2890  0.2917
  457MOL0     C60197  10.276   5.209   8.206 -0.9367 -0.1217 -0.0536
  457MOL0     C60198  10.151   5.183   8.271  0.5678  0.7221 -0.3221
  457MOL0     C60199  10.131   5.080   8.361 -0.5150 -0.3585  0.2527
  457MOL0     O60200  10.012   5.057   8.406  0.8601  0.2448  0.2940
  457MOL0     C60201   9.994   5.009   8.539  0.2882 -0.0324 -0.4806
  457MOL0     C60202   9.940   4.869   8.521 -0.4137  0.0341  0.7336
  457MOL0     C60203   9.793   4.867   8.472  0.0180 -0.0938  0.4155
  457MOL0     C60204   9.734   4.728   8.469 -0.7254 -0.5642  0.7355
  457MOL0     C60205   9.603   4.711   8.390  0.0557 -0.3485  0.6315
  457MOL0     C60206   9.559   4.560   8.375 -0.0558 -0.4804  0.4796
  457MOL0     C60207   9.611   4.507   8.238 -0.5688 -0.5554 -1.1952
  457MOL0     C60208   9.524   4.545   8.119  0.1385 -0.4056  0.0832
  457MOL0     N60209   9.378   4.520   8.131 -0.7635  0.7618 -0.4608
  457MOL0     C60210   9.279   4.617   8.133  0.2724  0.1983  0.3831
  457MOL0     C60211   9.166   4.540   8.158  0.1805  0.0981  0.6961
  457MOL0     C60212   9.024   4.603   8.155 -0.2479  0.1700  0.1173
  457MOL0     C60213   8.959   4.597   8.291 -0.5876 -0.0495 -0.5588
  457MOL0     C60214   9.040   4.687   8.388 -0.2687 -0.3323  0.0450
  457MOL0     C60215   8.989   4.690   8.532  0.0620 -0.1405  0.6332
  457MOL0     O60216   8.877   4.776   8.508 -0.2841 -0.2112 -0.7655
  457MOL0     C60217   8.795   4.802   8.623 -0.8030 -0.4589 -1.1052
  457MOL0     C60218   8.837   4.787   8.759  0.1783  0.6198  0.3773
  457MOL0     C60219   8.748   4.821   8.864  0.3707  0.2511  1.6130
  457MOL0     C60220   8.620   4.872   8.837  0.4854 -0.5187 -1.5579
  457MOL0     C60221   8.530   4.896   8.950  0.5798 -0.5593 -0.1892
  457MOL0     O60222   8.563   4.834   9.064  0.2498 -0.0366 -0.9828
  457MOL0     C60223   8.479   4.826   9.177 -0.1900  0.4465  0.5326
  457MOL0     C60224   8.477   4.700   9.249 -0.4391  0.0852 -0.8765
  457MOL0     C60225   8.392   4.686   9.363  0.2044  0.8609  0.0563
  457MOL0     C60226   8.308   4.788   9.401 -0.3156  0.3453  0.4942
  457MOL0     O60227   8.224   4.776   9.516  0.3142  0.9092 -0.1175
  457MOL0     C60228   8.087   4.794   9.478 -0.0680  0.9082 -0.2919
  457MOL0     C60229   7.989   4.729   9.566  0.9992 -0.1658  0.4168
  457MOL0     C60230   7.971   4.806   9.697  0.0436 -0.1721  0.6379
  457MOL0     C60231   7.892   4.721   9.793  0.0231  1.2109  0.1308
  457MOL0     C60232   7.838   4.804   9.912 -0.2959 -0.6701  0.3299
  457MOL0     C60233   7.757   4.719  10.005 -0.0248  0.4059 -0.2570
  457MOL0     C60234   7.713   4.814  10.122  0.3903 -0.2213 -0.0255
  457MOL0     C60235   7.652   4.729  10.232 -0.2737  0.1648  0.7564
  457MOL0    Cl60236   7.524   4.623  10.171  0.0654  0.3386  0.0389
  457MOL0     C60237   8.300   4.906   9.317  0.4153 -0.3464 -0.5422
  457MOL0     C60238   8.384   4.926   9.211 -0.6944 -1.2573  0.3891
  457MOL0     O60239   8.424   4.956   8.939 -0.6188 -0.5714 -0.3940
  457MOL0     C60240   8.581   4.883   8.698  0.0221 -0.0489  0.3581
  457MOL0     C60241   8.663   4.849   8.597 -0.6626 -0.2937  0.2551
  457MOL0     N60242   9.194   4.404   8.155  0.6345  0.1224 -0.7544
  457MOL0     N60243   9.322   4.397   8.140  0.2981  0.9141  0.5293
  457MOL0     C60244  10.239   4.990   8.384  1.1598 -0.2103  0.1787
  457MOL0     C60245  10.362   5.015   8.323  0.7356  0.5451 -0.0587
  457MOL0     C60246  10.639   5.087   7.974  0.5286  0.2275 -0.4034
  457MOL0     C60247  10.652   5.033   7.844  0.1290  0.1847  0.5194
  457MOL0     C60248  10.779   5.033   7.779 -0.6927  0.3085  0.2624
  457MOL0     C60249  10.896   5.089   7.843  0.0663  0.0759  0.1349
  457MOL0     O60250  11.020   5.103   7.781 -0.0561 -0.0286  0.1880
  457MOL0     C60251  11.047   5.008   7.682 -0.0236  0.4185 -0.4025
  457MOL0     C60252  11.198   5.019   7.636  0.3063  0.0043 -1.2668
  457MOL0     C60253  11.256   4.886   7.598 -0.6049  0.0241  0.7113
  457MOL0     C60254  11.410   4.889   7.559 -0.1914 -0.6451 -0.3365
  457MOL0     C60255  11.479   4.960   7.674  0.0131 -0.1881 -0.6143
  457MOL0     C60256  11.529   5.025   7.765 -0.5349 -0.7373  0.2416
  457MOL0     C60257  10.879   5.151   7.968  0.0086 -0.3718  0.1175
  457MOL0     C60258  10.755   5.141   8.035 -0.3355  0.4851  0.1006
  457MOL0     H60259  10.284   5.285   8.129 -0.0467 -2.8364 -2.8412
  457MOL0     H60260  10.069   5.248   8.243  0.5730  0.8693 -0.0068
  457MOL0     H60261   9.922   5.073   8.590 -2.9870 -3.5003 -0.2889
  457MOL0     H60262  10.083   5.015   8.602 -0.4500  3.7170  0.4853
  457MOL0     H60263   9.941   4.802   8.608 -2.4309 -1.3356 -0.2172
  457MOL0     H60264  10.006   4.819   8.450 -1.1422 -2.2077  1.5484
  457MOL0     H60265   9.790   4.907   8.370 -1.9378  0.1293  0.5155
  457MOL0     H60266   9.747   4.936   8.544  1.4020 -1.0069  2.2587
  457MOL0     H60267   9.805   4.662   8.418  1.2008  1.3129  0.8421
  457MOL0     H60268   9.724   4.686   8.570 -1.1057  0.2145  1.0294
  457MOL0     H60269   9.598   4.759   8.292 -0.1773  1.1465  1.3395
  457MOL0     H60270   9.527   4.761   8.451 -1.1534 -1.9666  0.5079
  457MOL0     H60271   9.449   4.560   8.379 -0.1277  1.8835  0.4635
  457MOL0     H60272   9.596   4.501   8.459  0.1927  1.1434  1.5706
  457MOL0     H60273   9.715   4.537   8.223 -0.0584 -3.1231 -3.7412
  457MOL0     H60274   9.616   4.398   8.246 -0.4188 -0.4237  1.5304
  457MOL0     H60275   9.557   4.478   8.040 -1.9696  1.2118 -2.3343
  457MOL0     H60276   9.550   4.645   8.084  0.4587 -1.1157 -1.8215
  457MOL0     H60277   9.280   4.725   8.120  0.3171  0.1462 -0.0784
  457MOL0     H60278   8.966   4.547   8.081  0.4897  1.3863 -1.4246
  457MOL0     H60279   9.024   4.704   8.114  2.1681 -0.7466 -2.4597
  457MOL0     H60280   8.949   4.496   8.333  0.9380  0.9244  2.4733
  457MOL0     H60281   8.858   4.639   8.278  0.3866  2.5544 -0.3095
  457MOL0     H60282   9.146   4.664   8.401  0.3240  1.9476 -0.3009
  457MOL0     H60283   9.044   4.791   8.354  2.2542 -0.0355  1.0473
  457MOL0     H60284   9.067   4.723   8.602 -1.2257 -0.2452  2.1851
  457MOL0     H60285   8.953   4.596   8.574  0.9212 -0.4430  0.6983
  457MOL0     H60286   8.934   4.766   8.802 -0.3665  0.0785  1.3743
  457MOL0     H60287   8.768   4.806   8.970 -2.4171 -4.2404  1.7829
  457MOL0     H60288   8.555   4.629   9.222  1.4527  1.6498  0.2649
  457MOL0     H60289   8.394   4.595   9.422  1.2589  0.6395 -0.3086
  457MOL0     H60290   8.079   4.748   9.379 -2.1770  1.4140 -0.4031
  457MOL0     H60291   8.058   4.898   9.459 -0.2369  0.2965 -4.1290
  457MOL0     H60292   8.020   4.627   9.592  0.5958 -0.8271 -1.5177
  457MOL0     H60293   7.892   4.722   9.517  1.2050 -2.1973  0.1940
  457MOL0     H60294   7.933   4.908   9.686  0.2640 -0.1224  0.3378
  457MOL0     H60295   8.069   4.818   9.743  0.1557  0.6058  0.2222
  457MOL0     H60296   7.810   4.678   9.734  1.5069 -0.8881 -0.5127
  457MOL0     H60297   7.951   4.639   9.833 -2.0445 -1.1721 -1.3744
  457MOL0     H60298   7.787   4.898   9.889  2.5578  1.6572  2.6442
  457MOL0     H60299   7.926   4.842   9.964 -0.4619  0.5207 -0.2296
  457MOL0     H60300   7.815   4.632  10.040  0.0975 -0.3002 -2.1115
  457MOL0     H60301   7.668   4.675   9.961  1.0876 -1.2979 -0.9265
  457MOL0     H60302   7.798   4.875  10.152 -1.0056  1.1095  1.4091
  457MOL0     H60303   7.642   4.885  10.079 -0.4339 -1.5441 -0.9456
  457MOL0     H60304   7.609   4.796  10.307 -0.6677  0.4481  0.2840
  457MOL0     H60305   7.732   4.672  10.280  1.7842  0.7188 -1.7929
  457MOL0     H60306   8.234   4.989   9.339  1.4831  0.6012 -0.8031
  457MOL0     H60307   8.385   5.025   9.166 -0.4522 -2.1972 -1.8094
  457MOL0     H60308   8.477   4.899   8.671  0.4122  1.6562 -0.2706
  457MOL0     H60309   8.628   4.846   8.494 -1.8121  0.2193  0.6200
  457MOL0     H60310  10.229   4.910   8.456 -4.3690 -0.7784 -0.7795
  457MOL0     H60311  10.434   4.944   8.363 -1.7402 -0.9876  2.0451
  457MOL0     H60312  10.570   4.985   7.792  1.6147 -1.4862 -0.3865
  457MOL0     H60313  10.789   4.978   7.686  4.2242 -0.6300  1.0439
  457MOL0     H60314  10.977   5.024   7.600 -1.1735  0.3487  0.5499
  457MOL0     H60315  11.018   4.911   7.722 -4.9843  2.0222  0.6258
  457MOL0     H60316  11.193   5.095   7.558 -1.8975  0.2183 -0.9867
  457MOL0     H60317  11.240   5.060   7.728 -1.0427 -4.1366  1.4749
  457MOL0     H60318  11.201   4.857   7.507  0.6326  1.0745 -0.4210
  457MOL0     H60319  11.250   4.809   7.675 -3.7214  2.1861  2.8506
  457MOL0     H60320  11.459   4.798   7.525  1.9585  0.6294 -0.8079
  457MOL0     H60321  11.430   4.958   7.477  0.3548 -1.8642 -1.2493
  457MOL0     H60322  11.580   5.077   7.843 -1.7984 -2.6211  2.4428
  457MOL0     H60323  10.965   5.198   8.015 -0.0745 -0.4135  0.3126
  457MOL0     H60324  10.763   5.194   8.130  0.8427 -2.6980  1.9257
  458MOL0     O60325   0.634   2.872   1.186  0.3988  0.2705 -0.1353
  458MOL0     C60326   0.638   2.842   1.066  0.6983 -0.6867  0.3250
  458MOL0     O60327   0.543   2.776   0.992 -0.6568  0.8202 -0.0773
  458MOL0     C60328   0.420   2.757   1.039  0.0663 -0.4090  0.1495
  458MOL0     C60329   0.344   2.836   1.135  0.3626 -0.2545 -0.8901
  458MOL0     C60330   0.219   2.806   1.170  0.1482  0.9238 -0.2885
  458MOL0     C60331   0.159   2.696   1.114  0.1901 -0.6362 -0.8081
  458MOL0     O60332   0.031   2.667   1.139 -0.5902  0.3731  0.2922
  458MOL0     C60333  -0.056   2.737   1.229  0.1313 -0.3421 -0.1541
  458MOL0     C60334  -0.192   2.667   1.236  0.4229  0.2332 -0.1934
  458MOL0     C60335  -0.269   2.716   1.356  0.3579  0.8922  0.8217
  458MOL0     C60336  -0.413   2.641   1.345 -0.2368 -0.6443 -0.8147
  458MOL0     C60337  -0.509   2.695   1.457 -0.5698  0.5654  0.4735
  458MOL0     C60338  -0.635   2.601   1.458 -0.0956 -0.2836 -0.3101
  458MOL0     C60339  -0.743   2.678   1.545  0.1690  0.2775 -0.4224
  458MOL0     C60340  -0.879   2.614   1.552 -0.3077 -0.4474  0.6169
  458MOL0     N60341  -0.975   2.688   1.632 -0.0964  0.3930 -0.3684
  458MOL0     C60342  -1.029   2.813   1.599  0.1116  0.2169  0.7197
  458MOL0     C60343  -1.111   2.841   1.702  0.5356  0.1913  0.1744
  458MOL0     C60344  -1.172   2.981   1.711  0.0719 -0.0675 -1.0800
  458MOL0     C60345  -1.312   2.978   1.644  0.8035 -0.3638  0.3150
  458MOL0     C60346  -1.296   2.989   1.482 -0.9480  0.0434 -0.5233
  458MOL0     C60347  -1.420   3.006   1.401  0.0761 -0.0908 -0.2979
  458MOL0     O60348  -1.524   2.916   1.447 -0.1459  0.6693 -0.2611
  458MOL0     C60349  -1.654   2.960   1.454 -0.4301 -0.4873 -0.4497
  458MOL0     C60350  -1.701   3.065   1.376  0.5440  0.4218  0.5546
  458MOL0     C60351  -1.836   3.105   1.400  0.9695 -0.6944  0.3114
  458MOL0     C60352  -1.915   3.050   1.502 -0.2416 -0.2621 -0.6649
  458MOL0     C60353  -2.057   3.093   1.522  0.6843  0.3369  1.2342
  458MOL0     O60354  -2.136   3.022   1.610 -0.4654  0.5570 -0.2719
  458MOL0     C60355  -2.256   3.070   1.624  0.5927  1.3291  0.4463
  458MOL0     C60356  -2.298   3.136   1.740  0.3300  0.3768 -0.2845
  458MOL0     C60357  -2.432   3.152   1.771 -0.5103 -0.5084 -0.4036
  458MOL0     C60358  -2.531   3.101   1.687 -0.0978 -1.0992  0.2262
  458MOL0     O60359  -2.664   3.111   1.709 -0.3470 -0.1802 -0.8056
  458MOL0     C60360  -2.715   3.180   1.818  0.1135 -1.0723 -0.5265
  458MOL0     C60361  -2.860   3.222   1.798  0.9672  0.2741  1.2468
  458MOL0     C60362  -2.885   3.303   1.668  0.9096 -0.7444  0.2152
  458MOL0     C60363  -3.018   3.381   1.670  0.5249  0.0906 -0.8927
  458MOL0     C60364  -3.025   3.514   1.599  0.3206 -1.0733 -0.1343
  458MOL0     C60365  -3.154   3.591   1.630  0.2742 -0.2025  0.7036
  458MOL0     C60366  -3.278   3.526   1.559  0.1024 -0.3194 -0.8194
  458MOL0     C60367  -3.403   3.607   1.594  0.3236 -0.1726  0.5508
  458MOL0    Cl60368  -3.543   3.550   1.486 -0.1703 -0.0752  0.2707
  458MOL0     C60369  -2.499   3.019   1.580  0.9871  0.1206  0.7435
  458MOL0     C60370  -2.361   3.011   1.545 -0.8438 -0.6583  0.5753
  458MOL0     O60371  -2.092   3.185   1.451  0.5196  0.1126  0.4141
  458MOL0     C60372  -1.862   2.940   1.571 -0.7191  1.1126 -1.8462
  458MOL0     C60373  -1.733   2.889   1.545 -0.3074 -0.2400 -0.3037
  458MOL0     N60374  -1.113   2.741   1.800 -0.1733  0.2861  0.1746
  458MOL0     N60375  -1.032   2.655   1.753 -0.4832  0.4501  0.2762
  458MOL0     C60376   0.231   2.621   1.026 -0.7293 -0.3911 -0.3495
  458MOL0     C60377   0.359   2.648   0.983  0.3995 -0.2523 -0.2960
  458MOL0     C60378   0.765   2.886   0.997  0.2866 -1.1373 -0.7695
  458MOL0     C60379   0.778   2.888   0.862  0.4560  1.3638  0.0989
  458MOL0     C60380   0.904   2.908   0.800  0.4376  0.8077 -0.0454
  458MOL0     C60381   1.012   2.952   0.884 -0.0069 -0.7181  0.4492
  458MOL0     O60382   1.132   2.969   0.819  0.5180 -0.3412  0.3816
  458MOL0     C60383   1.250   2.976   0.899 -0.2825 -0.2502 -0.3753
  458MOL0     C60384   1.381   3.011   0.831 -0.4212  0.8573  0.7430
  458MOL0     C60385   1.495   2.951   0.902 -0.0964  0.3669 -0.0767
  458MOL0     C60386   1.638   3.001   0.854 -1.5993 -0.1022  0.5275
  458MOL0     C60387   1.692   2.918   0.737  0.8490  0.4023  0.5777
  458MOL0     C60388   1.732   2.845   0.653 -0.0122  0.0847 -1.2074
  458MOL0     C60389   0.998   2.967   1.019 -0.6409  0.8341 -0.0225
  458MOL0     C60390   0.877   2.932   1.074 -0.1524 -0.8033 -0.3222
  458MOL0     H60391   0.378   2.935   1.165  0.4838 -1.2497  2.6249
  458MOL0     H60392   0.184   2.857   1.260  2.6058  1.0074  0.6921
  458MOL0     H60393  -0.082   2.833   1.184 -1.5696 -0.8333 -0.3109
  458MOL0     H60394  -0.004   2.738   1.325  2.5219  0.4909 -1.3701
  458MOL0     H60395  -0.174   2.559   1.247  0.8415  0.2558 -0.6003
  458MOL0     H60396  -0.250   2.685   1.146  0.6533  3.7577  0.2089
  458MOL0     H60397  -0.283   2.824   1.364 -4.1219  0.4637  1.6404
  458MOL0     H60398  -0.215   2.686   1.447 -2.1904 -0.2476  2.0544
  458MOL0     H60399  -0.451   2.649   1.243  3.0447  1.4353 -2.0109
  458MOL0     H60400  -0.392   2.535   1.362  0.9690 -0.5705 -1.7458
  458MOL0     H60401  -0.542   2.798   1.443  0.4231  1.0891  1.7716
  458MOL0     H60402  -0.468   2.687   1.558 -0.0673 -1.5981  0.1458
  458MOL0     H60403  -0.614   2.508   1.513  0.0690  0.4484  0.8931
  458MOL0     H60404  -0.672   2.576   1.358  0.7251  0.1199 -0.7177
  458MOL0     H60405  -0.711   2.692   1.649 -1.9826  1.5808  0.1434
  458MOL0     H60406  -0.762   2.780   1.509  2.8652  0.5758 -1.1715
  458MOL0     H60407  -0.854   2.517   1.595 -1.0643 -0.6542  0.6038
  458MOL0     H60408  -0.915   2.603   1.449 -4.4352 -1.6342  1.9794
  458MOL0     H60409  -0.998   2.881   1.520 -0.0738 -1.1501 -0.5597
  458MOL0     H60410  -1.103   3.059   1.678 -0.3605  0.1093 -1.5784
  458MOL0     H60411  -1.186   2.994   1.819  3.0547  0.0172 -0.6310
  458MOL0     H60412  -1.370   3.060   1.686  2.5424  2.5496 -2.4687
  458MOL0     H60413  -1.359   2.881   1.662 -1.3128 -0.0844 -2.8186
  458MOL0     H60414  -1.228   3.071   1.457 -0.6682  0.1284  0.4677
  458MOL0     H60415  -1.257   2.893   1.446 -0.6669  0.0414 -0.2144
  458MOL0     H60416  -1.387   2.979   1.301  2.9140 -0.5757  0.6606
  458MOL0     H60417  -1.443   3.112   1.408  0.1877 -0.0186 -1.0124
  458MOL0     H60418  -1.638   3.100   1.295  0.5947  0.2312  0.5102
  458MOL0     H60419  -1.874   3.198   1.359 -1.0162 -0.7368  1.9069
  458MOL0     H60420  -2.227   3.170   1.814 -0.9061 -1.4435  1.8637
  458MOL0     H60421  -2.436   3.194   1.871  0.9937  0.1839 -0.6056
  458MOL0     H60422  -2.661   3.274   1.834 -4.6653  1.4639  3.3371
  458MOL0     H60423  -2.697   3.111   1.901  2.4365 -1.6973 -1.4739
  458MOL0     H60424  -2.898   3.286   1.878 -6.5530  1.1931 -2.2019
  458MOL0     H60425  -2.927   3.136   1.790  0.1205  1.0632 -1.1040
  458MOL0     H60426  -2.882   3.237   1.581 -0.7234  0.9182 -1.2092
  458MOL0     H60427  -2.807   3.380   1.668 -1.7047  2.1630  1.7349
  458MOL0     H60428  -3.101   3.316   1.643  0.5028 -1.1533  1.7571
  458MOL0     H60429  -3.025   3.399   1.778  3.7863  0.8292 -0.6675
  458MOL0     H60430  -3.017   3.496   1.491 -2.1164 -2.0923 -0.2171
  458MOL0     H60431  -2.937   3.570   1.632  1.1818 -0.6528 -2.8944
  458MOL0     H60432  -3.147   3.696   1.599  0.0606 -0.4229 -0.1047
  458MOL0     H60433  -3.165   3.586   1.739 -1.2418 -0.8764  0.5433
  458MOL0     H60434  -3.255   3.513   1.453 -2.2483  1.1109 -1.5697
  458MOL0     H60435  -3.297   3.423   1.592 -2.1027 -0.1071 -1.2966
  458MOL0     H60436  -3.383   3.713   1.575 -2.4953  0.5327  1.0598
  458MOL0     H60437  -3.438   3.588   1.696  1.3252 -1.1846  0.7194
  458MOL0     H60438  -2.578   2.989   1.512  2.1614  2.3778 -1.8015
  458MOL0     H60439  -2.323   2.936   1.477  1.3070 -0.6847  1.7042
  458MOL0     H60440  -1.925   2.893   1.645  0.4988  2.4711  0.1537
  458MOL0     H60441  -1.700   2.795   1.589  1.8026  0.2215 -0.7834
  458MOL0     H60442   0.175   2.536   0.989  1.1050 -3.5113  3.3629
  458MOL0     H60443   0.406   2.573   0.921 -0.8735 -1.2259 -0.1198
  458MOL0     H60444   0.708   2.839   0.795  1.1656  0.7919 -0.2424
  458MOL0     H60445   0.923   2.895   0.693  1.1220  1.7784 -0.0486
  458MOL0     H60446   1.261   2.882   0.955  0.4479 -0.2544 -0.5278
  458MOL0     H60447   1.241   3.059   0.969 -1.0094  0.5007 -1.3270
  458MOL0     H60448   1.369   2.985   0.726  2.5705 -0.1784  0.5529
  458MOL0     H60449   1.392   3.120   0.826 -1.3594  0.9942  1.3644
  458MOL0     H60450   1.496   2.843   0.891  0.9755  0.3947 -0.4201
  458MOL0     H60451   1.491   2.980   1.008  1.0441  0.1597  0.0388
  458MOL0     H60452   1.636   3.108   0.833 -3.3272  0.0043  1.0536
  458MOL0     H60453   1.707   2.989   0.937  1.6562  2.5807 -1.5247
  458MOL0     H60454   1.767   2.778   0.577 -0.7450  0.0672 -1.5410
  458MOL0     H60455   1.079   2.997   1.085  0.7373 -0.7928 -0.8801
  458MOL0     H60456   0.871   2.940   1.183  3.0565 -0.5028 -0.0715
  459MOL0     O60457   8.324   6.256   3.739 -0.2132 -0.6584 -0.1819
  459MOL0     C60458   8.369   6.245   3.627 -0.3150 -0.3762  0.6548
  459MOL0     O60459   8.297   6.252   3.511  0.5349 -0.0961 -0.5332
  459MOL0     C60460   8.162   6.241   3.531 -0.7073  0.9781  0.0676
  459MOL0     C60461   8.088   6.351   3.576 -0.7507  1.5419  0.5191
  459MOL0     C60462   7.949   6.353   3.572 -0.1926  0.0566  0.5132
  459MOL0     C60463   7.884   6.236   3.539  0.4055 -0.2759  0.0604
  459MOL0     O60464   7.751   6.242   3.564 -0.0444  0.1220  0.0709
  459MOL0     C60465   7.662   6.134   3.518 -0.9245  0.0253  0.5641
  459MOL0     C60466   7.523   6.165   3.559  0.7181 -0.1202 -0.7412
  459MOL0     C60467   7.486   6.114   3.702 -0.2953 -0.1997  0.5370
  459MOL0     C60468   7.368   6.014   3.709  0.3953  0.1820  0.3854
  459MOL0     C60469   7.330   5.972   3.860 -0.4286  1.1052  0.1278
  459MOL0     C60470   7.271   6.083   3.946  0.1894 -0.1564  0.5884
  459MOL0     C60471   7.126   6.115   3.905 -0.1178  0.1029 -0.3933
  459MOL0     C60472   7.069   6.218   4.002  0.7678  0.1213 -0.7115
  459MOL0     N60473   6.917   6.229   3.986 -0.2405  0.0682  0.2716
  459MOL0     C60474   6.830   6.137   4.022  0.2887  0.3525  0.1587
  459MOL0     C60475   6.699   6.174   3.976 -1.1627 -0.9642 -0.0625
  459MOL0     C60476   6.571   6.121   3.991  0.3302  0.8766 -0.5180
  459MOL0     C60477   6.559   6.005   4.099  0.2336  0.6367 -0.2691
  459MOL0     C60478   6.552   6.060   4.246  0.7877  0.2034 -0.0388
  459MOL0     C60479   6.428   6.140   4.275 -0.1837  0.0041  0.1393
  459MOL0     O60480   6.305   6.074   4.248  0.3750  0.3773  0.3103
  459MOL0     C60481   6.243   6.001   4.342  0.2823 -0.3518 -0.6529
  459MOL0     C60482   6.300   5.976   4.465 -0.2867  0.2945 -0.7083
  459MOL0     C60483   6.221   5.934   4.572  0.1721 -1.0258  0.5087
  459MOL0     C60484   6.080   5.910   4.547 -0.2809  0.1735  0.4556
  459MOL0     C60485   5.997   5.863   4.660 -0.0801  0.3276  0.3855
  459MOL0     O60486   5.873   5.823   4.625  0.5023  0.7463 -0.1433
  459MOL0     C60487   5.776   5.792   4.719 -0.1583 -0.0264 -0.9448
  459MOL0     C60488   5.648   5.834   4.693  0.4919  0.6509  0.8503
  459MOL0     C60489   5.550   5.809   4.780  0.4796 -0.0837 -0.0826
  459MOL0     C60490   5.570   5.743   4.905 -0.7027 -1.1216  0.9437
  459MOL0     O60491   5.480   5.715   4.986  1.0733 -0.2232 -0.4768
  459MOL0     C60492   5.343   5.767   4.974 -0.2071 -0.0671  0.5667
  459MOL0     C60493   5.259   5.706   5.083 -0.3373 -0.0054  0.3602
  459MOL0     C60494   5.114   5.768   5.094  0.8843  0.2217 -0.8293
  459MOL0     C60495   5.004   5.661   5.124  0.1969 -1.0568  0.0303
  459MOL0     C60496   4.874   5.735   5.152  0.4387 -0.2147  0.0857
  459MOL0     C60497   4.749   5.640   5.171 -0.0075 -0.2967 -1.0344
  459MOL0     C60498   4.644   5.701   5.278  0.0757 -0.1879  0.3030
  459MOL0     C60499   4.550   5.590   5.329  0.8192  0.7979  0.8385
  459MOL0    Cl60500   4.433   5.553   5.186 -0.0059  0.0823  0.0184
  459MOL0     C60501   5.693   5.701   4.931 -0.2582  0.7135 -0.3753
  459MOL0     C60502   5.803   5.717   4.843  0.2524 -0.0929  0.1822
  459MOL0     O60503   6.042   5.875   4.768  0.7681 -0.4832 -0.6022
  459MOL0     C60504   6.027   5.914   4.420  0.6168 -0.2475  1.0420
  459MOL0     C60505   6.107   5.973   4.317  0.3882 -0.3282  0.1645
  459MOL0     N60506   6.721   6.300   3.917  0.0211  0.1961 -0.0174
  459MOL0     N60507   6.846   6.330   3.920  0.0643  0.6735 -0.6350
  459MOL0     C60508   7.959   6.125   3.493 -0.0156  0.3920 -0.6211
  459MOL0     C60509   8.094   6.124   3.488  0.4092  0.3063  0.1127
  459MOL0     C60510   8.515   6.224   3.624  0.0006  0.5602 -0.4024
  459MOL0     C60511   8.580   6.217   3.498 -0.5841 -0.2675  0.1349
  459MOL0     C60512   8.717   6.200   3.492 -0.5263  0.2428 -0.2032
  459MOL0     C60513   8.800   6.187   3.612  0.4080 -0.1645  0.3924
  459MOL0     O60514   8.938   6.166   3.593 -0.0742 -0.6285 -1.1385
  459MOL0     C60515   9.021   6.196   3.708 -0.0056  0.5757  0.5842
  459MOL0     C60516   9.171   6.188   3.671  0.2668 -0.0641 -0.0032
  459MOL0     C60517   9.218   6.054   3.634  0.2302  0.1490  0.5019
  459MOL0     C60518   9.362   6.052   3.581  0.7369 -0.3832  1.1102
  459MOL0     C60519   9.410   5.921   3.551  1.7872 -0.5117 -0.7992
  459MOL0     C60520   9.452   5.812   3.531 -1.0079  0.2313  0.1467
  459MOL0     C60521   8.722   6.192   3.732  0.1443 -0.2612 -0.2629
  459MOL0     C60522   8.591   6.221   3.740 -0.0151 -0.1267  0.5342
  459MOL0     H60523   8.140   6.441   3.607  2.6806 -0.1992  0.2639
  459MOL0     H60524   7.889   6.444   3.577  1.8268  1.4017  1.3920
  459MOL0     H60525   7.690   6.033   3.548 -0.2060 -0.0345 -0.2552
  459MOL0     H60526   7.670   6.137   3.409 -2.0232 -0.3565  0.4636
  459MOL0     H60527   7.455   6.128   3.482  2.9997  0.3567 -3.1356
  459MOL0     H60528   7.504   6.273   3.565  0.3466 -0.0831 -2.0796
  459MOL0     H60529   7.460   6.204   3.758  2.4235 -1.1416  3.6558
  459MOL0     H60530   7.567   6.070   3.760 -1.3995 -0.6848  1.7712
  459MOL0     H60531   7.280   6.070   3.675  1.7746  3.2254  1.4712
  459MOL0     H60532   7.390   5.920   3.658 -1.0779 -0.6198  1.1422
  459MOL0     H60533   7.424   5.935   3.901 -1.3008 -1.6288 -0.1441
  459MOL0     H60534   7.265   5.885   3.860  0.5422  0.3503 -1.2290
  459MOL0     H60535   7.342   6.166   3.951  0.6678 -0.5470  0.4488
  459MOL0     H60536   7.269   6.043   4.048 -1.1255 -0.2878  0.5285
  459MOL0     H60537   7.136   6.173   3.813 -3.6331 -0.4981 -1.3060
  459MOL0     H60538   7.069   6.025   3.881 -0.7942  0.2442  0.6358
  459MOL0     H60539   7.111   6.318   3.989  0.8924  0.4761  1.9383
  459MOL0     H60540   7.089   6.182   4.104  2.7926  0.6333 -0.8901
  459MOL0     H60541   6.846   6.047   4.081 -2.3666  0.1391  0.6767
  459MOL0     H60542   6.536   6.086   3.893 -0.8472  1.5336 -0.3481
  459MOL0     H60543   6.507   6.207   4.012 -0.8062  0.2363 -1.2345
  459MOL0     H60544   6.646   5.939   4.102 -0.1749  0.0783  3.1667
  459MOL0     H60545   6.468   5.948   4.078 -0.7491  2.3511 -0.9387
  459MOL0     H60546   6.545   5.968   4.304 -1.9214 -0.1148 -0.7563
  459MOL0     H60547   6.632   6.131   4.271 -0.8923  3.1919 -2.4794
  459MOL0     H60548   6.429   6.239   4.227  0.4349  0.7969  1.6896
  459MOL0     H60549   6.429   6.174   4.379 -0.8850  1.3467 -0.2673
  459MOL0     H60550   6.407   5.983   4.485 -0.5954  1.8827  0.6324
  459MOL0     H60551   6.263   5.919   4.671  0.5096 -1.6400  0.2800
  459MOL0     H60552   5.616   5.882   4.601 -2.1188 -3.2039 -0.5243
  459MOL0     H60553   5.454   5.843   4.742  1.3851  0.6280 -1.8428
  459MOL0     H60554   5.306   5.738   4.875  0.7640  1.1520 -0.1934
  459MOL0     H60555   5.332   5.875   4.990  0.6310  0.5921 -2.5831
  459MOL0     H60556   5.314   5.708   5.178  2.0673  2.2938 -0.9456
  459MOL0     H60557   5.243   5.603   5.050 -0.8032 -0.1309  0.9651
  459MOL0     H60558   5.097   5.804   4.992  1.7086 -2.1797 -1.8996
  459MOL0     H60559   5.110   5.850   5.166 -0.7332 -1.3460  0.9825
  459MOL0     H60560   4.991   5.599   5.034  0.6544 -0.7510 -0.2470
  459MOL0     H60561   5.036   5.608   5.214 -0.8686  1.2081  1.8455
  459MOL0     H60562   4.850   5.806   5.073 -0.9430  0.4739  1.0817
  459MOL0     H60563   4.893   5.797   5.240  1.9659  1.0258 -1.0567
  459MOL0     H60564   4.770   5.542   5.216  0.8427  0.8444  1.2386
  459MOL0     H60565   4.706   5.624   5.072 -0.2911 -1.8922 -0.6883
  459MOL0     H60566   4.701   5.740   5.363  0.7179  1.6511 -0.9215
  459MOL0     H60567   4.595   5.786   5.229  1.6518  0.2614 -0.5365
  459MOL0     H60568   4.493   5.620   5.418  1.6340  0.3048  1.5405
  459MOL0     H60569   4.604   5.502   5.366 -1.3133 -0.3640  1.3822
  459MOL0     H60570   5.702   5.648   5.025  0.1229 -0.7954 -1.2419
  459MOL0     H60571   5.897   5.668   4.865  0.7524  0.6696 -0.2083
  459MOL0     H60572   5.921   5.894   4.407  0.8236  0.3271 -2.1875
  459MOL0     H60573   6.050   5.997   4.228  1.3609  2.7076  0.2439
  459MOL0     H60574   7.910   6.034   3.459  1.2951 -0.7083  0.2849
  459MOL0     H60575   8.148   6.037   3.454  1.0803  1.5463 -2.1893
  459MOL0     H60576   8.525   6.232   3.406  1.1157  1.2610 -0.6885
  459MOL0     H60577   8.763   6.202   3.393  1.4644  1.0379  0.6933
  459MOL0     H60578   8.992   6.134   3.793  2.2933  1.2820  1.9528
  459MOL0     H60579   9.000   6.296   3.746 -0.1451  0.5767  0.5088
  459MOL0     H60580   9.198   6.265   3.599  0.0796 -1.3602 -1.5102
  459MOL0     H60581   9.214   6.227   3.764 -3.0530  2.4622  0.6508
  459MOL0     H60582   9.157   6.019   3.551 -0.2443 -1.3317  1.4464
  459MOL0     H60583   9.195   5.992   3.721 -2.4254  1.8469  1.1284
  459MOL0     H60584   9.378   6.115   3.493 -1.7527 -0.2653  0.6475
  459MOL0     H60585   9.433   6.087   3.656  2.7372 -0.5607 -0.6079
  459MOL0     H60586   9.477   5.708   3.534 -2.8398 -0.2878 -0.6786
  459MOL0     H60587   8.783   6.171   3.820 -0.5059  3.0387  1.1253
  459MOL0     H60588   8.540   6.219   3.836  0.9226  0.9382  1.0750
  460MOL0     O60589   2.916   0.211   4.329  0.0117  0.7647 -0.8244
  460MOL0     C60590   2.900   0.186   4.451 -0.1332  1.4158 -0.2717
  460MOL0     O60591   2.793   0.134   4.512  0.0898 -0.6217  0.6112
  460MOL0     C60592   2.674   0.121   4.442  0.4285 -0.7555  0.3898
  460MOL0     C60593   2.599   0.007   4.444 -0.0421 -0.6559 -0.1021
  460MOL0     C60594   2.481   0.005   4.378  0.0504  0.3535 -0.5251
  460MOL0     C60595   2.424   0.112   4.307 -0.0314  0.0546  1.1115
  460MOL0     O60596   2.298   0.111   4.253 -0.6483  0.5865 -0.2373
  460MOL0     C60597   2.211   0.004   4.262 -0.2059  0.3351 -0.3530
  460MOL0     C60598   2.072   0.048   4.216 -0.4094  0.2644 -0.1803
  460MOL0     C60599   2.076   0.091   4.067 -0.3417 -0.2621 -0.5270
  460MOL0     C60600   1.935   0.110   4.006 -0.1714 -0.0994 -0.1573
  460MOL0     C60601   1.929   0.193   3.881 -0.7153 -0.0701  0.1115
  460MOL0     C60602   2.045   0.163   3.776  0.4419  0.2216  0.5384
  460MOL0     C60603   2.014   0.030   3.697 -0.7590  0.0595 -0.5755
  460MOL0     C60604   2.069   0.017   3.553  0.3427  0.3804  0.6478
  460MOL0     N60605   2.214   0.018   3.553 -0.2003  0.1902 -0.1800
  460MOL0     C60606   2.300   0.125   3.549 -0.3944  0.0242  1.1677
  460MOL0     C60607   2.426   0.069   3.547  0.1236 -0.0409  0.1619
  460MOL0     C60608   2.560   0.136   3.540 -0.4888 -0.9088 -0.8310
  460MOL0     C60609   2.560   0.259   3.447  0.1384 -0.7426 -0.3523
  460MOL0     C60610   2.612   0.224   3.312  0.0649 -0.1145  0.6703
  460MOL0     C60611   2.529   0.118   3.235  1.1177  0.1253  0.7151
  460MOL0     O60612   2.392   0.173   3.227 -0.7659 -0.6810  0.3060
  460MOL0     C60613   2.283   0.094   3.205  0.0904  0.0810  0.3385
  460MOL0     C60614   2.163   0.141   3.263 -0.1495 -0.2018 -0.2593
  460MOL0     C60615   2.038   0.077   3.222  0.3426  0.2701  0.0223
  460MOL0     C60616   2.042  -0.043   3.148  0.0853  0.2256  0.8032
  460MOL0     C60617   1.924  -0.115   3.095 -0.1610 -0.0690 -0.4444
  460MOL0     O60618   1.813  -0.038   3.089 -0.1042 -0.5162  0.1440
  460MOL0     C60619   1.689  -0.080   3.042  0.1544  0.5011 -0.2493
  460MOL0     C60620   1.596   0.024   3.037 -1.2579  0.2074  0.0281
  460MOL0     C60621   1.462  -0.007   3.003 -0.4159  0.8777 -0.0498
  460MOL0     C60622   1.418  -0.135   2.962 -0.6349 -0.7836  0.1034
  460MOL0     O60623   1.287  -0.153   2.915  0.5731  0.0719  0.2886
  460MOL0     C60624   1.217  -0.282   2.919  0.5896 -0.6246 -0.3944
  460MOL0     C60625   1.072  -0.279   2.878 -0.0589 -0.4085 -0.3936
  460MOL0     C60626   1.010  -0.142   2.907 -0.6999 -0.3527 -0.4648
  460MOL0     C60627   0.855  -0.135   2.896 -0.2671 -0.0025  0.3890
  460MOL0     C60628   0.796  -0.060   3.005  0.7256 -0.2062 -0.5806
  460MOL0     C60629   0.655  -0.099   3.046  0.0785  0.1589  0.9592
  460MOL0     C60630   0.658  -0.235   3.134 -0.3464 -0.2012  0.2754
  460MOL0     C60631   0.518  -0.270   3.177  0.7993 -0.5299 -0.1690
  460MOL0    Cl60632   0.432  -0.141   3.271  0.0275  0.2007  0.1394
  460MOL0     C60633   1.514  -0.232   2.961 -1.3438  0.5558 -0.4371
  460MOL0     C60634   1.646  -0.207   3.005 -0.4013 -0.5416  0.5595
  460MOL0     O60635   1.934  -0.233   3.048 -0.4227 -0.3750  1.1135
  460MOL0     C60636   2.170  -0.087   3.101  0.5587 -1.0232  0.0752
  460MOL0     C60637   2.289  -0.020   3.130  0.4988  0.0712  0.2426
  460MOL0     N60638   2.411  -0.076   3.550 -0.0886 -0.9240  0.5643
  460MOL0     N60639   2.286  -0.098   3.552  0.4895 -0.6545  0.6369
  460MOL0     C60640   2.498   0.230   4.309 -0.4728  0.1124  0.9309
  460MOL0     C60641   2.622   0.228   4.371 -1.0191 -0.1883 -1.2197
  460MOL0     C60642   3.028   0.205   4.533  0.0791 -0.0924  0.0322
  460MOL0     C60643   3.030   0.174   4.669 -0.1602  0.1286 -1.1640
  460MOL0     C60644   3.137   0.194   4.756  0.1134 -0.5056  0.0316
  460MOL0     C60645   3.263   0.230   4.689  0.0519  0.0273  0.0028
  460MOL0     O60646   3.383   0.232   4.757  0.3363 -0.0770 -0.6845
  460MOL0     C60647   3.382   0.190   4.894  1.2001  0.7036  0.6617
  460MOL0     C60648   3.522   0.207   4.956  0.2699  0.9725 -0.3986
  460MOL0     C60649   3.538   0.268   5.099 -0.4100 -0.7076  0.3532
  460MOL0     C60650   3.683   0.262   5.151 -0.1550 -0.2528 -0.1247
  460MOL0     C60651   3.724   0.133   5.211  0.3878 -0.2820 -0.8050
  460MOL0     C60652   3.747   0.025   5.272  0.4306 -0.5451 -0.4288
  460MOL0     C60653   3.267   0.259   4.551  0.6916 -0.8320 -0.3317
  460MOL0     C60654   3.142   0.255   4.478 -1.1126 -0.6620 -0.1097
  460MOL0     H60655   2.626  -0.072   4.515 -1.0236 -1.8746 -1.0351
  460MOL0     H60656   2.428  -0.089   4.369  0.9409  0.0500 -3.4715
  460MOL0     H60657   2.207  -0.030   4.366  1.1826  0.5695 -0.2000
  460MOL0     H60658   2.249  -0.082   4.207  1.7857  1.3741 -0.6914
  460MOL0     H60659   2.029   0.119   4.288  3.0639  1.3619  1.0513
  460MOL0     H60660   2.002  -0.035   4.228  0.6723 -0.7299 -0.5634
  460MOL0     H60661   2.142   0.018   4.020  2.0786  1.4440  0.0824
  460MOL0     H60662   2.133   0.182   4.046  2.4445 -2.4755 -3.6370
  460MOL0     H60663   1.895   0.015   3.970  1.5285 -0.2104 -1.8938
  460MOL0     H60664   1.871   0.158   4.082  1.5490  2.4836 -0.2184
  460MOL0     H60665   1.948   0.297   3.908  0.2137  0.3021 -1.8178
  460MOL0     H60666   1.831   0.175   3.836 -0.5319 -0.2402 -0.2274
  460MOL0     H60667   2.147   0.173   3.816  0.5308  1.0446  0.1365
  460MOL0     H60668   2.050   0.234   3.693  0.9762 -1.9513 -1.3680
  460MOL0     H60669   2.061  -0.050   3.755  1.5307  1.7232  0.0405
  460MOL0     H60670   1.905   0.025   3.689 -0.6871 -2.8324 -0.9561
  460MOL0     H60671   2.029   0.102   3.498  1.5427  0.3691 -0.3061
  460MOL0     H60672   2.041  -0.077   3.504 -1.5128  0.8559  0.7399
  460MOL0     H60673   2.283   0.231   3.562  0.5373  0.2752  0.4783
  460MOL0     H60674   2.638   0.064   3.513 -0.5976 -1.1889 -0.4100
  460MOL0     H60675   2.583   0.156   3.644 -0.9002 -2.9286 -0.3053
  460MOL0     H60676   2.629   0.337   3.483 -1.5707  0.3327  0.7167
  460MOL0     H60677   2.465   0.310   3.433  0.0394 -1.7475 -4.2917
  460MOL0     H60678   2.608   0.304   3.238  1.1414 -0.7464 -0.1027
  460MOL0     H60679   2.715   0.190   3.322 -0.0211  0.0241  2.2203
  460MOL0     H60680   2.525   0.022   3.289  0.1459 -0.8279 -0.9831
  460MOL0     H60681   2.573   0.109   3.135  1.3990 -1.6007  0.9658
  460MOL0     H60682   2.174   0.238   3.311 -0.3416 -0.1504 -0.3175
  460MOL0     H60683   1.941   0.113   3.253 -0.7968 -1.4419 -1.3537
  460MOL0     H60684   1.629   0.121   3.073 -0.6691  0.1026 -0.2290
  460MOL0     H60685   1.403   0.082   2.988  0.5547  1.4401 -0.6639
  460MOL0     H60686   1.220  -0.313   3.024 -2.8028 -1.0583 -0.3035
  460MOL0     H60687   1.269  -0.357   2.860  1.7441 -0.4169  0.3297
  460MOL0     H60688   1.017  -0.353   2.937 -1.1876  1.4754  1.0743
  460MOL0     H60689   1.058  -0.312   2.775 -0.5982 -1.2878 -0.0464
  460MOL0     H60690   1.048  -0.077   2.827 -0.8514  2.6545  1.6937
  460MOL0     H60691   1.045  -0.110   3.006  2.0547 -0.9372 -1.1594
  460MOL0     H60692   0.820  -0.084   2.806  0.0307 -2.6915 -1.3686
  460MOL0     H60693   0.814  -0.236   2.896 -2.1067  0.6373 -1.9817
  460MOL0     H60694   0.800   0.041   2.964  1.3642  0.1957  0.4584
  460MOL0     H60695   0.860  -0.064   3.094  2.5200  1.1937 -1.7369
  460MOL0     H60696   0.600  -0.127   2.956 -0.8962 -1.4885  2.0223
  460MOL0     H60697   0.606  -0.022   3.106 -1.3315 -0.9248  1.2363
  460MOL0     H60698   0.697  -0.322   3.080  0.5826  0.6066 -0.3899
  460MOL0     H60699   0.703  -0.209   3.230 -0.8243  0.3738  0.3535
  460MOL0     H60700   0.504  -0.352   3.248  0.3564 -0.0127  0.3465
  460MOL0     H60701   0.463  -0.292   3.085  0.5320  2.2036 -0.7410
  460MOL0     H60702   1.497  -0.336   2.936  0.4771  0.1500 -0.0904
  460MOL0     H60703   1.713  -0.292   3.005 -2.6888 -2.4865 -1.9061
  460MOL0     H60704   2.179  -0.178   3.043 -3.1044 -0.6284 -1.3465
  460MOL0     H60705   2.381  -0.069   3.100 -0.0404 -1.0340  0.2994
  460MOL0     H60706   2.461   0.316   4.254 -1.8693 -0.1256  1.4706
  460MOL0     H60707   2.693   0.309   4.367 -0.5417 -0.6394 -4.3030
  460MOL0     H60708   2.947   0.120   4.715  2.7606 -2.2674  1.7456
  460MOL0     H60709   3.126   0.169   4.861 -0.5750  2.0926  0.6521
  460MOL0     H60710   3.362   0.083   4.906 -1.2483  0.9243 -0.6919
  460MOL0     H60711   3.308   0.246   4.951 -1.2768 -0.1821 -1.4760
  460MOL0     H60712   3.566   0.107   4.952 -1.1760  0.3411 -3.0810
  460MOL0     H60713   3.586   0.260   4.885 -0.6440  2.8728  0.1144
  460MOL0     H60714   3.472   0.211   5.166  0.6033 -3.9688 -1.2032
  460MOL0     H60715   3.508   0.372   5.089  2.2573 -0.0712 -2.0667
  460MOL0     H60716   3.757   0.287   5.075  0.8227  3.2997  1.7319
  460MOL0     H60717   3.701   0.335   5.232  0.6266 -2.3178  1.6611
  460MOL0     H60718   3.761  -0.059   5.336 -2.2297  0.4144  1.5929
  460MOL0     H60719   3.359   0.288   4.502  2.0413 -1.1800  1.8702
  460MOL0     H60720   3.148   0.282   4.373  1.2250  0.1502  0.1710
  461MOL0     O60721   1.128   9.091   1.325 -0.4327  0.3662  0.0153
  461MOL0     C60722   1.116   9.162   1.226 -0.0445  0.5464 -0.2849
  461MOL0     O60723   1.213   9.237   1.163 -0.0092  0.2918  0.1953
  461MOL0     C60724   1.343   9.240   1.212 -0.9667 -0.2254  0.2898
  461MOL0     C60725   1.417   9.126   1.238 -0.1802 -0.0348 -0.3416
  461MOL0     C60726   1.550   9.123   1.263  0.1212 -0.2942 -0.5643
  461MOL0     C60727   1.618   9.245   1.265  0.0170  0.6447 -0.1414
  461MOL0     O60728   1.745   9.246   1.296  0.2835 -0.7853 -0.2102
  461MOL0     C60729   1.839   9.215   1.186  0.1974  0.2133 -0.4057
  461MOL0     C60730   1.936   9.107   1.238 -0.4097 -0.3279 -0.7190
  461MOL0     C60731   2.014   9.136   1.359  0.7015 -0.2645 -0.1179
  461MOL0     C60732   2.138   9.043   1.363 -0.2180  0.1082 -0.1693
  461MOL0     C60733   2.227   9.092   1.481 -0.3513  0.7320 -0.2909
  461MOL0     C60734   2.340   8.990   1.509 -0.1569  0.0685 -0.2077
  461MOL0     C60735   2.416   9.033   1.638  0.1476  0.3256  0.0938
  461MOL0     C60736   2.502   8.928   1.704  0.5298  0.1149  1.0409
  461MOL0     N60737   2.583   8.852   1.608 -1.0682 -0.6591  0.7878
  461MOL0     C60738   2.641   8.730   1.656  1.0162 -0.6931 -0.9799
  461MOL0     C60739   2.733   8.698   1.569  0.3131  1.0072  0.4589
  461MOL0     C60740   2.828   8.588   1.575  0.6623  0.1664  0.5075
  461MOL0     C60741   2.890   8.592   1.718 -0.3077 -0.0620 -1.0020
  461MOL0     C60742   3.005   8.500   1.744 -1.0908 -0.3607  0.0146
  461MOL0     C60743   3.129   8.545   1.675  0.0126 -0.4310  0.0011
  461MOL0     O60744   3.237   8.451   1.678 -0.9100 -0.1615  0.4513
  461MOL0     C60745   3.341   8.476   1.583  0.9023  0.8338  0.1733
  461MOL0     C60746   3.436   8.377   1.573  0.4356 -0.8939  0.0951
  461MOL0     C60747   3.545   8.387   1.488  0.3191 -0.1948  0.2312
  461MOL0     C60748   3.553   8.495   1.399  0.6705 -0.0480  1.1282
  461MOL0     C60749   3.666   8.513   1.291  1.3831  0.2842 -1.0092
  461MOL0     O60750   3.733   8.401   1.259 -0.3102  0.3315  0.0138
  461MOL0     C60751   3.839   8.403   1.167 -0.1612 -0.4965 -0.0266
  461MOL0     C60752   3.824   8.382   1.037  0.4901 -0.3959  0.0914
  461MOL0     C60753   3.944   8.392   0.959  0.1470  1.4839  0.8492
  461MOL0     C60754   4.070   8.418   1.010  0.5853  0.0292 -0.2924
  461MOL0     O60755   4.188   8.439   0.945  1.1707 -0.0800 -0.0242
  461MOL0     C60756   4.209   8.377   0.820  0.4245 -0.3815  0.2227
  461MOL0     C60757   4.288   8.246   0.827  0.0135  0.7243  0.6256
  461MOL0     C60758   4.337   8.187   0.692  0.7385 -0.3938 -0.0883
  461MOL0     C60759   4.218   8.155   0.595 -0.8555 -0.5281 -0.4111
  461MOL0     C60760   4.261   8.113   0.453 -0.4737 -0.2654  0.6924
  461MOL0     C60761   4.168   8.009   0.398  0.2540  0.1363  0.3183
  461MOL0     C60762   4.026   8.067   0.389  0.3480  0.2569  0.3420
  461MOL0     C60763   3.915   7.973   0.353  0.6748  0.0829 -0.1970
  461MOL0    Cl60764   3.767   8.043   0.264  0.2201  0.1538 -0.2411
  461MOL0     C60765   4.076   8.433   1.151 -0.7190 -0.3517 -0.1304
  461MOL0     C60766   3.965   8.425   1.225  0.3039 -0.0943  0.0108
  461MOL0     O60767   3.671   8.619   1.235 -0.0541 -0.6194 -0.1989
  461MOL0     C60768   3.452   8.592   1.404  0.6445  0.0112  0.1387
  461MOL0     C60769   3.349   8.582   1.494 -0.0363 -0.3407 -0.5076
  461MOL0     N60770   2.732   8.793   1.470  1.0130  0.6625 -0.5446
  461MOL0     N60771   2.646   8.885   1.489  0.4100  0.4684  0.0755
  461MOL0     C60772   1.551   9.362   1.240 -0.2453 -0.4539 -0.3716
  461MOL0     C60773   1.413   9.365   1.217  0.5061 -0.0698  0.4481
  461MOL0     C60774   0.986   9.165   1.165 -0.0967  0.3710  0.4795
  461MOL0     C60775   0.969   9.233   1.043  0.2289 -0.5614 -1.4219
  461MOL0     C60776   0.841   9.227   0.974  0.0528 -0.2179  0.1341
  461MOL0     C60777   0.733   9.160   1.026 -0.0570 -0.6895 -0.1174
  461MOL0     O60778   0.626   9.173   0.947  1.0480 -0.3592 -0.7866
  461MOL0     C60779   0.505   9.147   1.021 -0.4258  0.5754 -0.4021
  461MOL0     C60780   0.389   9.190   0.928 -0.7071  0.0832  0.2217
  461MOL0     C60781   0.258   9.131   0.977 -0.4038  0.1692 -0.4414
  461MOL0     C60782   0.142   9.180   0.899  0.0500 -0.0623  0.8214
  461MOL0     C60783   0.010   9.134   0.959 -0.1824  0.3645  0.1684
  461MOL0     C60784  -0.087   9.101   1.023  0.0982 -0.0219  0.2110
  461MOL0     C60785   0.742   9.110   1.156  0.0303  0.8743 -0.4814
  461MOL0     C60786   0.870   9.098   1.223 -0.2920 -0.1213 -0.3051
  461MOL0     H60787   1.365   9.030   1.241  3.2588 -2.0511  0.8193
  461MOL0     H60788   1.583   9.025   1.296  0.1137  0.7800  3.1594
  461MOL0     H60789   1.894   9.307   1.167  0.8622  0.4951  2.5208
  461MOL0     H60790   1.798   9.169   1.095 -0.5247  2.2767 -1.1765
  461MOL0     H60791   1.999   9.076   1.154  0.6276  1.4948 -0.6770
  461MOL0     H60792   1.880   9.015   1.254  1.7573 -1.5932 -0.0098
  461MOL0     H60793   1.958   9.123   1.452 -0.6621  0.2564 -0.8206
  461MOL0     H60794   2.050   9.237   1.339 -1.3684  0.1174 -2.4861
  461MOL0     H60795   2.111   8.937   1.361  1.3525 -0.3636 -3.3611
  461MOL0     H60796   2.192   9.043   1.268 -0.7905  1.6644 -0.5278
  461MOL0     H60797   2.171   9.091   1.575  1.9098  1.2599  1.1341
  461MOL0     H60798   2.264   9.192   1.455 -2.6967  2.0657  1.0716
  461MOL0     H60799   2.402   8.992   1.420 -2.0017  5.0568 -1.7381
  461MOL0     H60800   2.301   8.891   1.537 -1.9829  0.7541 -0.1773
  461MOL0     H60801   2.480   9.117   1.610  1.0900  0.8198  3.2769
  461MOL0     H60802   2.351   9.065   1.720  0.9764 -0.7400  1.2140
  461MOL0     H60803   2.433   8.859   1.753  0.2963 -0.9625 -0.6860
  461MOL0     H60804   2.562   8.977   1.781 -0.0863 -0.3372  1.8159
  461MOL0     H60805   2.609   8.683   1.748 -1.4247  0.1353 -1.3189
  461MOL0     H60806   2.903   8.603   1.497 -0.4124 -2.2912 -1.1142
  461MOL0     H60807   2.777   8.496   1.547  0.4034  1.1103 -2.4085
  461MOL0     H60808   2.818   8.544   1.785 -0.6086 -0.6693 -1.7470
  461MOL0     H60809   2.916   8.692   1.754 -0.8865 -0.7134  1.4942
  461MOL0     H60810   3.010   8.513   1.853  2.1895 -1.5849  0.1467
  461MOL0     H60811   2.996   8.391   1.737  0.2174 -0.8432  3.5252
  461MOL0     H60812   3.147   8.650   1.703  1.9671 -0.8200  0.3899
  461MOL0     H60813   3.112   8.561   1.569  3.3060  0.8074 -0.4657
  461MOL0     H60814   3.429   8.282   1.625  1.1880 -0.7094  0.5554
  461MOL0     H60815   3.611   8.302   1.496  0.3850 -0.4022 -2.0583
  461MOL0     H60816   3.729   8.369   0.987 -0.0863  1.8414  0.5059
  461MOL0     H60817   3.937   8.378   0.852  1.9368  3.8628  0.3413
  461MOL0     H60818   4.272   8.448   0.766 -0.4613 -0.2660 -0.6885
  461MOL0     H60819   4.116   8.361   0.766 -1.1935 -1.5189  3.1177
  461MOL0     H60820   4.216   8.175   0.868  0.7718 -2.2438 -2.7460
  461MOL0     H60821   4.369   8.261   0.900 -0.1425  1.2330  0.6965
  461MOL0     H60822   4.386   8.091   0.712  0.3940 -0.2040  1.9189
  461MOL0     H60823   4.406   8.263   0.655  1.2327 -0.0644  1.4438
  461MOL0     H60824   4.160   8.074   0.641 -2.3199  0.9032  0.3592
  461MOL0     H60825   4.165   8.249   0.575  0.3207 -0.2367 -2.4539
  461MOL0     H60826   4.363   8.075   0.449  1.3717  4.1721 -0.6196
  461MOL0     H60827   4.264   8.200   0.386  1.1035 -1.3749 -0.7900
  461MOL0     H60828   4.154   7.920   0.460  1.2310  1.2242  2.1813
  461MOL0     H60829   4.214   7.991   0.301 -2.2806 -1.4671 -0.6764
  461MOL0     H60830   3.998   8.109   0.486  1.1147 -0.5865  0.9496
  461MOL0     H60831   4.018   8.141   0.309 -2.9255  1.2734  1.4216
  461MOL0     H60832   3.888   7.934   0.452  0.6212  3.3344  1.2049
  461MOL0     H60833   3.953   7.895   0.286 -0.0005  1.1795 -1.9058
  461MOL0     H60834   4.175   8.443   1.194 -1.3916  2.8336  0.9995
  461MOL0     H60835   3.964   8.426   1.333 -1.4680 -2.2609  0.0994
  461MOL0     H60836   3.445   8.678   1.338 -1.9903  1.4248  2.0582
  461MOL0     H60837   3.278   8.664   1.493 -0.1915 -0.4724 -0.2858
  461MOL0     H60838   1.608   9.454   1.233 -0.1271 -0.3651  1.3163
  461MOL0     H60839   1.360   9.456   1.191 -0.7580 -1.0013 -0.3664
  461MOL0     H60840   1.043   9.288   0.985 -1.7756  3.2333 -0.6955
  461MOL0     H60841   0.846   9.274   0.876 -0.4944 -1.1333 -0.3395
  461MOL0     H60842   0.501   9.203   1.115 -4.6542 -0.7439  0.3727
  461MOL0     H60843   0.490   9.040   1.030 -3.4374  1.0254  1.2159
  461MOL0     H60844   0.373   9.298   0.918 -0.9011 -0.1145 -2.0450
  461MOL0     H60845   0.423   9.149   0.833 -2.1275 -0.3868 -0.0971
  461MOL0     H60846   0.245   9.154   1.083 -2.8852 -1.0944 -0.3967
  461MOL0     H60847   0.259   9.022   0.967 -1.2800  0.1562 -0.4859
  461MOL0     H60848   0.152   9.288   0.887  1.3269 -0.1649  0.8935
  461MOL0     H60849   0.156   9.144   0.796  1.5178 -0.0370  0.9941
  461MOL0     H60850  -0.172   9.058   1.071 -0.0586 -1.8549 -1.5667
  461MOL0     H60851   0.660   9.068   1.213  0.7388  1.5158  1.0883
  461MOL0     H60852   0.875   9.055   1.322 -0.0982  1.8854  0.6204
  462MOL0     O60853  11.129   3.595   0.134  0.0615  0.1273 -1.0100
  462MOL0     C60854  11.177   3.667   0.043 -0.2438 -0.3419  0.1744
  462MOL0     O60855  11.104   3.741  -0.047 -0.2055  0.9292  0.4843
  462MOL0     C60856  10.976   3.766  -0.026  0.7351  0.8682  0.6295
  462MOL0     C60857  10.936   3.835   0.087  0.0344  0.7004 -0.2052
  462MOL0     C60858  10.802   3.855   0.109  0.1190 -0.2345  0.6585
  462MOL0     C60859  10.705   3.813   0.017 -0.8451 -0.1195 -0.0774
  462MOL0     O60860  10.577   3.810   0.050 -0.0060 -0.3781 -0.0803
  462MOL0     C60861  10.524   3.941   0.062 -0.4933  0.1121  0.2893
  462MOL0     C60862  10.467   3.960   0.199  1.4727 -0.7268  0.3453
  462MOL0     C60863  10.339   4.054   0.204 -0.5040  0.0042  0.1963
  462MOL0     C60864  10.371   4.201   0.170 -0.5078 -0.0022 -0.0271
  462MOL0     C60865  10.245   4.281   0.194  0.1402 -0.0093 -0.3992
  462MOL0     C60866  10.260   4.415   0.116 -0.4288  0.6345 -0.0438
  462MOL0     C60867  10.174   4.530   0.171  0.3527  0.1212  0.1918
  462MOL0     C60868  10.019   4.506   0.192 -0.4644  0.0431 -0.0510
  462MOL0     N60869   9.949   4.525   0.067  0.9052 -0.1301  0.3006
  462MOL0     C60870   9.861   4.621   0.059  1.4108 -0.4834  0.0652
  462MOL0     C60871   9.793   4.587  -0.054  0.0119  0.2364 -0.1219
  462MOL0     C60872   9.713   4.675  -0.142  1.2267  0.9558 -0.2304
  462MOL0     C60873   9.560   4.653  -0.125 -0.0233  0.3076 -0.2444
  462MOL0     C60874   9.513   4.512  -0.173  0.2738  0.8778  0.0544
  462MOL0     C60875   9.370   4.464  -0.131 -0.4201 -0.4850  0.0898
  462MOL0     O60876   9.275   4.526  -0.220  0.1178 -1.0832  0.1285
  462MOL0     C60877   9.145   4.502  -0.221  0.4555 -0.1987  0.2646
  462MOL0     C60878   9.074   4.418  -0.132 -0.0203  0.2568 -0.2886
  462MOL0     C60879   8.939   4.434  -0.122  0.3695 -0.1286 -0.4111
  462MOL0     C60880   8.867   4.506  -0.220  0.6274  0.1396 -0.8945
  462MOL0     C60881   8.711   4.514  -0.202  0.5521 -0.5786 -0.1874
  462MOL0     O60882   8.662   4.427  -0.111 -0.5819  0.1087  0.3193
  462MOL0     C60883   8.520   4.432  -0.086 -0.9068  0.8019  0.3185
  462MOL0     C60884   8.479   4.440   0.050 -0.0795 -0.9176  0.7468
  462MOL0     C60885   8.347   4.435   0.084 -0.0652 -0.3006 -0.4445
  462MOL0     C60886   8.249   4.443  -0.013 -0.9149 -1.1267 -0.0443
  462MOL0     O60887   8.117   4.439   0.011 -0.4808 -0.2848 -0.1027
  462MOL0     C60888   8.075   4.337   0.100  0.2283 -0.6412 -0.3855
  462MOL0     C60889   7.922   4.344   0.099  0.1866 -0.3717  0.3452
  462MOL0     C60890   7.852   4.286  -0.030 -0.2379  0.1981  0.5165
  462MOL0     C60891   7.703   4.290  -0.031  0.3881  0.4761 -0.4748
  462MOL0     C60892   7.639   4.207   0.076  0.4766  0.1210 -0.8292
  462MOL0     C60893   7.491   4.217   0.064  0.0599 -0.1734  0.1780
  462MOL0     C60894   7.409   4.153   0.178  0.7147  0.1300  0.0214
  462MOL0     C60895   7.253   4.166   0.154 -0.8194  0.0945 -0.2317
  462MOL0    Cl60896   7.171   4.084   0.294  0.3340 -0.1690 -0.2667
  462MOL0     C60897   8.289   4.452  -0.142  0.3157  0.1435 -0.8850
  462MOL0     C60898   8.417   4.442  -0.182 -0.2876 -0.8497 -0.3254
  462MOL0     O60899   8.646   4.590  -0.280  0.2032 -0.6740  0.1880
  462MOL0     C60900   8.940   4.584  -0.316 -0.0955  0.6798 -0.0719
  462MOL0     C60901   9.076   4.583  -0.309 -0.1568  0.7744  0.2404
  462MOL0     N60902   9.844   4.460  -0.095 -0.7351  0.0067  0.2822
  462MOL0     N60903   9.943   4.422  -0.021  0.1813 -0.0959  0.7390
  462MOL0     C60904  10.742   3.754  -0.101  0.3990 -0.0829  0.7098
  462MOL0     C60905  10.878   3.727  -0.123 -0.5892  0.1554 -0.1679
  462MOL0     C60906  11.323   3.667   0.023 -0.4030 -0.4963 -0.1154
  462MOL0     C60907  11.414   3.625   0.121  0.0925 -0.1510 -0.4053
  462MOL0     C60908  11.550   3.660   0.101 -0.2358  0.1586 -0.2076
  462MOL0     C60909  11.597   3.710  -0.022  0.4963  0.4721 -0.8031
  462MOL0     O60910  11.733   3.731  -0.040  0.2145  0.2201  0.7524
  462MOL0     C60911  11.807   3.792   0.065 -0.5804 -0.1008  0.0367
  462MOL0     C60912  11.909   3.885   0.004 -0.1116  0.4163 -1.0692
  462MOL0     C60913  11.850   3.985  -0.096  0.2414  0.4243 -0.5696
  462MOL0     C60914  11.947   4.085  -0.131 -0.2198 -0.1426 -0.1616
  462MOL0     C60915  11.965   4.194  -0.030 -0.1253  0.3387  0.8831
  462MOL0     C60916  11.996   4.275   0.051  0.3481 -0.1065  0.3425
  462MOL0     C60917  11.508   3.728  -0.128  0.0671  0.1204 -0.1821
  462MOL0     C60918  11.371   3.708  -0.106 -1.3522  0.4137 -0.4614
  462MOL0     H60919  11.013   3.867   0.156  0.2443 -0.2081 -0.0008
  462MOL0     H60920  10.775   3.914   0.196 -0.8945 -0.6907  0.6723
  462MOL0     H60921  10.441   3.945  -0.009 -2.7250  1.0868  2.7759
  462MOL0     H60922  10.592   4.022   0.034 -1.1698 -0.1095 -2.2266
  462MOL0     H60923  10.549   3.998   0.261  3.0096  0.8548 -2.4468
  462MOL0     H60924  10.434   3.866   0.244 -1.0172 -0.0264  0.1357
  462MOL0     H60925  10.305   4.050   0.308 -3.1013  1.5371 -0.5121
  462MOL0     H60926  10.264   4.015   0.134  2.3603  1.0571 -3.8583
  462MOL0     H60927  10.450   4.226   0.241 -0.3610 -0.3012 -0.0809
  462MOL0     H60928  10.410   4.204   0.067  2.5822 -0.5282  1.0211
  462MOL0     H60929  10.242   4.299   0.302  2.1971  1.2340 -0.5121
  462MOL0     H60930  10.158   4.223   0.158  1.3054 -2.1170 -0.0043
  462MOL0     H60931  10.239   4.405   0.009  3.3460  0.1438 -0.8678
  462MOL0     H60932  10.364   4.449   0.116 -0.8107  1.8371 -0.0091
  462MOL0     H60933  10.223   4.565   0.263  1.3423  0.0375 -0.2897
  462MOL0     H60934  10.183   4.603   0.090  0.6172 -0.6814 -0.5156
  462MOL0     H60935   9.987   4.587   0.259 -2.3010  0.0456 -0.8779
  462MOL0     H60936  10.004   4.409   0.240  0.4298  0.4322  1.0719
  462MOL0     H60937   9.846   4.705   0.127 -1.3370 -1.2293  0.5130
  462MOL0     H60938   9.734   4.655  -0.247 -0.3319  0.3569 -0.4547
  462MOL0     H60939   9.741   4.778  -0.116  0.2285  1.3813 -0.7627
  462MOL0     H60940   9.498   4.726  -0.179 -0.4478 -0.6478 -1.0691
  462MOL0     H60941   9.537   4.670  -0.019 -1.2398  0.9979 -0.5923
  462MOL0     H60942   9.524   4.515  -0.282  0.0618 -0.6680 -0.0364
  462MOL0     H60943   9.584   4.437  -0.136 -1.1861  0.6275  2.5774
  462MOL0     H60944   9.336   4.484  -0.028 -2.4484  1.4382 -0.8570
  462MOL0     H60945   9.366   4.359  -0.161 -0.4974  0.1691 -2.3593
  462MOL0     H60946   9.113   4.346  -0.060 -2.6824 -1.1490 -0.1166
  462MOL0     H60947   8.880   4.389  -0.043  1.0212 -3.2923 -1.5868
  462MOL0     H60948   8.555   4.442   0.127 -1.6155 -1.8122  2.3455
  462MOL0     H60949   8.318   4.420   0.188 -2.2789  1.0855 -0.8006
  462MOL0     H60950   8.110   4.357   0.202  0.3708 -3.1747  0.1440
  462MOL0     H60951   8.111   4.236   0.081  1.1291 -0.9258  2.3773
  462MOL0     H60952   7.885   4.447   0.104  1.3276  0.0472  0.3870
  462MOL0     H60953   7.882   4.281   0.179 -0.3085 -1.2235 -0.5487
  462MOL0     H60954   7.890   4.186  -0.055 -1.5394  0.5816 -3.6983
  462MOL0     H60955   7.878   4.338  -0.123 -1.8116  1.4888  0.7605
  462MOL0     H60956   7.665   4.393  -0.026 -1.2607  0.0622 -2.8172
  462MOL0     H60957   7.662   4.249  -0.124 -1.5622  1.1027  0.0643
  462MOL0     H60958   7.670   4.244   0.174 -0.1738 -1.0964 -0.1242
  462MOL0     H60959   7.676   4.105   0.061 -2.1188 -0.6172 -2.9610
  462MOL0     H60960   7.476   4.169  -0.033  0.3824  0.0976 -0.0083
  462MOL0     H60961   7.451   4.318   0.048  1.0245  0.5858  2.2125
  462MOL0     H60962   7.427   4.045   0.186 -2.0188 -0.3194  1.6055
  462MOL0     H60963   7.441   4.203   0.269  0.5359  1.2565 -0.5163
  462MOL0     H60964   7.224   4.117   0.061 -0.3925 -1.0633  0.2294
  462MOL0     H60965   7.218   4.270   0.149 -4.9804 -0.9799  2.0981
  462MOL0     H60966   8.209   4.471  -0.213 -0.7126  2.9194  0.8531
  462MOL0     H60967   8.434   4.449  -0.289  0.5554 -0.5810 -0.1804
  462MOL0     H60968   8.887   4.651  -0.383 -2.9090 -0.2333  1.1051
  462MOL0     H60969   9.129   4.639  -0.386 -4.9297  2.8522 -1.9420
  462MOL0     H60970  10.667   3.717  -0.170  0.1276  0.1727  0.8640
  462MOL0     H60971  10.915   3.673  -0.210  2.1534 -1.4882  1.8440
  462MOL0     H60972  11.380   3.587   0.217 -0.0836 -0.2555 -0.5098
  462MOL0     H60973  11.621   3.630   0.177  2.9702  1.5158 -2.4585
  462MOL0     H60974  11.855   3.715   0.127 -1.3548 -1.1767 -0.6552
  462MOL0     H60975  11.749   3.847   0.139  2.1036  0.9146  1.5351
  462MOL0     H60976  11.966   3.948   0.073  2.0251  3.7847 -5.4028
  462MOL0     H60977  11.973   3.813  -0.047  1.6340 -0.1525  1.6813
  462MOL0     H60978  11.767   4.046  -0.058  0.8567  0.2797  1.1081
  462MOL0     H60979  11.809   3.932  -0.182 -1.2012  1.5716 -0.6419
  462MOL0     H60980  12.041   4.029  -0.141 -0.6603 -0.5621 -2.4208
  462MOL0     H60981  11.911   4.141  -0.218 -1.3423 -0.7019 -0.0756
  462MOL0     H60982  12.020   4.349   0.124  0.8463  2.0948 -1.9145
  462MOL0     H60983  11.546   3.743  -0.229  0.2248 -0.3029 -0.1876
  462MOL0     H60984  11.304   3.720  -0.190  0.3548 -0.1395 -1.9692
  463MOL0     O60985   0.244   4.118   2.164  0.3077  0.1039  0.2866
  463MOL0     C60986   0.309   4.208   2.099  0.0916 -0.1203 -0.6172
  463MOL0     O60987   0.258   4.317   2.047 -0.8459 -0.3078 -0.0686
  463MOL0     C60988   0.120   4.330   2.025  0.1295 -0.0338  0.1461
  463MOL0     C60989   0.025   4.324   2.123 -0.5534 -0.5356  0.3151
  463MOL0     C60990  -0.113   4.345   2.104  0.4165  0.4836  0.4676
  463MOL0     C60991  -0.160   4.369   1.976 -0.0139 -0.5716 -0.2433
  463MOL0     O60992  -0.292   4.398   1.947 -0.1011  0.3548  0.1055
  463MOL0     C60993  -0.405   4.350   2.028 -0.4762 -0.4724 -0.6780
  463MOL0     C60994  -0.525   4.450   2.017 -0.6343  0.8427 -0.6114
  463MOL0     C60995  -0.651   4.403   2.088 -0.4433 -0.4247  0.1398
  463MOL0     C60996  -0.746   4.516   2.089  0.9265 -0.4112  0.5054
  463MOL0     C60997  -0.874   4.473   2.157 -0.4620  0.2581 -0.1168
  463MOL0     C60998  -0.992   4.566   2.132 -0.3033  0.7532 -0.4822
  463MOL0     C60999  -1.133   4.520   2.157 -0.0338  0.6614  0.1923
  463MOL0     C61000  -1.239   4.638   2.141 -0.3088 -0.0982 -0.1980
  463MOL0     N61001  -1.377   4.599   2.123 -0.6334  0.1053 -0.3098
  463MOL0     C61002  -1.449   4.532   2.218  0.6796  0.1798 -0.5650
  463MOL0     C61003  -1.568   4.528   2.163  0.4718  0.0612 -0.0294
  463MOL0     C61004  -1.699   4.470   2.231  0.4357 -0.4403 -0.1851
  463MOL0     C61005  -1.827   4.556   2.207  0.2607 -0.2935 -0.8289
  463MOL0     C61006  -1.947   4.470   2.258  0.1021  0.8501  0.0181
  463MOL0     C61007  -2.074   4.555   2.245  0.0062  0.2700  0.0784
  463MOL0     O61008  -2.192   4.499   2.305 -0.2925  0.1889  0.4786
  463MOL0     C61009  -2.315   4.562   2.296 -0.2204 -0.9947  0.2362
  463MOL0     C61010  -2.332   4.678   2.218  0.2443 -0.1978  0.5752
  463MOL0     C61011  -2.455   4.740   2.208  0.1759  0.5481 -0.2655
  463MOL0     C61012  -2.566   4.693   2.282  0.4397  0.8750  0.5615
  463MOL0     C61013  -2.699   4.758   2.271 -0.0265 -0.5702 -0.4296
  463MOL0     O61014  -2.719   4.854   2.173  0.8744  0.1987  0.8309
  463MOL0     C61015  -2.834   4.928   2.152 -0.6622  0.6520  0.3071
  463MOL0     C61016  -2.831   5.046   2.067 -0.0527  0.5831  0.1683
  463MOL0     C61017  -2.952   5.122   2.037 -0.4540  0.3258 -0.4286
  463MOL0     C61018  -3.073   5.086   2.100  0.8536  0.2954  0.4252
  463MOL0     O61019  -3.176   5.175   2.077  0.8224  0.6362  0.0712
  463MOL0     C61020  -3.311   5.125   2.106 -0.3416 -0.0108  0.7620
  463MOL0     C61021  -3.416   5.239   2.103 -0.6024  0.1815  0.6350
  463MOL0     C61022  -3.547   5.172   2.098  1.0984  0.6721  0.1896
  463MOL0     C61023  -3.659   5.277   2.082  0.0686 -0.0084 -0.5453
  463MOL0     C61024  -3.792   5.216   2.094  0.3007 -0.4019 -0.5177
  463MOL0     C61025  -3.907   5.326   2.098  0.5279  0.1106  0.4731
  463MOL0     C61026  -4.035   5.249   2.118  0.1809 -0.1934  0.1162
  463MOL0     C61027  -4.148   5.358   2.128 -0.1867  0.2014 -1.0288
  463MOL0    Cl61028  -4.307   5.265   2.114 -0.1198 -0.2554  0.0710
  463MOL0     C61029  -3.080   4.964   2.175 -0.8252 -0.4680  0.0110
  463MOL0     C61030  -2.954   4.899   2.207  0.6783 -0.1363  0.3794
  463MOL0     O61031  -2.777   4.731   2.360  0.2325 -0.5887 -0.3062
  463MOL0     C61032  -2.546   4.587   2.375 -0.4168  0.4483  0.1038
  463MOL0     C61033  -2.422   4.517   2.371 -0.3780  0.2947 -0.0036
  463MOL0     N61034  -1.566   4.565   2.028 -0.0936 -0.7107  0.4042
  463MOL0     N61035  -1.447   4.615   2.010 -0.3789  0.7547 -0.3057
  463MOL0     C61036  -0.073   4.369   1.863  0.5067 -0.6305  0.7232
  463MOL0     C61037   0.065   4.345   1.891 -0.4675  0.0522 -0.0850
  463MOL0     C61038   0.459   4.181   2.090  0.3800 -0.2264 -0.0457
  463MOL0     C61039   0.539   4.262   2.007 -0.6854  0.2190  1.2036
  463MOL0     C61040   0.680   4.258   2.014  0.2249 -0.7247 -0.1985
  463MOL0     C61041   0.742   4.170   2.110 -0.1903  0.1566  0.3652
  463MOL0     O61042   0.873   4.161   2.124 -0.3517  0.4371  0.5571
  463MOL0     C61043   0.962   4.155   2.015 -0.8949 -0.9945 -0.4638
  463MOL0     C61044   1.025   4.018   2.023  0.0994 -0.2745  0.1367
  463MOL0     C61045   1.105   3.976   2.145  0.0298  0.3386 -0.1229
  463MOL0     C61046   1.225   4.055   2.170 -0.4319  0.3613 -0.6166
  463MOL0     C61047   1.291   3.975   2.278  0.1231 -1.1676 -0.0832
  463MOL0     C61048   1.353   3.917   2.365 -0.7652 -1.2002  0.1628
  463MOL0     C61049   0.666   4.095   2.188 -0.3548  0.1251  0.2718
  463MOL0     C61050   0.524   4.100   2.180  0.5024 -0.6757  0.5676
  463MOL0     H61051   0.069   4.308   2.222  3.2081  3.2567 -0.4243
  463MOL0     H61052  -0.188   4.345   2.182  0.3409  1.8252  0.4286
  463MOL0     H61053  -0.387   4.344   2.136  0.6353 -0.8672 -0.8770
  463MOL0     H61054  -0.442   4.253   1.994 -3.0534  0.7859 -1.8167
  463MOL0     H61055  -0.538   4.462   1.909  0.9886  1.9574 -0.7196
  463MOL0     H61056  -0.484   4.540   2.064 -0.3627  1.4406 -1.9333
  463MOL0     H61057  -0.630   4.368   2.190 -2.4888  0.4893  0.9324
  463MOL0     H61058  -0.697   4.314   2.045 -1.9006  1.7117 -3.0717
  463MOL0     H61059  -0.716   4.606   2.143 -0.1513  0.9998 -1.1660
  463MOL0     H61060  -0.758   4.548   1.985  0.3335  0.9514  0.9733
  463MOL0     H61061  -0.860   4.463   2.265 -1.9424  3.5182  0.5017
  463MOL0     H61062  -0.907   4.379   2.112 -1.5566  0.6632 -0.1837
  463MOL0     H61063  -0.996   4.607   2.031 -3.3183  0.1465 -0.7084
  463MOL0     H61064  -0.970   4.648   2.201 -1.9378 -0.1711  1.2228
  463MOL0     H61065  -1.151   4.444   2.081 -0.8193  0.8393  0.1947
  463MOL0     H61066  -1.126   4.466   2.252  1.6568 -1.2588 -0.9383
  463MOL0     H61067  -1.204   4.691   2.052  2.1856 -2.3191 -0.6700
  463MOL0     H61068  -1.237   4.695   2.235  2.7016 -1.2673  0.5763
  463MOL0     H61069  -1.412   4.514   2.318  0.3984 -1.0553 -0.6650
  463MOL0     H61070  -1.684   4.447   2.337 -0.1609  3.9965  1.0635
  463MOL0     H61071  -1.711   4.375   2.177  0.0763 -0.4556 -0.0833
  463MOL0     H61072  -1.825   4.572   2.099  0.7002 -2.7571 -1.2246
  463MOL0     H61073  -1.819   4.649   2.264 -0.9963  0.5335 -1.9507
  463MOL0     H61074  -1.951   4.380   2.196  1.9991  0.4465  0.4376
  463MOL0     H61075  -1.933   4.438   2.361  2.1965 -0.0655 -0.5047
  463MOL0     H61076  -2.094   4.555   2.137 -1.0612  1.5336  0.2522
  463MOL0     H61077  -2.046   4.658   2.265 -1.1793  0.6022  0.1030
  463MOL0     H61078  -2.246   4.713   2.161  0.6816 -1.2081  0.5812
  463MOL0     H61079  -2.459   4.821   2.136  1.9888  1.0510  0.1403
  463MOL0     H61080  -2.733   5.078   2.031  1.0983 -1.2771  1.4543
  463MOL0     H61081  -2.951   5.220   1.989 -3.0663  0.0286 -1.2359
  463MOL0     H61082  -3.314   5.082   2.206 -5.6944 -2.4420 -0.1349
  463MOL0     H61083  -3.331   5.055   2.024 -0.3016  1.5745 -0.6649
  463MOL0     H61084  -3.404   5.304   2.015  2.3859 -1.5844 -0.4150
  463MOL0     H61085  -3.403   5.297   2.195  0.2748  3.4824 -1.3821
  463MOL0     H61086  -3.560   5.117   2.192 -0.6807  2.1743  0.8909
  463MOL0     H61087  -3.554   5.097   2.018  2.0006 -0.3373  1.0219
  463MOL0     H61088  -3.667   5.340   2.172 -3.3068 -0.9687 -0.0670
  463MOL0     H61089  -3.636   5.334   1.992  1.4180 -0.2787 -0.4007
  463MOL0     H61090  -3.796   5.158   2.186  2.5805  2.9418  1.9261
  463MOL0     H61091  -3.804   5.147   2.010  2.0056 -2.2525  0.6581
  463MOL0     H61092  -3.898   5.388   2.009  0.3020 -2.9268 -1.8069
  463MOL0     H61093  -3.903   5.395   2.183 -0.8905  1.0337 -0.1715
  463MOL0     H61094  -4.043   5.182   2.032 -0.8974 -1.3980  1.1083
  463MOL0     H61095  -4.031   5.195   2.214 -1.2463  1.0655  0.9416
  463MOL0     H61096  -4.144   5.432   2.048 -0.7181  1.6956  0.2840
  463MOL0     H61097  -4.134   5.415   2.220 -1.0349 -0.1433 -0.6791
  463MOL0     H61098  -3.173   4.929   2.218  0.6010 -1.5074  2.4474
  463MOL0     H61099  -2.964   4.812   2.271 -2.4687 -1.5159 -1.7221
  463MOL0     H61100  -2.632   4.547   2.428  0.5343  0.4999  1.7847
  463MOL0     H61101  -2.416   4.428   2.433  0.3593 -0.7303 -1.4769
  463MOL0     H61102  -0.094   4.383   1.758 -3.3950 -0.5665  1.3846
  463MOL0     H61103   0.128   4.335   1.803 -0.8335 -1.8301 -0.1769
  463MOL0     H61104   0.497   4.328   1.932 -0.4257 -1.2706 -0.3130
  463MOL0     H61105   0.745   4.316   1.949  2.1067 -2.4578  0.0106
  463MOL0     H61106   1.037   4.235   2.023 -0.5830 -1.3905  0.8628
  463MOL0     H61107   0.896   4.171   1.929 -1.5114 -0.4620  0.1033
  463MOL0     H61108   0.939   3.951   2.017  0.9484 -1.4271  0.4854
  463MOL0     H61109   1.081   4.003   1.930 -0.0368  2.3161 -0.4165
  463MOL0     H61110   1.125   3.869   2.134  0.7042  0.3173  1.2020
  463MOL0     H61111   1.041   3.984   2.234 -0.5536  1.5804 -0.6322
  463MOL0     H61112   1.290   4.072   2.085  2.0581 -0.4625  1.0168
  463MOL0     H61113   1.186   4.148   2.213 -1.1689 -0.4025  0.4181
  463MOL0     H61114   1.405   3.864   2.442  3.0658 -1.5675 -2.4054
  463MOL0     H61115   0.724   4.020   2.240 -0.7169 -1.8413 -1.9591
  463MOL0     H61116   0.460   4.027   2.228  1.3976 -1.5279  0.4855
  464MOL0     O61117  10.627   3.793   8.279  0.1311 -0.1092  0.2171
  464MOL0     C61118  10.685   3.878   8.217 -0.2103  0.7551 -0.0878
  464MOL0     O61119  10.627   3.941   8.111 -0.4270 -0.4036 -0.6172
  464MOL0     C61120  10.486   3.956   8.089 -0.1774  0.9616  0.8984
  464MOL0     C61121  10.382   3.935   8.184  0.2781 -0.2866  0.5608
  464MOL0     C61122  10.250   3.976   8.157  0.0442 -0.0531 -0.6099
  464MOL0     C61123  10.208   4.038   8.034 -0.7950 -0.0200  0.2228
  464MOL0     O61124  10.074   4.045   8.020 -1.2770 -0.4259 -0.0766
  464MOL0     C61125  10.023   4.101   7.900  0.1577 -0.5577  0.5127
  464MOL0     C61126   9.885   4.153   7.928 -0.9363 -0.2233 -0.3504
  464MOL0     C61127   9.795   4.046   7.960  0.6645  0.3925  0.0578
  464MOL0     C61128   9.652   4.103   7.962 -0.2080  0.3881 -0.1471
  464MOL0     C61129   9.555   3.996   7.989  0.0506  0.7488  0.3242
  464MOL0     C61130   9.412   4.038   8.000  0.2548  0.2257  0.5510
  464MOL0     C61131   9.365   4.131   7.887  0.0102  0.2593  0.6862
  464MOL0     C61132   9.217   4.134   7.873  0.4134 -0.5045 -0.2194
  464MOL0     N61133   9.183   4.230   7.766  0.2890 -0.0798  0.9987
  464MOL0     C61134   9.116   4.350   7.783 -1.2041 -0.0819 -0.6163
  464MOL0     C61135   9.051   4.369   7.664 -0.1163  0.0923 -0.6231
  464MOL0     C61136   8.975   4.492   7.623  0.2913 -0.2389 -0.3175
  464MOL0     C61137   8.828   4.482   7.669  0.2388 -0.0402  0.2920
  464MOL0     C61138   8.808   4.528   7.808 -0.0458 -0.2945  0.8471
  464MOL0     C61139   8.674   4.497   7.861 -0.4318  0.1565 -0.3486
  464MOL0     O61140   8.577   4.572   7.785  0.5319 -0.7636 -0.7954
  464MOL0     C61141   8.449   4.567   7.842  0.3039 -0.5787  1.0191
  464MOL0     C61142   8.363   4.646   7.755 -0.0760 -0.5304 -0.6027
  464MOL0     C61143   8.230   4.667   7.796 -0.2624  0.6651 -0.0708
  464MOL0     C61144   8.187   4.612   7.917  0.5692 -0.5366 -0.9005
  464MOL0     C61145   8.036   4.601   7.942 -0.7955 -0.2176 -0.4947
  464MOL0     O61146   8.007   4.539   8.065 -0.1939  0.3582 -0.4551
  464MOL0     C61147   7.878   4.512   8.109  0.1398  0.5491  0.1270
  464MOL0     C61148   7.783   4.436   8.033  0.1784 -0.1340 -0.0289
  464MOL0     C61149   7.652   4.419   8.076  0.0091 -1.0354 -0.2641
  464MOL0     C61150   7.600   4.478   8.197  0.4218 -0.2668  0.3102
  464MOL0     O61151   7.471   4.477   8.249 -0.4620  0.0719 -0.1945
  464MOL0     C61152   7.371   4.402   8.186  0.1939  0.8394  0.3904
  464MOL0     C61153   7.277   4.371   8.301 -0.2593  0.0487 -0.2151
  464MOL0     C61154   7.139   4.318   8.249 -0.0613  0.2517  0.4185
  464MOL0     C61155   7.048   4.296   8.368 -0.2976  0.4558  0.0591
  464MOL0     C61156   6.908   4.253   8.324  0.1270  0.2882  0.2329
  464MOL0     C61157   6.826   4.380   8.276  1.0084 -0.0632 -0.4656
  464MOL0     C61158   6.678   4.347   8.241 -0.3713  0.0389 -0.4791
  464MOL0     C61159   6.580   4.461   8.258 -0.1768 -0.1638 -0.5626
  464MOL0    Cl61160   6.585   4.585   8.135 -0.1387  0.2951 -0.1549
  464MOL0     C61161   7.696   4.548   8.280  0.1982  0.7923 -0.1773
  464MOL0     C61162   7.830   4.561   8.233 -0.2394 -0.1942 -1.2273
  464MOL0     O61163   7.954   4.658   7.867 -0.4889 -0.2643  0.4838
  464MOL0     C61164   8.282   4.535   8.000 -0.1954  0.1238  0.0629
  464MOL0     C61165   8.416   4.510   7.961 -0.8338 -0.8006 -0.1893
  464MOL0     N61166   9.091   4.278   7.579  0.2963 -0.4631  0.3342
  464MOL0     N61167   9.164   4.189   7.636  0.0226 -0.0246 -0.0181
  464MOL0     C61168  10.313   4.046   7.941 -0.5288  0.4697  0.1080
  464MOL0     C61169  10.451   4.018   7.967 -0.8977  0.1110 -0.2598
  464MOL0     C61170  10.836   3.875   8.225  0.5124 -0.3640 -1.6386
  464MOL0     C61171  10.909   3.938   8.123 -0.3000  0.4217 -0.1348
  464MOL0     C61172  11.047   3.928   8.119 -0.4681  0.0352  0.2677
  464MOL0     C61173  11.112   3.859   8.224  0.5815 -0.0070 -0.0323
  464MOL0     O61174  11.244   3.865   8.205  0.1104 -0.7146 -0.7490
  464MOL0     C61175  11.332   3.817   8.313  0.0536  0.3008  0.1989
  464MOL0     C61176  11.476   3.815   8.265  0.4371 -0.0152  0.9075
  464MOL0     C61177  11.574   3.811   8.377  1.3227 -0.9949  0.3684
  464MOL0     C61178  11.712   3.827   8.306 -0.3710 -0.7595  0.2291
  464MOL0     C61179  11.809   3.868   8.404 -0.4119 -0.0650 -0.2563
  464MOL0     C61180  11.893   3.902   8.492  0.2966 -0.9494  0.3448
  464MOL0     C61181  11.042   3.807   8.331 -0.6870  0.0948  0.3826
  464MOL0     C61182  10.903   3.816   8.330 -0.4860 -0.1327  0.7809
  464MOL0     H61183  10.409   3.900   8.283  2.1251 -2.9727 -0.7939
  464MOL0     H61184  10.175   3.961   8.235 -1.3164  1.0151 -1.6590
  464MOL0     H61185  10.034   4.027   7.821  2.6070  0.2472  0.0099
  464MOL0     H61186  10.071   4.195   7.872 -0.6149 -0.1361  0.5739
  464MOL0     H61187   9.855   4.199   7.833  1.1457 -0.2711 -1.0894
  464MOL0     H61188   9.877   4.230   8.005  1.5934  0.2079 -0.4294
  464MOL0     H61189   9.825   4.002   8.055  0.2266 -0.2292 -0.0904
  464MOL0     H61190   9.780   3.966   7.887 -4.0825  1.7762 -0.8733
  464MOL0     H61191   9.651   4.192   8.025  2.6402 -1.1591  2.3444
  464MOL0     H61192   9.633   4.133   7.859 -1.0562 -2.1433 -0.7905
  464MOL0     H61193   9.573   3.933   8.076 -2.9845  0.0358  0.5508
  464MOL0     H61194   9.556   3.934   7.900  0.3054  1.0502  0.1142
  464MOL0     H61195   9.395   4.092   8.093 -1.6726 -0.5195  0.6857
  464MOL0     H61196   9.345   3.952   8.000  0.2200  0.1603 -2.0959
  464MOL0     H61197   9.396   4.233   7.909 -0.0562  0.6085 -0.7014
  464MOL0     H61198   9.415   4.112   7.791 -2.6538  1.3255 -1.0554
  464MOL0     H61199   9.173   4.160   7.970  2.0501  0.5430  0.2981
  464MOL0     H61200   9.184   4.035   7.840 -0.7845 -0.2554  0.1726
  464MOL0     H61201   9.133   4.418   7.867 -1.7937  1.7042 -1.8801
  464MOL0     H61202   8.984   4.501   7.515  1.1066 -1.3090 -0.3680
  464MOL0     H61203   9.026   4.577   7.669 -0.0073 -0.1234 -0.2018
  464MOL0     H61204   8.792   4.379   7.669  0.1569 -0.0322 -0.9669
  464MOL0     H61205   8.769   4.545   7.601 -0.2035 -0.5289  0.2141
  464MOL0     H61206   8.887   4.487   7.873  1.2503  0.1936 -0.3586
  464MOL0     H61207   8.823   4.636   7.814 -0.2182 -0.1591 -0.8273
  464MOL0     H61208   8.677   4.541   7.962 -0.9690  2.1881 -1.1696
  464MOL0     H61209   8.663   4.389   7.858 -0.2278  0.1556 -1.1829
  464MOL0     H61210   8.391   4.688   7.658 -0.1491 -0.4645 -0.5952
  464MOL0     H61211   8.168   4.725   7.729  1.4797  0.1349 -2.2548
  464MOL0     H61212   7.819   4.397   7.939 -0.5453 -2.2039  0.5133
  464MOL0     H61213   7.579   4.366   8.016 -1.0749  1.0332 -0.8697
  464MOL0     H61214   7.406   4.312   8.134  0.5842  1.4649 -0.4660
  464MOL0     H61215   7.308   4.463   8.121 -0.0458  1.3245  1.0763
  464MOL0     H61216   7.266   4.450   8.376 -0.4769  0.5630 -0.7854
  464MOL0     H61217   7.334   4.290   8.349  0.8422  0.8539 -0.1270
  464MOL0     H61218   7.150   4.225   8.193  3.5576  1.8734 -1.9824
  464MOL0     H61219   7.102   4.405   8.192 -0.4221  1.2498  2.1107
  464MOL0     H61220   7.096   4.211   8.418 -2.7278 -1.2078 -0.2274
  464MOL0     H61221   7.052   4.383   8.434 -1.8167  1.0105 -0.5420
  464MOL0     H61222   6.865   4.213   8.416  1.2913 -1.1709  0.1737
  464MOL0     H61223   6.914   4.176   8.247  2.0635 -1.9894  2.5096
  464MOL0     H61224   6.879   4.422   8.190 -1.1528 -0.2654 -1.9754
  464MOL0     H61225   6.828   4.456   8.355 -2.4462 -0.6414  0.3271
  464MOL0     H61226   6.672   4.304   8.140 -1.8621 -1.3608  0.1601
  464MOL0     H61227   6.643   4.265   8.304 -0.2709 -0.8815 -1.5801
  464MOL0     H61228   6.621   4.504   8.349 -1.9974 -2.9207  1.7598
  464MOL0     H61229   6.478   4.424   8.277  0.2977 -0.6633  1.2130
  464MOL0     H61230   7.668   4.578   8.381  0.8030 -0.2066  0.2982
  464MOL0     H61231   7.890   4.628   8.294 -1.8489 -0.0412  0.2607
  464MOL0     H61232   8.250   4.490   8.093  0.9579  0.3099  0.5626
  464MOL0     H61233   8.488   4.470   8.031 -1.5341 -0.5631  0.6893
  464MOL0     H61234  10.292   4.091   7.845 -1.3560  0.7735  0.4168
  464MOL0     H61235  10.530   4.039   7.896 -1.5344  0.0338 -1.0094
  464MOL0     H61236  10.864   3.984   8.036  0.1608 -1.0557 -1.1836
  464MOL0     H61237  11.106   3.972   8.040 -2.8254  0.7047 -1.2357
  464MOL0     H61238  11.305   3.713   8.333 -0.9939  0.7437  1.2246
  464MOL0     H61239  11.324   3.866   8.411 -0.1179  1.1412 -0.2193
  464MOL0     H61240  11.488   3.740   8.186  1.8516 -1.9385  2.8367
  464MOL0     H61241  11.500   3.903   8.204  3.3156 -0.6203  1.0174
  464MOL0     H61242  11.557   3.715   8.425 -1.4010 -1.2536 -0.9615
  464MOL0     H61243  11.559   3.896   8.445 -0.2342 -1.4492  0.6411
  464MOL0     H61244  11.756   3.740   8.256  1.0097  0.1841 -0.2722
  464MOL0     H61245  11.718   3.904   8.228  3.4117 -0.9128  0.1493
  464MOL0     H61246  11.969   3.925   8.564 -0.9085  1.4112  0.9758
  464MOL0     H61247  11.088   3.764   8.419  1.6942 -1.9973 -1.7113
  464MOL0     H61248  10.845   3.775   8.412 -2.1124  1.6318  0.5888
  465MOL0     O61249   2.843   1.940   6.997 -0.3351  0.3612 -0.1310
  465MOL0     C61250   2.823   2.037   7.074 -0.2410 -0.1835 -0.3622
  465MOL0     O61251   2.696   2.099   7.099 -0.3186  0.0791 -0.2637
  465MOL0     C61252   2.586   2.046   7.045 -0.8318  0.2139  0.6090
  465MOL0     C61253   2.523   2.125   6.954  0.1048  0.0028 -0.9880
  465MOL0     C61254   2.400   2.089   6.912 -0.2099  0.2584 -0.2634
  465MOL0     C61255   2.337   1.973   6.961  0.1596 -1.4461 -0.2773
  465MOL0     O61256   2.221   1.952   6.896  0.8952 -0.3310 -0.6571
  465MOL0     C61257   2.152   1.831   6.929 -0.0415  1.6876  0.0951
  465MOL0     C61258   2.214   1.706   6.860 -0.3290  0.2422  0.7402
  465MOL0     C61259   2.120   1.626   6.768  0.8649 -0.0383 -0.1583
  465MOL0     C61260   2.180   1.495   6.724  0.8811  1.3766  0.0659
  465MOL0     C61261   2.094   1.397   6.648  0.1232 -0.6808 -0.0366
  465MOL0     C61262   2.191   1.296   6.581  0.0312 -0.7398 -0.0190
  465MOL0     C61263   2.103   1.190   6.507 -0.8447 -0.5147 -0.0913
  465MOL0     C61264   2.182   1.098   6.420  0.2835  0.5686  0.6597
  465MOL0     N61265   2.103   0.970   6.403 -0.4438 -0.1496  0.7582
  465MOL0     C61266   1.969   0.952   6.358  0.1352 -0.5378  0.1835
  465MOL0     C61267   1.954   0.820   6.361  0.3099  0.4266  0.3562
  465MOL0     C61268   1.827   0.744   6.322 -0.3570  0.2399  1.0548
  465MOL0     C61269   1.847   0.657   6.196  1.1743  0.2943 -0.6399
  465MOL0     C61270   1.712   0.584   6.169 -0.6300  0.4762 -0.0205
  465MOL0     C61271   1.686   0.516   6.031 -0.7718  0.8742 -0.1259
  465MOL0     O61272   1.627   0.611   5.947  0.0410 -0.6501  0.1584
  465MOL0     C61273   1.490   0.614   5.937 -0.6205 -0.0946  0.6292
  465MOL0     C61274   1.431   0.685   5.834  0.7873  0.8983 -0.0965
  465MOL0     C61275   1.293   0.697   5.821  0.8079 -0.7933  0.7611
  465MOL0     C61276   1.208   0.626   5.905 -0.3005 -0.2123 -0.0903
  465MOL0     C61277   1.056   0.630   5.874  0.9614 -0.0323  0.7701
  465MOL0     O61278   1.014   0.695   5.768  0.1758 -0.0500 -0.1941
  465MOL0     C61279   0.882   0.738   5.755 -0.0545 -0.0811  0.7140
  465MOL0     C61280   0.774   0.653   5.773  0.2567 -0.5398 -0.9639
  465MOL0     C61281   0.646   0.686   5.739  0.6416 -0.3677  0.3167
  465MOL0     C61282   0.620   0.820   5.709  0.2286 -0.3850  0.0768
  465MOL0     O61283   0.500   0.860   5.667 -0.1083  0.1972 -0.1276
  465MOL0     C61284   0.387   0.825   5.744  0.0605  0.8985 -1.3082
  465MOL0     C61285   0.258   0.863   5.669  0.9567  0.5493  0.8311
  465MOL0     C61286   0.135   0.854   5.768 -0.4913  0.6072  0.5073
  465MOL0     C61287   0.087   0.711   5.783 -0.0934 -0.5153  0.1039
  465MOL0     C61288  -0.054   0.692   5.844  0.0387 -0.4299 -0.6345
  465MOL0     C61289  -0.169   0.787   5.808 -0.2974  0.4546 -0.2721
  465MOL0     C61290  -0.221   0.753   5.670  0.2929  0.3301  0.4189
  465MOL0     C61291  -0.310   0.867   5.627  1.2222  0.5769 -0.1340
  465MOL0    Cl61292  -0.211   1.022   5.578  0.2244 -0.1936 -0.1061
  465MOL0     C61293   0.725   0.906   5.696  0.4249  0.1713  0.4803
  465MOL0     C61294   0.859   0.867   5.715 -0.0190  0.3895 -0.8648
  465MOL0     O61295   0.983   0.554   5.942  0.2608 -0.0591 -0.6750
  465MOL0     C61296   1.264   0.541   6.004 -0.1597 -0.2509 -0.1683
  465MOL0     C61297   1.400   0.541   6.022 -1.1216  0.4851  0.4665
  465MOL0     N61298   2.068   0.764   6.401 -0.2152  0.4995 -0.4250
  465MOL0     N61299   2.157   0.852   6.429 -0.6952  1.4092 -0.3821
  465MOL0     C61300   2.389   1.903   7.063 -0.4448 -0.1223 -0.3975
  465MOL0     C61301   2.521   1.936   7.100 -0.9853 -1.0850  0.0385
  465MOL0     C61302   2.936   2.106   7.126  0.4984  0.1389  0.1633
  465MOL0     C61303   3.061   2.053   7.125 -1.1845 -0.4998 -0.9543
  465MOL0     C61304   3.166   2.133   7.163  0.8497  0.4412 -0.6277
  465MOL0     C61305   3.158   2.270   7.189 -0.6766 -0.3372 -1.1443
  465MOL0     O61306   3.274   2.325   7.245  0.2535 -0.1870 -0.9312
  465MOL0     C61307   3.271   2.473   7.246 -0.0859 -0.0256  0.7444
  465MOL0     C61308   3.420   2.515   7.241  0.5433  0.3857  0.7099
  465MOL0     C61309   3.440   2.653   7.309 -0.4530 -0.2520  0.3381
  465MOL0     C61310   3.589   2.690   7.319  0.1917 -0.5332 -0.2154
  465MOL0     C61311   3.653   2.737   7.194  0.1540  0.3731 -0.0694
  465MOL0     C61312   3.692   2.789   7.091  0.2867  0.4523  0.4223
  465MOL0     C61313   3.021   2.319   7.196 -1.3433 -0.7558  0.5626
  465MOL0     C61314   2.915   2.248   7.153  0.4937  0.8368 -0.7150
  465MOL0     H61315   2.560   2.219   6.914 -0.1616  1.1692  1.3715
  465MOL0     H61316   2.352   2.152   6.838  0.9394  0.0243 -1.2396
  465MOL0     H61317   2.057   1.849   6.879 -0.5116 -1.5274 -0.4090
  465MOL0     H61318   2.144   1.820   7.038  1.7065  0.2509  0.1293
  465MOL0     H61319   2.270   1.643   6.930  2.5847 -0.8878 -2.3708
  465MOL0     H61320   2.283   1.743   6.784 -0.5274 -0.1473  0.3637
  465MOL0     H61321   2.086   1.684   6.681  2.9796 -0.9324 -1.6665
  465MOL0     H61322   2.027   1.606   6.822  2.4345 -3.4777  1.5809
  465MOL0     H61323   2.268   1.526   6.668 -0.2644  3.1554 -0.8268
  465MOL0     H61324   2.213   1.436   6.810 -1.4525  2.0140  1.5054
  465MOL0     H61325   2.035   1.451   6.574 -0.8739  0.3982  1.4841
  465MOL0     H61326   2.027   1.346   6.717 -0.5894  0.0975 -0.1428
  465MOL0     H61327   2.255   1.235   6.646  0.1538 -1.5954 -0.9144
  465MOL0     H61328   2.260   1.354   6.519 -2.2453  1.9209 -0.2694
  465MOL0     H61329   2.048   1.138   6.586  1.6723 -3.0494  0.1429
  465MOL0     H61330   2.029   1.237   6.442  0.0196 -0.1094 -0.7906
  465MOL0     H61331   2.283   1.074   6.453  0.8654 -1.4216 -2.2081
  465MOL0     H61332   2.188   1.151   6.324  0.2151  2.2234  1.5436
  465MOL0     H61333   1.902   1.024   6.313  0.1813 -1.0460 -0.7121
  465MOL0     H61334   1.745   0.816   6.318 -1.7075 -1.2585  0.4230
  465MOL0     H61335   1.793   0.683   6.407 -0.5676 -0.9105  0.1683
  465MOL0     H61336   1.926   0.582   6.210  1.4550  0.8358  0.7867
  465MOL0     H61337   1.862   0.716   6.105 -0.3405 -2.1853 -2.6378
  465MOL0     H61338   1.686   0.510   6.246 -2.5707 -1.4149 -2.3098
  465MOL0     H61339   1.627   0.651   6.180 -1.5448 -0.6361 -0.1417
  465MOL0     H61340   1.628   0.425   6.049  2.0041 -0.9331  0.3854
  465MOL0     H61341   1.785   0.490   5.991  0.0068 -0.0258  2.1801
  465MOL0     H61342   1.496   0.739   5.766  0.9537  0.9870  0.1305
  465MOL0     H61343   1.254   0.744   5.731  0.5008  1.5649  2.0379
  465MOL0     H61344   0.807   0.551   5.791 -2.2873 -1.0684  1.5102
  465MOL0     H61345   0.574   0.607   5.722 -1.3206  1.0414  1.6410
  465MOL0     H61346   0.392   0.881   5.838  1.2105 -0.4936 -0.4948
  465MOL0     H61347   0.387   0.716   5.755 -3.3446  0.7765 -1.4376
  465MOL0     H61348   0.251   0.793   5.585  2.3510  1.2915  0.0621
  465MOL0     H61349   0.277   0.967   5.639  0.2851  0.4575  0.0466
  465MOL0     H61350   0.052   0.900   5.714 -0.1091 -1.0037 -1.5890
  465MOL0     H61351   0.155   0.899   5.865 -1.7822 -2.8559  2.5557
  465MOL0     H61352   0.090   0.665   5.684  0.1094 -0.9118  0.2935
  465MOL0     H61353   0.150   0.659   5.855  1.2289  2.2017  1.0390
  465MOL0     H61354  -0.036   0.704   5.951 -3.1631  0.0993 -0.0438
  465MOL0     H61355  -0.086   0.590   5.824  0.6464 -1.1888  1.9339
  465MOL0     H61356  -0.142   0.893   5.804 -0.5517  0.5532  0.3718
  465MOL0     H61357  -0.250   0.771   5.880 -0.9913 -1.8612 -1.4620
  465MOL0     H61358  -0.137   0.754   5.600  2.5878 -2.4676  2.8582
  465MOL0     H61359  -0.268   0.654   5.667 -0.6277  0.7841 -1.2296
  465MOL0     H61360  -0.373   0.900   5.710 -0.4765  2.7739 -2.1915
  465MOL0     H61361  -0.373   0.836   5.543  1.0795 -1.0746  0.5405
  465MOL0     H61362   0.705   1.008   5.665  2.2691 -0.2125 -2.3679
  465MOL0     H61363   0.947   0.930   5.703  1.7610 -1.7751  0.1452
  465MOL0     H61364   1.198   0.478   6.063  4.5307 -1.8998  4.0087
  465MOL0     H61365   1.445   0.481   6.101  1.7362 -1.3044 -2.2501
  465MOL0     H61366   2.345   1.811   7.100 -0.1258  0.5070  1.6852
  465MOL0     H61367   2.583   1.879   7.169  2.1990  2.4215  0.3710
  465MOL0     H61368   3.070   1.947   7.105  2.3615 -0.2614 -1.3359
  465MOL0     H61369   3.263   2.085   7.175 -0.3147 -1.9493 -0.1336
  465MOL0     H61370   3.219   2.519   7.330 -0.7202 -0.5736  0.6620
  465MOL0     H61371   3.236   2.508   7.149  0.7455  0.6552  0.6749
  465MOL0     H61372   3.475   2.440   7.299  0.3151 -1.7734 -1.6768
  465MOL0     H61373   3.448   2.501   7.136 -1.8316  2.1167 -0.2545
  465MOL0     H61374   3.401   2.650   7.411 -1.5100 -1.3105 -0.0678
  465MOL0     H61375   3.387   2.728   7.250 -0.1014  0.5592  1.0416
  465MOL0     H61376   3.579   2.779   7.381 -1.0320  1.4316 -3.0670
  465MOL0     H61377   3.653   2.614   7.366  0.7173  0.4618  0.7126
  465MOL0     H61378   3.729   2.838   7.003  1.8703  0.6848  1.1707
  465MOL0     H61379   2.997   2.414   7.242  0.7745 -0.0686  0.3795
  465MOL0     H61380   2.815   2.290   7.151  0.6145  1.1605 -0.1981
  466MOL0     O61381   3.451   7.561   3.978  0.1105 -0.3755  0.4475
  466MOL0     C61382   3.466   7.529   3.860 -0.1122  0.4120  0.6217
  466MOL0     O61383   3.378   7.458   3.792 -0.3435  0.4126  0.9150
  466MOL0     C61384   3.262   7.417   3.854 -0.8355 -0.3559  0.1721
  466MOL0     C61385   3.167   7.380   3.769  0.2522  0.3544 -0.0241
  466MOL0     C61386   3.050   7.313   3.813  0.1228 -0.5181  0.1100
  466MOL0     C61387   3.031   7.288   3.947 -0.2271 -0.1436 -0.2005
  466MOL0     O61388   2.919   7.228   4.003  0.4002  0.3510 -0.4975
  466MOL0     C61389   2.793   7.263   3.945 -0.4666 -0.2885 -0.4947
  466MOL0     C61390   2.673   7.188   4.010 -0.6932  0.4300 -0.0531
  466MOL0     C61391   2.538   7.215   3.956  0.9340 -0.4750  0.4348
  466MOL0     C61392   2.437   7.147   4.055 -0.1259 -0.8416  0.6350
  466MOL0     C61393   2.288   7.157   4.015 -0.7491 -0.3997  0.3431
  466MOL0     C61394   2.223   7.271   4.094 -0.5958  0.3406  0.3608
  466MOL0     C61395   2.070   7.280   4.086 -0.5768  0.5589  0.6048
  466MOL0     C61396   2.026   7.382   4.190 -0.3603 -0.2166  0.7296
  466MOL0     N61397   1.882   7.413   4.195  0.0198 -0.5670  0.8023
  466MOL0     C61398   1.779   7.325   4.192 -0.2456 -0.6212 -0.2374
  466MOL0     C61399   1.670   7.392   4.223  0.7805  0.0599  0.5620
  466MOL0     C61400   1.541   7.318   4.255  0.5413  0.0547  0.0590
  466MOL0     C61401   1.409   7.404   4.275 -0.9411  0.0705  0.3790
  466MOL0     C61402   1.292   7.319   4.323  0.4315 -0.4840 -1.5703
  466MOL0     C61403   1.221   7.226   4.216 -0.5130  0.1434  0.9171
  466MOL0     O61404   1.118   7.146   4.263  0.0475  0.0900 -0.0903
  466MOL0     C61405   1.005   7.202   4.325  0.1369 -0.1704  0.5475
  466MOL0     C61406   0.920   7.119   4.397  0.0050  0.2686 -0.4979
  466MOL0     C61407   0.799   7.162   4.456 -0.3377  0.7992  1.2558
  466MOL0     C61408   0.776   7.299   4.477  0.5576  0.2981  0.2046
  466MOL0     C61409   0.649   7.339   4.542 -0.5133 -0.2020 -0.4812
  466MOL0     O61410   0.559   7.235   4.562  0.6171 -0.1818  0.3076
  466MOL0     C61411   0.429   7.261   4.602 -0.1980 -0.7336 -0.1076
  466MOL0     C61412   0.339   7.307   4.500  0.5593 -0.4992  0.2586
  466MOL0     C61413   0.207   7.327   4.528  0.0914  0.6566  0.0154
  466MOL0     C61414   0.163   7.317   4.660 -0.2468  0.1940  0.1323
  466MOL0     O61415   0.032   7.332   4.702  0.0669  1.2118 -0.6073
  466MOL0     C61416  -0.068   7.306   4.596 -0.1109  0.7614 -0.6656
  466MOL0     C61417  -0.200   7.265   4.670  1.6033  0.1229 -0.4363
  466MOL0     C61418  -0.311   7.245   4.558 -0.7692  0.5990  0.1326
  466MOL0     C61419  -0.429   7.177   4.622 -0.2652 -0.1989  0.0409
  466MOL0     C61420  -0.549   7.170   4.528 -0.2408 -0.8932  0.2142
  466MOL0     C61421  -0.659   7.073   4.574  0.4790  0.4655 -0.1933
  466MOL0     C61422  -0.787   7.079   4.487  0.6731 -0.7076  0.0861
  466MOL0     C61423  -0.884   6.963   4.516 -0.0912  0.7571  0.6877
  466MOL0    Cl61424  -1.011   6.963   4.391  0.0064  0.3208 -0.4605
  466MOL0     C61425   0.249   7.270   4.760 -0.8444 -0.1821 -0.5816
  466MOL0     C61426   0.377   7.241   4.726 -0.0241  0.1162 -0.8097
  466MOL0     O61427   0.625   7.459   4.538 -1.1438 -0.2555  0.4592
  466MOL0     C61428   0.870   7.385   4.427 -0.0721 -0.6077  0.6918
  466MOL0     C61429   0.967   7.339   4.338 -0.5495 -0.7776 -0.4781
  466MOL0     N61430   1.709   7.523   4.248 -0.3238 -0.0428 -0.4815
  466MOL0     N61431   1.835   7.538   4.228  0.7645  0.3432  0.9509
  466MOL0     C61432   3.129   7.327   4.035  0.4688  0.3887 -0.3914
  466MOL0     C61433   3.249   7.382   3.990  0.0784  0.3283  0.7670
  466MOL0     C61434   3.574   7.580   3.770  0.0169 -0.5945  0.3393
  466MOL0     C61435   3.597   7.528   3.640  0.3458 -0.3505 -0.4130
  466MOL0     C61436   3.696   7.583   3.562 -0.5532  0.6647  0.2002
  466MOL0     C61437   3.792   7.669   3.615  0.7225  0.5388 -0.2234
  466MOL0     O61438   3.887   7.707   3.521 -0.1340  0.0031 -0.4401
  466MOL0     C61439   3.974   7.812   3.552 -0.1789 -0.7767  0.4744
  466MOL0     C61440   4.060   7.821   3.427  0.4753  0.6519 -0.1500
  466MOL0     C61441   4.163   7.700   3.421  0.5615 -0.6104 -0.3166
  466MOL0     C61442   4.275   7.696   3.313 -0.7087  0.2801 -0.2369
  466MOL0     C61443   4.344   7.822   3.274 -0.4032  0.7604  0.3868
  466MOL0     C61444   4.390   7.929   3.236 -0.4181 -0.1869 -0.5538
  466MOL0     C61445   3.770   7.718   3.744  1.4566  0.1971  0.2398
  466MOL0     C61446   3.665   7.669   3.823  0.3204  0.5487 -0.2813
  466MOL0     H61447   3.199   7.392   3.666 -3.3031  0.9522 -1.2083
  466MOL0     H61448   2.984   7.273   3.736 -0.0771 -1.0379  0.5426
  466MOL0     H61449   2.786   7.227   3.842 -0.1206 -1.6363 -0.0690
  466MOL0     H61450   2.781   7.371   3.944  0.7489 -0.1474 -1.1614
  466MOL0     H61451   2.670   7.214   4.116  2.2178  0.4937  0.0732
  466MOL0     H61452   2.685   7.082   3.985 -2.9556  0.5966 -2.4125
  466MOL0     H61453   2.528   7.170   3.857  0.4461  1.2122 -0.3243
  466MOL0     H61454   2.519   7.323   3.953  0.7085 -0.5135  0.4487
  466MOL0     H61455   2.470   7.043   4.062 -1.2793 -1.2095  0.7826
  466MOL0     H61456   2.448   7.194   4.153  4.4427 -0.2912  0.1193
  466MOL0     H61457   2.258   7.054   4.036  2.9625 -1.6274  0.4218
  466MOL0     H61458   2.278   7.171   3.907  0.3423  1.6986  0.4483
  466MOL0     H61459   2.258   7.369   4.059 -2.3430  0.3864 -1.4216
  466MOL0     H61460   2.240   7.256   4.201 -1.3212 -2.8145  0.1422
  466MOL0     H61461   2.037   7.307   3.985 -0.7399  1.1490  0.8114
  466MOL0     H61462   2.031   7.183   4.118 -1.2275  0.1773 -1.1972
  466MOL0     H61463   2.087   7.468   4.159  3.7632 -4.0731 -3.4346
  466MOL0     H61464   2.048   7.354   4.293  0.9309  2.4731  1.2785
  466MOL0     H61465   1.789   7.220   4.166 -1.3221 -0.6542 -0.5874
  466MOL0     H61466   1.566   7.256   4.341  0.3344  0.7068  0.5946
  466MOL0     H61467   1.534   7.241   4.177 -0.2740 -0.0077  0.1889
  466MOL0     H61468   1.395   7.445   4.175 -0.6756  0.0488  0.3323
  466MOL0     H61469   1.423   7.483   4.349 -0.5623  0.4682 -0.1092
  466MOL0     H61470   1.323   7.255   4.405 -2.6308  0.5322  0.5283
  466MOL0     H61471   1.217   7.389   4.362  0.3807 -1.5435  0.3252
  466MOL0     H61472   1.300   7.157   4.185 -1.8028 -1.5289  1.2147
  466MOL0     H61473   1.190   7.293   4.135 -0.2516  1.4705  1.8720
  466MOL0     H61474   0.929   7.011   4.406 -2.1956  0.0253 -0.7241
  466MOL0     H61475   0.726   7.099   4.506  1.1525  0.2371  2.8112
  466MOL0     H61476   0.366   7.320   4.395  0.2949  0.7484  0.3332
  466MOL0     H61477   0.142   7.350   4.444  2.8256  1.9581 -1.9068
  466MOL0     H61478  -0.046   7.214   4.540 -1.9004  1.4819 -2.6779
  466MOL0     H61479  -0.084   7.395   4.535  2.5959  2.1051  0.4108
  466MOL0     H61480  -0.238   7.335   4.746 -2.4621 -1.5256 -0.6721
  466MOL0     H61481  -0.183   7.175   4.730  0.7057  0.1961 -0.0521
  466MOL0     H61482  -0.273   7.175   4.483  0.0306 -1.6601  2.4633
  466MOL0     H61483  -0.327   7.341   4.509 -0.0811 -0.0490 -1.4317
  466MOL0     H61484  -0.400   7.075   4.648  2.6394  0.3743 -0.5995
  466MOL0     H61485  -0.466   7.233   4.709 -1.4509  0.5594 -0.9270
  466MOL0     H61486  -0.507   7.150   4.429  1.2097  2.6162 -0.0320
  466MOL0     H61487  -0.594   7.270   4.524  0.3189 -0.6079  0.9012
  466MOL0     H61488  -0.684   7.087   4.680 -1.1189 -1.8790 -0.1787
  466MOL0     H61489  -0.617   6.972   4.576 -2.4101 -0.8127  1.1060
  466MOL0     H61490  -0.851   7.164   4.511 -0.0876 -1.6461  1.4778
  466MOL0     H61491  -0.758   7.086   4.381  2.2762 -0.2402  0.5222
  466MOL0     H61492  -0.934   6.957   4.613 -0.1443 -0.0578  0.6217
  466MOL0     H61493  -0.815   6.879   4.498  1.1771  1.3148  2.6389
  466MOL0     H61494   0.209   7.251   4.859  2.3515  1.9258  1.2831
  466MOL0     H61495   0.444   7.193   4.797 -2.5134 -3.1906 -0.5023
  466MOL0     H61496   0.860   7.491   4.450 -0.3083 -0.6743  0.9079
  466MOL0     H61497   1.023   7.410   4.278 -1.0136 -1.0983 -1.3135
  466MOL0     H61498   3.112   7.328   4.142 -1.5606 -1.2190 -0.6401
  466MOL0     H61499   3.333   7.380   4.058  1.4841 -0.7681 -0.9122
  466MOL0     H61500   3.528   7.456   3.596  0.1540  0.3464 -1.2768
  466MOL0     H61501   3.708   7.553   3.458  2.3335 -0.3978  0.7285
  466MOL0     H61502   4.037   7.796   3.639  2.0884  0.6226 -0.7969
  466MOL0     H61503   3.930   7.908   3.580 -0.0462 -0.2618 -0.9789
  466MOL0     H61504   4.001   7.831   3.335  0.9463  0.5699 -0.4636
  466MOL0     H61505   4.112   7.917   3.429 -1.2254  1.6070  0.6025
  466MOL0     H61506   4.104   7.608   3.417 -1.1704  0.4517 -0.0225
  466MOL0     H61507   4.203   7.709   3.522  0.7178 -1.1494 -0.3262
  466MOL0     H61508   4.352   7.619   3.322  0.2603  0.9948 -1.9014
  466MOL0     H61509   4.215   7.673   3.224  0.4198 -2.8547 -0.3140
  466MOL0     H61510   4.417   8.024   3.195  2.0459  0.4894  2.2464
  466MOL0     H61511   3.843   7.791   3.780  1.2792  1.5826 -2.0503
  466MOL0     H61512   3.653   7.701   3.927 -0.9538  0.1550 -0.2793
  467MOL0     O61513   8.494   3.103   3.512 -0.4158  0.1318 -0.1417
  467MOL0     C61514   8.584   3.189   3.495  0.6334  0.7842 -0.4284
  467MOL0     O61515   8.561   3.326   3.500 -0.1826 -0.7837  0.3152
  467MOL0     C61516   8.431   3.383   3.490  0.3175  0.8410 -0.6663
  467MOL0     C61517   8.397   3.500   3.562 -0.8771  0.3264  0.3413
  467MOL0     C61518   8.268   3.551   3.552  0.1295 -0.0897 -0.3704
  467MOL0     C61519   8.164   3.492   3.470  0.5360  0.8823 -0.3923
  467MOL0     O61520   8.038   3.541   3.459  0.3701 -0.4904 -0.1680
  467MOL0     C61521   8.002   3.655   3.550  0.3541  0.6024 -0.5269
  467MOL0     C61522   7.852   3.668   3.546 -0.1439  0.0044 -0.5334
  467MOL0     C61523   7.799   3.750   3.429  0.0126  0.2370 -0.0733
  467MOL0     C61524   7.666   3.816   3.458  0.3620 -0.4089  0.8875
  467MOL0     C61525   7.630   3.924   3.354  0.7302  0.2526 -0.2945
  467MOL0     C61526   7.525   4.035   3.391  0.1814  0.0822  0.0466
  467MOL0     C61527   7.386   3.971   3.384  0.4319 -0.7287  0.4321
  467MOL0     C61528   7.275   4.079   3.366  0.0313  0.2031  0.2110
  467MOL0     N61529   7.142   4.022   3.337  0.4663  0.2550 -0.9632
  467MOL0     C61530   7.068   3.927   3.415 -1.0403 -0.2307  0.3298
  467MOL0     C61531   6.953   3.922   3.364  2.0539 -0.3909 -0.4533
  467MOL0     C61532   6.845   3.835   3.415 -0.3272 -0.6589  0.3000
  467MOL0     C61533   6.762   3.778   3.305  0.8446  0.1431 -0.5564
  467MOL0     C61534   6.664   3.673   3.371 -0.2137 -0.5354  0.0630
  467MOL0     C61535   6.578   3.600   3.263 -0.3011 -0.2708 -0.3096
  467MOL0     O61536   6.526   3.474   3.308  0.2720 -0.0268  0.0215
  467MOL0     C61537   6.405   3.425   3.259  0.7552 -0.9039  0.3123
  467MOL0     C61538   6.334   3.481   3.151 -0.1148  0.1479  0.2328
  467MOL0     C61539   6.204   3.445   3.110  0.5021  0.8131  0.2402
  467MOL0     C61540   6.139   3.346   3.194  0.0747 -1.8159  0.2675
  467MOL0     C61541   5.999   3.301   3.174  0.0885  0.5914 -0.6420
  467MOL0     O61542   5.949   3.317   3.045  0.0268 -0.1954 -0.9872
  467MOL0     C61543   5.823   3.277   3.023 -0.4776 -0.0641  0.0138
  467MOL0     C61544   5.723   3.372   3.058  0.5047  0.6602  1.1636
  467MOL0     C61545   5.588   3.322   3.045  0.5549 -0.2656  0.2792
  467MOL0     C61546   5.559   3.194   2.994  0.2150  0.8072 -0.6593
  467MOL0     O61547   5.428   3.147   3.001  0.0650 -0.1316 -0.3713
  467MOL0     C61548   5.379   3.038   2.916 -0.6656 -1.1344 -0.3872
  467MOL0     C61549   5.218   3.048   2.920  1.0364 -0.8496 -0.1784
  467MOL0     C61550   5.180   3.144   2.808 -0.0245  0.2539  0.5426
  467MOL0     C61551   5.179   3.296   2.853  0.6483  0.3467  0.7647
  467MOL0     C61552   5.068   3.329   2.959 -0.3411  0.6841 -0.0839
  467MOL0     C61553   4.938   3.361   2.882  0.6855 -0.5891  0.3225
  467MOL0     C61554   4.810   3.393   2.967 -0.8689  0.2946  0.1528
  467MOL0     C61555   4.832   3.524   3.024  0.1635  0.1021  0.0182
  467MOL0    Cl61556   4.715   3.555   3.154  0.2447  0.2128  0.5496
  467MOL0     C61557   5.655   3.112   2.938  0.0789  0.1169 -1.0253
  467MOL0     C61558   5.792   3.150   2.958 -1.0787  0.3667  0.1077
  467MOL0     O61559   5.941   3.239   3.267  0.3823  0.0012 -0.4078
  467MOL0     C61560   6.210   3.287   3.295 -0.0568  0.6156  1.0886
  467MOL0     C61561   6.337   3.327   3.329  0.5456 -0.0698  0.0988
  467MOL0     N61562   6.939   4.021   3.269  0.2585 -0.9148  0.0963
  467MOL0     N61563   7.050   4.082   3.254  0.0143 -0.0157 -0.0123
  467MOL0     C61564   8.200   3.388   3.393 -0.0770  0.1387  0.1304
  467MOL0     C61565   8.330   3.330   3.409  0.3278  0.6095  0.3571
  467MOL0     C61566   8.717   3.138   3.486 -0.0252  0.9004  0.0513
  467MOL0     C61567   8.828   3.216   3.501  0.4231  0.1333  0.2853
  467MOL0     C61568   8.960   3.177   3.499  0.3154 -0.8682 -0.2287
  467MOL0     C61569   8.989   3.038   3.477 -0.4381  0.7609 -0.1049
  467MOL0     O61570   9.118   2.979   3.486 -0.0310  0.0262  0.3652
  467MOL0     C61571   9.223   3.064   3.447 -0.1011  0.1039  0.2433
  467MOL0     C61572   9.345   2.976   3.442  0.2987  0.4663  1.2306
  467MOL0     C61573   9.397   2.925   3.575  0.6636  0.6131  0.3771
  467MOL0     C61574   9.445   3.035   3.669 -0.0206  0.1288 -1.0277
  467MOL0     C61575   9.537   3.118   3.602 -0.3318  0.4596 -0.4096
  467MOL0     C61576   9.605   3.203   3.549 -0.3654  0.4838 -0.6156
  467MOL0     C61577   8.880   2.954   3.460  0.1294  0.0247  0.9191
  467MOL0     C61578   8.750   3.001   3.456 -0.6354 -0.2565  0.4415
  467MOL0     H61579   8.480   3.532   3.623  1.5408 -3.0295 -0.8539
  467MOL0     H61580   8.248   3.642   3.608 -2.7779  2.1673 -4.5708
  467MOL0     H61581   8.058   3.740   3.509  1.3750 -0.2588 -0.9898
  467MOL0     H61582   8.025   3.633   3.655  3.1801 -0.0786 -1.1889
  467MOL0     H61583   7.828   3.714   3.642  0.0594  0.1795 -0.5659
  467MOL0     H61584   7.787   3.581   3.538  0.8438 -0.8112  0.1738
  467MOL0     H61585   7.786   3.691   3.338  1.1176  2.1658 -1.5811
  467MOL0     H61586   7.864   3.834   3.401 -0.1695  0.2364 -0.5133
  467MOL0     H61587   7.589   3.740   3.475 -0.2134  0.0740  0.4924
  467MOL0     H61588   7.675   3.876   3.549 -0.5008 -0.1007  0.7802
  467MOL0     H61589   7.601   3.864   3.267 -1.0637  1.1353 -0.3685
  467MOL0     H61590   7.724   3.977   3.341 -1.1668  4.2516  0.8149
  467MOL0     H61591   7.535   4.116   3.318 -0.6338 -0.3727 -0.5905
  467MOL0     H61592   7.542   4.071   3.493 -2.8207  3.0006 -0.3116
  467MOL0     H61593   7.383   3.891   3.309  1.3460 -2.4235  2.1334
  467MOL0     H61594   7.370   3.919   3.479  0.4337 -0.8581  0.3612
  467MOL0     H61595   7.283   4.140   3.276 -1.1675  0.7476  0.4539
  467MOL0     H61596   7.281   4.147   3.452  2.7782  0.1554  0.1288
  467MOL0     H61597   7.094   3.853   3.489 -1.0236  0.8856  1.4695
  467MOL0     H61598   6.781   3.896   3.480  2.4493 -0.1474  2.7773
  467MOL0     H61599   6.882   3.752   3.475  0.0762 -2.1014 -1.8320
  467MOL0     H61600   6.827   3.729   3.232 -0.9726 -1.4507 -1.1819
  467MOL0     H61601   6.707   3.859   3.256  1.5253  0.3970 -0.9130
  467MOL0     H61602   6.712   3.587   3.418 -3.5000 -1.9481  1.1942
  467MOL0     H61603   6.595   3.710   3.448  0.5960 -2.6215  1.9061
  467MOL0     H61604   6.641   3.579   3.176 -0.5216 -2.1362 -0.0543
  467MOL0     H61605   6.499   3.670   3.235  2.3547  2.2373 -2.0983
  467MOL0     H61606   6.378   3.564   3.097  0.0586  0.5905  1.0376
  467MOL0     H61607   6.157   3.504   3.032  1.9429  1.9355  0.1705
  467MOL0     H61608   5.764   3.466   3.093  4.6479 -1.1261  1.7041
  467MOL0     H61609   5.514   3.392   3.083  1.4182  0.6603  0.2782
  467MOL0     H61610   5.415   2.941   2.952 -1.3382 -1.2786 -0.0773
  467MOL0     H61611   5.422   3.060   2.818  2.2205  0.4216  1.0791
  467MOL0     H61612   5.186   3.075   3.021  1.9072 -2.3312  0.5288
  467MOL0     H61613   5.168   2.954   2.896 -0.2148  0.6142 -4.1259
  467MOL0     H61614   5.077   3.114   2.788 -0.3567  1.3967  0.4353
  467MOL0     H61615   5.231   3.128   2.712 -0.7366 -0.5619  0.2906
  467MOL0     H61616   5.276   3.316   2.900  0.9459  1.6847 -0.3613
  467MOL0     H61617   5.174   3.362   2.766 -0.4271  1.1589  1.4151
  467MOL0     H61618   5.102   3.413   3.020  2.4135  0.3876 -1.0271
  467MOL0     H61619   5.060   3.245   3.028  2.5338 -0.4238 -0.9211
  467MOL0     H61620   4.924   3.277   2.812  0.8787  0.6748 -1.2868
  467MOL0     H61621   4.962   3.446   2.818 -2.1180  0.1975  0.2163
  467MOL0     H61622   4.720   3.405   2.906  1.0187  1.4624 -2.6033
  467MOL0     H61623   4.797   3.319   3.046  2.3027 -0.1790  0.3626
  467MOL0     H61624   4.845   3.595   2.942 -1.3689 -1.3032 -1.5388
  467MOL0     H61625   4.921   3.528   3.087 -0.6556  0.1141  1.1941
  467MOL0     H61626   5.638   3.012   2.899  0.8945 -0.1996 -0.6014
  467MOL0     H61627   5.868   3.086   2.918 -0.8242 -0.1780  1.4054
  467MOL0     H61628   6.173   3.205   3.355  0.4126 -1.1457 -0.9039
  467MOL0     H61629   6.386   3.275   3.411 -0.9876  1.2182  1.9284
  467MOL0     H61630   8.127   3.337   3.330  1.7040 -1.8267 -0.4281
  467MOL0     H61631   8.342   3.250   3.337 -3.1358  2.4096 -2.6150
  467MOL0     H61632   8.810   3.323   3.513  0.4589  0.1751 -0.0250
  467MOL0     H61633   9.042   3.239   3.534 -0.6075  0.7914 -0.8717
  467MOL0     H61634   9.250   3.150   3.508 -0.9269  0.3998  0.2019
  467MOL0     H61635   9.192   3.101   3.349  2.5096  1.0217 -0.3206
  467MOL0     H61636   9.313   2.888   3.385  1.7849  1.3408 -1.1077
  467MOL0     H61637   9.427   3.019   3.383  0.9775 -2.9951 -0.6121
  467MOL0     H61638   9.474   2.848   3.573 -0.4212 -0.5191  0.8554
  467MOL0     H61639   9.305   2.878   3.612 -0.5009  1.2325 -1.5482
  467MOL0     H61640   9.369   3.108   3.697 -1.2773 -0.4724 -2.6297
  467MOL0     H61641   9.477   2.998   3.766 -1.3758  1.1781 -0.1404
  467MOL0     H61642   9.665   3.278   3.501  0.7060 -1.2073 -2.0533
  467MOL0     H61643   8.901   2.848   3.449  1.6456  0.5350 -2.7034
  467MOL0     H61644   8.671   2.928   3.443 -0.7090  0.0388 -0.8949
  468MOL0     O61645   0.260   6.939   5.334  0.0061  0.7596  0.0120
  468MOL0     C61646   0.325   6.874   5.412 -0.0332  0.7080  0.1814
  468MOL0     O61647   0.347   6.739   5.408  0.2121  0.2833 -0.0218
  468MOL0     C61648   0.268   6.669   5.319 -0.6073 -0.3552  0.3942
  468MOL0     C61649   0.129   6.659   5.336 -0.1275 -0.2362  0.6725
  468MOL0     C61650   0.064   6.559   5.254  0.3830  0.6170  0.4690
  468MOL0     C61651   0.137   6.484   5.156 -0.0681 -0.3236  0.5801
  468MOL0     O61652   0.087   6.399   5.055  0.2646  0.0108  0.5059
  468MOL0     C61653  -0.052   6.366   5.059  1.0717  0.1174  0.2184
  468MOL0     C61654  -0.090   6.263   4.954  0.1463  0.3508 -0.7970
  468MOL0     C61655  -0.224   6.194   4.981 -0.3782  0.6666  0.4597
  468MOL0     C61656  -0.345   6.290   4.976  0.7083  0.6792  0.0678
  468MOL0     C61657  -0.475   6.211   4.937 -0.7568  0.2632  0.0447
  468MOL0     C61658  -0.604   6.292   4.964  1.5354  0.2272 -0.5810
  468MOL0     C61659  -0.722   6.205   4.921 -0.3769  0.0613 -0.0413
  468MOL0     C61660  -0.849   6.287   4.934 -0.5903 -0.8097 -0.3516
  468MOL0     N61661  -0.967   6.226   4.877  0.2063 -0.6204  0.3335
  468MOL0     C61662  -1.073   6.181   4.956  0.5314  0.9024  0.1160
  468MOL0     C61663  -1.182   6.174   4.875  0.9457  0.0109 -0.2939
  468MOL0     C61664  -1.321   6.104   4.891 -0.6655 -0.8231  0.3703
  468MOL0     C61665  -1.442   6.194   4.899 -0.2096  0.6384 -0.7217
  468MOL0     C61666  -1.564   6.114   4.863  0.1614 -0.6612  0.8256
  468MOL0     C61667  -1.692   6.205   4.882 -0.5892  0.5846  0.4542
  468MOL0     O61668  -1.817   6.135   4.871 -0.0947  0.1204 -0.4663
  468MOL0     C61669  -1.938   6.196   4.914 -0.2586  0.3241  0.0386
  468MOL0     C61670  -1.950   6.325   4.971 -0.5635  0.5010  0.0884
  468MOL0     C61671  -2.074   6.377   5.002 -0.0906 -0.5376 -1.1987
  468MOL0     C61672  -2.195   6.307   4.982  0.1684  0.7163 -0.3681
  468MOL0     C61673  -2.331   6.350   5.017  0.5652 -0.2891 -0.6674
  468MOL0     O61674  -2.430   6.260   4.990  0.2422  0.2860 -0.5585
  468MOL0     C61675  -2.563   6.271   5.029 -0.7799 -0.1357  0.5331
  468MOL0     C61676  -2.625   6.390   5.059 -0.1949  0.6169  0.6574
  468MOL0     C61677  -2.764   6.384   5.079  0.6193 -0.3401 -0.7017
  468MOL0     C61678  -2.840   6.259   5.071 -0.8000 -0.1632  0.4727
  468MOL0     O61679  -2.980   6.250   5.081 -0.1744 -0.1504  0.9832
  468MOL0     C61680  -3.050   6.370   5.121  0.9740 -0.0331  0.0417
  468MOL0     C61681  -3.204   6.352   5.143 -0.0394 -0.5638  0.0110
  468MOL0     C61682  -3.242   6.264   5.273 -0.1015  0.0113 -0.1326
  468MOL0     C61683  -3.370   6.185   5.245 -0.1177 -0.2953 -0.8280
  468MOL0     C61684  -3.402   6.091   5.364 -0.1616 -0.2972  0.2805
  468MOL0     C61685  -3.307   5.971   5.359 -0.1531  0.3322 -0.5592
  468MOL0     C61686  -3.391   5.846   5.384  0.6827  0.4203 -0.0250
  468MOL0     C61687  -3.292   5.735   5.393 -0.7643 -0.1096 -0.0284
  468MOL0    Cl61688  -3.381   5.580   5.380 -0.1873  0.2593  0.1216
  468MOL0     C61689  -2.766   6.145   5.037  0.9821 -0.4961 -0.1956
  468MOL0     C61690  -2.634   6.151   5.004 -0.5165 -0.5679 -0.8020
  468MOL0     O61691  -2.341   6.449   5.091 -0.0538  0.4185 -0.3654
  468MOL0     C61692  -2.179   6.176   4.933  1.1648 -0.5542  1.5970
  468MOL0     C61693  -2.058   6.125   4.893  0.2697  0.2274 -0.6356
  468MOL0     N61694  -1.137   6.219   4.751 -0.3211  0.0281 -0.0846
  468MOL0     N61695  -1.015   6.249   4.752 -0.2920  0.6585  0.3336
  468MOL0     C61696   0.277   6.496   5.141  0.1874  0.0114 -0.1322
  468MOL0     C61697   0.337   6.585   5.228  0.6999 -0.4621 -0.4704
  468MOL0     C61698   0.426   6.947   5.502 -0.4391 -1.4803  0.5911
  468MOL0     C61699   0.451   7.084   5.481  0.2496  0.0024  0.0708
  468MOL0     C61700   0.562   7.143   5.547  0.4488 -0.3186  0.0491
  468MOL0     C61701   0.641   7.076   5.642  0.4203 -0.8516  0.1664
  468MOL0     O61702   0.739   7.128   5.717  0.1183 -0.1693 -0.7161
  468MOL0     C61703   0.746   7.270   5.726  0.1880 -0.5488  0.4002
  468MOL0     C61704   0.836   7.311   5.841  0.1492 -0.6910 -0.0593
  468MOL0     C61705   0.860   7.458   5.850 -0.4476  0.0726  0.0796
  468MOL0     C61706   0.955   7.492   5.963 -0.4711 -1.2003  0.4766
  468MOL0     C61707   1.087   7.430   5.938  0.3509 -0.5985 -0.0608
  468MOL0     C61708   1.201   7.402   5.931 -0.9249 -0.7716 -0.1312
  468MOL0     C61709   0.606   6.945   5.660 -0.5409  0.9184 -0.5774
  468MOL0     C61710   0.502   6.874   5.597  0.4396 -0.6580 -0.2134
  468MOL0     H61711   0.082   6.708   5.420 -1.3017 -0.9874  0.4868
  468MOL0     H61712  -0.037   6.536   5.286  0.4270 -0.5980 -0.1951
  468MOL0     H61713  -0.119   6.444   5.023  0.0733 -0.7894  0.0815
  468MOL0     H61714  -0.067   6.333   5.162  2.1443  1.9897  1.0225
  468MOL0     H61715  -0.011   6.188   4.945 -0.6168 -0.3672 -1.6882
  468MOL0     H61716  -0.098   6.318   4.861 -0.6709 -1.6888 -2.0061
  468MOL0     H61717  -0.218   6.142   5.077  0.6851 -2.5365 -1.1810
  468MOL0     H61718  -0.241   6.116   4.906 -1.4651 -1.1639  2.4588
  468MOL0     H61719  -0.356   6.345   5.071  1.1297  0.5737  0.1796
  468MOL0     H61720  -0.320   6.375   4.912  1.2245 -0.1725 -0.8813
  468MOL0     H61721  -0.473   6.113   4.985 -0.4503 -0.5968 -1.6503
  468MOL0     H61722  -0.473   6.183   4.831  0.4698 -0.4122  0.2229
  468MOL0     H61723  -0.612   6.393   4.921 -0.7186  1.5102  2.4549
  468MOL0     H61724  -0.622   6.307   5.071 -0.1777 -2.1241 -0.4640
  468MOL0     H61725  -0.718   6.154   4.824 -1.1554 -1.0904  0.5123
  468MOL0     H61726  -0.726   6.126   4.996 -2.5199  0.2315  0.0962
  468MOL0     H61727  -0.838   6.377   4.873  0.1614  0.6031  1.7467
  468MOL0     H61728  -0.864   6.312   5.039 -3.2407  1.2362 -1.1031
  468MOL0     H61729  -1.057   6.141   5.056  2.0332 -0.0608 -0.4750
  468MOL0     H61730  -1.311   6.036   4.976  1.1497  0.7570  1.5099
  468MOL0     H61731  -1.330   6.030   4.811  0.2752 -2.8743  2.0680
  468MOL0     H61732  -1.432   6.264   4.816  0.4367  0.3255 -0.9121
  468MOL0     H61733  -1.443   6.248   4.995  0.5828  0.2708 -0.4957
  468MOL0     H61734  -1.559   6.074   4.761 -3.8115 -1.0999  0.6188
  468MOL0     H61735  -1.571   6.029   4.931  0.1987 -2.9020 -1.8135
  468MOL0     H61736  -1.701   6.280   4.802 -1.8900 -0.4147 -0.3788
  468MOL0     H61737  -1.680   6.257   4.977  1.7234 -0.9181  1.0615
  468MOL0     H61738  -1.870   6.397   4.985 -2.0084  2.0365  0.8099
  468MOL0     H61739  -2.098   6.475   5.042 -0.8268 -0.7660 -1.0704
  468MOL0     H61740  -2.569   6.483   5.067 -1.0136  1.0631  1.2666
  468MOL0     H61741  -2.800   6.483   5.103 -1.5715 -0.9049 -1.3748
  468MOL0     H61742  -3.043   6.450   5.047 -1.4789 -0.6582 -0.9481
  468MOL0     H61743  -3.005   6.407   5.214  0.8147 -0.9773  0.5025
  468MOL0     H61744  -3.250   6.305   5.056 -0.8718  0.2316  0.0119
  468MOL0     H61745  -3.258   6.447   5.138  0.4871 -0.3115 -2.7481
  468MOL0     H61746  -3.252   6.330   5.359 -0.4864 -2.8551  2.1740
  468MOL0     H61747  -3.161   6.194   5.297  0.2744  0.7288  0.7318
  468MOL0     H61748  -3.455   6.254   5.238  1.5458  2.4155  2.3738
  468MOL0     H61749  -3.366   6.128   5.152  0.1690 -2.9847  0.7176
  468MOL0     H61750  -3.505   6.056   5.364  0.0568 -0.9747 -0.0020
  468MOL0     H61751  -3.395   6.142   5.461  0.5664  0.0136  0.0784
  468MOL0     H61752  -3.234   5.983   5.439 -0.0893  0.2605 -0.6058
  468MOL0     H61753  -3.272   5.962   5.256  1.6671  0.5881  0.0154
  468MOL0     H61754  -3.446   5.847   5.479  0.7944  2.0459  0.0496
  468MOL0     H61755  -3.467   5.836   5.306 -2.2285  0.7947  2.5908
  468MOL0     H61756  -3.229   5.732   5.482  0.9335 -0.3592 -1.1822
  468MOL0     H61757  -3.220   5.741   5.311  0.7980 -1.6646  1.1626
  468MOL0     H61758  -2.821   6.052   5.038  1.0551 -0.6373  3.3637
  468MOL0     H61759  -2.586   6.061   4.966  1.1061 -1.4975  2.9813
  468MOL0     H61760  -2.263   6.108   4.918  0.9081  0.2153 -1.0737
  468MOL0     H61761  -2.030   6.026   4.859  1.0586  0.3988 -0.5009
  468MOL0     H61762   0.329   6.435   5.068  0.3802 -0.7890  0.6561
  468MOL0     H61763   0.440   6.611   5.208 -0.3520  3.1421 -2.1421
  468MOL0     H61764   0.392   7.138   5.407  0.6461 -1.1747 -1.1565
  468MOL0     H61765   0.579   7.241   5.504 -3.3387  0.3206 -0.3760
  468MOL0     H61766   0.650   7.319   5.741  2.1655  2.7804  4.0174
  468MOL0     H61767   0.792   7.308   5.634 -2.3710  3.0344  0.4104
  468MOL0     H61768   0.788   7.291   5.937 -0.0572 -1.7095 -0.3710
  468MOL0     H61769   0.927   7.252   5.827 -1.3194 -2.4429 -2.9731
  468MOL0     H61770   0.771   7.502   5.896 -0.2733  2.8829 -2.0117
  468MOL0     H61771   0.888   7.501   5.754 -2.6262  2.1032  0.2838
  468MOL0     H61772   0.970   7.600   5.960 -0.2766 -1.2493 -0.5333
  468MOL0     H61773   0.925   7.470   6.066  2.6533 -1.8502  1.3554
  468MOL0     H61774   1.304   7.372   5.928 -0.2781  1.3813 -0.7593
  468MOL0     H61775   0.676   6.900   5.729  0.3991  1.0459 -1.4252
  468MOL0     H61776   0.487   6.767   5.605 -0.9728 -0.3495  2.6651
  469MOL0     O61777   2.510   0.788   8.599 -0.6643  0.4422  0.3495
  469MOL0     C61778   2.584   0.888   8.610 -0.6798  0.1425 -0.3674
  469MOL0     O61779   2.568   1.003   8.688  0.1339  0.0391 -0.7005
  469MOL0     C61780   2.468   1.024   8.775 -0.4733  0.1284  0.1474
  469MOL0     C61781   2.481   1.060   8.909 -0.5554 -1.2444 -0.2192
  469MOL0     C61782   2.373   1.115   8.991 -0.8978  0.0585 -0.2887
  469MOL0     C61783   2.245   1.103   8.936  0.1174  0.6010  0.1388
  469MOL0     O61784   2.143   1.143   9.016 -0.2285  0.5170 -0.3330
  469MOL0     C61785   2.026   1.062   9.007 -0.1144  0.0552 -0.4740
  469MOL0     C61786   1.906   1.151   8.962  0.4230 -0.4020  0.7475
  469MOL0     C61787   1.781   1.073   8.976  0.0172 -0.1412  0.1801
  469MOL0     C61788   1.665   1.153   8.924 -0.0819  0.5736 -0.8637
  469MOL0     C61789   1.529   1.101   8.979 -0.4551  0.2513  0.8848
  469MOL0     C61790   1.496   0.965   8.902 -0.0565  0.2303 -0.0022
  469MOL0     C61791   1.342   0.927   8.926  1.0962  0.3232  0.2852
  469MOL0     C61792   1.304   0.789   8.881  0.4012 -0.6685  0.2750
  469MOL0     N61793   1.158   0.759   8.909 -0.5915  0.6933  0.5186
  469MOL0     C61794   1.066   0.735   8.811  0.3575 -0.5077 -0.4388
  469MOL0     C61795   0.951   0.734   8.885  0.2894 -0.1679 -0.2841
  469MOL0     C61796   0.820   0.719   8.818  1.1586 -0.3437 -0.1044
  469MOL0     C61797   0.802   0.602   8.716 -0.2236  1.1112 -0.6517
  469MOL0     C61798   0.843   0.466   8.780 -0.3253 -0.0095  1.1844
  469MOL0     C61799   0.752   0.421   8.891  0.4215 -0.4817 -0.8901
  469MOL0     O61800   0.628   0.391   8.837  0.3863  0.1032 -0.3812
  469MOL0     C61801   0.524   0.348   8.920 -0.3286 -0.8228  0.0042
  469MOL0     C61802   0.539   0.329   9.056 -0.6146  0.8864  0.3573
  469MOL0     C61803   0.422   0.304   9.133 -1.0839  0.1674 -0.1851
  469MOL0     C61804   0.295   0.308   9.077 -0.9940  0.8379  0.4457
  469MOL0     C61805   0.177   0.274   9.158 -0.8909 -0.2615 -0.3431
  469MOL0     O61806   0.060   0.308   9.097 -0.1657 -0.5338 -0.4787
  469MOL0     C61807  -0.067   0.300   9.158  0.0698 -0.6775  0.6818
  469MOL0     C61808  -0.106   0.182   9.231 -0.2047 -0.2174 -0.2862
  469MOL0     C61809  -0.239   0.170   9.278 -0.0972  0.1945 -0.4198
  469MOL0     C61810  -0.333   0.271   9.256  0.1295  0.3314  0.5291
  469MOL0     O61811  -0.469   0.252   9.279 -1.1513 -0.1860 -1.1369
  469MOL0     C61812  -0.560   0.275   9.179 -0.1080 -0.5043 -0.1818
  469MOL0     C61813  -0.678   0.203   9.235  0.0220 -0.2669 -0.5881
  469MOL0     C61814  -0.795   0.202   9.143 -0.8314  0.1660  0.2204
  469MOL0     C61815  -0.929   0.170   9.205 -0.5672 -0.1030  0.0740
  469MOL0     C61816  -1.031   0.190   9.092 -0.2367 -0.1536 -0.7279
  469MOL0     C61817  -1.177   0.195   9.141 -0.7222 -0.4286  0.0020
  469MOL0     C61818  -1.230   0.058   9.190 -0.3840 -0.6663 -0.4752
  469MOL0     C61819  -1.380   0.035   9.179 -1.3982 -0.3037  1.0534
  469MOL0    Cl61820  -1.412  -0.103   9.295 -0.0165  0.2624  0.0495
  469MOL0     C61821  -0.280   0.391   9.198  0.7775 -0.1970 -0.2080
  469MOL0     C61822  -0.156   0.412   9.142 -1.0299 -0.0988 -0.0685
  469MOL0     O61823   0.188   0.209   9.260 -0.5490 -0.5589 -0.2352
  469MOL0     C61824   0.286   0.307   8.941 -0.6206  0.6427  0.1358
  469MOL0     C61825   0.392   0.336   8.861 -0.6429 -0.0186 -0.0959
  469MOL0     N61826   0.973   0.751   9.017 -0.0619  0.5710  0.2115
  469MOL0     N61827   1.099   0.754   9.029  0.2205  0.3167 -0.2866
  469MOL0     C61828   2.225   1.057   8.801 -1.2274 -0.3783 -0.3921
  469MOL0     C61829   2.337   1.023   8.722  0.1107  0.8432 -0.3402
  469MOL0     C61830   2.704   0.865   8.536 -0.3523 -0.6648 -0.8091
  469MOL0     C61831   2.820   0.931   8.589 -0.1407  0.3655 -0.6621
  469MOL0     C61832   2.942   0.906   8.524 -0.3886  0.1902 -0.1683
  469MOL0     C61833   2.955   0.831   8.404  0.2412 -0.1307  0.3217
  469MOL0     O61834   3.073   0.819   8.334  0.1990 -0.2262  0.0474
  469MOL0     C61835   3.193   0.848   8.404 -1.0024  0.4940 -0.4464
  469MOL0     C61836   3.324   0.804   8.335 -0.4731 -0.4297 -0.1568
  469MOL0     C61837   3.457   0.838   8.419  0.5426  0.5025  0.8678
  469MOL0     C61838   3.571   0.746   8.386 -0.9378  0.2792 -0.0583
  469MOL0     C61839   3.704   0.785   8.432  0.0946  0.3140 -0.0207
  469MOL0     C61840   3.821   0.827   8.453 -0.6867 -0.0740 -0.0496
  469MOL0     C61841   2.845   0.769   8.355  0.3801  0.1206  0.1508
  469MOL0     C61842   2.717   0.783   8.424 -0.1824 -0.0165 -0.0188
  469MOL0     H61843   2.571   1.066   8.969 -0.7286  0.4667 -0.0672
  469MOL0     H61844   2.401   1.152   9.089  4.6859  1.7286 -2.1565
  469MOL0     H61845   2.006   1.026   9.108  2.4988 -2.3871 -0.6942
  469MOL0     H61846   2.040   0.976   8.940  1.9831 -1.0410  1.2548
  469MOL0     H61847   1.919   1.180   8.858  2.6941 -2.5869  0.3464
  469MOL0     H61848   1.904   1.242   9.023  1.6910 -2.1159  3.5907
  469MOL0     H61849   1.771   1.051   9.083 -0.6070 -0.3448  0.0869
  469MOL0     H61850   1.793   0.982   8.916  5.0610  0.1424  0.3548
  469MOL0     H61851   1.675   1.257   8.956  4.4274  0.6419 -1.7742
  469MOL0     H61852   1.666   1.145   8.815  0.9115  1.0835 -0.8999
  469MOL0     H61853   1.448   1.174   8.980  0.9269  1.8479  2.0570
  469MOL0     H61854   1.539   1.066   9.082  0.7860 -1.0276  0.3680
  469MOL0     H61855   1.567   0.885   8.926  0.3249 -0.3961 -2.8117
  469MOL0     H61856   1.521   0.981   8.796  0.1662  0.3241  0.0638
  469MOL0     H61857   1.334   0.933   9.035 -0.1453  2.0419  0.1360
  469MOL0     H61858   1.271   0.999   8.884 -1.9098 -3.1881 -1.1859
  469MOL0     H61859   1.366   0.719   8.938  1.9517  1.5721  1.4944
  469MOL0     H61860   1.340   0.774   8.779  2.2335  0.4335  0.7239
  469MOL0     H61861   1.079   0.734   8.704 -0.8563  2.5487 -0.7285
  469MOL0     H61862   0.786   0.811   8.770 -2.9765 -1.0684  1.1110
  469MOL0     H61863   0.755   0.696   8.903 -0.3360 -1.3636 -1.4626
  469MOL0     H61864   0.867   0.622   8.630 -1.5121  1.6125 -1.5402
  469MOL0     H61865   0.699   0.605   8.680 -1.0137  1.3938  1.4948
  469MOL0     H61866   0.840   0.389   8.703  1.4286 -1.4199  2.4488
  469MOL0     H61867   0.946   0.478   8.813  0.8049 -1.2682 -1.5840
  469MOL0     H61868   0.750   0.486   8.979 -1.7228 -4.6438  2.5406
  469MOL0     H61869   0.797   0.327   8.925  0.0353 -1.7053 -3.5674
  469MOL0     H61870   0.638   0.323   9.102  0.3728  2.4925 -1.4212
  469MOL0     H61871   0.436   0.283   9.239  0.7788 -1.5376 -0.7089
  469MOL0     H61872  -0.030   0.109   9.255 -1.5549 -1.0988  1.5857
  469MOL0     H61873  -0.273   0.077   9.323  2.3560 -0.3583  0.4817
  469MOL0     H61874  -0.525   0.242   9.081  1.1332  1.8627 -0.6143
  469MOL0     H61875  -0.591   0.380   9.177 -0.6010 -0.6543 -1.7248
  469MOL0     H61876  -0.707   0.269   9.317  0.3270  1.0992 -1.5505
  469MOL0     H61877  -0.662   0.099   9.264 -0.3321 -1.1661 -3.2914
  469MOL0     H61878  -0.780   0.119   9.074 -0.5842 -0.5718  1.1367
  469MOL0     H61879  -0.801   0.292   9.081 -1.2284  0.5142  0.7595
  469MOL0     H61880  -0.923   0.068   9.244  1.5473 -0.7912 -1.8788
  469MOL0     H61881  -0.944   0.228   9.297 -0.8409 -2.5571  1.6980
  469MOL0     H61882  -1.025   0.106   9.022 -1.9198 -1.2729  0.3946
  469MOL0     H61883  -0.998   0.289   9.059  3.0073  0.4113  3.3506
  469MOL0     H61884  -1.243   0.241   9.067 -1.6564 -0.2505  0.9217
  469MOL0     H61885  -1.185   0.265   9.225 -1.4608  0.2660 -0.6361
  469MOL0     H61886  -1.187  -0.022   9.128 -1.5082 -0.9988 -0.8446
  469MOL0     H61887  -1.188   0.032   9.287 -0.5891 -0.1254 -0.2409
  469MOL0     H61888  -1.396  -0.002   9.078  2.4977  2.6658 -0.9315
  469MOL0     H61889  -1.432   0.127   9.208 -1.4522 -0.3619  1.1416
  469MOL0     H61890  -0.354   0.467   9.174 -0.8330 -1.6165  0.0663
  469MOL0     H61891  -0.121   0.499   9.087 -0.8560 -0.4748 -0.5653
  469MOL0     H61892   0.189   0.279   8.900 -1.1534  1.7620  0.5875
  469MOL0     H61893   0.378   0.346   8.754 -0.6807  0.2767 -0.0638
  469MOL0     H61894   2.127   1.055   8.754 -1.6488 -2.8377  0.4662
  469MOL0     H61895   2.325   0.995   8.618 -2.3408  2.1431 -0.4628
  469MOL0     H61896   2.822   0.994   8.678  1.1537 -2.4957  1.5262
  469MOL0     H61897   3.026   0.971   8.548  0.2274 -1.7172  3.4029
  469MOL0     H61898   3.196   0.807   8.505 -0.1477  1.1078 -0.2135
  469MOL0     H61899   3.191   0.957   8.415 -1.7447  0.4886 -0.4740
  469MOL0     H61900   3.338   0.699   8.308  2.3547  0.0419 -0.8401
  469MOL0     H61901   3.347   0.861   8.245  2.7420  0.0855  0.8772
  469MOL0     H61902   3.421   0.836   8.523 -2.4032 -4.5725  0.0750
  469MOL0     H61903   3.487   0.937   8.384 -0.9633  0.0536 -1.9926
  469MOL0     H61904   3.539   0.648   8.423 -0.0866 -0.1107 -0.3358
  469MOL0     H61905   3.574   0.742   8.276 -1.5743 -1.7254 -0.0550
  469MOL0     H61906   3.911   0.874   8.488  0.5859 -1.5584 -1.1746
  469MOL0     H61907   2.839   0.706   8.267 -3.0680 -1.1643  1.1100
  469MOL0     H61908   2.627   0.739   8.383  0.4036 -1.5990  0.2971
  470MOL0     O61909   7.300   4.479   6.357  0.8366  0.0372  0.2376
  470MOL0     C61910   7.268   4.376   6.422  0.1148  0.1078 -0.3275
  470MOL0     O61911   7.354   4.296   6.495  0.0826 -0.0324 -0.1739
  470MOL0     C61912   7.491   4.304   6.460 -0.4831  0.7524  1.1478
  470MOL0     C61913   7.579   4.372   6.546 -0.3972 -0.3706  0.6671
  470MOL0     C61914   7.723   4.370   6.519 -0.9971  0.6158  0.2917
  470MOL0     C61915   7.779   4.298   6.410 -0.4142  0.0132 -0.4457
  470MOL0     O61916   7.914   4.301   6.397 -0.2265  0.5342 -0.3686
  470MOL0     C61917   7.972   4.189   6.327  0.2539  0.2446  0.3116
  470MOL0     C61918   8.124   4.209   6.310 -0.4596  0.1528  0.0575
  470MOL0     C61919   8.191   4.118   6.211 -0.0290 -0.8371 -0.4479
  470MOL0     C61920   8.341   4.154   6.207 -0.4684 -0.2058  0.0889
  470MOL0     C61921   8.363   4.299   6.154 -0.1595 -0.6488 -0.2570
  470MOL0     C61922   8.515   4.336   6.169 -0.4995 -0.0598 -0.0423
  470MOL0     C61923   8.551   4.465   6.110  0.1997  0.2313  0.7986
  470MOL0     C61924   8.701   4.479   6.061  0.0607  0.4648 -0.1263
  470MOL0     N61925   8.734   4.615   6.089  0.1890  0.0786 -0.1358
  470MOL0     C61926   8.805   4.660   6.195  0.9314 -1.0295  0.0057
  470MOL0     C61927   8.804   4.794   6.179  0.9281  1.9142 -0.2060
  470MOL0     C61928   8.907   4.871   6.249  0.2888 -1.5202  0.3323
  470MOL0     C61929   8.867   4.889   6.390 -0.3623 -0.6973 -0.2691
  470MOL0     C61930   8.986   4.944   6.478  0.2809 -0.1882 -0.5169
  470MOL0     C61931   8.952   5.005   6.615  0.5322 -1.0276  0.2066
  470MOL0     O61932   8.915   4.900   6.703 -0.2479 -0.4213 -0.0336
  470MOL0     C61933   8.788   4.892   6.755  0.1991  0.9131 -0.3266
  470MOL0     C61934   8.713   4.774   6.735  0.1949 -0.1272  0.2346
  470MOL0     C61935   8.586   4.755   6.776 -0.0309  0.4294 -0.5382
  470MOL0     C61936   8.522   4.858   6.851 -0.3721 -0.0435 -0.5878
  470MOL0     C61937   8.386   4.842   6.904 -0.7318 -0.3660 -0.0125
  470MOL0     O61938   8.334   4.945   6.984 -0.3914  0.2702  0.3246
  470MOL0     C61939   8.214   4.927   7.038  1.1646  0.1035  0.1195
  470MOL0     C61940   8.178   4.814   7.111  0.8062  1.0542 -0.2958
  470MOL0     C61941   8.051   4.817   7.172  0.3136 -0.9659  0.5005
  470MOL0     C61942   7.952   4.918   7.149 -0.9195 -0.3371 -0.2861
  470MOL0     O61943   7.836   4.902   7.219 -0.0340 -0.4857 -0.3498
  470MOL0     C61944   7.726   4.983   7.186 -0.0484 -1.0172 -0.4974
  470MOL0     C61945   7.673   4.977   7.044 -0.2070 -0.8206  0.4053
  470MOL0     C61946   7.590   4.850   7.026  0.5919  0.1927 -0.3523
  470MOL0     C61947   7.445   4.859   7.079 -0.2472 -0.1053  0.2265
  470MOL0     C61948   7.364   4.740   7.043  0.3568  0.6125 -0.0546
  470MOL0     C61949   7.214   4.771   7.072 -0.3804  0.3725  0.6944
  470MOL0     C61950   7.139   4.842   6.958  0.0830 -0.0272 -0.5474
  470MOL0     C61951   6.993   4.843   6.981 -0.3476 -0.7335 -0.1620
  470MOL0    Cl61952   6.941   4.916   7.141 -0.0012  0.0436 -0.4103
  470MOL0     C61953   8.001   5.030   7.080 -0.0088 -0.4137  0.4683
  470MOL0     C61954   8.127   5.037   7.027 -1.1473  0.7111  0.7302
  470MOL0     O61955   8.332   4.737   6.888  0.1387  0.0010 -0.0945
  470MOL0     C61956   8.587   4.982   6.857 -1.0106 -0.2733 -0.6259
  470MOL0     C61957   8.716   5.000   6.800 -0.3568 -0.8667 -0.0639
  470MOL0     N61958   8.729   4.829   6.070  0.8378  0.1092 -0.2995
  470MOL0     N61959   8.683   4.722   6.024 -0.0209 -0.2841  0.5849
  470MOL0     C61960   7.686   4.233   6.327 -0.2275  0.4917  0.4872
  470MOL0     C61961   7.543   4.237   6.355 -0.2488  0.2153 -0.2103
  470MOL0     C61962   7.120   4.348   6.432 -0.2223  0.2493  0.3861
  470MOL0     C61963   7.075   4.232   6.480  0.2441 -0.0922  1.0774
  470MOL0     C61964   6.937   4.216   6.501  0.1833 -0.2075  0.7715
  470MOL0     C61965   6.840   4.321   6.469 -1.7942 -0.0145  0.1220
  470MOL0     O61966   6.700   4.302   6.463 -0.2682 -0.4741 -0.3563
  470MOL0     C61967   6.648   4.186   6.521 -0.1906  0.1060 -0.4281
  470MOL0     C61968   6.499   4.195   6.542  0.2270 -0.2314  0.0373
  470MOL0     C61969   6.440   4.101   6.644  0.2352 -0.8053  0.6263
  470MOL0     C61970   6.291   4.080   6.634 -0.4309  0.8111 -0.0392
  470MOL0     C61971   6.242   3.966   6.712 -0.4476 -0.0972 -0.5991
  470MOL0     C61972   6.205   3.889   6.798  0.1262  0.1000 -0.2220
  470MOL0     C61973   6.888   4.442   6.425 -0.8054 -0.1980  1.1822
  470MOL0     C61974   7.033   4.458   6.410 -0.0648 -0.9671  0.7268
  470MOL0     H61975   7.529   4.431   6.622 -1.2528  0.5890 -0.5894
  470MOL0     H61976   7.803   4.417   6.575 -1.0288 -0.0813  0.9494
  470MOL0     H61977   7.931   4.187   6.225  0.4001  0.0576  0.2546
  470MOL0     H61978   7.954   4.092   6.374  0.8290  0.3292  0.7149
  470MOL0     H61979   8.183   4.219   6.401 -1.0708 -2.4248  0.8254
  470MOL0     H61980   8.128   4.311   6.271 -1.4037  0.3132  0.3360
  470MOL0     H61981   8.141   4.124   6.114 -1.9482  0.3774  0.5508
  470MOL0     H61982   8.178   4.023   6.264  1.2922  0.0561  1.5740
  470MOL0     H61983   8.392   4.153   6.304 -1.7361  1.2852  0.8252
  470MOL0     H61984   8.396   4.088   6.140  0.8830  3.5529 -2.8658
  470MOL0     H61985   8.316   4.375   6.216  1.1404  1.8213 -2.1452
  470MOL0     H61986   8.329   4.311   6.051 -0.9991  2.0146  0.2705
  470MOL0     H61987   8.576   4.251   6.137 -0.8450 -0.6864  0.9084
  470MOL0     H61988   8.529   4.348   6.277 -1.8078 -1.4460  0.3084
  470MOL0     H61989   8.482   4.474   6.026  0.0784 -3.2043  0.3901
  470MOL0     H61990   8.527   4.535   6.190 -0.0410 -0.7603  1.6166
  470MOL0     H61991   8.721   4.457   5.956  1.4967  0.8613  0.0433
  470MOL0     H61992   8.758   4.415   6.130 -1.3339  0.8002  1.3975
  470MOL0     H61993   8.864   4.603   6.266  2.5542 -1.1585 -1.3803
  470MOL0     H61994   8.907   4.972   6.208 -0.7436 -2.2047 -1.4426
  470MOL0     H61995   9.008   4.830   6.247 -0.0544 -2.3581 -0.9466
  470MOL0     H61996   8.841   4.794   6.438  1.8999 -1.1947  0.0758
  470MOL0     H61997   8.785   4.961   6.402 -0.4190 -1.0918  2.2995
  470MOL0     H61998   9.064   4.868   6.492  0.9320  0.3069 -1.4320
  470MOL0     H61999   9.038   5.019   6.419  0.8542 -1.0005 -1.0590
  470MOL0     H62000   8.869   5.074   6.596  1.1341 -0.7770 -1.6505
  470MOL0     H62001   9.040   5.059   6.650  0.0086  0.4885 -0.7266
  470MOL0     H62002   8.772   4.690   6.697  1.5588  0.4619  0.9857
  470MOL0     H62003   8.534   4.662   6.759  2.1944 -0.7828 -1.0835
  470MOL0     H62004   8.248   4.732   7.120 -0.6577 -0.6299 -2.9116
  470MOL0     H62005   8.009   4.731   7.224 -0.6559 -0.5855  0.3772
  470MOL0     H62006   7.757   5.086   7.207  3.5354 -2.1398  0.4434
  470MOL0     H62007   7.643   4.960   7.253 -1.1989  1.4751 -0.9379
  470MOL0     H62008   7.761   4.978   6.978 -0.0049 -1.7702  0.6322
  470MOL0     H62009   7.614   5.065   7.018 -1.4191 -2.4216 -2.9364
  470MOL0     H62010   7.625   4.760   7.077 -1.9734 -0.9801 -0.5030
  470MOL0     H62011   7.592   4.832   6.919  0.3366 -0.3184 -0.2736
  470MOL0     H62012   7.443   4.876   7.187 -2.7256  2.5692 -0.1122
  470MOL0     H62013   7.403   4.952   7.038  0.6934  0.4550  0.4989
  470MOL0     H62014   7.394   4.642   7.082  2.2825 -0.8695 -4.5621
  470MOL0     H62015   7.373   4.730   6.934  0.8335  2.2425 -0.1910
  470MOL0     H62016   7.204   4.833   7.160 -0.2642 -0.5120  1.3465
  470MOL0     H62017   7.164   4.675   7.091  0.6174 -0.5726 -1.1388
  470MOL0     H62018   7.174   4.945   6.970 -1.4380  0.3638  0.8691
  470MOL0     H62019   7.173   4.803   6.862 -1.4803 -0.0758 -1.1068
  470MOL0     H62020   6.962   4.738   6.986 -0.4680 -0.6491  0.9068
  470MOL0     H62021   6.945   4.896   6.897 -0.0906 -1.1196 -0.5590
  470MOL0     H62022   7.927   5.108   7.065 -1.7482 -1.8494  1.1453
  470MOL0     H62023   8.171   5.131   6.995  1.3699 -0.5502  0.2725
  470MOL0     H62024   8.526   5.054   6.911 -0.5814 -0.3830  0.0147
  470MOL0     H62025   8.767   5.096   6.793  1.8446 -1.9777  0.0301
  470MOL0     H62026   7.725   4.181   6.241  1.9675  1.9913  0.4744
  470MOL0     H62027   7.468   4.179   6.303 -0.5693 -0.4311  0.9482
  470MOL0     H62028   7.144   4.154   6.510  0.9040  1.5778  4.3540
  470MOL0     H62029   6.895   4.118   6.522  0.9677 -0.8001 -0.2942
  470MOL0     H62030   6.700   4.168   6.616 -1.1808 -3.6841 -0.4746
  470MOL0     H62031   6.675   4.101   6.459 -1.9827 -0.7139 -0.1352
  470MOL0     H62032   6.465   4.294   6.573 -0.6334 -0.0923 -1.2906
  470MOL0     H62033   6.461   4.173   6.442  1.0283 -3.4238  0.3140
  470MOL0     H62034   6.484   4.136   6.738  2.6567  0.7583 -0.9484
  470MOL0     H62035   6.492   4.010   6.613  0.7367  0.4691 -2.6589
  470MOL0     H62036   6.243   4.172   6.670  1.2830  0.9736  1.9904
  470MOL0     H62037   6.258   4.058   6.532  0.0054  1.5782 -0.3593
  470MOL0     H62038   6.157   3.828   6.872  1.0669 -0.4820 -0.0811
  470MOL0     H62039   6.826   4.531   6.425 -3.6081 -1.9263 -1.5946
  470MOL0     H62040   7.060   4.559   6.380 -0.8076 -0.8849  0.2936
  471MOL0     O62041   7.533   2.542   6.373  0.6565 -0.1351 -0.0382
  471MOL0     C62042   7.592   2.631   6.307  0.6142 -0.2667 -0.6298
  471MOL0     O62043   7.546   2.756   6.288  0.7555 -0.6980  0.4155
  471MOL0     C62044   7.433   2.801   6.356  0.1887  0.5452  1.2807
  471MOL0     C62045   7.440   2.927   6.419  0.4696 -0.0160 -0.0511
  471MOL0     C62046   7.327   2.986   6.467  0.5110  0.1286  0.0702
  471MOL0     C62047   7.199   2.927   6.443 -0.0709 -0.7176 -1.1156
  471MOL0     O62048   7.079   2.981   6.480  0.3054  0.1497  0.5044
  471MOL0     C62049   7.060   3.124   6.505 -0.3113  0.3079  0.4806
  471MOL0     C62050   7.053   3.209   6.384  0.2890  0.2036 -0.7775
  471MOL0     C62051   6.925   3.166   6.307  0.1779 -0.3520 -0.5179
  471MOL0     C62052   6.931   3.211   6.167  0.2383 -0.6676  0.4830
  471MOL0     C62053   6.803   3.173   6.096  0.3047  0.6215 -0.5189
  471MOL0     C62054   6.788   3.239   5.959  0.3140 -0.4847  0.3409
  471MOL0     C62055   6.681   3.191   5.871  0.4439  0.4199  0.3827
  471MOL0     C62056   6.669   3.263   5.735 -0.1988 -0.8462  1.0178
  471MOL0     N62057   6.553   3.218   5.664  0.7204  1.0756 -0.5847
  471MOL0     C62058   6.515   3.093   5.630  0.2299  0.1846 -0.7970
  471MOL0     C62059   6.410   3.101   5.550 -0.8129  1.1991 -0.2056
  471MOL0     C62060   6.338   2.981   5.493 -0.2848 -0.2631 -1.1862
  471MOL0     C62061   6.293   3.004   5.345 -0.0492  0.2111 -0.4651
  471MOL0     C62062   6.159   3.080   5.320 -0.1700 -1.0469 -0.8000
  471MOL0     C62063   6.032   2.996   5.341 -0.0018 -0.6476 -0.1987
  471MOL0     O62064   5.913   3.072   5.377  0.1440 -0.4502 -0.3430
  471MOL0     C62065   5.787   3.043   5.330  0.3043  0.5589  0.8171
  471MOL0     C62066   5.752   2.948   5.236 -0.1670  0.5451  0.1455
  471MOL0     C62067   5.622   2.938   5.182  0.4921 -0.0856 -0.0256
  471MOL0     C62068   5.521   3.027   5.234 -0.3319  0.6801 -0.5545
  471MOL0     C62069   5.381   3.020   5.182 -0.1649 -0.4569  0.0279
  471MOL0     O62070   5.324   2.892   5.172 -0.6480 -0.4619  0.6820
  471MOL0     C62071   5.187   2.875   5.148 -0.0273  0.1758 -0.1601
  471MOL0     C62072   5.155   2.763   5.070 -0.7491 -1.2074 -0.0644
  471MOL0     C62073   5.022   2.733   5.032  0.0635 -1.1154  0.1466
  471MOL0     C62074   4.921   2.805   5.090  0.6419  0.0463  0.0693
  471MOL0     O62075   4.784   2.771   5.080 -0.5540  0.5918 -0.1743
  471MOL0     C62076   4.743   2.655   4.991  0.6944  0.7332  0.1421
  471MOL0     C62077   4.599   2.623   4.968  0.2114 -0.1866 -0.3558
  471MOL0     C62078   4.523   2.597   5.098  0.1550  0.7619  0.5655
  471MOL0     C62079   4.374   2.562   5.066 -0.2970  0.1748 -0.3686
  471MOL0     C62080   4.268   2.610   5.168  0.3279 -0.9113 -0.5691
  471MOL0     C62081   4.129   2.559   5.128 -0.9188 -0.1853  0.5598
  471MOL0     C62082   4.058   2.666   5.045  0.4978 -0.2185  0.2947
  471MOL0     C62083   3.907   2.635   5.018  0.0864 -0.2165  0.0710
  471MOL0    Cl62084   3.798   2.626   5.171  0.3340  0.2128  0.5001
  471MOL0     C62085   4.953   2.920   5.158  0.1943  0.0210 -0.2926
  471MOL0     C62086   5.081   2.957   5.188 -0.2100  0.2607  0.4652
  471MOL0     O62087   5.328   3.124   5.143  0.4451  0.2866  0.8984
  471MOL0     C62088   5.552   3.119   5.333 -0.0011 -0.4095  1.6502
  471MOL0     C62089   5.682   3.126   5.377 -0.0497  0.2411 -0.8856
  471MOL0     N62090   6.383   3.233   5.528 -0.1486  0.5061  0.8823
  471MOL0     N62091   6.473   3.298   5.590 -0.0838 -0.6958  1.0983
  471MOL0     C62092   7.189   2.811   6.378 -0.7431 -0.7822  0.3560
  471MOL0     C62093   7.304   2.749   6.327  0.0734  0.1714 -0.8527
  471MOL0     C62094   7.709   2.590   6.234  0.4537 -0.1667  0.9164
  471MOL0     C62095   7.760   2.461   6.251  0.0049 -0.1090 -0.1050
  471MOL0     C62096   7.873   2.415   6.172  0.4177  0.5636  0.0641
  471MOL0     C62097   7.937   2.510   6.087 -0.3139  0.1042  0.6014
  471MOL0     O62098   8.047   2.481   6.010  0.4701  0.3735  0.4782
  471MOL0     C62099   8.078   2.342   5.999 -0.0568 -0.8127 -0.2254
  471MOL0     C62100   8.155   2.317   5.867  0.9215 -0.1275  0.3792
  471MOL0     C62101   8.052   2.343   5.747 -0.3180 -0.7719  0.4147
  471MOL0     C62102   8.128   2.310   5.613  0.8181  0.0483  0.0059
  471MOL0     C62103   8.024   2.303   5.501  0.1277  0.4132 -0.1189
  471MOL0     C62104   7.938   2.295   5.415 -0.7590  0.2449 -0.0541
  471MOL0     C62105   7.899   2.642   6.089 -0.1791  0.6120  0.9695
  471MOL0     C62106   7.785   2.677   6.165 -0.3819 -0.3049 -0.0373
  471MOL0     H62107   7.540   2.969   6.423  0.4740  0.0680 -0.8697
  471MOL0     H62108   7.325   3.087   6.506 -1.1567 -0.2647  1.1414
  471MOL0     H62109   7.138   3.165   6.570 -0.7197  2.2227 -0.1802
  471MOL0     H62110   6.969   3.139   6.563  0.5104 -1.0479  2.2254
  471MOL0     H62111   7.141   3.188   6.323  0.9905 -0.9492  0.6089
  471MOL0     H62112   7.043   3.316   6.405 -3.2095 -0.4036  1.4189
  471MOL0     H62113   6.840   3.213   6.359  0.8151 -1.7070  1.9304
  471MOL0     H62114   6.903   3.059   6.311 -1.1217 -0.0797  0.2005
  471MOL0     H62115   6.941   3.320   6.164  1.6597 -0.8115 -1.4676
  471MOL0     H62116   7.017   3.167   6.116 -1.6184 -2.9210 -0.9018
  471MOL0     H62117   6.707   3.187   6.148 -0.2275  1.1883 -1.6171
  471MOL0     H62118   6.817   3.066   6.080  0.6552  0.3903  1.1249
  471MOL0     H62119   6.882   3.232   5.904 -1.0038 -0.8128 -1.9633
  471MOL0     H62120   6.774   3.347   5.970 -1.1225 -0.7043  0.8491
  471MOL0     H62121   6.700   3.086   5.845 -0.4305  0.6156 -1.2203
  471MOL0     H62122   6.586   3.209   5.921  0.7045  2.6177  0.1927
  471MOL0     H62123   6.766   3.248   5.687 -0.1364  0.9828  0.4843
  471MOL0     H62124   6.652   3.370   5.752 -1.2187 -0.1510 -3.2377
  471MOL0     H62125   6.560   3.003   5.673  2.5952  0.5957 -2.2316
  471MOL0     H62126   6.257   2.959   5.564  2.2750 -1.9187  1.4185
  471MOL0     H62127   6.410   2.899   5.491  1.6065  1.1645  1.8582
  471MOL0     H62128   6.289   2.903   5.302  0.9029 -1.9279  3.9028
  471MOL0     H62129   6.374   3.046   5.286  0.3224 -0.5456 -0.5154
  471MOL0     H62130   6.147   3.155   5.399 -1.3434 -1.3861 -0.6359
  471MOL0     H62131   6.174   3.122   5.220  0.9100 -1.1430 -0.6947
  471MOL0     H62132   6.051   2.926   5.423  0.3967 -0.5047 -0.1664
  471MOL0     H62133   6.010   2.949   5.245 -0.8272  1.5579 -1.1698
  471MOL0     H62134   5.821   2.871   5.202 -1.3075 -0.8489  0.8760
  471MOL0     H62135   5.592   2.860   5.113 -0.6327 -0.2959  0.6731
  471MOL0     H62136   5.237   2.709   5.024  0.5303  0.6693 -0.0810
  471MOL0     H62137   5.010   2.648   4.965  2.3144 -1.6049  0.2891
  471MOL0     H62138   4.799   2.566   5.019 -0.0012 -0.7871 -2.9144
  471MOL0     H62139   4.780   2.670   4.889  2.7721  2.0333  1.0073
  471MOL0     H62140   4.600   2.536   4.902  0.3207 -0.9711  0.6421
  471MOL0     H62141   4.547   2.698   4.909  0.6190 -0.0636 -0.5611
  471MOL0     H62142   4.531   2.688   5.159 -1.0603  1.5601 -0.4226
  471MOL0     H62143   4.576   2.520   5.155 -0.2892 -1.6291 -1.9939
  471MOL0     H62144   4.349   2.614   4.973  2.6219 -0.8300 -1.8636
  471MOL0     H62145   4.371   2.456   5.039 -1.1970 -0.4147  1.8691
  471MOL0     H62146   4.278   2.717   5.188  1.4562 -0.8694 -1.2816
  471MOL0     H62147   4.294   2.568   5.266 -0.7269  1.3282  0.7492
  471MOL0     H62148   4.067   2.540   5.216 -1.4132 -0.0104  0.2542
  471MOL0     H62149   4.123   2.471   5.063  0.9566  0.9468 -1.2813
  471MOL0     H62150   4.053   2.761   5.100  1.5911 -0.5856  1.0700
  471MOL0     H62151   4.111   2.669   4.949  0.4383  1.0343  0.2797
  471MOL0     H62152   3.913   2.537   4.970  1.5072  0.2970 -0.8894
  471MOL0     H62153   3.868   2.709   4.947  0.4905  0.8022  0.8792
  471MOL0     H62154   4.870   2.982   5.190 -0.0424 -1.0455  1.2735
  471MOL0     H62155   5.097   3.045   5.250  1.1321 -0.3023  0.9525
  471MOL0     H62156   5.472   3.182   5.371  0.0892  0.8105 -0.0605
  471MOL0     H62157   5.712   3.191   5.458 -1.0563 -0.6394  0.2389
  471MOL0     H62158   7.090   2.768   6.368 -0.5332 -0.7170 -2.9557
  471MOL0     H62159   7.284   2.656   6.275  0.8096 -0.5206  0.0547
  471MOL0     H62160   7.711   2.387   6.314  1.4944 -0.5688  0.5536
  471MOL0     H62161   7.901   2.310   6.170  0.2792  0.5382 -0.7433
  471MOL0     H62162   7.989   2.280   5.986 -0.1693 -1.0812  1.6063
  471MOL0     H62163   8.127   2.306   6.090 -0.6472  1.1552  0.9314
  471MOL0     H62164   8.238   2.388   5.859 -1.1461  2.5318  1.2234
  471MOL0     H62165   8.182   2.211   5.873  0.2105 -0.4422 -1.3710
  471MOL0     H62166   8.028   2.449   5.737  2.4942 -0.0014  1.0482
  471MOL0     H62167   7.958   2.288   5.756 -0.4658 -1.7247 -4.3947
  471MOL0     H62168   8.194   2.395   5.594  1.9785 -0.6226  0.9629
  471MOL0     H62169   8.189   2.220   5.619  1.9034  0.8593  4.4064
  471MOL0     H62170   7.864   2.284   5.338  0.0268 -2.3516 -0.5199
  471MOL0     H62171   7.943   2.719   6.026 -2.0794 -1.1069 -2.8002
  471MOL0     H62172   7.740   2.775   6.153  4.1006  2.0737  0.4738
  472MOL0     O62173   1.226   4.507   5.937  0.0265  0.2689 -0.3664
  472MOL0     C62174   1.201   4.382   5.937 -0.9239 -0.0511 -0.1336
  472MOL0     O62175   1.100   4.322   5.996  0.0460 -0.8521  0.4351
  472MOL0     C62176   0.997   4.413   6.012  0.2324 -0.2392  0.0731
  472MOL0     C62177   0.930   4.482   5.904 -1.5367 -0.5615 -0.8314
  472MOL0     C62178   0.830   4.572   5.935  0.4607  0.8164  0.0347
  472MOL0     C62179   0.788   4.600   6.073  0.2780 -0.0239 -0.7643
  472MOL0     O62180   0.682   4.686   6.102  0.3485 -0.3636 -0.4774
  472MOL0     C62181   0.607   4.752   6.001  0.1748  0.6808  0.3000
  472MOL0     C62182   0.491   4.833   6.066 -0.3214  0.6163  0.6656
  472MOL0     C62183   0.399   4.758   6.163 -0.0867 -1.1022 -0.0001
  472MOL0     C62184   0.301   4.854   6.229  0.6613 -0.0241  0.2737
  472MOL0     C62185   0.236   4.791   6.355 -0.8964  0.1750  0.2750
  472MOL0     C62186   0.151   4.894   6.428 -0.2214 -0.1666 -0.9336
  472MOL0     C62187   0.111   4.861   6.577 -0.0185  0.0755  1.5615
  472MOL0     C62188   0.048   4.973   6.656 -0.1275  0.5351 -0.0896
  472MOL0     N62189  -0.096   4.970   6.652  0.7398 -0.7336  0.7141
  472MOL0     C62190  -0.160   4.912   6.754  0.7189  0.0024 -0.4921
  472MOL0     C62191  -0.291   4.931   6.733  1.0969 -0.4446  0.0293
  472MOL0     C62192  -0.405   4.894   6.826  0.4106 -0.1917 -0.5539
  472MOL0     C62193  -0.450   4.751   6.810 -0.6063 -0.3824  0.7164
  472MOL0     C62194  -0.557   4.745   6.696 -0.4482  0.1823 -0.2928
  472MOL0     C62195  -0.664   4.632   6.709  0.0564  0.1973  0.7331
  472MOL0     O62196  -0.755   4.664   6.815 -0.0852 -0.0369  0.0359
  472MOL0     C62197  -0.861   4.743   6.797  0.9238  0.3204 -0.1161
  472MOL0     C62198  -0.872   4.867   6.859  0.1172  0.2714 -0.0606
  472MOL0     C62199  -0.985   4.945   6.847  0.2363 -0.3896  0.0794
  472MOL0     C62200  -1.095   4.898   6.781 -0.7499 -0.3522  0.1208
  472MOL0     C62201  -1.217   4.978   6.778  0.2668 -1.0588  0.9496
  472MOL0     O62202  -1.224   5.096   6.857  0.0662  0.0725 -0.6210
  472MOL0     C62203  -1.341   5.162   6.844  0.1388 -0.2588  0.6196
  472MOL0     C62204  -1.376   5.240   6.734 -0.4273 -0.0103 -0.0221
  472MOL0     C62205  -1.497   5.308   6.712 -0.1615  0.5254 -1.2183
  472MOL0     C62206  -1.581   5.315   6.819  0.5901 -0.1556  0.1492
  472MOL0     O62207  -1.705   5.384   6.814  0.0556  0.2273  0.4327
  472MOL0     C62208  -1.781   5.409   6.696  0.3025 -0.2717 -0.0230
  472MOL0     C62209  -1.815   5.284   6.609  0.2103 -0.4299 -0.6336
  472MOL0     C62210  -1.913   5.194   6.698 -0.1842 -0.8376 -0.5518
  472MOL0     C62211  -1.886   5.049   6.671  0.7792 -0.5346  0.7768
  472MOL0     C62212  -1.747   4.994   6.716  0.4177  0.5362 -0.0121
  472MOL0     C62213  -1.745   4.842   6.705  0.5931  0.5445 -0.5566
  472MOL0     C62214  -1.635   4.778   6.794 -0.0266 -0.1411  0.3680
  472MOL0     C62215  -1.584   4.648   6.740 -0.0634 -0.0010 -0.1004
  472MOL0    Cl62216  -1.705   4.531   6.750 -0.0823  0.2324  0.3452
  472MOL0     C62217  -1.549   5.252   6.938 -0.6570 -0.7658  0.4067
  472MOL0     C62218  -1.430   5.173   6.951 -0.9234 -0.2801  0.5806
  472MOL0     O62219  -1.313   4.931   6.714 -0.2258 -0.3296 -1.0051
  472MOL0     C62220  -1.084   4.768   6.719  0.1070 -0.1590  0.4039
  472MOL0     C62221  -0.972   4.695   6.726 -0.4843 -0.0057  0.6875
  472MOL0     N62222  -0.309   4.980   6.607 -0.1656 -1.1229 -0.0096
  472MOL0     N62223  -0.196   5.016   6.560 -0.4464  0.0014  0.0764
  472MOL0     C62224   0.844   4.525   6.178  0.5118  0.4098  0.1358
  472MOL0     C62225   0.953   4.433   6.144 -0.0435 -0.3014  0.0505
  472MOL0     C62226   1.300   4.297   5.865 -0.1243  1.4310 -0.0560
  472MOL0     C62227   1.434   4.339   5.820 -0.4741  0.2001  0.2561
  472MOL0     C62228   1.514   4.259   5.735  0.1932 -0.6738  1.0715
  472MOL0     C62229   1.478   4.128   5.705 -0.6801  0.2242 -0.5833
  472MOL0     O62230   1.578   4.055   5.646 -0.1609  0.7838  0.2048
  472MOL0     C62231   1.554   3.913   5.634 -0.7008 -0.2317  0.6617
  472MOL0     C62232   1.687   3.843   5.624  0.1315 -0.7453 -0.6941
  472MOL0     C62233   1.668   3.688   5.613 -0.4104  0.4172 -0.0963
  472MOL0     C62234   1.611   3.638   5.740  0.7021  0.6769  0.0960
  472MOL0     C62235   1.465   3.622   5.734  0.3818 -0.4788 -0.7333
  472MOL0     C62236   1.340   3.594   5.724 -0.3803  0.1370  0.0864
  472MOL0     C62237   1.344   4.084   5.740 -0.0037  0.0899 -0.2289
  472MOL0     C62238   1.262   4.167   5.819 -1.3225 -0.0138  0.3015
  472MOL0     H62239   0.966   4.457   5.805  4.8384 -0.6256  1.0482
  472MOL0     H62240   0.790   4.625   5.848 -1.7895  3.4040  2.4342
  472MOL0     H62241   0.567   4.675   5.934 -1.9539  0.5893  1.5960
  472MOL0     H62242   0.670   4.822   5.946 -0.6431  2.3198  1.3603
  472MOL0     H62243   0.435   4.879   5.984  0.4610 -0.7565 -0.6972
  472MOL0     H62244   0.536   4.910   6.129  0.6582  0.7720 -0.2074
  472MOL0     H62245   0.460   4.711   6.241  0.2126  0.5915  0.8155
  472MOL0     H62246   0.351   4.676   6.108  0.4338  0.6909 -3.3663
  472MOL0     H62247   0.361   4.943   6.254  2.8730 -1.7722  1.6265
  472MOL0     H62248   0.222   4.878   6.158  1.7537  0.3535 -0.8571
  472MOL0     H62249   0.319   4.762   6.421 -1.9019 -1.6485  0.8034
  472MOL0     H62250   0.177   4.703   6.329 -1.3717 -0.0564  1.9722
  472MOL0     H62251   0.058   4.913   6.374 -1.5093  4.5131  2.3602
  472MOL0     H62252   0.206   4.989   6.435  0.9715 -0.8273 -1.0777
  472MOL0     H62253   0.031   4.787   6.575  0.1377 -0.0753  0.7517
  472MOL0     H62254   0.204   4.828   6.623  0.5043 -0.2868  0.2950
  472MOL0     H62255   0.083   5.071   6.624  1.5185  0.0524  0.1314
  472MOL0     H62256   0.064   4.971   6.764 -0.9489  0.6908  0.0469
  472MOL0     H62257  -0.112   4.880   6.846  1.2253  1.0863 -0.3646
  472MOL0     H62258  -0.487   4.965   6.809  0.3572  0.2022  1.1607
  472MOL0     H62259  -0.374   4.895   6.931  2.0040 -1.4338 -0.9759
  472MOL0     H62260  -0.499   4.725   6.904 -1.9115 -0.8539 -0.0493
  472MOL0     H62261  -0.367   4.683   6.788  0.1577  1.3507 -2.4782
  472MOL0     H62262  -0.610   4.840   6.687 -0.7568  0.2053  1.4908
  472MOL0     H62263  -0.486   4.731   6.613  2.8467 -1.8323  2.5764
  472MOL0     H62264  -0.626   4.535   6.745 -0.9483  0.2624  2.0459
  472MOL0     H62265  -0.702   4.624   6.607  5.7192 -3.2977 -1.6643
  472MOL0     H62266  -0.789   4.905   6.918  1.9036 -2.6476 -0.5000
  472MOL0     H62267  -0.970   5.038   6.901  1.7329 -1.1096  0.9793
  472MOL0     H62268  -1.299   5.248   6.659  0.7829  1.1029  1.2813
  472MOL0     H62269  -1.510   5.356   6.615 -0.7205  1.8901 -0.5005
  472MOL0     H62270  -1.714   5.473   6.638 -0.3674  0.2988 -0.1763
  472MOL0     H62271  -1.863   5.477   6.718  0.8434  0.5933 -0.6095
  472MOL0     H62272  -1.724   5.232   6.577  4.8657  3.2638  4.6443
  472MOL0     H62273  -1.870   5.317   6.521  1.9212  1.3104 -1.1222
  472MOL0     H62274  -2.018   5.219   6.682 -0.8283 -1.2792  2.4518
  472MOL0     H62275  -1.897   5.203   6.805 -1.9675  1.6322 -0.4066
  472MOL0     H62276  -1.966   4.990   6.717  0.2439 -0.8716 -0.5370
  472MOL0     H62277  -1.901   5.032   6.564  1.7312 -0.7601  0.6734
  472MOL0     H62278  -1.750   5.027   6.821 -0.2111  1.6499 -0.3649
  472MOL0     H62279  -1.665   5.049   6.670  1.8573 -0.0150  1.7560
  472MOL0     H62280  -1.736   4.813   6.600 -1.2133 -1.2179 -0.2595
  472MOL0     H62281  -1.841   4.799   6.732  1.6078 -2.6859 -1.6636
  472MOL0     H62282  -1.553   4.850   6.806  1.4636 -1.8628  1.1735
  472MOL0     H62283  -1.667   4.751   6.895  3.8461 -2.5804  1.1686
  472MOL0     H62284  -1.500   4.614   6.801  0.5204  0.0540 -0.8567
  472MOL0     H62285  -1.525   4.648   6.648 -0.1500 -2.4248 -0.2144
  472MOL0     H62286  -1.606   5.273   7.028 -0.7078 -0.6698  0.3526
  472MOL0     H62287  -1.399   5.122   7.043 -0.8153 -2.4098 -0.5722
  472MOL0     H62288  -1.169   4.731   6.662  1.1940 -0.0802 -1.3521
  472MOL0     H62289  -0.952   4.593   6.696  0.2747  0.2092  0.4500
  472MOL0     H62290   0.814   4.527   6.282 -0.2121  0.0384 -0.0551
  472MOL0     H62291   1.005   4.378   6.222  2.6738  0.5828 -1.0056
  472MOL0     H62292   1.469   4.437   5.849 -2.3749  0.6296  1.2751
  472MOL0     H62293   1.599   4.292   5.676  0.0009 -1.3910  0.3802
  472MOL0     H62294   1.489   3.888   5.549 -0.5218 -4.0054  1.4606
  472MOL0     H62295   1.511   3.881   5.729 -2.1883 -1.4408 -0.3580
  472MOL0     H62296   1.735   3.879   5.532 -1.5970  0.3942 -1.1986
  472MOL0     H62297   1.744   3.864   5.714 -1.6020 -4.0311  1.3651
  472MOL0     H62298   1.769   3.648   5.612 -0.6229 -0.1470 -1.6398
  472MOL0     H62299   1.612   3.652   5.526 -0.7256  0.7306 -0.0260
  472MOL0     H62300   1.665   3.545   5.759  0.5105  0.2721 -1.1999
  472MOL0     H62301   1.625   3.699   5.829 -2.2899  0.5098  0.7949
  472MOL0     H62302   1.236   3.569   5.720 -1.1066  2.7290  0.8146
  472MOL0     H62303   1.308   3.986   5.712  3.0073 -1.8899  2.1551
  472MOL0     H62304   1.162   4.139   5.852 -0.8028 -2.5786 -0.0744
  473MOL0     O62305  10.736   2.062   4.142 -0.0856  0.4398  0.3548
  473MOL0     C62306  10.726   2.036   4.264  0.4074 -0.6416 -0.4934
  473MOL0     O62307  10.829   2.053   4.355 -0.1572  1.0348  0.0455
  473MOL0     C62308  10.937   2.125   4.317 -0.0861 -0.1379 -0.3628
  473MOL0     C62309  10.945   2.261   4.352  0.6478 -0.6322  0.3318
  473MOL0     C62310  11.060   2.335   4.344 -0.0290 -0.0577  0.0055
  473MOL0     C62311  11.174   2.275   4.277 -0.4353  0.5717  0.1133
  473MOL0     O62312  11.290   2.348   4.260  0.2165  0.0606  0.5041
  473MOL0     C62313  11.309   2.482   4.313 -0.3453  0.8684 -0.2954
  473MOL0     C62314  11.422   2.544   4.252 -1.0022 -0.2323  0.8268
  473MOL0     C62315  11.461   2.671   4.326 -0.3355 -0.6887  0.3010
  473MOL0     C62316  11.505   2.663   4.473  0.0056  0.2303 -0.0709
  473MOL0     C62317  11.575   2.787   4.536 -0.1044  0.2863 -0.9316
  473MOL0     C62318  11.595   2.765   4.689  0.0226 -0.6053 -0.3909
  473MOL0     C62319  11.636   2.879   4.779 -0.0337 -0.2355  0.1942
  473MOL0     C62320  11.610   2.859   4.926 -0.3419  0.5461 -0.0614
  473MOL0     N62321  11.465   2.860   4.952  0.2849  0.0775 -0.6356
  473MOL0     C62322  11.387   2.748   4.964 -0.4915  0.4006 -0.2739
  473MOL0     C62323  11.267   2.800   5.009 -0.1182 -0.4019 -0.6029
  473MOL0     C62324  11.147   2.722   5.060 -0.2308  0.5430  0.2569
  473MOL0     C62325  11.024   2.791   5.006  0.1986  0.5251 -0.1359
  473MOL0     C62326  10.891   2.728   5.074 -0.5655  0.1012  0.0398
  473MOL0     C62327  10.759   2.805   5.052 -0.4853 -0.1248 -0.4512
  473MOL0     O62328  10.726   2.818   4.915 -0.0756 -0.1309 -0.4504
  473MOL0     C62329  10.595   2.828   4.883  0.6691 -0.0829  0.0205
  473MOL0     C62330  10.566   2.828   4.746  0.2333  0.4416  0.2252
  473MOL0     C62331  10.433   2.847   4.696  0.4109 -0.9689  0.7903
  473MOL0     C62332  10.334   2.877   4.785 -0.2207  0.3474  0.2100
  473MOL0     C62333  10.192   2.904   4.739 -0.6048 -0.3073 -0.1599
  473MOL0     O62334  10.096   2.895   4.835 -0.1752 -0.3056  0.2759
  473MOL0     C62335   9.969   2.926   4.815  0.9435 -0.8909  0.4728
  473MOL0     C62336   9.875   2.824   4.801  0.4191  0.0800 -0.3198
  473MOL0     C62337   9.736   2.843   4.794 -0.0983 -0.7789  1.0148
  473MOL0     C62338   9.688   2.979   4.783  0.0816  0.6816  0.5500
  473MOL0     O62339   9.557   2.985   4.761  0.0446 -0.4721 -0.2402
  473MOL0     C62340   9.494   3.108   4.771  0.3262 -0.4328 -0.0845
  473MOL0     C62341   9.348   3.068   4.743 -0.4663  0.4364  0.3339
  473MOL0     C62342   9.264   3.190   4.762 -0.0001 -0.5508 -0.0584
  473MOL0     C62343   9.122   3.156   4.766  0.1500  0.6675 -0.2649
  473MOL0     C62344   9.036   3.254   4.849 -0.3031 -0.4092 -0.5743
  473MOL0     C62345   9.008   3.378   4.774  0.1814  0.3896 -1.3910
  473MOL0     C62346   8.933   3.478   4.866  0.5176  0.3198  0.5378
  473MOL0     C62347   8.939   3.621   4.812  0.2550 -0.0527  0.2394
  473MOL0    Cl62348   8.841   3.651   4.660  0.2496  0.5358 -0.1641
  473MOL0     C62349   9.778   3.083   4.803 -0.2093  0.7100 -0.5290
  473MOL0     C62350   9.920   3.056   4.812 -0.2118 -0.3196  0.2621
  473MOL0     O62351  10.173   2.927   4.621 -0.4211  0.3840  0.1366
  473MOL0     C62352  10.363   2.878   4.922  0.1654  0.4267  0.2850
  473MOL0     C62353  10.490   2.846   4.974  0.5140 -0.5013 -0.1714
  473MOL0     N62354  11.277   2.937   5.026  0.3634 -0.0773  0.8885
  473MOL0     N62355  11.400   2.976   4.990  0.5562 -0.6354 -0.2406
  473MOL0     C62356  11.171   2.140   4.242 -0.2793 -0.8880  0.3085
  473MOL0     C62357  11.053   2.069   4.265 -0.5839  0.3648 -0.0693
  473MOL0     C62358  10.598   1.999   4.313 -0.3969  0.5918  0.1724
  473MOL0     C62359  10.492   1.965   4.230 -0.3663 -0.0431  0.1340
  473MOL0     C62360  10.370   1.926   4.286  0.6913 -0.0065  0.6239
  473MOL0     C62361  10.358   1.907   4.424  0.6992 -0.5391  0.1752
  473MOL0     O62362  10.243   1.891   4.493 -0.2862 -0.1406  0.2015
  473MOL0     C62363  10.143   1.811   4.429  0.0997  0.3600  0.1824
  473MOL0     C62364  10.046   1.906   4.373  0.8008  0.1182  0.8026
  473MOL0     C62365   9.930   1.923   4.471 -0.2495  0.3849  0.4792
  473MOL0     C62366   9.820   2.014   4.399  0.0289  0.6055 -0.1024
  473MOL0     C62367   9.707   2.015   4.485  0.4270 -0.2914 -0.2050
  473MOL0     C62368   9.621   2.005   4.571 -0.0574 -0.1554 -0.7317
  473MOL0     C62369  10.455   1.953   4.506 -0.6253 -0.0266  0.7180
  473MOL0     C62370  10.578   1.996   4.453 -0.1416  0.3680 -0.0900
  473MOL0     H62371  10.852   2.302   4.391 -0.0218 -0.6478 -1.2002
  473MOL0     H62372  11.058   2.433   4.391 -1.1551 -0.3925  0.7047
  473MOL0     H62373  11.298   2.486   4.422 -2.3304 -1.0872 -0.3618
  473MOL0     H62374  11.232   2.551   4.277  0.3203  0.5386 -2.4868
  473MOL0     H62375  11.387   2.562   4.150  1.1130  0.4480  0.1604
  473MOL0     H62376  11.512   2.483   4.259  2.4786  4.4141  1.4884
  473MOL0     H62377  11.383   2.744   4.303 -0.6336 -0.6026  1.5180
  473MOL0     H62378  11.554   2.705   4.281 -1.9248  2.5832 -0.8044
  473MOL0     H62379  11.410   2.648   4.526  0.8035 -1.9746  0.8677
  473MOL0     H62380  11.559   2.570   4.496 -0.6495  0.4826  2.8415
  473MOL0     H62381  11.513   2.876   4.522  1.6325  1.6179 -0.3947
  473MOL0     H62382  11.673   2.817   4.501  0.4062  1.4161  1.2651
  473MOL0     H62383  11.659   2.676   4.701 -1.5531 -1.6221  0.9262
  473MOL0     H62384  11.495   2.740   4.725  0.2427 -0.1329  0.5709
  473MOL0     H62385  11.740   2.909   4.767  0.0372 -0.4017  0.3768
  473MOL0     H62386  11.581   2.971   4.759 -0.2353 -0.1392  1.1594
  473MOL0     H62387  11.658   2.943   4.977 -0.2718  0.9384 -0.7609
  473MOL0     H62388  11.661   2.768   4.959 -2.7057 -0.8949 -0.1822
  473MOL0     H62389  11.410   2.644   4.943  2.4939  1.1833 -1.3502
  473MOL0     H62390  11.146   2.732   5.169 -2.1776 -2.1751  0.6039
  473MOL0     H62391  11.145   2.615   5.037 -1.8700  0.1965  1.7973
  473MOL0     H62392  11.021   2.778   4.898 -0.5670  1.9765 -0.3163
  473MOL0     H62393  11.020   2.895   5.040 -3.2513 -0.1188  1.8583
  473MOL0     H62394  10.881   2.623   5.043  1.5265  0.3705 -1.7870
  473MOL0     H62395  10.903   2.723   5.183  1.5753  0.4470 -0.1379
  473MOL0     H62396  10.775   2.906   5.091 -0.4165 -0.9839  1.8976
  473MOL0     H62397  10.677   2.757   5.106 -1.5591 -1.7404 -3.2834
  473MOL0     H62398  10.648   2.807   4.677 -1.6162 -2.8622 -1.2096
  473MOL0     H62399  10.415   2.845   4.589 -0.5366 -0.4782  0.9314
  473MOL0     H62400   9.901   2.719   4.796  0.0218  0.0279 -1.8240
  473MOL0     H62401   9.674   2.754   4.786 -1.7600  0.3542  0.6703
  473MOL0     H62402   9.521   3.186   4.700 -2.2816  1.3549  0.7553
  473MOL0     H62403   9.498   3.145   4.874 -1.8457  1.3791 -0.5961
  473MOL0     H62404   9.323   2.988   4.813  1.0088  0.1502  0.5668
  473MOL0     H62405   9.338   3.034   4.640  1.0923 -2.0031  0.9150
  473MOL0     H62406   9.289   3.268   4.688 -0.4370 -1.6936 -1.4660
  473MOL0     H62407   9.288   3.243   4.854 -1.0457 -3.2456  1.8859
  473MOL0     H62408   9.085   3.155   4.663  2.7013  2.1711 -1.2863
  473MOL0     H62409   9.107   3.057   4.809 -0.4007  0.3981 -1.0621
  473MOL0     H62410   9.089   3.286   4.939  1.1957  2.9497 -2.4697
  473MOL0     H62411   8.940   3.208   4.875 -1.6778  1.3130 -2.3096
  473MOL0     H62412   8.941   3.358   4.690 -0.6935 -1.8734 -0.2385
  473MOL0     H62413   9.101   3.427   4.746 -0.0168  1.8594  0.3139
  473MOL0     H62414   8.826   3.463   4.882  0.4391  1.4971  1.2718
  473MOL0     H62415   8.971   3.471   4.968  0.7754 -2.2908  0.3304
  473MOL0     H62416   9.042   3.653   4.792  1.4912 -3.5325  0.4109
  473MOL0     H62417   8.911   3.693   4.889 -0.2765  0.7854 -0.7107
  473MOL0     H62418   9.740   3.185   4.810  1.2746  1.2491  0.1971
  473MOL0     H62419   9.993   3.134   4.833  2.5229 -2.2068 -1.5215
  473MOL0     H62420  10.284   2.904   4.991  0.3531  2.0531 -0.0575
  473MOL0     H62421  10.506   2.855   5.081  1.3663  0.8311 -0.3831
  473MOL0     H62422  11.266   2.106   4.203  0.2550  1.8878 -1.0149
  473MOL0     H62423  11.038   1.971   4.221  0.4220  0.2616 -0.1946
  473MOL0     H62424  10.516   1.966   4.125 -0.3400  0.7112  0.1415
  473MOL0     H62425  10.292   1.896   4.217  1.7036  1.4492 -1.2698
  473MOL0     H62426  10.098   1.743   4.502  1.2507  0.8294  1.3802
  473MOL0     H62427  10.190   1.738   4.363  0.3540 -0.2954  1.0603
  473MOL0     H62428  10.087   2.006   4.356  0.5974  0.3136  1.4460
  473MOL0     H62429  10.000   1.878   4.278  0.1808  2.4294  0.3546
  473MOL0     H62430   9.963   1.952   4.571 -0.5406  3.3584 -0.2060
  473MOL0     H62431   9.887   1.823   4.485  0.4537  0.1950  1.3581
  473MOL0     H62432   9.848   2.118   4.384  2.1447  0.1594  0.3850
  473MOL0     H62433   9.801   1.967   4.302  1.3924  0.0755 -0.1366
  473MOL0     H62434   9.564   1.997   4.661  1.6067  0.5183  0.4294
  473MOL0     H62435  10.450   1.951   4.614  1.8318  0.8901  0.9063
  473MOL0     H62436  10.657   2.030   4.520  1.7554 -0.5117 -1.7651
  474MOL0     O62437   1.522   9.769   3.866  0.1135 -0.0045 -0.3683
  474MOL0     C62438   1.499   9.658   3.819 -0.6262 -0.3530 -0.1367
  474MOL0     O62439   1.378   9.609   3.791  0.2748 -0.3076 -0.1460
  474MOL0     C62440   1.258   9.681   3.807  0.4831 -0.4856  0.0278
  474MOL0     C62441   1.248   9.818   3.788  0.2526 -0.3398 -0.5049
  474MOL0     C62442   1.133   9.887   3.814 -0.3124 -0.0390 -0.0385
  474MOL0     C62443   1.016   9.821   3.847 -0.6808  0.9159  0.8764
  474MOL0     O62444   0.910   9.908   3.871 -0.3703 -0.0103  0.2892
  474MOL0     C62445   0.775   9.853   3.883 -0.5141 -0.7911 -0.3843
  474MOL0     C62446   0.673   9.954   3.933  0.0358 -0.2184 -0.7420
  474MOL0     C62447   0.527   9.904   3.924 -0.2434 -0.1116 -0.5779
  474MOL0     C62448   0.429   9.985   4.008  0.1020  0.9826 -0.3656
  474MOL0     C62449   0.285   9.922   4.032 -0.1021 -0.1563 -0.0889
  474MOL0     C62450   0.229   9.971   4.164  0.1971 -0.4344 -0.7002
  474MOL0     C62451   0.087   9.926   4.199  0.3157  0.0831 -0.1702
  474MOL0     C62452  -0.011   9.965   4.085  0.5557  0.2591  0.3251
  474MOL0     N62453  -0.152   9.941   4.121  0.0998 -0.9577 -0.5126
  474MOL0     C62454  -0.210   9.814   4.103 -0.6836 -0.5999 -0.3091
  474MOL0     C62455  -0.342   9.844   4.141 -0.1704 -0.7958 -0.5465
  474MOL0     C62456  -0.463   9.757   4.168  0.1087 -0.5431  0.7519
  474MOL0     C62457  -0.440   9.677   4.299  0.1818  0.2329  0.7423
  474MOL0     C62458  -0.449   9.766   4.418  0.3061  0.5486 -0.3813
  474MOL0     C62459  -0.580   9.839   4.433  1.8364  0.9669  0.8038
  474MOL0     O62460  -0.687   9.739   4.437  0.4501 -0.0270 -0.1749
  474MOL0     C62461  -0.823   9.780   4.461 -1.4422 -0.0136 -0.2368
  474MOL0     C62462  -0.917   9.686   4.453 -0.4818 -0.4607 -0.5637
  474MOL0     C62463  -1.045   9.716   4.484  0.9114 -0.4142  0.7715
  474MOL0     C62464  -1.090   9.845   4.497 -1.0862  0.5124  0.0616
  474MOL0     C62465  -1.232   9.867   4.519  0.2041 -0.0760  0.0010
  474MOL0     O62466  -1.323   9.761   4.490 -1.0855 -0.2085 -0.0278
  474MOL0     C62467  -1.450   9.775   4.525  0.3539  0.0353 -0.0909
  474MOL0     C62468  -1.539   9.750   4.422 -0.4756 -0.1019 -0.7795
  474MOL0     C62469  -1.673   9.746   4.447  0.2261  0.0266 -0.3580
  474MOL0     C62470  -1.728   9.774   4.575 -1.3844 -0.4495 -0.6675
  474MOL0     O62471  -1.860   9.768   4.607  0.4392 -0.7326 -0.2882
  474MOL0     C62472  -1.951   9.811   4.505  0.0133 -0.1093  0.0823
  474MOL0     C62473  -2.094   9.835   4.571 -0.9680 -0.0593  0.9645
  474MOL0     C62474  -2.143   9.712   4.650  0.5013  0.2559  0.5879
  474MOL0     C62475  -2.287   9.735   4.704  1.0173  0.2521 -0.3509
  474MOL0     C62476  -2.304   9.636   4.828 -0.5527 -0.8909 -0.1334
  474MOL0     C62477  -2.457   9.623   4.854  0.2011 -0.5889  0.1519
  474MOL0     C62478  -2.473   9.502   4.945 -0.1137  0.0932 -0.4242
  474MOL0     C62479  -2.621   9.500   5.008 -0.0610  0.4093  0.4912
  474MOL0    Cl62480  -2.714   9.659   4.994  0.3295 -0.6890 -0.2940
  474MOL0     C62481  -1.635   9.796   4.684  0.0473 -0.3180  0.5810
  474MOL0     C62482  -1.501   9.787   4.652  0.0606 -0.5949 -0.8029
  474MOL0     O62483  -1.266   9.977   4.561 -0.8273  0.2539  0.7662
  474MOL0     C62484  -0.992   9.944   4.502  0.3619  0.3581  0.8752
  474MOL0     C62485  -0.858   9.909   4.486 -0.4483 -0.2951  0.4829
  474MOL0     N62486  -0.354   9.982   4.165  0.1643  0.1540 -0.4833
  474MOL0     N62487  -0.246  10.038   4.146  0.2099 -0.4063  0.3614
  474MOL0     C62488   1.014   9.680   3.860 -0.6454  0.5977 -0.5254
  474MOL0     C62489   1.140   9.606   3.839 -0.5812 -0.4124 -0.1230
  474MOL0     C62490   1.614   9.560   3.792 -0.4235 -0.1882  0.0561
  474MOL0     C62491   1.748   9.596   3.818 -0.8389  0.0868 -0.3923
  474MOL0     C62492   1.860   9.513   3.789 -0.0394  0.7384  0.2013
  474MOL0     C62493   1.832   9.388   3.735  0.0068  0.2881 -0.5036
  474MOL0     O62494   1.924   9.286   3.722 -0.4522  0.5200 -0.2277
  474MOL0     C62495   2.061   9.307   3.758 -0.0225  0.0576  0.4406
  474MOL0     C62496   2.151   9.183   3.728  0.0315 -0.1770 -0.5199
  474MOL0     C62497   2.131   9.114   3.593 -0.1234 -0.7676 -0.7219
  474MOL0     C62498   2.235   9.001   3.591 -0.5563  0.1920  0.3057
  474MOL0     C62499   2.223   8.952   3.448  1.0514  0.3737 -1.1948
  474MOL0     C62500   2.230   8.921   3.334 -0.0879 -0.1872 -0.1809
  474MOL0     C62501   1.698   9.353   3.706 -0.4171 -0.5232  0.4711
  474MOL0     C62502   1.593   9.440   3.726  0.8716  0.3196  0.2044
  474MOL0     H62503   1.334   9.884   3.777  0.3610  0.1616  2.5604
  474MOL0     H62504   1.133   9.995   3.801 -3.5238 -0.3013 -4.1985
  474MOL0     H62505   0.776   9.778   3.962 -1.5839 -1.0088 -0.5716
  474MOL0     H62506   0.764   9.810   3.784  2.1051 -2.5656 -0.0053
  474MOL0     H62507   0.686  10.045   3.874  2.7958  1.3331  1.9791
  474MOL0     H62508   0.685   9.980   4.039 -2.3868 -0.6446 -0.3007
  474MOL0     H62509   0.536   9.813   3.983  1.0276 -1.1916 -2.3349
  474MOL0     H62510   0.489   9.870   3.827 -3.5400  1.1778  0.1157
  474MOL0     H62511   0.479  10.008   4.103 -1.0468  0.2369  0.4480
  474MOL0     H62512   0.420  10.083   3.960 -1.9129  1.3996  0.7652
  474MOL0     H62513   0.288   9.813   4.036  0.7813 -0.1022  2.0479
  474MOL0     H62514   0.229   9.957   3.945  1.6475  3.1638 -0.0836
  474MOL0     H62515   0.249  10.078   4.175 -1.7949  0.0691 -1.5977
  474MOL0     H62516   0.297   9.923   4.235 -0.5497  0.9339  1.0097
  474MOL0     H62517   0.085   9.818   4.214 -2.1583  0.2289  1.0399
  474MOL0     H62518   0.060   9.961   4.299 -0.5083 -2.9077  0.7394
  474MOL0     H62519   0.014   9.894   4.005  0.1070 -1.7211  1.8498
  474MOL0     H62520   0.006  10.069   4.055  0.4604  0.6058  1.4319
  474MOL0     H62521  -0.182   9.716   4.067 -2.3935 -1.3864  0.3688
  474MOL0     H62522  -0.477   9.695   4.079  0.7696  3.7315 -2.6395
  474MOL0     H62523  -0.556   9.814   4.169 -0.5369 -1.3948 -2.3109
  474MOL0     H62524  -0.342   9.629   4.297 -0.7328 -1.7288 -0.9362
  474MOL0     H62525  -0.512   9.595   4.299  1.0466 -0.6078  2.9812
  474MOL0     H62526  -0.430   9.704   4.506 -0.7514 -1.3323 -1.4188
  474MOL0     H62527  -0.366   9.837   4.424  1.5453 -0.9747  2.0787
  474MOL0     H62528  -0.595   9.911   4.352  1.2666 -1.7784 -1.7132
  474MOL0     H62529  -0.586   9.887   4.531  1.3055  1.2004  0.6597
  474MOL0     H62530  -0.866   9.591   4.444  0.2459 -0.3768  1.8104
  474MOL0     H62531  -1.109   9.632   4.508 -0.6148  0.1729 -1.0410
  474MOL0     H62532  -1.503   9.740   4.320  0.6012  0.9327 -0.5241
  474MOL0     H62533  -1.730   9.726   4.357  2.0440  2.0176 -2.0655
  474MOL0     H62534  -1.962   9.730   4.433 -0.8619  0.5114 -0.5109
  474MOL0     H62535  -1.921   9.907   4.463 -1.0784  1.2834  2.2900
  474MOL0     H62536  -2.167   9.853   4.492  1.5745  0.5948 -1.4233
  474MOL0     H62537  -2.080   9.912   4.648  0.8117  0.6189  0.0403
  474MOL0     H62538  -2.081   9.700   4.739  4.2737  4.2022 -1.1432
  474MOL0     H62539  -2.138   9.618   4.595  0.0576  0.3899  0.3130
  474MOL0     H62540  -2.310   9.840   4.723  0.7568  0.1376 -0.0010
  474MOL0     H62541  -2.352   9.710   4.620  0.0119  0.6555  0.2872
  474MOL0     H62542  -2.261   9.686   4.915  0.6462 -0.4886 -0.9324
  474MOL0     H62543  -2.257   9.539   4.810  0.0286 -0.4980 -0.8038
  474MOL0     H62544  -2.520   9.607   4.766 -0.9867 -0.1450  0.9012
  474MOL0     H62545  -2.494   9.716   4.899  2.3735  0.4406 -0.0634
  474MOL0     H62546  -2.443   9.408   4.898  2.8826  1.6916 -2.0567
  474MOL0     H62547  -2.404   9.516   5.029 -2.7235 -0.0707  1.9012
  474MOL0     H62548  -2.619   9.479   5.116  2.8247  2.7781  1.0484
  474MOL0     H62549  -2.684   9.429   4.955 -0.0997 -0.7299  1.9957
  474MOL0     H62550  -1.670   9.796   4.787 -0.0875 -1.1401  0.5458
  474MOL0     H62551  -1.440   9.802   4.741 -0.7987 -0.7223 -0.1774
  474MOL0     H62552  -1.013  10.048   4.526  2.0693  0.8829  0.2461
  474MOL0     H62553  -0.787   9.991   4.492 -3.1911  2.7956 -3.5694
  474MOL0     H62554   0.921   9.629   3.883 -1.0362 -0.6364 -4.1287
  474MOL0     H62555   1.142   9.497   3.841 -2.6564 -0.6131 -2.8964
  474MOL0     H62556   1.779   9.685   3.873 -1.2864 -0.3036  0.5191
  474MOL0     H62557   1.955   9.551   3.823 -0.0584  2.5821 -1.6081
  474MOL0     H62558   2.067   9.334   3.864 -0.8503  2.2248 -0.0066
  474MOL0     H62559   2.106   9.384   3.696 -0.9308 -0.8728 -1.4377
  474MOL0     H62560   2.256   9.207   3.748 -0.0761 -1.1461  1.3650
  474MOL0     H62561   2.139   9.109   3.807  1.3677  1.0363  0.8709
  474MOL0     H62562   2.134   9.194   3.518 -1.2651  1.3456  1.3269
  474MOL0     H62563   2.030   9.070   3.593 -1.7492  2.5746  0.6642
  474MOL0     H62564   2.339   9.022   3.615  0.5133 -3.4468 -0.6411
  474MOL0     H62565   2.198   8.925   3.660 -1.0340 -1.0922 -1.3060
  474MOL0     H62566   2.256   8.891   3.235 -0.3387  0.5513 -0.4770
  474MOL0     H62567   1.679   9.258   3.656  1.1233 -1.4283  1.5115
  474MOL0     H62568   1.497   9.392   3.710  0.2868  1.0227  1.4348
  475MOL0     O62569  10.750   7.993   5.005  0.6750  0.4199 -0.0397
  475MOL0     C62570  10.810   8.060   5.084  0.0167 -0.6258 -0.9656
  475MOL0     O62571  10.754   8.139   5.180 -0.0997  0.4190  0.2068
  475MOL0     C62572  10.625   8.104   5.216 -0.8169 -0.1766 -0.4415
  475MOL0     C62573  10.592   7.989   5.288  1.1567  0.3009 -0.8350
  475MOL0     C62574  10.457   7.966   5.328 -0.4772  0.1391 -0.5930
  475MOL0     C62575  10.353   8.048   5.284  0.0156 -0.4598 -0.2808
  475MOL0     O62576  10.223   8.014   5.317 -0.1628 -0.6378 -0.4526
  475MOL0     C62577  10.126   8.035   5.216  0.0954  0.0486  0.0187
  475MOL0     C62578   9.999   7.960   5.279 -0.6592 -0.3938 -0.3980
  475MOL0     C62579   9.884   7.936   5.174 -0.3077  0.2415 -0.0111
  475MOL0     C62580   9.757   7.878   5.230 -0.0189  0.2946  0.1885
  475MOL0     C62581   9.635   7.906   5.136  0.0862  0.0545 -0.2882
  475MOL0     C62582   9.579   8.048   5.151 -0.1904 -0.1758 -0.4820
  475MOL0     C62583   9.526   8.077   5.295  0.0243 -0.2254  0.2703
  475MOL0     C62584   9.494   8.221   5.303 -0.2428 -0.5020 -0.2358
  475MOL0     N62585   9.407   8.237   5.419 -0.1978 -0.1572  0.6707
  475MOL0     C62586   9.284   8.193   5.428 -0.2739  0.0949 -0.7345
  475MOL0     C62587   9.253   8.234   5.550 -0.4314 -0.2384 -0.2341
  475MOL0     C62588   9.122   8.194   5.611  0.1555  0.6433  0.8155
  475MOL0     C62589   9.014   8.296   5.615  0.0748 -0.3341 -0.0721
  475MOL0     C62590   8.899   8.224   5.684 -0.2941  1.2203  0.3792
  475MOL0     C62591   8.778   8.305   5.708 -0.5218 -0.1272  0.1364
  475MOL0     O62592   8.684   8.217   5.766 -0.3410  0.5854 -0.4673
  475MOL0     C62593   8.547   8.241   5.744  0.3411  1.0600 -0.3912
  475MOL0     C62594   8.451   8.148   5.800  0.6548 -0.4994  0.1310
  475MOL0     C62595   8.313   8.188   5.808 -0.4229  0.7071 -0.2373
  475MOL0     C62596   8.267   8.314   5.769  0.7465 -1.3805  0.9113
  475MOL0     C62597   8.126   8.352   5.792  0.0023  0.2412  0.1020
  475MOL0     O62598   8.054   8.261   5.881 -0.5709 -0.9354  0.4785
  475MOL0     C62599   7.933   8.298   5.933  0.2660 -0.1600 -0.0188
  475MOL0     C62600   7.921   8.342   6.060  0.3213  0.2540  0.1662
  475MOL0     C62601   7.798   8.385   6.106  0.3522 -0.4435  0.0891
  475MOL0     C62602   7.686   8.393   6.019 -0.3168 -0.1273 -0.2026
  475MOL0     O62603   7.563   8.435   6.050 -0.4370  0.2299  0.0580
  475MOL0     C62604   7.537   8.488   6.180  0.4408 -0.2982 -0.5209
  475MOL0     C62605   7.393   8.540   6.175  0.0896 -0.3911 -0.3362
  475MOL0     C62606   7.290   8.439   6.123 -0.6003  0.1940  0.8694
  475MOL0     C62607   7.153   8.500   6.096 -1.7016 -0.3623  0.4286
  475MOL0     C62608   7.048   8.390   6.068  0.0664  0.1035  0.3456
  475MOL0     C62609   6.911   8.453   6.023 -0.2919 -0.2674 -0.0770
  475MOL0     C62610   6.790   8.351   6.020 -0.1443  0.4911  0.3543
  475MOL0     C62611   6.676   8.414   5.941  0.1203  0.2466  0.2375
  475MOL0    Cl62612   6.589   8.556   6.025 -0.2004 -0.5542  0.5622
  475MOL0     C62613   7.704   8.350   5.879  0.5068 -0.0923 -0.0922
  475MOL0     C62614   7.824   8.306   5.841  0.3315  0.1639 -0.9265
  475MOL0     O62615   8.080   8.447   5.738  0.1111 -0.2513 -0.0678
  475MOL0     C62616   8.366   8.404   5.722  0.1168  0.9991  1.0172
  475MOL0     C62617   8.499   8.370   5.711  0.8967  0.1238  0.2940
  475MOL0     N62618   9.348   8.313   5.607 -0.4485  0.1683  0.2292
  475MOL0     N62619   9.448   8.320   5.526 -0.2270  0.0676 -0.5701
  475MOL0     C62620  10.389   8.160   5.203 -0.0512  0.4985 -0.9053
  475MOL0     C62621  10.522   8.184   5.169  0.1581  0.5254  0.3897
  475MOL0     C62622  10.959   8.056   5.060  0.3759  0.0005 -0.3833
  475MOL0     C62623  11.030   7.957   4.986 -0.4591 -0.2003 -0.3300
  475MOL0     C62624  11.167   7.958   4.968  0.1584 -0.3653  0.4487
  475MOL0     C62625  11.242   8.067   5.023 -0.2865  0.3296  0.3995
  475MOL0     O62626  11.379   8.052   5.005 -0.1795  0.3941 -0.5431
  475MOL0     C62627  11.476   8.141   5.082 -0.7854  0.6221 -0.0876
  475MOL0     C62628  11.616   8.125   5.008 -0.0651  0.6050 -0.7945
  475MOL0     C62629  11.721   8.219   5.058  0.5983 -0.4619  0.1669
  475MOL0     C62630  11.836   8.231   4.962  1.2333  0.6260  0.9140
  475MOL0     C62631  11.933   8.330   5.003 -0.0673 -0.4124  0.3953
  475MOL0     C62632  12.017   8.408   5.040 -1.3107  0.4826 -0.0706
  475MOL0     C62633  11.186   8.153   5.108  0.0155 -0.4419 -0.1284
  475MOL0     C62634  11.046   8.149   5.127  0.6848  0.6338  0.5809
  475MOL0     H62635  10.665   7.919   5.325 -3.0308 -3.5660  1.0839
  475MOL0     H62636  10.439   7.879   5.389  0.6200  1.6497  2.0343
  475MOL0     H62637  10.156   7.981   5.126 -0.3128 -1.9017  1.0039
  475MOL0     H62638  10.101   8.139   5.191 -0.3770  0.2682  1.2896
  475MOL0     H62639   9.970   8.021   5.365  1.8768 -0.3738  0.5486
  475MOL0     H62640  10.028   7.864   5.322 -4.5314 -2.2496 -1.4932
  475MOL0     H62641   9.913   7.865   5.097  1.1537  0.0361  0.6852
  475MOL0     H62642   9.878   8.034   5.126  2.1253  0.4039 -0.1311
  475MOL0     H62643   9.764   7.769   5.236 -4.3952 -0.1645  0.1366
  475MOL0     H62644   9.738   7.897   5.337 -1.2143 -0.9908  0.2282
  475MOL0     H62645   9.560   7.829   5.153 -0.0426 -0.1781 -1.8267
  475MOL0     H62646   9.660   7.905   5.030 -1.3905  1.1380 -0.6781
  475MOL0     H62647   9.501   8.065   5.076 -0.1379 -2.3840 -1.0860
  475MOL0     H62648   9.664   8.109   5.119 -0.3192 -0.1447 -0.7673
  475MOL0     H62649   9.445   8.005   5.307  0.0641 -0.4958 -0.9567
  475MOL0     H62650   9.606   8.054   5.366  2.9096 -0.4426 -2.7926
  475MOL0     H62651   9.431   8.249   5.218 -0.4461 -2.3328 -0.7323
  475MOL0     H62652   9.582   8.286   5.308 -0.5561  0.1479 -2.1425
  475MOL0     H62653   9.224   8.125   5.368 -1.2015 -0.0037  0.2552
  475MOL0     H62654   9.141   8.168   5.716 -0.3151 -1.0463  0.5031
  475MOL0     H62655   9.088   8.102   5.563  0.7964  0.8723 -0.0970
  475MOL0     H62656   8.985   8.325   5.513  1.7296  1.5640 -0.0495
  475MOL0     H62657   9.045   8.379   5.679 -0.2764 -1.3054  1.4136
  475MOL0     H62658   8.868   8.129   5.639  0.2338 -0.2687  2.9617
  475MOL0     H62659   8.932   8.197   5.785  0.6066 -1.1506 -0.4896
  475MOL0     H62660   8.740   8.343   5.612  0.1866  1.5384  0.4952
  475MOL0     H62661   8.793   8.397   5.764 -2.3611 -0.4805  1.3117
  475MOL0     H62662   8.483   8.053   5.844 -0.3837 -0.3377  1.3083
  475MOL0     H62663   8.240   8.125   5.857 -2.1878  0.8160 -2.5672
  475MOL0     H62664   8.002   8.348   6.132 -0.3799  2.4040  0.8447
  475MOL0     H62665   7.783   8.397   6.213  3.3665 -3.4304  1.0743
  475MOL0     H62666   7.603   8.563   6.224  0.1314 -0.7245  0.7330
  475MOL0     H62667   7.531   8.404   6.251  3.8259  0.7336  1.1890
  475MOL0     H62668   7.402   8.619   6.100 -3.8234  0.4695 -0.1299
  475MOL0     H62669   7.352   8.597   6.259 -1.6924  0.4185 -1.6655
  475MOL0     H62670   7.291   8.347   6.182  2.6445 -0.4525  0.0217
  475MOL0     H62671   7.323   8.421   6.020 -1.2280  2.7072  0.1688
  475MOL0     H62672   7.133   8.563   6.183  2.4060 -0.6563  1.7971
  475MOL0     H62673   7.168   8.563   6.008 -0.1469  1.1751  1.7249
  475MOL0     H62674   7.033   8.342   6.165  3.1418  0.4805  1.0885
  475MOL0     H62675   7.079   8.316   5.994 -2.9115 -0.9839  0.0459
  475MOL0     H62676   6.914   8.502   5.925 -0.6555 -0.2072 -0.0610
  475MOL0     H62677   6.890   8.536   6.092  0.4700 -0.3141  0.2195
  475MOL0     H62678   6.820   8.259   5.968 -1.9689  0.8918 -1.5588
  475MOL0     H62679   6.755   8.338   6.122 -2.6803  2.1704 -0.1989
  475MOL0     H62680   6.600   8.336   5.930 -0.4249  0.9794 -1.7991
  475MOL0     H62681   6.708   8.441   5.840  1.9986 -1.9250  0.1809
  475MOL0     H62682   7.628   8.359   5.802 -0.2086  0.8054  0.6867
  475MOL0     H62683   7.845   8.272   5.740  0.3710  0.4756 -1.0228
  475MOL0     H62684   8.328   8.503   5.696  0.4025  1.1340  1.1034
  475MOL0     H62685   8.566   8.455   5.701 -1.1202  1.9014  1.0669
  475MOL0     H62686  10.314   8.233   5.175 -1.4755 -1.8343 -3.7391
  475MOL0     H62687  10.552   8.264   5.101 -1.8038  0.3617 -0.7714
  475MOL0     H62688  10.963   7.889   4.934 -0.3376 -0.8716  0.3685
  475MOL0     H62689  11.208   7.879   4.906  0.6568  1.1990 -1.3610
  475MOL0     H62690  11.474   8.119   5.189 -1.0075  2.4467  0.3163
  475MOL0     H62691  11.452   8.248   5.073 -3.0466 -0.0027 -3.3800
  475MOL0     H62692  11.642   8.021   5.029 -0.0867  1.2359  3.2486
  475MOL0     H62693  11.604   8.150   4.903  3.0639  3.3401 -0.6520
  475MOL0     H62694  11.763   8.193   5.156  0.9351 -1.9659 -0.3640
  475MOL0     H62695  11.677   8.319   5.058  0.6738 -0.3823 -2.1897
  475MOL0     H62696  11.877   8.134   4.931  1.3745  0.5481  1.3389
  475MOL0     H62697  11.808   8.263   4.861  3.1231  2.8547  1.0088
  475MOL0     H62698  12.088   8.480   5.076 -1.0774  1.1415 -1.7517
  475MOL0     H62699  11.244   8.220   5.170 -1.8443  0.2771  0.9174
  475MOL0     H62700  10.988   8.214   5.193 -0.8309 -1.7093  1.6645
  476MOL0     O62701   2.563   3.198   2.721 -0.1567 -0.3509 -0.2109
  476MOL0     C62702   2.596   3.086   2.761  0.8839  0.5252 -0.5167
  476MOL0     O62703   2.506   2.985   2.787 -0.5147 -0.0763  0.3182
  476MOL0     C62704   2.383   3.041   2.811 -0.5649  0.7135  0.8698
  476MOL0     C62705   2.334   3.033   2.934 -0.2463 -0.0751 -0.5155
  476MOL0     C62706   2.209   3.075   2.973  0.1221  0.7471  1.1047
  476MOL0     C62707   2.120   3.117   2.872 -1.0311 -0.0887 -0.1130
  476MOL0     O62708   1.988   3.126   2.915 -0.4699 -0.9074  0.1392
  476MOL0     C62709   1.894   3.092   2.822  0.3458  0.2265  0.5701
  476MOL0     C62710   1.759   3.052   2.884  0.2861 -1.4570 -0.0378
  476MOL0     C62711   1.774   2.933   2.980 -0.4732 -1.2084  0.3214
  476MOL0     C62712   1.644   2.894   3.044 -0.2587  0.2861 -0.8107
  476MOL0     C62713   1.669   2.804   3.161 -0.2151  0.1282  0.3259
  476MOL0     C62714   1.544   2.726   3.210 -0.6196  0.4719 -0.2396
  476MOL0     C62715   1.441   2.813   3.288 -0.4604  0.9338  0.1217
  476MOL0     C62716   1.303   2.803   3.236 -0.0683 -0.5246 -0.3836
  476MOL0     N62717   1.281   2.900   3.128  0.1951  0.4921 -0.4157
  476MOL0     C62718   1.292   2.868   2.991  0.7444 -0.2291 -0.2735
  476MOL0     C62719   1.245   2.982   2.924 -0.0177 -0.0010 -0.6092
  476MOL0     C62720   1.246   3.010   2.780 -0.1699  0.0254  0.3608
  476MOL0     C62721   1.391   3.038   2.738 -0.0743  0.5266 -0.9741
  476MOL0     C62722   1.400   3.082   2.590  0.7459  0.3269  0.2306
  476MOL0     C62723   1.540   3.107   2.536 -0.2238  0.5556  0.0735
  476MOL0     O62724   1.598   2.977   2.521 -0.2466  0.4513  0.3412
  476MOL0     C62725   1.733   2.976   2.478  0.0927 -0.3160 -0.1067
  476MOL0     C62726   1.783   2.854   2.433  0.3038  0.0111  0.4417
  476MOL0     C62727   1.914   2.846   2.383  0.1739 -0.1613 -0.1820
  476MOL0     C62728   1.998   2.958   2.374  0.1287 -0.9579  0.1534
  476MOL0     C62729   2.137   2.952   2.319  0.6217  0.0821  0.0617
  476MOL0     O62730   2.214   3.061   2.333 -0.5435 -0.3637  0.3281
  476MOL0     C62731   2.343   3.063   2.280  0.5920 -1.4196 -0.3847
  476MOL0     C62732   2.385   3.161   2.188 -0.3723  0.0640  0.6551
  476MOL0     C62733   2.525   3.184   2.161  0.1921  0.4743 -0.4643
  476MOL0     C62734   2.621   3.099   2.221  0.2114 -0.2512 -0.6036
  476MOL0     O62735   2.753   3.108   2.184  0.3101  0.1230 -0.0560
  476MOL0     C62736   2.836   3.204   2.243 -1.4980 -0.5011  0.5202
  476MOL0     C62737   2.965   3.118   2.246 -0.1945  0.1482 -0.4640
  476MOL0     C62738   3.098   3.192   2.282 -0.2398 -0.1469  0.4244
  476MOL0     C62739   3.224   3.102   2.263  0.8167 -0.7948 -0.5104
  476MOL0     C62740   3.348   3.183   2.254  0.0478  0.2313 -0.4130
  476MOL0     C62741   3.477   3.099   2.265 -0.1873  0.6022  0.4195
  476MOL0     C62742   3.589   3.168   2.194 -0.2119 -0.0017 -0.5114
  476MOL0     C62743   3.731   3.104   2.187  0.4130 -0.6345  0.0088
  476MOL0    Cl62744   3.776   3.087   2.357 -0.0252 -0.6054 -0.0291
  476MOL0     C62745   2.573   3.010   2.320 -0.3526  0.0970 -0.3015
  476MOL0     C62746   2.440   2.993   2.348 -0.0715  0.7418  0.4796
  476MOL0     O62747   2.165   2.846   2.263  0.4639  0.5378 -0.4023
  476MOL0     C62748   1.944   3.081   2.419 -0.1739  0.4195 -0.9466
  476MOL0     C62749   1.811   3.088   2.470 -0.2835  1.2408 -0.0866
  476MOL0     N62750   1.218   3.080   3.021  0.0076 -0.1354 -0.4631
  476MOL0     N62751   1.228   3.025   3.139  0.2175  0.4107 -0.4942
  476MOL0     C62752   2.171   3.131   2.740  0.4886 -0.6554 -0.2728
  476MOL0     C62753   2.303   3.092   2.706 -1.0572 -0.7216  0.2645
  476MOL0     C62754   2.734   3.040   2.757 -0.2517  0.2537 -0.3343
  476MOL0     C62755   2.838   3.133   2.722  0.0830 -0.8117 -0.2253
  476MOL0     C62756   2.970   3.104   2.732 -0.3216 -0.2032  0.4903
  476MOL0     C62757   3.012   2.978   2.762 -0.3122  0.0136  0.7484
  476MOL0     O62758   3.151   2.954   2.754 -0.1063  0.8891  0.0753
  476MOL0     C62759   3.199   2.824   2.754 -0.4750  0.7118  0.4504
  476MOL0     C62760   3.348   2.815   2.764 -0.3647 -0.5683  0.5378
  476MOL0     C62761   3.403   2.895   2.646 -0.2179  0.4745 -0.5227
  476MOL0     C62762   3.555   2.906   2.657 -0.0223  0.2471 -0.5706
  476MOL0     C62763   3.613   2.776   2.660  0.0433  0.1514  0.1739
  476MOL0     C62764   3.649   2.661   2.672 -0.8288 -0.4978  0.9568
  476MOL0     C62765   2.913   2.878   2.796  0.8695  0.3270  0.4489
  476MOL0     C62766   2.781   2.915   2.799  0.3053  0.2003 -0.1742
  476MOL0     H62767   2.395   2.995   3.015 -1.0507 -0.0159  0.1194
  476MOL0     H62768   2.179   3.061   3.076  0.1850 -1.2308  0.8919
  476MOL0     H62769   1.930   3.011   2.758 -3.7754  0.2840 -2.2212
  476MOL0     H62770   1.888   3.181   2.759 -0.4103  0.0919  0.4389
  476MOL0     H62771   1.691   3.018   2.805 -0.9444  1.6803 -0.4858
  476MOL0     H62772   1.716   3.138   2.937 -3.2804 -0.5338 -3.9255
  476MOL0     H62773   1.846   2.949   3.060  0.0568 -1.2678 -0.1368
  476MOL0     H62774   1.813   2.844   2.929  1.9265 -0.7570  1.2304
  476MOL0     H62775   1.588   2.981   3.077 -0.7956 -0.7305  1.0892
  476MOL0     H62776   1.583   2.852   2.963  1.1230  0.4477 -1.9686
  476MOL0     H62777   1.714   2.862   3.243 -3.0039  0.8073  1.4961
  476MOL0     H62778   1.734   2.728   3.118 -2.7857 -1.4122 -1.0618
  476MOL0     H62779   1.591   2.644   3.266  1.5228  0.7278 -1.5243
  476MOL0     H62780   1.504   2.686   3.116  1.4667  2.4232 -2.1015
  476MOL0     H62781   1.436   2.775   3.391  2.4195 -0.4175 -0.1137
  476MOL0     H62782   1.481   2.915   3.292  1.7836  0.0823  3.3339
  476MOL0     H62783   1.231   2.820   3.316  2.0309  0.1460  1.4559
  476MOL0     H62784   1.286   2.700   3.203  1.2480 -0.9279  0.1316
  476MOL0     H62785   1.319   2.780   2.934 -0.7110  0.6304 -2.4254
  476MOL0     H62786   1.175   3.090   2.760  1.7945  2.1392  1.3713
  476MOL0     H62787   1.220   2.913   2.737  1.0941 -0.5508  0.8466
  476MOL0     H62788   1.441   2.941   2.749 -0.9014  0.1865 -0.1165
  476MOL0     H62789   1.425   3.127   2.793 -0.5918  0.5293 -0.6547
  476MOL0     H62790   1.347   3.016   2.520  0.5798  3.1108 -2.5106
  476MOL0     H62791   1.346   3.177   2.592 -4.5141 -2.0673 -3.0822
  476MOL0     H62792   1.598   3.180   2.592  0.2095  0.6129 -0.4420
  476MOL0     H62793   1.524   3.144   2.434 -0.9813  0.9816  0.3382
  476MOL0     H62794   1.710   2.774   2.441 -2.2591  2.2456  0.7929
  476MOL0     H62795   1.952   2.750   2.351 -3.4769 -2.3426  1.4630
  476MOL0     H62796   2.306   3.221   2.146  1.1241  1.6312 -0.0570
  476MOL0     H62797   2.559   3.248   2.080  2.2339 -0.1585 -0.1540
  476MOL0     H62798   2.813   3.238   2.345  2.7737  2.0894  0.8594
  476MOL0     H62799   2.844   3.296   2.184 -3.5616  0.3767  1.5067
  476MOL0     H62800   2.978   3.062   2.153 -2.1165  0.0286 -0.7009
  476MOL0     H62801   2.950   3.038   2.318  2.2843  0.5745  0.6531
  476MOL0     H62802   3.091   3.214   2.389 -0.3468 -2.4501  0.9347
  476MOL0     H62803   3.116   3.289   2.234  0.8945 -1.5098 -2.0979
  476MOL0     H62804   3.231   3.031   2.347 -0.9296 -1.5475 -0.9678
  476MOL0     H62805   3.217   3.033   2.179  0.0276 -1.1942 -0.1283
  476MOL0     H62806   3.351   3.255   2.336 -0.9979 -2.4892  2.1702
  476MOL0     H62807   3.349   3.235   2.157  0.5373  1.7306  0.3768
  476MOL0     H62808   3.452   3.003   2.218 -2.0687  0.2051  2.0660
  476MOL0     H62809   3.495   3.086   2.372 -3.9699 -1.3095  1.0132
  476MOL0     H62810   3.569   3.189   2.088 -1.7020 -0.6945 -0.3946
  476MOL0     H62811   3.606   3.254   2.260 -0.0563 -0.8407  0.5593
  476MOL0     H62812   3.801   3.163   2.127 -2.1708  0.5721 -2.0394
  476MOL0     H62813   3.729   3.006   2.139  1.1116  0.1769 -1.7809
  476MOL0     H62814   2.639   2.957   2.388 -0.5977 -1.7115 -1.4028
  476MOL0     H62815   2.421   2.930   2.434 -2.0196  1.7667  0.8501
  476MOL0     H62816   2.003   3.167   2.389  0.0108  0.5290 -0.2855
  476MOL0     H62817   1.776   3.185   2.505 -1.9619  1.0543 -1.1257
  476MOL0     H62818   2.104   3.172   2.665  0.0050 -0.1832  0.4020
  476MOL0     H62819   2.346   3.100   2.607 -0.9153 -2.5507  0.1567
  476MOL0     H62820   2.819   3.237   2.699  2.3871 -0.0770  0.8113
  476MOL0     H62821   3.043   3.178   2.701 -0.0175  0.1661  2.0185
  476MOL0     H62822   3.171   2.777   2.658  0.3081  1.3429 -0.0975
  476MOL0     H62823   3.155   2.777   2.842 -0.4510  0.2732  0.2329
  476MOL0     H62824   3.388   2.861   2.855  1.7875  0.8161 -1.0031
  476MOL0     H62825   3.376   2.709   2.757 -1.8514 -0.9043 -1.1920
  476MOL0     H62826   3.361   2.996   2.644  1.4783  1.2077 -0.3105
  476MOL0     H62827   3.385   2.846   2.549  2.4552 -1.4537 -0.1555
  476MOL0     H62828   3.601   2.960   2.573  1.3027  0.1574  0.0775
  476MOL0     H62829   3.572   2.962   2.749  1.9874 -1.0625 -0.0803
  476MOL0     H62830   3.685   2.562   2.690 -3.3257 -1.4248  1.2805
  476MOL0     H62831   2.939   2.776   2.823 -0.6550 -0.8735 -2.2927
  476MOL0     H62832   2.702   2.843   2.818 -0.5327  1.2089  0.2570
  477MOL0     O62833   1.378   4.433   4.079  0.0274  0.1618  0.7433
  477MOL0     C62834   1.427   4.533   4.022  0.4499  0.2342  0.8747
  477MOL0     O62835   1.357   4.627   3.959 -0.4278  0.1497 -0.1288
  477MOL0     C62836   1.224   4.612   3.937  0.0451  0.2966  0.1371
  477MOL0     C62837   1.156   4.494   3.891  0.1761 -0.1973 -0.8466
  477MOL0     C62838   1.022   4.504   3.843  0.5023  0.6103 -0.1015
  477MOL0     C62839   0.959   4.629   3.825 -0.4545 -0.1805 -0.6595
  477MOL0     O62840   0.837   4.626   3.773  0.7628 -0.2697  0.1964
  477MOL0     C62841   0.789   4.746   3.700  0.2250  1.0134 -0.1326
  477MOL0     C62842   0.662   4.714   3.627  0.7083  0.4183  0.2308
  477MOL0     C62843   0.545   4.686   3.712  0.5773  0.7395  0.5056
  477MOL0     C62844   0.426   4.646   3.620  0.2884 -0.2934  0.0034
  477MOL0     C62845   0.304   4.614   3.713  0.0377  0.6363 -0.0485
  477MOL0     C62846   0.175   4.581   3.645  0.2898  0.1161  0.4027
  477MOL0     C62847   0.063   4.512   3.736  0.1330 -0.1042 -0.3433
  477MOL0     C62848   0.012   4.597   3.850 -0.4254  0.4254 -0.0875
  477MOL0     N62849  -0.097   4.537   3.935 -0.0135  0.6962 -1.1218
  477MOL0     C62850  -0.085   4.448   4.034  0.0506  0.3754  0.2332
  477MOL0     C62851  -0.211   4.440   4.081 -0.8992  0.3101 -0.3132
  477MOL0     C62852  -0.258   4.348   4.195 -0.4802 -0.3148  0.7001
  477MOL0     C62853  -0.264   4.426   4.325 -0.2882  0.7286  0.5527
  477MOL0     C62854  -0.343   4.356   4.437 -0.3161  0.5249  0.3876
  477MOL0     C62855  -0.363   4.461   4.550 -0.4517  1.0879  0.6655
  477MOL0     O62856  -0.438   4.574   4.498 -0.3771  0.3601  0.4009
  477MOL0     C62857  -0.580   4.557   4.497  0.0766 -0.0744 -1.0757
  477MOL0     C62858  -0.658   4.438   4.504 -0.1296  0.5514 -0.4574
  477MOL0     C62859  -0.800   4.437   4.516  0.2028  0.5864  0.6995
  477MOL0     C62860  -0.873   4.559   4.520  0.3071 -0.5025 -0.7813
  477MOL0     C62861  -1.020   4.563   4.558  0.5199 -0.1770  0.3559
  477MOL0     O62862  -1.079   4.687   4.557  0.9498 -0.2099  1.2496
  477MOL0     C62863  -1.215   4.690   4.536  0.2022  0.1125  0.0100
  477MOL0     C62864  -1.295   4.720   4.643  0.2693  0.3888 -0.1636
  477MOL0     C62865  -1.433   4.733   4.621 -0.3937  0.2942 -0.3790
  477MOL0     C62866  -1.489   4.704   4.500 -1.1305 -0.3478  0.2482
  477MOL0     O62867  -1.621   4.714   4.474  0.4804 -0.0804 -0.2445
  477MOL0     C62868  -1.712   4.724   4.583  0.7171 -0.7750  0.1393
  477MOL0     C62869  -1.855   4.715   4.525  0.2646 -0.2269 -0.2708
  477MOL0     C62870  -1.888   4.587   4.446 -0.5360 -0.7185 -0.5021
  477MOL0     C62871  -2.021   4.603   4.371  0.0898  0.6994  0.4027
  477MOL0     C62872  -2.136   4.544   4.454 -0.6674 -0.6918  0.4869
  477MOL0     C62873  -2.275   4.599   4.410 -0.0800  0.6431  0.0991
  477MOL0     C62874  -2.338   4.484   4.327  0.0326  0.1765  1.1521
  477MOL0     C62875  -2.481   4.521   4.288 -0.2089 -0.3499 -0.0313
  477MOL0    Cl62876  -2.608   4.492   4.404 -0.0491  0.3784 -0.0306
  477MOL0     C62877  -1.402   4.664   4.391  1.1156 -0.9064 -0.7188
  477MOL0     C62878  -1.267   4.663   4.412 -0.0559 -0.7875 -0.6435
  477MOL0     O62879  -1.072   4.454   4.574  1.3665 -0.0356 -0.4166
  477MOL0     C62880  -0.796   4.677   4.509 -0.5282  0.0127 -0.2196
  477MOL0     C62881  -0.651   4.675   4.490  0.0302 -0.1692 -0.0232
  477MOL0     N62882  -0.297   4.513   4.003 -0.5813  0.1437 -0.7180
  477MOL0     N62883  -0.221   4.577   3.919  0.2375  0.7525 -0.2541
  477MOL0     C62884   1.034   4.742   3.870 -0.3408  0.5246  0.4311
  477MOL0     C62885   1.164   4.737   3.924  0.1432 -0.4094 -0.0025
  477MOL0     C62886   1.570   4.554   4.040 -0.6631  0.3881 -0.1474
  477MOL0     C62887   1.655   4.454   4.099 -0.0766 -0.4219  1.2155
  477MOL0     C62888   1.792   4.477   4.116  0.2092  0.3545  0.1011
  477MOL0     C62889   1.849   4.589   4.063 -0.2332 -0.0250 -0.4589
  477MOL0     O62890   1.979   4.603   4.083  0.3096 -0.4719  0.0824
  477MOL0     C62891   2.061   4.651   3.977  0.1267  0.3144  0.7851
  477MOL0     C62892   2.202   4.618   4.023  0.8882 -0.2474  0.3696
  477MOL0     C62893   2.308   4.665   3.912  0.5906 -1.0386  0.0399
  477MOL0     C62894   2.453   4.685   3.955 -0.1711  0.3403  0.2217
  477MOL0     C62895   2.464   4.754   4.086  0.6200  0.0778  0.2397
  477MOL0     C62896   2.447   4.805   4.190 -0.0819 -0.1191 -0.0712
  477MOL0     C62897   1.774   4.677   3.988  0.0233 -0.6998 -0.7885
  477MOL0     C62898   1.634   4.669   3.982  0.5117  0.7314  0.3124
  477MOL0     H62899   1.222   4.408   3.891  1.0633  0.4403 -2.5347
  477MOL0     H62900   0.979   4.409   3.812 -2.6865  0.0545  4.8450
  477MOL0     H62901   0.866   4.768   3.624 -1.4075  0.8506 -1.9087
  477MOL0     H62902   0.773   4.824   3.774 -0.9726  0.3190  0.3755
  477MOL0     H62903   0.678   4.622   3.571 -0.7234  0.6769 -0.6649
  477MOL0     H62904   0.638   4.800   3.563  1.9635  1.0155  0.5230
  477MOL0     H62905   0.502   4.777   3.756 -4.1825 -0.9876 -0.0609
  477MOL0     H62906   0.566   4.610   3.787  0.7318 -0.1617 -0.4278
  477MOL0     H62907   0.385   4.720   3.551  1.2572 -0.4384 -0.7612
  477MOL0     H62908   0.452   4.554   3.567 -0.7553 -0.5030 -0.1639
  477MOL0     H62909   0.290   4.697   3.783  0.5608  0.1351  0.6631
  477MOL0     H62910   0.332   4.525   3.770 -1.5221 -1.1079 -1.8465
  477MOL0     H62911   0.193   4.500   3.573  2.5819 -0.7251  1.8061
  477MOL0     H62912   0.135   4.668   3.593 -0.6085 -0.6299 -0.1881
  477MOL0     H62913  -0.018   4.484   3.668  0.7600 -2.8914 -0.0343
  477MOL0     H62914   0.098   4.424   3.791  0.0841  1.2444  1.9801
  477MOL0     H62915  -0.038   4.681   3.802 -1.5927  1.0772  2.1081
  477MOL0     H62916   0.099   4.623   3.911 -0.2449  2.4499 -1.1134
  477MOL0     H62917   0.006   4.399   4.067 -0.1368  0.7645  1.3364
  477MOL0     H62918  -0.192   4.262   4.198 -1.0770 -0.7473  2.0687
  477MOL0     H62919  -0.360   4.317   4.169 -0.7796  0.5005  0.8456
  477MOL0     H62920  -0.307   4.523   4.299  1.2551  2.1236  2.8285
  477MOL0     H62921  -0.165   4.458   4.360  1.4827 -0.2565 -3.0722
  477MOL0     H62922  -0.435   4.317   4.393  0.4571  1.1539 -1.9671
  477MOL0     H62923  -0.289   4.276   4.488  0.3640 -0.2433 -1.4294
  477MOL0     H62924  -0.268   4.493   4.593 -0.6266  1.1842  0.9878
  477MOL0     H62925  -0.422   4.420   4.632 -0.1735 -0.6749  0.0149
  477MOL0     H62926  -0.618   4.337   4.499  1.2289  1.1019 -1.8122
  477MOL0     H62927  -0.851   4.345   4.542  1.5042 -0.2583  0.4130
  477MOL0     H62928  -1.248   4.738   4.740  1.8467 -1.9867 -0.4002
  477MOL0     H62929  -1.491   4.763   4.707 -0.5116 -2.7357  0.7268
  477MOL0     H62930  -1.694   4.822   4.629 -3.4105  0.7811 -1.1256
  477MOL0     H62931  -1.696   4.647   4.659 -1.6765 -0.8818  0.5877
  477MOL0     H62932  -1.877   4.802   4.462  1.2239 -1.6151 -2.6173
  477MOL0     H62933  -1.914   4.712   4.617  2.2568  0.8860  1.1462
  477MOL0     H62934  -1.895   4.505   4.518  1.5316  0.5733  1.2881
  477MOL0     H62935  -1.816   4.558   4.368  0.1792 -2.8108  0.8577
  477MOL0     H62936  -2.043   4.702   4.330 -2.2776 -0.9233 -2.6221
  477MOL0     H62937  -2.018   4.540   4.282  0.8126 -0.0091  0.9159
  477MOL0     H62938  -2.120   4.575   4.558 -0.8735 -0.2609  0.3893
  477MOL0     H62939  -2.137   4.435   4.443 -1.5771 -0.7581  1.1450
  477MOL0     H62940  -2.268   4.697   4.361  0.6240  1.4496  1.7242
  477MOL0     H62941  -2.334   4.615   4.500 -3.3591 -1.9202 -1.3864
  477MOL0     H62942  -2.272   4.479   4.239 -0.5813 -0.5389  0.7206
  477MOL0     H62943  -2.320   4.383   4.364  0.7188  0.5551  1.8862
  477MOL0     H62944  -2.517   4.478   4.194 -2.1546 -0.5021  0.7488
  477MOL0     H62945  -2.483   4.628   4.269 -1.8600 -0.0644  1.4978
  477MOL0     H62946  -1.449   4.636   4.297 -2.3918 -2.3117  1.2531
  477MOL0     H62947  -1.202   4.643   4.328  2.1438 -0.6688  0.9386
  477MOL0     H62948  -0.831   4.779   4.514 -1.1057 -0.0213 -2.5013
  477MOL0     H62949  -0.597   4.767   4.471  0.4514 -0.6850 -1.4117
  477MOL0     H62950   1.000   4.845   3.871 -0.5475  0.4662 -0.1361
  477MOL0     H62951   1.208   4.828   3.965  0.7234 -0.9967  0.6991
  477MOL0     H62952   1.602   4.365   4.134  1.5353 -2.5359 -1.3282
  477MOL0     H62953   1.853   4.410   4.176  3.0245  0.7909 -2.0302
  477MOL0     H62954   2.044   4.754   3.944  1.8487 -0.9029 -5.1921
  477MOL0     H62955   2.051   4.595   3.883  2.5297 -4.3823  2.9960
  477MOL0     H62956   2.214   4.680   4.112  1.7968  1.4069 -0.8419
  477MOL0     H62957   2.222   4.514   4.048 -1.6750 -0.3935  2.2670
  477MOL0     H62958   2.264   4.753   3.864  0.3562  0.6180  3.0459
  477MOL0     H62959   2.303   4.578   3.846 -3.4503 -1.0889  0.1137
  477MOL0     H62960   2.502   4.588   3.962  3.6302  1.7953 -2.7638
  477MOL0     H62961   2.502   4.749   3.881  2.6619 -1.0355  0.8089
  477MOL0     H62962   2.431   4.864   4.279 -3.6079  1.8797 -1.8012
  477MOL0     H62963   1.829   4.758   3.942  1.9404 -1.4259  0.0834
  477MOL0     H62964   1.579   4.752   3.939  0.5023  0.5457 -0.0398
  478MOL0     O62965   7.185   5.589  10.718 -0.5124 -0.5821 -0.2211
  478MOL0     C62966   7.251   5.696  10.722  0.5886  0.0144 -0.5923
  478MOL0     O62967   7.203   5.816  10.780  0.2733 -0.2885  0.3987
  478MOL0     C62968   7.070   5.817  10.819  0.1457 -0.6911  0.5208
  478MOL0     C62969   6.982   5.906  10.765 -0.1362 -0.4582  1.2012
  478MOL0     C62970   6.843   5.904  10.792 -0.3222  1.6873 -0.1606
  478MOL0     C62971   6.799   5.833  10.908 -0.3597  0.3666  0.8647
  478MOL0     O62972   6.684   5.828  10.981  0.6754  0.0970 -0.6788
  478MOL0     C62973   6.601   5.940  10.971 -0.3159  0.3925 -0.3094
  478MOL0     C62974   6.468   5.935  11.032 -0.2783  0.4353 -0.4329
  478MOL0     C62975   6.385   6.067  11.042  0.2041  0.2476 -0.1364
  478MOL0     C62976   6.307   6.110  10.913 -0.0373 -0.4845 -0.8198
  478MOL0     C62977   6.222   6.235  10.941  0.6383 -0.1389  0.5925
  478MOL0     C62978   6.084   6.204  10.992 -0.2157  0.4967 -0.3535
  478MOL0     C62979   5.980   6.318  10.969 -0.2735  1.0992  0.6861
  478MOL0     C62980   5.863   6.307  11.052  0.9323  0.3482  0.4051
  478MOL0     N62981   5.752   6.400  11.015 -0.2879  0.5738 -0.2736
  478MOL0     C62982   5.619   6.368  11.023  0.1655 -1.1511  0.2094
  478MOL0     C62983   5.558   6.493  11.018  0.3082 -0.6703 -0.6594
  478MOL0     C62984   5.420   6.531  11.060 -0.0044  0.3046  0.7724
  478MOL0     C62985   5.403   6.497  11.201  0.6491  0.0955  0.4999
  478MOL0     C62986   5.277   6.544  11.268  0.3347 -0.5734 -0.0673
  478MOL0     C62987   5.231   6.473  11.388 -0.3829  0.3573  0.0643
  478MOL0     O62988   5.111   6.545  11.424 -0.6856  0.4504  0.2016
  478MOL0     C62989   4.998   6.479  11.406 -0.2380  0.1758  0.1063
  478MOL0     C62990   4.968   6.353  11.457  0.5781  0.3065  0.2377
  478MOL0     C62991   4.844   6.292  11.423  0.8467  0.0338  0.0513
  478MOL0     C62992   4.753   6.360  11.337  0.1604 -0.6637 -0.1798
  478MOL0     C62993   4.620   6.302  11.299 -0.0869 -0.7674 -0.7625
  478MOL0     O62994   4.527   6.381  11.232  0.0444 -0.0751  0.1998
  478MOL0     C62995   4.399   6.332  11.193 -0.5564  0.8002 -0.3763
  478MOL0     C62996   4.382   6.202  11.140 -0.7394  0.7565  0.1100
  478MOL0     C62997   4.261   6.143  11.107  0.4342 -0.0030  0.1762
  478MOL0     C62998   4.145   6.210  11.155  0.2667 -0.0832 -0.1007
  478MOL0     O62999   4.013   6.172  11.127 -0.0356  0.1681 -0.3708
  478MOL0     C63000   3.972   6.243  11.004  0.4596  0.1764 -0.2054
  478MOL0     C63001   3.847   6.184  10.934 -0.7619  0.1266 -0.5324
  478MOL0     C63002   3.720   6.204  11.006 -0.1479  0.9378  0.3555
  478MOL0     C63003   3.606   6.122  10.939  0.9525  0.9442  0.2999
  478MOL0     C63004   3.472   6.160  11.006  0.4522  0.0009  0.3464
  478MOL0     C63005   3.365   6.066  10.937  0.1145 -0.1046  0.0096
  478MOL0     C63006   3.217   6.078  10.990  0.7470  0.0842 -0.0738
  478MOL0     C63007   3.108   6.002  10.903  0.1844  0.5035 -0.5062
  478MOL0    Cl63008   2.956   6.006  11.005 -0.7748 -0.0004  0.3409
  478MOL0     C63009   4.157   6.338  11.222  0.5033  0.1231  0.2288
  478MOL0     C63010   4.280   6.397  11.229 -0.6969 -0.4690 -0.8570
  478MOL0     O63011   4.608   6.181  11.323  0.2665 -0.0148  0.6176
  478MOL0     C63012   4.784   6.488  11.287  0.8114  0.8022 -0.1572
  478MOL0     C63013   4.905   6.541  11.324 -1.1148 -0.2345  0.2675
  478MOL0     N63014   5.652   6.587  10.986 -0.0193 -0.3893 -0.3809
  478MOL0     N63015   5.767   6.531  10.996  0.4296  0.6604 -0.1551
  478MOL0     C63016   6.889   5.740  10.960  0.0234 -1.0674 -0.7335
  478MOL0     C63017   7.022   5.737  10.917  0.8714  0.7927  0.0188
  478MOL0     C63018   7.383   5.705  10.661 -0.1500 -0.1238  0.6056
  478MOL0     C63019   7.451   5.597  10.599  0.9118  0.3813  0.0642
  478MOL0     C63020   7.569   5.624  10.529  0.2525 -0.0249 -1.2500
  478MOL0     C63021   7.634   5.751  10.532 -0.2277 -0.2039  0.0486
  478MOL0     O63022   7.742   5.756  10.444 -0.2546  0.4444  0.6299
  478MOL0     C63023   7.782   5.878  10.383  0.1842  0.4150 -0.2626
  478MOL0     C63024   7.883   5.831  10.277 -0.0122 -0.4648  0.3868
  478MOL0     C63025   7.984   5.718  10.307  0.3500 -0.0295  0.1216
  478MOL0     C63026   8.065   5.681  10.185  0.2332 -0.6707  0.5030
  478MOL0     C63027   8.178   5.768  10.169 -0.3083  0.4202  0.0611
  478MOL0     C63028   8.272   5.841  10.174 -0.2249  0.0652 -0.2863
  478MOL0     C63029   7.568   5.852  10.598  0.1545  0.5281  0.2269
  478MOL0     C63030   7.444   5.835  10.655 -0.6527  0.6700 -1.0586
  478MOL0     H63031   7.019   5.975  10.691  0.3169 -3.2973 -1.4350
  478MOL0     H63032   6.790   5.975  10.730  0.6458  1.9460 -0.7225
  478MOL0     H63033   6.590   5.971  10.867 -1.3268  2.8240  0.4503
  478MOL0     H63034   6.658   6.020  11.018  0.7664  1.1438 -2.7398
  478MOL0     H63035   6.486   5.905  11.136 -0.1632  0.8690 -0.3249
  478MOL0     H63036   6.415   5.853  10.982  0.6643  1.9686 -4.2265
  478MOL0     H63037   6.455   6.147  11.066  0.5936  0.2922 -1.3259
  478MOL0     H63038   6.323   6.047  11.130 -0.5962 -2.3227 -1.1820
  478MOL0     H63039   6.379   6.141  10.836 -0.5054  2.0457 -0.3378
  478MOL0     H63040   6.248   6.022  10.889  0.0393 -1.4617  2.0994
  478MOL0     H63041   6.197   6.271  10.842  1.3905 -1.5569 -0.1468
  478MOL0     H63042   6.280   6.309  10.996  1.5176 -0.6880  0.4266
  478MOL0     H63043   6.083   6.186  11.099 -0.5136  1.0594 -0.2587
  478MOL0     H63044   6.055   6.113  10.939 -0.3182  0.9993 -1.1866
  478MOL0     H63045   6.019   6.417  10.994  3.2552  0.0811 -0.1944
  478MOL0     H63046   5.950   6.317  10.864 -0.4159 -0.8264  0.6944
  478MOL0     H63047   5.901   6.322  11.153 -0.7817  1.3377  0.9506
  478MOL0     H63048   5.829   6.203  11.041  2.1294  0.1635 -2.2051
  478MOL0     H63049   5.577   6.273  11.054  2.3630 -2.0371  0.6428
  478MOL0     H63050   5.354   6.484  10.987 -0.2058  0.1360  1.0610
  478MOL0     H63051   5.402   6.639  11.054  0.7543  0.5013  1.8265
  478MOL0     H63052   5.483   6.540  11.262  1.1531  0.1568 -0.1894
  478MOL0     H63053   5.419   6.393  11.231 -2.7140 -0.3715  1.1579
  478MOL0     H63054   5.289   6.648  11.303  1.3983 -1.7772  3.7185
  478MOL0     H63055   5.196   6.551  11.196 -0.5381  2.7722  1.0366
  478MOL0     H63056   5.306   6.482  11.468  0.2339  0.8115 -0.5488
  478MOL0     H63057   5.214   6.369  11.357  1.3392  0.4633 -1.4287
  478MOL0     H63058   5.040   6.321  11.531  1.1370  0.1872 -0.3390
  478MOL0     H63059   4.821   6.190  11.452  1.1664 -0.8858 -2.6859
  478MOL0     H63060   4.471   6.144  11.119 -2.3451 -0.5468 -4.1666
  478MOL0     H63061   4.242   6.058  11.043 -1.2963  1.8482 -1.9218
  478MOL0     H63062   4.053   6.241  10.931  2.0861  3.5578  1.2849
  478MOL0     H63063   3.946   6.347  11.024 -0.8481  0.4669 -2.9828
  478MOL0     H63064   3.870   6.078  10.921 -0.5562 -0.0262  0.9268
  478MOL0     H63065   3.841   6.217  10.830 -0.1096  1.6955 -0.0951
  478MOL0     H63066   3.702   6.311  11.018  1.7480  1.0427  3.2059
  478MOL0     H63067   3.725   6.165  11.108  0.8998  2.4724  0.9349
  478MOL0     H63068   3.603   6.143  10.832  0.9165 -0.9787 -0.1111
  478MOL0     H63069   3.620   6.014  10.950  0.7497  1.0143  1.3795
  478MOL0     H63070   3.445   6.264  10.985  1.7268  0.4351  0.7389
  478MOL0     H63071   3.486   6.151  11.114  2.4144  1.7587  0.3190
  478MOL0     H63072   3.401   5.962  10.939  3.1238  0.8531  1.7533
  478MOL0     H63073   3.361   6.089  10.831  3.4310 -0.1388 -0.2205
  478MOL0     H63074   3.217   6.046  11.095  4.8437  0.0328  0.0844
  478MOL0     H63075   3.192   6.184  10.999  0.1230 -0.1530  1.2723
  478MOL0     H63076   3.126   5.895  10.893  1.1306  0.5845  0.1641
  478MOL0     H63077   3.107   6.059  10.809  1.7894  0.9093 -0.3241
  478MOL0     H63078   4.071   6.399  11.250  1.7369  1.3188  1.5553
  478MOL0     H63079   4.291   6.497  11.269  3.2516 -0.7756 -0.7486
  478MOL0     H63080   4.720   6.551  11.226 -1.0821 -0.5947  0.2890
  478MOL0     H63081   4.928   6.636  11.277 -1.8385 -0.8259 -1.3512
  478MOL0     H63082   6.860   5.687  11.050 -1.0291  1.2147  0.3714
  478MOL0     H63083   7.087   5.668  10.970 -0.2839  0.6942  1.3615
  478MOL0     H63084   7.401   5.501  10.603 -0.7086  1.0456 -2.1675
  478MOL0     H63085   7.634   5.549  10.485  2.4044  3.7558 -5.2546
  478MOL0     H63086   7.838   5.940  10.453  1.6589  1.1481 -2.0296
  478MOL0     H63087   7.696   5.923  10.332  0.5142  1.0827 -0.2316
  478MOL0     H63088   7.828   5.800  10.188 -0.6861  0.2642  0.5374
  478MOL0     H63089   7.947   5.917  10.256  0.5855 -1.3044 -1.3414
  478MOL0     H63090   7.931   5.625  10.329  0.5584 -0.1959 -0.0866
  478MOL0     H63091   8.053   5.742  10.389  0.8030  1.4755 -0.6620
  478MOL0     H63092   8.092   5.576  10.195 -1.5568 -1.2150  0.0117
  478MOL0     H63093   8.004   5.690  10.095  0.6642  1.7792  0.3991
  478MOL0     H63094   8.365   5.895  10.174  0.7007 -1.3606 -3.0497
  478MOL0     H63095   7.622   5.946  10.586  1.0367 -0.0438 -0.3881
  478MOL0     H63096   7.397   5.923  10.698 -0.9595 -0.4445  1.0134
  479MOL0     O63097   3.055   5.357  10.168 -0.4879 -0.0366 -0.0559
  479MOL0     C63098   3.116   5.427  10.246 -0.1960 -0.5434 -0.4750
  479MOL0     O63099   3.069   5.475  10.364 -0.4461 -0.4686 -0.0879
  479MOL0     C63100   2.934   5.484  10.393  0.3317  0.0751 -0.2298
  479MOL0     C63101   2.876   5.585  10.475 -0.7927 -0.1945  0.1071
  479MOL0     C63102   2.744   5.593  10.516  0.7906 -0.3322 -0.5046
  479MOL0     C63103   2.659   5.484  10.494  0.1055 -0.3993  1.0790
  479MOL0     O63104   2.533   5.496  10.549 -0.1859 -0.1404  0.1809
  479MOL0     C63105   2.431   5.404  10.504 -0.0837 -0.9119 -0.0686
  479MOL0     C63106   2.298   5.457  10.552  0.4645  0.0072  0.3914
  479MOL0     C63107   2.178   5.363  10.533 -0.5433  0.6236  0.0071
  479MOL0     C63108   2.159   5.310  10.386  1.1041 -0.3148 -0.4428
  479MOL0     C63109   2.026   5.244  10.380 -0.4905  0.5507 -0.1279
  479MOL0     C63110   1.996   5.220  10.219  0.3898 -0.0335  0.0837
  479MOL0     C63111   1.860   5.158  10.213  1.1530  0.2924 -0.6069
  479MOL0     C63112   1.875   5.002  10.198 -0.0577  0.1253 -0.3941
  479MOL0     N63113   1.742   4.948  10.168  0.5226  1.1114 -0.2215
  479MOL0     C63114   1.678   4.943  10.046 -0.5272  0.5686 -0.0323
  479MOL0     C63115   1.570   4.866  10.068  0.5004 -0.4173 -0.0130
  479MOL0     C63116   1.462   4.848   9.960  0.2596 -0.3310  0.2306
  479MOL0     C63117   1.334   4.946   9.994  0.0055 -0.1877  0.4458
  479MOL0     C63118   1.224   4.940   9.888  0.3530 -0.1445 -0.4083
  479MOL0     C63119   1.193   4.792   9.848  0.7009  0.6256  0.0388
  479MOL0     O63120   1.063   4.769   9.785  0.0839 -0.6278 -0.9973
  479MOL0     C63121   0.953   4.777   9.860  0.8838 -0.3446 -0.6605
  479MOL0     C63122   0.953   4.782  10.002 -0.4108 -0.3078 -0.4553
  479MOL0     C63123   0.831   4.790  10.067  0.1438 -0.6145 -0.2177
  479MOL0     C63124   0.718   4.791   9.991 -0.2717 -0.1287 -0.6292
  479MOL0     C63125   0.591   4.783  10.062 -0.2832 -0.0731 -0.4183
  479MOL0     O63126   0.484   4.726  10.001  0.2226 -0.2658 -0.4252
  479MOL0     C63127   0.353   4.745  10.049 -0.6114  0.1091  0.0865
  479MOL0     C63128   0.250   4.797   9.964  0.0232  0.2970 -1.5042
  479MOL0     C63129   0.120   4.812  10.019  0.5520  0.6031 -0.6680
  479MOL0     C63130   0.087   4.772  10.154 -0.0504  0.6442 -0.1136
  479MOL0     O63131  -0.042   4.790  10.213 -0.2655 -0.0365  0.2112
  479MOL0     C63132  -0.153   4.742  10.135 -0.0557 -0.4333 -0.0137
  479MOL0     C63133  -0.273   4.694  10.223 -0.4479  0.8375 -0.3890
  479MOL0     C63134  -0.338   4.800  10.290 -0.2029 -0.1902  0.3185
  479MOL0     C63135  -0.450   4.871  10.213 -0.1246  0.3829 -0.5454
  479MOL0     C63136  -0.400   4.974  10.110  0.4390  0.5810  0.0314
  479MOL0     C63137  -0.513   5.073  10.070 -0.5460  0.0199  0.1660
  479MOL0     C63138  -0.611   5.009   9.970  0.3321 -0.0737 -0.1827
  479MOL0     C63139  -0.734   5.102   9.947  0.1213  0.1472 -1.0025
  479MOL0    Cl63140  -0.811   5.053   9.782 -0.1270 -0.3362  0.0619
  479MOL0     C63141   0.190   4.725  10.234 -0.2023  0.5134  0.2302
  479MOL0     C63142   0.312   4.707  10.179 -0.4582  0.1472 -0.4397
  479MOL0     O63143   0.580   4.835  10.171 -1.2080  0.4011  0.1534
  479MOL0     C63144   0.715   4.778   9.855 -0.5439 -0.2277  0.2526
  479MOL0     C63145   0.830   4.783   9.789 -0.0609  0.1315 -0.2857
  479MOL0     N63146   1.569   4.826  10.208  0.7616  0.5489 -0.2533
  479MOL0     N63147   1.682   4.867  10.257  0.3545 -0.6873 -0.6169
  479MOL0     C63148   2.719   5.372  10.430 -1.0382 -0.4229  0.1289
  479MOL0     C63149   2.849   5.376  10.376 -1.3533 -0.7597 -0.7682
  479MOL0     C63150   3.264   5.431  10.223 -0.5802  0.7827 -0.0510
  479MOL0     C63151   3.344   5.496  10.319  0.2085  0.1788  0.0634
  479MOL0     C63152   3.475   5.498  10.298 -0.7226  0.6181  0.2799
  479MOL0     C63153   3.534   5.444  10.186  0.1872  0.3804  0.8924
  479MOL0     O63154   3.671   5.462  10.159 -0.5876 -0.5930  0.6511
  479MOL0     C63155   3.744   5.344  10.122  0.4848  0.2756 -0.7418
  479MOL0     C63156   3.885   5.377  10.084 -0.0290  0.1128  0.2223
  479MOL0     C63157   3.955   5.245  10.045 -0.2307 -0.4786  0.6160
  479MOL0     C63158   4.089   5.287   9.977  0.6307 -0.3205  0.8612
  479MOL0     C63159   4.156   5.184   9.900 -0.0035  1.0666 -0.0082
  479MOL0     C63160   4.219   5.108   9.830 -0.6971 -0.6227 -0.4423
  479MOL0     C63161   3.463   5.366  10.097 -0.6262 -0.1339 -0.6635
  479MOL0     C63162   3.328   5.356  10.121  0.1777 -0.1906  0.2570
  479MOL0     H63163   2.941   5.672  10.479 -3.6577  2.0603  1.5522
  479MOL0     H63164   2.710   5.674  10.579 -2.0668 -1.5958 -0.2377
  479MOL0     H63165   2.464   5.306  10.540  1.5871 -0.5072 -0.4046
  479MOL0     H63166   2.429   5.400  10.394  1.3723 -3.0395 -0.0654
  479MOL0     H63167   2.277   5.557  10.513  0.6487 -0.4279 -0.8696
  479MOL0     H63168   2.301   5.468  10.661 -3.8058 -2.7617  1.0340
  479MOL0     H63169   2.090   5.409  10.578 -0.2082 -1.7484  3.5728
  479MOL0     H63170   2.188   5.273  10.595 -3.6645 -2.7083 -3.7271
  479MOL0     H63171   2.145   5.398  10.321 -3.1346  0.7281  1.4835
  479MOL0     H63172   2.237   5.239  10.362  2.9350  0.9090  1.5436
  479MOL0     H63173   1.952   5.312  10.424  0.9186  1.2822  1.2152
  479MOL0     H63174   2.023   5.147  10.431 -4.3004  0.1645 -0.7593
  479MOL0     H63175   2.076   5.161  10.173 -0.7688 -3.0918  1.7075
  479MOL0     H63176   1.981   5.320  10.176 -2.6461  0.7198  2.4991
  479MOL0     H63177   1.797   5.191  10.296  1.1461  1.8616 -1.1825
  479MOL0     H63178   1.823   5.195  10.117  1.4454  1.0461 -0.4408
  479MOL0     H63179   1.908   4.954  10.291 -0.1394 -2.5489 -1.6612
  479MOL0     H63180   1.944   4.974  10.118 -1.5360  1.2261 -2.1454
  479MOL0     H63181   1.706   4.995   9.955  1.1270  3.1158  1.8104
  479MOL0     H63182   1.442   4.740   9.969  0.2158 -0.4042 -0.6336
  479MOL0     H63183   1.508   4.865   9.862  2.8906 -0.9296  1.2776
  479MOL0     H63184   1.376   5.047   9.998  0.8491 -0.4269 -1.4872
  479MOL0     H63185   1.296   4.924  10.095  0.0946  0.7737  0.7012
  479MOL0     H63186   1.132   4.984   9.927 -0.3038  0.5317 -2.5937
  479MOL0     H63187   1.240   4.990   9.792 -0.6456 -2.1314 -1.6892
  479MOL0     H63188   1.208   4.734   9.940  3.1339  1.0940  0.0057
  479MOL0     H63189   1.275   4.759   9.784 -0.9010 -0.6980 -1.4346
  479MOL0     H63190   1.042   4.769  10.063 -0.5911 -1.4778 -0.4118
  479MOL0     H63191   0.822   4.791  10.176 -0.9050  0.8492 -0.2823
  479MOL0     H63192   0.279   4.832   9.866 -2.9448  1.2579 -2.1508
  479MOL0     H63193   0.043   4.847   9.951  2.3468 -1.0129 -3.7654
  479MOL0     H63194  -0.108   4.656  10.083  2.7634  1.2894 -0.6568
  479MOL0     H63195  -0.175   4.830  10.074  1.9106 -1.1136 -1.8444
  479MOL0     H63196  -0.226   4.642  10.307 -3.4558  1.7589  2.0311
  479MOL0     H63197  -0.341   4.628  10.169  1.7185 -1.8979  0.0089
  479MOL0     H63198  -0.264   4.874  10.322 -0.2649  1.1534 -2.3106
  479MOL0     H63199  -0.386   4.752  10.375  2.0584 -0.8627  1.2873
  479MOL0     H63200  -0.502   4.791  10.159  0.1185  0.8399 -1.4661
  479MOL0     H63201  -0.518   4.914  10.287  1.3764  0.1162  1.0559
  479MOL0     H63202  -0.351   4.933  10.022 -0.2381  0.7108 -0.4121
  479MOL0     H63203  -0.325   5.035  10.162  0.0609  2.1570 -1.1950
  479MOL0     H63204  -0.472   5.164  10.024 -3.0883  1.6621  0.9229
  479MOL0     H63205  -0.568   5.102  10.160 -1.4582  0.3161 -0.4684
  479MOL0     H63206  -0.562   4.994   9.873 -0.7277 -3.3596 -0.3107
  479MOL0     H63207  -0.642   4.909  10.001  0.2009 -0.5292 -1.7040
  479MOL0     H63208  -0.708   5.208   9.940 -0.6488  0.4341  0.1236
  479MOL0     H63209  -0.810   5.087  10.024  0.1096  4.6080  0.1336
  479MOL0     H63210   0.160   4.696  10.334 -2.4014  1.3795 -0.1274
  479MOL0     H63211   0.389   4.663  10.242 -0.2908 -0.1062 -0.8188
  479MOL0     H63212   0.621   4.779   9.802 -0.1372  0.4260 -0.4759
  479MOL0     H63213   0.840   4.779   9.681  1.9896  1.1336 -0.1919
  479MOL0     H63214   2.663   5.279  10.431  1.3404 -2.0030  3.0206
  479MOL0     H63215   2.876   5.284  10.325 -2.4042 -1.6793  0.2766
  479MOL0     H63216   3.301   5.561  10.395  0.8840  1.2769 -0.4831
  479MOL0     H63217   3.550   5.551  10.356  1.1015 -0.8627 -0.5833
  479MOL0     H63218   3.710   5.287  10.035  1.7346  1.3571 -1.9988
  479MOL0     H63219   3.758   5.271  10.203 -4.0401 -1.0237 -0.8884
  479MOL0     H63220   3.878   5.441   9.996  0.2500  2.1654  1.6260
  479MOL0     H63221   3.943   5.433  10.158 -0.5334  2.2220 -0.8907
  479MOL0     H63222   3.890   5.195   9.973 -0.2555 -0.9984  0.9945
  479MOL0     H63223   3.975   5.171  10.124  1.0041 -0.5702  0.2451
  479MOL0     H63224   4.071   5.363   9.901  0.0587 -0.3866  0.9303
  479MOL0     H63225   4.154   5.325  10.056 -0.3730 -0.6377  1.8614
  479MOL0     H63226   4.276   5.056   9.755  2.4446  0.6581  0.9043
  479MOL0     H63227   3.510   5.322  10.010 -0.6777 -2.5621  0.4453
  479MOL0     H63228   3.268   5.300  10.049 -2.1640  1.3487  0.8840
  480MOL0     O63229   4.200   2.285   3.962 -0.4702 -0.3013  1.0119
  480MOL0     C63230   4.255   2.379   3.896 -1.6835  0.0428 -0.1153
  480MOL0     O63231   4.201   2.460   3.799  0.0220 -0.5588 -0.2570
  480MOL0     C63232   4.072   2.435   3.763  0.2111  0.5598 -0.1732
  480MOL0     C63233   4.050   2.432   3.625  0.1362  0.0708 -0.0585
  480MOL0     C63234   3.925   2.418   3.572  0.5970 -0.3264  0.7320
  480MOL0     C63235   3.816   2.391   3.656  0.4348 -0.4114 -0.1136
  480MOL0     O63236   3.691   2.351   3.616 -0.3818 -0.8942 -0.0810
  480MOL0     C63237   3.677   2.328   3.476 -0.7374 -0.2758 -0.0775
  480MOL0     C63238   3.530   2.292   3.442  0.8330 -0.3475  0.6476
  480MOL0     C63239   3.431   2.370   3.526  0.0076 -0.1893  0.3327
  480MOL0     C63240   3.297   2.393   3.458  0.0835  0.0540  1.2541
  480MOL0     C63241   3.182   2.410   3.561  0.1647 -0.2701  0.0473
  480MOL0     C63242   3.073   2.484   3.494 -1.1114 -0.7597  0.4046
  480MOL0     C63243   2.937   2.452   3.559 -0.9588 -0.2132 -0.6504
  480MOL0     C63244   2.900   2.310   3.578  0.1578  0.6612 -0.2981
  480MOL0     N63245   2.755   2.306   3.614  0.3826 -0.0231  0.0827
  480MOL0     C63246   2.709   2.269   3.736  0.4253 -0.8935  0.4402
  480MOL0     C63247   2.579   2.252   3.713  0.2650  0.5404  0.2244
  480MOL0     C63248   2.483   2.222   3.829 -0.2953 -0.8405 -0.5847
  480MOL0     C63249   2.469   2.077   3.846  0.0539 -0.2605 -0.6124
  480MOL0     C63250   2.364   2.038   3.957 -0.6875 -0.1545 -0.2012
  480MOL0     C63251   2.223   2.100   3.933 -0.5650  0.3670 -0.4020
  480MOL0     O63252   2.209   2.232   3.965 -0.5087 -0.1249 -0.0238
  480MOL0     C63253   2.083   2.286   3.948 -0.3281  0.5225  0.4987
  480MOL0     C63254   1.973   2.243   4.021  0.5479  0.7077 -0.1335
  480MOL0     C63255   1.847   2.301   4.000 -0.0178  0.2081  0.2345
  480MOL0     C63256   1.828   2.401   3.894  0.3282  0.1762  0.1306
  480MOL0     C63257   1.694   2.454   3.882 -0.3217 -0.0857  0.0891
  480MOL0     O63258   1.668   2.541   3.788 -0.1589 -0.5231  0.7279
  480MOL0     C63259   1.536   2.557   3.758  0.6529 -0.2158  0.8195
  480MOL0     C63260   1.464   2.462   3.694 -0.5212  1.1926 -0.3605
  480MOL0     C63261   1.335   2.494   3.659 -1.2827 -0.1405  0.2627
  480MOL0     C63262   1.290   2.623   3.668  0.7873 -0.5792 -0.5038
  480MOL0     O63263   1.168   2.647   3.614  0.9684 -0.4055  0.1393
  480MOL0     C63264   1.100   2.760   3.665  0.3188 -0.6544  0.4855
  480MOL0     C63265   0.951   2.768   3.621 -0.6909 -0.0170  0.2226
  480MOL0     C63266   0.933   2.767   3.471  0.5717  0.5768  0.4999
  480MOL0     C63267   0.786   2.789   3.431 -0.1177  0.1111 -0.4389
  480MOL0     C63268   0.753   2.791   3.280 -0.1019 -0.1479 -0.7619
  480MOL0     C63269   0.849   2.870   3.188  0.0911 -0.4307 -0.4400
  480MOL0     C63270   0.799   2.862   3.041  0.0320 -0.0400  0.2781
  480MOL0     C63271   0.867   2.960   2.951  0.0411 -0.8012 -1.0669
  480MOL0    Cl63272   0.814   2.915   2.780  0.0132 -0.2248 -0.2106
  480MOL0     C63273   1.369   2.722   3.729  0.1258 -0.0299 -0.4574
  480MOL0     C63274   1.485   2.689   3.782 -0.7156 -0.3134  0.2379
  480MOL0     O63275   1.606   2.395   3.948  0.4529 -0.7638  0.0090
  480MOL0     C63276   1.945   2.445   3.823  0.4289 -0.4060 -0.3176
  480MOL0     C63277   2.074   2.385   3.851  0.2773 -0.4130  0.4058
  480MOL0     N63278   2.543   2.288   3.582  0.9295  0.3708 -0.3561
  480MOL0     N63279   2.654   2.309   3.523  0.9598  0.4334 -0.2131
  480MOL0     C63280   3.833   2.395   3.794 -0.0005 -0.5001 -0.2908
  480MOL0     C63281   3.962   2.419   3.846 -1.3939 -0.4742 -0.3676
  480MOL0     C63282   4.403   2.396   3.920  0.9257  0.5043 -0.5732
  480MOL0     C63283   4.450   2.372   4.049 -0.1901  0.4986  0.5190
  480MOL0     C63284   4.579   2.411   4.078 -0.9910 -0.2362 -0.4203
  480MOL0     C63285   4.673   2.456   3.979 -0.1824 -1.0336  1.0236
  480MOL0     O63286   4.805   2.489   4.000 -0.0023  0.6888 -0.2846
  480MOL0     C63287   4.874   2.438   4.111 -0.7891  0.7252 -0.5664
  480MOL0     C63288   4.957   2.539   4.184  0.1328 -0.3689  0.0249
  480MOL0     C63289   5.076   2.620   4.117  0.5024  0.4074 -0.0004
  480MOL0     C63290   5.201   2.535   4.093 -0.3104  0.1071 -1.5098
  480MOL0     C63291   5.305   2.611   4.023  0.2571 -0.9141 -0.3842
  480MOL0     C63292   5.369   2.686   3.954 -0.8486 -0.4014 -0.5710
  480MOL0     C63293   4.622   2.471   3.842  0.0346  1.0078  0.5574
  480MOL0     C63294   4.483   2.442   3.817 -0.5695  0.2404  0.2341
  480MOL0     H63295   4.131   2.447   3.555  0.4369  0.6760  0.4149
  480MOL0     H63296   3.916   2.420   3.464  0.6762 -2.1358  0.6562
  480MOL0     H63297   3.750   2.250   3.449  2.6625  1.9190  2.0465
  480MOL0     H63298   3.695   2.420   3.419  1.1217 -0.6825 -0.2254
  480MOL0     H63299   3.521   2.185   3.463  0.2861 -0.6712 -1.0742
  480MOL0     H63300   3.515   2.295   3.333  1.5980  0.6982  0.5554
  480MOL0     H63301   3.480   2.463   3.556  0.7276  0.1596 -1.7326
  480MOL0     H63302   3.414   2.312   3.617 -2.5114 -0.6893 -0.3776
  480MOL0     H63303   3.306   2.478   3.389 -2.0914 -0.8016 -0.1915
  480MOL0     H63304   3.272   2.319   3.381  0.9357  1.0161  0.0115
  480MOL0     H63305   3.222   2.474   3.641  1.0344 -0.3153 -0.3325
  480MOL0     H63306   3.155   2.320   3.617 -1.1870  2.2597  3.8286
  480MOL0     H63307   3.069   2.471   3.385  1.6541 -0.3861  0.1761
  480MOL0     H63308   3.091   2.589   3.518 -1.5604 -0.6754  0.3716
  480MOL0     H63309   2.936   2.496   3.659 -0.3673 -1.4920 -0.0577
  480MOL0     H63310   2.864   2.503   3.495 -0.8933  0.5640 -0.1189
  480MOL0     H63311   2.958   2.251   3.649 -1.5207 -2.6833 -1.5024
  480MOL0     H63312   2.913   2.248   3.489 -0.3087 -1.0408  0.7715
  480MOL0     H63313   2.766   2.261   3.827  1.3935 -1.4754 -0.1999
  480MOL0     H63314   2.390   2.276   3.811 -0.4397 -1.5302 -2.0254
  480MOL0     H63315   2.528   2.278   3.912  0.7530  1.4134 -2.5443
  480MOL0     H63316   2.572   2.043   3.857  0.4361 -0.9071 -4.7228
  480MOL0     H63317   2.431   2.030   3.755 -1.6018 -1.4575  0.6222
  480MOL0     H63318   2.362   1.929   3.965 -1.1486 -0.2981 -1.8272
  480MOL0     H63319   2.389   2.082   4.054  1.4663 -2.1082  0.2093
  480MOL0     H63320   2.149   2.035   3.982  0.9125 -0.1001  1.3200
  480MOL0     H63321   2.205   2.104   3.825 -0.6299 -0.2879 -0.4207
  480MOL0     H63322   1.990   2.184   4.111 -0.4916  0.3262 -0.1671
  480MOL0     H63323   1.764   2.259   4.057  0.0031 -0.9204 -0.5150
  480MOL0     H63324   1.511   2.366   3.678  0.7942  1.7665 -0.0856
  480MOL0     H63325   1.271   2.417   3.618 -2.9836  1.2934  0.0896
  480MOL0     H63326   1.150   2.848   3.623  0.0851 -0.4218  0.6912
  480MOL0     H63327   1.089   2.763   3.773 -1.2860  1.1326  0.3421
  480MOL0     H63328   0.913   2.859   3.668 -0.4495 -1.0319  2.5567
  480MOL0     H63329   0.901   2.685   3.672 -1.6264 -0.6472 -1.6513
  480MOL0     H63330   0.956   2.669   3.428 -2.0642  0.6387 -1.2567
  480MOL0     H63331   0.998   2.842   3.425 -0.7193  0.4915 -1.6011
  480MOL0     H63332   0.734   2.702   3.471 -3.5870  2.3169  0.2652
  480MOL0     H63333   0.744   2.879   3.476  0.5548 -0.9275  2.4361
  480MOL0     H63334   0.646   2.810   3.265 -1.0545 -0.4552  3.9771
  480MOL0     H63335   0.753   2.688   3.243  3.7732 -0.2284 -0.9604
  480MOL0     H63336   0.951   2.832   3.200  0.1707  0.3803  2.0679
  480MOL0     H63337   0.845   2.976   3.216  0.3907  0.1415 -2.4382
  480MOL0     H63338   0.808   2.760   3.001 -0.0887 -0.4444  1.2402
  480MOL0     H63339   0.690   2.877   3.040  0.1566  1.0876 -1.9408
  480MOL0     H63340   0.974   2.944   2.965  0.7402 -0.8184 -5.0288
  480MOL0     H63341   0.849   3.061   2.988 -0.1264 -0.6926 -1.4353
  480MOL0     H63342   1.337   2.824   3.748  0.3950 -0.0040 -0.1284
  480MOL0     H63343   1.539   2.764   3.837  0.5652  0.1891 -1.6126
  480MOL0     H63344   1.931   2.520   3.746 -1.9782  2.9338  3.0115
  480MOL0     H63345   2.166   2.410   3.799 -0.0727 -0.4455 -0.2480
  480MOL0     H63346   3.747   2.376   3.858 -1.7301 -0.1520 -2.3868
  480MOL0     H63347   3.993   2.433   3.949 -0.8770  1.2201 -0.7229
  480MOL0     H63348   4.380   2.341   4.125 -0.5543 -0.9614 -0.3571
  480MOL0     H63349   4.604   2.395   4.183 -1.3559  1.7843  0.0168
  480MOL0     H63350   4.936   2.356   4.074 -2.0768  0.8125 -3.1561
  480MOL0     H63351   4.807   2.388   4.182  0.0316 -2.3797 -1.7980
  480MOL0     H63352   4.882   2.608   4.225  0.4777  0.2910 -0.4283
  480MOL0     H63353   5.002   2.480   4.264 -2.4253 -2.5236  0.0188
  480MOL0     H63354   5.097   2.704   4.185 -2.3236 -0.0119  1.5238
  480MOL0     H63355   5.048   2.662   4.020 -3.2765  0.1131  0.8372
  480MOL0     H63356   5.248   2.516   4.190  0.8141  1.8344 -1.6716
  480MOL0     H63357   5.179   2.448   4.031  0.2058  0.3645 -2.0522
  480MOL0     H63358   5.426   2.761   3.903 -4.4539  1.2751 -2.4690
  480MOL0     H63359   4.681   2.502   3.757  0.2022  0.6078  0.5299
  480MOL0     H63360   4.444   2.447   3.716  1.5288  3.5711 -0.5636
  481MOL0     O63361   8.977   5.745   5.572 -0.1627 -0.4879  0.7522
  481MOL0     C63362   9.005   5.839   5.656  0.2057 -0.7368 -0.2222
  481MOL0     O63363   8.928   5.909   5.742  0.7271  0.6477 -0.4951
  481MOL0     C63364   8.797   5.859   5.761 -0.1507 -0.5130  0.8066
  481MOL0     C63365   8.756   5.830   5.894  0.8806  1.1249  0.1887
  481MOL0     C63366   8.629   5.774   5.916  0.4529 -0.5301 -0.2914
  481MOL0     C63367   8.535   5.759   5.811 -0.1540 -0.1618  0.7702
  481MOL0     O63368   8.412   5.705   5.838 -0.1017 -0.0438  0.4405
  481MOL0     C63369   8.330   5.653   5.731 -0.1754  0.2339 -0.0743
  481MOL0     C63370   8.383   5.516   5.678  0.4005  0.0021  0.1265
  481MOL0     C63371   8.285   5.401   5.669 -0.1742 -0.1754 -0.1160
  481MOL0     C63372   8.186   5.428   5.555  0.0865  0.1057  0.2641
  481MOL0     C63373   8.087   5.310   5.527 -0.4578 -0.4008  0.6450
  481MOL0     C63374   8.145   5.193   5.449 -1.2241 -0.1786  0.1514
  481MOL0     C63375   8.071   5.062   5.473 -0.4438 -0.3526  0.2835
  481MOL0     C63376   8.114   4.944   5.387 -0.3750 -0.0002 -0.2718
  481MOL0     N63377   8.261   4.946   5.368 -0.7571 -0.6316 -0.1259
  481MOL0     C63378   8.327   5.012   5.267 -0.7133 -0.3147 -1.2987
  481MOL0     C63379   8.439   4.943   5.248  0.2180 -0.0867 -0.3069
  481MOL0     C63380   8.544   4.970   5.144  0.9574 -0.2291 -0.1481
  481MOL0     C63381   8.657   5.063   5.190  0.0144 -0.3071 -0.0909
  481MOL0     C63382   8.753   5.099   5.079 -0.0522 -0.5847 -0.1622
  481MOL0     C63383   8.878   5.166   5.147 -0.2938  0.1886 -0.3110
  481MOL0     O63384   8.959   5.220   5.041 -0.1582  0.2636 -0.5043
  481MOL0     C63385   9.065   5.295   5.089  0.0778 -0.2939  0.3928
  481MOL0     C63386   9.179   5.302   5.004 -0.2157 -0.4114 -0.0991
  481MOL0     C63387   9.294   5.370   5.045  0.2911 -0.7453  1.1539
  481MOL0     C63388   9.296   5.439   5.170  0.0490  0.0262 -1.5745
  481MOL0     C63389   9.423   5.505   5.220 -0.2012  0.8086 -0.3101
  481MOL0     O63390   9.517   5.540   5.123  0.2467 -0.1105  0.3101
  481MOL0     C63391   9.634   5.618   5.148  1.1784 -0.2968 -0.1637
  481MOL0     C63392   9.627   5.756   5.178 -0.4281  0.7188 -1.0256
  481MOL0     C63393   9.746   5.824   5.183  0.0269  0.0134 -0.6984
  481MOL0     C63394   9.868   5.763   5.157 -0.0016 -0.5680 -0.5074
  481MOL0     O63395   9.976   5.839   5.155  0.0181 -0.3317  0.0317
  481MOL0     C63396  10.105   5.794   5.108  0.0959 -0.1914 -0.4408
  481MOL0     C63397  10.189   5.714   5.206  0.0188 -0.9167  0.0149
  481MOL0     C63398  10.318   5.665   5.147 -0.3462  0.9994  0.2490
  481MOL0     C63399  10.404   5.577   5.242 -0.1895  0.2362  0.2688
  481MOL0     C63400  10.554   5.561   5.199  0.6147  0.2629  0.1412
  481MOL0     C63401  10.574   5.539   5.051  0.2756 -0.0680 -0.8130
  481MOL0     C63402  10.721   5.515   4.999  0.5631  0.7226 -0.0122
  481MOL0     C63403  10.822   5.631   5.014  0.0768 -0.6141  0.6140
  481MOL0    Cl63404  10.750   5.793   5.032 -0.0930  0.2431 -0.5095
  481MOL0     C63405   9.879   5.625   5.141  0.5372  0.1576  0.5513
  481MOL0     C63406   9.759   5.558   5.131  0.4682 -0.0371 -0.2232
  481MOL0     O63407   9.433   5.544   5.337 -0.3662  0.4416  0.1307
  481MOL0     C63408   9.183   5.441   5.251 -0.4391  0.0759 -0.2685
  481MOL0     C63409   9.067   5.368   5.210  0.3208  0.0721 -0.4297
  481MOL0     N63410   8.438   4.833   5.323 -0.6946 -0.4076 -0.0927
  481MOL0     N63411   8.329   4.833   5.391  0.2457 -0.2416  0.3893
  481MOL0     C63412   8.584   5.790   5.680  0.9209 -0.6794  0.2611
  481MOL0     C63413   8.709   5.839   5.657  0.5684 -0.0359 -0.1425
  481MOL0     C63414   9.141   5.881   5.668 -0.0039 -0.6777 -0.2749
  481MOL0     C63415   9.183   5.989   5.754 -0.5758  0.2768 -0.0748
  481MOL0     C63416   9.309   6.032   5.774 -0.1329  0.6138 -0.9300
  481MOL0     C63417   9.410   5.967   5.697 -0.4399 -0.1158  0.1645
  481MOL0     O63418   9.544   6.009   5.695  0.7928 -0.5552  0.4943
  481MOL0     C63419   9.591   6.100   5.795 -0.2911 -0.1937  0.2830
  481MOL0     C63420   9.729   6.050   5.836 -0.5152 -0.0430 -0.0164
  481MOL0     C63421   9.719   5.916   5.918  0.0997 -0.0918 -0.0753
  481MOL0     C63422   9.855   5.852   5.925 -0.2461 -0.1565  0.4132
  481MOL0     C63423   9.861   5.719   5.976  0.0891 -0.7979  0.0921
  481MOL0     C63424   9.862   5.598   6.014 -0.5331  0.6743  0.0067
  481MOL0     C63425   9.377   5.860   5.616 -0.1280 -0.6965 -1.1550
  481MOL0     C63426   9.245   5.810   5.609  0.1433 -0.1073  0.2565
  481MOL0     H63427   8.818   5.855   5.979 -0.9883  1.3464  1.5311
  481MOL0     H63428   8.600   5.754   6.019 -0.2120  1.4816 -0.0401
  481MOL0     H63429   8.318   5.732   5.657  1.8814 -2.2902 -3.3805
  481MOL0     H63430   8.225   5.646   5.759 -0.1002  2.2378  0.8919
  481MOL0     H63431   8.465   5.488   5.746  2.8874  1.4271 -2.0853
  481MOL0     H63432   8.426   5.522   5.578 -0.4297 -0.5923 -0.2793
  481MOL0     H63433   8.227   5.397   5.761 -0.7114 -2.0908 -0.4982
  481MOL0     H63434   8.328   5.301   5.668  1.0853  0.3441 -1.1665
  481MOL0     H63435   8.126   5.517   5.576 -0.1637 -0.1411  0.6043
  481MOL0     H63436   8.246   5.445   5.466  2.5046  0.1665  1.8016
  481MOL0     H63437   8.009   5.360   5.469  1.4972  1.0090 -0.9255
  481MOL0     H63438   8.046   5.269   5.619 -0.3466  0.4049  1.0594
  481MOL0     H63439   8.253   5.181   5.468 -0.1562  3.8360 -2.2232
  481MOL0     H63440   8.152   5.220   5.343 -0.8166 -0.0737  0.2028
  481MOL0     H63441   8.076   5.030   5.577 -0.3619 -2.6695 -0.3685
  481MOL0     H63442   7.965   5.075   5.451 -0.4851 -0.5493  0.3681
  481MOL0     H63443   8.082   4.946   5.282 -0.8032  0.0945 -0.1429
  481MOL0     H63444   8.084   4.847   5.429 -1.2245 -1.0810 -3.0571
  481MOL0     H63445   8.281   5.103   5.230 -1.5347  0.3388  1.1013
  481MOL0     H63446   8.498   5.005   5.051 -1.0932 -1.7183  0.2316
  481MOL0     H63447   8.581   4.869   5.128 -3.8720 -1.8808 -2.6107
  481MOL0     H63448   8.719   5.013   5.265  1.1376  0.0965 -0.7221
  481MOL0     H63449   8.616   5.159   5.221 -0.6400 -0.7740  0.5149
  481MOL0     H63450   8.786   5.006   5.032 -0.2841 -1.3826  1.2010
  481MOL0     H63451   8.712   5.159   4.998 -1.0260 -0.7987  0.1531
  481MOL0     H63452   8.923   5.092   5.215  0.9472  1.4692  0.3174
  481MOL0     H63453   8.830   5.244   5.206 -0.3586  0.2151 -0.3994
  481MOL0     H63454   9.178   5.251   4.908  1.2606  1.3087 -1.0871
  481MOL0     H63455   9.383   5.358   4.984 -1.5763 -3.8461 -1.2620
  481MOL0     H63456   9.535   5.805   5.206  0.2845  2.0279 -0.8914
  481MOL0     H63457   9.738   5.925   5.221 -1.8327 -1.1310  2.3120
  481MOL0     H63458  10.170   5.879   5.083 -0.8442  0.6773  0.0010
  481MOL0     H63459  10.085   5.743   5.014 -0.2598  1.7756 -1.4952
  481MOL0     H63460  10.134   5.624   5.237 -3.0764  1.3327  1.6410
  481MOL0     H63461  10.212   5.784   5.286  0.6042 -2.9074  1.6764
  481MOL0     H63462  10.375   5.752   5.113 -0.5717  1.7595  1.7566
  481MOL0     H63463  10.302   5.593   5.065 -1.5127 -3.3034  3.8510
  481MOL0     H63464  10.406   5.625   5.341 -2.7716 -0.6503  0.8395
  481MOL0     H63465  10.370   5.473   5.248  0.4014  0.0562  0.5433
  481MOL0     H63466  10.603   5.489   5.266  2.0597 -0.6207 -1.7644
  481MOL0     H63467  10.598   5.657   5.226  0.7151  0.8574 -1.9656
  481MOL0     H63468  10.536   5.627   4.997  0.4624 -1.0631 -2.6491
  481MOL0     H63469  10.503   5.462   5.020  1.6286 -0.8271 -2.1426
  481MOL0     H63470  10.760   5.426   5.049  0.0070  0.9614  0.8538
  481MOL0     H63471  10.712   5.490   4.892 -0.4814 -1.2638  0.4867
  481MOL0     H63472  10.872   5.632   4.917 -1.8506  1.9356 -0.4690
  481MOL0     H63473  10.881   5.613   5.104  0.7648 -0.1063  0.2708
  481MOL0     H63474   9.970   5.566   5.138  0.3382 -0.1882 -3.4948
  481MOL0     H63475   9.768   5.455   5.097  1.1725  0.5133 -1.8037
  481MOL0     H63476   9.170   5.506   5.337  1.7361  0.3303 -0.0872
  481MOL0     H63477   8.978   5.367   5.272  1.0067 -0.6008  0.5782
  481MOL0     H63478   8.523   5.770   5.593  0.3959  3.2144 -0.4634
  481MOL0     H63479   8.739   5.872   5.558  2.3123 -2.1110 -0.3951
  481MOL0     H63480   9.115   6.044   5.819 -0.8863  2.1957 -1.9248
  481MOL0     H63481   9.340   6.113   5.839  1.2240 -1.0285  0.6190
  481MOL0     H63482   9.535   6.092   5.889  0.2191 -2.5428  0.4341
  481MOL0     H63483   9.577   6.204   5.762 -0.0458  0.5299  2.3349
  481MOL0     H63484   9.799   6.040   5.752 -0.8260  0.2867 -0.3181
  481MOL0     H63485   9.775   6.118   5.908 -1.0878  2.7850 -2.1575
  481MOL0     H63486   9.638   5.858   5.874 -0.6331  1.9807 -1.5677
  481MOL0     H63487   9.681   5.940   6.018  3.2815  0.1527  1.1986
  481MOL0     H63488   9.895   5.857   5.823 -1.9698 -3.0720 -0.5311
  481MOL0     H63489   9.919   5.913   5.990  0.0455  0.2503 -0.2420
  481MOL0     H63490   9.875   5.494   6.034 -2.1881  0.0027 -2.0459
  481MOL0     H63491   9.453   5.804   5.563 -0.7286 -1.4833 -1.1995
  481MOL0     H63492   9.221   5.713   5.567 -2.1645 -0.4866  2.2596
  482MOL0     O63493   1.052   9.868   8.891 -0.3806 -0.5634  0.7810
  482MOL0     C63494   1.071   9.748   8.858 -0.8284 -0.4377 -1.1116
  482MOL0     O63495   0.983   9.642   8.884 -0.1422  0.0796 -1.2363
  482MOL0     C63496   0.849   9.674   8.920  0.8629  0.1215  0.2957
  482MOL0     C63497   0.773   9.760   8.842  0.0715 -0.1603 -0.6509
  482MOL0     C63498   0.641   9.774   8.874  0.2528  0.4441  0.2335
  482MOL0     C63499   0.575   9.686   8.956 -0.2565 -0.0737 -0.4871
  482MOL0     O63500   0.442   9.700   8.974 -0.3864 -0.7487 -0.6443
  482MOL0     C63501   0.386   9.648   9.095  0.9534 -0.2738 -0.1333
  482MOL0     C63502   0.232   9.672   9.117  0.0767  0.3406 -0.2957
  482MOL0     C63503   0.184   9.820   9.091 -0.6035 -0.0450 -0.1398
  482MOL0     C63504   0.035   9.828   9.133  0.8056  0.4192 -0.1889
  482MOL0     C63505  -0.003   9.978   9.130  0.0454 -0.1625 -1.1065
  482MOL0     C63506  -0.151  10.010   9.145  0.4453 -0.2104 -0.4704
  482MOL0     C63507  -0.176  10.160   9.133 -0.6187  1.4565 -0.2788
  482MOL0     C63508  -0.324  10.211   9.137  0.6875  0.5960 -0.2950
  482MOL0     N63509  -0.342  10.352   9.152 -0.2307 -0.1064 -0.9305
  482MOL0     C63510  -0.437  10.420   9.083 -0.9641  0.3598  0.1153
  482MOL0     C63511  -0.491  10.510   9.177 -1.1435 -0.7721 -0.8010
  482MOL0     C63512  -0.607  10.604   9.164  0.0727  0.3117 -0.2989
  482MOL0     C63513  -0.736  10.534   9.208 -0.0619 -0.2552  0.3409
  482MOL0     C63514  -0.852  10.635   9.206  0.1867 -0.4750  0.4776
  482MOL0     C63515  -0.983  10.578   9.220  0.5130 -0.7481 -0.2170
  482MOL0     O63516  -1.074  10.679   9.190 -0.9427  0.0469 -0.0509
  482MOL0     C63517  -1.209  10.661   9.213 -0.8743  0.6339 -0.0938
  482MOL0     C63518  -1.287  10.770   9.187 -0.5929  0.1289  0.3164
  482MOL0     C63519  -1.425  10.759   9.209 -1.0293  0.7233  0.0101
  482MOL0     C63520  -1.482  10.636   9.248  0.2446 -0.0408  0.1760
  482MOL0     C63521  -1.631  10.610   9.244 -0.4770 -0.1388  0.0717
  482MOL0     O63522  -1.677  10.501   9.317  0.3344  0.6543 -0.0302
  482MOL0     C63523  -1.818  10.485   9.340 -0.1546  0.6457 -0.2660
  482MOL0     C63524  -1.888  10.537   9.445  0.5124  0.4191 -0.2631
  482MOL0     C63525  -2.027  10.521   9.452  0.6083  0.0108  0.2924
  482MOL0     C63526  -2.093  10.440   9.356 -0.6332  0.2260  0.5037
  482MOL0     O63527  -2.228  10.437   9.370 -0.6602  0.4240 -0.2066
  482MOL0     C63528  -2.273  10.310   9.416  0.4892  0.3041  0.5048
  482MOL0     C63529  -2.389  10.343   9.505 -0.5618 -0.3071 -0.5172
  482MOL0     C63530  -2.440  10.217   9.586 -0.6939 -0.6960  0.7165
  482MOL0     C63531  -2.502  10.111   9.490  0.0128 -0.8246 -1.0473
  482MOL0     C63532  -2.585  10.000   9.570 -0.1929  0.6988 -0.5507
  482MOL0     C63533  -2.662   9.902   9.474 -0.4517  0.4042 -0.4554
  482MOL0     C63534  -2.581   9.831   9.365 -0.4588 -0.7084  0.4178
  482MOL0     C63535  -2.649   9.712   9.307  0.5507  0.0167  0.2167
  482MOL0    Cl63536  -2.815   9.752   9.267  0.7011  0.1240  0.7131
  482MOL0     C63537  -2.020  10.383   9.250 -0.6484 -0.1535  0.1126
  482MOL0     C63538  -1.882  10.404   9.238  0.8384 -0.0190  0.0064
  482MOL0     O63539  -1.707  10.688   9.182 -0.1629 -0.5093  0.0585
  482MOL0     C63540  -1.399  10.533   9.295  0.4727 -0.3298 -0.3990
  482MOL0     C63541  -1.263  10.543   9.273  0.4058  0.3114 -0.2138
  482MOL0     N63542  -0.416  10.506   9.288 -0.0639 -0.5559 -0.2560
  482MOL0     N63543  -0.316  10.424   9.265  0.1824 -0.1554 -0.1914
  482MOL0     C63544   0.646   9.591   9.028 -0.2893  1.0131  0.5369
  482MOL0     C63545   0.781   9.588   9.010 -0.1009 -0.2307  0.3496
  482MOL0     C63546   1.196   9.723   8.801 -0.5365  0.9395  0.1372
  482MOL0     C63547   1.295   9.821   8.805 -1.1014 -0.3062 -0.0983
  482MOL0     C63548   1.431   9.799   8.758  0.8450 -0.1006 -0.2476
  482MOL0     C63549   1.467   9.672   8.702 -0.5882  0.1166 -0.0225
  482MOL0     O63550   1.591   9.629   8.661  0.0802 -0.3236  0.2060
  482MOL0     C63551   1.703   9.713   8.682 -1.0456 -0.8298 -0.1083
  482MOL0     C63552   1.714   9.824   8.574 -0.1978 -0.0112  0.3457
  482MOL0     C63553   1.732   9.753   8.436 -0.1879  0.0037  0.0734
  482MOL0     C63554   1.768   9.844   8.327  0.3803 -0.7467  0.3762
  482MOL0     C63555   1.911   9.878   8.316 -1.0839 -0.1651 -0.0123
  482MOL0     C63556   2.035   9.901   8.317  0.7542 -0.0523 -0.2460
  482MOL0     C63557   1.360   9.582   8.679 -0.1747  0.3834  0.1182
  482MOL0     C63558   1.229   9.608   8.727  0.6869 -0.7226 -0.2226
  482MOL0     H63559   0.824   9.809   8.759  1.7781  0.2972  0.6223
  482MOL0     H63560   0.587   9.852   8.822  1.7968  1.6025  0.3288
  482MOL0     H63561   0.435   9.696   9.180  2.1091  1.0071 -1.4646
  482MOL0     H63562   0.401   9.540   9.098  0.0101 -0.5122 -2.3769
  482MOL0     H63563   0.207   9.634   9.217  4.8159 -1.5769  0.4375
  482MOL0     H63564   0.187   9.601   9.047  3.0931 -0.4939 -1.5566
  482MOL0     H63565   0.204   9.852   8.988 -0.8131 -0.0159 -0.1725
  482MOL0     H63566   0.241   9.886   9.157  1.8536  0.2516 -2.3498
  482MOL0     H63567  -0.016   9.767   9.059  0.5653 -0.2676  0.5232
  482MOL0     H63568   0.029   9.788   9.235 -2.2908 -2.6546 -1.3940
  482MOL0     H63569   0.036  10.024   9.039  1.5682  0.3408 -0.2179
  482MOL0     H63570   0.051  10.020   9.215 -1.3621 -0.9994  0.2619
  482MOL0     H63571  -0.197   9.971   9.237  0.3277 -2.4176 -1.4003
  482MOL0     H63572  -0.215   9.965   9.068 -2.5113  0.9440  1.1442
  482MOL0     H63573  -0.115  10.221   9.200  2.2890 -0.3166 -1.1549
  482MOL0     H63574  -0.137  10.194   9.037  1.9474  4.3959  1.6084
  482MOL0     H63575  -0.374  10.165   9.223  3.1999  0.0412  0.9895
  482MOL0     H63576  -0.378  10.184   9.046  3.3921 -1.1103 -1.5325
  482MOL0     H63577  -0.484  10.378   8.994  1.6314 -4.3903  0.6305
  482MOL0     H63578  -0.621  10.636   9.060  1.6242 -0.7871 -0.8896
  482MOL0     H63579  -0.596  10.692   9.228 -3.9722  0.5474  0.3268
  482MOL0     H63580  -0.733  10.509   9.314 -0.3328  0.2714  0.4768
  482MOL0     H63581  -0.756  10.447   9.144 -1.2338  2.6205 -3.6434
  482MOL0     H63582  -0.839  10.703   9.290 -3.7769  0.6547  0.3505
  482MOL0     H63583  -0.850  10.694   9.114  2.5589 -0.4494  0.4770
  482MOL0     H63584  -0.982  10.558   9.327  1.9677 -1.2271 -0.3020
  482MOL0     H63585  -1.012  10.494   9.156  1.2456 -0.1308 -1.3928
  482MOL0     H63586  -1.246  10.861   9.144  0.6050 -0.6982 -0.3621
  482MOL0     H63587  -1.491  10.840   9.181 -1.2468  0.0703 -1.4401
  482MOL0     H63588  -1.835  10.579   9.530 -0.3858  1.0198  0.0254
  482MOL0     H63589  -2.084  10.568   9.531  1.0711 -2.1710  2.0328
  482MOL0     H63590  -2.200  10.254   9.475 -0.5915  0.8003  2.4204
  482MOL0     H63591  -2.303  10.255   9.326  0.2498  0.3209  0.5736
  482MOL0     H63592  -2.469  10.388   9.446  0.3312  1.3741 -0.5146
  482MOL0     H63593  -2.355  10.416   9.579 -0.6258 -0.7261 -0.0621
  482MOL0     H63594  -2.528  10.247   9.645 -0.4210  1.2831  0.2032
  482MOL0     H63595  -2.358  10.176   9.646 -0.4619 -1.9555 -0.4269
  482MOL0     H63596  -2.564  10.166   9.419 -0.9525  0.2170  0.5502
  482MOL0     H63597  -2.416  10.057   9.447  1.4908 -0.4360  1.2234
  482MOL0     H63598  -2.660  10.049   9.632 -0.1682 -0.5478  0.4997
  482MOL0     H63599  -2.515   9.941   9.630 -2.0250  0.2940  1.2546
  482MOL0     H63600  -2.734   9.970   9.426  1.3967  1.3521 -2.0235
  482MOL0     H63601  -2.715   9.827   9.533  1.2010 -3.1052 -3.1227
  482MOL0     H63602  -2.559   9.900   9.283 -0.9407  2.3437  2.6847
  482MOL0     H63603  -2.487   9.792   9.406 -1.0267 -0.4710  2.0114
  482MOL0     H63604  -2.652   9.637   9.387  1.4772 -1.0251 -0.7038
  482MOL0     H63605  -2.592   9.679   9.220  0.9202 -0.9529  0.8045
  482MOL0     H63606  -2.073  10.314   9.185  0.7101 -0.6254 -0.5482
  482MOL0     H63607  -1.821  10.361   9.160  0.1893 -0.6779 -0.1446
  482MOL0     H63608  -1.445  10.450   9.348 -2.9243  2.2451  1.0452
  482MOL0     H63609  -1.191  10.466   9.299 -0.4383 -1.3139 -2.3946
  482MOL0     H63610   0.603   9.520   9.097 -3.2926 -0.8697 -2.9131
  482MOL0     H63611   0.845   9.513   9.054 -0.5534 -0.6820  0.2448
  482MOL0     H63612   1.278   9.909   8.866 -1.9355  1.1357 -2.2821
  482MOL0     H63613   1.500   9.882   8.772 -0.2680  1.0346 -1.1900
  482MOL0     H63614   1.794   9.652   8.684 -0.2999  0.1836  2.9620
  482MOL0     H63615   1.695   9.756   8.782 -0.2932  0.3304 -0.5186
  482MOL0     H63616   1.623   9.884   8.568 -2.5633 -3.1608  1.6042
  482MOL0     H63617   1.799   9.883   8.609  0.8936 -1.4781  0.2774
  482MOL0     H63618   1.645   9.697   8.401  0.3296 -0.5454 -0.3565
  482MOL0     H63619   1.812   9.679   8.449 -0.3624 -0.1405  0.3194
  482MOL0     H63620   1.727   9.796   8.238 -2.5000 -1.3202  1.9030
  482MOL0     H63621   1.709   9.935   8.342  0.8238 -0.2760 -0.6190
  482MOL0     H63622   2.140   9.923   8.317  0.7239  0.1092  0.3251
  482MOL0     H63623   1.377   9.485   8.635  0.3155 -0.4905  2.1408
  482MOL0     H63624   1.149   9.536   8.714 -2.5119  2.6015 -0.2965
  483MOL0     O63625   4.406   8.100   5.627  0.1059 -0.5478 -0.2632
  483MOL0     C63626   4.389   8.214   5.580  0.4132  0.2285 -1.2241
  483MOL0     O63627   4.263   8.263   5.540 -0.5367 -0.3412  0.3328
  483MOL0     C63628   4.139   8.194   5.558  0.5110  0.7030 -0.6346
  483MOL0     C63629   4.116   8.055   5.574 -0.7545  0.3652 -0.1743
  483MOL0     C63630   3.987   7.998   5.569 -0.0870  0.4937 -0.2572
  483MOL0     C63631   3.877   8.083   5.561 -0.4691  0.9969  0.0472
  483MOL0     O63632   3.748   8.031   5.560  0.2532  0.3926 -1.2176
  483MOL0     C63633   3.634   8.104   5.619  0.3320  0.4290  0.9041
  483MOL0     C63634   3.530   7.993   5.620 -0.6184  0.4102 -1.1906
  483MOL0     C63635   3.394   8.046   5.665  0.6343 -0.0983 -0.1699
  483MOL0     C63636   3.282   7.936   5.659 -0.1551  0.1737  0.0373
  483MOL0     C63637   3.137   7.983   5.691 -0.1286 -0.3664  0.0481
  483MOL0     C63638   3.040   7.881   5.644  0.7541 -0.2724 -0.1392
  483MOL0     C63639   2.900   7.920   5.683 -0.5531 -1.0833 -0.5350
  483MOL0     C63640   2.795   7.822   5.635 -0.5562  0.9340  0.5754
  483MOL0     N63641   2.762   7.850   5.497  0.7090  0.0887 -0.2264
  483MOL0     C63642   2.631   7.869   5.469  0.0657 -0.7964 -0.4060
  483MOL0     C63643   2.610   7.837   5.342 -0.0259  0.7278 -0.6939
  483MOL0     C63644   2.471   7.831   5.269  0.4025  0.3398 -0.9235
  483MOL0     C63645   2.404   7.978   5.284 -0.6339  0.8665 -0.2704
  483MOL0     C63646   2.277   8.007   5.206  0.7471 -0.0009  0.2043
  483MOL0     C63647   2.305   8.030   5.061  0.5052 -0.5088 -0.6402
  483MOL0     O63648   2.195   8.093   4.993 -0.2049 -0.3582 -0.0265
  483MOL0     C63649   2.081   8.018   4.992 -1.3921 -0.1696 -0.2071
  483MOL0     C63650   1.973   8.039   5.074  0.0194 -1.2629 -0.5305
  483MOL0     C63651   1.850   7.965   5.065  0.8174  0.3195  0.0802
  483MOL0     C63652   1.831   7.870   4.967  0.1616  0.0167  0.6307
  483MOL0     C63653   1.707   7.799   4.940 -0.3991  0.0876 -0.5834
  483MOL0     O63654   1.594   7.854   4.996 -0.1780 -0.4058  0.5419
  483MOL0     C63655   1.467   7.802   4.963  0.5506  0.6149  0.2997
  483MOL0     C63656   1.383   7.750   5.061  0.0342 -0.0242 -0.2813
  483MOL0     C63657   1.243   7.721   5.043 -1.0504  0.7324  0.3717
  483MOL0     C63658   1.184   7.742   4.915  0.9384 -0.2652 -1.2598
  483MOL0     O63659   1.053   7.699   4.896 -0.4988 -0.5160  0.2841
  483MOL0     C63660   1.006   7.716   4.761 -0.8138 -0.3393  0.4170
  483MOL0     C63661   0.871   7.645   4.737 -0.6795  0.1252 -0.6353
  483MOL0     C63662   0.775   7.692   4.846 -0.8131 -0.1080  0.2467
  483MOL0     C63663   0.631   7.655   4.808  0.0482  0.2874 -0.8095
  483MOL0     C63664   0.532   7.684   4.925 -0.0345 -0.9347 -0.4695
  483MOL0     C63665   0.399   7.608   4.913  0.3540 -0.8489 -0.2017
  483MOL0     C63666   0.312   7.596   5.033  0.1068  0.7138  0.4810
  483MOL0     C63667   0.181   7.682   5.024  0.8487 -0.3349  0.8177
  483MOL0    Cl63668   0.079   7.599   4.899  0.2533 -0.0472 -0.6277
  483MOL0     C63669   1.272   7.791   4.811 -0.2780  0.5323  0.3793
  483MOL0     C63670   1.407   7.823   4.837  0.0317  0.1613  0.5190
  483MOL0     O63671   1.710   7.711   4.853 -0.2168  0.5131  0.5055
  483MOL0     C63672   1.946   7.837   4.892 -0.2800 -1.2059  0.1138
  483MOL0     C63673   2.067   7.911   4.901 -0.4713 -0.0217  0.4076
  483MOL0     N63674   2.737   7.803   5.297 -0.6358  0.9502 -0.4527
  483MOL0     N63675   2.835   7.806   5.383  0.3757 -0.4598 -0.5925
  483MOL0     C63676   3.900   8.216   5.553  0.1823  0.4230  0.3495
  483MOL0     C63677   4.029   8.278   5.564  0.2747 -0.5558 -0.1033
  483MOL0     C63678   4.508   8.294   5.552 -0.1947  0.7008  0.9372
  483MOL0     C63679   4.499   8.402   5.461 -0.2713  0.4951  0.2283
  483MOL0     C63680   4.619   8.480   5.423 -0.3298  0.7026 -0.0554
  483MOL0     C63681   4.739   8.448   5.478 -0.6103 -0.0792  0.7629
  483MOL0     O63682   4.847   8.527   5.435  0.0967  0.2812  0.2107
  483MOL0     C63683   4.981   8.488   5.473 -0.8467 -0.1449  0.4259
  483MOL0     C63684   5.083   8.564   5.384  0.1374 -0.0585  0.0309
  483MOL0     C63685   5.222   8.535   5.431  0.1046  0.2650 -0.1073
  483MOL0     C63686   5.336   8.602   5.351  0.5025 -0.7598 -0.4984
  483MOL0     C63687   5.334   8.561   5.208  0.2928  0.4195 -0.4295
  483MOL0     C63688   5.345   8.532   5.093 -0.0804 -0.4485  0.2656
  483MOL0     C63689   4.745   8.339   5.576  0.8640 -0.8503  0.0734
  483MOL0     C63690   4.628   8.269   5.617  0.6590  0.6523  1.2988
  483MOL0     H63691   4.208   7.998   5.576 -0.7011  0.1894 -3.0210
  483MOL0     H63692   3.983   7.890   5.560 -0.8520  0.6195 -1.8571
  483MOL0     H63693   3.597   8.182   5.553 -0.7770 -0.6542  0.2122
  483MOL0     H63694   3.662   8.139   5.719 -2.6180  1.6883  1.3924
  483MOL0     H63695   3.568   7.928   5.698 -1.5571 -0.2275 -1.2527
  483MOL0     H63696   3.530   7.946   5.521  1.5294 -0.5009 -0.8089
  483MOL0     H63697   3.362   8.134   5.608  1.2777 -0.3189 -0.8734
  483MOL0     H63698   3.396   8.068   5.772  1.3845 -3.8910  0.7482
  483MOL0     H63699   3.283   7.891   5.559 -0.9438 -2.6669  1.1924
  483MOL0     H63700   3.314   7.853   5.722 -0.4191 -1.6601 -2.1202
  483MOL0     H63701   3.116   8.079   5.642  0.1338  0.4944  1.5397
  483MOL0     H63702   3.120   7.996   5.798 -1.6166  1.4985 -0.3512
  483MOL0     H63703   3.065   7.790   5.699 -1.2006 -1.5102 -1.1425
  483MOL0     H63704   3.045   7.852   5.539  0.0794  1.0495 -0.5635
  483MOL0     H63705   2.894   7.941   5.790  0.6784 -0.8480 -0.5056
  483MOL0     H63706   2.884   8.016   5.632  1.6383  1.1833  2.6401
  483MOL0     H63707   2.719   7.865   5.702 -0.1417  3.2004 -0.3142
  483MOL0     H63708   2.822   7.718   5.651  0.1795  1.1897  1.0408
  483MOL0     H63709   2.550   7.917   5.522 -1.3328 -1.5038 -1.8092
  483MOL0     H63710   2.409   7.756   5.319  1.1644 -3.9897 -5.6322
  483MOL0     H63711   2.489   7.809   5.163 -1.0311 -0.8997 -0.9548
  483MOL0     H63712   2.476   8.056   5.257 -0.4147  0.0797 -2.1443
  483MOL0     H63713   2.379   7.980   5.390 -1.2378 -0.1986 -0.3835
  483MOL0     H63714   2.211   7.925   5.234 -0.4011  0.8865  0.1733
  483MOL0     H63715   2.234   8.100   5.246  2.7917  0.3969  1.6566
  483MOL0     H63716   2.320   7.936   5.007 -1.2164 -0.8592 -0.5756
  483MOL0     H63717   2.398   8.087   5.056  0.0411  0.1829 -2.1568
  483MOL0     H63718   1.981   8.118   5.149 -1.6367 -0.1065 -1.5002
  483MOL0     H63719   1.778   7.986   5.145  2.3636  0.6281  1.4379
  483MOL0     H63720   1.426   7.737   5.160 -0.1562 -1.6269 -0.3871
  483MOL0     H63721   1.196   7.674   5.129  1.9870  0.3689  1.9950
  483MOL0     H63722   1.080   7.665   4.698 -1.2462  0.5198 -0.8123
  483MOL0     H63723   1.004   7.825   4.752 -2.4305 -0.0706  2.9707
  483MOL0     H63724   0.890   7.538   4.750  0.9587  0.3394 -1.1315
  483MOL0     H63725   0.830   7.692   4.647 -0.6230  2.4981  0.4829
  483MOL0     H63726   0.781   7.802   4.846 -3.8447  0.1545  0.9669
  483MOL0     H63727   0.806   7.649   4.942  1.0050  0.0216 -0.2499
  483MOL0     H63728   0.607   7.714   4.719  0.4570  2.9207  0.7262
  483MOL0     H63729   0.627   7.549   4.780 -4.4857  0.1414 -0.2749
  483MOL0     H63730   0.513   7.792   4.931 -1.3986 -0.9793 -2.7590
  483MOL0     H63731   0.579   7.641   5.014 -2.2193 -1.9109  0.2927
  483MOL0     H63732   0.417   7.505   4.880  3.5911 -0.6229  0.5323
  483MOL0     H63733   0.347   7.664   4.834 -0.4963 -0.9933  0.2423
  483MOL0     H63734   0.277   7.493   5.031 -1.5091  1.2496 -0.2931
  483MOL0     H63735   0.370   7.625   5.122  0.9275 -2.4222  1.1063
  483MOL0     H63736   0.191   7.786   4.991  0.8558 -0.7009 -0.3689
  483MOL0     H63737   0.121   7.672   5.115  0.2566 -6.1196  0.1593
  483MOL0     H63738   1.231   7.816   4.713  1.6509 -0.5950 -0.7753
  483MOL0     H63739   1.455   7.865   4.749 -0.2333 -0.7791 -0.1014
  483MOL0     H63740   1.938   7.777   4.802  0.3641  1.1188 -1.5787
  483MOL0     H63741   2.145   7.886   4.830 -0.6186 -1.0495  0.5919
  483MOL0     H63742   3.810   8.276   5.541 -0.7265 -0.4902  2.0462
  483MOL0     H63743   4.033   8.386   5.558 -3.2655 -0.3356 -0.3226
  483MOL0     H63744   4.410   8.440   5.410  0.5143  0.8082 -0.9494
  483MOL0     H63745   4.610   8.550   5.341 -1.0314 -0.0267 -0.6213
  483MOL0     H63746   5.000   8.382   5.457  1.0843  0.2417 -0.0278
  483MOL0     H63747   4.999   8.511   5.579  0.1996  2.0866 -0.1841
  483MOL0     H63748   5.083   8.540   5.277  1.6498 -0.1579  0.0399
  483MOL0     H63749   5.064   8.672   5.393 -2.4606 -0.5811  2.1998
  483MOL0     H63750   5.233   8.426   5.426 -3.6855 -0.3453  1.4115
  483MOL0     H63751   5.229   8.551   5.539  0.0576  1.0012 -0.2066
  483MOL0     H63752   5.332   8.711   5.359  2.8905 -0.7698  2.0022
  483MOL0     H63753   5.434   8.569   5.385  0.2238 -1.0358  0.0411
  483MOL0     H63754   5.363   8.494   4.995 -0.4749  0.1270 -0.0341
  483MOL0     H63755   4.845   8.315   5.613  1.6336 -0.5000 -1.6650
  483MOL0     H63756   4.624   8.187   5.688  0.0360  0.2449  0.7978
  484MOL0     O63757   2.541   7.030   8.673 -0.1079  0.0034  0.3166
  484MOL0     C63758   2.540   7.150   8.688 -0.1207 -0.8460  0.6021
  484MOL0     O63759   2.429   7.225   8.714  0.1742 -0.1293 -0.0347
  484MOL0     C63760   2.304   7.163   8.685 -0.2392  0.5037 -0.8059
  484MOL0     C63761   2.261   7.138   8.552 -0.7641 -0.0515 -0.1737
  484MOL0     C63762   2.141   7.072   8.525  0.5742  0.3262 -0.1822
  484MOL0     C63763   2.042   7.061   8.625 -0.9405  0.2588 -0.3194
  484MOL0     O63764   1.915   7.024   8.598  0.0805 -0.9781 -0.1080
  484MOL0     C63765   1.863   7.056   8.468 -0.0161 -0.3232  0.5687
  484MOL0     C63766   1.727   7.116   8.475  0.2492  0.6034 -0.1188
  484MOL0     C63767   1.613   7.030   8.542 -0.0575  0.6215 -0.0426
  484MOL0     C63768   1.493   7.119   8.590  0.6232 -0.9076  0.3058
  484MOL0     C63769   1.368   7.034   8.637  0.0119 -0.0243 -0.2487
  484MOL0     C63770   1.241   7.110   8.671 -0.6534  0.5390  0.5015
  484MOL0     C63771   1.262   7.203   8.792  0.3214 -1.8325 -0.5851
  484MOL0     C63772   1.123   7.260   8.833 -0.7734  0.4799 -0.3207
  484MOL0     N63773   1.122   7.336   8.954  0.0725 -0.4235 -0.2186
  484MOL0     C63774   1.029   7.326   9.057  0.1092 -0.4107 -0.5874
  484MOL0     C63775   1.032   7.440   9.127 -0.7027 -0.5920 -0.7284
  484MOL0     C63776   0.954   7.450   9.252  0.2285  0.7073 -0.9291
  484MOL0     C63777   0.812   7.495   9.230  0.1977 -0.2982 -0.6397
  484MOL0     C63778   0.729   7.458   9.344 -0.0877 -0.3779  0.1787
  484MOL0     C63779   0.581   7.479   9.300 -0.1381 -0.1740 -0.5028
  484MOL0     O63780   0.538   7.386   9.203 -0.1538  0.0467  0.5941
  484MOL0     C63781   0.403   7.399   9.163 -0.0298  0.7090 -0.3431
  484MOL0     C63782   0.370   7.395   9.033  0.1779 -0.6770 -0.5349
  484MOL0     C63783   0.236   7.414   8.994 -0.1901  0.1857  0.7248
  484MOL0     C63784   0.132   7.422   9.082 -0.8897  0.3147 -0.5324
  484MOL0     C63785  -0.010   7.436   9.042 -0.0729 -0.0032 -0.0655
  484MOL0     O63786  -0.107   7.394   9.128 -0.4458  0.2827 -0.3920
  484MOL0     C63787  -0.235   7.407   9.091  0.4072  0.0654  0.0095
  484MOL0     C63788  -0.334   7.468   9.174  0.9417 -0.2608 -0.5773
  484MOL0     C63789  -0.471   7.451   9.149  0.5748 -0.3245 -0.3372
  484MOL0     C63790  -0.513   7.396   9.023  0.6558 -0.3389  0.0663
  484MOL0     O63791  -0.651   7.407   8.997 -0.4960 -0.1246 -0.1388
  484MOL0     C63792  -0.712   7.301   8.920  0.1308 -0.1824 -0.2670
  484MOL0     C63793  -0.865   7.307   8.927  1.1792 -0.2235 -0.9048
  484MOL0     C63794  -0.919   7.244   9.054 -0.3006 -0.8741  0.2874
  484MOL0     C63795  -0.940   7.100   9.019 -0.1984  0.1913  0.2860
  484MOL0     C63796  -1.000   7.006   9.135 -1.0215  0.6915  0.4516
  484MOL0     C63797  -0.877   6.993   9.235 -0.6050  1.4038 -0.2615
  484MOL0     C63798  -0.884   6.853   9.304 -0.3157 -0.1070 -0.3507
  484MOL0     C63799  -0.781   6.838   9.415 -0.5483 -0.2102  0.2985
  484MOL0    Cl63800  -0.741   6.677   9.467 -0.1782 -0.3427  0.7077
  484MOL0     C63801  -0.415   7.344   8.943 -0.2261  1.4790  0.1155
  484MOL0     C63802  -0.280   7.340   8.982  0.4536  0.5249 -0.1575
  484MOL0     O63803  -0.031   7.463   8.925  0.8116  0.5340  0.0242
  484MOL0     C63804   0.164   7.414   9.215 -0.4204  0.4876  0.5625
  484MOL0     C63805   0.299   7.402   9.254 -0.6702 -0.3756  0.1934
  484MOL0     N63806   1.124   7.519   9.068 -0.3015 -0.1753  0.0554
  484MOL0     N63807   1.173   7.461   8.968 -0.6563  0.0663 -0.7604
  484MOL0     C63808   2.084   7.094   8.758  0.4691  0.6735 -0.4115
  484MOL0     C63809   2.206   7.159   8.781 -0.6394  0.2827  0.2508
  484MOL0     C63810   2.676   7.227   8.691 -0.0368  0.0699 -0.5312
  484MOL0     C63811   2.795   7.156   8.651 -0.1586 -0.1312 -0.5202
  484MOL0     C63812   2.920   7.219   8.672  0.5089 -0.8029  0.7397
  484MOL0     C63813   2.932   7.354   8.709 -0.4588 -0.5510  0.0207
  484MOL0     O63814   3.057   7.413   8.710 -0.4766  0.0028  0.1263
  484MOL0     C63815   3.074   7.556   8.691  0.1656  0.4986  0.2722
  484MOL0     C63816   3.225   7.584   8.707  0.0148 -0.3029  0.2878
  484MOL0     C63817   3.310   7.503   8.604  1.0379  0.2866  0.4752
  484MOL0     C63818   3.444   7.554   8.585 -0.5761  1.0595 -0.0623
  484MOL0     C63819   3.456   7.695   8.545  0.4156 -0.3855  0.1844
  484MOL0     C63820   3.445   7.814   8.510  0.2723  0.0592  0.7025
  484MOL0     C63821   2.816   7.416   8.754  0.4087 -0.5802  0.4233
  484MOL0     C63822   2.690   7.357   8.734  0.3528 -0.0625 -0.4257
  484MOL0     H63823   2.339   7.156   8.479 -0.3784  0.5010  0.3710
  484MOL0     H63824   2.124   7.069   8.418 -1.1930  1.8986  0.0216
  484MOL0     H63825   1.842   6.961   8.417 -3.4694  0.2567  0.6312
  484MOL0     H63826   1.928   7.124   8.412 -0.0417 -1.3454 -0.7338
  484MOL0     H63827   1.687   7.141   8.376 -0.0930 -0.1774 -0.1862
  484MOL0     H63828   1.729   7.207   8.536  1.5336  0.1596  0.5314
  484MOL0     H63829   1.651   6.986   8.635  2.4967  0.4056 -1.0937
  484MOL0     H63830   1.584   6.945   8.479 -1.4368  0.4421  0.7985
  484MOL0     H63831   1.517   7.179   8.677  0.4875 -2.9878  1.8576
  484MOL0     H63832   1.458   7.186   8.511  1.5162 -1.9693 -1.0387
  484MOL0     H63833   1.405   6.985   8.728  1.9512 -0.4248 -1.1973
  484MOL0     H63834   1.347   6.967   8.553 -2.9800  1.6012 -0.9352
  484MOL0     H63835   1.156   7.043   8.690  2.0036 -3.3655 -0.1233
  484MOL0     H63836   1.199   7.159   8.583 -2.7007 -3.9879 -1.3984
  484MOL0     H63837   1.301   7.148   8.879 -2.1050  1.6756  3.0987
  484MOL0     H63838   1.327   7.290   8.782  1.3375 -2.1521  2.2031
  484MOL0     H63839   1.067   7.168   8.854  0.3781 -0.1815 -0.0942
  484MOL0     H63840   1.073   7.319   8.756 -3.0590 -0.4426  0.3707
  484MOL0     H63841   0.965   7.245   9.091 -0.0874 -0.3547 -0.8214
  484MOL0     H63842   1.010   7.512   9.322  2.1019 -1.1364 -0.6858
  484MOL0     H63843   0.949   7.347   9.289 -0.8134  0.0895 -2.6490
  484MOL0     H63844   0.771   7.449   9.140 -0.2856 -1.0681 -0.0389
  484MOL0     H63845   0.814   7.604   9.217 -2.2336  0.2106  2.2725
  484MOL0     H63846   0.751   7.357   9.378 -0.0576 -0.2261  0.6130
  484MOL0     H63847   0.738   7.528   9.428 -4.0693  1.9836 -1.0681
  484MOL0     H63848   0.564   7.584   9.274  2.0550  0.2223 -0.5106
  484MOL0     H63849   0.525   7.465   9.393  1.7365  1.2234  0.9059
  484MOL0     H63850   0.445   7.379   8.956 -0.5766  1.3212 -1.7559
  484MOL0     H63851   0.227   7.399   8.887 -0.9037 -0.2225  0.8379
  484MOL0     H63852  -0.299   7.521   9.262 -1.4228 -0.4610  0.5709
  484MOL0     H63853  -0.549   7.470   9.222  0.0406 -0.2443 -0.9201
  484MOL0     H63854  -0.677   7.205   8.959 -1.0635 -0.1365  0.9962
  484MOL0     H63855  -0.677   7.303   8.816  3.3466 -1.8353  0.6464
  484MOL0     H63856  -0.906   7.264   8.836  0.6303 -0.8999 -0.3469
  484MOL0     H63857  -0.902   7.410   8.922  1.6728  0.0772  0.8637
  484MOL0     H63858  -1.010   7.298   9.082  0.2107 -0.4944  1.2736
  484MOL0     H63859  -0.843   7.256   9.131 -0.4771 -2.0844  0.6778
  484MOL0     H63860  -1.018   7.098   8.943 -2.1415  4.2391  1.8959
  484MOL0     H63861  -0.847   7.057   8.981 -0.9091  1.3927 -3.1173
  484MOL0     H63862  -1.030   6.910   9.092 -3.4075  1.6854 -0.2771
  484MOL0     H63863  -1.086   7.052   9.184 -3.0190 -0.7855 -1.4830
  484MOL0     H63864  -0.881   7.074   9.308  0.9900  2.3310 -1.1421
  484MOL0     H63865  -0.781   7.003   9.183  0.7388 -2.2168  1.2294
  484MOL0     H63866  -0.984   6.845   9.348 -1.8450  1.8012 -3.1779
  484MOL0     H63867  -0.877   6.773   9.230 -0.1548 -0.0375 -0.4105
  484MOL0     H63868  -0.825   6.882   9.506 -2.3811 -4.4838  1.7381
  484MOL0     H63869  -0.691   6.893   9.386  0.8229 -1.7095  1.5641
  484MOL0     H63870  -0.427   7.283   8.853  2.2346  0.6418  0.2797
  484MOL0     H63871  -0.217   7.276   8.921 -2.3822 -0.4763 -2.2875
  484MOL0     H63872   0.083   7.434   9.283 -1.2650  1.8941 -0.7869
  484MOL0     H63873   0.332   7.403   9.358  0.7655 -2.3814 -0.2020
  484MOL0     H63874   2.019   7.076   8.843  2.5633  0.9650  1.3453
  484MOL0     H63875   2.240   7.194   8.878  0.8516 -1.1777  0.2922
  484MOL0     H63876   2.790   7.058   8.606  0.9300 -0.3608 -0.1620
  484MOL0     H63877   3.009   7.162   8.647 -0.0778 -1.2555 -0.4129
  484MOL0     H63878   3.017   7.614   8.764 -0.4823 -0.4792  0.5514
  484MOL0     H63879   3.041   7.580   8.589 -0.6639 -3.4463 -0.5337
  484MOL0     H63880   3.232   7.693   8.695  1.5039 -0.1413  2.0994
  484MOL0     H63881   3.250   7.552   8.809  0.3470 -1.9110 -0.2784
  484MOL0     H63882   3.260   7.518   8.508 -1.0155 -1.5526  1.1527
  484MOL0     H63883   3.310   7.394   8.609  3.2528  0.1292 -1.2193
  484MOL0     H63884   3.493   7.540   8.682 -1.7545  1.8030  0.6611
  484MOL0     H63885   3.506   7.489   8.522 -0.6763  0.3032  0.6036
  484MOL0     H63886   3.433   7.910   8.463  2.2776  0.4514  0.9003
  484MOL0     H63887   2.828   7.522   8.775  1.7419 -0.6689  0.1462
  484MOL0     H63888   2.597   7.410   8.755  0.2186  0.0109 -1.1851
  485MOL0     O63889   5.274   3.538   1.990  0.0747  0.1210 -0.1371
  485MOL0     C63890   5.346   3.559   2.083 -0.2774  0.1388  0.1903
  485MOL0     O63891   5.331   3.656   2.179  0.0954  0.1560  0.9629
  485MOL0     C63892   5.223   3.746   2.173 -0.3506  0.3970  1.3182
  485MOL0     C63893   5.245   3.875   2.211  0.5478 -0.1423 -0.1198
  485MOL0     C63894   5.142   3.969   2.232 -0.3766  0.7634 -0.3203
  485MOL0     C63895   5.016   3.931   2.193 -0.1184  0.3843 -0.2298
  485MOL0     O63896   4.917   4.016   2.216 -0.0853 -0.2359  0.1130
  485MOL0     C63897   4.906   4.115   2.109 -0.0903  0.6778  0.2699
  485MOL0     C63898   4.831   4.051   1.987 -0.6344 -0.4568 -0.3582
  485MOL0     C63899   4.691   3.997   2.022 -0.4894  0.3415 -0.1030
  485MOL0     C63900   4.608   3.960   1.899  0.7117 -0.1166  0.0985
  485MOL0     C63901   4.459   3.948   1.936  0.8575 -0.7180  0.0295
  485MOL0     C63902   4.449   3.806   1.999  0.8385  0.6700 -0.1047
  485MOL0     C63903   4.310   3.749   1.996  0.2025 -0.0884  0.0882
  485MOL0     C63904   4.216   3.803   2.095  0.5056 -0.1241 -0.3030
  485MOL0     N63905   4.093   3.724   2.086 -0.8840 -0.9463 -0.4740
  485MOL0     C63906   3.975   3.774   2.040 -0.6794  0.3028  0.3371
  485MOL0     C63907   3.872   3.687   2.065  0.0390 -0.3452  0.6577
  485MOL0     C63908   3.727   3.691   2.037  0.2383 -0.0231  0.0271
  485MOL0     C63909   3.670   3.556   2.058  0.2060  0.9360  0.2286
  485MOL0     C63910   3.522   3.542   2.002  0.2316  0.3762 -0.1451
  485MOL0     C63911   3.494   3.531   1.851 -0.0024  0.1339  0.3407
  485MOL0     O63912   3.385   3.440   1.816 -0.4651  0.2627 -0.7221
  485MOL0     C63913   3.256   3.478   1.842  0.5460 -0.2784 -0.6150
  485MOL0     C63914   3.206   3.603   1.803  0.2033 -0.1709 -0.0187
  485MOL0     C63915   3.068   3.628   1.819  0.6270 -0.3677 -0.0180
  485MOL0     C63916   2.980   3.529   1.869 -0.0189  0.8134 -0.3487
  485MOL0     C63917   2.829   3.547   1.853 -0.3202  0.7379 -0.4227
  485MOL0     O63918   2.776   3.673   1.837  0.2028  0.0976 -0.4744
  485MOL0     C63919   2.637   3.684   1.811  0.1225 -0.3441  0.0627
  485MOL0     C63920   2.614   3.764   1.697  0.4226 -0.4170 -0.6992
  485MOL0     C63921   2.480   3.789   1.656  0.4741 -0.3941 -0.9221
  485MOL0     C63922   2.368   3.740   1.737  0.2086  0.1486 -0.0958
  485MOL0     O63923   2.248   3.777   1.681  0.6319  0.2228 -0.5012
  485MOL0     C63924   2.129   3.743   1.759 -0.3367 -0.2619  0.1816
  485MOL0     C63925   1.992   3.789   1.703  0.1983 -0.0542  0.4251
  485MOL0     C63926   1.880   3.720   1.769  1.0416  0.4924 -0.7892
  485MOL0     C63927   1.751   3.783   1.710 -0.0854  0.2420 -0.4883
  485MOL0     C63928   1.636   3.726   1.797  0.1954  0.2254 -1.1106
  485MOL0     C63929   1.498   3.756   1.754  0.7989 -1.0609  0.3693
  485MOL0     C63930   1.396   3.685   1.847 -0.2421  0.5385  0.2782
  485MOL0     C63931   1.252   3.747   1.840  0.1463  0.1178  0.7611
  485MOL0    Cl63932   1.167   3.698   1.693 -0.0499  0.6737 -0.1453
  485MOL0     C63933   2.395   3.658   1.853 -0.4152 -0.2742  0.1949
  485MOL0     C63934   2.528   3.622   1.882  0.8807 -0.4011 -0.3102
  485MOL0     O63935   2.762   3.445   1.866 -0.1857 -0.4173  0.1978
  485MOL0     C63936   3.035   3.408   1.903  0.0012  0.6297  1.6678
  485MOL0     C63937   3.175   3.387   1.888  0.0208  0.0675  0.3207
  485MOL0     N63938   3.941   3.573   2.114  0.4518  0.3087 -0.2938
  485MOL0     N63939   4.063   3.602   2.134 -0.3966  0.2792  1.0692
  485MOL0     C63940   4.991   3.803   2.152  0.9382 -0.0085  0.3925
  485MOL0     C63941   5.088   3.704   2.151 -0.6642  0.2809  0.3752
  485MOL0     C63942   5.472   3.477   2.090 -0.1700  0.8908 -0.6753
  485MOL0     C63943   5.563   3.498   2.197  0.0633 -0.5254 -0.1532
  485MOL0     C63944   5.684   3.426   2.214  0.0069 -0.1063  0.3305
  485MOL0     C63945   5.718   3.339   2.106 -0.1869 -0.2861 -0.2231
  485MOL0     O63946   5.840   3.269   2.104  0.0711  0.4321  0.3502
  485MOL0     C63947   5.953   3.328   2.168  0.6260 -0.5963  0.0718
  485MOL0     C63948   6.075   3.267   2.085  0.1591 -0.1916  0.4941
  485MOL0     C63949   6.208   3.288   2.158 -0.7577 -0.4450 -0.2567
  485MOL0     C63950   6.314   3.288   2.045 -0.4302  0.2286 -0.4739
  485MOL0     C63951   6.452   3.300   2.107  0.4201  0.6630  0.6947
  485MOL0     C63952   6.568   3.310   2.147  0.4140 -0.1376 -0.8497
  485MOL0     C63953   5.625   3.304   2.004  0.1833 -0.4676  0.2301
  485MOL0     C63954   5.499   3.371   1.998  0.4230  0.3904 -1.4106
  485MOL0     H63955   5.349   3.903   2.230  1.2591 -1.5179 -1.7767
  485MOL0     H63956   5.162   4.069   2.269 -2.6422  1.6072 -1.2157
  485MOL0     H63957   5.007   4.143   2.077  0.6972 -0.1799  1.8908
  485MOL0     H63958   4.845   4.200   2.140 -0.1823  0.2094  1.3950
  485MOL0     H63959   4.892   3.977   1.935  0.6314 -0.0757  0.5558
  485MOL0     H63960   4.815   4.127   1.909  2.2194 -1.4923 -2.0922
  485MOL0     H63961   4.642   4.065   2.092  1.4712  0.5849  1.1171
  485MOL0     H63962   4.709   3.903   2.075 -2.6518  0.2754  0.6097
  485MOL0     H63963   4.630   4.044   1.832 -0.2825  1.6466  1.8802
  485MOL0     H63964   4.643   3.868   1.850 -0.3938  0.0397 -1.0452
  485MOL0     H63965   4.392   3.968   1.852 -2.4733  1.5764  2.9660
  485MOL0     H63966   4.443   4.033   2.004  0.5866  0.0113 -0.9259
  485MOL0     H63967   4.483   3.830   2.101  1.7933  2.2312 -0.7614
  485MOL0     H63968   4.519   3.737   1.951  0.2903 -1.1403  1.5579
  485MOL0     H63969   4.271   3.767   1.895 -0.9870  1.8264  0.8327
  485MOL0     H63970   4.325   3.642   2.017  0.9603 -0.8789 -3.7221
  485MOL0     H63971   4.192   3.908   2.078  0.0160  0.0082  1.0441
  485MOL0     H63972   4.250   3.788   2.198 -0.9756  1.2753  0.4254
  485MOL0     H63973   3.965   3.866   1.984 -2.5405 -0.7672 -1.1985
  485MOL0     H63974   3.707   3.725   1.935  2.6343  1.5826  0.0075
  485MOL0     H63975   3.672   3.762   2.099 -1.8919  0.7414 -2.5383
  485MOL0     H63976   3.664   3.526   2.163  0.3339  0.4137  0.0913
  485MOL0     H63977   3.738   3.488   2.005 -0.9272  0.2370 -0.3608
  485MOL0     H63978   3.496   3.445   2.045  1.5576 -0.4368 -1.1196
  485MOL0     H63979   3.452   3.620   2.035  1.5224  2.2578 -1.6690
  485MOL0     H63980   3.587   3.491   1.810  0.2378  0.7897  0.2281
  485MOL0     H63981   3.491   3.633   1.812  1.0855  0.4583  1.0663
  485MOL0     H63982   3.275   3.677   1.762 -1.2617  0.5623 -1.2799
  485MOL0     H63983   3.026   3.717   1.774  0.2582  1.4580  3.6063
  485MOL0     H63984   2.685   3.811   1.630  1.8559  0.8732  1.6092
  485MOL0     H63985   2.475   3.845   1.564 -1.4489  0.9573 -0.0442
  485MOL0     H63986   2.136   3.789   1.858 -0.3691 -1.4597  0.7619
  485MOL0     H63987   2.127   3.635   1.779  1.2287  0.0101  2.0515
  485MOL0     H63988   1.981   3.767   1.597 -2.1465 -0.3726  0.6817
  485MOL0     H63989   1.983   3.897   1.719  2.2622  0.2823 -0.4318
  485MOL0     H63990   1.879   3.725   1.879  1.0511 -0.2407 -0.7530
  485MOL0     H63991   1.896   3.617   1.736 -2.4761 -1.8170  3.5914
  485MOL0     H63992   1.749   3.892   1.717 -0.8092  0.3110 -1.5195
  485MOL0     H63993   1.746   3.751   1.605  3.6935 -2.4001 -0.0660
  485MOL0     H63994   1.654   3.764   1.899 -0.9313 -3.1631  0.4826
  485MOL0     H63995   1.645   3.618   1.804  0.5522  0.3414  1.1476
  485MOL0     H63996   1.498   3.713   1.654 -0.4054 -0.0511 -0.0981
  485MOL0     H63997   1.493   3.866   1.751  4.5026 -0.7781 -2.0935
  485MOL0     H63998   1.401   3.576   1.838  2.0564  0.7293 -2.0440
  485MOL0     H63999   1.423   3.708   1.950  1.5311  0.9390 -0.2407
  485MOL0     H64000   1.257   3.855   1.854 -1.4953  0.3175  0.0484
  485MOL0     H64001   1.193   3.700   1.920  1.0161 -1.0796  0.7280
  485MOL0     H64002   2.310   3.636   1.917 -0.4242 -1.7004 -0.2588
  485MOL0     H64003   2.541   3.557   1.967  1.9496  1.0204  0.6693
  485MOL0     H64004   2.979   3.319   1.928 -0.3339  0.1162 -0.6463
  485MOL0     H64005   3.226   3.293   1.900  1.4600  0.9061  1.0993
  485MOL0     H64006   4.888   3.783   2.124  0.5940 -0.3973  1.8211
  485MOL0     H64007   5.064   3.602   2.122  0.1959  0.4339 -0.9148
  485MOL0     H64008   5.531   3.558   2.282 -0.7205 -0.0635 -0.7585
  485MOL0     H64009   5.743   3.449   2.302 -2.2473  2.7630  1.2679
  485MOL0     H64010   5.949   3.302   2.274  1.2360 -0.7695  0.0538
  485MOL0     H64011   5.968   3.437   2.169 -1.7371 -0.2202  0.8992
  485MOL0     H64012   6.062   3.159   2.074 -0.6154  0.1118 -2.5575
  485MOL0     H64013   6.073   3.308   1.984  0.1730 -1.3789 -0.0057
  485MOL0     H64014   6.218   3.211   2.234 -0.2554  1.2769  1.4847
  485MOL0     H64015   6.210   3.383   2.213  1.8721 -0.7634  0.2801
  485MOL0     H64016   6.308   3.185   2.009 -0.9724  0.4140 -0.9364
  485MOL0     H64017   6.289   3.357   1.963  2.1317 -0.7165 -2.1770
  485MOL0     H64018   6.664   3.333   2.189  1.2243  0.8257 -3.0703
  485MOL0     H64019   5.656   3.231   1.929  2.0269  0.8208 -0.3274
  485MOL0     H64020   5.436   3.355   1.912 -1.6686  1.4607 -0.1672
  486MOL0     O64021   2.313   7.980   2.122 -0.4106 -0.2572 -0.4939
  486MOL0     C64022   2.311   8.002   2.246  0.5417  0.6055  0.6633
  486MOL0     O64023   2.199   8.004   2.327  0.7008  0.1915  0.4357
  486MOL0     C64024   2.071   8.020   2.267  0.2412  0.0515 -0.1704
  486MOL0     C64025   1.984   8.105   2.337 -0.9431  0.3682  0.0899
  486MOL0     C64026   1.855   8.121   2.284  0.2302  0.8382 -0.0963
  486MOL0     C64027   1.802   8.048   2.182  0.3410 -0.7325 -0.6568
  486MOL0     O64028   1.676   8.070   2.139 -0.8544  0.1701 -0.5173
  486MOL0     C64029   1.670   8.133   2.003 -0.4880  0.4760  0.2495
  486MOL0     C64030   1.526   8.175   1.986 -0.9676 -0.0861  1.0165
  486MOL0     C64031   1.514   8.271   1.869 -0.2183 -1.5019  0.0427
  486MOL0     C64032   1.375   8.327   1.839  0.8095 -0.6474 -0.2623
  486MOL0     C64033   1.376   8.422   1.714  0.4607  0.3795  0.5960
  486MOL0     C64034   1.242   8.499   1.700 -0.8017 -0.5977  0.3666
  486MOL0     C64035   1.113   8.410   1.714  0.2208 -0.6718 -0.3526
  486MOL0     C64036   0.973   8.476   1.697 -0.1341 -0.8715 -0.2523
  486MOL0     N64037   0.874   8.369   1.686  0.5785  0.1232 -0.7747
  486MOL0     C64038   0.833   8.295   1.568  0.0196 -0.7190 -0.1032
  486MOL0     C64039   0.734   8.214   1.607 -0.7349 -0.5595 -0.5630
  486MOL0     C64040   0.657   8.129   1.516  0.1147  0.4634  1.3553
  486MOL0     C64041   0.510   8.166   1.512  0.7360  0.4030  0.1896
  486MOL0     C64042   0.484   8.307   1.446  0.3403  0.3559  0.4480
  486MOL0     C64043   0.353   8.375   1.500  0.2754 -0.3930 -1.0594
  486MOL0     O64044   0.313   8.462   1.394 -0.4053 -0.4930  0.6041
  486MOL0     C64045   0.182   8.493   1.371 -0.0352  0.0105  0.4787
  486MOL0     C64046   0.154   8.540   1.242  0.0012  0.0369 -0.4114
  486MOL0     C64047   0.024   8.566   1.199 -0.0156  0.6164 -0.1122
  486MOL0     C64048  -0.081   8.558   1.292  0.9478 -0.4773  0.9265
  486MOL0     C64049  -0.218   8.598   1.253 -0.5182  0.3767 -0.2580
  486MOL0     O64050  -0.293   8.644   1.351  0.0118  0.2392 -0.0517
  486MOL0     C64051  -0.372   8.754   1.326 -0.6595 -0.5769  0.3758
  486MOL0     C64052  -0.488   8.761   1.402 -0.9762  0.3319  0.0123
  486MOL0     C64053  -0.590   8.848   1.386  0.0190 -0.8134 -0.1951
  486MOL0     C64054  -0.574   8.942   1.287  0.1724  0.5711  0.4986
  486MOL0     O64055  -0.662   9.050   1.267 -0.2715  0.4381 -0.5486
  486MOL0     C64056  -0.784   9.075   1.337 -0.2067  1.1466 -0.2585
  486MOL0     C64057  -0.903   9.030   1.249 -0.2890  0.0363  0.2416
  486MOL0     C64058  -0.889   8.887   1.181 -0.4666 -1.1155 -0.3113
  486MOL0     C64059  -1.031   8.845   1.127  0.1775  0.9345  0.1250
  486MOL0     C64060  -1.087   8.933   1.012 -0.1684 -0.8883 -0.2173
  486MOL0     C64061  -1.188   8.848   0.931  1.1557 -0.3801  0.0869
  486MOL0     C64062  -1.262   8.933   0.819 -0.2562 -0.2603 -0.6204
  486MOL0     C64063  -1.359   8.846   0.741 -0.2514 -0.1319 -0.6410
  486MOL0    Cl64064  -1.259   8.725   0.665 -0.3607  0.1940 -0.1206
  486MOL0     C64065  -0.451   8.952   1.213  0.1548 -0.1331  0.6712
  486MOL0     C64066  -0.346   8.861   1.233 -0.7368  0.0699  0.5084
  486MOL0     O64067  -0.247   8.599   1.132 -0.4898  0.7288  0.6084
  486MOL0     C64068  -0.050   8.525   1.426  0.2555  0.2134 -0.6873
  486MOL0     C64069   0.076   8.491   1.463  0.0476  1.5784  0.8608
  486MOL0     N64070   0.721   8.229   1.746 -0.3025 -0.0749 -0.7050
  486MOL0     N64071   0.798   8.324   1.793 -0.3688 -0.1402  0.1158
  486MOL0     C64072   1.889   7.955   2.124 -0.0973 -0.2706 -0.4843
  486MOL0     C64073   2.024   7.951   2.161  1.3860 -0.3072 -0.0634
  486MOL0     C64074   2.442   8.006   2.317 -0.4244  0.0934 -0.3540
  486MOL0     C64075   2.453   8.002   2.458 -0.2071  1.4732 -0.2217
  486MOL0     C64076   2.580   7.991   2.519  1.7792  0.0775 -0.1813
  486MOL0     C64077   2.693   7.988   2.445  0.3822  0.3529  0.4503
  486MOL0     O64078   2.809   7.961   2.508  0.5977  1.0690  0.4930
  486MOL0     C64079   2.875   8.050   2.585 -0.0826 -0.2086 -0.1437
  486MOL0     C64080   2.997   8.109   2.517  0.1779 -0.2431  0.0309
  486MOL0     C64081   3.089   7.999   2.460  0.7020 -0.7194 -0.6712
  486MOL0     C64082   3.219   8.057   2.407 -0.2511  0.1368  0.3904
  486MOL0     C64083   3.291   8.110   2.522  0.1421 -0.6929 -0.2099
  486MOL0     C64084   3.337   8.149   2.635  0.5981 -0.0040  0.4135
  486MOL0     C64085   2.680   8.010   2.307  0.1472  0.2209  0.7422
  486MOL0     C64086   2.562   8.023   2.242  0.9287 -0.7450 -0.8988
  486MOL0     H64087   2.021   8.170   2.416  0.8463  1.4364 -1.5368
  486MOL0     H64088   1.786   8.183   2.340 -0.7656  0.2938 -0.6937
  486MOL0     H64089   1.694   8.054   1.931 -1.6954  1.9401 -1.8918
  486MOL0     H64090   1.743   8.213   1.991 -1.2253  0.9389 -1.6453
  486MOL0     H64091   1.494   8.230   2.075  2.1656 -0.7191  2.6818
  486MOL0     H64092   1.460   8.090   1.968 -0.2027 -0.2748 -1.1235
  486MOL0     H64093   1.541   8.226   1.774 -2.4547 -0.9918 -0.9125
  486MOL0     H64094   1.575   8.360   1.885 -1.4638 -0.4184 -1.0704
  486MOL0     H64095   1.307   8.246   1.811 -2.7452  2.6737 -2.2610
  486MOL0     H64096   1.334   8.382   1.925  0.0614  0.4389 -1.2834
  486MOL0     H64097   1.397   8.372   1.619 -0.9246 -1.1137  1.0334
  486MOL0     H64098   1.448   8.502   1.730 -2.2894  2.7012  2.2505
  486MOL0     H64099   1.250   8.546   1.602  0.7444 -1.1318  0.2058
  486MOL0     H64100   1.243   8.577   1.776  0.7036 -1.3260  1.1471
  486MOL0     H64101   1.117   8.330   1.640 -0.0725 -1.7622  0.7746
  486MOL0     H64102   1.111   8.360   1.811  1.6937  0.7895  0.4688
  486MOL0     H64103   0.970   8.530   1.602  2.0715 -0.3505 -0.0725
  486MOL0     H64104   0.932   8.543   1.773 -1.5276 -1.3770 -0.5292
  486MOL0     H64105   0.873   8.312   1.469 -0.1777  1.4466  0.1295
  486MOL0     H64106   0.668   8.025   1.548 -1.2793 -0.6844 -1.5093
  486MOL0     H64107   0.697   8.126   1.414 -0.6144  0.1667  1.0730
  486MOL0     H64108   0.477   8.169   1.616  1.1024  0.6204  0.3013
  486MOL0     H64109   0.441   8.095   1.465 -1.3610 -0.6787  4.3768
  486MOL0     H64110   0.560   8.379   1.479  0.6246 -0.0194  0.6235
  486MOL0     H64111   0.484   8.292   1.338 -0.9298  0.4736  0.4167
  486MOL0     H64112   0.367   8.434   1.591  1.1001 -2.6853  0.3998
  486MOL0     H64113   0.273   8.302   1.514 -1.4665  0.8341 -3.8585
  486MOL0     H64114   0.234   8.531   1.169  0.5310 -2.7203  0.4066
  486MOL0     H64115  -0.009   8.599   1.101  0.3880 -0.4709 -0.6359
  486MOL0     H64116  -0.498   8.683   1.477  0.3115 -0.0587 -0.1891
  486MOL0     H64117  -0.679   8.853   1.448  0.6180 -0.7985  0.6695
  486MOL0     H64118  -0.804   9.181   1.356 -2.3419  0.6721  0.3869
  486MOL0     H64119  -0.783   9.036   1.439  1.2041  2.1010  0.1151
  486MOL0     H64120  -0.900   9.104   1.169 -1.1677  1.7344  1.7008
  486MOL0     H64121  -0.994   9.032   1.310  0.0456 -0.7657  0.7723
  486MOL0     H64122  -0.849   8.813   1.252  0.6806 -2.1843 -2.0037
  486MOL0     H64123  -0.817   8.897   1.099  0.6690  1.4725  0.9001
  486MOL0     H64124  -1.018   8.746   1.084  0.1405  1.4985 -1.2440
  486MOL0     H64125  -1.102   8.845   1.211  2.3524 -0.5287  2.0713
  486MOL0     H64126  -1.006   8.958   0.942  0.1718 -0.4904  0.3019
  486MOL0     H64127  -1.120   9.025   1.062 -1.3824 -1.9843  1.0897
  486MOL0     H64128  -1.265   8.835   1.008  1.8718  2.1533  1.3560
  486MOL0     H64129  -1.147   8.753   0.895  2.4267  0.8204 -1.7995
  486MOL0     H64130  -1.314   9.016   0.867  0.1037 -0.1354 -0.4436
  486MOL0     H64131  -1.199   8.987   0.748  0.4843  2.8226  2.1584
  486MOL0     H64132  -1.422   8.899   0.669  0.2955  1.6390  0.1229
  486MOL0     H64133  -1.433   8.805   0.810 -0.1069  1.6803  0.6468
  486MOL0     H64134  -0.446   9.036   1.144 -1.3527  0.7559  1.5982
  486MOL0     H64135  -0.267   8.863   1.158 -1.8027  2.3320 -0.6605
  486MOL0     H64136  -0.121   8.535   1.508 -1.7143  0.3408 -2.3404
  486MOL0     H64137   0.101   8.459   1.564  0.7578  2.7122  1.0621
  486MOL0     H64138   1.865   7.874   2.056  0.2110  0.9969 -2.1824
  486MOL0     H64139   2.086   7.883   2.103 -0.7613 -0.1880 -2.7097
  486MOL0     H64140   2.360   8.010   2.513 -1.0972  0.1094 -1.4370
  486MOL0     H64141   2.587   7.981   2.627  1.2559  0.6884 -0.0892
  486MOL0     H64142   2.893   8.007   2.684 -0.5686  0.8045  0.4017
  486MOL0     H64143   2.813   8.140   2.583  4.5470  3.3458 -2.4152
  486MOL0     H64144   2.962   8.173   2.436 -0.6660  0.2227  0.7429
  486MOL0     H64145   3.053   8.179   2.580 -1.4801  0.8836  0.3127
  486MOL0     H64146   3.035   7.953   2.376 -1.2278 -1.4066  0.8664
  486MOL0     H64147   3.116   7.926   2.537 -0.6661  0.4043  0.9529
  486MOL0     H64148   3.279   7.982   2.356  0.6280 -0.6112  2.4028
  486MOL0     H64149   3.194   8.140   2.341 -2.0013 -1.5234 -1.1364
  486MOL0     H64150   3.358   8.191   2.731 -0.8053  2.0861 -0.1099
  486MOL0     H64151   2.773   8.034   2.256  1.1726 -0.6342  2.1562
  486MOL0     H64152   2.558   8.021   2.134  3.7050 -2.3265 -1.0511
  487MOL0     O64153   5.542   0.561   4.997 -0.0367 -0.2045  0.1691
  487MOL0     C64154   5.592   0.672   4.995 -0.1609 -0.0578 -0.2289
  487MOL0     O64155   5.522   0.781   4.948  0.0220 -0.0040 -0.2795
  487MOL0     C64156   5.417   0.772   4.870  1.3762  0.0748 -0.0648
  487MOL0     C64157   5.419   0.693   4.756 -0.5558 -0.2533  0.2803
  487MOL0     C64158   5.302   0.674   4.680  0.6069  0.0285  0.0988
  487MOL0     C64159   5.188   0.755   4.703 -0.3801  0.3847 -0.4987
  487MOL0     O64160   5.079   0.753   4.615 -0.7554  0.3790  0.2867
  487MOL0     C64161   4.948   0.789   4.655 -0.3461  0.3842  0.5272
  487MOL0     C64162   4.868   0.825   4.529 -0.8277 -0.0848 -0.0450
  487MOL0     C64163   4.713   0.820   4.554 -1.0801 -0.4691  0.6793
  487MOL0     C64164   4.635   0.796   4.414 -0.1326 -0.0537 -0.0710
  487MOL0     C64165   4.492   0.750   4.445  0.8682 -0.4522  0.1574
  487MOL0     C64166   4.401   0.864   4.493 -0.5279 -0.2839 -0.1850
  487MOL0     C64167   4.263   0.821   4.554  0.9764 -0.3588 -0.2356
  487MOL0     C64168   4.266   0.799   4.702  0.7594 -0.4083  0.5636
  487MOL0     N64169   4.303   0.664   4.743  0.8259 -0.2397 -0.8700
  487MOL0     C64170   4.427   0.609   4.766 -0.1895 -0.1560 -0.7068
  487MOL0     C64171   4.405   0.479   4.783  0.0131  0.5024 -0.1702
  487MOL0     C64172   4.501   0.367   4.836 -1.1939  0.0028  0.1452
  487MOL0     C64173   4.484   0.231   4.777  0.1998 -0.2645  0.5067
  487MOL0     C64174   4.571   0.135   4.839 -0.0443 -0.4794  0.4722
  487MOL0     C64175   4.556  -0.004   4.782 -0.2817 -0.1128  0.0781
  487MOL0     O64176   4.601  -0.006   4.648 -0.0653 -0.2338 -0.4599
  487MOL0     C64177   4.728  -0.047   4.626  0.7610  0.0014  0.1858
  487MOL0     C64178   4.758  -0.066   4.492 -0.0480  0.1467  0.0412
  487MOL0     C64179   4.883  -0.110   4.446  0.0351  0.3741 -0.1800
  487MOL0     C64180   4.974  -0.147   4.542 -0.2229 -0.0453 -0.0914
  487MOL0     C64181   5.113  -0.203   4.511  0.8910  0.5300  0.0427
  487MOL0     O64182   5.207  -0.218   4.620 -0.0235  0.0965  0.1306
  487MOL0     C64183   5.334  -0.277   4.603  0.0547 -0.1167  0.0496
  487MOL0     C64184   5.438  -0.232   4.693 -0.3305  0.0777 -0.2103
  487MOL0     C64185   5.564  -0.270   4.679 -1.2313  0.3728  0.2529
  487MOL0     C64186   5.592  -0.382   4.594 -0.5818 -0.8373  0.0000
  487MOL0     O64187   5.711  -0.445   4.588 -0.6014  0.3691 -0.2973
  487MOL0     C64188   5.832  -0.364   4.618  0.5044 -0.0259 -0.3518
  487MOL0     C64189   5.947  -0.411   4.528  0.0936 -0.2668  1.0164
  487MOL0     C64190   6.084  -0.337   4.548 -0.5546  0.7126  1.0114
  487MOL0     C64191   6.165  -0.362   4.421  0.5703  0.0412 -0.6269
  487MOL0     C64192   6.273  -0.255   4.413  0.7443 -0.0226 -0.2223
  487MOL0     C64193   6.401  -0.284   4.487  0.3528  0.0291  0.4735
  487MOL0     C64194   6.510  -0.182   4.469 -0.3855 -0.2007 -0.0651
  487MOL0     C64195   6.647  -0.227   4.533  0.4111 -0.4026 -0.8862
  487MOL0    Cl64196   6.779  -0.105   4.520  0.0767  0.1543 -0.4506
  487MOL0     C64197   5.495  -0.442   4.520 -0.3872  0.0991  0.0018
  487MOL0     C64198   5.367  -0.395   4.525  0.2726  0.0340  0.5531
  487MOL0     O64199   5.130  -0.244   4.397 -0.2302 -0.1812 -0.4169
  487MOL0     C64200   4.949  -0.129   4.674  0.5061  1.6569 -0.0241
  487MOL0     C64201   4.832  -0.082   4.717  1.0114 -0.1690 -0.5180
  487MOL0     N64202   4.265   0.451   4.777 -0.2686 -0.1176 -0.1983
  487MOL0     N64203   4.208   0.570   4.759  0.9159  0.0266 -0.3229
  487MOL0     C64204   5.194   0.832   4.819 -0.4306 -0.3513  0.4422
  487MOL0     C64205   5.306   0.844   4.905  0.4890 -0.0494 -0.1115
  487MOL0     C64206   5.730   0.699   5.047  0.0450  0.0823  0.1691
  487MOL0     C64207   5.803   0.605   5.121  0.2229  0.0499 -0.6394
  487MOL0     C64208   5.934   0.624   5.159  0.1654 -0.5654 -0.3672
  487MOL0     C64209   5.998   0.748   5.131  0.3104 -0.4520  0.0861
  487MOL0     O64210   6.124   0.778   5.171  0.4247 -0.0593  0.0887
  487MOL0     C64211   6.207   0.664   5.221 -0.4388  0.1582  0.3715
  487MOL0     C64212   6.368   0.693   5.226  0.9201 -0.5608 -0.2024
  487MOL0     C64213   6.405   0.800   5.337  0.1832 -0.3798  0.5742
  487MOL0     C64214   6.552   0.817   5.345  0.4356  0.0505  0.1137
  487MOL0     C64215   6.607   0.695   5.408  0.6565  0.7683  1.0558
  487MOL0     C64216   6.681   0.607   5.434  0.1523 -0.2937 -0.9195
  487MOL0     C64217   5.926   0.848   5.058 -0.0621  0.3250 -0.5470
  487MOL0     C64218   5.795   0.821   5.024  0.4203 -0.1697  0.2997
  487MOL0     H64219   5.510   0.640   4.732  1.0666  2.0434  1.0038
  487MOL0     H64220   5.301   0.621   4.585  0.7441  1.6085 -0.8087
  487MOL0     H64221   4.953   0.875   4.722 -0.0927  2.3445 -1.8587
  487MOL0     H64222   4.895   0.719   4.721  0.8799  0.1094  1.2616
  487MOL0     H64223   4.895   0.764   4.442 -2.0679  0.9511 -1.1943
  487MOL0     H64224   4.898   0.923   4.492 -0.7466 -0.7508 -1.8435
  487MOL0     H64225   4.688   0.915   4.602  1.4976 -1.1650  3.7631
  487MOL0     H64226   4.701   0.744   4.632 -1.8930 -0.6397  0.4043
  487MOL0     H64227   4.634   0.890   4.358  0.1185  0.0271  0.0580
  487MOL0     H64228   4.692   0.722   4.357  0.9941 -0.6802  1.7946
  487MOL0     H64229   4.500   0.674   4.523 -1.8199 -1.1094 -0.1321
  487MOL0     H64230   4.444   0.706   4.357 -0.3575  1.3168 -0.0926
  487MOL0     H64231   4.387   0.934   4.410 -0.2855 -0.1096 -0.0803
  487MOL0     H64232   4.446   0.929   4.569 -1.2154  0.4313 -0.3723
  487MOL0     H64233   4.198   0.903   4.524 -0.8248 -1.5712  0.2181
  487MOL0     H64234   4.228   0.731   4.502 -1.5025  1.0021 -1.0692
  487MOL0     H64235   4.167   0.827   4.741  0.5092  0.3808 -0.5770
  487MOL0     H64236   4.334   0.872   4.745 -0.3578  0.4225  0.9779
  487MOL0     H64237   4.517   0.669   4.775 -1.2910  1.2619  2.2391
  487MOL0     H64238   4.500   0.352   4.944  4.6239 -1.7389  0.3125
  487MOL0     H64239   4.602   0.403   4.814 -0.9151 -1.2117 -0.6885
  487MOL0     H64240   4.512   0.243   4.672  0.1831  0.1986  0.5547
  487MOL0     H64241   4.377   0.207   4.777 -0.6801  2.8451 -2.5271
  487MOL0     H64242   4.675   0.166   4.831 -0.0530 -0.5815 -0.0500
  487MOL0     H64243   4.544   0.107   4.941 -3.6316 -3.3302 -1.0236
  487MOL0     H64244   4.451  -0.035   4.771 -0.4043  0.5350 -0.6598
  487MOL0     H64245   4.600  -0.076   4.852  0.6863  0.1925 -0.2062
  487MOL0     H64246   4.687  -0.046   4.412  0.0693 -2.9138 -0.9726
  487MOL0     H64247   4.915  -0.115   4.342  1.1735  2.1227  0.0494
  487MOL0     H64248   5.408  -0.145   4.751 -1.6671 -0.5261  0.0185
  487MOL0     H64249   5.643  -0.224   4.736  0.8080 -1.7179 -0.7116
  487MOL0     H64250   5.861  -0.375   4.723 -0.1281 -1.0969 -0.2834
  487MOL0     H64251   5.824  -0.255   4.608 -1.7583 -0.1529 -0.4314
  487MOL0     H64252   5.897  -0.384   4.434  0.5293 -1.3575  0.4603
  487MOL0     H64253   5.957  -0.519   4.537  0.7959 -0.2551  0.4122
  487MOL0     H64254   6.130  -0.381   4.636 -2.0985 -1.4647  0.8023
  487MOL0     H64255   6.068  -0.231   4.572  2.7163  1.7610 -0.8231
  487MOL0     H64256   6.214  -0.458   4.439  0.5764  0.0418 -0.6411
  487MOL0     H64257   6.092  -0.355   4.339  0.1477 -0.9094 -0.3484
  487MOL0     H64258   6.238  -0.157   4.448 -2.6707 -0.9305 -0.7636
  487MOL0     H64259   6.292  -0.230   4.309 -0.4066  2.4606  0.0896
  487MOL0     H64260   6.440  -0.384   4.467  2.4514  0.2719  2.8187
  487MOL0     H64261   6.370  -0.285   4.592 -1.4525 -2.6640  0.0051
  487MOL0     H64262   6.532  -0.157   4.364  1.8450  0.5139  0.4983
  487MOL0     H64263   6.484  -0.087   4.516 -0.1311 -0.6370  0.9955
  487MOL0     H64264   6.681  -0.322   4.492  0.4659  0.2630 -2.4608
  487MOL0     H64265   6.642  -0.243   4.641  4.5348  1.0038 -0.3392
  487MOL0     H64266   5.523  -0.530   4.463  0.3852 -0.4582  1.1915
  487MOL0     H64267   5.293  -0.425   4.452 -0.2151  1.1284  0.5711
  487MOL0     H64268   5.022  -0.140   4.753  0.6924  1.7558 -0.1824
  487MOL0     H64269   4.811  -0.071   4.823 -0.8601  0.1070 -0.8723
  487MOL0     H64270   5.110   0.898   4.842  0.4585  2.3275 -3.0531
  487MOL0     H64271   5.296   0.911   4.989  0.3604  0.6555 -0.6768
  487MOL0     H64272   5.748   0.513   5.138  0.0627 -0.1400 -2.1373
  487MOL0     H64273   5.988   0.554   5.221  0.8039  1.6036  1.6934
  487MOL0     H64274   6.192   0.579   5.154 -0.7805  1.0064 -0.6595
  487MOL0     H64275   6.182   0.631   5.322  3.7714  1.4511  2.0617
  487MOL0     H64276   6.423   0.599   5.235  2.8163  0.1135 -3.1504
  487MOL0     H64277   6.406   0.735   5.132 -0.2131  0.8974 -0.0494
  487MOL0     H64278   6.359   0.787   5.436 -2.5409 -1.2305 -0.6942
  487MOL0     H64279   6.366   0.899   5.314 -1.3840 -1.1600 -0.3362
  487MOL0     H64280   6.596   0.828   5.246 -0.2229  0.4468 -0.1383
  487MOL0     H64281   6.582   0.906   5.402  1.6558 -0.1021 -0.2469
  487MOL0     H64282   6.751   0.532   5.467  2.2077  0.9225 -2.3116
  487MOL0     H64283   5.968   0.947   5.049  0.6521  0.3697  2.2265
  487MOL0     H64284   5.744   0.905   4.978 -1.3491 -0.6591  1.2796
  488MOL0     O64285   2.083   3.570   5.087 -0.3405 -0.9375  0.1159
  488MOL0     C64286   2.120   3.678   5.038 -0.1388  0.3626  0.3165
  488MOL0     O64287   2.038   3.792   5.019  0.1639  0.2888 -1.0363
  488MOL0     C64288   1.903   3.764   5.059  0.9125 -0.7998 -0.0760
  488MOL0     C64289   1.867   3.773   5.196 -0.1189  0.5529 -0.0201
  488MOL0     C64290   1.731   3.769   5.232 -0.2808  0.0486 -0.6998
  488MOL0     C64291   1.626   3.757   5.143 -0.3177  0.1296 -0.5835
  488MOL0     O64292   1.504   3.741   5.195  0.4087 -0.4985 -0.3403
  488MOL0     C64293   1.404   3.665   5.136  0.0288 -0.0933  0.1608
  488MOL0     C64294   1.264   3.692   5.194 -0.2555 -0.6427 -0.0332
  488MOL0     C64295   1.254   3.687   5.347  0.3832 -0.2764 -0.1603
  488MOL0     C64296   1.112   3.743   5.377  0.8609 -0.5422 -0.2181
  488MOL0     C64297   1.092   3.779   5.531  0.1718 -0.0173 -0.1704
  488MOL0     C64298   0.951   3.831   5.552 -0.3627  0.0079 -0.2599
  488MOL0     C64299   0.928   3.882   5.695  0.8540  0.0389  1.1282
  488MOL0     C64300   0.778   3.928   5.713 -0.1289 -0.1290 -0.0041
  488MOL0     N64301   0.678   3.829   5.708 -0.0653  0.3635  0.0429
  488MOL0     C64302   0.637   3.750   5.811 -0.1974 -0.0648 -0.3835
  488MOL0     C64303   0.534   3.677   5.766  0.6464  0.2762 -0.0275
  488MOL0     C64304   0.441   3.589   5.850  0.7846 -0.1988 -0.3477
  488MOL0     C64305   0.329   3.681   5.909 -0.3645  0.1942  0.0046
  488MOL0     C64306   0.244   3.603   6.007 -0.6247  0.6232 -0.1863
  488MOL0     C64307   0.130   3.678   6.063  0.7908  0.3096  0.2064
  488MOL0     O64308   0.026   3.704   5.963  0.7541  0.6084 -0.2159
  488MOL0     C64309  -0.101   3.747   6.001 -0.0943 -0.0244 -0.2483
  488MOL0     C64310  -0.223   3.713   5.933 -0.0526  1.0751  0.0201
  488MOL0     C64311  -0.348   3.774   5.969 -0.1769 -0.4999 -0.2210
  488MOL0     C64312  -0.349   3.864   6.081  0.2340  1.0061  0.5010
  488MOL0     C64313  -0.467   3.926   6.125 -0.0746 -0.1962  0.5853
  488MOL0     O64314  -0.568   3.924   6.028 -0.1244 -0.0397 -0.3832
  488MOL0     C64315  -0.691   3.982   6.038  0.9690 -0.7328 -1.2164
  488MOL0     C64316  -0.772   4.004   5.925 -0.0547 -0.2265 -0.2189
  488MOL0     C64317  -0.902   4.045   5.929  0.1961 -0.2541 -0.1090
  488MOL0     C64318  -0.961   4.102   6.048  0.0336  0.4143 -0.8778
  488MOL0     O64319  -1.083   4.160   6.032 -0.7557  0.4524 -0.0372
  488MOL0     C64320  -1.146   4.223   6.145 -0.6418  1.0545 -0.3186
  488MOL0     C64321  -1.296   4.234   6.115  0.7243  0.0576  0.0851
  488MOL0     C64322  -1.356   4.094   6.098  0.0022  0.4765 -0.3683
  488MOL0     C64323  -1.505   4.111   6.064 -0.2318  0.5668 -0.2312
  488MOL0     C64324  -1.590   4.121   6.191 -0.3626 -0.8058 -0.3730
  488MOL0     C64325  -1.737   4.120   6.152 -0.1640 -0.2251 -0.3714
  488MOL0     C64326  -1.836   4.166   6.257  1.1271  0.1674 -0.7909
  488MOL0     C64327  -1.975   4.165   6.189  0.9067 -0.5724  0.4540
  488MOL0    Cl64328  -2.120   4.193   6.292 -0.2000 -0.0369  0.1919
  488MOL0     C64329  -0.887   4.085   6.165 -0.0757  0.9395 -0.0738
  488MOL0     C64330  -0.757   4.031   6.163  0.0636  0.4461 -0.6153
  488MOL0     O64331  -0.484   3.960   6.241  0.4402 -0.1187  0.8969
  488MOL0     C64332  -0.232   3.878   6.154  0.2271 -0.8158  0.3320
  488MOL0     C64333  -0.113   3.827   6.125 -0.7685 -0.2114 -0.3558
  488MOL0     N64334   0.519   3.705   5.628 -0.1022 -0.4062 -0.6607
  488MOL0     N64335   0.616   3.787   5.592  0.8684 -0.0836  0.6053
  488MOL0     C64336   1.660   3.749   5.009 -0.1354 -1.2210 -0.0448
  488MOL0     C64337   1.797   3.757   4.967  0.3639 -0.8354  0.0650
  488MOL0     C64338   2.262   3.687   4.991  0.1282 -0.4416 -0.3255
  488MOL0     C64339   2.310   3.797   4.921  0.6391 -0.3638  0.1765
  488MOL0     C64340   2.442   3.801   4.883 -0.4958 -0.2985  1.1790
  488MOL0     C64341   2.535   3.713   4.943 -1.0309 -0.1490 -0.0553
  488MOL0     O64342   2.670   3.743   4.932  0.0119  0.3824  0.5235
  488MOL0     C64343   2.764   3.674   4.998  0.1311  0.0626  0.9634
  488MOL0     C64344   2.898   3.748   4.981  0.1482  0.6341 -0.4562
  488MOL0     C64345   3.002   3.667   5.055 -0.4010  0.1800 -0.2375
  488MOL0     C64346   3.131   3.750   5.076 -0.8994 -0.2784  1.2360
  488MOL0     C64347   3.228   3.663   5.143  0.2575 -0.0176 -0.7470
  488MOL0     C64348   3.330   3.607   5.193  0.9868 -0.0834 -1.4716
  488MOL0     C64349   2.494   3.597   4.998  0.2409  0.1808  0.1787
  488MOL0     C64350   2.356   3.583   5.023 -0.7217  0.2417  0.0276
  488MOL0     H64351   1.949   3.776   5.266  0.2582 -0.7635 -0.3713
  488MOL0     H64352   1.719   3.773   5.340  0.2343 -0.4200 -0.6220
  488MOL0     H64353   1.410   3.564   5.176 -0.3057  0.3633  1.4317
  488MOL0     H64354   1.404   3.672   5.027 -0.0366  2.7737  0.2525
  488MOL0     H64355   1.188   3.629   5.148 -1.2907 -0.6522  1.6277
  488MOL0     H64356   1.238   3.793   5.162 -1.4363 -0.5077  1.2785
  488MOL0     H64357   1.320   3.752   5.406 -1.5473  1.2838  0.4089
  488MOL0     H64358   1.259   3.583   5.380 -2.5220  0.2483  2.4399
  488MOL0     H64359   1.104   3.840   5.327 -1.8990  0.7512  2.4324
  488MOL0     H64360   1.029   3.682   5.339  0.3842  0.1762 -0.3420
  488MOL0     H64361   1.159   3.856   5.570 -0.9332  0.2806  1.2075
  488MOL0     H64362   1.108   3.684   5.583 -0.6135  0.2480  0.5647
  488MOL0     H64363   0.880   3.750   5.531  1.2420 -1.1816 -1.2712
  488MOL0     H64364   0.921   3.911   5.485 -2.1908 -0.3478  0.0690
  488MOL0     H64365   0.958   3.797   5.756 -0.9358 -0.8454  0.8341
  488MOL0     H64366   0.999   3.962   5.719  2.3938 -1.8146  3.0444
  488MOL0     H64367   0.763   4.002   5.633  1.4465  1.1550  0.8221
  488MOL0     H64368   0.778   3.987   5.806  1.8525  0.9443 -0.6288
  488MOL0     H64369   0.677   3.744   5.912 -0.8338 -1.0810 -0.1803
  488MOL0     H64370   0.499   3.547   5.933  1.4384  0.9565 -0.1880
  488MOL0     H64371   0.393   3.514   5.788 -1.3334 -0.0450  0.9892
  488MOL0     H64372   0.271   3.709   5.821  1.7961  0.7060 -1.3329
  488MOL0     H64373   0.380   3.763   5.961  1.1983  0.5964 -2.0219
  488MOL0     H64374   0.212   3.510   5.958 -0.0597  1.6362 -2.5870
  488MOL0     H64375   0.308   3.564   6.087 -0.9682  1.5443  0.5664
  488MOL0     H64376   0.156   3.769   6.118 -0.1560  0.8217 -0.1585
  488MOL0     H64377   0.082   3.612   6.136  0.2200 -1.3272 -1.5738
  488MOL0     H64378  -0.217   3.645   5.849  1.0339  2.6341 -1.2218
  488MOL0     H64379  -0.437   3.746   5.914 -1.3539  0.9355  0.8596
  488MOL0     H64380  -0.731   3.992   5.826 -0.9382 -0.4176 -0.5750
  488MOL0     H64381  -0.949   4.058   5.833 -0.6984  1.5466  0.5288
  488MOL0     H64382  -1.108   4.325   6.158  0.9476  0.2514  1.9540
  488MOL0     H64383  -1.130   4.167   6.237 -0.1354 -0.1930 -1.1461
  488MOL0     H64384  -1.317   4.293   6.024  0.9275  2.0309  1.2532
  488MOL0     H64385  -1.334   4.285   6.204 -0.1856 -0.8638  0.2345
  488MOL0     H64386  -1.352   4.031   6.187 -2.4785  1.1411  0.2862
  488MOL0     H64387  -1.317   4.028   6.019  0.6286 -1.9180  1.8156
  488MOL0     H64388  -1.520   4.193   5.994  0.8225  0.6279 -0.3923
  488MOL0     H64389  -1.526   4.018   6.010 -1.3611 -1.0319  2.7251
  488MOL0     H64390  -1.563   4.207   6.253  0.2263 -0.9472 -0.4296
  488MOL0     H64391  -1.572   4.034   6.255  1.1995  0.0510  0.4151
  488MOL0     H64392  -1.768   4.025   6.107 -0.1187  0.0546 -1.0118
  488MOL0     H64393  -1.757   4.190   6.070  0.7187 -3.3727 -3.5145
  488MOL0     H64394  -1.837   4.099   6.344  1.1827  1.7951  0.4992
  488MOL0     H64395  -1.821   4.266   6.297  0.1288 -0.0012  0.0516
  488MOL0     H64396  -1.979   4.061   6.155  3.2831 -1.9040  3.6420
  488MOL0     H64397  -1.980   4.242   6.112 -0.5298 -0.6927  0.3920
  488MOL0     H64398  -0.925   4.125   6.259 -1.7596 -1.8254  0.5323
  488MOL0     H64399  -0.703   4.030   6.258  2.7511  0.4370 -2.0267
  488MOL0     H64400  -0.243   3.932   6.247 -1.5766 -0.1801 -0.2048
  488MOL0     H64401  -0.029   3.855   6.187 -0.5330 -2.9419  0.6844
  488MOL0     H64402   1.582   3.734   4.935 -1.3943 -0.3618  1.0599
  488MOL0     H64403   1.828   3.740   4.865 -0.5602 -1.8615 -0.0588
  488MOL0     H64404   2.249   3.881   4.888 -0.0277  0.3615  3.0053
  488MOL0     H64405   2.479   3.894   4.840  0.6231 -0.1846  2.3217
  488MOL0     H64406   2.766   3.567   4.973 -0.8154 -0.1381  1.7004
  488MOL0     H64407   2.741   3.677   5.105 -1.0107  3.4703  0.7276
  488MOL0     H64408   2.929   3.754   4.876  3.2240  1.4607  0.3908
  488MOL0     H64409   2.885   3.848   5.023 -1.9895 -0.6377  2.2301
  488MOL0     H64410   3.011   3.571   5.004 -1.3374 -0.6645  1.1228
  488MOL0     H64411   2.964   3.631   5.151  0.5929  0.3417  0.2237
  488MOL0     H64412   3.160   3.767   4.973 -2.5215 -0.4360  0.7192
  488MOL0     H64413   3.120   3.838   5.141  0.1438 -0.6043  1.8774
  488MOL0     H64414   3.407   3.551   5.241  2.3191  2.0248 -1.0293
  488MOL0     H64415   2.559   3.513   5.022  2.2299  0.9695 -2.1180
  488MOL0     H64416   2.308   3.493   5.061 -2.5399  1.2850  0.3412
  489MOL0     O64417   4.903   0.255  10.202 -0.0321  0.0859 -0.8178
  489MOL0     C64418   4.986   0.248  10.295  0.0022 -0.4974  0.8310
  489MOL0     O64419   4.965   0.185  10.411  0.4304  0.2793  0.3864
  489MOL0     C64420   4.870   0.082  10.418 -0.2326 -0.5248  0.3034
  489MOL0     C64421   4.799   0.007  10.318  0.2736  0.6609 -0.9425
  489MOL0     C64422   4.707  -0.097  10.346  0.8241  0.1039  0.4814
  489MOL0     C64423   4.691  -0.136  10.478 -0.5473 -0.4012 -0.5942
  489MOL0     O64424   4.606  -0.236  10.516 -0.2716 -0.0047  0.4834
  489MOL0     C64425   4.519  -0.197  10.618  0.0541  0.0557 -0.4760
  489MOL0     C64426   4.368  -0.230  10.593  0.3510 -0.2048 -0.7061
  489MOL0     C64427   4.309  -0.145  10.476  1.0870  1.3072  0.6849
  489MOL0     C64428   4.162  -0.193  10.442  0.1396 -0.5566 -0.4918
  489MOL0     C64429   4.117  -0.092  10.340 -0.3444  0.3921 -0.2325
  489MOL0     C64430   3.998  -0.141  10.255 -0.5636  0.3294  0.3068
  489MOL0     C64431   3.953  -0.043  10.138  0.2293 -0.0103  0.7697
  489MOL0     C64432   3.817   0.033  10.174 -0.6475  1.1230  0.6835
  489MOL0     N64433   3.700  -0.049  10.142  0.7356  0.1493  0.2840
  489MOL0     C64434   3.612  -0.113  10.233  1.3370  1.7885 -0.0420
  489MOL0     C64435   3.531  -0.189  10.159 -0.7260 -0.3624 -0.7741
  489MOL0     C64436   3.425  -0.281  10.191  0.2740  0.2796  0.3462
  489MOL0     C64437   3.295  -0.216  10.133 -0.0128  1.0541 -0.1133
  489MOL0     C64438   3.250  -0.105  10.235 -0.2369 -0.3080  0.6665
  489MOL0     C64439   3.114  -0.056  10.208 -0.4441  0.1236 -0.8889
  489MOL0     O64440   3.031  -0.157  10.254 -0.3188  0.4698  0.1189
  489MOL0     C64441   2.897  -0.163  10.246 -0.2613 -0.6683 -0.6173
  489MOL0     C64442   2.843  -0.272  10.318  0.2502  0.7124 -0.7163
  489MOL0     C64443   2.705  -0.281  10.350  0.5111 -0.2570  0.4552
  489MOL0     C64444   2.618  -0.182  10.301  0.1040 -0.3930  0.4400
  489MOL0     C64445   2.464  -0.185  10.321  0.1093  0.1415 -0.1927
  489MOL0     O64446   2.424  -0.299  10.389  0.1127  1.4759  0.0477
  489MOL0     C64447   2.297  -0.293  10.450 -0.3461  0.6986  0.2670
  489MOL0     C64448   2.279  -0.343  10.575 -0.2519  0.4262 -0.5094
  489MOL0     C64449   2.156  -0.331  10.641  0.7951 -0.4107 -0.5215
  489MOL0     C64450   2.046  -0.278  10.573 -0.2151 -0.6722  1.0940
  489MOL0     O64451   1.930  -0.275  10.646 -0.1658 -0.8165  0.2650
  489MOL0     C64452   1.833  -0.174  10.595  0.2816 -0.1575  0.8693
  489MOL0     C64453   1.739  -0.244  10.499 -0.4195 -0.0646 -0.0659
  489MOL0     C64454   1.610  -0.176  10.464  0.7663 -0.7278  0.0876
  489MOL0     C64455   1.631  -0.020  10.438  0.9398 -0.5812  0.2712
  489MOL0     C64456   1.501   0.044  10.377 -0.3857  1.1420 -0.1730
  489MOL0     C64457   1.382   0.028  10.477  0.8304  0.6142  0.3115
  489MOL0     C64458   1.262   0.114  10.431 -0.2242 -0.1810  0.1534
  489MOL0     C64459   1.131   0.079  10.489  0.0349  0.0222 -0.0331
  489MOL0    Cl64460   1.012   0.204  10.461  0.4861  0.0340 -0.0100
  489MOL0     C64461   2.062  -0.223  10.443  0.3417 -0.3374 -0.6752
  489MOL0     C64462   2.185  -0.238  10.382 -0.2633  0.1192  0.7182
  489MOL0     O64463   2.400  -0.083  10.303  0.3787 -0.2565 -0.5604
  489MOL0     C64464   2.675  -0.081  10.228  0.1683 -0.0487  1.2274
  489MOL0     C64465   2.815  -0.069  10.202 -0.3231 -0.0439 -1.3011
  489MOL0     N64466   3.580  -0.189  10.030 -0.2480  0.5306 -0.1981
  489MOL0     N64467   3.683  -0.107  10.015  1.2708 -0.1833 -0.3366
  489MOL0     C64468   4.761  -0.065  10.579 -0.3803  0.1650 -0.3595
  489MOL0     C64469   4.840   0.052  10.548  0.2037 -0.1460 -0.1396
  489MOL0     C64470   5.128   0.298  10.265  0.7541 -0.6369  0.0548
  489MOL0     C64471   5.161   0.340  10.135  0.4239 -0.2084  0.1035
  489MOL0     C64472   5.300   0.359  10.108  0.2432  0.6070  0.5367
  489MOL0     C64473   5.391   0.359  10.205 -0.3752  0.8198  1.2437
  489MOL0     O64474   5.521   0.391  10.162  1.0876  0.1238  0.7775
  489MOL0     C64475   5.631   0.320  10.228  0.5599  0.1002  0.6470
  489MOL0     C64476   5.679   0.210  10.138 -0.7443  0.2494  0.2821
  489MOL0     C64477   5.695   0.254   9.992  0.6571  1.0051 -0.0110
  489MOL0     C64478   5.775   0.382   9.978  0.3597  0.1487 -0.8732
  489MOL0     C64479   5.910   0.354  10.021 -0.3984 -0.5027  0.0004
  489MOL0     C64480   6.023   0.336  10.049 -0.5335  0.2726  0.8256
  489MOL0     C64481   5.349   0.332  10.338 -0.1980  0.0559  0.8077
  489MOL0     C64482   5.221   0.305  10.371  0.3874 -0.1064  0.5554
  489MOL0     H64483   4.824   0.031  10.215  2.0707  0.7499 -0.5164
  489MOL0     H64484   4.672  -0.156  10.262  0.7717 -4.0407  3.1536
  489MOL0     H64485   4.523  -0.088  10.625 -0.6910  0.1530 -1.3687
  489MOL0     H64486   4.550  -0.240  10.713 -1.0885  0.2284 -0.0026
  489MOL0     H64487   4.310  -0.206  10.683 -0.4924 -3.0817 -0.3627
  489MOL0     H64488   4.363  -0.339  10.579  2.0842 -0.5673  0.9709
  489MOL0     H64489   4.368  -0.162  10.385 -1.6328 -0.2871 -0.9005
  489MOL0     H64490   4.301  -0.036  10.487 -1.5310  1.0706  1.7630
  489MOL0     H64491   4.173  -0.294  10.400  0.8225 -1.3236  1.4111
  489MOL0     H64492   4.096  -0.202  10.529 -0.6038  0.9533 -0.8622
  489MOL0     H64493   4.200  -0.064  10.276 -1.1597 -0.2132 -1.5926
  489MOL0     H64494   4.081  -0.000  10.388  0.8054  0.7869 -0.0994
  489MOL0     H64495   3.910  -0.164  10.315 -0.5743  1.5558  0.7877
  489MOL0     H64496   4.052  -0.226  10.212  0.0706  1.5214 -1.3835
  489MOL0     H64497   4.041   0.016  10.112  1.8267 -1.7280  2.0029
  489MOL0     H64498   3.936  -0.105  10.049 -2.2090  1.3531  0.2090
  489MOL0     H64499   3.817   0.130  10.124 -1.2933  1.2619  0.9523
  489MOL0     H64500   3.820   0.046  10.283 -3.1818 -2.6578  1.4160
  489MOL0     H64501   3.586  -0.103  10.337 -2.9062 -0.4826 -0.6656
  489MOL0     H64502   3.411  -0.311  10.295  1.2869  1.0366  0.7113
  489MOL0     H64503   3.456  -0.371  10.137 -1.7209  0.0822 -0.5768
  489MOL0     H64504   3.212  -0.286  10.116 -0.6140  1.7965 -0.3077
  489MOL0     H64505   3.317  -0.185  10.030  0.4329 -3.9931 -1.8207
  489MOL0     H64506   3.265  -0.137  10.338 -0.9761 -1.7985  0.3477
  489MOL0     H64507   3.314  -0.019  10.213 -1.4481  0.4690  0.0135
  489MOL0     H64508   3.103  -0.032  10.102  1.6810  2.1269 -0.7284
  489MOL0     H64509   3.080   0.028  10.270 -1.5485  0.8524 -2.4149
  489MOL0     H64510   2.915  -0.348  10.347 -1.4367 -1.1749 -1.3009
  489MOL0     H64511   2.667  -0.371  10.397  1.8788 -0.6941  0.7641
  489MOL0     H64512   2.365  -0.385  10.628 -0.8013  0.9697  0.8743
  489MOL0     H64513   2.149  -0.368  10.743 -1.0499 -0.6353 -0.7020
  489MOL0     H64514   1.869  -0.082  10.548  0.5602 -0.7552 -0.1398
  489MOL0     H64515   1.766  -0.134  10.671 -1.5092  0.3722 -0.8941
  489MOL0     H64516   1.724  -0.345  10.539  1.1023  0.0585  0.8902
  489MOL0     H64517   1.797  -0.236  10.406 -1.5449  0.8477 -0.7056
  489MOL0     H64518   1.544  -0.195  10.549 -0.3004 -0.0445 -0.5665
  489MOL0     H64519   1.568  -0.219  10.373 -1.2859  0.2997  0.4748
  489MOL0     H64520   1.649   0.037  10.529 -0.9380 -1.1861  1.0744
  489MOL0     H64521   1.717  -0.003  10.372 -0.7463 -0.1639 -1.9346
  489MOL0     H64522   1.475  -0.002  10.281 -0.6881  1.8511 -0.4344
  489MOL0     H64523   1.527   0.150  10.374  3.2090  0.5421  2.8152
  489MOL0     H64524   1.408   0.061  10.578  0.7479 -0.4126  0.6835
  489MOL0     H64525   1.365  -0.080  10.476  2.7375  0.2518  1.4134
  489MOL0     H64526   1.290   0.214  10.467 -0.6707 -0.8672  2.6227
  489MOL0     H64527   1.252   0.107  10.323  2.1564 -4.5813 -0.0062
  489MOL0     H64528   1.130   0.058  10.597 -1.6399  1.1562  0.2068
  489MOL0     H64529   1.113  -0.017  10.438  0.2760  0.2669 -0.5846
  489MOL0     H64530   1.982  -0.165  10.399 -1.1936  0.7733  3.2216
  489MOL0     H64531   2.196  -0.207  10.278  0.2880 -3.1547 -0.2944
  489MOL0     H64532   2.612  -0.007  10.179  0.3392 -1.5039 -1.4004
  489MOL0     H64533   2.850   0.026  10.164  0.0464 -0.9294 -3.2813
  489MOL0     H64534   4.749  -0.099  10.681  5.9011 -0.6227  0.5499
  489MOL0     H64535   4.891   0.117  10.620 -1.7573 -0.3497  1.5196
  489MOL0     H64536   5.081   0.337  10.062  0.1798  3.1420  0.0621
  489MOL0     H64537   5.331   0.366  10.004  2.6392  0.0051  1.1467
  489MOL0     H64538   5.602   0.295  10.331 -3.1514 -1.9614 -0.7099
  489MOL0     H64539   5.710   0.394  10.246 -0.3285  1.9046 -2.2136
  489MOL0     H64540   5.774   0.172  10.175 -1.1643  0.3211  1.4902
  489MOL0     H64541   5.617   0.120  10.143 -2.1332  1.0154 -1.6739
  489MOL0     H64542   5.594   0.274   9.954  0.5087  1.5637  0.6557
  489MOL0     H64543   5.741   0.174   9.933 -1.8749 -0.6733  0.1471
  489MOL0     H64544   5.761   0.401   9.871  0.2134 -0.4150 -0.9598
  489MOL0     H64545   5.722   0.461  10.032 -0.4418 -1.2766  0.5010
  489MOL0     H64546   6.118   0.322  10.097  0.6174  0.1111 -1.3520
  489MOL0     H64547   5.426   0.334  10.414  1.6737 -2.0381 -0.8856
  489MOL0     H64548   5.177   0.290  10.469 -1.5192  3.7225  0.4443
  490MOL0     O64549  10.258   6.397   6.937  0.1985  0.1563  0.2366
  490MOL0     C64550  10.297   6.281   6.947 -0.4884 -0.6915  0.2894
  490MOL0     O64551  10.223   6.177   7.002  0.5516 -0.1393  0.1229
  490MOL0     C64552  10.099   6.207   7.063  0.8230 -0.2807 -0.0474
  490MOL0     C64553  10.061   6.331   7.131  0.1148  0.0469  0.9207
  490MOL0     C64554   9.929   6.351   7.158  0.6865  0.6257  0.9926
  490MOL0     C64555   9.834   6.245   7.130  0.0714  0.5459  0.0877
  490MOL0     O64556   9.698   6.268   7.134  0.7666  1.2094 -0.5142
  490MOL0     C64557   9.644   6.285   7.261  0.0824 -0.2105  0.7548
  490MOL0     C64558   9.493   6.250   7.251 -0.5188  0.4654  0.5983
  490MOL0     C64559   9.413   6.364   7.180  0.0318  0.8844 -0.2864
  490MOL0     C64560   9.273   6.332   7.143 -0.5953  0.3661  0.5105
  490MOL0     C64561   9.196   6.299   7.273 -0.4871  0.2391  0.0905
  490MOL0     C64562   9.053   6.269   7.224  0.6916 -0.0567 -1.1050
  490MOL0     C64563   8.956   6.226   7.336 -0.3757  0.5821  0.5550
  490MOL0     C64564   8.815   6.188   7.292 -0.7780  0.3084 -0.6325
  490MOL0     N64565   8.746   6.317   7.256 -0.2949  0.7390  0.2780
  490MOL0     C64566   8.670   6.327   7.145  0.7770 -0.4338  0.6541
  490MOL0     C64567   8.608   6.446   7.152  0.1994  0.3109  0.2830
  490MOL0     C64568   8.494   6.497   7.064  0.1550  0.4829  0.9188
  490MOL0     C64569   8.354   6.461   7.124  0.0858  0.2654  1.0757
  490MOL0     C64570   8.294   6.548   7.231 -0.4046 -0.2403  1.4093
  490MOL0     C64571   8.213   6.662   7.177 -0.0340 -0.2820 -0.2274
  490MOL0     O64572   8.131   6.754   7.262 -0.3498  0.3322  0.0955
  490MOL0     C64573   8.005   6.723   7.307 -0.2710  0.3371  0.7579
  490MOL0     C64574   7.946   6.594   7.300 -0.3170 -0.2631  0.1641
  490MOL0     C64575   7.815   6.568   7.343 -0.4824  0.2932  0.0159
  490MOL0     C64576   7.741   6.667   7.394 -0.0663  0.0336  0.1315
  490MOL0     C64577   7.606   6.646   7.460  0.3293 -0.4047  0.1370
  490MOL0     O64578   7.504   6.744   7.457  0.2713  0.2815 -0.4014
  490MOL0     C64579   7.382   6.702   7.507  0.1015 -0.1211  1.0210
  490MOL0     C64580   7.325   6.780   7.609  0.5036 -0.1939 -0.2084
  490MOL0     C64581   7.187   6.764   7.647  0.0552 -0.7859  0.3432
  490MOL0     C64582   7.109   6.654   7.604 -1.1328 -0.2382  0.3301
  490MOL0     O64583   6.977   6.635   7.626 -0.2942 -0.4847 -0.1469
  490MOL0     C64584   6.909   6.730   7.709 -0.9239 -0.6262 -0.8294
  490MOL0     C64585   6.766   6.676   7.717 -0.9791 -0.4984  0.3993
  490MOL0     C64586   6.670   6.751   7.813  0.4938  0.6034 -0.5545
  490MOL0     C64587   6.530   6.694   7.814  0.4181 -0.0550  0.1163
  490MOL0     C64588   6.450   6.752   7.934  0.5826 -0.1492 -0.5154
  490MOL0     C64589   6.305   6.702   7.941 -0.0176 -0.0507 -0.6765
  490MOL0     C64590   6.250   6.748   8.079  0.6431  1.1063 -0.0326
  490MOL0     C64591   6.096   6.719   8.104  0.1193 -0.3451  0.0117
  490MOL0    Cl64592   6.031   6.560   8.079  0.5281 -0.2578 -0.1062
  490MOL0     C64593   7.173   6.576   7.503  0.6189  0.2718  0.3551
  490MOL0     C64594   7.305   6.596   7.459 -0.8206 -0.7395  0.5236
  490MOL0     O64595   7.599   6.538   7.510  0.2096 -0.0362 -0.3136
  490MOL0     C64596   7.800   6.796   7.418  0.0381  0.0444  0.8500
  490MOL0     C64597   7.925   6.819   7.369 -0.1353 -0.6621 -0.3839
  490MOL0     N64598   8.635   6.494   7.278 -0.3036 -0.3936  0.7144
  490MOL0     N64599   8.711   6.418   7.339 -0.7688  0.4172  0.8040
  490MOL0     C64600   9.876   6.117   7.098  0.0867 -0.3451 -0.2135
  490MOL0     C64601  10.011   6.100   7.061 -0.3074 -0.5202 -0.9125
  490MOL0     C64602  10.438   6.247   6.921  0.4061 -0.3978 -0.3225
  490MOL0     C64603  10.491   6.122   6.943 -0.4716 -1.2070 -0.0823
  490MOL0     C64604  10.626   6.095   6.924  0.8712  0.1549  0.4540
  490MOL0     C64605  10.713   6.200   6.897  0.4385  0.1350  0.0018
  490MOL0     O64606  10.848   6.180   6.903 -0.0146 -0.2608  0.5357
  490MOL0     C64607  10.902   6.093   6.797 -0.0179 -0.3721  0.7821
  490MOL0     C64608  11.050   6.136   6.780  0.3462 -0.0562 -0.0888
  490MOL0     C64609  11.128   6.049   6.674  0.0686 -0.2603  0.2194
  490MOL0     C64610  11.086   6.036   6.525 -0.3655 -0.0083  1.0008
  490MOL0     C64611  11.087   6.169   6.464  1.0731  0.3375 -1.0431
  490MOL0     C64612  11.085   6.262   6.391 -0.7231 -0.9037 -0.2768
  490MOL0     C64613  10.658   6.324   6.869 -0.4728 -0.6458 -0.5519
  490MOL0     C64614  10.523   6.351   6.880 -0.4492  0.1584  0.3345
  490MOL0     H64615  10.135   6.410   7.144  1.7277 -1.4608  1.3911
  490MOL0     H64616   9.890   6.446   7.191 -1.2795  0.7735 -1.4527
  490MOL0     H64617   9.645   6.391   7.290  0.2946 -0.1276  0.4469
  490MOL0     H64618   9.696   6.232   7.341  1.7677 -0.8359 -0.6876
  490MOL0     H64619   9.466   6.242   7.357  0.0534 -2.7212  0.5966
  490MOL0     H64620   9.471   6.157   7.197 -0.6898  2.1585 -2.4649
  490MOL0     H64621   9.457   6.402   7.087 -0.0651  0.7279 -0.3975
  490MOL0     H64622   9.417   6.445   7.253  3.0447 -1.3074  2.2261
  490MOL0     H64623   9.233   6.429   7.113  0.8595  0.7360 -0.3156
  490MOL0     H64624   9.260   6.259   7.063 -0.0564 -0.5854  1.2785
  490MOL0     H64625   9.199   6.376   7.352 -2.5132 -2.2584  2.8225
  490MOL0     H64626   9.236   6.211   7.324  1.0106 -0.4793 -2.1974
  490MOL0     H64627   9.059   6.196   7.142  2.9660 -1.0174 -0.1663
  490MOL0     H64628   9.008   6.359   7.182  2.0754  0.7537 -0.9175
  490MOL0     H64629   8.991   6.140   7.394 -1.3563 -0.1991  0.0291
  490MOL0     H64630   8.936   6.307   7.406 -0.9610 -1.6578  3.1377
  490MOL0     H64631   8.745   6.152   7.368 -0.0606 -1.1772 -0.6545
  490MOL0     H64632   8.816   6.120   7.206 -3.3141 -1.6277  0.7216
  490MOL0     H64633   8.652   6.255   7.066 -1.6136  1.3254 -0.5334
  490MOL0     H64634   8.514   6.454   6.965  0.0910 -0.4662  1.3136
  490MOL0     H64635   8.502   6.606   7.055 -1.9947  0.5607 -1.4674
  490MOL0     H64636   8.357   6.356   7.154 -2.4650 -0.6672 -1.4334
  490MOL0     H64637   8.295   6.470   7.032  1.7392  4.4003  0.1837
  490MOL0     H64638   8.220   6.492   7.289 -0.9458 -0.8048  0.2096
  490MOL0     H64639   8.380   6.577   7.292  1.4005 -1.2204 -0.5796
  490MOL0     H64640   8.144   6.624   7.101 -0.3982  2.7087 -1.5540
  490MOL0     H64641   8.280   6.721   7.114  2.6752 -1.4969  1.3078
  490MOL0     H64642   8.015   6.514   7.274  1.7278  1.4522  0.0250
  490MOL0     H64643   7.791   6.463   7.333  1.1416 -0.1865  0.7681
  490MOL0     H64644   7.377   6.870   7.643  0.8298 -0.2394 -0.5761
  490MOL0     H64645   7.140   6.825   7.724  1.2833  2.7200 -1.4942
  490MOL0     H64646   6.915   6.831   7.667  0.2399  0.1700  1.0998
  490MOL0     H64647   6.953   6.724   7.809  1.2001 -3.6110 -1.7945
  490MOL0     H64648   6.765   6.568   7.735 -1.6960 -0.6459 -0.4291
  490MOL0     H64649   6.726   6.690   7.616 -2.3488  0.8918  1.0883
  490MOL0     H64650   6.677   6.856   7.784  0.2668  0.2550 -1.9789
  490MOL0     H64651   6.713   6.742   7.913  0.9776 -0.5142 -0.8408
  490MOL0     H64652   6.478   6.709   7.719  2.6475  3.2503 -0.7105
  490MOL0     H64653   6.526   6.585   7.828  1.5794  0.1859  2.9447
  490MOL0     H64654   6.451   6.861   7.920  0.4293 -0.2037 -0.9620
  490MOL0     H64655   6.509   6.737   8.025  0.1626  2.1978  0.2236
  490MOL0     H64656   6.289   6.598   7.912 -3.5707  1.5271 -5.6457
  490MOL0     H64657   6.250   6.747   7.858 -0.7339 -0.2374 -0.3122
  490MOL0     H64658   6.304   6.700   8.162  0.7193  0.2881 -0.5413
  490MOL0     H64659   6.282   6.852   8.085 -1.7466  1.8430  1.4967
  490MOL0     H64660   6.049   6.793   8.039  0.5623  0.8997  1.0588
  490MOL0     H64661   6.080   6.744   8.209  0.1397  1.4401 -0.3739
  490MOL0     H64662   7.101   6.504   7.466  0.6800 -1.9970  4.1270
  490MOL0     H64663   7.339   6.531   7.379  0.3014 -0.2638  0.6004
  490MOL0     H64664   7.749   6.874   7.474 -0.9491  0.5874 -0.7544
  490MOL0     H64665   7.969   6.917   7.385 -0.0080 -0.4037 -2.1488
  490MOL0     H64666   9.809   6.033   7.080  0.4050 -0.7884  0.6048
  490MOL0     H64667  10.069   6.014   7.030  1.7597 -0.0237  1.2292
  490MOL0     H64668  10.429   6.039   6.977  0.8544 -2.5296 -0.7670
  490MOL0     H64669  10.665   5.997   6.951 -1.2893 -0.7054  0.6571
  490MOL0     H64670  10.841   6.108   6.707  1.1990  2.4811  0.3199
  490MOL0     H64671  10.897   5.991   6.834  2.6859 -0.1826  1.9196
  490MOL0     H64672  11.052   6.243   6.755  0.1328  0.3171  1.3755
  490MOL0     H64673  11.093   6.116   6.879  3.2487  0.1244 -1.2111
  490MOL0     H64674  11.138   5.945   6.708 -1.8719 -0.8910 -0.9492
  490MOL0     H64675  11.227   6.094   6.677 -0.9989  2.2942 -0.5495
  490MOL0     H64676  11.137   5.959   6.466  1.6884  1.5950  0.5540
  490MOL0     H64677  10.982   6.005   6.531 -0.9367  1.9598  2.1323
  490MOL0     H64678  11.095   6.347   6.327 -0.1968 -0.7851 -0.0424
  490MOL0     H64679  10.724   6.406   6.843  1.5533 -1.5136  1.5615
  490MOL0     H64680  10.491   6.448   6.842  1.0626  1.8279  2.9972
  491MOL0     O64681  10.458   1.260   9.696  1.1002  0.3278 -0.0422
  491MOL0     C64682  10.460   1.375   9.666 -0.3678  0.0903  0.3936
  491MOL0     O64683  10.480   1.479   9.758 -0.0731 -0.0550  0.3311
  491MOL0     C64684  10.528   1.441   9.881 -0.7393 -0.1773  0.8606
  491MOL0     C64685  10.667   1.454   9.914  0.1448 -0.2385 -0.2187
  491MOL0     C64686  10.715   1.418  10.046 -0.3944  0.4754  1.4704
  491MOL0     C64687  10.633   1.357  10.135  0.2716  0.5181 -0.5744
  491MOL0     O64688  10.685   1.317  10.252 -0.3846  0.0645  1.1604
  491MOL0     C64689  10.606   1.233  10.337  0.6469 -0.8953 -0.9388
  491MOL0     C64690  10.696   1.208  10.455  0.2297  0.5272 -0.1894
  491MOL0     C64691  10.770   1.085  10.423  0.0456 -0.8245  0.4130
  491MOL0     C64692  10.896   1.070  10.518  0.2406 -0.5019 -0.6980
  491MOL0     C64693  10.959   0.926  10.508  0.4424 -0.3455 -0.1422
  491MOL0     C64694  11.082   0.904  10.587 -0.2975  0.0830 -0.4085
  491MOL0     C64695  11.130   0.758  10.590 -0.5649 -0.6792  0.5827
  491MOL0     C64696  11.030   0.654  10.642  0.7929 -0.5602 -0.4554
  491MOL0     N64697  11.079   0.519  10.616  0.0373  0.3944  0.1368
  491MOL0     C64698  11.206   0.463  10.649  0.8915  0.5021 -0.8270
  491MOL0     C64699  11.189   0.331  10.622 -0.6505 -0.6135  0.4552
  491MOL0     C64700  11.297   0.229  10.614  0.4392 -0.1862  0.3538
  491MOL0     C64701  11.251   0.098  10.677 -0.0976  0.1259 -0.6366
  491MOL0     C64702  11.375   0.014  10.677  0.1549 -0.1810  0.6601
  491MOL0     C64703  11.341  -0.134  10.716  0.3092 -0.1638 -0.1730
  491MOL0     O64704  11.323  -0.132  10.862 -0.6349 -0.3519  0.8786
  491MOL0     C64705  11.240  -0.221  10.926 -0.2845  0.0325  0.6292
  491MOL0     C64706  11.145  -0.174  11.016 -0.6013  0.1302 -0.0581
  491MOL0     C64707  11.063  -0.273  11.074  0.5031  0.4727  0.1985
  491MOL0     C64708  11.084  -0.411  11.068 -0.0270  0.1590  0.0734
  491MOL0     C64709  11.023  -0.500  11.171 -0.4154  0.5410  0.9040
  491MOL0     O64710  10.909  -0.464  11.237  0.1996  0.1202 -0.3681
  491MOL0     C64711  10.862  -0.545  11.337 -0.0328 -0.6677 -0.2003
  491MOL0     C64712  10.820  -0.676  11.315 -0.3369  0.6664  0.5318
  491MOL0     C64713  10.763  -0.754  11.414  0.3663  0.1354  0.8242
  491MOL0     C64714  10.751  -0.711  11.538 -0.2279 -0.5821 -0.5356
  491MOL0     O64715  10.700  -0.806  11.624  0.1179  0.0555  0.1640
  491MOL0     C64716  10.636  -0.753  11.742  0.8381 -0.2032 -0.3067
  491MOL0     C64717  10.548  -0.864  11.799 -0.3141  1.0985  0.6714
  491MOL0     C64718  10.611  -1.001  11.820 -0.1365  0.0679  0.4478
  491MOL0     C64719  10.701  -0.996  11.944 -0.3301  0.8977 -0.9620
  491MOL0     C64720  10.756  -1.133  11.985  0.0659  0.1163 -0.7510
  491MOL0     C64721  10.815  -1.153  12.136 -0.1290  0.5065  0.0695
  491MOL0     C64722  10.903  -1.043  12.180  0.0743  0.1884  0.6031
  491MOL0     C64723  11.011  -1.078  12.278 -0.4596  0.0276 -0.4874
  491MOL0    Cl64724  10.941  -1.089  12.449 -0.1529 -0.2995  0.3855
  491MOL0     C64725  10.807  -0.586  11.575  0.3218 -0.0840  0.1437
  491MOL0     C64726  10.861  -0.504  11.471 -0.3039  0.2391  0.2012
  491MOL0     O64727  11.091  -0.598  11.200  0.0021  0.4724 -0.3844
  491MOL0     C64728  11.175  -0.454  10.972 -0.0380 -0.1087  0.2576
  491MOL0     C64729  11.253  -0.355  10.909  0.5588  0.2070  0.3896
  491MOL0     N64730  11.060   0.307  10.602  0.4108 -0.3829 -0.2319
  491MOL0     N64731  11.001   0.413  10.581  0.0283 -1.0358 -0.1151
  491MOL0     C64732  10.497   1.333  10.093 -0.3209 -0.1816 -1.1105
  491MOL0     C64733  10.449   1.380   9.975  0.0952  0.6251  0.4922
  491MOL0     C64734  10.452   1.407   9.524  0.5934 -0.0191 -0.6884
  491MOL0     C64735  10.480   1.308   9.432 -0.4707 -0.4088  0.9055
  491MOL0     C64736  10.472   1.328   9.294 -0.8921  0.3829 -0.2974
  491MOL0     C64737  10.433   1.455   9.242  0.1576 -0.6069  0.3886
  491MOL0     O64738  10.431   1.480   9.105 -0.3718 -0.2148  0.3222
  491MOL0     C64739  10.539   1.428   9.023 -0.2414  0.1434  0.5855
  491MOL0     C64740  10.563   1.508   8.894  0.7567 -0.3918 -0.0636
  491MOL0     C64741  10.697   1.482   8.826 -0.1264 -0.0985 -0.4882
  491MOL0     C64742  10.695   1.529   8.679 -0.1558  0.5698  0.6613
  491MOL0     C64743  10.682   1.670   8.664 -0.2819 -0.0987 -0.2859
  491MOL0     C64744  10.669   1.791   8.658 -0.4134 -0.1018  0.4511
  491MOL0     C64745  10.390   1.553   9.341  0.1552  0.4975 -0.4566
  491MOL0     C64746  10.396   1.530   9.476  0.1754 -0.1304  0.2520
  491MOL0     H64747  10.716   1.510   9.834  3.0454  0.4349  1.8687
  491MOL0     H64748  10.821   1.425  10.072 -0.1974  1.2869  0.4843
  491MOL0     H64749  10.574   1.140  10.289  0.5510 -3.0582  2.8985
  491MOL0     H64750  10.519   1.284  10.379  1.1544 -0.6606 -0.1604
  491MOL0     H64751  10.641   1.187  10.548  1.0188  0.8335  0.3604
  491MOL0     H64752  10.776   1.282  10.466  0.7837 -0.0042 -0.5421
  491MOL0     H64753  10.811   1.086  10.322 -2.7894 -0.1917 -0.8133
  491MOL0     H64754  10.708   0.996  10.433  1.2962 -1.4487  5.0048
  491MOL0     H64755  10.977   1.139  10.496  0.4980 -0.6106 -0.1180
  491MOL0     H64756  10.868   1.087  10.623  1.6888  0.6360 -0.4740
  491MOL0     H64757  10.975   0.895  10.404 -0.2240 -0.7385 -0.1368
  491MOL0     H64758  10.882   0.853  10.535  0.1690 -0.4621 -1.1817
  491MOL0     H64759  11.068   0.949  10.686  0.0776  1.9626 -1.1759
  491MOL0     H64760  11.161   0.967  10.546 -0.6031  0.5223 -0.3288
  491MOL0     H64761  11.162   0.737  10.488 -2.6217  0.4334 -0.3729
  491MOL0     H64762  11.222   0.756  10.649  0.7189 -3.0711 -1.3697
  491MOL0     H64763  10.931   0.651  10.596 -1.0326  0.9643  2.9271
  491MOL0     H64764  11.009   0.660  10.750 -3.1669 -1.7643 -1.0171
  491MOL0     H64765  11.299   0.513  10.677  1.0671  0.0947 -0.6772
  491MOL0     H64766  11.382   0.267  10.672 -1.6820 -1.0024  4.3489
  491MOL0     H64767  11.327   0.215  10.510 -0.3391 -1.9987  0.3318
  491MOL0     H64768  11.175   0.058  10.609 -1.9814  0.0876  1.4185
  491MOL0     H64769  11.208   0.118  10.775 -1.1850  3.1824 -1.6534
  491MOL0     H64770  11.427   0.032  10.582  0.0918  1.3003  0.8908
  491MOL0     H64771  11.442   0.056  10.751  0.1574  2.7529 -0.8705
  491MOL0     H64772  11.419  -0.206  10.690 -0.7493 -0.9264 -1.3469
  491MOL0     H64773  11.243  -0.174  10.687  0.4174 -3.2646  3.1021
  491MOL0     H64774  11.135  -0.067  11.034  1.2954  0.2911  0.2660
  491MOL0     H64775  10.991  -0.240  11.149  1.6048 -1.3065  2.1615
  491MOL0     H64776  10.820  -0.701  11.209 -1.0141  2.2315  0.1308
  491MOL0     H64777  10.721  -0.853  11.401  0.0638  0.2994  0.5180
  491MOL0     H64778  10.579  -0.661  11.729 -1.5487 -1.9116 -3.1433
  491MOL0     H64779  10.716  -0.744  11.817  0.3192 -0.6348  0.3150
  491MOL0     H64780  10.471  -0.871  11.721  0.1955 -3.0324  0.3253
  491MOL0     H64781  10.506  -0.828  11.894  0.0583  0.2825  1.1624
  491MOL0     H64782  10.670  -1.021  11.730 -0.9850  0.1715 -0.1541
  491MOL0     H64783  10.537  -1.082  11.827  0.7483 -0.8288 -0.2223
  491MOL0     H64784  10.786  -0.928  11.929  0.9927 -0.1621  1.1410
  491MOL0     H64785  10.635  -0.975  12.028 -0.3935 -2.5642  0.0112
  491MOL0     H64786  10.836  -1.153  11.913  0.4455 -0.5380 -0.1689
  491MOL0     H64787  10.683  -1.213  11.969  3.8054 -4.1167  1.1207
  491MOL0     H64788  10.873  -1.245  12.127  0.2584  0.8877 -1.9376
  491MOL0     H64789  10.727  -1.169  12.198 -2.6987 -0.5911 -3.5019
  491MOL0     H64790  10.944  -0.999  12.089  0.0349 -3.5155 -1.3885
  491MOL0     H64791  10.837  -0.969  12.226 -2.8106 -0.3804 -2.2941
  491MOL0     H64792  11.093  -1.005  12.276 -0.4773  0.0380 -0.8569
  491MOL0     H64793  11.053  -1.177  12.257  0.8611  0.2050  1.1219
  491MOL0     H64794  10.815  -0.565  11.681 -0.4509  0.8154  0.0297
  491MOL0     H64795  10.896  -0.406  11.503 -0.4379  1.0029 -1.8631
  491MOL0     H64796  11.197  -0.560  10.959  3.9425  0.3081  2.0868
  491MOL0     H64797  11.330  -0.398  10.846  1.5805  0.1845  1.6192
  491MOL0     H64798  10.431   1.277  10.160 -1.0613  1.8709 -0.0565
  491MOL0     H64799  10.347   1.355   9.944  1.6269 -0.8347 -4.3285
  491MOL0     H64800  10.487   1.203   9.461 -0.1512 -0.6663 -0.0841
  491MOL0     H64801  10.494   1.242   9.232  1.0629  0.4635  0.2207
  491MOL0     H64802  10.536   1.323   8.994 -1.4895  0.5368 -0.8494
  491MOL0     H64803  10.633   1.443   9.077  0.2969 -0.6575 -0.0914
  491MOL0     H64804  10.480   1.476   8.830 -1.1033  1.3481  1.3465
  491MOL0     H64805  10.544   1.614   8.910  0.5467 -0.3789 -0.3814
  491MOL0     H64806  10.712   1.374   8.831  0.8972  0.0461 -0.2374
  491MOL0     H64807  10.771   1.536   8.885  0.0633  1.1535 -1.8066
  491MOL0     H64808  10.788   1.495   8.633 -0.8382 -0.9568  0.3546
  491MOL0     H64809  10.611   1.481   8.627 -0.2220 -0.7564  1.9125
  491MOL0     H64810  10.653   1.897   8.653 -1.3992 -0.1228  2.1274
  491MOL0     H64811  10.364   1.653   9.310  1.8823  1.8562  2.1330
  491MOL0     H64812  10.359   1.605   9.546 -1.9284  0.7231 -1.6553
  492MOL0     O64813   9.698   2.611   4.364  0.7297 -0.7385 -0.0298
  492MOL0     C64814   9.805   2.665   4.410  0.2345 -0.5327 -0.2132
  492MOL0     O64815   9.826   2.793   4.412 -0.2122  0.8860 -0.0323
  492MOL0     C64816   9.729   2.876   4.370  0.4361  0.0918  0.1315
  492MOL0     C64817   9.755   2.942   4.250  0.0789  0.0047  1.5086
  492MOL0     C64818   9.663   3.040   4.213 -0.0153  0.2916  0.9086
  492MOL0     C64819   9.534   3.051   4.271  0.2284  0.7018 -0.2518
  492MOL0     O64820   9.444   3.134   4.225  0.1220 -0.5825 -0.1290
  492MOL0     C64821   9.311   3.089   4.208 -0.0011  0.2262 -0.4107
  492MOL0     C64822   9.301   3.050   4.059  1.4096 -0.2685  0.0924
  492MOL0     C64823   9.156   3.051   4.018  0.1472 -0.2433  0.1827
  492MOL0     C64824   9.122   2.971   3.891 -1.0133  0.0361 -0.4274
  492MOL0     C64825   8.975   2.923   3.884  0.4794  0.4314  0.5340
  492MOL0     C64826   8.873   3.030   3.820  0.6505 -0.0553 -0.2573
  492MOL0     C64827   8.770   3.084   3.921 -0.1912 -0.3094  0.2810
  492MOL0     C64828   8.668   3.176   3.842  0.2774  0.7812  0.0497
  492MOL0     N64829   8.539   3.206   3.908 -0.1066 -0.3283 -0.3387
  492MOL0     C64830   8.421   3.198   3.846 -0.3317 -0.0185 -0.4278
  492MOL0     C64831   8.330   3.256   3.935  0.2525  0.0116  0.5801
  492MOL0     C64832   8.181   3.256   3.926  0.7982 -0.3574  0.6314
  492MOL0     C64833   8.109   3.379   3.982  0.0568 -0.3100  0.1285
  492MOL0     C64834   7.980   3.411   3.914 -0.3377 -0.5322  0.2396
  492MOL0     C64835   7.887   3.492   4.001 -0.1434  0.2729 -0.2869
  492MOL0     O64836   7.824   3.577   3.897  0.7384 -0.0903 -0.4589
  492MOL0     C64837   7.698   3.609   3.922  0.6182  0.3333 -0.1788
  492MOL0     C64838   7.659   3.701   4.022  1.1538  0.1286 -0.2015
  492MOL0     C64839   7.526   3.756   4.027 -0.3661  0.4998 -0.0230
  492MOL0     C64840   7.424   3.710   3.935 -0.2719 -0.0569  0.4209
  492MOL0     C64841   7.285   3.757   3.941  0.2043 -0.8639 -0.4029
  492MOL0     O64842   7.197   3.722   3.832  0.0237 -0.6800 -0.4174
  492MOL0     C64843   7.065   3.748   3.828  0.7116 -0.0530 -0.7676
  492MOL0     C64844   6.994   3.829   3.914 -0.8179 -0.6426  0.0526
  492MOL0     C64845   6.856   3.839   3.914 -0.6882 -0.6458 -0.0115
  492MOL0     C64846   6.780   3.759   3.828  0.3174 -0.9406 -0.2029
  492MOL0     O64847   6.650   3.772   3.801  0.6366  0.0902  0.0906
  492MOL0     C64848   6.571   3.874   3.866  0.1656 -0.6377 -1.6698
  492MOL0     C64849   6.424   3.861   3.823  0.3372 -0.2607 -0.0261
  492MOL0     C64850   6.416   3.853   3.671 -1.0057 -0.1065 -0.9141
  492MOL0     C64851   6.270   3.861   3.624  0.4616  0.4449  0.2923
  492MOL0     C64852   6.265   3.888   3.473 -0.5787 -0.1939 -0.2507
  492MOL0     C64853   6.126   3.870   3.415 -0.0923  0.7706  1.1955
  492MOL0     C64854   6.129   3.850   3.258  0.4028  0.2183 -0.1668
  492MOL0     C64855   5.996   3.807   3.190  0.3562 -0.1004  0.3004
  492MOL0    Cl64856   5.959   3.638   3.221 -0.2790 -0.0710 -0.1355
  492MOL0     C64857   6.855   3.684   3.737 -0.3600  0.1412  0.1108
  492MOL0     C64858   6.992   3.682   3.728  0.9104  0.5942  0.5615
  492MOL0     O64859   7.262   3.847   4.025  0.9419 -0.4698  0.0822
  492MOL0     C64860   7.462   3.614   3.835  0.1100 -0.3658 -0.2063
  492MOL0     C64861   7.599   3.563   3.837  0.6268  0.7675 -0.9512
  492MOL0     N64862   8.392   3.287   4.049  0.5264  0.3207  0.0337
  492MOL0     N64863   8.516   3.262   4.028  0.0433 -0.5487  0.1495
  492MOL0     C64864   9.509   2.973   4.386 -0.2084 -0.6780 -0.5634
  492MOL0     C64865   9.610   2.894   4.440  0.8719  0.5095  0.5422
  492MOL0     C64866   9.915   2.592   4.476  0.1299  0.0260  0.1766
  492MOL0     C64867  10.039   2.647   4.511 -1.0955  0.1951 -0.1674
  492MOL0     C64868  10.147   2.560   4.542  0.9324  0.2878  0.7676
  492MOL0     C64869  10.125   2.427   4.539 -0.1136  1.3703 -0.6636
  492MOL0     O64870  10.238   2.352   4.569  0.0442 -0.2110  0.1318
  492MOL0     C64871  10.291   2.255   4.470  0.6921  0.3479  0.1161
  492MOL0     C64872  10.356   2.320   4.353 -0.7622  0.4335  0.3110
  492MOL0     C64873  10.485   2.388   4.395 -0.1232 -0.0164  0.6907
  492MOL0     C64874  10.556   2.465   4.281 -0.1551 -0.5377 -0.2661
  492MOL0     C64875  10.643   2.574   4.333 -0.4539 -0.0930 -0.4075
  492MOL0     C64876  10.708   2.658   4.388  0.6213  0.1493  0.6548
  492MOL0     C64877  10.002   2.370   4.502  0.7424 -0.2449 -0.8707
  492MOL0     C64878   9.896   2.452   4.464 -0.3463 -0.0763  0.2457
  492MOL0     H64879   9.848   2.946   4.196 -0.9003  2.5681 -0.1685
  492MOL0     H64880   9.680   3.098   4.122 -1.5237  0.5655  0.7680
  492MOL0     H64881   9.254   3.179   4.232  1.4000  0.4525  2.5376
  492MOL0     H64882   9.281   3.001   4.266 -1.9119 -0.0174 -1.6909
  492MOL0     H64883   9.340   2.949   4.040 -0.6782 -0.9735 -0.8435
  492MOL0     H64884   9.355   3.130   4.009  1.3242  0.8883  1.7703
  492MOL0     H64885   9.131   3.156   4.001 -0.7812 -0.3785  0.6422
  492MOL0     H64886   9.090   3.010   4.095 -0.9783  2.3008  0.6538
  492MOL0     H64887   9.146   3.029   3.801  0.3600  1.0816  0.5703
  492MOL0     H64888   9.180   2.879   3.896 -2.2959 -0.8563 -1.1980
  492MOL0     H64889   8.937   2.892   3.982  0.8104 -2.1609 -0.0922
  492MOL0     H64890   8.979   2.827   3.833 -0.5513 -1.0535  3.0711
  492MOL0     H64891   8.806   2.969   3.758 -3.4988 -0.2621  3.8417
  492MOL0     H64892   8.912   3.114   3.762 -3.7554  0.4844 -2.9485
  492MOL0     H64893   8.707   3.001   3.952  1.7808 -1.2709  1.9186
  492MOL0     H64894   8.811   3.139   4.006 -1.7926  1.4048  0.0125
  492MOL0     H64895   8.636   3.111   3.760 -0.1096 -1.3244  1.7519
  492MOL0     H64896   8.721   3.261   3.799  0.8948  1.3552  1.8333
  492MOL0     H64897   8.407   3.154   3.748 -0.1003  0.9921 -0.9289
  492MOL0     H64898   8.144   3.163   3.971 -1.3580  0.2780  0.3046
  492MOL0     H64899   8.149   3.245   3.822 -0.3102 -1.1120  1.0300
  492MOL0     H64900   8.174   3.467   3.983 -1.6018  0.9790  1.6941
  492MOL0     H64901   8.107   3.361   4.090 -0.0721 -1.0974  0.0014
  492MOL0     H64902   8.011   3.466   3.825  0.7049 -2.4458 -0.6359
  492MOL0     H64903   7.922   3.328   3.872 -0.3559  0.5494 -2.0376
  492MOL0     H64904   7.949   3.564   4.056  2.7362 -1.2114 -1.3521
  492MOL0     H64905   7.829   3.432   4.071  2.8195  0.3576  2.4851
  492MOL0     H64906   7.733   3.723   4.099  0.1331 -0.9951  1.1306
  492MOL0     H64907   7.514   3.835   4.101  2.6417  2.0207 -0.9809
  492MOL0     H64908   7.041   3.899   3.983 -1.5088  1.7327 -1.7528
  492MOL0     H64909   6.805   3.907   3.981  1.0299  1.6395 -0.8679
  492MOL0     H64910   6.623   3.968   3.846  0.4033 -0.8321 -1.9767
  492MOL0     H64911   6.569   3.862   3.974  3.7406  2.8749 -0.9875
  492MOL0     H64912   6.368   3.949   3.857 -0.7852 -0.9548 -0.0329
  492MOL0     H64913   6.373   3.777   3.871 -0.4992  0.5555  0.5344
  492MOL0     H64914   6.468   3.761   3.639  1.5719  0.2795  1.7081
  492MOL0     H64915   6.478   3.930   3.624  2.4207 -1.9334  0.2715
  492MOL0     H64916   6.234   3.758   3.636 -2.0723  1.3000  0.5844
  492MOL0     H64917   6.209   3.929   3.684 -0.9766 -0.0433 -0.5442
  492MOL0     H64918   6.329   3.809   3.433  2.0978  0.5773  2.1576
  492MOL0     H64919   6.300   3.991   3.458  2.3557 -0.4289  3.3631
  492MOL0     H64920   6.065   3.955   3.448  0.2962  0.7810  1.8959
  492MOL0     H64921   6.076   3.784   3.461 -0.4646  1.1299  1.4722
  492MOL0     H64922   6.150   3.947   3.211  1.9213 -0.7068 -1.4947
  492MOL0     H64923   6.215   3.791   3.228 -0.3332 -0.2574 -1.4244
  492MOL0     H64924   5.991   3.826   3.083 -1.4683  1.5744  0.6239
  492MOL0     H64925   5.906   3.861   3.221 -0.2387 -0.1338 -1.2818
  492MOL0     H64926   6.795   3.629   3.666 -1.4279 -0.0984  1.1612
  492MOL0     H64927   7.026   3.607   3.657  0.4860  1.2733 -0.3691
  492MOL0     H64928   7.390   3.575   3.764 -1.6792 -0.0102  1.3264
  492MOL0     H64929   7.626   3.477   3.777  0.6339 -1.4370  1.9481
  492MOL0     H64930   9.420   2.980   4.447  1.6211  0.1453  2.2039
  492MOL0     H64931   9.598   2.846   4.537 -2.8590 -0.3742 -0.2010
  492MOL0     H64932  10.055   2.754   4.503 -1.6651  0.1717 -2.0585
  492MOL0     H64933  10.248   2.597   4.556  2.1481 -1.3965 -2.6243
  492MOL0     H64934  10.203   2.195   4.446  1.3161 -3.1077  4.9924
  492MOL0     H64935  10.358   2.188   4.524  0.8773  1.0648  0.8000
  492MOL0     H64936  10.376   2.240   4.281  0.1189  0.0638  0.9476
  492MOL0     H64937  10.293   2.395   4.304  1.0428  1.5295 -0.4155
  492MOL0     H64938  10.556   2.308   4.420 -1.2667 -2.0523 -2.0135
  492MOL0     H64939  10.455   2.457   4.475 -1.6237  1.5964 -1.1862
  492MOL0     H64940  10.599   2.397   4.208  0.4667  1.1007 -1.4785
  492MOL0     H64941  10.478   2.518   4.226  0.1919  1.9550  1.4844
  492MOL0     H64942  10.768   2.730   4.440  0.4964 -1.6698  3.4920
  492MOL0     H64943   9.981   2.264   4.492 -0.3799  0.0602 -1.9714
  492MOL0     H64944   9.797   2.410   4.448  1.0688 -4.6131  1.7027
  493MOL0     O64945   5.721   3.391   7.318  0.4149  0.4569  0.2479
  493MOL0     C64946   5.773   3.453   7.408 -0.7439  0.4961  0.3413
  493MOL0     O64947   5.719   3.471   7.530 -0.1230  0.2559 -0.8394
  493MOL0     C64948   5.599   3.416   7.574 -0.6540  0.7136 -0.8922
  493MOL0     C64949   5.533   3.482   7.684  0.7326  0.0964 -0.4055
  493MOL0     C64950   5.421   3.429   7.751  1.1237  0.4202 -1.4193
  493MOL0     C64951   5.365   3.305   7.698  0.3331  0.8037 -0.3067
  493MOL0     O64952   5.264   3.239   7.769 -0.0977  0.8253  0.5448
  493MOL0     C64953   5.139   3.314   7.753 -0.0212 -0.0796  0.1258
  493MOL0     C64954   5.020   3.217   7.758  0.2633 -0.8801 -0.9533
  493MOL0     C64955   4.898   3.313   7.759 -0.0458  0.9532  0.1661
  493MOL0     C64956   4.758   3.243   7.738  0.3049 -0.1841  0.3263
  493MOL0     C64957   4.656   3.341   7.670  0.7325  0.1864  0.3421
  493MOL0     C64958   4.609   3.467   7.746 -0.9220  0.5548  0.9272
  493MOL0     C64959   4.507   3.550   7.652 -0.0454 -0.1938  0.2913
  493MOL0     C64960   4.375   3.474   7.640 -0.0189 -0.2285  0.0843
  493MOL0     N64961   4.274   3.572   7.612  0.2804  0.1802 -0.4600
  493MOL0     C64962   4.267   3.653   7.501 -0.4511 -0.4438  0.1169
  493MOL0     C64963   4.138   3.701   7.503  0.9333 -0.0444 -0.4812
  493MOL0     C64964   4.093   3.805   7.408  0.9109 -0.0996  0.3020
  493MOL0     C64965   3.972   3.754   7.316 -0.4301 -0.4641 -0.8074
  493MOL0     C64966   3.992   3.634   7.232  0.0485 -0.1086 -0.3929
  493MOL0     C64967   3.854   3.574   7.189  1.1821  0.0843  0.6628
  493MOL0     O64968   3.771   3.683   7.132  0.4160  0.3089 -0.0937
  493MOL0     C64969   3.652   3.635   7.079 -0.3807 -0.1355 -0.8802
  493MOL0     C64970   3.530   3.629   7.154 -0.3909  0.2813 -0.7318
  493MOL0     C64971   3.413   3.583   7.107  0.5210 -0.5384  0.1203
  493MOL0     C64972   3.401   3.534   6.974  1.0101  0.7177 -0.0791
  493MOL0     C64973   3.272   3.485   6.923  0.4581 -0.4603  0.2000
  493MOL0     O64974   3.267   3.437   6.796 -1.1208  0.6753 -0.0933
  493MOL0     C64975   3.147   3.428   6.733 -0.2762  0.7106 -0.4802
  493MOL0     C64976   3.143   3.327   6.647  0.3990 -0.2950  0.9233
  493MOL0     C64977   3.027   3.312   6.570 -0.5155  0.6129  0.0774
  493MOL0     C64978   2.912   3.394   6.595 -0.4309 -0.8516  0.5422
  493MOL0     O64979   2.789   3.380   6.529 -0.0334 -0.3170 -0.0726
  493MOL0     C64980   2.770   3.277   6.423  0.3931  0.3657 -0.0418
  493MOL0     C64981   2.814   3.337   6.290  1.5453 -0.0983  0.2568
  493MOL0     C64982   2.696   3.426   6.223 -0.7051  0.3659  0.8546
  493MOL0     C64983   2.609   3.354   6.132 -0.0402  1.0591  0.0430
  493MOL0     C64984   2.508   3.451   6.061 -0.5435 -0.4885 -0.5023
  493MOL0     C64985   2.397   3.499   6.157  0.1250  0.8467 -0.5039
  493MOL0     C64986   2.293   3.573   6.072  0.7507  0.1360 -0.2093
  493MOL0     C64987   2.179   3.631   6.158  1.1272 -0.7624  0.1189
  493MOL0    Cl64988   2.080   3.494   6.224 -0.0608  0.2963  0.7635
  493MOL0     C64989   2.915   3.491   6.692 -0.0416  0.2122 -0.1731
  493MOL0     C64990   3.031   3.510   6.766  0.1295  0.0363  0.2778
  493MOL0     O64991   3.175   3.494   7.001 -0.7406  0.6555  0.8404
  493MOL0     C64992   3.513   3.547   6.892 -0.4126 -0.2926 -0.2345
  493MOL0     C64993   3.634   3.601   6.947 -0.6413  0.9830  0.8823
  493MOL0     N64994   4.081   3.670   7.621 -0.1232  0.3872  0.3415
  493MOL0     N64995   4.160   3.584   7.683  0.8025  0.0074  0.3574
  493MOL0     C64996   5.423   3.244   7.598 -0.1414  0.3118 -0.2610
  493MOL0     C64997   5.537   3.304   7.530 -0.8348 -0.8600  0.7282
  493MOL0     C64998   5.913   3.498   7.381  0.3366  0.2826 -0.2581
  493MOL0     C64999   6.008   3.518   7.481  0.3456 -0.5289  0.3633
  493MOL0     C65000   6.140   3.548   7.453  0.1100 -0.3605 -0.5033
  493MOL0     C65001   6.191   3.556   7.327  0.0150 -1.0819 -0.4405
  493MOL0     O65002   6.325   3.573   7.311  0.0068 -0.2072  0.0832
  493MOL0     C65003   6.383   3.553   7.179  0.3126 -0.0444  0.4206
  493MOL0     C65004   6.539   3.570   7.187  0.1586  0.2836  0.7924
  493MOL0     C65005   6.609   3.462   7.280  0.1419 -1.7823  1.3099
  493MOL0     C65006   6.758   3.454   7.253  0.4417 -0.3630 -0.3399
  493MOL0     C65007   6.824   3.573   7.304  0.1095  0.6337 -1.0782
  493MOL0     C65008   6.887   3.672   7.349 -1.0704  0.4912 -0.3002
  493MOL0     C65009   6.099   3.541   7.222 -0.3645  0.2876  0.3288
  493MOL0     C65010   5.960   3.521   7.244  0.1862  0.3561 -0.5791
  493MOL0     H65011   5.580   3.568   7.731  4.5255 -2.3638  0.7656
  493MOL0     H65012   5.390   3.483   7.840  1.1089 -0.9407 -0.5718
  493MOL0     H65013   5.133   3.359   7.653  1.3293  1.7567  0.8141
  493MOL0     H65014   5.132   3.386   7.835  1.0137  0.0945  0.0718
  493MOL0     H65015   5.035   3.168   7.855  0.6366 -1.9446 -1.5418
  493MOL0     H65016   5.014   3.145   7.676  0.4816 -1.0124 -0.8534
  493MOL0     H65017   4.909   3.379   7.673  0.8775  0.8001  0.1622
  493MOL0     H65018   4.897   3.372   7.851  1.8049 -0.3056  1.0605
  493MOL0     H65019   4.760   3.148   7.682  1.5693  0.6031 -1.0257
  493MOL0     H65020   4.716   3.231   7.838 -3.1050 -0.5169 -0.9979
  493MOL0     H65021   4.574   3.272   7.649  0.6550 -0.0738  1.4382
  493MOL0     H65022   4.693   3.380   7.575  0.1381 -0.9744 -0.3845
  493MOL0     H65023   4.698   3.525   7.774 -1.0270  0.7335  0.8874
  493MOL0     H65024   4.555   3.443   7.838  0.1570  0.9658  1.6971
  493MOL0     H65025   4.495   3.646   7.702 -1.0113 -0.8819  1.4373
  493MOL0     H65026   4.555   3.563   7.555 -1.9639  1.0405 -0.5456
  493MOL0     H65027   4.357   3.419   7.733  0.2796 -0.0392  0.2565
  493MOL0     H65028   4.373   3.408   7.553 -1.0148 -0.4240  0.2459
  493MOL0     H65029   4.349   3.667   7.431 -0.5482 -0.1236  0.0663
  493MOL0     H65030   4.165   3.820   7.327 -0.3862  0.3041 -0.7990
  493MOL0     H65031   4.068   3.901   7.454 -0.0961  1.3524 -3.0163
  493MOL0     H65032   3.935   3.835   7.252  0.5825 -0.1507 -1.0057
  493MOL0     H65033   3.883   3.742   7.379  0.2586 -0.7249  0.1466
  493MOL0     H65034   4.038   3.673   7.140  1.1274 -0.6013 -0.0680
  493MOL0     H65035   4.055   3.558   7.278  0.0355 -1.7504 -2.8785
  493MOL0     H65036   3.793   3.535   7.270 -1.4625 -3.5929 -2.7141
  493MOL0     H65037   3.874   3.502   7.109  1.2168  2.2965 -1.4511
  493MOL0     H65038   3.533   3.668   7.255 -1.0078 -1.7277  0.1209
  493MOL0     H65039   3.328   3.584   7.175  0.1544 -0.0540 -0.3410
  493MOL0     H65040   3.233   3.266   6.647  0.6727  0.1020  1.7336
  493MOL0     H65041   3.031   3.221   6.511  1.4198  0.2879  0.6378
  493MOL0     H65042   2.666   3.245   6.421  0.3312  0.5402  0.2601
  493MOL0     H65043   2.821   3.183   6.450  0.0700 -0.7632 -3.0122
  493MOL0     H65044   2.838   3.259   6.218 -2.5645 -2.2275  0.9082
  493MOL0     H65045   2.901   3.400   6.311  1.0431  1.0514 -0.9675
  493MOL0     H65046   2.744   3.505   6.165 -0.8010  0.1180  0.4349
  493MOL0     H65047   2.641   3.479   6.301 -0.5245  0.1689  1.1200
  493MOL0     H65048   2.678   3.309   6.060  0.6543 -1.2098  2.0000
  493MOL0     H65049   2.553   3.274   6.182  0.4104  0.6443 -0.1152
  493MOL0     H65050   2.459   3.388   5.987 -5.6390  3.8809 -1.5146
  493MOL0     H65051   2.567   3.539   6.032 -1.1902 -0.6439 -2.3726
  493MOL0     H65052   2.454   3.560   6.228  4.0498 -2.6250 -0.2800
  493MOL0     H65053   2.354   3.415   6.212 -1.8464  2.0249 -0.1621
  493MOL0     H65054   2.349   3.657   6.031 -0.0036  0.0829 -1.4176
  493MOL0     H65055   2.252   3.508   5.994  2.3443 -0.2147 -0.7914
  493MOL0     H65056   2.121   3.695   6.092 -1.8419 -1.3158  2.0249
  493MOL0     H65057   2.217   3.687   6.244  1.1100  0.9697 -0.9593
  493MOL0     H65058   2.832   3.555   6.721  1.0731  1.9087 -0.5460
  493MOL0     H65059   3.028   3.581   6.848 -0.5243 -1.4882  1.6268
  493MOL0     H65060   3.498   3.520   6.788 -0.3578 -0.8983 -0.0889
  493MOL0     H65061   3.719   3.619   6.882 -1.4618 -0.4472 -0.6540
  493MOL0     H65062   5.394   3.156   7.541  0.2077  2.5901 -4.3865
  493MOL0     H65063   5.573   3.252   7.441 -0.5480 -0.5186  0.6403
  493MOL0     H65064   5.970   3.493   7.580 -0.4855  2.6542  0.9652
  493MOL0     H65065   6.211   3.550   7.535  1.0404  1.8899 -1.3154
  493MOL0     H65066   6.345   3.638   7.122  0.0166 -1.8082 -2.1603
  493MOL0     H65067   6.358   3.458   7.132 -0.0820  0.1153  0.2996
  493MOL0     H65068   6.585   3.556   7.089  4.1629  0.7811  2.4175
  493MOL0     H65069   6.568   3.666   7.230  3.3386 -0.7209  1.1500
  493MOL0     H65070   6.564   3.363   7.264  0.8951 -2.1471  1.3780
  493MOL0     H65071   6.581   3.479   7.384 -0.3916  2.3258  0.6557
  493MOL0     H65072   6.800   3.374   7.314  0.8148 -3.0537 -3.8336
  493MOL0     H65073   6.782   3.452   7.147 -1.0261  2.4736 -0.8278
  493MOL0     H65074   6.942   3.762   7.367 -2.3190  1.2543 -0.1764
  493MOL0     H65075   6.129   3.540   7.118 -2.2856 -2.1606 -0.2869
  493MOL0     H65076   5.890   3.510   7.162 -1.4702 -0.7880  0.9179
  494MOL0     O65077   3.743  10.447   3.012 -0.0402 -0.0318 -0.4230
  494MOL0     C65078   3.830  10.377   2.957  0.9071 -0.1632  0.3975
  494MOL0     O65079   3.802  10.278   2.874 -0.5194  0.1327  0.5086
  494MOL0     C65080   3.673  10.239   2.847 -0.6710 -0.2932 -0.1670
  494MOL0     C65081   3.589  10.317   2.770  0.8276  0.1235 -0.2140
  494MOL0     C65082   3.452  10.276   2.753 -0.0905 -0.3527 -1.0861
  494MOL0     C65083   3.406  10.154   2.803  0.5522 -0.5805 -0.7568
  494MOL0     O65084   3.274  10.118   2.776 -0.4530  0.3655  1.1432
  494MOL0     C65085   3.212  10.009   2.854  0.1086 -0.6199  1.2301
  494MOL0     C65086   3.072   9.983   2.802  0.5984 -0.8123 -0.0096
  494MOL0     C65087   2.989  10.101   2.821 -0.4893 -0.8354  0.1764
  494MOL0     C65088   2.842  10.071   2.833  0.2581 -0.1472 -0.1010
  494MOL0     C65089   2.745  10.196   2.816  0.1899  0.8374  0.7604
  494MOL0     C65090   2.799  10.328   2.875 -0.2726 -0.3906  0.3712
  494MOL0     C65091   2.711  10.460   2.860  1.0054 -0.0049 -0.2958
  494MOL0     C65092   2.699  10.497   2.713 -0.7999  0.0955 -0.8591
  494MOL0     N65093   2.593  10.598   2.693  0.2313  0.4253 -0.0510
  494MOL0     C65094   2.604  10.739   2.679 -0.0726  0.7677  0.3823
  494MOL0     C65095   2.473  10.786   2.687  0.3362  1.2701 -0.8794
  494MOL0     C65096   2.438  10.927   2.679  0.1266 -0.0642  0.8746
  494MOL0     C65097   2.416  11.001   2.819  0.3376 -0.2387  0.2840
  494MOL0     C65098   2.540  10.989   2.912 -0.2040 -0.6319  1.2080
  494MOL0     C65099   2.656  11.057   2.852 -0.9183  0.6335 -0.1507
  494MOL0     O65100   2.633  11.192   2.836  0.5693 -0.6326 -0.0738
  494MOL0     C65101   2.708  11.273   2.760  0.0924 -0.8758 -0.1124
  494MOL0     C65102   2.652  11.386   2.701 -0.9757 -0.5523 -0.0980
  494MOL0     C65103   2.728  11.461   2.611  0.6395  0.3785  0.2280
  494MOL0     C65104   2.862  11.429   2.586 -0.1487 -0.6034 -0.3640
  494MOL0     C65105   2.941  11.518   2.498 -0.2466 -0.5918 -0.3757
  494MOL0     O65106   2.888  11.646   2.459 -0.0838  0.3648 -0.1460
  494MOL0     C65107   2.982  11.746   2.423  0.4899  0.1131 -0.1354
  494MOL0     C65108   3.100  11.757   2.491 -0.4111  0.2439  1.0043
  494MOL0     C65109   3.186  11.865   2.479 -0.0232 -0.1902  0.6099
  494MOL0     C65110   3.154  11.969   2.392 -0.7287 -0.2822  0.1088
  494MOL0     O65111   3.249  12.068   2.374  0.8773  0.0146 -0.0704
  494MOL0     C65112   3.236  12.152   2.257 -0.5594 -0.2818 -0.4794
  494MOL0     C65113   3.269  12.077   2.125 -1.3412 -0.3385  0.6671
  494MOL0     C65114   3.413  12.092   2.079 -0.4392  0.4171 -0.1335
  494MOL0     C65115   3.449  12.009   1.952 -0.2528  0.5732  0.1275
  494MOL0     C65116   3.377  12.057   1.828  0.3426  0.2375  0.4943
  494MOL0     C65117   3.416  11.970   1.712 -0.5663  0.6584 -0.1762
  494MOL0     C65118   3.337  12.013   1.586  0.5235 -0.2938  0.1572
  494MOL0     C65119   3.367  11.919   1.467  0.4960  0.0041 -0.5682
  494MOL0    Cl65120   3.533  11.969   1.399  0.3183 -0.0350 -0.2377
  494MOL0     C65121   3.033  11.948   2.316  0.3002 -0.2940  0.4802
  494MOL0     C65122   2.948  11.848   2.337 -0.0339  0.3621 -0.5796
  494MOL0     O65123   3.052  11.472   2.457  0.3944  0.8912 -0.2167
  494MOL0     C65124   2.931  11.316   2.653 -0.2370 -0.9975 -0.3574
  494MOL0     C65125   2.849  11.244   2.738 -0.7928  0.0852  0.2599
  494MOL0     N65126   2.390  10.677   2.694  0.2846  0.1183  0.4294
  494MOL0     N65127   2.461  10.573   2.701  0.8861  0.0896  0.1504
  494MOL0     C65128   3.498  10.073   2.870  0.6592 -0.6026 -0.1709
  494MOL0     C65129   3.632  10.117   2.886  0.9058 -0.0881  0.8681
  494MOL0     C65130   3.974  10.411   2.976  0.5471  1.1309  0.8469
  494MOL0     C65131   4.015  10.525   3.044  0.1178  0.3761 -0.3510
  494MOL0     C65132   4.151  10.550   3.073 -0.0701 -0.3507  0.1379
  494MOL0     C65133   4.249  10.464   3.022  0.0818  0.2106  0.1036
  494MOL0     O65134   4.381  10.496   3.039 -0.7452  0.4707  0.2409
  494MOL0     C65135   4.434  10.568   3.148  0.5219 -0.3979  0.4217
  494MOL0     C65136   4.421  10.715   3.131  0.4634  0.4942 -0.2192
  494MOL0     C65137   4.557  10.787   3.154 -0.0296  0.0463  0.4547
  494MOL0     C65138   4.629  10.769   3.280 -0.5139 -0.7495  0.2880
  494MOL0     C65139   4.549  10.822   3.395  0.5174 -0.1470 -0.3407
  494MOL0     C65140   4.488  10.871   3.481  0.4776 -0.7473 -1.0948
  494MOL0     C65141   4.212  10.350   2.945 -0.5064 -0.2141 -0.2154
  494MOL0     C65142   4.076  10.319   2.926 -0.0696 -0.1848 -0.6071
  494MOL0     H65143   3.616  10.416   2.735  0.5671 -0.8171 -3.3399
  494MOL0     H65144   3.368  10.321   2.701  0.3516  3.4380  1.1070
  494MOL0     H65145   3.199  10.038   2.958 -0.8446  1.3742  0.5982
  494MOL0     H65146   3.276   9.920   2.848  1.7655  0.5516  0.7893
  494MOL0     H65147   3.028   9.905   2.865 -0.5202  0.5827  0.9628
  494MOL0     H65148   3.063   9.962   2.695  1.4579  1.5573 -0.5980
  494MOL0     H65149   3.015  10.170   2.740 -0.2437 -0.0280  0.9253
  494MOL0     H65150   3.025  10.154   2.909 -0.7400 -1.0454  0.4039
  494MOL0     H65151   2.815   9.997   2.757 -1.7375  0.2655  0.1309
  494MOL0     H65152   2.830  10.037   2.936  0.9791 -2.0314 -0.6082
  494MOL0     H65153   2.644  10.167   2.847 -0.6590 -0.0142 -2.3748
  494MOL0     H65154   2.729  10.208   2.708  0.4182 -1.4446  0.4344
  494MOL0     H65155   2.901  10.338   2.835 -0.1108 -0.5048  0.7477
  494MOL0     H65156   2.819  10.307   2.981  2.7402 -0.5759 -0.1297
  494MOL0     H65157   2.613  10.449   2.907 -0.3496 -0.4550 -3.0361
  494MOL0     H65158   2.753  10.546   2.913  1.8298 -0.9244  0.5859
  494MOL0     H65159   2.683  10.411   2.647  1.6500 -0.5843 -0.6663
  494MOL0     H65160   2.795  10.540   2.683 -0.7419 -0.7635 -1.9318
  494MOL0     H65161   2.692  10.802   2.665 -0.6559  1.3415 -0.8832
  494MOL0     H65162   2.342  10.951   2.632 -1.4104  1.8609  4.5802
  494MOL0     H65163   2.525  10.967   2.627  0.0660 -1.3150 -0.2141
  494MOL0     H65164   2.331  10.946   2.862  0.5781 -1.2418 -0.4779
  494MOL0     H65165   2.381  11.103   2.802  1.1406  0.2491  1.4799
  494MOL0     H65166   2.518  11.038   3.008  1.9891  3.0012  0.0580
  494MOL0     H65167   2.561  10.884   2.933 -1.5266 -1.1072  0.2987
  494MOL0     H65168   2.690  11.005   2.763 -3.0871 -1.1610  0.0078
  494MOL0     H65169   2.738  11.048   2.924 -0.5131 -1.0986 -0.7854
  494MOL0     H65170   2.544  11.395   2.716 -0.9211 -0.8180  0.4722
  494MOL0     H65171   2.679  11.545   2.563 -1.0057  1.2686  3.2659
  494MOL0     H65172   3.121  11.678   2.563  0.0553 -0.0674  0.5234
  494MOL0     H65173   3.270  11.877   2.548  2.0945  5.8374 -2.3448
  494MOL0     H65174   3.320  12.222   2.270 -2.0080  1.3802  0.3845
  494MOL0     H65175   3.140  12.203   2.244  0.2605  1.2626 -0.8211
  494MOL0     H65176   3.220  12.128   2.041  1.7613  1.5116 -0.2036
  494MOL0     H65177   3.235  11.973   2.122 -1.0565 -0.4216 -1.7680
  494MOL0     H65178   3.483  12.062   2.158 -1.0890 -0.6520  0.0539
  494MOL0     H65179   3.427  12.194   2.042  2.3736 -0.9308 -3.3843
  494MOL0     H65180   3.557  12.017   1.937  0.1237 -3.0532 -0.1862
  494MOL0     H65181   3.418  11.909   1.985 -1.4475  2.1208  4.2472
  494MOL0     H65182   3.417  12.157   1.809 -1.1478  0.8825  0.6098
  494MOL0     H65183   3.268  12.059   1.833  0.2354 -1.5956 -0.3848
  494MOL0     H65184   3.414  11.868   1.751  3.0492  2.0718  4.7379
  494MOL0     H65185   3.524  11.986   1.706 -0.0965 -1.8594  0.1401
  494MOL0     H65186   3.229  12.006   1.603  0.4982  0.6773  0.4940
  494MOL0     H65187   3.372  12.110   1.550  1.6708 -0.3143  1.1542
  494MOL0     H65188   3.283  11.929   1.398 -0.2962 -2.0879  0.0404
  494MOL0     H65189   3.370  11.815   1.499  0.2160  0.5567  1.3891
  494MOL0     H65190   3.013  12.010   2.229  3.0861  0.8344  0.5550
  494MOL0     H65191   2.845  11.851   2.301  0.1944  0.2302 -1.2530
  494MOL0     H65192   3.033  11.284   2.638 -0.8707 -1.8462 -3.4914
  494MOL0     H65193   2.891  11.157   2.790  1.3440  0.0556 -1.3831
  494MOL0     H65194   3.465   9.980   2.914  0.8471 -0.3776  0.4603
  494MOL0     H65195   3.691  10.042   2.938 -1.4980 -0.4962  3.2180
  494MOL0     H65196   3.943  10.586   3.097 -0.3273 -0.3869 -0.0564
  494MOL0     H65197   4.177  10.640   3.127 -2.2134 -0.4812  1.4948
  494MOL0     H65198   4.539  10.542   3.168  0.2299 -0.9179  1.3551
  494MOL0     H65199   4.373  10.543   3.236  0.7584 -1.7676  0.2204
  494MOL0     H65200   4.384  10.738   3.031 -0.0330  0.1771 -0.1070
  494MOL0     H65201   4.348  10.752   3.204 -1.4651  1.5580 -2.5469
  494MOL0     H65202   4.536  10.890   3.126  0.0459 -0.3423 -1.1005
  494MOL0     H65203   4.629  10.759   3.076 -0.2775 -0.4269  0.3949
  494MOL0     H65204   4.665  10.667   3.296  3.1715  0.1319 -1.3667
  494MOL0     H65205   4.718  10.833   3.282 -0.1430 -1.2057 -1.0457
  494MOL0     H65206   4.429  10.923   3.554 -0.0354 -0.9136 -1.3845
  494MOL0     H65207   4.287  10.274   2.924  0.0144  0.5983 -1.4018
  494MOL0     H65208   4.045  10.229   2.874  0.7193  0.3765 -2.1100
  495MOL0     O65209   0.905   1.200   5.165 -0.5155  0.5616  0.2325
  495MOL0     C65210   0.858   1.142   5.267  0.1182 -2.0502  0.7276
  495MOL0     O65211   0.900   1.155   5.393 -0.2828  0.2550 -0.1539
  495MOL0     C65212   1.000   1.248   5.433  0.0916  0.1269  1.3712
  495MOL0     C65213   0.999   1.372   5.371 -0.1828  0.0182  0.1619
  495MOL0     C65214   1.092   1.463   5.423 -1.1239  0.4489  1.4709
  495MOL0     C65215   1.190   1.433   5.512 -0.1861  0.3168 -0.2463
  495MOL0     O65216   1.273   1.537   5.541  0.2862  0.3095 -0.5878
  495MOL0     C65217   1.407   1.510   5.595  0.1155  0.3188  0.0036
  495MOL0     C65218   1.479   1.633   5.637  0.5059  0.5262  1.0160
  495MOL0     C65219   1.426   1.684   5.768 -0.0713 -0.8223  0.1608
  495MOL0     C65220   1.513   1.793   5.835  0.2683 -0.0307 -0.3927
  495MOL0     C65221   1.482   1.827   5.983 -0.3284 -0.9865  0.4304
  495MOL0     C65222   1.518   1.717   6.084  0.2364 -0.0565 -0.2377
  495MOL0     C65223   1.670   1.706   6.095 -0.5158  0.8100 -0.0291
  495MOL0     C65224   1.701   1.594   6.203  0.0990  0.3485 -0.6224
  495MOL0     N65225   1.847   1.580   6.221  0.3395  0.0579 -0.4049
  495MOL0     C65226   1.924   1.641   6.319  0.6514 -0.1272 -0.2176
  495MOL0     C65227   2.053   1.597   6.291  0.3578  0.3219 -0.8505
  495MOL0     C65228   2.191   1.618   6.361  0.3138 -0.5563  0.6681
  495MOL0     C65229   2.280   1.697   6.261  0.0411 -0.5568 -0.2665
  495MOL0     C65230   2.244   1.844   6.234 -0.4583  0.3764 -0.3875
  495MOL0     C65231   2.224   1.930   6.356  0.4395  0.2331 -0.3008
  495MOL0     O65232   2.098   1.912   6.407  0.0132 -0.4900 -0.4428
  495MOL0     C65233   2.053   1.992   6.515  0.2196  0.6282  0.6647
  495MOL0     C65234   2.124   2.070   6.605  0.0342 -0.2387  1.0581
  495MOL0     C65235   2.064   2.153   6.698 -0.0926 -0.0444  0.4306
  495MOL0     C65236   1.925   2.162   6.700  0.3739  0.0302 -1.1336
  495MOL0     C65237   1.853   2.251   6.790  0.1585  0.2615  0.3148
  495MOL0     O65238   1.720   2.286   6.755 -0.2425  0.5043  0.0329
  495MOL0     C65239   1.659   2.393   6.817 -0.1271  0.5248 -0.4322
  495MOL0     C65240   1.517   2.378   6.836 -0.4261 -0.9549 -0.5934
  495MOL0     C65241   1.451   2.487   6.889 -0.4092  0.1626 -0.1845
  495MOL0     C65242   1.520   2.612   6.918  0.3338 -0.0611 -0.7686
  495MOL0     O65243   1.447   2.716   6.979  0.2080  0.6073 -0.3606
  495MOL0     C65244   1.491   2.779   7.103  0.3564 -0.9495  0.5009
  495MOL0     C65245   1.444   2.704   7.230 -0.4488 -0.2577  0.2251
  495MOL0     C65246   1.285   2.715   7.231  0.1715  0.7447 -0.5792
  495MOL0     C65247   1.235   2.694   7.375  0.0907 -0.7979  0.4209
  495MOL0     C65248   1.082   2.697   7.396 -0.6932  0.5005 -0.0929
  495MOL0     C65249   1.005   2.578   7.323 -0.0553 -0.6695 -0.0223
  495MOL0     C65250   0.867   2.565   7.393  0.5532  0.0862 -0.2377
  495MOL0     C65251   0.795   2.433   7.356  0.0810 -0.5643 -0.0514
  495MOL0    Cl65252   0.911   2.313   7.296 -0.0164  0.2388  0.2029
  495MOL0     C65253   1.657   2.621   6.898  0.0992 -0.6674  0.2788
  495MOL0     C65254   1.720   2.516   6.835 -0.4783  0.7956  0.4578
  495MOL0     O65255   1.921   2.301   6.878 -0.1932  0.0089 -0.4926
  495MOL0     C65256   1.849   2.072   6.618 -0.7454  0.1060  0.6769
  495MOL0     C65257   1.914   1.977   6.532 -0.5704 -0.2173 -1.1568
  495MOL0     N65258   2.046   1.511   6.182 -0.3741  0.4405 -0.5092
  495MOL0     N65259   1.924   1.495   6.148  0.2692 -1.1004 -0.0735
  495MOL0     C65260   1.196   1.305   5.566 -0.2248  0.9644 -0.0450
  495MOL0     C65261   1.096   1.206   5.528 -0.7404 -0.3309 -1.2133
  495MOL0     C65262   0.735   1.071   5.241 -0.2211  0.0006  0.3168
  495MOL0     C65263   0.653   1.098   5.131  0.0251 -0.4968 -0.5572
  495MOL0     C65264   0.527   1.035   5.122  0.5596 -0.7360  1.2035
  495MOL0     C65265   0.475   0.949   5.216  0.0955  1.4598  0.0782
  495MOL0     O65266   0.354   0.893   5.182  0.6378  0.5001  0.0237
  495MOL0     C65267   0.300   0.791   5.268  0.2878  0.0550 -0.1880
  495MOL0     C65268   0.191   0.708   5.191 -0.2923  0.5876  0.4434
  495MOL0     C65269   0.136   0.591   5.270  0.3310 -0.2339 -0.4283
  495MOL0     C65270   0.032   0.629   5.381  0.0934 -0.3159  0.2855
  495MOL0     C65271  -0.089   0.698   5.333 -0.0180 -0.1940  0.2630
  495MOL0     C65272  -0.177   0.762   5.281  0.7028 -0.0281 -0.4560
  495MOL0     C65273   0.554   0.925   5.328 -0.3644  0.1856  0.0288
  495MOL0     C65274   0.687   0.978   5.336 -1.0988 -0.0251  0.6061
  495MOL0     H65275   0.935   1.403   5.289  2.7452 -1.2719 -2.8261
  495MOL0     H65276   1.092   1.560   5.374 -0.2661 -0.3030 -0.0801
  495MOL0     H65277   1.469   1.459   5.520  1.3648 -0.8921  1.7590
  495MOL0     H65278   1.403   1.437   5.677  2.2612 -0.5333 -0.5668
  495MOL0     H65279   1.466   1.702   5.553 -0.2896 -1.2833 -0.4512
  495MOL0     H65280   1.584   1.607   5.653  1.1223  3.3332  2.0925
  495MOL0     H65281   1.425   1.599   5.837 -1.2281 -1.0550 -0.1248
  495MOL0     H65282   1.324   1.721   5.756 -0.1262  0.0443  2.6326
  495MOL0     H65283   1.619   1.766   5.834  0.4748  0.5554  1.5777
  495MOL0     H65284   1.490   1.884   5.778 -4.4752  0.8859  2.4015
  495MOL0     H65285   1.373   1.840   5.989 -0.8444 -0.7723 -5.0349
  495MOL0     H65286   1.517   1.925   6.017 -2.9345  0.8529 -1.7126
  495MOL0     H65287   1.474   1.623   6.050  0.6681 -0.0016 -0.9829
  495MOL0     H65288   1.487   1.742   6.186 -2.0594 -1.9356 -0.4126
  495MOL0     H65289   1.716   1.677   6.000 -0.0246 -0.3572  0.5453
  495MOL0     H65290   1.703   1.807   6.124 -2.4762  1.3817  0.3617
  495MOL0     H65291   1.666   1.502   6.155 -0.9008  0.3567  0.0587
  495MOL0     H65292   1.645   1.618   6.293  1.1228 -0.6977  0.3203
  495MOL0     H65293   1.899   1.713   6.395 -1.4549 -0.8428 -0.1599
  495MOL0     H65294   2.241   1.530   6.401 -0.0320 -0.2885  1.7348
  495MOL0     H65295   2.169   1.689   6.442 -1.0547 -0.8517  0.5816
  495MOL0     H65296   2.281   1.648   6.164  1.6503 -1.0072 -0.0452
  495MOL0     H65297   2.380   1.704   6.305  0.2148 -1.1849 -0.5496
  495MOL0     H65298   2.327   1.886   6.176  0.3158  0.1975  0.5490
  495MOL0     H65299   2.152   1.864   6.180 -0.7848  1.8868  0.6707
  495MOL0     H65300   2.224   2.034   6.320 -1.8303  0.1205 -0.7587
  495MOL0     H65301   2.309   1.929   6.425  0.8254 -0.0151 -0.7681
  495MOL0     H65302   2.233   2.066   6.604  0.1260  1.4593  0.7210
  495MOL0     H65303   2.118   2.217   6.767 -0.5836 -1.1318  1.8756
  495MOL0     H65304   1.470   2.281   6.824  0.2010 -1.2365 -0.8432
  495MOL0     H65305   1.350   2.467   6.923 -0.0664  0.4663  1.0626
  495MOL0     H65306   1.461   2.884   7.100 -0.6969 -1.2520 -1.2959
  495MOL0     H65307   1.600   2.785   7.106  0.3989 -1.0070 -0.6682
  495MOL0     H65308   1.482   2.750   7.322  1.0725 -0.3663 -0.3173
  495MOL0     H65309   1.481   2.601   7.226 -1.1995 -0.4975 -1.7712
  495MOL0     H65310   1.252   2.639   7.160  3.4581 -1.1189 -0.3306
  495MOL0     H65311   1.259   2.812   7.188 -0.1856  0.0733 -1.9126
  495MOL0     H65312   1.278   2.603   7.418 -0.9040 -0.8903  1.2610
  495MOL0     H65313   1.283   2.771   7.437  2.5901 -2.3778  0.5771
  495MOL0     H65314   1.052   2.793   7.352 -0.2739  3.3011  5.0290
  495MOL0     H65315   1.049   2.692   7.500 -2.7427 -2.9241 -0.7332
  495MOL0     H65316   1.064   2.486   7.328 -0.1628 -0.6558  2.5948
  495MOL0     H65317   0.986   2.612   7.221 -2.1538 -0.7477  0.2998
  495MOL0     H65318   0.867   2.570   7.502 -1.6988  1.7104 -0.2402
  495MOL0     H65319   0.808   2.652   7.364  0.7331  0.8589  1.5772
  495MOL0     H65320   0.733   2.456   7.269 -1.3022 -0.4766  0.9269
  495MOL0     H65321   0.734   2.391   7.437  0.6429 -0.3332  0.4959
  495MOL0     H65322   1.711   2.711   6.925 -2.2084  1.8965 -2.8409
  495MOL0     H65323   1.825   2.530   6.814  0.0222  0.3244  2.4581
  495MOL0     H65324   1.742   2.052   6.619 -0.3127 -2.5748 -0.3042
  495MOL0     H65325   1.866   1.909   6.463  0.0822  0.1808 -2.0262
  495MOL0     H65326   1.280   1.265   5.623 -0.3526  2.2593  1.0916
  495MOL0     H65327   1.105   1.102   5.558  1.2150 -0.0958 -0.8928
  495MOL0     H65328   0.685   1.167   5.054 -1.0727  0.8270  0.1401
  495MOL0     H65329   0.461   1.053   5.038  1.8682 -1.3075  0.0080
  495MOL0     H65330   0.252   0.836   5.355 -0.4303 -1.2322  0.1115
  495MOL0     H65331   0.378   0.718   5.294 -0.5571 -1.0371 -0.6207
  495MOL0     H65332   0.110   0.771   5.155 -0.3905  0.1866 -0.0457
  495MOL0     H65333   0.230   0.661   5.100  0.0970  0.4564  0.6727
  495MOL0     H65334   0.216   0.542   5.325  0.2995  1.4864  1.3005
  495MOL0     H65335   0.088   0.521   5.201 -1.7067  1.3650 -0.7484
  495MOL0     H65336   0.015   0.539   5.441  2.3373 -0.8364  0.2142
  495MOL0     H65337   0.082   0.705   5.442  0.1578  0.4376 -0.6807
  495MOL0     H65338  -0.257   0.821   5.241  0.3178  1.4439  2.2632
  495MOL0     H65339   0.534   0.855   5.409 -0.4152  1.7297  1.4179
  495MOL0     H65340   0.746   0.955   5.424 -1.3755 -0.2756  0.7294
  496MOL0     O65341   6.193   9.810   6.492  0.0864  0.1721  0.5428
  496MOL0     C65342   6.226   9.727   6.409 -0.0879 -0.5217 -0.2380
  496MOL0     O65343   6.138   9.671   6.315  0.0555  0.0187  0.2840
  496MOL0     C65344   6.004   9.665   6.320  0.0132  0.1104 -0.6878
  496MOL0     C65345   5.922   9.639   6.207 -0.9117  1.1024 -0.5612
  496MOL0     C65346   5.784   9.620   6.210 -0.2201  0.6595 -0.6892
  496MOL0     C65347   5.716   9.643   6.333 -0.0392 -0.2264  0.4105
  496MOL0     O65348   5.583   9.627   6.323  0.0836 -0.4012  0.7513
  496MOL0     C65349   5.522   9.538   6.419 -0.2987  1.0300  0.6742
  496MOL0     C65350   5.378   9.527   6.401 -0.3867  0.0334  0.4078
  496MOL0     C65351   5.298   9.656   6.434 -0.1697 -0.7228  0.1154
  496MOL0     C65352   5.165   9.660   6.372  0.7836  0.6560  0.3233
  496MOL0     C65353   5.147   9.606   6.227 -0.2031  0.6100 -0.0343
  496MOL0     C65354   5.196   9.699   6.107 -0.7718 -0.4850 -0.0070
  496MOL0     C65355   5.350   9.702   6.090  0.4506  0.1746 -0.9717
  496MOL0     C65356   5.379   9.781   5.959 -0.0325  0.1396  0.6433
  496MOL0     N65357   5.519   9.813   5.948 -1.3853 -0.0238  0.8370
  496MOL0     C65358   5.598   9.900   6.017 -0.3814  0.0643  0.4249
  496MOL0     C65359   5.731   9.875   6.001  0.3239  0.0336 -0.4541
  496MOL0     C65360   5.854   9.940   6.063  0.3693 -0.3430 -0.5307
  496MOL0     C65361   5.908  10.050   5.964 -0.0733 -0.1105  0.2070
  496MOL0     C65362   6.019  10.127   6.034 -0.4438 -0.1202  0.4561
  496MOL0     C65363   6.134  10.063   6.114  0.0456  0.0189  0.4407
  496MOL0     O65364   6.234  10.160   6.127 -0.8276 -0.1196  0.5875
  496MOL0     C65365   6.361  10.112   6.150  0.1133 -0.0884  0.2050
  496MOL0     C65366   6.392  10.070   6.273 -0.2440 -0.3881  0.1906
  496MOL0     C65367   6.525  10.051   6.313 -0.6815  0.7691  0.0319
  496MOL0     C65368   6.630  10.078   6.224  0.0003  0.1765  0.8822
  496MOL0     C65369   6.778  10.056   6.263  1.0494  0.2151 -0.7923
  496MOL0     O65370   6.856  10.045   6.154 -0.5204 -0.0805  0.1575
  496MOL0     C65371   6.994  10.013   6.173  0.6884 -0.1341 -0.3092
  496MOL0     C65372   7.083  10.114   6.188  0.3193  0.4398 -0.3453
  496MOL0     C65373   7.215  10.079   6.218  0.1785 -0.1926 -0.4926
  496MOL0     C65374   7.253   9.942   6.238  0.5680  0.0473 -0.1298
  496MOL0     O65375   7.382   9.914   6.272 -0.4126 -0.0430  0.2946
  496MOL0     C65376   7.421   9.963   6.404 -0.4552  0.8339  0.1079
  496MOL0     C65377   7.359   9.898   6.539 -0.0919 -0.0842  0.5587
  496MOL0     C65378   7.216   9.931   6.568  0.8182  0.4678  0.1703
  496MOL0     C65379   7.180   9.888   6.711  0.0568 -0.2375  0.5621
  496MOL0     C65380   7.051   9.963   6.766 -0.4473  1.0820  0.2567
  496MOL0     C65381   6.928   9.873   6.711 -0.9497  0.1183 -0.2274
  496MOL0     C65382   6.798   9.939   6.719 -0.3941  0.1726  0.0494
  496MOL0     C65383   6.723   9.883   6.835  0.6262 -0.9214 -0.7366
  496MOL0    Cl65384   6.663   9.719   6.811  0.4657  0.5591 -0.2480
  496MOL0     C65385   7.157   9.841   6.230 -0.1604  0.1187 -0.4859
  496MOL0     C65386   7.028   9.880   6.193  0.0763 -0.6531 -0.8621
  496MOL0     O65387   6.814  10.032   6.380  0.0551 -0.4360 -0.0126
  496MOL0     C65388   6.600  10.115   6.096  0.0324  0.2585 -0.0527
  496MOL0     C65389   6.463  10.134   6.065 -0.1805 -0.1811  0.2459
  496MOL0     N65390   5.735   9.768   5.918 -0.2178 -0.7099  0.2037
  496MOL0     N65391   5.616   9.729   5.883  1.4288 -0.0169 -0.4680
  496MOL0     C65392   5.793   9.695   6.446  0.2062  0.5666 -0.1047
  496MOL0     C65393   5.937   9.685   6.444  0.3169  0.0901 -0.3087
  496MOL0     C65394   6.364   9.686   6.399  0.0864  0.1929 -0.8059
  496MOL0     C65395   6.467   9.715   6.491 -0.2491 -0.7772 -0.3483
  496MOL0     C65396   6.604   9.691   6.459  0.1611 -1.0220 -0.6644
  496MOL0     C65397   6.636   9.607   6.350 -0.1832  0.0972  0.3392
  496MOL0     O65398   6.765   9.573   6.315 -0.4452 -0.3089 -0.3050
  496MOL0     C65399   6.861   9.600   6.418  0.6558 -0.6893  0.7100
  496MOL0     C65400   6.992   9.531   6.404  0.2159  0.0956  0.9918
  496MOL0     C65401   7.076   9.566   6.528 -0.0699  0.1579 -0.3997
  496MOL0     C65402   7.060   9.448   6.629  0.3790  0.4481  0.5760
  496MOL0     C65403   7.123   9.462   6.762  0.0750  0.6689  0.5666
  496MOL0     C65404   7.175   9.491   6.868  0.1470  0.4447  0.3361
  496MOL0     C65405   6.528   9.564   6.264  0.4130  0.6011 -0.4205
  496MOL0     C65406   6.399   9.599   6.296 -0.0138 -0.3786  0.9618
  496MOL0     H65407   5.978   9.629   6.114  0.5406 -1.5293  0.4838
  496MOL0     H65408   5.726   9.596   6.122 -0.6382 -1.5582  0.1303
  496MOL0     H65409   5.546   9.576   6.519  0.3208  1.4145  0.3807
  496MOL0     H65410   5.582   9.447   6.407  0.3047  1.1659  2.4263
  496MOL0     H65411   5.334   9.444   6.457 -1.1273  1.4897  2.0463
  496MOL0     H65412   5.374   9.512   6.292  2.3694  0.9302  0.1075
  496MOL0     H65413   5.355   9.743   6.400 -2.2715  0.5362 -0.3341
  496MOL0     H65414   5.280   9.669   6.541  0.2927  1.3975 -0.0365
  496MOL0     H65415   5.098   9.591   6.423  1.1882  0.4842  0.6295
  496MOL0     H65416   5.127   9.762   6.381  1.9346  1.0671  0.7488
  496MOL0     H65417   5.040   9.595   6.214 -0.4835  0.4544  1.9755
  496MOL0     H65418   5.183   9.503   6.228 -1.7023 -0.0377  3.9535
  496MOL0     H65419   5.165   9.803   6.112 -0.3168 -0.4060  2.4105
  496MOL0     H65420   5.164   9.663   6.008  1.3694  1.3218 -1.4718
  496MOL0     H65421   5.396   9.746   6.179 -0.5748 -0.0934 -0.2882
  496MOL0     H65422   5.379   9.597   6.087  0.3470  0.1465 -0.9934
  496MOL0     H65423   5.333   9.881   5.959  1.6965  0.9703  1.0035
  496MOL0     H65424   5.346   9.727   5.869 -3.6220  3.8477 -0.6194
  496MOL0     H65425   5.554   9.976   6.081 -1.8408 -1.9529  1.9540
  496MOL0     H65426   5.926   9.867   6.100 -0.9724 -1.1315  0.6326
  496MOL0     H65427   5.827   9.984   6.160  0.9882  0.5335 -0.7385
  496MOL0     H65428   5.823  10.111   5.931 -0.7321 -1.7908 -1.3748
  496MOL0     H65429   5.932   9.999   5.870 -2.9587 -4.4852  1.5529
  496MOL0     H65430   6.050  10.201   5.960 -0.8242 -1.0876 -0.6828
  496MOL0     H65431   5.962  10.185   6.108 -2.3124 -0.4704 -0.6386
  496MOL0     H65432   6.172   9.973   6.066 -0.4201 -0.6096  1.2448
  496MOL0     H65433   6.106  10.036   6.216  0.4160 -2.7922 -0.1313
  496MOL0     H65434   6.313  10.066   6.347 -2.9523  2.0576 -2.3364
  496MOL0     H65435   6.545  10.012   6.412 -1.2835 -3.9434 -1.4250
  496MOL0     H65436   7.067  10.218   6.161  1.7715  1.1981  1.4647
  496MOL0     H65437   7.294  10.152   6.234  1.1993 -1.4129  0.1968
  496MOL0     H65438   7.418  10.072   6.402 -0.8109  0.8588  1.3167
  496MOL0     H65439   7.527   9.935   6.409 -0.7671 -0.3454  0.5272
  496MOL0     H65440   7.414   9.938   6.624  0.9804  2.9679 -1.4131
  496MOL0     H65441   7.375   9.790   6.533 -0.3692 -0.0588 -1.3954
  496MOL0     H65442   7.143   9.885   6.500  0.6461 -2.8458  2.3510
  496MOL0     H65443   7.202  10.039   6.557  1.1473  1.3555  5.7435
  496MOL0     H65444   7.171   9.779   6.717 -0.4638 -0.1721  1.1321
  496MOL0     H65445   7.259   9.922   6.778 -1.8106 -1.4326  3.6151
  496MOL0     H65446   7.051  10.069   6.741 -0.8415  1.0588  0.1563
  496MOL0     H65447   7.046   9.956   6.875  0.1626  1.9840  0.3524
  496MOL0     H65448   6.943   9.772   6.749  0.2174  1.1904  2.4705
  496MOL0     H65449   6.955   9.868   6.605  1.1986 -0.3679  0.2955
  496MOL0     H65450   6.817  10.047   6.721 -1.7688  0.4346 -0.0853
  496MOL0     H65451   6.747   9.921   6.624 -0.9711  3.1256 -0.3244
  496MOL0     H65452   6.637   9.941   6.868  2.1493  0.7589  0.4702
  496MOL0     H65453   6.792   9.906   6.916 -0.0674  1.8252 -0.8268
  496MOL0     H65454   7.193   9.740   6.249  1.4541  0.3441 -2.1045
  496MOL0     H65455   6.946   9.810   6.195 -0.6697  0.1179  3.2766
  496MOL0     H65456   6.670  10.126   6.014  0.8162  1.5127  0.7502
  496MOL0     H65457   6.455  10.157   5.959  2.7486 -3.1283 -0.8048
  496MOL0     H65458   5.759   9.726   6.545  0.6234  1.9594 -0.3799
  496MOL0     H65459   5.979   9.700   6.542  0.9713  0.4830 -0.6424
  496MOL0     H65460   6.456   9.784   6.574 -0.5428  0.3470 -1.3003
  496MOL0     H65461   6.683   9.737   6.518  0.0216  2.3435 -2.8486
  496MOL0     H65462   6.825   9.581   6.519 -0.4071 -1.1245  0.2689
  496MOL0     H65463   6.874   9.709   6.415 -2.3584 -0.2159 -2.5235
  496MOL0     H65464   6.972   9.424   6.394 -4.6730  0.5837  2.7312
  496MOL0     H65465   7.048   9.571   6.320  0.7898  2.7169  2.5004
  496MOL0     H65466   7.042   9.656   6.579  0.8905  0.5119 -0.3638
  496MOL0     H65467   7.179   9.588   6.498  0.1460  1.2955  1.0921
  496MOL0     H65468   6.955   9.435   6.658 -0.1923  0.2163 -1.4780
  496MOL0     H65469   7.084   9.354   6.579 -1.6273 -0.5707  1.3765
  496MOL0     H65470   7.230   9.524   6.954 -1.2750 -0.2441  1.5493
  496MOL0     H65471   6.544   9.487   6.189 -0.3254  3.4653 -3.7022
  496MOL0     H65472   6.321   9.570   6.227  0.2212  2.4847 -0.6806
  497MOL0     O65473   5.425   4.114   7.876  0.3520  0.8300  0.4578
  497MOL0     C65474   5.432   4.178   7.980  0.3689 -0.0285  0.5560
  497MOL0     O65475   5.328   4.226   8.051 -1.0888 -0.4232 -0.3177
  497MOL0     C65476   5.214   4.248   7.983  0.8012 -0.2942  0.4863
  497MOL0     C65477   5.210   4.342   7.877 -0.6372  0.4904  0.4679
  497MOL0     C65478   5.096   4.371   7.821 -0.0874 -0.8538  0.2334
  497MOL0     C65479   4.974   4.303   7.847  0.4478  0.2914 -0.6356
  497MOL0     O65480   4.856   4.319   7.776  0.1680 -0.0307 -0.0488
  497MOL0     C65481   4.836   4.434   7.684  0.7186  0.6410  0.4613
  497MOL0     C65482   4.698   4.461   7.626 -0.0246  0.5448 -0.3700
  497MOL0     C65483   4.694   4.575   7.533 -0.5876 -0.4065 -0.3868
  497MOL0     C65484   4.554   4.600   7.462 -0.3017  0.4265  0.4471
  497MOL0     C65485   4.556   4.729   7.375  1.7936 -0.0316 -0.0540
  497MOL0     C65486   4.444   4.719   7.262 -0.1172  0.1708  0.1372
  497MOL0     C65487   4.442   4.849   7.191  0.5927  0.6223  0.6094
  497MOL0     C65488   4.356   4.822   7.068  0.7194  0.1535  0.0292
  497MOL0     N65489   4.298   4.946   7.009  0.2243  0.5517  0.4671
  497MOL0     C65490   4.380   5.054   6.968 -0.1549 -0.5826  0.1361
  497MOL0     C65491   4.285   5.136   6.915 -0.8080 -0.0683 -1.3130
  497MOL0     C65492   4.321   5.261   6.851 -1.0061 -1.1931 -0.0059
  497MOL0     C65493   4.330   5.274   6.697  0.4597 -0.0460 -0.4616
  497MOL0     C65494   4.458   5.193   6.645  0.0212 -0.4712 -0.3025
  497MOL0     C65495   4.421   5.123   6.515  0.4583 -0.5080 -0.5586
  497MOL0     O65496   4.342   5.004   6.537 -0.7472 -0.1039 -0.1270
  497MOL0     C65497   4.219   4.994   6.491 -0.1853  0.0941 -0.1264
  497MOL0     C65498   4.116   4.959   6.569 -0.0096 -0.3632 -0.1301
  497MOL0     C65499   3.993   4.934   6.512 -0.9590 -0.1719  0.8353
  497MOL0     C65500   3.968   4.954   6.379  0.3838 -0.1640  0.4010
  497MOL0     C65501   3.837   4.911   6.330  0.1589  0.2238 -0.3676
  497MOL0     O65502   3.727   4.925   6.410  0.4575  0.2333 -0.7030
  497MOL0     C65503   3.599   4.885   6.366 -0.2049  0.5938 -0.7161
  497MOL0     C65504   3.545   4.938   6.250 -0.6852 -0.3324  0.8101
  497MOL0     C65505   3.415   4.904   6.213 -0.1116  0.2593 -0.1137
  497MOL0     C65506   3.332   4.825   6.294  0.4872 -0.0745 -0.4608
  497MOL0     O65507   3.198   4.803   6.254  0.2768  0.1471  0.9066
  497MOL0     C65508   3.155   4.664   6.266  0.0428 -0.1121  0.0559
  497MOL0     C65509   3.024   4.629   6.187 -0.2178  0.2687 -0.2099
  497MOL0     C65510   3.054   4.576   6.042 -0.1766  0.1182 -0.3836
  497MOL0     C65511   2.942   4.488   5.974 -0.0167  0.7064  0.3189
  497MOL0     C65512   2.810   4.567   5.975 -0.1544 -0.1939  0.1194
  497MOL0     C65513   2.708   4.478   5.904  0.4885 -0.4599 -0.1166
  497MOL0     C65514   2.562   4.538   5.905 -0.6605  0.8244  0.3133
  497MOL0     C65515   2.445   4.456   5.855 -0.6694  0.2607 -0.2088
  497MOL0    Cl65516   2.472   4.370   5.699 -0.3022  0.5489 -0.4055
  497MOL0     C65517   3.391   4.772   6.412  0.3220  0.1128 -0.3614
  497MOL0     C65518   3.527   4.790   6.441  0.6444  0.5697  0.3361
  497MOL0     O65519   3.840   4.846   6.228 -0.2051 -0.0904 -0.4496
  497MOL0     C65520   4.069   4.992   6.293 -0.4042 -0.1588  0.1018
  497MOL0     C65521   4.196   4.999   6.349 -0.6349 -0.1521 -1.0074
  497MOL0     N65522   4.159   5.084   6.920 -0.4564  0.2447  0.1220
  497MOL0     N65523   4.165   4.972   6.975 -0.3559  0.4896  0.6890
  497MOL0     C65524   4.973   4.200   7.944  0.0858 -0.1625  0.6774
  497MOL0     C65525   5.097   4.174   8.012 -0.7914 -0.7681  0.5799
  497MOL0     C65526   5.568   4.183   8.032 -0.2083 -1.0656 -0.6462
  497MOL0     C65527   5.668   4.102   7.991 -0.0059  0.4073 -0.1819
  497MOL0     C65528   5.788   4.101   8.065  0.0229  0.0219 -1.2887
  497MOL0     C65529   5.812   4.196   8.170  0.3632  0.0858  0.5287
  497MOL0     O65530   5.926   4.184   8.236  0.4779  0.3897 -0.4568
  497MOL0     C65531   6.027   4.291   8.217  1.1439  1.4745 -0.4772
  497MOL0     C65532   6.139   4.235   8.139  0.3149  0.1222 -0.1216
  497MOL0     C65533   6.240   4.339   8.092 -0.8858  0.4928  0.3416
  497MOL0     C65534   6.354   4.277   8.011  1.3045 -0.0222 -0.1577
  497MOL0     C65535   6.434   4.170   8.081 -0.3609 -0.2238 -1.1648
  497MOL0     C65536   6.499   4.084   8.146  0.8804 -0.1446  0.2874
  497MOL0     C65537   5.715   4.293   8.195 -0.4225  0.3348  0.9821
  497MOL0     C65538   5.598   4.289   8.126  0.9913 -0.4289 -0.1209
  497MOL0     H65539   5.297   4.399   7.846 -0.1928 -0.5833 -0.3216
  497MOL0     H65540   5.096   4.460   7.760  0.9655  0.1274  1.6030
  497MOL0     H65541   4.903   4.422   7.598 -0.7947 -0.1460 -0.6452
  497MOL0     H65542   4.868   4.524   7.738  1.3917 -0.7577  2.5063
  497MOL0     H65543   4.636   4.491   7.711  0.0929  1.4785 -0.5975
  497MOL0     H65544   4.661   4.368   7.584 -1.1712 -0.8669  3.3894
  497MOL0     H65545   4.778   4.560   7.465  0.4433  2.6322  0.0541
  497MOL0     H65546   4.714   4.670   7.583 -1.8425  0.5914 -1.6861
  497MOL0     H65547   4.543   4.512   7.397  3.9947  1.0371 -1.4692
  497MOL0     H65548   4.476   4.603   7.538  0.4476  0.7378  1.2138
  497MOL0     H65549   4.651   4.726   7.320  2.3882  1.9446  0.7875
  497MOL0     H65550   4.549   4.819   7.436  1.0796  0.4457 -0.8314
  497MOL0     H65551   4.353   4.710   7.321  0.3655  2.9706  1.4942
  497MOL0     H65552   4.476   4.638   7.196 -1.5761 -0.9221  0.7269
  497MOL0     H65553   4.391   4.919   7.258  0.4072 -2.3772  3.8623
  497MOL0     H65554   4.539   4.885   7.156 -0.0304  0.8982 -0.9247
  497MOL0     H65555   4.266   4.763   7.089 -0.5338  1.2787 -1.8340
  497MOL0     H65556   4.410   4.769   6.988  2.6475 -1.5239  2.2826
  497MOL0     H65557   4.487   5.070   6.972  0.0883 -1.3448 -2.0970
  497MOL0     H65558   4.416   5.290   6.897 -1.3723 -1.5165  0.9861
  497MOL0     H65559   4.253   5.338   6.888  1.8552  1.7932 -0.4937
  497MOL0     H65560   4.342   5.379   6.670  0.0626  1.0745  3.2185
  497MOL0     H65561   4.232   5.236   6.664  0.4697 -1.4974  1.0251
  497MOL0     H65562   4.538   5.261   6.614  0.7664 -1.2473 -0.1427
  497MOL0     H65563   4.498   5.125   6.722  0.3435  0.1732  0.1065
  497MOL0     H65564   4.515   5.090   6.470 -0.1544  1.2377 -3.3540
  497MOL0     H65565   4.375   5.192   6.444  2.1626  2.0627  0.6535
  497MOL0     H65566   4.147   4.940   6.672  3.1421 -1.2333 -1.1297
  497MOL0     H65567   3.917   4.892   6.576 -3.7943  1.0105 -1.5360
  497MOL0     H65568   3.604   5.003   6.185 -3.9942  1.3364 -0.7707
  497MOL0     H65569   3.372   4.934   6.118  1.6911 -1.9004 -1.7191
  497MOL0     H65570   3.134   4.653   6.373  0.5947  0.1178  0.1886
  497MOL0     H65571   3.229   4.590   6.234 -2.3843 -1.9127 -1.7469
  497MOL0     H65572   2.957   4.715   6.179  0.4132  0.7988  0.1477
  497MOL0     H65573   2.981   4.555   6.255  2.9266 -2.5075 -0.9742
  497MOL0     H65574   3.144   4.515   6.048 -0.1821 -0.0893 -1.9361
  497MOL0     H65575   3.081   4.661   5.979  0.2481  1.2020  1.1944
  497MOL0     H65576   2.978   4.462   5.874  2.1339  1.5788  0.7968
  497MOL0     H65577   2.933   4.392   6.027 -0.1856  0.6659  0.2148
  497MOL0     H65578   2.822   4.663   5.924  3.1120 -0.1859  0.6404
  497MOL0     H65579   2.775   4.584   6.078 -2.3105  3.7925 -1.0633
  497MOL0     H65580   2.710   4.377   5.945  2.9909  0.5024  2.5302
  497MOL0     H65581   2.736   4.472   5.798 -0.0893 -1.7994 -0.2011
  497MOL0     H65582   2.528   4.558   6.007  1.3747  0.2239  1.1486
  497MOL0     H65583   2.576   4.633   5.852  0.0413  0.5177 -0.0605
  497MOL0     H65584   2.362   4.527   5.852 -0.7088  0.1914 -0.7058
  497MOL0     H65585   2.425   4.375   5.925  0.2257 -0.3908 -0.6862
  497MOL0     H65586   3.335   4.701   6.472 -0.1931 -0.4418 -1.4687
  497MOL0     H65587   3.563   4.738   6.529 -2.0286 -1.1862  0.5006
  497MOL0     H65588   4.062   4.985   6.185  1.4059 -0.5130 -0.0266
  497MOL0     H65589   4.287   5.013   6.291  0.6423 -1.2840  0.6325
  497MOL0     H65590   4.896   4.125   7.956  0.4925 -0.7417 -0.2049
  497MOL0     H65591   5.098   4.092   8.084  1.1536 -3.0932 -1.8724
  497MOL0     H65592   5.655   4.020   7.921  1.4379  2.0313 -2.4631
  497MOL0     H65593   5.856   4.019   8.041 -1.5602 -2.4631  2.0298
  497MOL0     H65594   6.066   4.326   8.314  2.8023 -0.2783 -0.4603
  497MOL0     H65595   5.990   4.378   8.162 -1.3858 -0.6341 -2.3396
  497MOL0     H65596   6.189   4.162   8.204 -1.1008 -0.6658  0.1242
  497MOL0     H65597   6.094   4.178   8.058  0.7019 -1.1304  0.5196
  497MOL0     H65598   6.276   4.405   8.171  2.8649 -0.3963 -0.4599
  497MOL0     H65599   6.182   4.401   8.023  0.0751 -1.9239 -2.8798
  497MOL0     H65600   6.310   4.219   7.930 -1.1174  0.6952  0.5616
  497MOL0     H65601   6.417   4.355   7.966  1.0357 -0.5126 -1.4128
  497MOL0     H65602   6.529   4.010   8.216 -0.4598 -2.4349 -1.4017
  497MOL0     H65603   5.748   4.370   8.263  0.3410  1.0079 -0.1219
  497MOL0     H65604   5.516   4.356   8.152 -0.2758 -2.1133  0.3855
  498MOL0     O65605   5.304   2.090   2.840  0.1220  0.4983  0.1057
  498MOL0     C65606   5.422   2.114   2.829  0.4223  0.8060  0.4067
  498MOL0     O65607   5.481   2.186   2.736 -0.3739  0.3282  0.4543
  498MOL0     C65608   5.427   2.233   2.615  0.9495 -0.1299  0.3447
  498MOL0     C65609   5.322   2.166   2.549 -0.0161  0.0400 -0.0049
  498MOL0     C65610   5.279   2.216   2.421 -0.3649  0.0144  0.1326
  498MOL0     C65611   5.336   2.331   2.367  0.2447  0.4413  0.4329
  498MOL0     O65612   5.288   2.364   2.238 -0.2025 -0.3876  0.2380
  498MOL0     C65613   5.356   2.457   2.157  0.0731 -0.2881 -0.8814
  498MOL0     C65614   5.332   2.406   2.011 -0.1375 -0.3331 -1.1385
  498MOL0     C65615   5.419   2.286   1.991  0.1312  0.2616  0.0852
  498MOL0     C65616   5.413   2.222   1.843  0.3527 -0.5338 -0.4212
  498MOL0     C65617   5.505   2.092   1.847  0.0853 -0.3356 -0.6625
  498MOL0     C65618   5.429   1.971   1.914 -0.5548  0.3720  0.3112
  498MOL0     C65619   5.302   1.928   1.827 -0.1510  0.5391 -0.3163
  498MOL0     C65620   5.247   1.792   1.884 -0.0319  0.1825 -0.4242
  498MOL0     N65621   5.130   1.741   1.812  0.1275  0.1376  0.3151
  498MOL0     C65622   5.129   1.641   1.724  0.3729 -0.2820  1.0796
  498MOL0     C65623   5.003   1.605   1.701 -0.6236  0.7086  0.4446
  498MOL0     C65624   4.966   1.501   1.595  0.2425 -0.4627 -0.0481
  498MOL0     C65625   4.889   1.387   1.665 -0.8371 -0.0089  0.7643
  498MOL0     C65626   4.975   1.286   1.744  0.4556  1.0460 -0.3000
  498MOL0     C65627   4.880   1.171   1.787 -0.0467 -1.5184  0.4779
  498MOL0     O65628   4.959   1.048   1.792 -0.4295  0.2336  0.8800
  498MOL0     C65629   4.900   0.925   1.789  0.1546 -0.1117  0.2410
  498MOL0     C65630   4.974   0.807   1.765 -0.2566  0.0166 -0.1682
  498MOL0     C65631   4.921   0.683   1.789  0.3374  0.5900 -0.7856
  498MOL0     C65632   4.797   0.666   1.847  0.4050 -0.0939  0.0491
  498MOL0     C65633   4.748   0.540   1.906  0.0454  0.0971  0.4646
  498MOL0     O65634   4.630   0.546   1.974  0.2514  0.6598 -0.2678
  498MOL0     C65635   4.573   0.429   2.022  0.0658  0.4094 -0.9963
  498MOL0     C65636   4.471   0.358   1.947 -0.6043 -0.3479  0.3193
  498MOL0     C65637   4.415   0.237   1.997  0.2085 -0.0532  0.9042
  498MOL0     C65638   4.459   0.191   2.120 -0.2732  0.2218  0.5161
  498MOL0     O65639   4.395   0.085   2.185 -1.1727 -0.7987 -0.7858
  498MOL0     C65640   4.355   0.104   2.321 -0.4672  0.2241  0.1856
  498MOL0     C65641   4.339  -0.037   2.378 -1.3178  0.7712 -0.0141
  498MOL0     C65642   4.198  -0.102   2.364  0.1229  0.4912 -0.1462
  498MOL0     C65643   4.200  -0.238   2.439 -0.7200  0.0258 -0.5158
  498MOL0     C65644   4.059  -0.307   2.454 -0.0545 -0.2818 -0.4230
  498MOL0     C65645   4.009  -0.360   2.321  0.1376  0.5892  0.7411
  498MOL0     C65646   3.884  -0.444   2.337 -0.2063  0.6766  0.1799
  498MOL0     C65647   3.767  -0.359   2.362  0.4789 -1.2446  0.8384
  498MOL0    Cl65648   3.637  -0.467   2.396 -0.1625 -0.1736  0.2267
  498MOL0     C65649   4.575   0.251   2.187  0.9464  0.1449 -0.1723
  498MOL0     C65650   4.631   0.371   2.137  0.4778  0.5330 -0.1293
  498MOL0     O65651   4.817   0.442   1.893  0.1314 -0.3623 -0.1525
  498MOL0     C65652   4.708   0.782   1.863 -0.1003 -0.6851  0.2265
  498MOL0     C65653   4.767   0.906   1.823 -0.2374  0.1041  0.0566
  498MOL0     N65654   4.924   1.688   1.776 -0.1081  0.6169  0.4629
  498MOL0     N65655   5.003   1.764   1.847  0.4413 -0.5876 -0.1327
  498MOL0     C65656   5.432   2.400   2.434 -0.1329 -0.0614  0.4484
  498MOL0     C65657   5.482   2.345   2.555 -0.1539  0.5920  0.1415
  498MOL0     C65658   5.502   2.045   2.930  0.4055  0.4423 -0.2630
  498MOL0     C65659   5.453   1.927   2.995  0.0695  0.1391  0.0459
  498MOL0     C65660   5.536   1.860   3.085  0.1853 -0.4337 -1.7538
  498MOL0     C65661   5.659   1.905   3.114 -0.3559  0.3857 -0.3537
  498MOL0     O65662   5.750   1.824   3.172  0.4275  0.6222 -0.2878
  498MOL0     C65663   5.747   1.818   3.311  0.1640 -0.9332  0.5680
  498MOL0     C65664   5.885   1.773   3.357 -0.1721 -0.5755 -0.5894
  498MOL0     C65665   5.982   1.884   3.331 -0.7098  0.5791  0.7071
  498MOL0     C65666   6.111   1.846   3.405  0.5476 -0.0096 -0.3346
  498MOL0     C65667   6.228   1.908   3.343 -0.0426 -0.9740 -0.7241
  498MOL0     C65668   6.307   1.976   3.286  0.4668  0.2016 -0.4099
  498MOL0     C65669   5.711   2.023   3.053  0.5558 -0.5488 -0.2059
  498MOL0     C65670   5.628   2.095   2.971  0.3672  0.1817 -0.4933
  498MOL0     H65671   5.273   2.077   2.589 -1.1518 -0.4590 -2.3153
  498MOL0     H65672   5.188   2.181   2.374 -0.1751  1.2212 -1.1832
  498MOL0     H65673   5.458   2.479   2.190 -0.3413  0.7536 -0.2359
  498MOL0     H65674   5.305   2.554   2.165  0.9881  0.2496 -1.3265
  498MOL0     H65675   5.349   2.487   1.941  1.5968  2.2982  2.0383
  498MOL0     H65676   5.228   2.373   1.999 -0.1480 -1.2274  0.8712
  498MOL0     H65677   5.396   2.207   2.063  2.2633 -0.6266 -0.1426
  498MOL0     H65678   5.519   2.313   2.027  0.2488 -1.2974  1.0050
  498MOL0     H65679   5.311   2.187   1.825 -0.6078  0.1850  2.9145
  498MOL0     H65680   5.445   2.294   1.767 -0.6923  2.0933  1.4914
  498MOL0     H65681   5.590   2.117   1.911 -0.8973 -1.5426  1.1845
  498MOL0     H65682   5.533   2.060   1.746  2.5897  1.1521 -0.5334
  498MOL0     H65683   5.403   1.991   2.018  0.2691  1.9301  0.2464
  498MOL0     H65684   5.496   1.885   1.917 -0.7643  0.2363  1.4831
  498MOL0     H65685   5.228   2.007   1.837  2.0993  2.6236  0.7372
  498MOL0     H65686   5.337   1.900   1.727  3.1595 -2.8088  1.5290
  498MOL0     H65687   5.214   1.811   1.987 -0.0349 -3.4922  0.3812
  498MOL0     H65688   5.330   1.721   1.889 -1.0917 -1.1078 -0.7861
  498MOL0     H65689   5.212   1.582   1.689  0.8730  0.4100  1.0719
  498MOL0     H65690   5.052   1.463   1.539 -1.0218 -0.0553 -2.3888
  498MOL0     H65691   4.911   1.561   1.521 -1.2004 -1.3586  0.2648
  498MOL0     H65692   4.844   1.330   1.582 -0.0030  0.9564 -0.3889
  498MOL0     H65693   4.806   1.424   1.725 -0.4059  2.4418 -0.0319
  498MOL0     H65694   5.049   1.254   1.670 -1.6559  0.9340 -2.5180
  498MOL0     H65695   5.022   1.329   1.833 -0.2240 -1.2111  1.2300
  498MOL0     H65696   4.797   1.163   1.716 -0.2554  1.8337  0.1952
  498MOL0     H65697   4.833   1.194   1.883 -0.3425 -0.4919  0.0987
  498MOL0     H65698   5.080   0.816   1.743  0.6056 -1.9028  2.6019
  498MOL0     H65699   4.976   0.590   1.777 -1.8455 -0.7764 -0.7769
  498MOL0     H65700   4.442   0.401   1.852 -2.4822 -0.6302  0.7237
  498MOL0     H65701   4.332   0.188   1.947  1.6275 -0.2345 -1.4094
  498MOL0     H65702   4.262   0.161   2.324  0.4812  1.9092 -0.9233
  498MOL0     H65703   4.435   0.152   2.378 -0.1819 -0.3167  0.2490
  498MOL0     H65704   4.380  -0.032   2.479 -1.9624  0.8404  0.2519
  498MOL0     H65705   4.408  -0.105   2.327 -1.4235  1.4659 -1.1387
  498MOL0     H65706   4.172  -0.110   2.258 -2.6390  3.6469  0.1427
  498MOL0     H65707   4.113  -0.043   2.396 -0.5673 -1.8125  2.6480
  498MOL0     H65708   4.271  -0.307   2.392  0.9017 -1.2440  3.4115
  498MOL0     H65709   4.223  -0.218   2.544 -2.3066  0.8861 -0.3140
  498MOL0     H65710   3.995  -0.236   2.506 -2.2131 -3.0657  0.9805
  498MOL0     H65711   4.066  -0.388   2.527 -1.4386 -0.2089 -0.1847
  498MOL0     H65712   4.086  -0.426   2.282 -1.8190 -1.3640 -0.0408
  498MOL0     H65713   3.996  -0.282   2.244  1.1912 -1.0909 -1.2403
  498MOL0     H65714   3.876  -0.506   2.247  0.8740 -1.4041  1.4330
  498MOL0     H65715   3.894  -0.519   2.417  1.3288 -0.2545 -0.8295
  498MOL0     H65716   3.737  -0.303   2.272 -0.1443 -1.8935  0.6312
  498MOL0     H65717   3.775  -0.286   2.443 -2.1496 -1.8731  1.7751
  498MOL0     H65718   4.605   0.201   2.278 -0.3221  1.9425  1.3251
  498MOL0     H65719   4.715   0.413   2.191  0.2921 -2.2216  2.5819
  498MOL0     H65720   4.607   0.784   1.902 -0.2256  0.5395 -0.1309
  498MOL0     H65721   4.694   0.985   1.835 -0.8850 -0.7638  2.5858
  498MOL0     H65722   5.476   2.490   2.391 -2.2235  1.5561  1.5056
  498MOL0     H65723   5.569   2.390   2.602  0.8638 -0.0326 -1.0835
  498MOL0     H65724   5.360   1.881   2.962  0.7821 -1.4271  0.1428
  498MOL0     H65725   5.508   1.773   3.142 -1.4546  0.4767 -1.0979
  498MOL0     H65726   5.668   1.744   3.332 -3.1587  1.4018 -2.5970
  498MOL0     H65727   5.708   1.912   3.352 -3.5394 -1.7647 -0.6378
  498MOL0     H65728   5.876   1.746   3.463 -2.0112 -2.1071 -1.0838
  498MOL0     H65729   5.911   1.685   3.298  2.0848 -0.3540  0.0110
  498MOL0     H65730   5.933   1.975   3.367  0.6085  1.0145  1.4335
  498MOL0     H65731   6.007   1.885   3.224  1.3300  2.5073  1.1597
  498MOL0     H65732   6.089   1.876   3.508 -1.1402 -1.2915 -0.2755
  498MOL0     H65733   6.126   1.738   3.397 -1.4817 -0.2812 -1.2232
  498MOL0     H65734   6.386   2.033   3.240  0.7406 -0.8155 -1.2244
  498MOL0     H65735   5.814   2.042   3.080  0.6843 -1.0126 -0.3663
  498MOL0     H65736   5.673   2.188   2.938  0.2468  1.7223  3.1433
  499MOL0     O65737   9.784  10.194   7.713  0.0683 -0.1501  0.0496
  499MOL0     C65738   9.811  10.082   7.681  0.2424  0.3489 -0.0246
  499MOL0     O65739   9.720   9.986   7.626  0.1885 -0.4576 -0.0945
  499MOL0     C65740   9.589  10.031   7.610  0.5234  0.0015  0.2696
  499MOL0     C65741   9.487   9.960   7.667 -0.3972  0.9432  0.5712
  499MOL0     C65742   9.355   9.997   7.644 -0.1009  0.6303  0.1261
  499MOL0     C65743   9.320  10.107   7.569  0.8116 -0.1824  0.2430
  499MOL0     O65744   9.194  10.146   7.539  0.6417  0.4219 -0.0189
  499MOL0     C65745   9.081  10.057   7.538  0.7943 -0.8205  0.7379
  499MOL0     C65746   8.970  10.162   7.515 -0.2492 -0.0139 -0.0086
  499MOL0     C65747   8.829  10.104   7.491  0.3136 -0.7715 -0.0713
  499MOL0     C65748   8.790   9.986   7.583  0.1232  0.3740  0.4292
  499MOL0     C65749   8.651   9.947   7.566  0.7093  0.6592 -1.0636
  499MOL0     C65750   8.604   9.849   7.680 -0.0822 -0.5613  0.1527
  499MOL0     C65751   8.456   9.835   7.698 -0.0890 -0.0369  1.3661
  499MOL0     C65752   8.419   9.695   7.724  0.9692  0.7950 -0.4192
  499MOL0     N65753   8.286   9.676   7.784  0.0027 -0.1602 -0.5854
  499MOL0     C65754   8.260   9.663   7.924  0.4793 -0.0996  0.6423
  499MOL0     C65755   8.136   9.705   7.931 -0.8363  0.0501  0.0081
  499MOL0     C65756   8.068   9.712   8.069 -0.7347  0.8135  0.4378
  499MOL0     C65757   7.917   9.743   8.055  0.2499  0.7096 -0.1180
  499MOL0     C65758   7.844   9.749   8.201 -0.7711 -0.0988 -0.4894
  499MOL0     C65759   7.715   9.802   8.185 -0.0910  0.0481 -0.3981
  499MOL0     O65760   7.644   9.749   8.296  0.4083 -0.2379 -0.5725
  499MOL0     C65761   7.506   9.741   8.286 -0.3917 -0.2147  0.0661
  499MOL0     C65762   7.443   9.685   8.392 -0.3711  0.4169 -0.0590
  499MOL0     C65763   7.303   9.680   8.398 -0.3017 -0.1837 -0.2763
  499MOL0     C65764   7.226   9.712   8.283  0.2196 -0.0451  0.7044
  499MOL0     C65765   7.081   9.697   8.284 -0.8660 -0.3678  0.9738
  499MOL0     O65766   7.037   9.648   8.404 -0.7176 -0.8408 -0.2598
  499MOL0     C65767   6.910   9.610   8.439 -0.8421 -0.3012 -0.3701
  499MOL0     C65768   6.795   9.577   8.360  0.0513 -0.1364 -0.3303
  499MOL0     C65769   6.679   9.533   8.423  0.5957  0.0513  0.5849
  499MOL0     C65770   6.681   9.496   8.557  0.0065 -0.0884 -0.6969
  499MOL0     O65771   6.570   9.440   8.599  0.0409  0.7696 -1.0438
  499MOL0     C65772   6.537   9.428   8.740 -0.9860  0.6236  0.4544
  499MOL0     C65773   6.418   9.343   8.764  0.0235  0.1734  0.5222
  499MOL0     C65774   6.300   9.410   8.693  1.3991 -0.2837 -0.0095
  499MOL0     C65775   6.167   9.384   8.764  0.0847 -0.1238  0.2239
  499MOL0     C65776   6.043   9.407   8.684  0.3136  0.7988  0.1410
  499MOL0     C65777   5.924   9.407   8.786 -0.1807 -0.8147  0.4157
  499MOL0     C65778   5.793   9.396   8.706  0.1904 -0.2403 -0.2363
  499MOL0     C65779   5.671   9.411   8.793 -0.2711  0.3566  0.0809
  499MOL0    Cl65780   5.685   9.539   8.910  0.4340 -0.1686 -0.2001
  499MOL0     C65781   6.793   9.540   8.639  0.2205 -0.0752 -0.4114
  499MOL0     C65782   6.905   9.580   8.577 -0.0415  0.3254  0.6525
  499MOL0     O65783   7.015   9.709   8.176 -0.5531 -0.8493  0.1396
  499MOL0     C65784   7.293   9.760   8.167 -0.1305  0.5966 -0.1927
  499MOL0     C65785   7.433   9.787   8.176  0.5683  0.5461  0.3922
  499MOL0     N65786   8.088   9.743   7.813  0.7289 -0.0393 -0.2198
  499MOL0     N65787   8.172   9.726   7.719  0.0098  0.1507  0.4112
  499MOL0     C65788   9.422  10.186   7.512  0.2881  1.0030  0.0275
  499MOL0     C65789   9.557  10.140   7.519  0.3414 -0.0515 -0.1637
  499MOL0     C65790   9.959  10.048   7.708  0.0766 -0.5787 -1.1594
  499MOL0     C65791  10.043  10.141   7.785  0.4467  0.0894  0.3400
  499MOL0     C65792  10.172  10.110   7.796 -0.5129 -0.0623 -0.0931
  499MOL0     C65793  10.234   9.998   7.740  0.1861  0.8805 -0.2910
  499MOL0     O65794  10.369   9.973   7.738 -0.6052  0.2039 -0.1786
  499MOL0     C65795  10.463  10.087   7.748  0.2479 -0.5894  0.1920
  499MOL0     C65796  10.608  10.041   7.758  0.5418  0.5149 -0.9720
  499MOL0     C65797  10.629   9.955   7.888  0.3236  0.8250 -0.1038
  499MOL0     C65798  10.776   9.953   7.933  0.7299  0.3281  0.2690
  499MOL0     C65799  10.792   9.827   8.007  0.4161  0.3687  0.4687
  499MOL0     C65800  10.812   9.728   8.070  0.3845  0.6653 -0.0487
  499MOL0     C65801  10.153   9.914   7.679  0.2415  0.6459 -0.1261
  499MOL0     C65802  10.017   9.929   7.670  0.3733  0.2107  0.1217
  499MOL0     H65803   9.515   9.867   7.716  1.8930  0.4172 -1.5170
  499MOL0     H65804   9.280   9.927   7.680  0.4429  1.3367  2.8755
  499MOL0     H65805   9.058  10.008   7.633 -2.2584  0.9559  1.0398
  499MOL0     H65806   9.077   9.992   7.450  1.8986 -0.5608  0.4833
  499MOL0     H65807   8.987  10.236   7.436  2.1610 -2.5222 -2.0303
  499MOL0     H65808   8.971  10.228   7.603  0.9662 -3.0845  2.4600
  499MOL0     H65809   8.827  10.080   7.384 -0.5432 -1.8416  0.1706
  499MOL0     H65810   8.761  10.190   7.500  3.1840  1.5094  1.8295
  499MOL0     H65811   8.849   9.896   7.564  2.4980  1.9109  0.1341
  499MOL0     H65812   8.812  10.014   7.687  1.1049  2.4393 -0.2674
  499MOL0     H65813   8.627   9.907   7.467 -0.3492 -2.4024  0.3321
  499MOL0     H65814   8.590  10.037   7.583 -2.3616 -1.3280 -0.8157
  499MOL0     H65815   8.639   9.887   7.776 -0.5813 -0.6979  0.3889
  499MOL0     H65816   8.650   9.750   7.667  1.8444 -0.3634  4.0813
  499MOL0     H65817   8.414   9.901   7.775  0.2893  0.5563  1.0629
  499MOL0     H65818   8.406   9.854   7.604  0.4921  1.1997  1.2942
  499MOL0     H65819   8.482   9.658   7.805  1.2210 -1.8514 -1.7017
  499MOL0     H65820   8.424   9.637   7.631 -2.6620  1.6087 -1.2849
  499MOL0     H65821   8.331   9.631   8.000  0.1682 -0.5636  0.7398
  499MOL0     H65822   8.118   9.795   8.120 -1.0543  1.1853  0.1541
  499MOL0     H65823   8.076   9.615   8.119  0.9837  1.7390  2.1038
  499MOL0     H65824   7.880   9.662   7.992  2.8260 -0.2478 -0.5018
  499MOL0     H65825   7.895   9.831   7.995 -0.4015 -0.5649 -1.8402
  499MOL0     H65826   7.846   9.652   8.252  0.8365 -0.8326 -1.8507
  499MOL0     H65827   7.906   9.815   8.262 -0.6237 -0.6106 -0.0746
  499MOL0     H65828   7.683   9.766   8.086  1.2808  0.7931 -1.1427
  499MOL0     H65829   7.716   9.911   8.187  1.4660  0.2478 -3.8448
  499MOL0     H65830   7.482   9.639   8.482 -3.8327 -2.5209  0.1477
  499MOL0     H65831   7.262   9.634   8.486  1.5349  1.5959  1.6315
  499MOL0     H65832   6.801   9.590   8.253  0.5646  3.0925 -0.0002
  499MOL0     H65833   6.590   9.523   8.362 -0.5764  1.0636  2.0752
  499MOL0     H65834   6.526   9.528   8.784 -0.0992  2.6025 -3.3246
  499MOL0     H65835   6.620   9.379   8.792 -2.0940  0.3900  2.0382
  499MOL0     H65836   6.406   9.329   8.872  2.7543 -0.4037  0.8133
  499MOL0     H65837   6.431   9.242   8.725 -0.6428  0.7998 -1.4507
  499MOL0     H65838   6.301   9.371   8.591 -0.0778 -0.9273  0.1935
  499MOL0     H65839   6.309   9.519   8.684  0.3477 -0.2649 -1.0925
  499MOL0     H65840   6.164   9.285   8.810 -2.0699 -0.4746 -0.5661
  499MOL0     H65841   6.173   9.457   8.846  1.7214  0.9339 -0.7767
  499MOL0     H65842   6.029   9.324   8.614 -2.1689  0.8117  0.5124
  499MOL0     H65843   6.045   9.502   8.631  0.5620  1.2147  0.8883
  499MOL0     H65844   5.945   9.495   8.847 -0.3226 -2.4762  3.0094
  499MOL0     H65845   5.937   9.322   8.853  3.2152 -1.3432 -0.6872
  499MOL0     H65846   5.787   9.467   8.623 -1.5092  0.0968  0.1504
  499MOL0     H65847   5.783   9.301   8.654  1.9006 -2.4634  3.1194
  499MOL0     H65848   5.661   9.319   8.852 -0.4174  1.7091  2.2639
  499MOL0     H65849   5.581   9.423   8.733 -2.2918  0.0345  2.8376
  499MOL0     H65850   6.781   9.523   8.745 -1.1516  1.0851 -0.3415
  499MOL0     H65851   6.985   9.595   8.648  0.4992  3.4608 -0.4547
  499MOL0     H65852   7.238   9.781   8.075 -0.2710 -2.0386 -0.7872
  499MOL0     H65853   7.474   9.836   8.089  1.5433  0.5060  0.8229
  499MOL0     H65854   9.414  10.273   7.447  2.3952  0.8507 -0.5274
  499MOL0     H65855   9.630  10.205   7.472 -1.7206  3.2506  0.8775
  499MOL0     H65856  10.011  10.242   7.810 -0.5615 -0.2583  0.5154
  499MOL0     H65857  10.235  10.177   7.854  1.1630 -2.9825  1.7038
  499MOL0     H65858  10.446  10.154   7.833  0.1622 -0.5673  0.1583
  499MOL0     H65859  10.447  10.153   7.662  1.0271 -1.4116 -0.6171
  499MOL0     H65860  10.630   9.964   7.683 -1.3927 -0.2695 -0.8012
  499MOL0     H65861  10.677  10.126   7.758  0.3953  0.6720 -2.3402
  499MOL0     H65862  10.589   9.855   7.873  0.0879  0.7112  1.1545
  499MOL0     H65863  10.579  10.003   7.972  0.3070  1.4649 -0.4727
  499MOL0     H65864  10.852   9.956   7.854  0.9706  0.6817  0.5133
  499MOL0     H65865  10.788  10.042   7.995 -2.1997  0.9208  0.1345
  499MOL0     H65866  10.826   9.641   8.132  2.8393  0.9161 -0.1748
  499MOL0     H65867  10.184   9.817   7.640 -3.0408 -0.7795  0.4757
  499MOL0     H65868   9.953   9.851   7.629 -0.8073  1.5275 -0.6155
  500MOL0     O65869   8.504   7.763   7.638 -0.4890  0.5587 -0.7165
  500MOL0     C65870   8.593   7.846   7.650 -0.6697 -0.2960 -0.2078
  500MOL0     O65871   8.656   7.882   7.767  0.6090  0.6510 -0.5013
  500MOL0     C65872   8.605   7.816   7.876 -0.1910 -0.1040  0.5470
  500MOL0     C65873   8.570   7.886   7.985 -0.8110  0.4818 -0.2230
  500MOL0     C65874   8.539   7.823   8.104  1.0822 -0.2159  0.6318
  500MOL0     C65875   8.539   7.690   8.119 -0.2924 -0.1571  0.2037
  500MOL0     O65876   8.514   7.610   8.234  0.7058  0.6407  0.0436
  500MOL0     C65877   8.457   7.674   8.348 -0.5256  0.2011 -0.2134
  500MOL0     C65878   8.420   7.563   8.451 -0.1637 -0.0845  0.6088
  500MOL0     C65879   8.268   7.528   8.450  0.9993  0.0375  0.2059
  500MOL0     C65880   8.195   7.629   8.528  0.5173  0.3958 -0.0887
  500MOL0     C65881   8.046   7.661   8.500  0.4195  0.2583 -0.5276
  500MOL0     C65882   8.006   7.795   8.560  0.0479 -0.2892  0.4214
  500MOL0     C65883   7.879   7.853   8.502  0.3166 -0.3355  0.0997
  500MOL0     C65884   7.903   7.983   8.424 -0.2312  0.4608 -0.3395
  500MOL0     N65885   7.993   7.985   8.310 -0.2498  0.2734 -0.3816
  500MOL0     C65886   7.995   7.905   8.199  0.4515  0.1232 -0.4152
  500MOL0     C65887   8.117   7.931   8.144  0.6178  0.8703  0.1609
  500MOL0     C65888   8.164   7.861   8.016  0.3157 -1.3844 -0.1405
  500MOL0     C65889   8.218   7.714   8.032  0.0661 -0.4209 -0.5188
  500MOL0     C65890   8.103   7.611   8.015 -0.1332 -0.1127 -0.6045
  500MOL0     C65891   8.165   7.463   8.004  0.6665  0.0827  0.2513
  500MOL0     O65892   8.084   7.364   7.930  0.2107 -0.3221 -0.0281
  500MOL0     C65893   7.945   7.361   7.950  0.4037  0.4331 -0.1818
  500MOL0     C65894   7.857   7.332   7.844  0.0457  1.3357 -0.3315
  500MOL0     C65895   7.718   7.342   7.853 -0.5755  0.8788  0.0668
  500MOL0     C65896   7.662   7.364   7.984  0.6063 -0.3892  1.0954
  500MOL0     C65897   7.511   7.345   8.004 -0.0587  0.1822  0.6517
  500MOL0     O65898   7.461   7.347   8.135 -0.4455 -0.7844 -0.1717
  500MOL0     C65899   7.326   7.323   8.161  0.8614  0.5122  0.1384
  500MOL0     C65900   7.211   7.364   8.089  0.7974  0.4292  0.1991
  500MOL0     C65901   7.085   7.356   8.143  0.1924  0.3905  0.7326
  500MOL0     C65902   7.065   7.307   8.277  0.0662  0.5463  0.5820
  500MOL0     O65903   6.937   7.308   8.329  0.3187 -0.0284 -0.2170
  500MOL0     C65904   6.918   7.319   8.474 -0.6117  0.2803 -0.0950
  500MOL0     C65905   6.776   7.322   8.510 -0.3337 -0.4734 -0.5180
  500MOL0     C65906   6.702   7.434   8.440  0.5448  0.7823 -0.0100
  500MOL0     C65907   6.556   7.443   8.507  0.3420 -0.6242  0.0333
  500MOL0     C65908   6.463   7.520   8.409  0.4363  0.0280  0.1235
  500MOL0     C65909   6.313   7.511   8.466 -0.3009  0.5593  0.4060
  500MOL0     C65910   6.229   7.627   8.408 -0.9137 -0.3216 -0.6016
  500MOL0     C65911   6.095   7.635   8.482 -1.1201 -0.1471  0.5352
  500MOL0    Cl65912   5.961   7.543   8.412  0.6042  0.4578  0.4359
  500MOL0     C65913   7.179   7.263   8.344 -0.1530  0.8822 -1.5002
  500MOL0     C65914   7.302   7.265   8.285  0.2333  0.2620  0.2867
  500MOL0     O65915   7.440   7.303   7.906 -0.2769  0.4733  0.3911
  500MOL0     C65916   7.740   7.381   8.093 -1.3692  0.6940 -0.2487
  500MOL0     C65917   7.880   7.374   8.078  0.5506  0.3000  0.7116
  500MOL0     N65918   8.176   8.038   8.206  0.2482  1.0882  0.4146
  500MOL0     N65919   8.101   8.069   8.307 -0.6966  0.2936 -0.9023
  500MOL0     C65920   8.584   7.613   8.013  0.2843  0.5131 -0.0667
  500MOL0     C65921   8.615   7.669   7.889  0.3221 -0.3207  0.6799
  500MOL0     C65922   8.622   7.939   7.535 -0.5483 -0.0072 -0.0055
  500MOL0     C65923   8.754   7.999   7.514 -0.1512  0.0454 -0.0992
  500MOL0     C65924   8.786   8.071   7.397  0.4225 -0.2101  0.3134
  500MOL0     C65925   8.687   8.094   7.304 -0.8401 -0.4812  0.5370
  500MOL0     O65926   8.715   8.168   7.195  0.3711  0.2268 -0.4818
  500MOL0     C65927   8.687   8.113   7.068  0.1680  0.8791 -0.3243
  500MOL0     C65928   8.779   7.994   7.038  0.2303  0.3181  0.1120
  500MOL0     C65929   8.789   7.975   6.891  0.0950  0.2503 -0.8599
  500MOL0     C65930   8.871   7.849   6.854  0.6069  0.3383 -0.5096
  500MOL0     C65931   8.795   7.727   6.864  0.6598 -0.4740 -0.3101
  500MOL0     C65932   8.731   7.624   6.870 -0.3305 -0.1633  0.6100
  500MOL0     C65933   8.558   8.043   7.327  0.7932 -0.7966 -1.8077
  500MOL0     C65934   8.521   7.968   7.442 -0.2063 -0.1968 -0.5025
  500MOL0     H65935   8.580   7.993   7.976  0.1146  0.3688 -0.7378
  500MOL0     H65936   8.520   7.895   8.183  0.2795  0.8451 -0.4898
  500MOL0     H65937   8.365   7.731   8.329  0.2911  1.0851 -1.7489
  500MOL0     H65938   8.538   7.738   8.383 -0.0128 -0.9461  0.7498
  500MOL0     H65939   8.457   7.584   8.552 -2.7280  0.6007  1.4773
  500MOL0     H65940   8.466   7.470   8.416 -1.2749 -1.0907  1.7193
  500MOL0     H65941   8.250   7.429   8.492 -3.4952  0.2178 -0.7353
  500MOL0     H65942   8.217   7.520   8.353  0.2171 -0.5120  0.6493
  500MOL0     H65943   8.203   7.608   8.634 -0.7477 -2.0402 -0.4161
  500MOL0     H65944   8.247   7.724   8.510 -0.1866  1.2261  1.9698
  500MOL0     H65945   7.980   7.580   8.535  2.5031 -0.7102  1.4029
  500MOL0     H65946   8.029   7.659   8.392  1.0416  1.1070 -0.6455
  500MOL0     H65947   8.089   7.867   8.549 -1.5414  1.6981  0.7980
  500MOL0     H65948   7.998   7.783   8.668 -0.2287  1.2016  0.5888
  500MOL0     H65949   7.830   7.782   8.435 -1.0670 -0.7339  1.4791
  500MOL0     H65950   7.808   7.881   8.581 -1.1204 -0.2699 -1.1824
  500MOL0     H65951   7.947   8.054   8.495  2.9517 -0.8751 -0.8037
  500MOL0     H65952   7.805   8.015   8.389 -0.6092  2.8994  2.5128
  500MOL0     H65953   7.932   7.828   8.155 -0.5515  0.1556  0.9168
  500MOL0     H65954   8.242   7.925   7.973 -0.7805 -0.1098 -0.3166
  500MOL0     H65955   8.088   7.857   7.937  1.0956 -0.8511 -0.9451
  500MOL0     H65956   8.264   7.684   8.126 -0.9517 -1.5103 -0.3385
  500MOL0     H65957   8.288   7.701   7.949 -1.2840 -1.5037 -1.5344
  500MOL0     H65958   8.029   7.620   8.095 -0.5066 -1.1462 -0.8212
  500MOL0     H65959   8.048   7.628   7.922 -0.4946  2.7277  0.0386
  500MOL0     H65960   8.184   7.428   8.106 -1.0170 -1.1072  0.1938
  500MOL0     H65961   8.259   7.464   7.949  0.3468 -2.2895 -0.4563
  500MOL0     H65962   7.902   7.310   7.748  1.8266  1.6449  0.3972
  500MOL0     H65963   7.652   7.305   7.775 -0.2350 -1.2349  0.7197
  500MOL0     H65964   7.212   7.392   7.985  0.2961  1.0989  0.3693
  500MOL0     H65965   6.994   7.386   8.091  0.4992  0.4015  0.1929
  500MOL0     H65966   6.971   7.400   8.524 -2.5681  1.3484  0.3764
  500MOL0     H65967   6.958   7.231   8.524  0.1081 -0.8106 -2.4544
  500MOL0     H65968   6.756   7.334   8.617 -4.4634  2.3198 -1.3325
  500MOL0     H65969   6.723   7.231   8.479  1.0876 -1.6990  0.5519
  500MOL0     H65970   6.695   7.413   8.333 -4.4209 -0.5629  0.3467
  500MOL0     H65971   6.747   7.532   8.458  2.2392  0.0793 -0.2687
  500MOL0     H65972   6.516   7.341   8.511 -2.5323  0.3061 -1.7765
  500MOL0     H65973   6.559   7.477   8.610 -0.2798  0.5777 -0.3298
  500MOL0     H65974   6.464   7.471   8.311 -2.4462  1.8594 -0.9493
  500MOL0     H65975   6.492   7.623   8.390  0.1185  0.4229  1.6411
  500MOL0     H65976   6.329   7.525   8.573 -1.1356 -2.5029  1.0312
  500MOL0     H65977   6.269   7.415   8.438  0.3646 -0.0232  1.3045
  500MOL0     H65978   6.291   7.715   8.425 -0.3280 -0.6727 -0.8946
  500MOL0     H65979   6.204   7.616   8.302  0.2800 -1.0835 -0.8291
  500MOL0     H65980   6.064   7.740   8.486  0.5069  0.3664  0.5710
  500MOL0     H65981   6.116   7.612   8.587 -0.9132 -1.3422  0.2443
  500MOL0     H65982   7.147   7.225   8.441 -0.5918  3.3930 -0.6022
  500MOL0     H65983   7.392   7.224   8.330  1.1229 -0.3473 -1.9324
  500MOL0     H65984   7.701   7.407   8.191  0.4548  1.3683  0.3594
  500MOL0     H65985   7.943   7.395   8.165 -2.3555  0.0891  3.0174
  500MOL0     H65986   8.607   7.510   8.039 -1.0240 -0.2179 -1.6247
  500MOL0     H65987   8.645   7.625   7.794 -2.8248  0.8632 -1.0297
  500MOL0     H65988   8.826   7.973   7.591 -1.0820 -2.3980  0.0330
  500MOL0     H65989   8.875   8.131   7.380 -1.4013  2.4364 -0.5649
  500MOL0     H65990   8.703   8.197   7.001 -2.6787  1.3237 -0.5983
  500MOL0     H65991   8.584   8.078   7.054  0.5755 -1.1588  1.1867
  500MOL0     H65992   8.880   8.007   7.078  1.4057 -0.8412 -2.2708
  500MOL0     H65993   8.740   7.904   7.086  1.7269 -0.4187  0.0075
  500MOL0     H65994   8.837   8.063   6.848  0.9726 -0.2941 -1.0202
  500MOL0     H65995   8.690   7.964   6.845  0.8264  0.0275 -2.4276
  500MOL0     H65996   8.906   7.853   6.750  1.3328  0.8904 -0.2518
  500MOL0     H65997   8.953   7.832   6.925 -1.5109  0.2497  2.0903
  500MOL0     H65998   8.663   7.542   6.865  3.0588 -3.1632 -0.5967
  500MOL0     H65999   8.483   8.063   7.252 -0.0524 -2.6408 -1.5077
  500MOL0     H66000   8.414   7.952   7.450 -0.3451  0.3405 -1.1907
  501MOL0     O66001   2.348   2.443   6.746  0.3875 -0.2330  0.2335
  501MOL0     C66002   2.429   2.528   6.707 -0.4219  0.0937  0.6312
  501MOL0     O66003   2.410   2.660   6.700 -0.5202  0.5090 -0.0269
  501MOL0     C66004   2.284   2.722   6.720 -0.5092 -0.1566  0.5394
  501MOL0     C66005   2.187   2.681   6.810  0.0819 -0.3803 -0.6575
  501MOL0     C66006   2.061   2.739   6.825  0.4934  0.7463  0.0366
  501MOL0     C66007   2.031   2.850   6.751  0.4880 -0.3075 -0.3876
  501MOL0     O66008   1.901   2.897   6.760 -0.0838 -0.9026 -0.0250
  501MOL0     C66009   1.885   3.041   6.732  0.1110  0.0732 -0.6122
  501MOL0     C66010   1.741   3.090   6.742  0.4105 -0.3313 -0.2814
  501MOL0     C66011   1.663   3.038   6.868  0.4582  0.7319  0.3954
  501MOL0     C66012   1.527   3.103   6.870 -0.3115 -0.2608  0.0057
  501MOL0     C66013   1.423   3.014   6.796 -0.2999 -0.4039  0.9003
  501MOL0     C66014   1.291   3.083   6.780  0.5846 -0.5839 -0.2096
  501MOL0     C66015   1.177   2.996   6.758 -0.2182  0.4413  0.8645
  501MOL0     C66016   1.138   2.936   6.888  0.7305  0.3836  0.8269
  501MOL0     N66017   1.005   2.868   6.877  0.1806 -0.0557 -0.8983
  501MOL0     C66018   0.966   2.779   6.976  0.9855  0.6416  0.3593
  501MOL0     C66019   0.839   2.755   6.943 -0.1352 -1.0076 -0.5094
  501MOL0     C66020   0.751   2.664   7.031 -0.0505  0.2671  0.1497
  501MOL0     C66021   0.595   2.665   6.999  0.1134  0.2119  0.6980
  501MOL0     C66022   0.523   2.736   7.113  0.1322 -0.1279 -0.6682
  501MOL0     C66023   0.370   2.717   7.104 -0.6446  0.5957 -0.0835
  501MOL0     O66024   0.318   2.776   7.219 -0.0744 -0.3349 -0.6291
  501MOL0     C66025   0.188   2.749   7.249  0.1323  0.0878  0.6726
  501MOL0     C66026   0.091   2.694   7.161  1.0593  0.1633  0.0246
  501MOL0     C66027  -0.044   2.682   7.187 -0.5537  0.1215  0.5058
  501MOL0     C66028  -0.096   2.717   7.314 -0.0680 -0.2952 -1.0894
  501MOL0     C66029  -0.243   2.726   7.345 -0.4490 -0.6345  0.5857
  501MOL0     O66030  -0.334   2.661   7.266 -0.0729 -0.0567  0.9660
  501MOL0     C66031  -0.468   2.671   7.283 -1.2483  0.2792 -0.5096
  501MOL0     C66032  -0.543   2.660   7.168  1.2888 -0.4765 -0.0639
  501MOL0     C66033  -0.682   2.663   7.184 -0.6690 -0.4267  0.1757
  501MOL0     C66034  -0.749   2.678   7.305  0.2712 -0.3913 -0.8287
  501MOL0     O66035  -0.887   2.703   7.298  0.6034  0.6052 -0.3053
  501MOL0     C66036  -0.961   2.738   7.418  0.6053 -0.5607 -0.0609
  501MOL0     C66037  -1.001   2.603   7.482 -0.7399 -0.7159 -0.0134
  501MOL0     C66038  -1.093   2.516   7.401  0.1595  0.4083  0.6583
  501MOL0     C66039  -1.232   2.567   7.384  0.1743 -0.1083  0.6879
  501MOL0     C66040  -1.318   2.475   7.300 -0.0308 -0.1615  0.2774
  501MOL0     C66041  -1.423   2.399   7.371 -0.0233  0.7832  0.7393
  501MOL0     C66042  -1.518   2.496   7.448 -0.5203 -0.5951 -0.0102
  501MOL0     C66043  -1.664   2.445   7.445 -0.6782  0.4357 -0.6728
  501MOL0    Cl66044  -1.731   2.451   7.273 -0.2655  0.2437  0.5236
  501MOL0     C66045  -0.677   2.685   7.422  0.1549 -0.3698  0.8555
  501MOL0     C66046  -0.538   2.691   7.401 -1.0346  1.3072 -1.7640
  501MOL0     O66047  -0.265   2.810   7.434  0.8284  0.4664 -0.1668
  501MOL0     C66048   0.004   2.760   7.408 -0.2814 -0.0128  0.7759
  501MOL0     C66049   0.136   2.781   7.372 -0.0518 -0.2315  0.4433
  501MOL0     N66050   0.812   2.820   6.822 -0.4225 -0.1576 -0.3752
  501MOL0     N66051   0.907   2.896   6.793  0.4409  0.2069  0.0580
  501MOL0     C66052   2.133   2.901   6.667 -0.2659 -0.6168 -0.6941
  501MOL0     C66053   2.256   2.836   6.651 -0.1539  0.0074 -0.4333
  501MOL0     C66054   2.567   2.478   6.688  0.6667 -0.6994 -0.0610
  501MOL0     C66055   2.599   2.348   6.646  0.3661  0.0632 -0.7417
  501MOL0     C66056   2.732   2.309   6.623 -0.1718  0.2996 -0.0406
  501MOL0     C66057   2.836   2.396   6.635  0.4232 -0.7017 -0.0002
  501MOL0     O66058   2.966   2.373   6.619  0.2648  0.1312 -0.0516
  501MOL0     C66059   3.009   2.242   6.591  0.4313 -0.2873 -0.4496
  501MOL0     C66060   3.040   2.167   6.718 -0.4493  0.5284 -1.4145
  501MOL0     C66061   3.140   2.236   6.810 -0.5136 -0.5810  0.3040
  501MOL0     C66062   3.276   2.250   6.744  0.2372  0.0049 -0.8918
  501MOL0     C66063   3.380   2.280   6.852  0.8751 -0.3870  0.7016
  501MOL0     C66064   3.465   2.311   6.929 -0.9422 -0.5549  0.1006
  501MOL0     C66065   2.799   2.534   6.657 -0.3747  0.4355 -0.2659
  501MOL0     C66066   2.673   2.575   6.682  0.5743 -0.7170  0.1442
  501MOL0     H66067   2.217   2.600   6.876  0.2415 -0.0014 -0.2601
  501MOL0     H66068   1.984   2.699   6.890  0.1305  0.2448 -0.6902
  501MOL0     H66069   1.928   3.065   6.634  0.7899  0.2087 -0.2885
  501MOL0     H66070   1.935   3.106   6.804 -1.6626  0.1360  0.6250
  501MOL0     H66071   1.695   3.055   6.649  0.1268  1.3677 -0.8235
  501MOL0     H66072   1.739   3.199   6.747 -0.3956 -0.2374 -1.8718
  501MOL0     H66073   1.721   3.059   6.959  2.0450 -1.9073  0.1138
  501MOL0     H66074   1.654   2.929   6.870  1.2473  0.6416 -0.3604
  501MOL0     H66075   1.510   3.095   6.978  3.1363 -1.3142  0.6128
  501MOL0     H66076   1.525   3.207   6.838  0.8591 -0.4971 -0.8797
  501MOL0     H66077   1.408   2.918   6.846 -2.4292 -1.4044 -1.4234
  501MOL0     H66078   1.463   2.987   6.698 -1.6445  0.9323 -0.0608
  501MOL0     H66079   1.313   3.171   6.719  1.0881  0.9580  2.0635
  501MOL0     H66080   1.262   3.131   6.874 -3.1275 -2.6045 -0.1160
  501MOL0     H66081   1.092   3.043   6.708 -1.7105 -1.7288  1.1940
  501MOL0     H66082   1.192   2.905   6.699  0.8123  0.6757  0.7595
  501MOL0     H66083   1.119   3.014   6.963 -2.1093  1.9592 -1.3154
  501MOL0     H66084   1.214   2.868   6.928  0.1148 -0.6265  0.3474
  501MOL0     H66085   1.040   2.751   7.050 -0.5535  0.6794  1.9811
  501MOL0     H66086   0.779   2.685   7.135  4.5204 -0.3697 -0.7432
  501MOL0     H66087   0.778   2.558   7.024 -1.8324 -0.2730  0.8116
  501MOL0     H66088   0.555   2.563   6.995  3.8877 -1.4140 -1.7916
  501MOL0     H66089   0.576   2.714   6.904 -3.2699 -1.4098  0.4046
  501MOL0     H66090   0.555   2.697   7.210 -0.1230 -0.5740 -0.7574
  501MOL0     H66091   0.550   2.841   7.107  0.8618 -0.0873  2.0379
  501MOL0     H66092   0.353   2.609   7.102  1.0128  0.2633  1.0859
  501MOL0     H66093   0.336   2.766   7.013  0.7933  1.7547 -0.0367
  501MOL0     H66094   0.130   2.675   7.061  1.4370  1.2841 -0.0567
  501MOL0     H66095  -0.119   2.646   7.117 -1.0370  1.1980  0.4544
  501MOL0     H66096  -0.494   2.673   7.073  0.4717 -1.7421 -0.6862
  501MOL0     H66097  -0.740   2.673   7.093  1.4537  1.7135 -1.0419
  501MOL0     H66098  -1.044   2.805   7.393 -0.0331 -1.8077 -1.4783
  501MOL0     H66099  -0.899   2.794   7.488 -2.3054  2.6343  0.2174
  501MOL0     H66100  -1.057   2.619   7.574  0.1964  0.5571  0.3581
  501MOL0     H66101  -0.913   2.541   7.503 -0.7257 -0.8530 -0.4731
  501MOL0     H66102  -1.095   2.418   7.450  0.2890  0.2141  0.2853
  501MOL0     H66103  -1.046   2.506   7.302 -0.8814 -0.7391  0.2467
  501MOL0     H66104  -1.274   2.582   7.483 -1.3069 -2.9994  0.6140
  501MOL0     H66105  -1.218   2.664   7.335 -1.1619  0.4252  1.3208
  501MOL0     H66106  -1.252   2.411   7.241 -1.5709 -0.1238 -1.5647
  501MOL0     H66107  -1.362   2.528   7.215  0.0036  0.0898  0.4154
  501MOL0     H66108  -1.384   2.329   7.446  2.5666 -0.0630 -1.2604
  501MOL0     H66109  -1.481   2.347   7.294  0.0166  0.0722  1.1826
  501MOL0     H66110  -1.487   2.509   7.552  2.1996  1.9062 -1.0130
  501MOL0     H66111  -1.533   2.595   7.404 -1.1751  0.0924  1.6817
  501MOL0     H66112  -1.728   2.515   7.500 -2.9216  0.1079 -2.6887
  501MOL0     H66113  -1.671   2.343   7.485  0.6308 -0.9004 -3.5734
  501MOL0     H66114  -0.711   2.700   7.523 -0.7804 -0.0365  0.4951
  501MOL0     H66115  -0.470   2.696   7.485 -0.2120 -4.8446 -1.6166
  501MOL0     H66116  -0.027   2.785   7.510  1.2048  2.0142  0.7912
  501MOL0     H66117   0.212   2.810   7.445  3.4836 -2.0780 -2.1819
  501MOL0     H66118   2.119   2.996   6.616 -2.9474  0.3733  1.6302
  501MOL0     H66119   2.336   2.885   6.595  0.4993 -2.2830 -1.6448
  501MOL0     H66120   2.522   2.274   6.629  1.3745 -1.4320  0.8603
  501MOL0     H66121   2.748   2.209   6.584  1.8269 -0.1889  1.8232
  501MOL0     H66122   3.101   2.247   6.532  0.9856 -2.2315  0.1871
  501MOL0     H66123   2.936   2.189   6.528  0.7308 -0.9193 -0.2776
  501MOL0     H66124   2.947   2.159   6.775 -0.8442  1.9738 -1.7997
  501MOL0     H66125   3.076   2.065   6.702 -0.7001 -0.0226  1.1811
  501MOL0     H66126   3.152   2.181   6.904 -0.5490  0.0093  0.6552
  501MOL0     H66127   3.097   2.333   6.834 -2.0631 -2.0726  4.5392
  501MOL0     H66128   3.305   2.162   6.687  1.9955 -2.5003  3.4115
  501MOL0     H66129   3.264   2.342   6.684 -0.6085 -0.6929 -1.8273
  501MOL0     H66130   3.538   2.319   7.008 -2.0723 -1.4731  1.2925
  501MOL0     H66131   2.879   2.607   6.656  0.6511 -0.6459 -1.0800
  501MOL0     H66132   2.646   2.675   6.716 -0.9714 -2.3604  4.5101
  502MOL0     O66133   6.290   6.443   0.631  0.4252 -0.2732 -0.1847
  502MOL0     C66134   6.282   6.340   0.701  0.9319 -0.0434 -0.6905
  502MOL0     O66135   6.184   6.241   0.700  0.2938 -0.0464 -0.3277
  502MOL0     C66136   6.060   6.282   0.653  0.2070 -0.2683  0.3664
  502MOL0     C66137   5.998   6.247   0.526  0.1816 -0.0628 -0.5784
  502MOL0     C66138   5.874   6.295   0.481 -0.0543  0.4170  0.2616
  502MOL0     C66139   5.807   6.381   0.564  0.9727 -0.0373  0.9185
  502MOL0     O66140   5.682   6.427   0.524  0.3687  1.2576 -1.1027
  502MOL0     C66141   5.644   6.551   0.566  0.3058 -0.1597  0.2243
  502MOL0     C66142   5.507   6.575   0.514  0.6323  0.9922  0.1411
  502MOL0     C66143   5.400   6.470   0.556 -0.0516  0.0761 -0.9428
  502MOL0     C66144   5.263   6.528   0.552  0.1067  0.7528  0.5460
  502MOL0     C66145   5.158   6.413   0.540 -0.1776 -0.5503  0.1642
  502MOL0     C66146   5.014   6.463   0.561 -0.4186 -0.1141 -0.0370
  502MOL0     C66147   4.910   6.350   0.561 -0.4905  0.0970 -0.0220
  502MOL0     C66148   4.784   6.413   0.613  0.6277 -0.4218  0.0370
  502MOL0     N66149   4.663   6.349   0.552  0.3267 -0.2387  0.9895
  502MOL0     C66150   4.613   6.407   0.438 -0.4599  0.1739 -0.1073
  502MOL0     C66151   4.490   6.339   0.415 -1.0378  0.1110  0.2455
  502MOL0     C66152   4.403   6.349   0.296  0.0297 -0.3217 -0.2795
  502MOL0     C66153   4.251   6.355   0.332 -0.0215 -0.0177  0.8839
  502MOL0     C66154   4.186   6.221   0.368 -0.3332 -0.5015  0.9101
  502MOL0     C66155   4.035   6.232   0.391 -0.2102  0.2608  0.5052
  502MOL0     O66156   3.968   6.218   0.267  0.6585 -0.6191 -0.0868
  502MOL0     C66157   3.835   6.266   0.260 -1.0568 -0.2303 -0.2595
  502MOL0     C66158   3.780   6.283   0.132 -0.3124  0.1181 -0.8845
  502MOL0     C66159   3.650   6.334   0.118  0.0255  1.0938 -0.2732
  502MOL0     C66160   3.567   6.355   0.227 -0.0373  0.0217 -0.7029
  502MOL0     C66161   3.422   6.380   0.214  0.2850 -0.5078  0.7862
  502MOL0     O66162   3.365   6.363   0.089  0.4042 -0.1561 -0.2234
  502MOL0     C66163   3.233   6.390   0.074  0.3272  0.8172 -0.5446
  502MOL0     C66164   3.136   6.333   0.159  0.4062 -0.3532  0.8523
  502MOL0     C66165   3.001   6.340   0.123  0.0191 -0.7600 -0.6425
  502MOL0     C66166   2.966   6.400   0.004 -0.2198 -0.2420 -0.2343
  502MOL0     O66167   2.828   6.420  -0.021  0.4185 -0.9476  0.9546
  502MOL0     C66168   2.741   6.309   0.006 -0.3432 -0.2841 -0.5936
  502MOL0     C66169   2.600   6.317  -0.054  0.2090 -0.7041 -0.4018
  502MOL0     C66170   2.538   6.456  -0.045 -0.3494  0.7002 -0.8703
  502MOL0     C66171   2.415   6.466  -0.143 -0.0346  0.5400 -0.0498
  502MOL0     C66172   2.300   6.367  -0.112  0.2379 -0.1146 -0.4013
  502MOL0     C66173   2.189   6.368  -0.223 -0.1319  0.5461 -0.1265
  502MOL0     C66174   2.070   6.277  -0.177 -0.2783 -0.5561  0.4979
  502MOL0     C66175   2.102   6.129  -0.182 -0.0425 -0.2738 -0.1917
  502MOL0    Cl66176   2.030   6.068  -0.331 -0.2215 -0.4567  0.4369
  502MOL0     C66177   3.056   6.465  -0.079 -1.0004 -0.2226 -0.1865
  502MOL0     C66178   3.193   6.446  -0.042  1.7392  0.0645  0.5183
  502MOL0     O66179   3.373   6.428   0.316  0.7289  0.3332  0.4450
  502MOL0     C66180   3.622   6.355   0.359  0.4182  0.0792  0.7894
  502MOL0     C66181   3.749   6.307   0.370 -0.2165  0.8802  0.5040
  502MOL0     N66182   4.470   6.254   0.520  0.1948  0.4022  0.7034
  502MOL0     N66183   4.560   6.279   0.609  0.7841 -0.7079 -0.1250
  502MOL0     C66184   5.855   6.416   0.691  0.2645  0.8051 -0.3597
  502MOL0     C66185   5.970   6.348   0.740 -0.2790  0.0254 -0.1004
  502MOL0     C66186   6.402   6.300   0.768 -0.2476  0.4760 -0.2027
  502MOL0     C66187   6.410   6.196   0.855  0.6200  0.5209 -0.1764
  502MOL0     C66188   6.525   6.169   0.932 -0.7294 -0.1163  0.3898
  502MOL0     C66189   6.647   6.230   0.904 -0.1054  0.4464 -0.4069
  502MOL0     O66190   6.747   6.194   0.987 -0.2005  0.0696  0.3364
  502MOL0     C66191   6.878   6.246   0.962 -0.0827 -0.9522  0.0045
  502MOL0     C66192   6.979   6.154   1.036  0.0947  1.3910 -0.6515
  502MOL0     C66193   7.129   6.179   1.013 -0.2480 -0.1892 -0.0750
  502MOL0     C66194   7.223   6.124   1.130  0.4111 -0.7152  0.0406
  502MOL0     C66195   7.363   6.099   1.094  0.6327 -0.4155 -0.1848
  502MOL0     C66196   7.479   6.097   1.057 -0.1102 -0.4723 -0.1451
  502MOL0     C66197   6.648   6.316   0.793 -0.2774 -0.1303 -0.0890
  502MOL0     C66198   6.525   6.359   0.736  0.6901  0.0910 -0.8409
  502MOL0     H66199   6.062   6.188   0.461 -0.0356  1.2585 -2.0351
  502MOL0     H66200   5.840   6.258   0.385  0.4954 -1.3498  0.7116
  502MOL0     H66201   5.711   6.632   0.538  0.4454 -0.4952 -0.4317
  502MOL0     H66202   5.641   6.549   0.675  2.0341 -1.6016  0.3029
  502MOL0     H66203   5.519   6.573   0.405  1.9073  3.0273  0.1813
  502MOL0     H66204   5.468   6.671   0.549 -0.1914  0.8304 -0.3041
  502MOL0     H66205   5.417   6.451   0.662  0.4773 -0.8477 -1.1820
  502MOL0     H66206   5.408   6.382   0.491  0.5804  0.9411 -2.0660
  502MOL0     H66207   5.238   6.606   0.624 -2.8001  1.5282 -1.1458
  502MOL0     H66208   5.255   6.585   0.460  1.8472 -0.5209 -0.4666
  502MOL0     H66209   5.171   6.331   0.611  1.3796 -2.4823 -2.1860
  502MOL0     H66210   5.174   6.371   0.440 -1.9135  0.8937 -0.7954
  502MOL0     H66211   4.985   6.526   0.477  2.3193  2.9399  1.0802
  502MOL0     H66212   5.012   6.519   0.655  1.7355 -2.5780  1.6269
  502MOL0     H66213   4.894   6.314   0.458 -0.5343  0.0568 -0.0012
  502MOL0     H66214   4.936   6.265   0.624  0.8426  1.1754  0.9469
  502MOL0     H66215   4.773   6.519   0.587 -3.5661 -1.3209 -3.0664
  502MOL0     H66216   4.784   6.405   0.722  1.0384 -2.5137 -0.0864
  502MOL0     H66217   4.674   6.475   0.380  1.7790 -2.4726 -1.0539
  502MOL0     H66218   4.421   6.267   0.225  0.8258  0.2652 -0.7722
  502MOL0     H66219   4.426   6.440   0.241 -1.3552 -0.4836 -1.1977
  502MOL0     H66220   4.203   6.404   0.247  2.6096  1.2028 -0.0296
  502MOL0     H66221   4.239   6.415   0.423  1.3013  0.0461  1.0317
  502MOL0     H66222   4.186   6.151   0.284 -0.3224  1.4396 -0.7716
  502MOL0     H66223   4.239   6.175   0.453 -0.9727 -1.6329  0.7232
  502MOL0     H66224   4.003   6.328   0.432 -0.6031 -0.1527  1.1864
  502MOL0     H66225   4.017   6.154   0.465  2.2828 -2.3991 -1.4902
  502MOL0     H66226   3.842   6.260   0.046 -1.9156 -3.1249 -1.3114
  502MOL0     H66227   3.623   6.339   0.013 -1.7163 -1.9818 -0.0814
  502MOL0     H66228   3.165   6.281   0.250  1.8947 -1.9635 -0.4884
  502MOL0     H66229   2.924   6.290   0.181 -2.4570 -0.9131 -3.7773
  502MOL0     H66230   2.707   6.322   0.109 -1.7562 -0.0143 -1.0734
  502MOL0     H66231   2.790   6.213  -0.007 -1.7303 -1.0197 -0.6004
  502MOL0     H66232   2.536   6.247   0.001 -0.5512 -0.2026 -0.6289
  502MOL0     H66233   2.612   6.286  -0.158 -0.0891 -2.0125 -0.0782
  502MOL0     H66234   2.601   6.539  -0.079 -1.6673  1.7032 -0.9588
  502MOL0     H66235   2.496   6.479   0.054  0.1748 -0.0221 -0.4660
  502MOL0     H66236   2.379   6.568  -0.155 -1.1207  0.2054  0.3032
  502MOL0     H66237   2.461   6.449  -0.241 -0.6701 -3.1583  0.1624
  502MOL0     H66238   2.263   6.389  -0.011  3.3922  0.2170  0.7997
  502MOL0     H66239   2.344   6.268  -0.122 -1.2960 -1.0420  1.3607
  502MOL0     H66240   2.231   6.332  -0.317  0.1819  3.8656 -1.3558
  502MOL0     H66241   2.149   6.468  -0.236 -2.5949  0.2134  3.3358
  502MOL0     H66242   2.049   6.309  -0.075  1.0291 -0.0181  0.6171
  502MOL0     H66243   1.984   6.303  -0.239 -0.8987 -4.8127 -0.7446
  502MOL0     H66244   2.049   6.079  -0.100  0.5427  0.8893  0.9476
  502MOL0     H66245   2.211   6.117  -0.178 -0.0672 -0.3256  0.4303
  502MOL0     H66246   3.024   6.521  -0.166 -0.4631 -1.1213 -0.9822
  502MOL0     H66247   3.269   6.490  -0.105  0.4182 -0.4907 -1.5745
  502MOL0     H66248   3.576   6.380   0.454 -1.1315  0.6401 -0.0744
  502MOL0     H66249   3.807   6.299   0.461  4.1180 -1.7732 -2.1291
  502MOL0     H66250   5.813   6.472   0.774 -1.5603 -3.6852  2.0711
  502MOL0     H66251   6.001   6.364   0.843 -0.8401 -3.2618  0.6762
  502MOL0     H66252   6.311   6.155   0.874  0.0540  2.5252  1.5760
  502MOL0     H66253   6.522   6.099   1.015 -2.3695  3.5664  3.8188
  502MOL0     H66254   6.902   6.344   1.002  2.2554 -1.6021  0.3527
  502MOL0     H66255   6.882   6.253   0.853  1.3908 -0.2987  0.0742
  502MOL0     H66256   6.954   6.134   1.141 -0.0992  0.7984 -0.8085
  502MOL0     H66257   6.962   6.051   1.004  1.2842  0.9995 -0.0878
  502MOL0     H66258   7.143   6.287   1.010 -0.0660 -0.2201 -2.8285
  502MOL0     H66259   7.151   6.139   0.914  2.0721 -1.2520  0.8062
  502MOL0     H66260   7.219   6.179   1.224 -2.9534 -2.5717  1.1392
  502MOL0     H66261   7.181   6.031   1.169  0.0565 -0.7809 -0.4901
  502MOL0     H66262   7.584   6.088   1.037  0.0559 -0.2316  0.6028
  502MOL0     H66263   6.736   6.367   0.755 -2.8172  4.3986 -0.5616
  502MOL0     H66264   6.532   6.447   0.674 -1.2119  1.1154  0.3383
  503MOL0     O66265   1.051   6.442   1.199  0.0713  0.6630 -0.3075
  503MOL0     C66266   1.088   6.516   1.294 -0.3338  1.2845 -1.0251
  503MOL0     O66267   1.022   6.621   1.335 -0.1822 -0.0455  0.0148
  503MOL0     C66268   0.905   6.657   1.264 -0.1182  0.4705  1.0429
  503MOL0     C66269   0.778   6.607   1.305 -0.6421  0.0805 -0.6007
  503MOL0     C66270   0.662   6.652   1.237 -0.6977  0.1472 -0.3220
  503MOL0     C66271   0.673   6.756   1.139 -0.1608 -0.1604  1.0183
  503MOL0     O66272   0.551   6.793   1.093 -0.1306  0.1077 -0.2348
  503MOL0     C66273   0.542   6.925   1.045 -0.3028 -0.0115  0.5820
  503MOL0     C66274   0.415   6.962   0.980 -0.3771 -0.7022  0.4556
  503MOL0     C66275   0.302   6.970   1.085  0.1618  0.8809  0.0014
  503MOL0     C66276   0.161   7.015   1.032  0.8056 -0.3466  0.0322
  503MOL0     C66277   0.051   7.022   1.137 -0.2540  0.0171  0.4922
  503MOL0     C66278  -0.074   7.095   1.083  0.5222  0.2332  0.6823
  503MOL0     C66279  -0.168   7.109   1.191  1.1203  0.2202 -0.1933
  503MOL0     C66280  -0.311   7.146   1.135 -0.3570 -0.4306 -0.6547
  503MOL0     N66281  -0.380   7.246   1.213  0.2894 -0.1957  0.3723
  503MOL0     C66282  -0.345   7.373   1.232 -0.0008  0.1906 -0.2025
  503MOL0     C66283  -0.468   7.432   1.276 -0.4824 -0.0916  0.0670
  503MOL0     C66284  -0.487   7.583   1.282  0.1366 -0.5886 -0.2305
  503MOL0     C66285  -0.499   7.631   1.426 -0.2966 -0.3039  0.2948
  503MOL0     C66286  -0.380   7.602   1.510 -0.3764  0.2264 -0.3297
  503MOL0     C66287  -0.261   7.694   1.471  0.5144  0.5565 -0.0687
  503MOL0     O66288  -0.155   7.602   1.432  0.0982  0.1773 -0.0770
  503MOL0     C66289  -0.029   7.647   1.416 -0.2552 -0.0382 -0.7102
  503MOL0     C66290   0.000   7.785   1.412 -0.3667  0.0987 -0.4286
  503MOL0     C66291   0.123   7.821   1.376  0.8649 -0.2599  0.9087
  503MOL0     C66292   0.233   7.734   1.362  0.1051  0.5356  0.3305
  503MOL0     C66293   0.359   7.787   1.325  0.0277  0.5104  0.0036
  503MOL0     O66294   0.459   7.693   1.338  0.1570 -0.4662  0.1759
  503MOL0     C66295   0.584   7.724   1.291 -0.1858 -0.8507 -0.0672
  503MOL0     C66296   0.668   7.618   1.298  0.0308  0.2331  0.3305
  503MOL0     C66297   0.806   7.625   1.264  0.2117 -0.4092  0.5843
  503MOL0     C66298   0.850   7.749   1.205 -0.3240  0.2252  0.4018
  503MOL0     O66299   0.978   7.765   1.166  0.1267  0.1508 -1.4314
  503MOL0     C66300   1.016   7.692   1.050  0.0629  0.4609  0.3141
  503MOL0     C66301   1.142   7.730   0.980  0.5043 -0.2121  0.2345
  503MOL0     C66302   1.204   7.613   0.893 -0.1460 -0.5612 -0.3519
  503MOL0     C66303   1.362   7.610   0.907  0.2579 -0.3867 -0.1338
  503MOL0     C66304   1.425   7.728   0.827  0.6628 -0.0709 -0.8262
  503MOL0     C66305   1.579   7.729   0.842  0.0283 -0.0921 -0.2294
  503MOL0     C66306   1.633   7.693   0.985  0.0646 -0.0685 -0.3304
  503MOL0     C66307   1.780   7.724   0.996 -1.1273 -0.3823  0.4941
  503MOL0    Cl66308   1.895   7.631   0.885  0.1638  0.0124  0.1915
  503MOL0     C66309   0.764   7.863   1.206 -0.2681  0.7176 -0.0846
  503MOL0     C66310   0.632   7.849   1.243  0.3588 -0.0344 -0.3079
  503MOL0     O66311   0.354   7.887   1.258 -0.8314 -0.5737 -0.3837
  503MOL0     C66312   0.212   7.596   1.386 -0.0488 -0.2119  0.1955
  503MOL0     C66313   0.079   7.553   1.408 -0.3748  0.2803  0.0707
  503MOL0     N66314  -0.561   7.335   1.295  0.7352 -0.2264  0.7182
  503MOL0     N66315  -0.508   7.227   1.255 -0.3245  0.1314 -0.0869
  503MOL0     C66316   0.799   6.803   1.099  0.5692 -0.3633 -0.1074
  503MOL0     C66317   0.913   6.754   1.157 -0.2649 -0.0941 -0.5890
  503MOL0     C66318   1.205   6.478   1.379  0.0583  0.1844 -0.1285
  503MOL0     C66319   1.287   6.356   1.362  0.6010 -0.1428 -0.4228
  503MOL0     C66320   1.400   6.333   1.440 -0.8650  0.2926  0.5716
  503MOL0     C66321   1.436   6.430   1.542  0.9166  0.0165  1.4710
  503MOL0     O66322   1.554   6.407   1.611 -0.6147  0.8430  0.5721
  503MOL0     C66323   1.582   6.506   1.710 -0.5313 -0.3583 -0.5819
  503MOL0     C66324   1.712   6.453   1.776  0.5883 -0.2847  0.1668
  503MOL0     C66325   1.765   6.537   1.883 -0.6153  0.9310 -0.6005
  503MOL0     C66326   1.889   6.477   1.958 -0.9660 -0.5728  0.3277
  503MOL0     C66327   2.011   6.506   1.885 -0.1330 -0.2468  0.7579
  503MOL0     C66328   2.104   6.530   1.815 -0.3969  0.2918 -0.3990
  503MOL0     C66329   1.353   6.538   1.561  0.5766 -0.3347 -0.2751
  503MOL0     C66330   1.236   6.554   1.492 -0.3057 -0.0821  0.2510
  503MOL0     H66331   0.780   6.524   1.375  0.3982 -0.9823 -1.8387
  503MOL0     H66332   0.568   6.608   1.267  0.8770 -1.7118  2.3392
  503MOL0     H66333   0.612   6.936   0.962 -0.2965 -0.1941  0.5615
  503MOL0     H66334   0.562   6.985   1.133  1.0828  3.0868 -1.6719
  503MOL0     H66335   0.391   6.891   0.901 -1.0861  2.7542 -2.6827
  503MOL0     H66336   0.426   7.060   0.932 -4.0943 -0.0848  0.5851
  503MOL0     H66337   0.336   7.039   1.161  0.5514  0.3432  0.3213
  503MOL0     H66338   0.297   6.874   1.138  3.4139  0.8063  0.3349
  503MOL0     H66339   0.161   7.116   0.990 -0.0016 -0.6082 -0.6014
  503MOL0     H66340   0.122   6.950   0.953  0.5755 -1.3274  0.9295
  503MOL0     H66341   0.092   7.082   1.219  2.1559 -1.0335  0.1387
  503MOL0     H66342   0.014   6.924   1.168 -4.4968  0.5399 -2.0841
  503MOL0     H66343  -0.114   7.042   0.997  3.6611  1.7740 -1.9683
  503MOL0     H66344  -0.056   7.199   1.053 -0.7229  1.3498  3.4680
  503MOL0     H66345  -0.186   7.014   1.244 -0.1538  1.7056  2.2122
  503MOL0     H66346  -0.145   7.183   1.267 -0.2108 -1.2896  1.8063
  503MOL0     H66347  -0.370   7.053   1.128  1.4059 -2.1721  3.6357
  503MOL0     H66348  -0.298   7.177   1.031  1.9699  0.9892 -0.0042
  503MOL0     H66349  -0.254   7.429   1.212  0.1257 -0.0896 -0.4117
  503MOL0     H66350  -0.580   7.606   1.231  1.2764 -1.3309 -2.7785
  503MOL0     H66351  -0.413   7.634   1.220 -1.7584 -0.1184 -2.1951
  503MOL0     H66352  -0.581   7.574   1.472 -0.2029  1.0754  2.3084
  503MOL0     H66353  -0.526   7.737   1.427 -1.2324 -0.5337  0.4017
  503MOL0     H66354  -0.400   7.622   1.616  0.4435  1.1957 -0.3416
  503MOL0     H66355  -0.353   7.496   1.518 -3.0324 -0.4754  0.0621
  503MOL0     H66356  -0.228   7.755   1.555  0.7384 -0.2508  0.4444
  503MOL0     H66357  -0.279   7.757   1.383 -1.2005 -0.3441 -0.4137
  503MOL0     H66358  -0.080   7.856   1.428 -1.8639 -1.6016 -0.0535
  503MOL0     H66359   0.142   7.924   1.348  1.1067 -0.4248  0.4663
  503MOL0     H66360   0.633   7.519   1.325  1.0599 -0.3717 -0.4499
  503MOL0     H66361   0.861   7.533   1.277 -1.0390 -1.3683 -0.6272
  503MOL0     H66362   0.936   7.698   0.975  0.7134  0.2563 -0.4087
  503MOL0     H66363   1.026   7.590   1.086 -0.3352  0.5078  0.5724
  503MOL0     H66364   1.216   7.765   1.053 -1.7216  1.5014  1.8275
  503MOL0     H66365   1.115   7.812   0.913 -1.7031 -0.5440  0.6457
  503MOL0     H66366   1.160   7.616   0.794 -3.3133 -0.3153  0.9505
  503MOL0     H66367   1.178   7.520   0.946  1.3452 -0.0935  1.3162
  503MOL0     H66368   1.382   7.601   1.014 -2.1460  0.0786  0.4289
  503MOL0     H66369   1.415   7.527   0.861  0.8451 -0.9532  1.4861
  503MOL0     H66370   1.390   7.824   0.867 -0.0701 -0.8632  0.4824
  503MOL0     H66371   1.394   7.712   0.723 -0.2022 -3.7935 -0.1161
  503MOL0     H66372   1.620   7.827   0.818  0.8519  0.0740  1.6624
  503MOL0     H66373   1.624   7.659   0.771  0.5301  1.6072 -1.6598
  503MOL0     H66374   1.578   7.746   1.064 -0.0973  2.2081 -1.8934
  503MOL0     H66375   1.620   7.585   0.996  1.3259 -0.2416 -0.3924
  503MOL0     H66376   1.797   7.687   1.098 -2.2021  1.7555  1.4967
  503MOL0     H66377   1.808   7.829   1.004 -0.7479 -0.4909  0.6565
  503MOL0     H66378   0.813   7.949   1.160  2.1791 -3.0315 -5.6946
  503MOL0     H66379   0.579   7.943   1.247  0.9843  0.3336 -0.4485
  503MOL0     H66380   0.291   7.522   1.383  0.2728  0.0807  1.1271
  503MOL0     H66381   0.063   7.446   1.419  0.3891  0.1934  0.4228
  503MOL0     H66382   0.820   6.870   1.016  4.2072  0.7207  1.4406
  503MOL0     H66383   1.012   6.790   1.132  0.3305  0.1544  1.8823
  503MOL0     H66384   1.260   6.296   1.276 -0.3403 -1.2224  0.5907
  503MOL0     H66385   1.448   6.241   1.407 -0.9661  1.4807 -3.5559
  503MOL0     H66386   1.501   6.524   1.781  0.4442  1.3130  0.1806
  503MOL0     H66387   1.617   6.601   1.667  1.7068  0.3976  2.5361
  503MOL0     H66388   1.683   6.356   1.818 -0.7430  0.1536  0.3144
  503MOL0     H66389   1.788   6.436   1.700 -1.1234 -0.6489 -1.5453
  503MOL0     H66390   1.686   6.554   1.956 -2.6454 -0.0334 -2.4758
  503MOL0     H66391   1.799   6.636   1.852  2.4564 -0.2814 -1.5067
  503MOL0     H66392   1.891   6.521   2.058  0.2240  3.0151 -1.0829
  503MOL0     H66393   1.879   6.369   1.955  0.0614 -0.7401 -3.5320
  503MOL0     H66394   2.191   6.552   1.756  0.4964  0.8268  1.0754
  503MOL0     H66395   1.358   6.603   1.648  1.3995 -1.5796  0.6411
  503MOL0     H66396   1.162   6.629   1.520 -2.0004 -0.3842 -2.9440
  504MOL0     O66397   7.218   5.226   1.656 -0.1483 -0.3833 -0.7243
  504MOL0     C66398   7.295   5.289   1.593  0.4385  0.1344  0.0050
  504MOL0     O66399   7.258   5.371   1.497 -0.4224  0.0575  0.1713
  504MOL0     C66400   7.121   5.385   1.463 -0.3056 -0.5880  0.5584
  504MOL0     C66401   7.041   5.272   1.445  0.0227 -0.0584  0.2057
  504MOL0     C66402   6.913   5.294   1.390  0.5305 -0.4673 -0.4691
  504MOL0     C66403   6.861   5.420   1.369 -0.3422 -0.6409 -0.0403
  504MOL0     O66404   6.738   5.436   1.308  1.3503 -0.9557 -0.3087
  504MOL0     C66405   6.629   5.348   1.350 -0.3876 -0.1003 -0.0326
  504MOL0     C66406   6.506   5.426   1.381 -0.1566 -0.4591  0.1843
  504MOL0     C66407   6.378   5.331   1.388 -0.0401  0.4821  0.5789
  504MOL0     C66408   6.250   5.406   1.378 -0.7264  0.4300 -0.6790
  504MOL0     C66409   6.229   5.484   1.507 -0.2972 -0.7528  0.0368
  504MOL0     C66410   6.108   5.578   1.490 -0.0510 -0.8560  0.2521
  504MOL0     C66411   6.079   5.640   1.621  0.0622  0.5516 -0.3993
  504MOL0     C66412   5.966   5.745   1.614 -0.3742 -0.7639 -0.8638
  504MOL0     N66413   5.838   5.694   1.587 -0.3872  1.0688 -0.1205
  504MOL0     C66414   5.742   5.658   1.675 -0.0884  0.7723 -0.6265
  504MOL0     C66415   5.643   5.608   1.592  0.0130  1.0497  0.4718
  504MOL0     C66416   5.518   5.523   1.630  0.2561 -0.3268 -0.4711
  504MOL0     C66417   5.461   5.573   1.764  0.2187 -0.6566  0.2248
  504MOL0     C66418   5.395   5.714   1.728 -0.3693  0.2597  0.4457
  504MOL0     C66419   5.321   5.785   1.838 -0.3867  0.0269  0.0847
  504MOL0     O66420   5.225   5.883   1.790 -0.1177 -0.2603 -0.0324
  504MOL0     C66421   5.105   5.889   1.856  0.1993 -0.1994  0.0826
  504MOL0     C66422   5.087   5.861   1.991  0.2878  1.0539 -0.2674
  504MOL0     C66423   4.958   5.876   2.047  0.2476  0.5104  0.1923
  504MOL0     C66424   4.844   5.893   1.966 -0.0832 -0.3533 -0.0766
  504MOL0     C66425   4.708   5.895   2.024 -0.0159  0.1648  0.4981
  504MOL0     O66426   4.608   5.890   1.921  0.0648 -1.0019 -0.3253
  504MOL0     C66427   4.478   5.850   1.950  0.0701 -1.3453  0.1921
  504MOL0     C66428   4.418   5.823   2.077 -0.8566 -0.6867 -0.0381
  504MOL0     C66429   4.291   5.779   2.096 -0.4810  0.0799  0.0726
  504MOL0     C66430   4.210   5.764   1.992  0.5773  0.0055  0.1044
  504MOL0     O66431   4.076   5.740   2.006 -0.4853 -0.1173  0.1945
  504MOL0     C66432   3.993   5.718   1.892 -0.7430  0.4876 -0.9929
  504MOL0     C66433   3.867   5.656   1.949  0.5949 -0.8642  0.2351
  504MOL0     C66434   3.760   5.649   1.836 -0.4454 -0.1541 -0.4760
  504MOL0     C66435   3.632   5.583   1.894  0.3958 -0.4626 -0.6125
  504MOL0     C66436   3.516   5.577   1.790 -0.7312 -0.8965 -0.5001
  504MOL0     C66437   3.393   5.512   1.852  0.3918 -0.1212  1.0922
  504MOL0     C66438   3.277   5.505   1.758  0.4104 -0.6883  0.3489
  504MOL0     C66439   3.151   5.477   1.827  0.7417  0.5183 -0.0404
  504MOL0    Cl66440   3.007   5.464   1.725  0.0540 -0.1604  0.1247
  504MOL0     C66441   4.264   5.798   1.864  0.8639  0.3783 -0.6349
  504MOL0     C66442   4.390   5.850   1.847 -0.5566 -0.0864  0.2774
  504MOL0     O66443   4.693   5.900   2.146 -0.7870  0.3456  0.1938
  504MOL0     C66444   4.863   5.920   1.824 -0.3206  0.4588  0.6861
  504MOL0     C66445   4.991   5.914   1.776 -0.7230 -0.1910  0.3246
  504MOL0     N66446   5.680   5.635   1.463  0.1394 -0.3960  0.1808
  504MOL0     N66447   5.801   5.677   1.461  0.1040 -0.2395  0.4567
  504MOL0     C66448   6.937   5.529   1.422  0.4202  0.8642  0.0564
  504MOL0     C66449   7.066   5.516   1.453  0.1554  0.5215 -0.5545
  504MOL0     C66450   7.438   5.278   1.625 -0.2293  0.0653  0.6267
  504MOL0     C66451   7.489   5.169   1.687 -0.3909 -0.0314  0.8150
  504MOL0     C66452   7.628   5.171   1.721 -0.3928 -0.5689 -1.2031
  504MOL0     C66453   7.716   5.281   1.685 -0.4118 -0.8191  0.0156
  504MOL0     O66454   7.854   5.283   1.700 -0.1308 -0.0299 -0.5515
  504MOL0     C66455   7.913   5.157   1.710  0.4418  0.2709  0.0916
  504MOL0     C66456   8.065   5.163   1.691 -0.0197  0.1934  0.4108
  504MOL0     C66457   8.110   5.208   1.546 -0.1840  0.9607 -1.0710
  504MOL0     C66458   8.257   5.166   1.527 -0.0644  0.6260  0.4245
  504MOL0     C66459   8.347   5.200   1.624 -0.1748 -0.6571 -0.3470
  504MOL0     C66460   8.426   5.243   1.701 -0.2931 -0.0943 -0.1599
  504MOL0     C66461   7.656   5.392   1.620  0.4078  0.7216  0.3439
  504MOL0     C66462   7.519   5.394   1.598  0.0139 -0.4040  0.5115
  504MOL0     H66463   7.082   5.173   1.461 -0.0932 -0.5156 -2.0711
  504MOL0     H66464   6.867   5.202   1.354 -1.4607  0.6254 -0.8506
  504MOL0     H66465   6.652   5.291   1.441  2.2410  1.9782  0.7541
  504MOL0     H66466   6.609   5.288   1.261  3.2448  0.3980 -1.3573
  504MOL0     H66467   6.503   5.499   1.299  2.1845 -1.4004 -0.8246
  504MOL0     H66468   6.522   5.471   1.479 -0.8408 -0.6589  0.3913
  504MOL0     H66469   6.387   5.268   1.477 -0.6473  1.4478  1.3491
  504MOL0     H66470   6.381   5.272   1.296 -3.0431  0.8097  0.1724
  504MOL0     H66471   6.248   5.467   1.287  0.3078 -0.1807 -1.1185
  504MOL0     H66472   6.173   5.329   1.376 -1.7399  1.0417  3.9916
  504MOL0     H66473   6.317   5.543   1.534 -1.2278  0.4637  0.4751
  504MOL0     H66474   6.199   5.412   1.584  3.0299 -2.0139  0.3307
  504MOL0     H66475   6.028   5.526   1.437 -0.7203  0.7068 -0.3411
  504MOL0     H66476   6.139   5.660   1.424  0.6698 -1.3881 -0.0887
  504MOL0     H66477   6.047   5.568   1.697 -1.9832 -0.0997 -1.7647
  504MOL0     H66478   6.169   5.688   1.659 -0.6420  2.1004 -0.5961
  504MOL0     H66479   5.979   5.832   1.548 -3.4467 -0.3399 -1.0730
  504MOL0     H66480   5.959   5.799   1.709  1.9406  1.8590 -2.0317
  504MOL0     H66481   5.737   5.629   1.780  0.9600 -2.5483 -1.4024
  504MOL0     H66482   5.549   5.418   1.640 -1.1979 -0.6640  0.9892
  504MOL0     H66483   5.441   5.531   1.553 -1.0872 -1.3739  0.6985
  504MOL0     H66484   5.543   5.584   1.835 -0.7746 -1.3185  1.4982
  504MOL0     H66485   5.381   5.508   1.800 -0.7228  1.1150  1.4802
  504MOL0     H66486   5.464   5.782   1.677  0.5445 -0.6083  0.4944
  504MOL0     H66487   5.316   5.703   1.653  1.1061 -2.1214 -0.8976
  504MOL0     H66488   5.401   5.845   1.884  0.1091  0.7517 -1.6360
  504MOL0     H66489   5.280   5.702   1.896  0.6994  0.3178  1.2990
  504MOL0     H66490   5.161   5.824   2.062 -1.4236 -0.1753  0.9501
  504MOL0     H66491   4.947   5.861   2.154  1.2297  1.0666  0.3844
  504MOL0     H66492   4.466   5.814   2.174 -1.1416 -2.7690 -0.0542
  504MOL0     H66493   4.261   5.754   2.197  0.6612 -1.6950  0.0238
  504MOL0     H66494   4.032   5.638   1.829 -1.1354 -0.5949  0.1093
  504MOL0     H66495   3.959   5.804   1.832 -1.4395 -0.3587 -1.8568
  504MOL0     H66496   3.827   5.720   2.029 -3.9709 -3.3995  0.2716
  504MOL0     H66497   3.888   5.557   1.991  1.3015 -0.1251  1.7387
  504MOL0     H66498   3.796   5.594   1.749 -1.7088  0.7096 -1.5701
  504MOL0     H66499   3.745   5.751   1.800  0.1308  0.1758  0.1883
  504MOL0     H66500   3.646   5.478   1.921 -1.8988 -0.6173  0.2040
  504MOL0     H66501   3.607   5.630   1.989  0.8222  0.3039 -0.8749
  504MOL0     H66502   3.531   5.528   1.693  0.7821  1.2958 -1.4674
  504MOL0     H66503   3.483   5.680   1.769 -0.5899 -0.6424  0.4916
  504MOL0     H66504   3.360   5.563   1.943  2.8342  0.7744  1.5674
  504MOL0     H66505   3.418   5.409   1.879 -3.6439 -1.4173  0.5296
  504MOL0     H66506   3.277   5.598   1.700 -0.3437 -1.4035 -0.8160
  504MOL0     H66507   3.290   5.424   1.687  1.8227 -1.3777  1.3447
  504MOL0     H66508   3.140   5.553   1.904  0.8576  2.5668 -1.9488
  504MOL0     H66509   3.163   5.385   1.885  2.2278  0.0691 -1.0031
  504MOL0     H66510   4.203   5.791   1.775 -1.2534 -0.0460  0.7813
  504MOL0     H66511   4.421   5.887   1.749  1.0017 -1.3876  0.2457
  504MOL0     H66512   4.786   5.941   1.751 -0.6610 -1.8205  0.3197
  504MOL0     H66513   5.016   5.933   1.672 -1.8206 -0.8249 -0.0722
  504MOL0     H66514   6.889   5.626   1.425 -0.4516  0.4170  0.8745
  504MOL0     H66515   7.118   5.604   1.493 -2.9799  0.2343  5.3301
  504MOL0     H66516   7.426   5.083   1.707 -1.1291  0.7289  1.8857
  504MOL0     H66517   7.669   5.086   1.775 -0.6225 -0.6721 -1.1912
  504MOL0     H66518   7.871   5.077   1.649 -2.7788 -0.2328  2.6954
  504MOL0     H66519   7.896   5.115   1.810 -1.2599 -3.3246 -1.5519
  504MOL0     H66520   8.107   5.241   1.755 -0.0648  2.2430 -1.9114
  504MOL0     H66521   8.105   5.064   1.715 -1.3866 -0.5259 -0.1668
  504MOL0     H66522   8.093   5.315   1.529 -0.4247  1.1406  0.1805
  504MOL0     H66523   8.042   5.156   1.478  0.3568  1.1671 -1.7801
  504MOL0     H66524   8.254   5.057   1.524  2.3265  0.4905  0.8722
  504MOL0     H66525   8.289   5.196   1.427 -0.3320 -2.0902 -0.5685
  504MOL0     H66526   8.495   5.290   1.768 -1.1328  1.7977 -0.5561
  504MOL0     H66527   7.712   5.483   1.598 -1.2113  1.7866  0.4546
  504MOL0     H66528   7.476   5.476   1.541  0.4904 -1.1923 -1.0484
  505MOL0     O66529   4.624   7.792   3.923  0.2283  0.2246 -0.2642
  505MOL0     C66530   4.667   7.800   4.040  0.1769 -0.8168  0.0414
  505MOL0     O66531   4.594   7.815   4.153  0.4489  0.3886 -0.0808
  505MOL0     C66532   4.458   7.805   4.155  0.0621 -0.2120 -1.2179
  505MOL0     C66533   4.400   7.882   4.257 -1.0503  0.5766  0.3658
  505MOL0     C66534   4.265   7.878   4.268  0.7275 -0.5834 -0.6167
  505MOL0     C66535   4.183   7.798   4.182 -0.6660 -0.7824 -0.0204
  505MOL0     O66536   4.043   7.799   4.189 -0.0656 -0.1123  0.0413
  505MOL0     C66537   3.967   7.676   4.163 -0.2543  0.4484  0.3409
  505MOL0     C66538   3.877   7.678   4.282 -0.3851 -0.2614 -0.0519
  505MOL0     C66539   3.762   7.578   4.253 -0.3892 -0.4689  1.0558
  505MOL0     C66540   3.669   7.573   4.367 -0.4216 -0.1811  0.3723
  505MOL0     C66541   3.560   7.467   4.341 -0.7259 -0.0224 -0.1758
  505MOL0     C66542   3.457   7.464   4.445 -0.0511  0.9479 -0.1437
  505MOL0     C66543   3.379   7.331   4.429 -0.1885  0.3793  0.0834
  505MOL0     C66544   3.245   7.341   4.508  0.9241 -0.6255  0.7181
  505MOL0     N66545   3.166   7.216   4.509  0.0298  0.6719 -0.1396
  505MOL0     C66546   3.171   7.108   4.432 -0.1925  0.0180  0.9525
  505MOL0     C66547   3.093   7.009   4.483  0.0727 -0.1818  0.2281
  505MOL0     C66548   3.053   6.875   4.436 -0.4802  0.3528 -0.0682
  505MOL0     C66549   2.905   6.862   4.438  0.3062  0.6347 -0.0986
  505MOL0     C66550   2.831   6.962   4.347 -0.1728  0.2028 -0.2088
  505MOL0     C66551   2.681   6.934   4.333 -0.6710 -0.5763 -0.3554
  505MOL0     O66552   2.605   7.016   4.425 -0.7299 -0.4592  0.0651
  505MOL0     C66553   2.471   7.008   4.411  0.4070  0.2310 -0.1106
  505MOL0     C66554   2.397   6.948   4.310 -0.5398 -1.3036  0.9048
  505MOL0     C66555   2.261   6.955   4.307  0.3270 -0.3648 -0.5554
  505MOL0     C66556   2.187   7.024   4.408  0.0147  0.6253 -0.0417
  505MOL0     C66557   2.043   7.047   4.397 -0.5787 -0.2047  0.3355
  505MOL0     O66558   1.970   6.954   4.325 -0.5181 -0.3256  0.1499
  505MOL0     C66559   1.833   6.956   4.310 -0.0084 -0.1922  0.1871
  505MOL0     C66560   1.734   6.992   4.406  0.7487 -0.3692 -0.1573
  505MOL0     C66561   1.600   6.992   4.375 -0.0864  0.5657 -0.1126
  505MOL0     C66562   1.549   6.954   4.250 -0.2042  0.1757 -0.7254
  505MOL0     O66563   1.417   6.952   4.221 -0.6019  0.1400  0.5351
  505MOL0     C66564   1.339   6.864   4.304  0.0962  0.4983 -0.4109
  505MOL0     C66565   1.262   6.773   4.198  0.0886  1.0822 -0.8108
  505MOL0     C66566   1.130   6.707   4.264 -0.1818  0.6353 -0.4614
  505MOL0     C66567   1.034   6.639   4.160 -0.3848  0.5988 -0.3321
  505MOL0     C66568   0.883   6.627   4.211  0.5103 -0.2170  1.1529
  505MOL0     C66569   0.798   6.760   4.230 -0.1359  0.4569  0.1545
  505MOL0     C66570   0.792   6.836   4.097 -0.5399 -1.2451  0.2011
  505MOL0     C66571   0.656   6.909   4.093  0.3344  0.4052  0.5800
  505MOL0    Cl66572   0.654   7.012   4.235 -0.0410  0.2303 -0.3752
  505MOL0     C66573   1.649   6.927   4.154  0.2010 -0.1252 -0.3960
  505MOL0     C66574   1.787   6.921   4.182  0.4101  0.8055 -0.1255
  505MOL0     O66575   1.993   7.140   4.459  0.0937  0.0483  0.7208
  505MOL0     C66576   2.262   7.069   4.514 -0.7161 -0.5081  0.3647
  505MOL0     C66577   2.404   7.066   4.512  0.3537 -0.0332  0.9167
  505MOL0     N66578   3.050   7.062   4.606  0.3229 -0.9913 -0.4936
  505MOL0     N66579   3.097   7.177   4.616 -0.1590  0.8571 -0.0264
  505MOL0     C66580   4.247   7.713   4.093  0.0633  0.0781 -0.8112
  505MOL0     C66581   4.390   7.713   4.078  0.7844  1.2731 -0.2947
  505MOL0     C66582   4.813   7.804   4.068 -0.3273  0.8949  0.6802
  505MOL0     C66583   4.902   7.842   3.966 -0.4448 -0.7021  0.1132
  505MOL0     C66584   5.038   7.820   3.976 -0.5502  0.0808 -0.2850
  505MOL0     C66585   5.091   7.788   4.100 -1.0321  0.1133 -0.6705
  505MOL0     O66586   5.227   7.768   4.117  0.1504 -0.4151 -0.0911
  505MOL0     C66587   5.320   7.875   4.080 -0.4648  0.1215  0.0252
  505MOL0     C66588   5.466   7.846   4.119  0.6350 -0.2458 -0.3767
  505MOL0     C66589   5.548   7.760   4.020  0.3965  0.1069  0.3071
  505MOL0     C66590   5.686   7.717   4.085  0.0711 -0.9189 -0.0791
  505MOL0     C66591   5.770   7.833   4.096 -0.5468 -0.2930  0.1780
  505MOL0     C66592   5.842   7.928   4.094  0.7237  0.1206  0.2574
  505MOL0     C66593   5.007   7.763   4.209  0.1673  0.1853  0.2586
  505MOL0     C66594   4.871   7.766   4.192  0.8002 -0.0374  0.8297
  505MOL0     H66595   4.459   7.947   4.322 -1.9865 -0.3089  2.1721
  505MOL0     H66596   4.221   7.941   4.345  0.1334 -1.4552 -0.2221
  505MOL0     H66597   4.027   7.585   4.165 -0.1086  0.5102 -0.6135
  505MOL0     H66598   3.903   7.680   4.074 -0.5516 -0.7151  0.4935
  505MOL0     H66599   3.837   7.778   4.301  3.9061  1.7494 -0.1657
  505MOL0     H66600   3.922   7.649   4.377 -4.9191 -2.3792  1.6779
  505MOL0     H66601   3.793   7.478   4.222  0.6356  0.2367 -0.2984
  505MOL0     H66602   3.704   7.618   4.169 -1.4945  2.7903  3.1727
  505MOL0     H66603   3.723   7.551   4.460  0.9686  0.1829 -0.3160
  505MOL0     H66604   3.619   7.670   4.380  2.2111  1.3389 -0.0130
  505MOL0     H66605   3.607   7.368   4.329 -0.4731  0.1989 -1.1214
  505MOL0     H66606   3.514   7.488   4.244 -0.3548  0.7571 -0.1855
  505MOL0     H66607   3.387   7.548   4.451 -0.9180  0.2234 -0.0230
  505MOL0     H66608   3.514   7.454   4.538  0.8111 -0.7453 -0.8201
  505MOL0     H66609   3.349   7.315   4.325 -0.7112 -0.8057  0.4080
  505MOL0     H66610   3.433   7.241   4.459 -3.0922 -2.5437 -2.7244
  505MOL0     H66611   3.180   7.417   4.463  0.9673 -1.5639 -1.0105
  505MOL0     H66612   3.264   7.375   4.610 -1.6643  0.8233  0.8031
  505MOL0     H66613   3.229   7.089   4.343  2.3411  0.3199  2.4392
  505MOL0     H66614   3.096   6.800   4.502 -0.5649 -1.2310 -1.7235
  505MOL0     H66615   3.094   6.853   4.336  2.0382  1.2984  0.6852
  505MOL0     H66616   2.867   6.866   4.541 -0.4136 -2.2241 -0.1817
  505MOL0     H66617   2.873   6.762   4.410 -2.2871  0.4343  2.9594
  505MOL0     H66618   2.842   7.061   4.394  1.2347  0.2340 -0.5732
  505MOL0     H66619   2.874   6.957   4.246 -1.9240  0.3655 -1.0196
  505MOL0     H66620   2.658   6.831   4.359  0.8066 -0.7857  0.2313
  505MOL0     H66621   2.657   6.953   4.227 -2.8032 -1.2672 -0.0509
  505MOL0     H66622   2.451   6.913   4.223  0.5969 -2.7306  2.1223
  505MOL0     H66623   2.212   6.917   4.218 -1.7095  0.3180  0.2207
  505MOL0     H66624   1.758   7.013   4.509  2.4764 -2.7966 -0.0043
  505MOL0     H66625   1.529   7.013   4.455 -1.5579  3.5571 -2.0417
  505MOL0     H66626   1.271   6.921   4.368  1.8158 -0.1509  2.1737
  505MOL0     H66627   1.388   6.801   4.379 -4.0963 -0.0349  2.2436
  505MOL0     H66628   1.329   6.696   4.161  1.3010  1.4327  0.5854
  505MOL0     H66629   1.216   6.838   4.123 -1.8454  2.7824  1.6308
  505MOL0     H66630   1.069   6.785   4.311 -2.4925 -0.8293 -0.8332
  505MOL0     H66631   1.155   6.628   4.335 -1.7380 -0.5306 -1.1458
  505MOL0     H66632   1.039   6.702   4.071  0.0920 -0.9957 -1.4861
  505MOL0     H66633   1.074   6.543   4.126  0.6449  1.1184 -0.6202
  505MOL0     H66634   0.898   6.567   4.302  3.3382 -2.0589 -0.3741
  505MOL0     H66635   0.829   6.571   4.133  0.6474  2.6319 -1.1576
  505MOL0     H66636   0.842   6.813   4.316 -1.2843  1.9509 -0.1438
  505MOL0     H66637   0.695   6.744   4.261 -0.8262  2.5792 -0.8310
  505MOL0     H66638   0.867   6.916   4.096 -1.2982 -0.4608  2.1901
  505MOL0     H66639   0.795   6.774   4.007 -0.0630  1.9271 -2.1483
  505MOL0     H66640   0.565   6.849   4.091 -0.0620  1.0121  0.2790
  505MOL0     H66641   0.654   6.976   4.007  3.4624 -1.0336 -0.8030
  505MOL0     H66642   1.607   6.906   4.056 -2.4484  2.2262  0.0793
  505MOL0     H66643   1.842   6.894   4.093 -0.8628  1.1322 -1.0429
  505MOL0     H66644   2.204   7.105   4.598 -1.3750  0.1226 -0.3434
  505MOL0     H66645   2.469   7.106   4.589  1.4543  1.2413 -0.6235
  505MOL0     H66646   4.201   7.642   4.024  0.7901 -1.5997  0.3532
  505MOL0     H66647   4.438   7.654   4.001 -0.5267  0.0630 -0.2334
  505MOL0     H66648   4.864   7.866   3.867 -1.2202 -0.3654  0.4832
  505MOL0     H66649   5.108   7.845   3.897 -1.0258  0.6330 -0.5403
  505MOL0     H66650   5.282   7.957   4.141 -1.6130 -1.4819  1.5795
  505MOL0     H66651   5.309   7.891   3.973 -2.8734  0.9695  0.3372
  505MOL0     H66652   5.518   7.939   4.147 -0.3527 -0.5564  2.9450
  505MOL0     H66653   5.462   7.784   4.209 -4.5680 -1.3407 -1.0496
  505MOL0     H66654   5.563   7.822   3.931 -0.3446  2.2319  1.6120
  505MOL0     H66655   5.494   7.667   3.998 -1.7922  0.9241  2.0220
  505MOL0     H66656   5.670   7.679   4.186 -2.9588 -3.5784 -1.3905
  505MOL0     H66657   5.738   7.645   4.022 -1.0208  0.9665 -3.3880
  505MOL0     H66658   5.916   8.004   4.105  2.1192 -0.8772 -1.6508
  505MOL0     H66659   5.052   7.727   4.301 -2.6658 -2.6566  0.7247
  505MOL0     H66660   4.800   7.733   4.267 -0.8701 -0.6929 -0.9714
  506MOL0     O66661   4.794   0.618   0.849 -0.6793  0.0320  0.1221
  506MOL0     C66662   4.805   0.686   0.744  0.1541 -0.4062  0.5584
  506MOL0     O66663   4.698   0.729   0.666 -0.4591  0.3256  0.1851
  506MOL0     C66664   4.562   0.713   0.689  0.7086  1.1786 -1.0793
  506MOL0     C66665   4.495   0.652   0.801  0.3875 -0.4389 -0.2758
  506MOL0     C66666   4.357   0.643   0.802  0.8191  0.0760 -0.8166
  506MOL0     C66667   4.281   0.693   0.702  0.6142  0.1963  0.1406
  506MOL0     O66668   4.144   0.673   0.704  0.0290  0.0474  0.6537
  506MOL0     C66669   4.100   0.538   0.728 -0.8241 -0.1574  0.4441
  506MOL0     C66670   3.966   0.542   0.800  0.3573  0.6533  0.0652
  506MOL0     C66671   3.986   0.589   0.948 -0.8240 -0.1470  0.8559
  506MOL0     C66672   3.853   0.587   1.013 -0.1624 -0.3174 -0.9268
  506MOL0     C66673   3.767   0.711   0.961 -0.2292 -0.0154 -0.2864
  506MOL0     C66674   3.644   0.733   1.052  0.0108 -0.0981  0.0834
  506MOL0     C66675   3.548   0.852   1.013  0.8413 -0.2760 -0.2117
  506MOL0     C66676   3.416   0.851   1.092 -0.2423 -0.5293 -0.3275
  506MOL0     N66677   3.305   0.826   1.008 -0.5480  0.0609  0.0475
  506MOL0     C66678   3.249   0.916   0.918  0.6437  0.0812  1.2120
  506MOL0     C66679   3.151   0.848   0.861  0.3305  0.4392  0.2893
  506MOL0     C66680   3.039   0.896   0.770  0.1327  0.3383 -0.1588
  506MOL0     C66681   2.907   0.942   0.849 -0.1559 -0.9853  0.7784
  506MOL0     C66682   2.835   0.830   0.928 -0.1709 -0.1974  0.3021
  506MOL0     C66683   2.714   0.879   1.003  0.0375 -0.5066 -0.0028
  506MOL0     O66684   2.630   0.925   0.897 -0.3258 -0.2525  0.8639
  506MOL0     C66685   2.494   0.951   0.916 -0.7372  0.3413 -0.6042
  506MOL0     C66686   2.429   1.005   0.808  0.1826 -0.3789  0.1096
  506MOL0     C66687   2.291   1.033   0.809  0.0154 -0.6738  0.1199
  506MOL0     C66688   2.218   1.020   0.915  0.6766 -0.1467 -0.3893
  506MOL0     C66689   2.074   1.059   0.921 -0.2357 -0.9897 -0.0552
  506MOL0     O66690   2.005   1.033   1.033 -0.4079 -0.2334 -0.5149
  506MOL0     C66691   1.869   1.011   1.046 -0.4035 -0.4066 -0.6642
  506MOL0     C66692   1.834   1.003   1.181  0.7736  0.2064 -0.2094
  506MOL0     C66693   1.700   0.973   1.218  0.4108 -0.2911 -0.4678
  506MOL0     C66694   1.596   0.960   1.127 -0.0389  0.2762  0.5826
  506MOL0     O66695   1.471   0.915   1.157  0.1681  0.7584 -0.2607
  506MOL0     C66696   1.418   0.917   1.291  0.6365 -0.5480 -0.0276
  506MOL0     C66697   1.383   1.069   1.324 -0.1985  0.1596  0.6000
  506MOL0     C66698   1.302   1.146   1.215  0.4540  0.2800 -0.3817
  506MOL0     C66699   1.163   1.062   1.211  0.2602 -0.7207 -0.0616
  506MOL0     C66700   1.050   1.151   1.154  0.3040 -0.2542  0.6255
  506MOL0     C66701   0.936   1.059   1.099 -0.4713  0.5244 -0.2936
  506MOL0     C66702   0.799   1.131   1.072 -0.9935 -0.3835  0.7536
  506MOL0     C66703   0.719   1.183   1.196 -0.2563 -0.5741  0.0286
  506MOL0    Cl66704   0.673   1.030   1.268  0.1523  0.4974 -0.4960
  506MOL0     C66705   1.638   0.958   0.992 -0.5815  0.3424  0.1896
  506MOL0     C66706   1.774   0.991   0.952  0.8596 -0.5090 -0.3522
  506MOL0     O66707   2.024   1.128   0.827  0.2248  0.0452  0.1352
  506MOL0     C66708   2.291   0.964   1.033  0.1507  1.1888 -0.0934
  506MOL0     C66709   2.421   0.926   1.029 -0.0154 -0.2825  0.0015
  506MOL0     N66710   3.155   0.713   0.903 -0.8187  0.6681  0.0717
  506MOL0     N66711   3.257   0.703   0.987  0.1857 -0.5557 -0.2901
  506MOL0     C66712   4.336   0.766   0.604 -0.4278 -0.3291 -0.6314
  506MOL0     C66713   4.480   0.771   0.594  0.8763 -0.0342  0.4332
  506MOL0     C66714   4.940   0.729   0.701  0.3277  0.3918 -0.3469
  506MOL0     C66715   5.056   0.688   0.777 -0.6039  0.2501 -0.6830
  506MOL0     C66716   5.188   0.726   0.747  0.4320 -0.5807  0.9666
  506MOL0     C66717   5.201   0.827   0.643  0.7246  0.1514  0.7092
  506MOL0     O66718   5.325   0.876   0.597  0.0803  0.5411 -0.5025
  506MOL0     C66719   5.434   0.859   0.690 -0.4635  0.1606  1.3258
  506MOL0     C66720   5.566   0.911   0.629 -0.2456  0.7697 -0.1047
  506MOL0     C66721   5.596   0.825   0.502 -0.4400  0.2662  0.7659
  506MOL0     C66722   5.735   0.862   0.448  0.0258  0.2004  0.1002
  506MOL0     C66723   5.810   0.739   0.411  0.8943  0.0824 -0.5519
  506MOL0     C66724   5.863   0.644   0.364  0.0078 -0.2391  0.4955
  506MOL0     C66725   5.089   0.863   0.562 -0.7790  0.2661  0.0653
  506MOL0     C66726   4.960   0.821   0.596 -0.5667  0.8655  0.2933
  506MOL0     H66727   4.559   0.615   0.880  5.1271  2.6533 -2.2337
  506MOL0     H66728   4.317   0.579   0.881 -0.3173  2.5763  0.7485
  506MOL0     H66729   4.157   0.468   0.790 -1.5922  0.9494  2.5083
  506MOL0     H66730   4.088   0.501   0.626 -1.0099 -0.0871  0.4402
  506MOL0     H66731   3.939   0.436   0.801  0.8614  0.4746  2.8136
  506MOL0     H66732   3.899   0.609   0.745 -0.6960  0.3354  0.9246
  506MOL0     H66733   4.028   0.689   0.961  0.5884 -0.7619  1.2596
  506MOL0     H66734   4.047   0.516   1.002  1.8964 -0.3184 -2.1194
  506MOL0     H66735   3.787   0.501   0.996 -0.6657 -0.3680  1.0124
  506MOL0     H66736   3.874   0.608   1.118  0.0616  4.3303 -1.6853
  506MOL0     H66737   3.741   0.697   0.856 -0.8840  0.9676 -0.2727
  506MOL0     H66738   3.829   0.802   0.963  2.9990 -2.0391 -0.5243
  506MOL0     H66739   3.683   0.757   1.151  0.3441  3.9796 -0.8358
  506MOL0     H66740   3.584   0.642   1.053 -1.1090  0.5606 -1.4857
  506MOL0     H66741   3.597   0.948   1.028 -1.3416  0.8864 -0.1966
  506MOL0     H66742   3.525   0.835   0.907  0.6932 -2.2056  0.0816
  506MOL0     H66743   3.408   0.937   1.159 -2.1012 -0.7713 -0.1862
  506MOL0     H66744   3.417   0.771   1.167  0.9549  1.6406  2.1440
  506MOL0     H66745   3.267   1.022   0.904 -2.7471  0.5843 -0.4850
  506MOL0     H66746   3.009   0.811   0.707  3.0103  0.3564 -1.7110
  506MOL0     H66747   3.075   0.966   0.695 -0.2603 -0.4995 -1.1630
  506MOL0     H66748   2.842   0.974   0.767 -0.4114 -2.8557  0.2033
  506MOL0     H66749   2.930   1.029   0.911  0.6450  0.0085 -0.8444
  506MOL0     H66750   2.821   0.754   0.851  3.4021 -1.8601  1.0708
  506MOL0     H66751   2.916   0.791   0.991  0.7839 -0.7147 -1.1757
  506MOL0     H66752   2.740   0.949   1.082 -0.6729 -0.5054  0.2391
  506MOL0     H66753   2.669   0.791   1.051 -0.4988  0.1118  0.6502
  506MOL0     H66754   2.483   1.031   0.718 -0.8969  1.8846  0.0501
  506MOL0     H66755   2.241   1.064   0.718  0.7340 -0.5242 -0.2341
  506MOL0     H66756   1.912   1.013   1.256  1.7785 -1.5825 -0.9525
  506MOL0     H66757   1.688   0.952   1.324  0.3483 -2.1241 -0.8071
  506MOL0     H66758   1.487   0.877   1.366  2.0915  0.8206 -0.5687
  506MOL0     H66759   1.326   0.857   1.290 -1.5821  2.5538  1.2611
  506MOL0     H66760   1.481   1.114   1.341  0.9545 -2.2362  0.6914
  506MOL0     H66761   1.333   1.076   1.421 -1.2512  1.0527  0.0255
  506MOL0     H66762   1.345   1.138   1.115 -0.2269  0.9307 -0.7324
  506MOL0     H66763   1.274   1.249   1.238 -0.4262 -0.1993  0.7876
  506MOL0     H66764   1.176   0.962   1.168  3.1851 -0.6504  0.4284
  506MOL0     H66765   1.135   1.036   1.313 -0.1616  0.1610  0.0527
  506MOL0     H66766   1.090   1.212   1.072  0.3696  2.8691  2.7767
  506MOL0     H66767   1.016   1.226   1.227  0.7349  1.2341 -0.6472
  506MOL0     H66768   0.909   0.973   1.161 -0.2450  0.7104  0.0624
  506MOL0     H66769   0.968   1.013   1.005 -2.2724 -1.7741  0.1144
  506MOL0     H66770   0.820   1.212   1.002  1.2389 -2.8607 -1.6958
  506MOL0     H66771   0.733   1.055   1.029 -1.5139 -1.4758  3.2785
  506MOL0     H66772   0.639   1.255   1.179 -0.2154 -0.3204  0.8403
  506MOL0     H66773   0.777   1.249   1.262  0.0502 -1.2301  0.4228
  506MOL0     H66774   1.575   0.936   0.906  0.6787  2.2691 -1.2967
  506MOL0     H66775   1.811   0.986   0.850  0.8556  1.2495 -0.4659
  506MOL0     H66776   2.234   0.944   1.124  0.4841 -0.0135 -0.1360
  506MOL0     H66777   2.478   0.892   1.115  3.3375  0.9405 -1.5385
  506MOL0     H66778   4.266   0.803   0.529 -4.0109 -1.0447  2.0812
  506MOL0     H66779   4.530   0.814   0.508  1.4608  0.8392  1.1943
  506MOL0     H66780   5.044   0.625   0.865 -1.5329 -0.3498 -1.2281
  506MOL0     H66781   5.254   0.697   0.828 -0.7104  0.4285  2.3073
  506MOL0     H66782   5.454   0.756   0.723  0.7438  0.8777  2.9809
  506MOL0     H66783   5.409   0.921   0.776 -0.5040 -0.3925  1.7236
  506MOL0     H66784   5.545   1.013   0.598 -0.9758  0.2692 -1.3131
  506MOL0     H66785   5.649   0.895   0.699  1.1220 -2.5350 -2.2484
  506MOL0     H66786   5.512   0.838   0.433  0.3408  1.0430 -0.0510
  506MOL0     H66787   5.587   0.718   0.521  0.1272  0.3857  1.7821
  506MOL0     H66788   5.711   0.924   0.361  1.0515  0.4600 -0.0123
  506MOL0     H66789   5.791   0.927   0.515 -3.4124  2.6045  0.8904
  506MOL0     H66790   5.903   0.553   0.323 -0.2060 -0.4969  0.8474
  506MOL0     H66791   5.104   0.922   0.472  1.1956 -1.1347 -0.6032
  506MOL0     H66792   4.876   0.863   0.541  0.7583  0.6118 -2.0328
  507MOL0     O66793   0.133   9.770  11.085 -0.2940 -0.5611  0.3086
  507MOL0     C66794   0.116   9.679  11.009 -0.3514 -0.1681  0.4645
  507MOL0     O66795   0.220   9.608  10.956 -0.6407 -0.0310 -0.0313
  507MOL0     C66796   0.356   9.637  10.963 -0.6671 -0.3238  0.4054
  507MOL0     C66797   0.424   9.749  11.014  0.6768 -0.5245  0.9386
  507MOL0     C66798   0.560   9.777  11.012 -0.2120 -0.2236  0.3050
  507MOL0     C66799   0.654   9.682  10.983  0.3484  0.2001  0.3248
  507MOL0     O66800   0.785   9.697  10.974 -0.1491  0.0078 -0.1827
  507MOL0     C66801   0.847   9.731  11.093  0.2565 -0.8299  0.3513
  507MOL0     C66802   0.995   9.739  11.088 -0.3906 -0.0080  0.3477
  507MOL0     C66803   1.039   9.842  10.981  0.5276  0.5873 -0.2520
  507MOL0     C66804   1.189   9.864  11.011 -0.2701  0.9384  0.2633
  507MOL0     C66805   1.240   9.953  10.901  0.1879 -0.1155  0.5066
  507MOL0     C66806   1.392   9.980  10.921 -0.7742  0.6589 -0.0161
  507MOL0     C66807   1.460  10.086  10.844  0.1079 -0.4715  0.1044
  507MOL0     C66808   1.466  10.071  10.693 -0.0021  0.1552 -0.2467
  507MOL0     N66809   1.527   9.946  10.662  0.3016 -0.0906  1.2015
  507MOL0     C66810   1.474   9.833  10.604  0.6521  0.0819 -0.6057
  507MOL0     C66811   1.578   9.751  10.576  0.3562  0.0978 -0.0905
  507MOL0     C66812   1.567   9.629  10.495  0.3355  0.5704 -0.2887
  507MOL0     C66813   1.641   9.632  10.355  0.5566  0.6064 -0.4567
  507MOL0     C66814   1.575   9.727  10.252 -0.3658 -0.3987 -0.2354
  507MOL0     C66815   1.683   9.807  10.190  0.0059 -0.0560 -0.5509
  507MOL0     O66816   1.630   9.916  10.099 -0.0814  0.6667 -0.0946
  507MOL0     C66817   1.726  10.000  10.039 -0.0594  0.4044 -0.4718
  507MOL0     C66818   1.670  10.110   9.974  0.6201  0.7395 -0.3796
  507MOL0     C66819   1.751  10.197   9.903 -0.0287 -0.5695  0.1497
  507MOL0     C66820   1.898  10.177   9.897 -0.3652 -0.1222 -0.2890
  507MOL0     C66821   1.996  10.267   9.825  0.0537 -1.3416  0.3958
  507MOL0     O66822   2.127  10.273   9.866  0.4747  0.2144 -0.4078
  507MOL0     C66823   2.222  10.318   9.787 -0.2555 -0.1053  0.5012
  507MOL0     C66824   2.225  10.433   9.719  0.0617 -0.7390 -0.2481
  507MOL0     C66825   2.349  10.496   9.687 -1.1185 -0.1067  0.0085
  507MOL0     C66826   2.469  10.436   9.718  0.3967 -0.8863  0.5007
  507MOL0     O66827   2.586  10.506   9.675  0.3966  0.3656 -0.5117
  507MOL0     C66828   2.718  10.459   9.702 -0.8513 -0.1964 -0.0188
  507MOL0     C66829   2.773  10.361   9.595  0.8494  0.0058  0.4930
  507MOL0     C66830   2.910  10.313   9.635 -0.1490  0.4693  0.6305
  507MOL0     C66831   2.968  10.210   9.535  0.8011  0.3322  0.9842
  507MOL0     C66832   3.119  10.180   9.551 -0.5194  0.9256  0.2610
  507MOL0     C66833   3.182  10.090   9.439 -0.2892 -0.0369 -0.0396
  507MOL0     C66834   3.319  10.027   9.485 -0.0109 -0.1057 -1.4542
  507MOL0     C66835   3.428  10.010   9.375  0.4596 -0.0385 -0.0114
  507MOL0    Cl66836   3.527  10.159   9.345  0.1873  0.1509 -0.3059
  507MOL0     C66837   2.468  10.308   9.786  0.7218  0.3981  1.0067
  507MOL0     C66838   2.343  10.253   9.817  0.6865  0.0749  0.2265
  507MOL0     O66839   1.947  10.319   9.722  0.7524  0.1356 -0.6556
  507MOL0     C66840   1.953  10.068   9.967 -0.6495  0.9262 -0.3274
  507MOL0     C66841   1.864   9.982  10.029 -0.0210 -0.0946  0.1750
  507MOL0     N66842   1.695   9.804  10.641  0.8323 -0.0774  0.7080
  507MOL0     N66843   1.664   9.927  10.685  0.5939  0.4774  0.0524
  507MOL0     C66844   0.602   9.558  10.942  0.0256  0.7456  0.5998
  507MOL0     C66845   0.457   9.540  10.930  0.6450  1.0074  0.0717
  507MOL0     C66846  -0.021   9.632  10.977 -0.4808 -0.5445  0.6128
  507MOL0     C66847  -0.045   9.502  10.927  0.0511 -0.7674 -0.0190
  507MOL0     C66848  -0.176   9.459  10.899  0.2310 -0.4208  0.1061
  507MOL0     C66849  -0.283   9.546  10.912  0.5224 -0.3496  0.0191
  507MOL0     O66850  -0.415   9.530  10.886 -0.1177 -0.6046  0.1137
  507MOL0     C66851  -0.452   9.393  10.903  0.5336 -0.1959  0.1576
  507MOL0     C66852  -0.600   9.383  10.952 -0.0452  0.2047 -0.1909
  507MOL0     C66853  -0.694   9.452  10.856 -0.0251 -0.0599  1.0822
  507MOL0     C66854  -0.836   9.414  10.900  0.3470 -0.6257 -0.0471
  507MOL0     C66855  -0.870   9.454  11.031  0.0741  0.6921  0.2444
  507MOL0     C66856  -0.903   9.489  11.144  0.0221  0.8507  0.0265
  507MOL0     C66857  -0.264   9.678  10.946 -0.4014 -0.4436  0.2389
  507MOL0     C66858  -0.129   9.718  10.987  0.9801  0.0833 -0.4181
  507MOL0     H66859   0.355   9.827  11.047  0.4883 -1.4382  2.8061
  507MOL0     H66860   0.599   9.877  11.028  0.1465 -0.1741 -0.8172
  507MOL0     H66861   0.818   9.648  11.158 -1.3240  1.8907  3.4425
  507MOL0     H66862   0.804   9.820  11.141 -0.5063  0.0737 -1.8955
  507MOL0     H66863   1.029   9.643  11.047 -1.7200 -0.0761 -0.6887
  507MOL0     H66864   1.033   9.770  11.185  0.5279  0.4886 -0.1620
  507MOL0     H66865   0.981   9.934  10.985  2.8438  2.1387 -0.1564
  507MOL0     H66866   1.027   9.802  10.880  4.9720  0.4296 -0.9303
  507MOL0     H66867   1.214   9.893  11.113 -1.1540 -1.1582  1.1208
  507MOL0     H66868   1.243   9.769  11.014 -0.1007  0.9834 -0.9606
  507MOL0     H66869   1.186  10.048  10.908 -1.6407 -1.1236  0.5905
  507MOL0     H66870   1.217   9.925  10.798 -0.5855  0.7134  0.4419
  507MOL0     H66871   1.453   9.890  10.920  0.2598  1.3352  0.0752
  507MOL0     H66872   1.386  10.010  11.026 -0.7694 -1.3152  0.5882
  507MOL0     H66873   1.409  10.178  10.875  3.5209  1.5244  0.3132
  507MOL0     H66874   1.561  10.107  10.881  0.5561  0.5673 -1.5832
  507MOL0     H66875   1.529  10.151  10.653  0.2858 -0.4643 -1.0779
  507MOL0     H66876   1.371  10.073  10.640  0.0682  1.6696 -0.3488
  507MOL0     H66877   1.368   9.822  10.579  0.3331  1.6684 -0.0536
  507MOL0     H66878   1.461   9.605  10.481  0.4338 -1.2162  1.5134
  507MOL0     H66879   1.603   9.541  10.549  0.2538 -1.5079 -3.3627
  507MOL0     H66880   1.631   9.528  10.322 -0.2172  0.2442  0.8546
  507MOL0     H66881   1.747   9.651  10.375 -0.1206  3.0019  1.2619
  507MOL0     H66882   1.523   9.687  10.164 -3.0398  1.6498  0.2965
  507MOL0     H66883   1.503   9.790  10.305 -2.8554 -3.5662  0.3972
  507MOL0     H66884   1.751   9.741  10.136  4.0864  0.3508  3.4390
  507MOL0     H66885   1.746   9.858  10.264 -0.6407  0.7955 -0.5785
  507MOL0     H66886   1.562  10.120   9.979  0.2322 -1.7491 -2.1425
  507MOL0     H66887   1.710  10.286   9.856 -3.0774 -2.3265 -0.8533
  507MOL0     H66888   2.137  10.486   9.686  2.2615  2.7219 -1.0517
  507MOL0     H66889   2.354  10.595   9.641  0.0676  0.3222  0.9999
  507MOL0     H66890   2.716  10.403   9.796 -2.9508 -1.5946 -0.8314
  507MOL0     H66891   2.784  10.546   9.715 -1.0227 -0.0236 -0.3024
  507MOL0     H66892   2.773  10.411   9.498 -2.0379  1.6210  1.2098
  507MOL0     H66893   2.713  10.270   9.581  2.7862 -1.5419  1.7062
  507MOL0     H66894   2.909  10.270   9.736  0.9404  0.6853  0.7420
  507MOL0     H66895   2.988  10.389   9.639  0.3307 -0.0639  3.7186
  507MOL0     H66896   2.904  10.122   9.539 -2.5466  2.6119  3.8824
  507MOL0     H66897   2.962  10.238   9.429 -0.8070 -2.1633  0.3324
  507MOL0     H66898   3.124  10.119   9.642 -3.9099 -0.5042 -0.3426
  507MOL0     H66899   3.169  10.277   9.549 -1.4690  1.4553  1.1025
  507MOL0     H66900   3.185  10.153   9.350 -1.6866 -0.0244 -0.0982
  507MOL0     H66901   3.117  10.005   9.419 -0.2647  0.3084 -1.7152
  507MOL0     H66902   3.371  10.083   9.564  1.7062 -0.0112 -2.5944
  507MOL0     H66903   3.284   9.931   9.523  1.7787 -0.4352 -0.5199
  507MOL0     H66904   3.383   9.997   9.276  0.3365  0.5037 -0.0301
  507MOL0     H66905   3.491   9.923   9.392  2.9497  1.4526 -1.0651
  507MOL0     H66906   2.555  10.249   9.814  0.9676 -0.4465 -1.3167
  507MOL0     H66907   2.346  10.155   9.863  1.0501  0.8698  2.0076
  507MOL0     H66908   2.058  10.044   9.960 -1.1900 -1.5018 -1.3412
  507MOL0     H66909   1.911   9.885  10.043 -2.9382 -1.7520 -0.6793
  507MOL0     H66910   0.678   9.485  10.918  0.4196  1.4497 -0.3814
  507MOL0     H66911   0.411   9.448  10.894 -0.6992  2.0303 -0.8945
  507MOL0     H66912   0.036   9.432  10.910  0.5881  0.2405 -1.8607
  507MOL0     H66913  -0.193   9.363  10.851  0.6823 -0.1945 -0.5238
  507MOL0     H66914  -0.379   9.345  10.970  1.2472  2.2921  1.2606
  507MOL0     H66915  -0.434   9.341  10.809  0.3292  0.9867 -0.5498
  507MOL0     H66916  -0.625   9.279  10.977 -2.5621  0.7748 -0.0067
  507MOL0     H66917  -0.601   9.430  11.050  0.3419 -0.9350  0.3834
  507MOL0     H66918  -0.667   9.417  10.756  0.2706 -0.8617  1.4274
  507MOL0     H66919  -0.670   9.558  10.851 -0.2697 -0.0342 -2.8259
  507MOL0     H66920  -0.906   9.465  10.833 -2.0689 -2.1541  1.1843
  507MOL0     H66921  -0.854   9.307  10.892 -3.5672 -0.1975  1.1365
  507MOL0     H66922  -0.941   9.505  11.243  1.0054  0.9471  0.4005
  507MOL0     H66923  -0.350   9.743  10.964  2.0308  2.2548  3.4759
  507MOL0     H66924  -0.119   9.822  11.014 -4.6452  0.3313  1.9670
  508MOL0     O66925   4.533   8.159   3.470 -0.2336  0.3848 -0.1603
  508MOL0     C66926   4.574   8.063   3.542 -0.2413 -0.0723 -0.3392
  508MOL0     O66927   4.509   8.003   3.648  0.0500  0.0000  0.3808
  508MOL0     C66928   4.373   8.026   3.681 -0.3902  1.1559  0.1248
  508MOL0     C66929   4.284   8.126   3.632  0.6526  0.0982 -0.1174
  508MOL0     C66930   4.153   8.124   3.680  0.0403 -0.1400  0.6445
  508MOL0     C66931   4.103   8.032   3.771  0.0324 -0.0593 -0.2702
  508MOL0     O66932   3.972   8.043   3.815  0.3787 -0.0593 -0.1277
  508MOL0     C66933   3.928   7.992   3.938 -0.5645 -0.2158  0.3151
  508MOL0     C66934   3.784   8.033   3.956  0.5739  0.2240  0.3800
  508MOL0     C66935   3.747   7.977   4.087 -0.5642 -0.0091 -1.5655
  508MOL0     C66936   3.608   8.025   4.111  0.1883 -0.1785  0.4076
  508MOL0     C66937   3.527   7.910   4.188 -0.7287 -0.1350  0.3547
  508MOL0     C66938   3.394   7.974   4.227  0.5533  0.0476  0.8288
  508MOL0     C66939   3.300   7.877   4.302  0.5724 -0.6734  0.0911
  508MOL0     C66940   3.236   7.762   4.230  0.2684  0.2707  0.2590
  508MOL0     N66941   3.165   7.807   4.108 -0.7571 -0.3907 -0.0715
  508MOL0     C66942   3.150   7.738   3.997  1.1057  0.8513  0.7036
  508MOL0     C66943   3.060   7.792   3.913 -0.2960 -0.5164 -0.6344
  508MOL0     C66944   3.022   7.758   3.773 -0.0071 -0.3490 -0.0371
  508MOL0     C66945   3.135   7.829   3.690 -0.3823 -0.3741  0.3236
  508MOL0     C66946   3.255   7.739   3.665 -0.0409 -0.4672  0.1955
  508MOL0     C66947   3.353   7.809   3.568  0.8258 -0.7769 -0.0211
  508MOL0     O66948   3.428   7.920   3.637  0.5060  0.7008 -1.3635
  508MOL0     C66949   3.540   7.973   3.581  0.1868  0.0291 -0.2069
  508MOL0     C66950   3.592   8.086   3.647  0.0098  0.4447 -0.2123
  508MOL0     C66951   3.700   8.162   3.596 -0.2653 -0.2532 -0.2581
  508MOL0     C66952   3.769   8.114   3.481  0.1782  0.0719 -0.0171
  508MOL0     C66953   3.873   8.197   3.427  0.2886  0.7696 -0.3822
  508MOL0     O66954   3.897   8.316   3.481 -0.1243 -0.2662 -0.7652
  508MOL0     C66955   4.007   8.381   3.439  0.1854 -0.1654  0.0428
  508MOL0     C66956   3.996   8.522   3.418  0.5246  0.2349 -0.6498
  508MOL0     C66957   4.098   8.603   3.368 -0.6940  0.8702 -0.3433
  508MOL0     C66958   4.215   8.542   3.331 -0.0335 -0.1874  0.7672
  508MOL0     O66959   4.308   8.625   3.287 -0.4031 -0.2994  0.1035
  508MOL0     C66960   4.434   8.581   3.236  0.0521  0.7990  0.5082
  508MOL0     C66961   4.416   8.522   3.093 -0.7223  0.5837  0.1858
  508MOL0     C66962   4.546   8.483   3.029 -0.4000  0.3044  0.3603
  508MOL0     C66963   4.616   8.366   3.111  0.9052 -0.0487  0.1206
  508MOL0     C66964   4.702   8.281   3.022 -0.4155  0.3445  0.0655
  508MOL0     C66965   4.802   8.195   3.106  0.6566  0.0169 -0.3990
  508MOL0     C66966   4.881   8.099   3.019 -0.0111  0.3882  0.3417
  508MOL0     C66967   4.964   7.992   3.099  0.2653  0.3782 -0.2913
  508MOL0    Cl66968   5.103   8.076   3.182  0.0603  0.0064 -0.3381
  508MOL0     C66969   4.238   8.402   3.352  0.3423  0.0728 -0.6401
  508MOL0     C66970   4.131   8.322   3.406  0.5070 -0.0112 -0.1317
  508MOL0     O66971   3.920   8.155   3.320  0.1444  0.3619  0.8605
  508MOL0     C66972   3.726   7.990   3.424 -0.2462 -0.4907  0.5202
  508MOL0     C66973   3.604   7.925   3.468 -0.1876 -0.3343 -0.3865
  508MOL0     N66974   3.009   7.896   3.981 -0.6685 -0.9207 -0.5919
  508MOL0     N66975   3.068   7.903   4.093  1.2235  0.0213  0.3468
  508MOL0     C66976   4.196   7.939   3.826 -0.1244 -0.5379 -0.5289
  508MOL0     C66977   4.328   7.941   3.779  0.9555  1.1757 -0.3020
  508MOL0     C66978   4.708   8.029   3.532 -0.0809  0.5559 -0.8108
  508MOL0     C66979   4.800   8.123   3.484 -0.4349  0.0971  0.1162
  508MOL0     C66980   4.942   8.095   3.483 -0.7872 -0.8346  0.2960
  508MOL0     C66981   4.985   7.965   3.524  0.4793  0.3911  0.7837
  508MOL0     O66982   5.110   7.915   3.510 -0.4150  0.0545  0.2412
  508MOL0     C66983   5.205   7.992   3.594  0.3626  0.3954 -0.2203
  508MOL0     C66984   5.349   7.937   3.603 -0.4193 -0.1492  0.4315
  508MOL0     C66985   5.458   8.021   3.672  0.2325 -0.2637 -0.5566
  508MOL0     C66986   5.598   7.978   3.618  0.0687 -0.7939  0.2937
  508MOL0     C66987   5.705   8.059   3.680  0.0253 -0.3709 -0.1333
  508MOL0     C66988   5.782   8.135   3.736 -0.1725  0.6056 -0.1139
  508MOL0     C66989   4.897   7.871   3.573  0.0640 -0.5612  1.0125
  508MOL0     C66990   4.756   7.900   3.579 -0.2315  0.0813 -0.4499
  508MOL0     H66991   4.310   8.194   3.551  1.7240 -2.1735 -1.7815
  508MOL0     H66992   4.079   8.197   3.646  1.1573  1.7857  2.1541
  508MOL0     H66993   3.996   8.030   4.014  2.6874 -2.5637 -1.1837
  508MOL0     H66994   3.940   7.884   3.931  0.8048 -0.0082 -1.2769
  508MOL0     H66995   3.720   7.981   3.884  1.7794 -2.0199  0.8458
  508MOL0     H66996   3.769   8.142   3.962  0.0876  0.4711 -2.9878
  508MOL0     H66997   3.812   8.013   4.166 -2.0512 -0.4778 -0.0768
  508MOL0     H66998   3.751   7.868   4.083 -1.4325 -0.0711 -1.0939
  508MOL0     H66999   3.600   8.114   4.174  3.2687  0.1662  0.4620
  508MOL0     H67000   3.552   8.040   4.019  0.5516  2.0421  0.4956
  508MOL0     H67001   3.587   7.879   4.274  0.7056 -1.0337 -0.9237
  508MOL0     H67002   3.518   7.826   4.117 -0.7663  0.0125  0.1835
  508MOL0     H67003   3.344   8.012   4.137  2.7611  2.3326  0.4448
  508MOL0     H67004   3.417   8.061   4.290  1.0338  1.8155 -1.6502
  508MOL0     H67005   3.350   7.847   4.394  1.0671  3.3458  1.3466
  508MOL0     H67006   3.220   7.931   4.354  1.8842  0.5067  0.9576
  508MOL0     H67007   3.172   7.696   4.290  1.5817 -0.8834  0.4429
  508MOL0     H67008   3.310   7.697   4.184 -3.3622 -2.3036 -2.5852
  508MOL0     H67009   3.220   7.660   3.968 -0.4485 -0.1569 -0.4864
  508MOL0     H67010   2.924   7.800   3.748 -0.8511 -2.1735  0.0724
  508MOL0     H67011   3.028   7.649   3.764  0.3071 -0.4175  0.8247
  508MOL0     H67012   3.168   7.926   3.729  3.7859 -1.7858  0.8140
  508MOL0     H67013   3.089   7.839   3.591 -1.2492 -0.1360  0.7413
  508MOL0     H67014   3.321   7.707   3.746  1.3892 -0.0355 -0.7623
  508MOL0     H67015   3.220   7.647   3.618 -1.4786 -0.6610  1.5765
  508MOL0     H67016   3.308   7.852   3.477 -0.3860  0.8788  1.2803
  508MOL0     H67017   3.425   7.731   3.543  0.8500 -0.7604 -0.0018
  508MOL0     H67018   3.538   8.121   3.734  0.0940 -1.5720  0.6834
  508MOL0     H67019   3.727   8.247   3.658 -0.2682 -0.5309  0.1279
  508MOL0     H67020   3.894   8.551   3.444 -0.1766 -0.4709 -2.4681
  508MOL0     H67021   4.081   8.709   3.358  0.4899  1.2709  1.4757
  508MOL0     H67022   4.479   8.506   3.302  3.5990  1.0195 -1.4129
  508MOL0     H67023   4.505   8.664   3.225  0.0312  0.8080  0.4475
  508MOL0     H67024   4.370   8.594   3.025 -0.8783 -0.9495 -1.3925
  508MOL0     H67025   4.350   8.434   3.092 -1.7563  1.2918  1.8719
  508MOL0     H67026   4.613   8.569   3.019 -2.6466  2.2568  1.2911
  508MOL0     H67027   4.503   8.447   2.935 -0.0733  0.8631 -0.0074
  508MOL0     H67028   4.682   8.403   3.190 -0.1035 -0.6939  1.2992
  508MOL0     H67029   4.547   8.293   3.154  2.4248 -1.3109  0.4838
  508MOL0     H67030   4.765   8.338   2.953  3.3888 -2.5337  0.8653
  508MOL0     H67031   4.636   8.219   2.960  1.1617 -0.7352 -0.5867
  508MOL0     H67032   4.741   8.138   3.177 -2.3983  1.1822 -1.9088
  508MOL0     H67033   4.867   8.269   3.152 -2.0702  2.4516 -0.2005
  508MOL0     H67034   4.801   8.055   2.960 -1.7484  1.3643  1.8616
  508MOL0     H67035   4.962   8.141   2.959  2.9758 -4.1124  0.7004
  508MOL0     H67036   5.011   7.920   3.031 -0.4061 -0.6550  0.2960
  508MOL0     H67037   4.898   7.941   3.171  1.0726  1.3077  1.1602
  508MOL0     H67038   4.327   8.354   3.312  0.1511 -0.0719 -0.8858
  508MOL0     H67039   4.140   8.214   3.408 -2.0340 -0.2743  0.1766
  508MOL0     H67040   3.773   7.954   3.332  1.9696  0.3648  1.2512
  508MOL0     H67041   3.570   7.837   3.414  1.2839 -1.4609  0.4574
  508MOL0     H67042   4.167   7.869   3.904 -0.7269 -1.6577 -1.7106
  508MOL0     H67043   4.397   7.866   3.817 -0.2699 -0.6268 -1.4577
  508MOL0     H67044   4.768   8.217   3.441  1.7522  1.1793  0.7212
  508MOL0     H67045   5.011   8.168   3.444 -0.0434 -0.6859  1.8065
  508MOL0     H67046   5.169   7.982   3.697 -2.6613 -0.6876 -1.2720
  508MOL0     H67047   5.198   8.094   3.556  0.8750 -0.8276 -3.9664
  508MOL0     H67048   5.357   7.837   3.647  3.1370  0.5386  1.6845
  508MOL0     H67049   5.377   7.932   3.497  0.3211  1.7644  0.4945
  508MOL0     H67050   5.446   8.009   3.780  0.1306 -0.2533 -0.5671
  508MOL0     H67051   5.443   8.128   3.652  0.3678 -0.2850 -0.7809
  508MOL0     H67052   5.624   7.872   3.627  1.7645 -0.4164  0.1603
  508MOL0     H67053   5.600   7.996   3.510  1.2431 -1.8537  0.1090
  508MOL0     H67054   5.851   8.204   3.780 -0.1654 -1.7242  3.9892
  508MOL0     H67055   4.942   7.778   3.604 -0.1995 -1.6895 -1.7141
  508MOL0     H67056   4.681   7.828   3.610  0.3842 -0.4570 -0.1870
  509MOL0     O67057   8.687   2.742   7.692 -0.0610 -0.6292  0.1440
  509MOL0     C67058   8.778   2.676   7.732 -0.6399 -0.2062 -0.2113
  509MOL0     O67059   8.789   2.543   7.718  0.8254  0.0893 -0.1446
  509MOL0     C67060   8.691   2.492   7.646  0.0931  0.3209 -0.3727
  509MOL0     C67061   8.682   2.484   7.509 -0.2059  0.1322 -1.0822
  509MOL0     C67062   8.565   2.427   7.458 -0.4834 -0.0433  0.9394
  509MOL0     C67063   8.457   2.379   7.533 -0.5022  0.8438 -0.3395
  509MOL0     O67064   8.352   2.328   7.463  0.0240  0.1679 -0.0829
  509MOL0     C67065   8.226   2.301   7.529 -0.1186  0.2103  0.4835
  509MOL0     C67066   8.221   2.174   7.613 -0.1284 -0.1885  0.5027
  509MOL0     C67067   8.092   2.095   7.622 -0.3044 -0.3534  0.4708
  509MOL0     C67068   7.960   2.159   7.677  0.3737 -1.1133 -0.0074
  509MOL0     C67069   7.971   2.174   7.829  0.3876  0.3660  0.0185
  509MOL0     C67070   7.858   2.269   7.872  0.4147  0.6140 -0.5664
  509MOL0     C67071   7.717   2.217   7.853  0.3846  0.0360  0.5689
  509MOL0     C67072   7.609   2.331   7.861 -0.1274 -0.0151 -0.4801
  509MOL0     N67073   7.474   2.296   7.829  0.5857 -0.4935 -0.7496
  509MOL0     C67074   7.363   2.314   7.906  0.1335 -1.0247  0.2667
  509MOL0     C67075   7.260   2.280   7.826  0.1253 -1.1462  0.4919
  509MOL0     C67076   7.120   2.307   7.851 -0.3990  0.3505  0.3185
  509MOL0     C67077   7.032   2.199   7.773  0.4475  0.4940  0.5172
  509MOL0     C67078   6.886   2.208   7.816  0.7321  0.1436 -0.5995
  509MOL0     C67079   6.814   2.335   7.796  0.1156  0.8475  0.1967
  509MOL0     O67080   6.828   2.365   7.657 -0.5923 -0.0517  0.3743
  509MOL0     C67081   6.726   2.335   7.570  0.0298  0.0200  0.8729
  509MOL0     C67082   6.600   2.399   7.577 -0.6633  0.4176  0.1114
  509MOL0     C67083   6.490   2.340   7.517 -0.4239 -0.1348  1.2984
  509MOL0     C67084   6.500   2.241   7.413 -0.9066 -0.5144  0.0961
  509MOL0     C67085   6.390   2.197   7.325  0.2690  0.9575  0.1727
  509MOL0     O67086   6.396   2.068   7.263 -0.2806 -0.3620 -0.4726
  509MOL0     C67087   6.285   2.021   7.204  0.3239 -1.2441 -0.5995
  509MOL0     C67088   6.163   2.008   7.269 -0.4347  0.0976 -0.0680
  509MOL0     C67089   6.063   1.943   7.196  0.5132 -0.0338 -0.0135
  509MOL0     C67090   6.078   1.897   7.060 -0.7856  0.1766  0.4072
  509MOL0     O67091   5.989   1.829   6.985  0.0760  0.2735  0.5038
  509MOL0     C67092   5.844   1.853   7.004 -0.3190 -0.2420  1.5626
  509MOL0     C67093   5.771   1.767   6.897  0.7275 -0.6333 -0.4822
  509MOL0     C67094   5.622   1.797   6.885 -0.6508 -0.0594 -0.1963
  509MOL0     C67095   5.564   1.717   6.770 -0.3537  1.3096 -0.0977
  509MOL0     C67096   5.419   1.742   6.751  1.0267 -0.6001 -0.6116
  509MOL0     C67097   5.361   1.668   6.626 -0.4948 -0.1520 -0.4571
  509MOL0     C67098   5.217   1.683   6.630  1.2989 -0.1958 -0.7335
  509MOL0     C67099   5.142   1.579   6.545 -0.8361  0.0714  1.2675
  509MOL0    Cl67100   5.156   1.622   6.371 -0.0995 -0.1546  0.0806
  509MOL0     C67101   6.210   1.917   7.000 -0.3202 -0.0338 -0.0003
  509MOL0     C67102   6.314   1.985   7.070  0.6020  0.8246 -1.3100
  509MOL0     O67103   6.299   2.279   7.322  0.5151 -0.0132  0.0298
  509MOL0     C67104   6.627   2.186   7.394  0.4694  0.8415 -0.6460
  509MOL0     C67105   6.730   2.232   7.482 -0.2464 -0.1947 -0.1416
  509MOL0     N67106   7.311   2.217   7.718 -0.1422 -0.3231  0.6058
  509MOL0     N67107   7.435   2.222   7.721 -0.3791  0.5420  0.4960
  509MOL0     C67108   8.470   2.390   7.669 -0.1961 -0.0241  0.1213
  509MOL0     C67109   8.576   2.459   7.726 -0.2790  0.6714 -0.2388
  509MOL0     C67110   8.894   2.743   7.795  0.4161  0.0412 -0.1762
  509MOL0     C67111   9.000   2.674   7.844 -0.3115  0.9240  0.1689
  509MOL0     C67112   9.108   2.735   7.904 -0.3938 -0.0444  0.7888
  509MOL0     C67113   9.100   2.877   7.927  0.1755  0.4782 -0.5943
  509MOL0     O67114   9.198   2.945   7.988  0.2773 -0.2734 -0.1756
  509MOL0     C67115   9.283   2.888   8.086  0.5120  0.0699  0.7692
  509MOL0     C67116   9.208   2.860   8.220  0.3726 -0.1884  0.3901
  509MOL0     C67117   9.131   2.983   8.271  0.3387 -0.1938  0.5192
  509MOL0     C67118   9.058   2.959   8.405 -0.0633 -0.1779 -0.8667
  509MOL0     C67119   8.978   3.071   8.458 -0.4735  0.2751  1.1012
  509MOL0     C67120   8.920   3.169   8.499  1.3037 -0.0084  0.3227
  509MOL0     C67121   8.983   2.940   7.890  0.5996 -0.2569 -0.6415
  509MOL0     C67122   8.881   2.878   7.820  0.3171 -0.4028 -0.0148
  509MOL0     H67123   8.767   2.520   7.452  0.1851  2.3178  0.7571
  509MOL0     H67124   8.551   2.413   7.351 -1.5232  0.3869  1.0010
  509MOL0     H67125   8.156   2.305   7.446  0.0220  1.1493  0.3924
  509MOL0     H67126   8.199   2.380   7.601  0.1138 -0.3959  1.2483
  509MOL0     H67127   8.248   2.203   7.715  3.1615 -0.5229 -0.1400
  509MOL0     H67128   8.310   2.115   7.588  1.3319  1.7054  0.9376
  509MOL0     H67129   8.117   2.009   7.684 -1.2565  0.2106  1.6776
  509MOL0     H67130   8.072   2.062   7.519  1.4139  0.0990 -0.0392
  509MOL0     H67131   7.949   2.259   7.633 -1.2016 -1.1376  0.2967
  509MOL0     H67132   7.884   2.085   7.651  1.9609 -2.6693 -0.4341
  509MOL0     H67133   8.059   2.220   7.874  0.1216 -0.2428  1.1938
  509MOL0     H67134   7.948   2.077   7.874  1.3859 -0.1169 -0.4710
  509MOL0     H67135   7.881   2.363   7.822  2.1812  0.2812 -0.4516
  509MOL0     H67136   7.858   2.294   7.978 -0.4902  2.5406 -0.9846
  509MOL0     H67137   7.712   2.169   7.754 -0.4654  1.6203 -0.1933
  509MOL0     H67138   7.690   2.143   7.929  1.2138  1.1718  2.0133
  509MOL0     H67139   7.637   2.413   7.794  3.1484 -0.2063  0.4770
  509MOL0     H67140   7.606   2.368   7.964  1.9673 -1.2094  0.0828
  509MOL0     H67141   7.349   2.371   7.998 -1.5342 -0.8585 -0.0481
  509MOL0     H67142   7.114   2.401   7.795 -0.5210 -1.7843 -3.6103
  509MOL0     H67143   7.088   2.315   7.955 -3.2504  2.1058 -0.5582
  509MOL0     H67144   7.069   2.099   7.799 -1.5748 -0.2092  0.8664
  509MOL0     H67145   7.035   2.203   7.664  4.2717  0.5634  0.4934
  509MOL0     H67146   6.830   2.131   7.761 -1.5922  2.6145 -1.9042
  509MOL0     H67147   6.873   2.174   7.920 -0.4645  1.4131 -0.3209
  509MOL0     H67148   6.860   2.406   7.865 -0.3291  0.3876  0.9875
  509MOL0     H67149   6.712   2.328   7.834  1.4924  1.6879  4.6985
  509MOL0     H67150   6.587   2.487   7.639  0.1816 -1.4820  3.1911
  509MOL0     H67151   6.395   2.387   7.540  0.1028  1.0002  1.2225
  509MOL0     H67152   6.156   2.033   7.374 -1.0373  1.7679 -0.4686
  509MOL0     H67153   5.973   1.925   7.253 -1.2882  1.3233 -2.2158
  509MOL0     H67154   5.823   1.960   6.990 -2.4672 -0.8537 -0.4287
  509MOL0     H67155   5.801   1.830   7.102 -3.3578  0.8195  0.5913
  509MOL0     H67156   5.770   1.667   6.941  2.2065 -0.9321 -1.0831
  509MOL0     H67157   5.830   1.768   6.805  2.7824  0.1575  0.7691
  509MOL0     H67158   5.603   1.903   6.865  1.1111 -0.0257 -1.9963
  509MOL0     H67159   5.564   1.777   6.976  0.7896  1.0308  1.0174
  509MOL0     H67160   5.623   1.727   6.678  0.0312  1.4205  0.1551
  509MOL0     H67161   5.565   1.613   6.804  1.1548  1.5444  0.7127
  509MOL0     H67162   5.397   1.848   6.731  0.4662 -0.5975 -0.0112
  509MOL0     H67163   5.368   1.714   6.844  0.7912  0.1826 -0.4961
  509MOL0     H67164   5.388   1.563   6.633 -0.1507 -0.0265  0.2030
  509MOL0     H67165   5.411   1.705   6.536  2.5250  0.7839  1.4687
  509MOL0     H67166   5.190   1.673   6.736  1.5192 -0.4220 -0.6992
  509MOL0     H67167   5.188   1.785   6.603  0.8406  0.2300  1.2148
  509MOL0     H67168   5.039   1.563   6.576 -1.2453 -0.7571 -0.4154
  509MOL0     H67169   5.194   1.484   6.560  4.3079  2.0171 -1.5483
  509MOL0     H67170   6.221   1.875   6.900  0.9837  0.3568 -0.0305
  509MOL0     H67171   6.411   2.000   7.023  2.1399 -3.2715  0.0790
  509MOL0     H67172   6.650   2.112   7.318 -2.6102 -2.5602  1.4265
  509MOL0     H67173   6.820   2.172   7.472 -0.5443 -0.6359 -0.2254
  509MOL0     H67174   8.390   2.352   7.731  1.1335  0.0334  1.9695
  509MOL0     H67175   8.579   2.471   7.834 -0.0294  1.5883 -0.3338
  509MOL0     H67176   9.008   2.567   7.831  0.1209  1.1040 -1.1545
  509MOL0     H67177   9.182   2.663   7.935 -1.9260 -1.8743  0.3611
  509MOL0     H67178   9.370   2.952   8.100 -0.6926  2.0575 -0.4386
  509MOL0     H67179   9.323   2.798   8.039  1.7138  0.1449  1.6011
  509MOL0     H67180   9.136   2.778   8.212  0.3251 -0.0135 -1.3685
  509MOL0     H67181   9.285   2.830   8.291 -1.5982 -0.2921  2.5943
  509MOL0     H67182   9.071   3.039   8.199  0.0738  0.6548  1.3781
  509MOL0     H67183   9.206   3.062   8.282 -0.7565  1.1027 -0.9988
  509MOL0     H67184   8.988   2.875   8.400 -0.2800 -0.0367 -0.3147
  509MOL0     H67185   9.138   2.948   8.479 -1.0975  0.2717  0.3549
  509MOL0     H67186   8.868   3.260   8.518  0.1674 -0.9132  1.7672
  509MOL0     H67187   8.967   3.047   7.899 -1.3479 -0.4578 -1.2665
  509MOL0     H67188   8.798   2.945   7.800 -0.8873 -1.5268  0.9660
  510MOL0     O67189   7.535   3.913   8.154  0.0997  0.2511  0.4894
  510MOL0     C67190   7.596   3.973   8.243 -0.0184 -0.1964 -0.8749
  510MOL0     O67191   7.545   4.009   8.359  0.5832  0.3042 -0.2508
  510MOL0     C67192   7.422   3.950   8.388 -0.7478 -0.1999  0.5049
  510MOL0     C67193   7.407   3.854   8.488  0.5328 -0.9306  0.2218
  510MOL0     C67194   7.278   3.810   8.520 -0.6249 -0.5903  0.0978
  510MOL0     C67195   7.165   3.842   8.447  0.1254  0.8086 -0.4741
  510MOL0     O67196   7.041   3.787   8.489 -0.0409  0.3978 -0.4912
  510MOL0     C67197   7.020   3.756   8.622 -1.1299  0.5142 -0.4105
  510MOL0     C67198   6.875   3.773   8.642  0.1370 -0.1504  0.0447
  510MOL0     C67199   6.822   3.758   8.782  0.3531  0.3539 -0.3127
  510MOL0     C67200   6.662   3.736   8.772  0.4523 -0.1910 -0.6717
  510MOL0     C67201   6.598   3.722   8.909 -0.7011  0.4408 -0.6764
  510MOL0     C67202   6.443   3.693   8.906 -0.1126  0.4855 -0.7746
  510MOL0     C67203   6.387   3.677   9.051  0.7747  0.6126  0.1104
  510MOL0     C67204   6.232   3.661   9.051 -0.3432  0.2209 -0.4416
  510MOL0     N67205   6.178   3.561   8.959 -0.1230  0.0156 -0.1489
  510MOL0     C67206   6.094   3.579   8.854 -0.7637  0.4361  1.7107
  510MOL0     C67207   6.085   3.461   8.791 -0.2071 -1.0353 -0.6016
  510MOL0     C67208   5.999   3.411   8.680  0.5900  0.5636 -0.0533
  510MOL0     C67209   5.857   3.485   8.689 -0.4884 -0.1722 -0.6245
  510MOL0     C67210   5.754   3.422   8.608  0.2946 -0.3459  0.5379
  510MOL0     C67211   5.619   3.501   8.620  0.0137 -0.5352 -0.1448
  510MOL0     O67212   5.572   3.530   8.753  0.2861  0.3505  0.0947
  510MOL0     C67213   5.441   3.571   8.752 -0.3714 -0.0074 -0.0012
  510MOL0     C67214   5.357   3.606   8.647  0.4888 -0.4598  0.2145
  510MOL0     C67215   5.224   3.653   8.666  1.3879 -0.2147 -1.9252
  510MOL0     C67216   5.169   3.661   8.796 -0.2528 -0.0364 -0.2919
  510MOL0     C67217   5.026   3.699   8.811  0.7176 -0.1844  0.4427
  510MOL0     O67218   4.952   3.692   8.700  0.2144 -0.0798 -0.7488
  510MOL0     C67219   4.821   3.722   8.694  0.3998  0.4586  0.4093
  510MOL0     C67220   4.749   3.811   8.767  0.2816  0.1674 -0.5821
  510MOL0     C67221   4.614   3.840   8.734 -0.2826 -0.2605 -0.6135
  510MOL0     C67222   4.551   3.791   8.619  1.2116 -0.2183  0.6357
  510MOL0     O67223   4.425   3.826   8.572  0.0376 -0.0106  0.2991
  510MOL0     C67224   4.346   3.702   8.538 -0.3702  0.3938  0.0459
  510MOL0     C67225   4.190   3.721   8.536 -0.4732 -0.4582  0.3022
  510MOL0     C67226   4.099   3.596   8.575  0.6590 -0.1058 -0.0947
  510MOL0     C67227   4.115   3.485   8.465 -0.3633 -0.4844 -0.2656
  510MOL0     C67228   4.041   3.352   8.489 -0.2971  0.2959 -0.7440
  510MOL0     C67229   3.891   3.371   8.495 -0.7328  0.7410  0.8098
  510MOL0     C67230   3.798   3.252   8.546  0.3945  0.1175  0.3018
  510MOL0     C67231   3.649   3.254   8.496 -0.0872 -0.5969  0.1404
  510MOL0    Cl67232   3.562   3.395   8.576  0.0302  0.0433 -0.1097
  510MOL0     C67233   4.624   3.703   8.543  0.0757  0.6444  0.4392
  510MOL0     C67234   4.754   3.670   8.580 -0.9255 -0.1887  0.4305
  510MOL0     O67235   4.980   3.716   8.925 -0.2604 -0.6532 -0.4033
  510MOL0     C67236   5.250   3.624   8.899 -0.0716 -0.6496 -0.9903
  510MOL0     C67237   5.383   3.584   8.880 -0.0979  1.0095 -0.1393
  510MOL0     N67238   6.177   3.374   8.853 -0.8555  0.2498  0.5162
  510MOL0     N67239   6.230   3.433   8.949 -0.1467  0.0348  0.8328
  510MOL0     C67240   7.186   3.933   8.350  0.0366 -0.4257  0.1315
  510MOL0     C67241   7.310   3.985   8.314 -0.6054 -0.1531  0.4757
  510MOL0     C67242   7.741   3.995   8.227  0.4103 -0.8281 -0.5354
  510MOL0     C67243   7.819   4.103   8.270  0.0391 -0.0692  0.0445
  510MOL0     C67244   7.950   4.134   8.218  0.2949 -0.6095 -0.2412
  510MOL0     C67245   8.010   4.047   8.125  0.4610 -0.0883 -0.0777
  510MOL0     O67246   8.130   4.065   8.060 -0.1852 -0.1703  0.3243
  510MOL0     C67247   8.229   4.135   8.137  0.6036  0.1416  0.1596
  510MOL0     C67248   8.376   4.082   8.102 -0.5064 -0.3973 -0.7026
  510MOL0     C67249   8.398   3.939   8.170 -0.1629 -0.5962  0.6138
  510MOL0     C67250   8.527   3.872   8.122 -0.2861 -0.3612  0.0090
  510MOL0     C67251   8.529   3.736   8.183  0.2325 -0.0253  1.0501
  510MOL0     C67252   8.540   3.618   8.216  0.1292 -0.2918  0.2290
  510MOL0     C67253   7.938   3.928   8.088 -0.8287 -0.0053 -1.1415
  510MOL0     C67254   7.810   3.910   8.140  0.0941  0.7859  1.0297
  510MOL0     H67255   7.491   3.821   8.548  0.4025 -1.0688  0.3297
  510MOL0     H67256   7.269   3.742   8.604 -0.8682  0.3640  0.8632
  510MOL0     H67257   7.082   3.814   8.691 -1.1059 -0.7547  0.6716
  510MOL0     H67258   7.041   3.653   8.654 -1.2216  0.5927 -0.0893
  510MOL0     H67259   6.816   3.700   8.586 -3.6514  2.5718  0.1072
  510MOL0     H67260   6.848   3.874   8.607  0.8854  0.2871  0.6972
  510MOL0     H67261   6.839   3.854   8.832 -0.5476  1.4059 -1.9583
  510MOL0     H67262   6.870   3.678   8.840 -2.0950  0.4382  2.0451
  510MOL0     H67263   6.616   3.821   8.719  0.0608 -1.8700 -3.1797
  510MOL0     H67264   6.632   3.647   8.716 -0.3620  1.1850 -2.5283
  510MOL0     H67265   6.616   3.811   8.971  1.1806 -0.4331  0.1006
  510MOL0     H67266   6.642   3.635   8.959 -1.8749 -0.7893 -1.7380
  510MOL0     H67267   6.428   3.601   8.849  0.5766 -0.6859  0.8360
  510MOL0     H67268   6.400   3.773   8.846  1.3389  0.0231 -2.4825
  510MOL0     H67269   6.419   3.579   9.088  0.8255  0.3088 -0.7296
  510MOL0     H67270   6.422   3.754   9.121  0.9070 -2.9509  4.4176
  510MOL0     H67271   6.186   3.753   9.012  0.4664  1.4869  1.4284
  510MOL0     H67272   6.197   3.645   9.153  0.5848  1.4125  0.0946
  510MOL0     H67273   6.043   3.667   8.815 -0.6941 -1.5622 -3.8136
  510MOL0     H67274   5.984   3.302   8.681 -3.6130  0.9597 -0.1870
  510MOL0     H67275   6.040   3.444   8.585  0.1588  2.8918  0.5085
  510MOL0     H67276   5.858   3.589   8.655 -5.2266 -0.2978 -1.9567
  510MOL0     H67277   5.819   3.483   8.792 -0.8941 -1.1238 -0.7753
  510MOL0     H67278   5.780   3.422   8.502  0.9531  1.5096  0.6615
  510MOL0     H67279   5.744   3.316   8.632  0.1832 -0.6199 -0.6708
  510MOL0     H67280   5.542   3.444   8.567 -4.1403  3.7873  0.5016
  510MOL0     H67281   5.631   3.594   8.562  1.2866  0.9693  2.3565
  510MOL0     H67282   5.393   3.622   8.546  1.6070  1.1692  0.8313
  510MOL0     H67283   5.154   3.654   8.584 -1.7821 -3.6822  0.3853
  510MOL0     H67284   4.799   3.857   8.851 -0.7520 -1.2749  0.8768
  510MOL0     H67285   4.550   3.907   8.791 -1.6357 -1.2802 -0.8750
  510MOL0     H67286   4.380   3.629   8.612  1.5126  2.2291  1.1095
  510MOL0     H67287   4.378   3.665   8.439  1.2367  0.6748  0.4280
  510MOL0     H67288   4.173   3.777   8.443  2.1043 -1.5691 -0.9370
  510MOL0     H67289   4.162   3.793   8.613 -2.6664 -2.0011  1.0723
  510MOL0     H67290   3.998   3.637   8.574  0.8227  0.2995 -0.6318
  510MOL0     H67291   4.114   3.564   8.679  0.0960  1.6190  0.5421
  510MOL0     H67292   4.087   3.520   8.365  0.0945  0.2494 -0.1464
  510MOL0     H67293   4.221   3.462   8.455 -0.0784  0.0453  1.2394
  510MOL0     H67294   4.072   3.313   8.586 -1.3409  0.2604 -0.4190
  510MOL0     H67295   4.053   3.288   8.401 -2.8263 -0.8265 -0.3367
  510MOL0     H67296   3.851   3.405   8.399  0.9625  1.2612  0.2498
  510MOL0     H67297   3.886   3.457   8.563  2.4715 -0.4791  2.7928
  510MOL0     H67298   3.840   3.153   8.525 -0.6903 -0.2317 -0.2593
  510MOL0     H67299   3.809   3.266   8.654  4.5390  1.8737 -0.1490
  510MOL0     H67300   3.598   3.165   8.532 -0.1644 -0.6944 -0.2103
  510MOL0     H67301   3.652   3.269   8.387 -0.3091  1.5737  0.3907
  510MOL0     H67302   4.589   3.665   8.448 -0.5171  1.2181  0.4226
  510MOL0     H67303   4.813   3.611   8.511 -0.7191  0.1842  0.2827
  510MOL0     H67304   5.217   3.631   9.002  2.0014  2.8921 -0.3791
  510MOL0     H67305   5.430   3.555   8.973 -1.1665 -0.7647 -0.0962
  510MOL0     H67306   7.104   3.968   8.289  0.5980  0.0254 -0.3828
  510MOL0     H67307   7.324   4.053   8.230  0.8974  0.6267  1.3096
  510MOL0     H67308   7.763   4.178   8.325 -0.7277 -2.2742  2.5212
  510MOL0     H67309   7.986   4.232   8.246 -2.7628  0.5811 -0.1054
  510MOL0     H67310   8.217   4.102   8.241  1.0023 -3.1490 -0.7300
  510MOL0     H67311   8.231   4.244   8.130  1.5765  0.0473 -1.3113
  510MOL0     H67312   8.397   4.091   7.995 -0.5328  2.9022 -0.5473
  510MOL0     H67313   8.444   4.142   8.164 -0.5637  0.3247 -1.3184
  510MOL0     H67314   8.314   3.876   8.138 -0.0637  0.5569 -2.1417
  510MOL0     H67315   8.410   3.936   8.279  2.4745 -0.8145  0.3791
  510MOL0     H67316   8.516   3.865   8.013  2.2815  2.1298 -0.5336
  510MOL0     H67317   8.617   3.924   8.155 -1.1033 -1.5608  4.8036
  510MOL0     H67318   8.544   3.517   8.251 -3.3913 -0.4465  0.6051
  510MOL0     H67319   7.987   3.857   8.022  0.5043 -1.5523  1.3520
  510MOL0     H67320   7.763   3.815   8.114 -0.4868  0.8780  1.7122
  511MOL0     O67321   8.063   8.327   4.342 -0.7932 -0.8993  0.9411
  511MOL0     C67322   8.087   8.218   4.306 -0.0334 -0.0159  0.5328
  511MOL0     O67323   8.001   8.113   4.318  0.1905  0.4050 -0.1716
  511MOL0     C67324   7.878   8.124   4.381  0.2946 -0.0810  0.7120
  511MOL0     C67325   7.775   8.056   4.313  0.1560  0.1766 -0.4451
  511MOL0     C67326   7.651   8.050   4.369 -0.1583 -0.1045 -0.0728
  511MOL0     C67327   7.618   8.110   4.490  0.0482 -0.7554  0.5391
  511MOL0     O67328   7.492   8.104   4.537 -0.0361 -0.2422  0.0010
  511MOL0     C67329   7.450   8.195   4.643  0.0345 -0.8887 -0.0129
  511MOL0     C67330   7.325   8.125   4.713 -0.2874 -0.1068  1.5258
  511MOL0     C67331   7.210   8.103   4.599 -0.2227 -0.1428 -0.7049
  511MOL0     C67332   7.092   8.039   4.664  0.8580  0.2793 -0.3894
  511MOL0     C67333   6.982   8.017   4.564  0.2166 -0.5223  0.7003
  511MOL0     C67334   6.842   8.000   4.621 -0.3926  1.3863 -0.3147
  511MOL0     C67335   6.739   7.999   4.503 -0.2983  1.0556  0.0724
  511MOL0     C67336   6.587   8.015   4.542 -0.5106 -0.9475  0.4184
  511MOL0     N67337   6.547   7.946   4.666 -0.3759  0.0927  0.6254
  511MOL0     C67338   6.436   7.987   4.742 -0.3008  0.7880 -0.0101
  511MOL0     C67339   6.398   7.876   4.796 -0.7443 -0.5816  0.0550
  511MOL0     C67340   6.281   7.851   4.894 -0.1662 -1.0911  0.4261
  511MOL0     C67341   6.137   7.872   4.830  1.0449  0.5575  0.8896
  511MOL0     C67342   6.033   7.831   4.934 -0.5139  0.8513  1.0477
  511MOL0     C67343   5.902   7.896   4.895 -0.4030  0.2941 -0.1575
  511MOL0     O67344   5.908   8.043   4.909 -0.2446 -0.0016 -0.0780
  511MOL0     C67345   5.810   8.129   4.859 -0.0233 -0.1733  0.8139
  511MOL0     C67346   5.681   8.092   4.859 -0.0940 -0.2032  0.2280
  511MOL0     C67347   5.587   8.180   4.816  0.9610 -0.1331 -1.1629
  511MOL0     C67348   5.616   8.305   4.771 -0.4173 -0.5143  1.3976
  511MOL0     C67349   5.517   8.401   4.717  0.2811 -0.3341 -0.6434
  511MOL0     O67350   5.389   8.369   4.754  0.0672  0.0246  0.0894
  511MOL0     C67351   5.273   8.396   4.692 -0.5667 -0.3156 -0.4200
  511MOL0     C67352   5.158   8.378   4.759 -0.5698 -0.3401 -0.3079
  511MOL0     C67353   5.034   8.396   4.697  0.2323 -0.1868  0.6188
  511MOL0     C67354   5.028   8.427   4.557 -0.1185 -0.3662 -0.0028
  511MOL0     O67355   4.914   8.431   4.483 -0.3848  0.5063  0.3082
  511MOL0     C67356   4.789   8.447   4.550 -0.3283 -0.4146 -0.1196
  511MOL0     C67357   4.691   8.514   4.454 -0.2248  0.3481 -0.4290
  511MOL0     C67358   4.561   8.564   4.525 -0.1615  0.4752 -0.0116
  511MOL0     C67359   4.450   8.463   4.535 -0.5490 -0.0063  0.0206
  511MOL0     C67360   4.315   8.529   4.594 -0.0369  0.5903  0.4878
  511MOL0     C67361   4.213   8.425   4.587  0.2293  0.0301 -0.1158
  511MOL0     C67362   4.096   8.449   4.683  0.5642  0.8288  0.5440
  511MOL0     C67363   3.982   8.552   4.651  0.3248 -0.6701  0.6839
  511MOL0    Cl67364   3.841   8.505   4.749 -0.1647  0.7088  0.4020
  511MOL0     C67365   5.147   8.441   4.486 -0.0264 -0.1075  0.2688
  511MOL0     C67366   5.273   8.427   4.557  0.4407 -0.3856  0.4688
  511MOL0     O67367   5.554   8.484   4.632  0.1627  0.1093 -0.1283
  511MOL0     C67368   5.745   8.335   4.751 -0.0810  0.3592  0.5228
  511MOL0     C67369   5.846   8.252   4.806 -0.0585 -0.5196 -0.1393
  511MOL0     N67370   6.471   7.767   4.752  0.0595 -0.7114  0.6952
  511MOL0     N67371   6.563   7.813   4.677 -0.4315 -0.3324  0.4608
  511MOL0     C67372   7.721   8.180   4.553 -0.1287  0.4116  0.1606
  511MOL0     C67373   7.847   8.189   4.502 -0.9556  0.2436  0.5726
  511MOL0     C67374   8.220   8.184   4.252 -0.0653  0.0535 -0.4969
  511MOL0     C67375   8.273   8.059   4.264 -0.3083  0.0151 -0.4496
  511MOL0     C67376   8.403   8.032   4.214  0.2142 -0.3450  0.1601
  511MOL0     C67377   8.474   8.124   4.140  0.3747 -0.4940 -0.1549
  511MOL0     O67378   8.589   8.103   4.070 -0.2892  0.0442 -0.9444
  511MOL0     C67379   8.703   8.107   4.157 -1.0556 -0.2410 -0.1065
  511MOL0     C67380   8.830   8.170   4.093 -0.1961 -0.1224  0.2690
  511MOL0     C67381   8.957   8.135   4.173  0.5943  0.2203  0.3046
  511MOL0     C67382   9.079   8.189   4.099  0.4760  0.3065  0.3471
  511MOL0     C67383   9.133   8.107   3.984 -0.7010  0.6332  0.1655
  511MOL0     C67384   9.169   8.058   3.884  0.3688  0.4175  0.4871
  511MOL0     C67385   8.418   8.257   4.127  0.9268 -0.0279  0.2637
  511MOL0     C67386   8.295   8.286   4.193 -0.4306 -0.7323  0.5080
  511MOL0     H67387   7.800   8.012   4.217 -2.7368 -2.3950 -0.1884
  511MOL0     H67388   7.570   7.997   4.320  0.7677 -0.7705 -0.9089
  511MOL0     H67389   7.427   8.291   4.596 -3.1579 -1.9918 -0.9368
  511MOL0     H67390   7.525   8.217   4.720 -1.4623 -1.0679  1.5428
  511MOL0     H67391   7.279   8.204   4.773  0.1825  1.2985  0.1259
  511MOL0     H67392   7.347   8.038   4.775 -3.1507 -1.1796  1.1962
  511MOL0     H67393   7.252   8.027   4.532  0.2855 -0.7555  0.2737
  511MOL0     H67394   7.182   8.197   4.552 -1.3395  1.5742  3.0039
  511MOL0     H67395   7.118   7.944   4.711  1.0275  0.2452 -0.5495
  511MOL0     H67396   7.065   8.101   4.750 -0.8377 -2.4974  1.2644
  511MOL0     H67397   7.002   7.941   4.488 -3.0922 -2.4002  1.4917
  511MOL0     H67398   6.968   8.105   4.501 -0.5282  1.7730  3.8386
  511MOL0     H67399   6.823   8.085   4.687  2.9593  0.1962  2.5249
  511MOL0     H67400   6.828   7.911   4.682  1.0825  3.0617  2.7515
  511MOL0     H67401   6.770   8.064   4.421 -0.9555  0.7433 -0.4370
  511MOL0     H67402   6.746   7.894   4.473  1.9161  0.7804  1.3277
  511MOL0     H67403   6.521   8.003   4.456  0.8613 -1.2967 -0.6144
  511MOL0     H67404   6.568   8.119   4.569  0.5405 -0.3457 -1.0147
  511MOL0     H67405   6.391   8.085   4.755 -2.1981 -0.2315  1.6658
  511MOL0     H67406   6.273   7.925   4.974 -1.3466 -0.3288 -0.3557
  511MOL0     H67407   6.301   7.753   4.938  3.3155 -0.8022 -0.2570
  511MOL0     H67408   6.127   7.821   4.734  0.5150  2.7098 -0.2644
  511MOL0     H67409   6.124   7.978   4.805 -1.6526 -0.2361 -1.6237
  511MOL0     H67410   6.017   7.723   4.932 -1.0253  0.9148  1.3826
  511MOL0     H67411   6.060   7.869   5.033  1.2772  2.2169  0.0954
  511MOL0     H67412   5.826   7.857   4.963  0.0512  0.3232  0.3762
  511MOL0     H67413   5.883   7.856   4.795 -1.0533 -0.7094  0.3476
  511MOL0     H67414   5.645   7.996   4.897  3.9259 -2.8338 -1.8890
  511MOL0     H67415   5.480   8.162   4.817  0.9369 -0.0019 -1.2842
  511MOL0     H67416   5.160   8.336   4.860 -3.1347  0.1267  0.0053
  511MOL0     H67417   4.939   8.370   4.743 -0.1331 -2.8120 -1.3379
  511MOL0     H67418   4.794   8.511   4.638  0.4300 -1.2783  0.4859
  511MOL0     H67419   4.747   8.350   4.580 -3.4294  0.9869  0.5219
  511MOL0     H67420   4.669   8.442   4.375  1.2075 -1.3342  0.6370
  511MOL0     H67421   4.741   8.605   4.418  1.4680  0.2436  1.4985
  511MOL0     H67422   4.520   8.642   4.460  2.0521  0.7529 -1.1367
  511MOL0     H67423   4.581   8.605   4.625  1.5593 -0.1720 -0.0742
  511MOL0     H67424   4.418   8.430   4.436  0.0451 -3.1689  0.7569
  511MOL0     H67425   4.487   8.382   4.599 -0.9972  0.8702  1.4383
  511MOL0     H67426   4.286   8.617   4.536 -1.4269  0.5729  1.1039
  511MOL0     H67427   4.330   8.564   4.697 -0.1518 -0.9232  1.0488
  511MOL0     H67428   4.262   8.330   4.611  3.7744  1.2945 -1.5943
  511MOL0     H67429   4.174   8.419   4.485 -0.4709  1.0744  0.0718
  511MOL0     H67430   4.054   8.348   4.686  5.6769 -1.7562 -1.0594
  511MOL0     H67431   4.137   8.477   4.780  3.7209  2.0883 -1.0044
  511MOL0     H67432   3.959   8.555   4.544  1.3208 -0.9632  0.4587
  511MOL0     H67433   4.016   8.654   4.674 -1.4471  0.0041  0.4912
  511MOL0     H67434   5.152   8.453   4.378  1.7835 -2.5997 -0.0264
  511MOL0     H67435   5.364   8.439   4.498  0.3441 -0.2689  0.3423
  511MOL0     H67436   5.776   8.426   4.701 -4.7947  1.2543 -1.3437
  511MOL0     H67437   5.952   8.277   4.808 -0.2270  0.2366  1.5962
  511MOL0     H67438   7.695   8.241   4.640 -0.5744  4.0444 -2.2996
  511MOL0     H67439   7.916   8.244   4.565 -3.1185  2.6921  0.9579
  511MOL0     H67440   8.241   7.978   4.329  0.4482  0.8548  1.0324
  511MOL0     H67441   8.448   7.939   4.246  0.9896  0.0619  0.2820
  511MOL0     H67442   8.719   8.001   4.179  0.2493  0.1974  1.1821
  511MOL0     H67443   8.692   8.151   4.256  1.9956 -1.6651  1.0038
  511MOL0     H67444   8.841   8.119   3.997  1.8368  0.4254  0.1524
  511MOL0     H67445   8.817   8.274   4.062  1.1283  0.4040  1.3691
  511MOL0     H67446   8.951   8.026   4.183 -1.4927  0.2974  0.3861
  511MOL0     H67447   8.936   8.174   4.272 -0.2831 -2.4436  1.2652
  511MOL0     H67448   9.050   8.285   4.056  0.0162 -0.0625 -0.1880
  511MOL0     H67449   9.157   8.212   4.173 -0.5649 -0.1663  1.6210
  511MOL0     H67450   9.205   8.012   3.794 -2.7189  0.7912 -1.0463
  511MOL0     H67451   8.475   8.329   4.069  3.6577 -2.6502 -0.5500
  511MOL0     H67452   8.257   8.387   4.201  1.2968 -0.1221  1.7404
  512MOL0     O67453   9.877   0.372   8.739  0.1094 -0.3283  0.0929
  512MOL0     C67454   9.919   0.327   8.634 -0.4972 -0.1569 -0.8730
  512MOL0     O67455   9.844   0.240   8.552 -0.1601  0.2638  0.5345
  512MOL0     C67456   9.707   0.216   8.582 -0.1116  0.2484 -0.2719
  512MOL0     C67457   9.620   0.307   8.535  0.2609 -0.6408 -0.6452
  512MOL0     C67458   9.490   0.290   8.557 -0.1093  0.4721 -0.1168
  512MOL0     C67459   9.441   0.174   8.626 -0.0691 -0.2868  0.1197
  512MOL0     O67460   9.299   0.155   8.634  0.2826  0.2632  0.1484
  512MOL0     C67461   9.220   0.273   8.613  0.1980 -0.4528  0.4440
  512MOL0     C67462   9.078   0.242   8.657 -0.3708 -0.2331 -0.3135
  512MOL0     C67463   8.996   0.357   8.597  0.5291  0.4075  0.4781
  512MOL0     C67464   8.848   0.325   8.618  0.4381  0.3555 -0.1513
  512MOL0     C67465   8.774   0.441   8.552 -0.0487 -0.0186 -0.0192
  512MOL0     C67466   8.629   0.417   8.536 -0.0528  0.2497 -0.4583
  512MOL0     C67467   8.550   0.540   8.477 -0.1746 -0.1349 -0.3957
  512MOL0     C67468   8.416   0.489   8.453 -0.1258  0.0181 -0.6129
  512MOL0     N67469   8.328   0.584   8.381  0.6034  0.1927  0.7377
  512MOL0     C67470   8.196   0.547   8.361 -0.0900 -0.2766  0.7759
  512MOL0     C67471   8.138   0.662   8.305  0.8222 -0.4080 -0.3680
  512MOL0     C67472   7.995   0.656   8.264  0.0982  0.1959  0.1970
  512MOL0     C67473   7.947   0.545   8.169  0.4817 -0.3634 -0.2305
  512MOL0     C67474   8.019   0.543   8.030 -0.3095  0.1146 -0.2164
  512MOL0     C67475   7.980   0.660   7.946  0.1207  0.3793  0.5219
  512MOL0     O67476   8.058   0.684   7.826  0.2136  0.0951  0.2525
  512MOL0     C67477   8.181   0.736   7.834 -1.8406  0.8206 -0.1360
  512MOL0     C67478   8.261   0.762   7.948  0.0321  0.1415  0.5313
  512MOL0     C67479   8.388   0.824   7.935  0.0330  1.4897 -0.4092
  512MOL0     C67480   8.435   0.871   7.814  0.3258  0.0460 -0.6508
  512MOL0     C67481   8.568   0.946   7.800  1.0252 -0.8534 -0.3707
  512MOL0     O67482   8.637   0.973   7.915  0.4217 -0.8351 -0.0636
  512MOL0     C67483   8.747   1.054   7.911 -0.1068 -0.0413 -0.2764
  512MOL0     C67484   8.858   1.009   7.982  0.3745 -0.7387  0.8450
  512MOL0     C67485   8.966   1.096   8.004  0.1621  0.6197 -0.3431
  512MOL0     C67486   8.964   1.225   7.938 -0.3849  0.4278 -0.3175
  512MOL0     O67487   9.067   1.315   7.975 -0.1188  0.2060 -0.0471
  512MOL0     C67488   9.080   1.432   7.904 -0.4089 -0.1571 -0.9244
  512MOL0     C67489   9.199   1.505   7.968  0.9602  0.0550  1.0028
  512MOL0     C67490   9.233   1.633   7.886  0.2505  0.9842  0.0786
  512MOL0     C67491   9.379   1.685   7.893 -0.0836 -0.7790 -0.3254
  512MOL0     C67492   9.410   1.822   7.841 -0.1754 -0.1161  0.4843
  512MOL0     C67493   9.347   1.851   7.701  0.3544 -0.5355  0.5459
  512MOL0     C67494   9.397   1.990   7.657  0.0617 -0.1448  0.0451
  512MOL0     C67495   9.372   2.013   7.505  0.4221 -0.0166  0.4053
  512MOL0    Cl67496   9.439   1.894   7.408  0.0806  0.0722 -0.1441
  512MOL0     C67497   8.859   1.266   7.861 -1.1332  0.2528 -0.2968
  512MOL0     C67498   8.753   1.179   7.849  0.1072  0.0068 -0.5586
  512MOL0     O67499   8.595   0.982   7.689 -0.7263 -0.2792 -0.1414
  512MOL0     C67500   8.360   0.846   7.697 -0.3703 -0.0594 -0.2458
  512MOL0     C67501   8.239   0.776   7.711  0.4456  0.2934  0.2430
  512MOL0     N67502   8.238   0.758   8.279 -0.8530 -0.2041  0.0259
  512MOL0     N67503   8.350   0.706   8.337  0.5916  0.2335 -0.0823
  512MOL0     C67504   9.533   0.084   8.680 -0.3060  0.5944 -0.5955
  512MOL0     C67505   9.668   0.101   8.650 -0.0868 -0.6843  0.2400
  512MOL0     C67506  10.060   0.335   8.621 -0.2380  0.1698 -0.3440
  512MOL0     C67507  10.141   0.382   8.726 -0.5405 -0.2470  0.9638
  512MOL0     C67508  10.279   0.401   8.704  0.5043 -0.0790 -0.5213
  512MOL0     C67509  10.338   0.372   8.581 -0.2410 -0.2924 -0.4443
  512MOL0     O67510  10.475   0.394   8.570  0.2321  0.0489  0.7930
  512MOL0     C67511  10.531   0.368   8.444 -0.3548 -0.4642 -0.3461
  512MOL0     C67512  10.677   0.404   8.460  0.5436  0.1674 -0.8870
  512MOL0     C67513  10.715   0.549   8.424 -0.2899  0.6309 -0.0739
  512MOL0     C67514  10.782   0.622   8.552 -0.7238 -0.6392 -0.1962
  512MOL0     C67515  10.788   0.760   8.499  0.1410 -0.9185 -0.7581
  512MOL0     C67516  10.805   0.870   8.459 -0.4527 -0.7768 -0.1922
  512MOL0     C67517  10.256   0.329   8.477 -0.4771 -0.0553 -0.5064
  512MOL0     C67518  10.118   0.312   8.498  1.1454 -0.7007  0.6304
  512MOL0     H67519   9.650   0.401   8.491 -2.9858  1.3776  1.0939
  512MOL0     H67520   9.428   0.359   8.502 -3.0415  0.2599  2.6728
  512MOL0     H67521   9.215   0.291   8.505 -1.4482  0.7922  0.6844
  512MOL0     H67522   9.264   0.361   8.662 -0.4224 -1.2066  2.4849
  512MOL0     H67523   9.084   0.247   8.766  0.6433 -1.8640 -0.2525
  512MOL0     H67524   9.036   0.147   8.623 -4.4839  1.4754 -0.6293
  512MOL0     H67525   9.016   0.376   8.492  1.0809 -0.4377  0.4243
  512MOL0     H67526   9.015   0.453   8.648 -0.5693  1.3401 -0.7989
  512MOL0     H67527   8.823   0.230   8.570  2.5237  1.1908 -3.1254
  512MOL0     H67528   8.818   0.313   8.723 -1.0048 -0.8711 -0.6630
  512MOL0     H67529   8.814   0.468   8.454  2.7253  1.3637  1.3771
  512MOL0     H67530   8.782   0.528   8.617 -0.6302 -0.0720  0.1300
  512MOL0     H67531   8.597   0.393   8.638  1.7564 -0.4543 -0.0348
  512MOL0     H67532   8.619   0.326   8.476 -4.5149 -0.1052  0.4379
  512MOL0     H67533   8.545   0.626   8.544 -1.2040 -0.7157  0.3135
  512MOL0     H67534   8.594   0.576   8.384 -1.2404 -1.0488 -1.2809
  512MOL0     H67535   8.374   0.465   8.551  0.1150  1.7543 -0.0441
  512MOL0     H67536   8.420   0.393   8.401  0.3324 -0.6666  0.6480
  512MOL0     H67537   8.156   0.450   8.389  2.8445 -1.9137 -0.2994
  512MOL0     H67538   7.958   0.749   8.221  1.5897  2.2212  2.9836
  512MOL0     H67539   7.932   0.638   8.352  0.2301 -0.1433  0.2252
  512MOL0     H67540   7.842   0.572   8.157  1.3826  3.5261 -0.8294
  512MOL0     H67541   7.962   0.451   8.223 -0.1011 -0.3099  0.0289
  512MOL0     H67542   8.126   0.528   8.047  0.1014  3.6083  1.1035
  512MOL0     H67543   7.988   0.450   7.981  2.3480 -0.5914 -0.7475
  512MOL0     H67544   7.985   0.753   8.005  1.2499  0.9666 -0.4689
  512MOL0     H67545   7.874   0.651   7.919  0.0470  0.7293  0.6780
  512MOL0     H67546   8.224   0.756   8.049  0.0129 -1.1190  0.4670
  512MOL0     H67547   8.430   0.850   8.031  2.3670 -0.6527 -0.7244
  512MOL0     H67548   8.856   0.909   8.022  1.3856 -0.8796  0.5533
  512MOL0     H67549   9.050   1.063   8.064 -0.1446 -0.0877 -0.2873
  512MOL0     H67550   8.992   1.496   7.911  0.2616  0.5909  2.4772
  512MOL0     H67551   9.101   1.401   7.801 -0.8820  0.0200 -1.0742
  512MOL0     H67552   9.282   1.433   7.970  0.7814 -0.2275 -0.3257
  512MOL0     H67553   9.171   1.532   8.070  1.6967 -2.6248  2.0144
  512MOL0     H67554   9.172   1.711   7.934 -1.7993 -1.4881  1.7871
  512MOL0     H67555   9.205   1.623   7.781  1.2125 -0.1507 -0.0829
  512MOL0     H67556   9.407   1.667   7.997 -3.0670 -0.7409  0.5801
  512MOL0     H67557   9.435   1.623   7.823 -1.9019  0.1395 -2.7325
  512MOL0     H67558   9.519   1.834   7.835  0.1224 -2.0874  1.2189
  512MOL0     H67559   9.377   1.897   7.914 -2.3667  0.1291 -0.6823
  512MOL0     H67560   9.238   1.860   7.696  0.3373  1.1110  2.6732
  512MOL0     H67561   9.382   1.779   7.626 -0.4912  0.5629 -0.9544
  512MOL0     H67562   9.359   2.075   7.714 -0.3233  1.8351 -2.9323
  512MOL0     H67563   9.505   1.993   7.672 -0.2178  0.9221  2.2106
  512MOL0     H67564   9.408   2.112   7.475 -1.0511 -0.0480 -1.6582
  512MOL0     H67565   9.265   2.007   7.483  0.6824 -2.9552 -0.4011
  512MOL0     H67566   8.863   1.362   7.810  2.0752 -0.1005 -0.9664
  512MOL0     H67567   8.657   1.216   7.813 -2.3034 -1.9099  3.1975
  512MOL0     H67568   8.410   0.863   7.603  2.0112  1.3280  1.1726
  512MOL0     H67569   8.174   0.760   7.626 -0.1149 -1.7219  0.9815
  512MOL0     H67570   9.495  -0.005   8.729 -0.1028  1.2632  0.8339
  512MOL0     H67571   9.735   0.017   8.664 -1.4261 -1.7628  0.3228
  512MOL0     H67572  10.089   0.412   8.816 -0.0468  0.9570  0.8622
  512MOL0     H67573  10.342   0.434   8.786 -0.1596 -2.9533  1.3033
  512MOL0     H67574  10.482   0.437   8.375 -0.3609  1.5224  1.5110
  512MOL0     H67575  10.519   0.261   8.429  1.5436 -1.0526  1.8406
  512MOL0     H67576  10.702   0.388   8.566 -1.4172  0.4672 -0.3456
  512MOL0     H67577  10.737   0.332   8.404 -1.2952 -0.1003 -2.6126
  512MOL0     H67578  10.633   0.615   8.392 -0.6728  0.7030  1.0106
  512MOL0     H67579  10.789   0.530   8.346  0.3842 -0.7093  0.8552
  512MOL0     H67580  10.734   0.605   8.648  2.8237 -2.9804  1.3510
  512MOL0     H67581  10.885   0.587   8.544 -0.4382  0.3952 -1.5800
  512MOL0     H67582  10.828   0.967   8.421  2.6433 -1.0319  0.7668
  512MOL0     H67583  10.285   0.314   8.373 -2.1478 -3.0601 -0.6600
  512MOL0     H67584  10.059   0.281   8.413 -0.1856 -2.0451  1.9770
  513MOL0     O67585   3.716   6.506   9.699  0.4309 -0.0991  0.5458
  513MOL0     C67586   3.756   6.413   9.634 -0.1083  0.5144 -0.4538
  513MOL0     O67587   3.699   6.288   9.625  0.2109 -1.1434 -0.0693
  513MOL0     C67588   3.560   6.276   9.635  0.3584 -0.4796 -0.3083
  513MOL0     C67589   3.502   6.168   9.569  0.0380  0.0050  0.2891
  513MOL0     C67590   3.370   6.134   9.585 -0.0045 -0.3618 -0.7019
  513MOL0     C67591   3.282   6.224   9.650 -0.4561 -0.2919  0.4521
  513MOL0     O67592   3.148   6.208   9.645  0.9293 -0.9228 -0.2951
  513MOL0     C67593   3.098   6.103   9.731  0.3817 -0.6063  0.1421
  513MOL0     C67594   2.951   6.093   9.745  0.6594  0.1623 -0.5462
  513MOL0     C67595   2.893   5.977   9.820  0.1314 -0.1988  0.2631
  513MOL0     C67596   2.738   5.973   9.786 -0.0435  0.7511  0.2625
  513MOL0     C67597   2.679   5.841   9.843  0.1463 -0.6982  0.2431
  513MOL0     C67598   2.653   5.851   9.987 -0.7517 -0.7029 -0.4410
  513MOL0     C67599   2.580   5.730  10.053  0.4251  1.0322  0.4160
  513MOL0     C67600   2.625   5.698  10.197  0.9968  0.2856 -0.0110
  513MOL0     N67601   2.579   5.791  10.296 -0.2810  0.2117 -0.0446
  513MOL0     C67602   2.463   5.773  10.365  0.1153  0.0825  0.5387
  513MOL0     C67603   2.434   5.886  10.430  0.0959  0.4550 -0.2185
  513MOL0     C67604   2.307   5.901  10.504 -0.4533 -0.2529 -0.9994
  513MOL0     C67605   2.249   6.044  10.504 -0.1875 -0.8050 -0.4762
  513MOL0     C67606   2.146   6.078  10.614  0.4512  0.6200  0.0701
  513MOL0     C67607   2.005   6.025  10.581  0.4606 -0.6853 -0.5847
  513MOL0     O67608   1.963   6.011  10.447 -0.2321  0.0269 -0.0859
  513MOL0     C67609   1.839   5.960  10.418 -0.4297  0.7145  0.3540
  513MOL0     C67610   1.822   5.953  10.282 -0.5293 -0.7185 -0.6458
  513MOL0     C67611   1.695   5.908  10.241  0.5858  0.1624  0.8034
  513MOL0     C67612   1.586   5.886  10.340  0.4635  0.1992 -0.4859
  513MOL0     C67613   1.451   5.838  10.299  0.1233 -0.4553 -0.8446
  513MOL0     O67614   1.419   5.863  10.173 -0.1220 -0.4457  0.0391
  513MOL0     C67615   1.292   5.845  10.111 -0.3308  0.9080 -0.7151
  513MOL0     C67616   1.285   5.812   9.974  0.0392  0.0642 -0.9997
  513MOL0     C67617   1.167   5.797   9.908  0.9797  0.0391 -0.2029
  513MOL0     C67618   1.046   5.810   9.972 -0.7830 -0.9257  1.3391
  513MOL0     O67619   0.940   5.806   9.886  1.0267  0.5396  0.0518
  513MOL0     C67620   0.810   5.777   9.950 -0.4840  0.2902  0.5188
  513MOL0     C67621   0.718   5.714   9.841  0.1160  0.2950  0.1707
  513MOL0     C67622   0.769   5.575   9.798 -1.0153  0.5014  0.0208
  513MOL0     C67623   0.658   5.490   9.739  0.2469  0.3373  1.0812
  513MOL0     C67624   0.596   5.541   9.605 -0.6469 -1.3769  0.7907
  513MOL0     C67625   0.464   5.473   9.564  0.4820  0.2298  0.1001
  513MOL0     C67626   0.422   5.524   9.422  0.1396 -0.4289 -0.8217
  513MOL0     C67627   0.266   5.535   9.401 -0.4916  0.8327 -0.0353
  513MOL0    Cl67628   0.185   5.374   9.399  0.0611  0.3331 -0.3857
  513MOL0     C67629   1.055   5.830  10.110 -0.0360 -0.1539  0.0364
  513MOL0     C67630   1.171   5.854  10.176 -0.1195  0.0209 -1.3732
  513MOL0     O67631   1.370   5.785  10.380 -0.4479 -0.6008  0.1140
  513MOL0     C67632   1.614   5.895  10.472  0.1392  0.5582 -0.2958
  513MOL0     C67633   1.742   5.918  10.513  0.3607  0.2874 -0.1199
  513MOL0     N67634   2.542   5.968  10.408 -0.0323  0.1233 -0.4704
  513MOL0     N67635   2.629   5.906  10.337 -0.0509 -0.1846 -0.0951
  513MOL0     C67636   3.340   6.340   9.714 -0.4331 -0.5107  0.2881
  513MOL0     C67637   3.478   6.366   9.713 -0.2957 -0.4711  0.4576
  513MOL0     C67638   3.887   6.442   9.564 -0.3623 -0.5787  0.2907
  513MOL0     C67639   3.975   6.337   9.525  0.2218  0.2442 -0.8292
  513MOL0     C67640   4.089   6.343   9.444  0.0770  0.6618  0.3985
  513MOL0     C67641   4.132   6.466   9.411 -1.4833  0.0217  0.6913
  513MOL0     O67642   4.256   6.494   9.356  0.4080 -0.2331 -0.3471
  513MOL0     C67643   4.370   6.399   9.375  0.3315 -0.3585  0.2364
  513MOL0     C67644   4.396   6.310   9.252  0.0162 -0.4103  0.3015
  513MOL0     C67645   4.528   6.237   9.244  0.6749 -0.0835 -0.4622
  513MOL0     C67646   4.669   6.312   9.212  1.3671 -0.7663  0.4540
  513MOL0     C67647   4.778   6.222   9.186 -0.0745 -0.0337  0.6829
  513MOL0     C67648   4.869   6.146   9.165  0.8998 -0.0605 -0.0263
  513MOL0     C67649   4.053   6.576   9.447  0.5755  0.4000 -0.3068
  513MOL0     C67650   3.940   6.565   9.529  0.4464 -0.3548 -0.5342
  513MOL0     H67651   3.578   6.109   9.519 -0.7443 -1.3214  0.6253
  513MOL0     H67652   3.323   6.050   9.535 -2.8530  0.3186  0.6564
  513MOL0     H67653   3.133   6.123   9.833 -2.3795 -0.7313  1.1889
  513MOL0     H67654   3.132   6.008   9.689  0.7467  0.2705 -1.6511
  513MOL0     H67655   2.901   6.105   9.649  2.9376  1.6399 -1.6412
  513MOL0     H67656   2.924   6.170   9.818  1.8198 -1.6253  1.9226
  513MOL0     H67657   2.901   6.003   9.926 -2.2142  0.8364  0.2563
  513MOL0     H67658   2.937   5.879   9.801  1.2527  0.7283 -2.2035
  513MOL0     H67659   2.685   6.055   9.835 -0.1539 -1.5655  4.4623
  513MOL0     H67660   2.734   5.978   9.677  0.5823  0.7913  0.2391
  513MOL0     H67661   2.748   5.758   9.828  2.6488  1.3642 -0.4303
  513MOL0     H67662   2.586   5.824   9.788  0.6421  1.4130 -1.3802
  513MOL0     H67663   2.595   5.943   9.995 -0.2445 -0.3317 -0.9123
  513MOL0     H67664   2.743   5.859  10.048 -0.2010 -0.3574 -1.2745
  513MOL0     H67665   2.474   5.756  10.061  0.1441 -0.0263  0.2127
  513MOL0     H67666   2.594   5.643   9.989 -5.6170  1.5437 -2.3255
  513MOL0     H67667   2.734   5.696  10.201  1.0794 -1.2934 -1.7139
  513MOL0     H67668   2.587   5.598  10.219 -0.6846  1.1990  1.6423
  513MOL0     H67669   2.393   5.691  10.354 -0.0618 -0.1665  2.9782
  513MOL0     H67670   2.335   5.871  10.606 -0.4670  1.2214 -0.5379
  513MOL0     H67671   2.236   5.827  10.468  1.1602 -1.4956 -1.7651
  513MOL0     H67672   2.214   6.068  10.403 -1.5891 -1.4944 -0.1808
  513MOL0     H67673   2.333   6.110  10.527  0.0571 -1.6538  1.2110
  513MOL0     H67674   2.193   6.045  10.707  1.1460 -0.3463 -0.6049
  513MOL0     H67675   2.142   6.186  10.634 -2.4012  0.4349  0.9329
  513MOL0     H67676   1.933   6.089  10.632  0.7609 -2.3846  2.1791
  513MOL0     H67677   1.996   5.927  10.629  3.1140 -0.1949  1.1208
  513MOL0     H67678   1.895   5.983  10.207  0.6107  0.3756  0.8568
  513MOL0     H67679   1.685   5.899  10.133  3.3159 -2.7906  0.6256
  513MOL0     H67680   1.376   5.808   9.914  0.7425 -3.2484  0.0575
  513MOL0     H67681   1.176   5.765   9.805 -0.9156  0.1012 -0.4322
  513MOL0     H67682   0.776   5.872   9.990  2.4494  1.2829  0.8894
  513MOL0     H67683   0.811   5.708  10.035 -3.1067  0.2870  0.6455
  513MOL0     H67684   0.718   5.767   9.746  0.3096  0.0934  0.0578
  513MOL0     H67685   0.617   5.699   9.880  0.5793 -0.7194  1.0413
  513MOL0     H67686   0.801   5.518   9.885 -3.9109 -0.2286  0.7211
  513MOL0     H67687   0.858   5.582   9.736 -1.1620 -2.2776 -0.6324
  513MOL0     H67688   0.688   5.387   9.720 -1.8607 -0.4484  1.8398
  513MOL0     H67689   0.589   5.471   9.821 -0.4152  0.6691  0.6095
  513MOL0     H67690   0.664   5.512   9.524  1.7347  0.0446  2.1847
  513MOL0     H67691   0.587   5.650   9.602  3.3427 -0.9374  0.5666
  513MOL0     H67692   0.375   5.495   9.624  0.2072  1.1552 -0.6228
  513MOL0     H67693   0.488   5.367   9.567  2.8267  0.6600 -0.9379
  513MOL0     H67694   0.469   5.622   9.407 -0.6986  0.2293  0.6458
  513MOL0     H67695   0.454   5.450   9.348  0.0302 -0.1277 -1.1764
  513MOL0     H67696   0.247   5.597   9.313 -0.1243  2.2245  0.8273
  513MOL0     H67697   0.208   5.595   9.472 -1.1627  0.2261 -0.0655
  513MOL0     H67698   0.965   5.865  10.158  2.3749  1.2285  4.0897
  513MOL0     H67699   1.177   5.875  10.282 -0.7572 -0.3597 -1.2528
  513MOL0     H67700   1.536   5.868  10.543  0.5214 -2.1603 -0.8090
  513MOL0     H67701   1.768   5.916  10.618 -0.6956 -5.1627  0.3178
  513MOL0     H67702   3.272   6.414   9.755  0.1629  3.3567 -4.7345
  513MOL0     H67703   3.512   6.447   9.776 -1.2159  0.4354 -0.1764
  513MOL0     H67704   3.951   6.234   9.550 -0.3613  0.5833  0.0572
  513MOL0     H67705   4.134   6.251   9.408 -2.3413 -0.4815  0.0595
  513MOL0     H67706   4.356   6.344   9.469 -0.0108 -2.9902 -1.2757
  513MOL0     H67707   4.453   6.469   9.395  1.6039 -1.1434 -1.9971
  513MOL0     H67708   4.310   6.243   9.245 -1.0908  0.6066  2.9177
  513MOL0     H67709   4.378   6.379   9.170 -0.5742  0.0417  0.8004
  513MOL0     H67710   4.521   6.154   9.173  0.3666 -0.2955 -0.1841
  513MOL0     H67711   4.546   6.183   9.337  1.1470 -2.7045 -1.9766
  513MOL0     H67712   4.663   6.376   9.124  0.5061  0.9544  1.7194
  513MOL0     H67713   4.696   6.376   9.296  1.0831 -0.0152 -0.0269
  513MOL0     H67714   4.958   6.088   9.146  1.5063  0.2454  1.6987
  513MOL0     H67715   4.077   6.675   9.411  0.8693  0.8597  1.0854
  513MOL0     H67716   3.881   6.650   9.560 -0.9998 -2.1128  1.8830
  514MOL0     O67717   9.374   0.864  10.176 -0.2788  0.3736 -0.6459
  514MOL0     C67718   9.458   0.769  10.176 -0.0166 -0.0457  0.4026
  514MOL0     O67719   9.441   0.645  10.219  0.8384 -0.3819 -0.8052
  514MOL0     C67720   9.314   0.592  10.221  0.0145  1.2252  0.5563
  514MOL0     C67721   9.236   0.553  10.330 -0.3555  0.7236 -0.7596
  514MOL0     C67722   9.112   0.497  10.319  0.6772  0.3570  0.5134
  514MOL0     C67723   9.059   0.477  10.189  0.5651 -0.2221 -0.1544
  514MOL0     O67724   8.941   0.421  10.181 -0.3951  0.0784  0.0200
  514MOL0     C67725   8.880   0.388  10.054 -0.5782 -0.3542  0.9732
  514MOL0     C67726   8.736   0.369  10.091 -0.1669 -0.2378  0.1131
  514MOL0     C67727   8.643   0.284   9.996 -0.2265  0.4798  0.9224
  514MOL0     C67728   8.511   0.346   9.958 -0.7603 -0.2148  0.3168
  514MOL0     C67729   8.411   0.371  10.074  0.5547  0.0752 -0.0683
  514MOL0     C67730   8.273   0.395  10.017  0.7321  0.1455  0.9089
  514MOL0     C67731   8.166   0.461  10.113 -0.1043 -0.0076  0.3580
  514MOL0     C67732   8.117   0.381  10.227  0.3555 -0.8479 -0.0584
  514MOL0     N67733   7.997   0.446  10.295  0.4290 -0.6532 -0.3879
  514MOL0     C67734   7.866   0.413  10.275 -0.4413  0.7710 -0.4162
  514MOL0     C67735   7.794   0.476  10.362  0.0484 -0.6764  0.0567
  514MOL0     C67736   7.638   0.474  10.382  0.6743 -0.2256 -0.6787
  514MOL0     C67737   7.572   0.516  10.512 -0.2647 -0.3727  0.4963
  514MOL0     C67738   7.606   0.433  10.635 -0.3007  0.0626 -0.1841
  514MOL0     C67739   7.532   0.471  10.756  0.5117  0.0785  0.2053
  514MOL0     O67740   7.396   0.432  10.729 -0.1460 -0.1334 -0.0617
  514MOL0     C67741   7.301   0.514  10.786  0.3110 -0.3789  0.7916
  514MOL0     C67742   7.319   0.621  10.879 -0.4454  0.8110 -0.5699
  514MOL0     C67743   7.210   0.699  10.917  0.9569  0.0875 -0.4581
  514MOL0     C67744   7.085   0.677  10.859 -0.3373 -0.2773  0.6048
  514MOL0     C67745   6.976   0.767  10.880  1.0586 -0.3017 -0.5700
  514MOL0     O67746   6.858   0.743  10.813 -0.0303  0.3479 -0.0589
  514MOL0     C67747   6.762   0.841  10.802  0.1903 -0.7663  0.9231
  514MOL0     C67748   6.701   0.907  10.907 -0.4978  0.1834  0.6596
  514MOL0     C67749   6.588   0.983  10.889 -0.6273 -1.0144 -0.8906
  514MOL0     C67750   6.524   0.999  10.766  1.0817  0.1854 -0.2094
  514MOL0     O67751   6.420   1.087  10.752 -0.1215 -0.0783  0.5768
  514MOL0     C67752   6.315   1.056  10.658  0.0368 -0.1268 -0.2415
  514MOL0     C67753   6.190   1.142  10.683 -0.5309  0.8144 -0.1820
  514MOL0     C67754   6.065   1.085  10.619 -0.0467  0.6667 -0.0375
  514MOL0     C67755   5.947   1.183  10.629 -0.5992 -0.4466  0.2136
  514MOL0     C67756   5.815   1.118  10.610 -0.7813  0.3511  0.8325
  514MOL0     C67757   5.793   1.097  10.458 -0.4236  0.0146  0.7090
  514MOL0     C67758   5.654   1.046  10.438  1.3173  0.4030  0.0119
  514MOL0     C67759   5.619   0.990  10.293  0.1431 -0.7302  0.6115
  514MOL0    Cl67760   5.679   0.828  10.287  0.3932 -0.3375  0.0533
  514MOL0     C67761   6.590   0.938  10.653 -0.0775  0.2572 -0.2755
  514MOL0     C67762   6.706   0.861  10.671  0.6095 -0.1898 -0.0706
  514MOL0     O67763   6.995   0.869  10.945 -0.3755 -0.4226  0.0735
  514MOL0     C67764   7.069   0.564  10.777  0.2253  0.6047 -0.1236
  514MOL0     C67765   7.176   0.488  10.732 -0.1927 -0.1141 -0.0755
  514MOL0     N67766   7.876   0.564  10.437 -0.1781 -0.5755 -0.0086
  514MOL0     N67767   8.004   0.529  10.405  1.1774 -0.2492 -0.7044
  514MOL0     C67768   9.137   0.515  10.081  0.0139 -0.1163  0.9376
  514MOL0     C67769   9.266   0.563  10.095 -0.4807 -0.9339 -0.0227
  514MOL0     C67770   9.589   0.801  10.124  0.4552  0.5468  0.9176
  514MOL0     C67771   9.685   0.708  10.131 -0.0645 -0.1178  0.1327
  514MOL0     C67772   9.819   0.736  10.092 -0.2540  0.2466 -0.2836
  514MOL0     C67773   9.843   0.847  10.015  0.6016 -0.1050  1.3168
  514MOL0     O67774   9.971   0.846   9.953  0.3425 -0.1744 -0.2097
  514MOL0     C67775  10.003   0.958   9.872  0.2792 -0.1200 -0.8723
  514MOL0     C67776  10.136   0.913   9.816  0.4726  0.6458  0.7370
  514MOL0     C67777  10.169   0.999   9.694  0.8730 -0.1971  0.0778
  514MOL0     C67778  10.084   0.976   9.561 -0.5035 -0.8524 -0.3280
  514MOL0     C67779  10.139   1.024   9.435  0.0329  0.4278  0.0231
  514MOL0     C67780  10.173   1.074   9.334 -0.3221  0.6614 -0.2317
  514MOL0     C67781   9.743   0.938  10.002  0.7767 -0.7300  0.7963
  514MOL0     C67782   9.615   0.919  10.056 -0.1963 -0.2909  0.1247
  514MOL0     H67783   9.276   0.577  10.428 -0.7952  2.8425 -1.0480
  514MOL0     H67784   9.047   0.467  10.401  1.4587 -1.5001  0.4975
  514MOL0     H67785   8.904   0.285  10.025 -2.3154 -1.3028  2.6369
  514MOL0     H67786   8.886   0.464   9.976 -0.9885 -2.2357 -0.9982
  514MOL0     H67787   8.688   0.467  10.103 -1.1980 -0.7808  0.5778
  514MOL0     H67788   8.719   0.310  10.181 -1.7440 -1.1635 -0.7385
  514MOL0     H67789   8.626   0.187  10.042 -2.8049  0.4521  0.0384
  514MOL0     H67790   8.711   0.277   9.911  0.5756 -0.4104  1.6123
  514MOL0     H67791   8.536   0.446   9.923 -0.5611 -0.3622  0.0366
  514MOL0     H67792   8.464   0.294   9.874  0.6587  2.6912 -2.4803
  514MOL0     H67793   8.443   0.457  10.134  1.3761  0.4254 -0.9603
  514MOL0     H67794   8.404   0.284  10.140 -0.0768 -2.4723 -3.2529
  514MOL0     H67795   8.230   0.298   9.990 -0.5867  0.1075  2.9347
  514MOL0     H67796   8.288   0.452   9.925 -1.9247 -2.6585 -1.4779
  514MOL0     H67797   8.215   0.552  10.150 -1.3001  0.3716  1.0372
  514MOL0     H67798   8.082   0.489  10.049 -0.4504 -2.5298 -0.4086
  514MOL0     H67799   8.198   0.368  10.299  0.1549 -1.9058 -0.0014
  514MOL0     H67800   8.096   0.278  10.195  3.0946 -1.2147 -0.8942
  514MOL0     H67801   7.834   0.328  10.216  3.7017 -1.5984  0.4391
  514MOL0     H67802   7.606   0.373  10.351  2.0694 -0.5833 -1.0205
  514MOL0     H67803   7.587   0.545  10.317  0.3370  0.2943  0.1396
  514MOL0     H67804   7.464   0.512  10.492 -0.9022 -0.1799  3.5103
  514MOL0     H67805   7.604   0.619  10.530  2.0191 -0.3154 -2.8631
  514MOL0     H67806   7.575   0.329  10.620  0.9976 -0.6310  1.5070
  514MOL0     H67807   7.715   0.435  10.648 -0.0931  0.3766 -1.7881
  514MOL0     H67808   7.561   0.574  10.779 -0.4248  0.7862 -1.6620
  514MOL0     H67809   7.566   0.410  10.841  1.5184 -1.2113 -1.0793
  514MOL0     H67810   7.413   0.638  10.930  0.1105 -1.2811 -0.8142
  514MOL0     H67811   7.243   0.781  10.980  1.9867 -1.5868  1.2832
  514MOL0     H67812   6.739   0.901  11.009  1.4980  4.2822  0.3653
  514MOL0     H67813   6.548   1.025  10.980 -1.6198  1.4621 -2.3673
  514MOL0     H67814   6.300   0.948  10.666 -0.4010  0.0492  1.7430
  514MOL0     H67815   6.353   1.081  10.558  0.9434  0.5965  0.2683
  514MOL0     H67816   6.207   1.247  10.658  3.5564 -0.2420 -2.8034
  514MOL0     H67817   6.179   1.138  10.792 -2.8836  0.2254 -0.3893
  514MOL0     H67818   6.045   0.985  10.656  3.3011  0.0211  0.3543
  514MOL0     H67819   6.080   1.066  10.512 -1.9841 -2.1896  0.1089
  514MOL0     H67820   5.933   1.230  10.727 -0.9644 -0.0297 -0.0345
  514MOL0     H67821   5.974   1.268  10.565  3.8634  0.7392  3.1845
  514MOL0     H67822   5.738   1.179  10.658 -0.5662  4.5535 -3.4631
  514MOL0     H67823   5.808   1.028  10.672 -0.6828  0.1532  0.5568
  514MOL0     H67824   5.857   1.015  10.422 -3.9349 -2.9068  0.5669
  514MOL0     H67825   5.823   1.185  10.402  0.7637  0.4062  1.8971
  514MOL0     H67826   5.653   0.962  10.507  0.2636 -1.1780 -1.8429
  514MOL0     H67827   5.581   1.121  10.469  0.5646  0.2777 -1.3990
  514MOL0     H67828   5.683   1.042  10.221  1.3417 -1.7574  0.8874
  514MOL0     H67829   5.515   1.009  10.269 -0.3513 -2.1823  1.4463
  514MOL0     H67830   6.555   0.951  10.551 -0.4361  0.6489 -0.1053
  514MOL0     H67831   6.757   0.809  10.591  3.0767  0.9189  0.6778
  514MOL0     H67832   6.971   0.541  10.739  0.3112  1.5211 -0.9365
  514MOL0     H67833   7.159   0.409  10.658 -1.0012  2.5939 -3.0017
  514MOL0     H67834   9.102   0.507   9.979 -0.0631  2.5587  0.6831
  514MOL0     H67835   9.335   0.582  10.013  1.4801 -2.2890  1.2154
  514MOL0     H67836   9.658   0.612  10.175 -0.6768 -2.0138 -3.9093
  514MOL0     H67837   9.898   0.668  10.122 -0.0432  0.0946 -1.1580
  514MOL0     H67838  10.009   1.050   9.931  0.2418  0.1661 -1.3070
  514MOL0     H67839   9.933   0.963   9.788 -0.1032  0.2999 -0.5316
  514MOL0     H67840  10.214   0.935   9.890  0.1664  0.0630  1.2470
  514MOL0     H67841  10.138   0.807   9.788  0.6611  1.2125 -1.6257
  514MOL0     H67842  10.269   0.960   9.671  0.2714 -1.3468 -0.7073
  514MOL0     H67843  10.165   1.105   9.720  0.4534 -0.4323  1.0249
  514MOL0     H67844  10.065   0.869   9.557 -3.0169 -0.6161  2.0930
  514MOL0     H67845   9.998   1.039   9.586  1.2512  0.7695  2.2147
  514MOL0     H67846  10.226   1.129   9.259  1.8187  0.8702  1.3289
  514MOL0     H67847   9.775   1.022   9.942  0.3698 -1.3251 -0.2740
  514MOL0     H67848   9.537   0.992  10.036 -0.1748  0.2150  1.7663
  515MOL0     O67849   6.913   3.721   0.689 -0.5925 -0.7634 -0.4097
  515MOL0     C67850   6.956   3.697   0.576 -1.3599 -0.4063 -0.3007
  515MOL0     O67851   6.883   3.655   0.474 -0.4012 -0.6065  0.2574
  515MOL0     C67852   6.745   3.642   0.469  0.4344 -0.2839  1.3708
  515MOL0     C67853   6.645   3.698   0.553 -0.2521  0.5306 -0.1388
  515MOL0     C67854   6.510   3.673   0.524 -0.8635  0.5218  0.5587
  515MOL0     C67855   6.476   3.605   0.406 -0.4869 -0.1491  0.5695
  515MOL0     O67856   6.355   3.576   0.355 -0.2487  0.1242 -0.6615
  515MOL0     C67857   6.248   3.594   0.451  1.3061 -0.3871  0.4504
  515MOL0     C67858   6.120   3.546   0.377 -0.7681 -0.7856 -0.1307
  515MOL0     C67859   6.060   3.667   0.296 -0.5727 -0.7398  0.2760
  515MOL0     C67860   5.987   3.613   0.165 -0.0623 -0.2700 -0.3283
  515MOL0     C67861   5.888   3.513   0.190  0.6284 -0.0748  0.2372
  515MOL0     C67862   5.820   3.460   0.062 -0.5487 -0.3509 -0.0547
  515MOL0     C67863   5.672   3.428   0.079  1.0340 -0.0053  0.6160
  515MOL0     C67864   5.647   3.294   0.158  0.4081 -0.3559 -0.1726
  515MOL0     N67865   5.511   3.238   0.157 -0.6856  0.1214  0.4750
  515MOL0     C67866   5.481   3.104   0.192  0.2703 -0.7704  0.3414
  515MOL0     C67867   5.347   3.107   0.216 -0.2689 -1.2651  0.1859
  515MOL0     C67868   5.258   3.002   0.274 -0.6439 -0.0206 -0.0320
  515MOL0     C67869   5.119   3.010   0.217 -0.1746  0.5306 -0.2792
  515MOL0     C67870   5.099   2.989   0.066  1.0969  0.4783  0.1059
  515MOL0     C67871   4.958   3.024   0.022  0.2442  0.2321 -0.1277
  515MOL0     O67872   4.868   2.937   0.102  0.1986  0.2751  0.5394
  515MOL0     C67873   4.733   2.953   0.062 -0.0431  0.2045 -0.4765
  515MOL0     C67874   4.681   3.048  -0.031  0.0635 -0.4151 -0.5521
  515MOL0     C67875   4.552   3.046  -0.074 -0.4963 -0.3712 -0.0670
  515MOL0     C67876   4.460   2.967  -0.011  0.5808  0.0021 -0.4803
  515MOL0     C67877   4.313   2.995  -0.027  0.1589  1.0920  0.0668
  515MOL0     O67878   4.229   2.921   0.049 -0.2771 -0.1949  0.2775
  515MOL0     C67879   4.098   2.916   0.005  0.3273  0.1479  0.5593
  515MOL0     C67880   4.068   2.807  -0.083  0.4246 -0.5162  0.0418
  515MOL0     C67881   3.935   2.801  -0.133  0.6692 -0.3014  0.1831
  515MOL0     C67882   3.837   2.895  -0.095 -0.2296 -0.3407 -0.4261
  515MOL0     O67883   3.717   2.880  -0.152  0.2155  0.1791  0.1034
  515MOL0     C67884   3.602   2.900  -0.072  0.3248 -0.1145 -0.1780
  515MOL0     C67885   3.466   2.887  -0.147 -0.2971 -0.4533 -0.4449
  515MOL0     C67886   3.433   3.021  -0.211  0.3061 -0.5468  0.6350
  515MOL0     C67887   3.323   3.026  -0.319 -1.2367  0.2092  0.0661
  515MOL0     C67888   3.272   3.168  -0.339 -0.2631 -1.0619  0.5953
  515MOL0     C67889   3.195   3.186  -0.478  0.6387  0.4797  0.3798
  515MOL0     C67890   3.143   3.327  -0.503  0.0306 -0.8682 -0.1289
  515MOL0     C67891   3.054   3.330  -0.622 -0.9131 -0.1303 -0.3150
  515MOL0    Cl67892   2.986   3.495  -0.647 -0.0982  0.4977  0.2042
  515MOL0     C67893   3.871   2.991  -0.007 -0.3073 -0.5180  0.1802
  515MOL0     C67894   4.001   3.011   0.038  0.7152 -0.1332 -0.2893
  515MOL0     O67895   4.279   3.078  -0.112 -0.0357  0.2994 -0.3464
  515MOL0     C67896   4.511   2.864   0.069  0.4103 -0.2554  0.2669
  515MOL0     C67897   4.641   2.857   0.111  0.6742  0.0033 -0.1840
  515MOL0     N67898   5.300   3.238   0.191 -0.0390  0.0519 -0.6354
  515MOL0     N67899   5.394   3.316   0.147 -0.2718 -0.0634 -0.6089
  515MOL0     C67900   6.573   3.531   0.330  1.1945 -0.2597 -0.1439
  515MOL0     C67901   6.702   3.559   0.362  0.0233 -0.7185 -0.0078
  515MOL0     C67902   7.104   3.732   0.560 -0.3475 -1.0715 -0.3247
  515MOL0     C67903   7.157   3.727   0.434  0.0459  0.1107  0.4502
  515MOL0     C67904   7.287   3.774   0.407 -0.8097  0.0990 -0.6303
  515MOL0     C67905   7.364   3.831   0.509  0.1747 -0.1308  0.6439
  515MOL0     O67906   7.488   3.891   0.505  0.6813  0.6628  0.0121
  515MOL0     C67907   7.573   3.866   0.393  1.0590 -0.1636  0.5011
  515MOL0     C67908   7.680   3.969   0.391 -0.2490  0.5198 -0.7581
  515MOL0     C67909   7.775   3.971   0.503 -0.3765  0.6669 -0.1592
  515MOL0     C67910   7.852   4.096   0.505  0.8173 -0.2340  0.4732
  515MOL0     C67911   7.768   4.194   0.564  0.0963  0.6143  0.4979
  515MOL0     C67912   7.704   4.280   0.623 -0.1195 -0.3809 -0.3342
  515MOL0     C67913   7.320   3.824   0.642 -0.0632 -0.2335  0.0108
  515MOL0     C67914   7.191   3.777   0.658 -0.0890  0.0350 -0.3549
  515MOL0     H67915   6.663   3.761   0.640  1.7543 -1.3858  0.9505
  515MOL0     H67916   6.442   3.714   0.597 -1.4164  4.2111 -1.7264
  515MOL0     H67917   6.247   3.696   0.488  1.7308 -0.4711  0.6940
  515MOL0     H67918   6.260   3.527   0.537 -1.4952 -0.5552  0.8298
  515MOL0     H67919   6.040   3.513   0.443 -1.1310  3.1305  1.6412
  515MOL0     H67920   6.134   3.468   0.301 -1.0878  0.7194 -1.7963
  515MOL0     H67921   6.142   3.736   0.273  1.5644 -1.5343  4.5151
  515MOL0     H67922   5.993   3.727   0.358  0.1113 -0.2428  0.5517
  515MOL0     H67923   5.949   3.691   0.098  3.6251  0.2783 -1.9951
  515MOL0     H67924   6.066   3.563   0.109 -0.4310 -0.4634 -0.6831
  515MOL0     H67925   5.808   3.550   0.255  0.1730 -0.1170 -0.2924
  515MOL0     H67926   5.926   3.430   0.250 -1.3774  1.1293  3.3991
  515MOL0     H67927   5.883   3.374   0.038  2.4595  1.5981  0.3345
  515MOL0     H67928   5.833   3.532  -0.019 -0.0357 -0.5808 -0.1828
  515MOL0     H67929   5.621   3.511   0.130  0.4917 -0.6236  1.0886
  515MOL0     H67930   5.637   3.416  -0.024  1.4438 -0.3854  0.5195
  515MOL0     H67931   5.675   3.306   0.263 -3.2732 -0.1140  0.8942
  515MOL0     H67932   5.715   3.223   0.110 -0.3845 -1.0956 -0.2171
  515MOL0     H67933   5.552   3.024   0.211 -0.6931 -1.0694  3.1719
  515MOL0     H67934   5.250   3.002   0.383  0.4028 -2.9373  0.1205
  515MOL0     H67935   5.306   2.906   0.253  1.4977  1.2912 -1.5461
  515MOL0     H67936   5.072   3.106   0.239 -2.8680 -0.8592  0.5400
  515MOL0     H67937   5.061   2.933   0.270  0.9265 -0.9976 -1.2067
  515MOL0     H67938   5.166   3.057   0.012  0.0085 -1.1777 -3.6223
  515MOL0     H67939   5.124   2.887   0.035 -1.8097 -0.3265  0.1200
  515MOL0     H67940   4.953   3.012  -0.086 -1.5831  0.1067 -0.0632
  515MOL0     H67941   4.951   3.132   0.037  0.8431  0.4459 -1.2776
  515MOL0     H67942   4.748   3.125  -0.065 -1.1662  0.8899 -0.0953
  515MOL0     H67943   4.517   3.113  -0.152  0.7965 -0.0120 -0.3678
  515MOL0     H67944   4.147   2.737  -0.109  0.7841 -0.7248  1.6002
  515MOL0     H67945   3.897   2.716  -0.189  1.0462 -0.1942 -0.2482
  515MOL0     H67946   3.606   2.995  -0.018  2.5839 -0.2670  0.0180
  515MOL0     H67947   3.595   2.828   0.010  0.9372 -0.2910 -0.2778
  515MOL0     H67948   3.388   2.859  -0.077 -3.3978  1.0073 -3.0634
  515MOL0     H67949   3.457   2.806  -0.220 -2.2242 -1.9804  1.3738
  515MOL0     H67950   3.519   3.062  -0.265 -1.2608  3.1770  0.6027
  515MOL0     H67951   3.407   3.100  -0.139  3.5236  0.8521  0.4428
  515MOL0     H67952   3.364   2.992  -0.415  1.8649  0.6160  1.1271
  515MOL0     H67953   3.246   2.950  -0.303  1.4996 -3.0692 -1.0282
  515MOL0     H67954   3.357   3.237  -0.345 -0.2177 -1.2443 -2.9928
  515MOL0     H67955   3.205   3.191  -0.256 -1.0205 -1.2441  0.0441
  515MOL0     H67956   3.104   3.125  -0.471  0.2085  1.1354  0.6805
  515MOL0     H67957   3.256   3.144  -0.558 -2.5614 -2.7320 -0.6682
  515MOL0     H67958   3.092   3.363  -0.413 -2.0825 -1.0717 -1.1820
  515MOL0     H67959   3.218   3.404  -0.525  0.0286 -0.5262  0.9911
  515MOL0     H67960   2.974   3.255  -0.619 -0.3939 -0.7129 -0.7710
  515MOL0     H67961   3.102   3.302  -0.716 -1.7413  0.3192 -0.8901
  515MOL0     H67962   3.801   3.072   0.015  0.6389  1.7836 -4.0502
  515MOL0     H67963   4.015   3.102   0.095 -4.2755  2.5286 -2.5756
  515MOL0     H67964   4.438   2.803   0.122  2.5733 -0.9518  2.6139
  515MOL0     H67965   4.684   2.770   0.159  1.4654 -0.9333 -2.4405
  515MOL0     H67966   6.556   3.474   0.239 -0.4759  2.2743 -1.5402
  515MOL0     H67967   6.785   3.511   0.309  1.9049 -0.9017  2.8582
  515MOL0     H67968   7.107   3.687   0.346 -1.3006  0.7766  0.8873
  515MOL0     H67969   7.314   3.797   0.305 -0.1670  2.4414  0.0126
  515MOL0     H67970   7.509   3.885   0.306 -0.1661 -1.6053  1.0474
  515MOL0     H67971   7.613   3.766   0.380 -0.4158 -0.4306 -3.4513
  515MOL0     H67972   7.737   3.950   0.299  0.5564  2.8715 -0.8084
  515MOL0     H67973   7.635   4.068   0.384 -0.2122  0.5263 -0.9270
  515MOL0     H67974   7.844   3.888   0.482  0.0287  1.3198 -1.5483
  515MOL0     H67975   7.725   3.950   0.598 -1.3358 -0.4822 -0.8921
  515MOL0     H67976   7.947   4.097   0.559  0.9124  1.9679  0.3422
  515MOL0     H67977   7.873   4.130   0.404 -1.0250 -3.1093 -1.0282
  515MOL0     H67978   7.664   4.354   0.690  1.6256 -2.2306  2.9819
  515MOL0     H67979   7.374   3.855   0.731  0.7087 -0.2129 -0.4528
  515MOL0     H67980   7.151   3.776   0.759 -0.2005 -0.7678 -0.3973
  516MOL0     O67981   1.161   6.755   0.911  0.1436 -0.3300  0.0586
  516MOL0     C67982   1.183   6.632   0.915 -0.3624  0.1200  1.5034
  516MOL0     O67983   1.110   6.522   0.863 -0.3295 -0.9054 -0.2669
  516MOL0     C67984   0.991   6.557   0.808 -0.3026 -0.5463  0.0382
  516MOL0     C67985   0.985   6.633   0.694  0.3351 -0.9130  0.4316
  516MOL0     C67986   0.858   6.659   0.634  0.9042  0.7019  0.1430
  516MOL0     C67987   0.738   6.615   0.695  0.3272 -0.2652 -0.3094
  516MOL0     O67988   0.618   6.637   0.619 -0.7781 -0.3878 -0.4983
  516MOL0     C67989   0.503   6.584   0.683 -0.4316  0.1624  0.7166
  516MOL0     C67990   0.381   6.585   0.584 -0.5109 -0.3316 -0.5163
  516MOL0     C67991   0.245   6.595   0.656 -0.2945  0.2874 -0.2332
  516MOL0     C67992   0.129   6.535   0.576  0.0928 -0.1916 -1.0832
  516MOL0     C67993  -0.015   6.549   0.629 -0.1977 -0.5560  0.6079
  516MOL0     C67994  -0.064   6.688   0.607  1.0913  0.0870  0.0087
  516MOL0     C67995  -0.205   6.700   0.655 -0.4373  0.8791 -1.0278
  516MOL0     C67996  -0.232   6.845   0.698  0.6811  0.3594 -0.5940
  516MOL0     N67997  -0.377   6.866   0.746  0.4608  0.5460  0.2343
  516MOL0     C67998  -0.492   6.843   0.662 -0.0929  0.2227  0.1055
  516MOL0     C67999  -0.596   6.874   0.747  0.3660  0.4817  0.3574
  516MOL0     C68000  -0.742   6.861   0.737 -0.0192  0.1988  0.4238
  516MOL0     C68001  -0.786   6.832   0.592  0.0800 -1.0789  0.6813
  516MOL0     C68002  -0.932   6.843   0.553 -0.0963  0.5064  0.1720
  516MOL0     C68003  -0.990   6.980   0.532  0.0383 -0.1447  0.2351
  516MOL0     O68004  -1.099   6.963   0.442  0.5045  0.2119  0.4715
  516MOL0     C68005  -1.190   7.059   0.439 -0.1984  0.5625  0.6108
  516MOL0     C68006  -1.320   7.030   0.382 -0.3538 -0.2171 -1.4071
  516MOL0     C68007  -1.404   7.140   0.355 -0.2480 -0.1075  0.8208
  516MOL0     C68008  -1.370   7.275   0.381 -0.3552  0.1938  0.3206
  516MOL0     C68009  -1.462   7.389   0.348 -0.3583  0.8534  0.5902
  516MOL0     O68010  -1.588   7.369   0.293  0.9940  0.2391  0.3216
  516MOL0     C68011  -1.671   7.480   0.278  0.1422 -0.6244 -0.4089
  516MOL0     C68012  -1.721   7.550   0.388  0.0178  0.0191  0.1026
  516MOL0     C68013  -1.799   7.669   0.370 -0.5171  1.6963 -0.1290
  516MOL0     C68014  -1.849   7.701   0.249 -0.0243 -0.0829  1.5780
  516MOL0     O68015  -1.940   7.807   0.246  0.4431  0.1156  0.3325
  516MOL0     C68016  -1.922   7.906   0.146  0.1975 -0.3065  0.2549
  516MOL0     C68017  -1.971   8.041   0.199  0.0919  0.2618  0.2454
  516MOL0     C68018  -2.128   8.042   0.219 -0.0285  0.4530  0.9585
  516MOL0     C68019  -2.175   8.180   0.278  0.1804 -0.3301 -0.6152
  516MOL0     C68020  -2.329   8.208   0.255 -0.2610 -0.3221  0.2891
  516MOL0     C68021  -2.427   8.120   0.343 -0.5987 -0.6295  0.2741
  516MOL0     C68022  -2.573   8.139   0.317  0.6749  0.6686  0.3242
  516MOL0     C68023  -2.664   8.043   0.403 -0.0058 -0.3611  0.0382
  516MOL0    Cl68024  -2.708   7.896   0.319  0.2146 -0.1666 -0.2067
  516MOL0     C68025  -1.815   7.624   0.135  0.0585 -0.2776 -0.1570
  516MOL0     C68026  -1.730   7.518   0.155 -0.2450  0.3679  0.1195
  516MOL0     O68027  -1.419   7.505   0.374  0.2593  0.1537  0.2975
  516MOL0     C68028  -1.255   7.297   0.451 -1.2038 -1.2179  0.1999
  516MOL0     C68029  -1.159   7.196   0.481  0.0904 -0.4548  0.1963
  516MOL0     N68030  -0.548   6.915   0.868  1.0234  0.2217 -1.2312
  516MOL0     N68031  -0.425   6.913   0.869  0.4220  0.1640  0.3204
  516MOL0     C68032   0.744   6.535   0.815 -0.5159  0.3248  0.6099
  516MOL0     C68033   0.871   6.501   0.862  0.1443  0.5011  0.3007
  516MOL0     C68034   1.297   6.598   1.000  0.0211 -0.0020  1.0477
  516MOL0     C68035   1.323   6.684   1.111  0.2077  0.4435  0.2231
  516MOL0     C68036   1.434   6.666   1.195  0.4416 -0.1524 -0.0548
  516MOL0     C68037   1.514   6.549   1.173  0.4138 -0.1162 -0.0081
  516MOL0     O68038   1.627   6.519   1.252  0.3191  0.0515  0.6938
  516MOL0     C68039   1.674   6.616   1.339 -0.2064  0.4043  0.7742
  516MOL0     C68040   1.796   6.565   1.415 -0.0859  0.1055  0.4481
  516MOL0     C68041   1.926   6.579   1.343 -0.1122 -0.6298  0.4207
  516MOL0     C68042   2.044   6.539   1.440 -0.4631  0.1345 -0.2002
  516MOL0     C68043   2.176   6.593   1.388  0.7354 -0.2164 -1.1736
  516MOL0     C68044   2.273   6.641   1.340  1.4264  0.1916 -0.5114
  516MOL0     C68045   1.495   6.466   1.065  0.8639  0.1258 -0.8353
  516MOL0     C68046   1.391   6.495   0.981 -0.4570 -0.1421  0.3713
  516MOL0     H68047   1.070   6.677   0.641 -1.8218  1.4829 -1.2891
  516MOL0     H68048   0.857   6.707   0.536  2.0238 -0.5897 -0.5352
  516MOL0     H68049   0.472   6.650   0.765 -1.6426  1.3423 -0.6285
  516MOL0     H68050   0.506   6.485   0.730  0.4547  0.2372  0.8442
  516MOL0     H68051   0.376   6.497   0.519  1.5541  0.2947 -1.6200
  516MOL0     H68052   0.391   6.670   0.516  1.0570 -0.4795 -0.5279
  516MOL0     H68053   0.213   6.692   0.696  0.8667  0.0591  1.3429
  516MOL0     H68054   0.246   6.534   0.746 -1.9719  0.8674  0.2188
  516MOL0     H68055   0.133   6.583   0.478 -0.6818 -0.8687 -1.4644
  516MOL0     H68056   0.142   6.427   0.562  1.9745 -0.0445 -0.6652
  516MOL0     H68057  -0.014   6.520   0.735  1.4291  1.3634  1.1725
  516MOL0     H68058  -0.078   6.479   0.573 -1.5963  2.5243 -1.9667
  516MOL0     H68059  -0.054   6.714   0.501  0.9322  2.3605  0.4982
  516MOL0     H68060  -0.007   6.755   0.671 -1.8003 -0.4710  3.4937
  516MOL0     H68061  -0.276   6.674   0.576 -0.7748  1.9126 -1.0809
  516MOL0     H68062  -0.216   6.626   0.735 -1.6545  1.7757 -0.3220
  516MOL0     H68063  -0.221   6.911   0.612 -1.5430  0.6992 -0.6857
  516MOL0     H68064  -0.165   6.880   0.776 -1.9422 -1.2065  2.6511
  516MOL0     H68065  -0.499   6.801   0.562 -1.0470  3.7749 -1.4582
  516MOL0     H68066  -0.784   6.958   0.764 -0.3657  0.1108  0.2019
  516MOL0     H68067  -0.766   6.780   0.805 -2.2515 -0.6682 -1.2951
  516MOL0     H68068  -0.761   6.727   0.571 -0.7619 -1.1880  0.2125
  516MOL0     H68069  -0.722   6.892   0.527  1.5087 -1.6210  1.5269
  516MOL0     H68070  -0.946   6.796   0.456 -0.1443 -0.0364  0.4384
  516MOL0     H68071  -0.993   6.783   0.621 -2.2572  1.6403 -0.6781
  516MOL0     H68072  -0.927   7.061   0.493 -0.6628 -1.0340 -3.0502
  516MOL0     H68073  -1.022   7.019   0.629 -1.3253 -2.0149  0.5887
  516MOL0     H68074  -1.338   6.926   0.355  2.4494 -2.2328  3.2214
  516MOL0     H68075  -1.492   7.116   0.296  0.3913  0.7366 -0.5065
  516MOL0     H68076  -1.698   7.512   0.487 -0.5141 -1.0207 -0.1598
  516MOL0     H68077  -1.833   7.714   0.462 -0.0766 -1.6051  1.8289
  516MOL0     H68078  -1.978   7.889   0.054 -0.4499  0.2752  0.5378
  516MOL0     H68079  -1.819   7.923   0.113  0.0312  0.3459  0.0608
  516MOL0     H68080  -1.940   8.118   0.129 -1.3741 -0.9883 -1.9009
  516MOL0     H68081  -1.926   8.053   0.298 -3.2716 -1.4189  2.1831
  516MOL0     H68082  -2.159   7.957   0.281 -2.3687  1.6548  1.5723
  516MOL0     H68083  -2.193   8.020   0.134  0.2104 -2.0696  1.3696
  516MOL0     H68084  -2.176   8.170   0.387 -2.7750 -2.6075 -0.7094
  516MOL0     H68085  -2.129   8.267   0.231 -1.6563 -0.3467 -2.5812
  516MOL0     H68086  -2.365   8.189   0.154 -0.5966  0.7665  0.1855
  516MOL0     H68087  -2.347   8.313   0.280 -0.1744  0.3485 -2.2440
  516MOL0     H68088  -2.409   8.153   0.446 -1.4699  0.1272  0.1994
  516MOL0     H68089  -2.395   8.016   0.330  3.5938  0.4276  0.4667
  516MOL0     H68090  -2.607   8.241   0.341  1.2821  0.9173  0.1386
  516MOL0     H68091  -2.597   8.115   0.213 -0.2214  1.4034  0.3446
  516MOL0     H68092  -2.756   8.098   0.424 -0.2486 -0.6343 -0.2914
  516MOL0     H68093  -2.610   8.018   0.495 -0.7986 -1.2907  0.2715
  516MOL0     H68094  -1.854   7.654   0.039 -0.4130 -0.2273  0.0469
  516MOL0     H68095  -1.691   7.462   0.071 -0.7115 -1.7808  1.2382
  516MOL0     H68096  -1.220   7.397   0.476 -1.6076 -0.7783 -0.9582
  516MOL0     H68097  -1.073   7.232   0.537  0.1400  1.9960 -1.3198
  516MOL0     H68098   0.654   6.500   0.865  0.9905  0.3130  3.5070
  516MOL0     H68099   0.871   6.440   0.953  4.6748  2.0082  1.5835
  516MOL0     H68100   1.252   6.767   1.115  1.1290  1.2883 -0.3652
  516MOL0     H68101   1.460   6.734   1.275  3.1268  0.8186 -1.6411
  516MOL0     H68102   1.596   6.637   1.413 -1.1323  0.9522 -0.3346
  516MOL0     H68103   1.685   6.707   1.280  0.2143 -1.0783 -1.5472
  516MOL0     H68104   1.810   6.625   1.505  2.3978  3.2948 -1.8386
  516MOL0     H68105   1.770   6.462   1.440  1.3258 -0.8528 -1.7239
  516MOL0     H68106   1.936   6.686   1.322  0.5480 -0.4981  1.3504
  516MOL0     H68107   1.909   6.518   1.254 -2.4222  1.6556 -0.8352
  516MOL0     H68108   2.035   6.576   1.542 -1.8506 -2.7719  0.8586
  516MOL0     H68109   2.051   6.430   1.450 -1.7238 -0.1757 -2.1784
  516MOL0     H68110   2.365   6.685   1.308 -0.7361  3.5583 -2.7937
  516MOL0     H68111   1.575   6.392   1.062 -0.2420 -1.2341  1.1249
  516MOL0     H68112   1.393   6.438   0.889  0.8830  0.0623  0.2461
  517MOL0     O68113   9.428   4.500   2.796  0.7957 -0.3649 -0.6602
  517MOL0     C68114   9.399   4.417   2.707 -0.1642  0.6983  0.3477
  517MOL0     O68115   9.482   4.357   2.615 -0.0984  0.0363  0.2587
  517MOL0     C68116   9.618   4.372   2.622 -0.5377  0.2436  0.4389
  517MOL0     C68117   9.701   4.258   2.617 -0.0075  0.6380 -0.4526
  517MOL0     C68118   9.842   4.265   2.614 -0.0661 -0.2646  0.0464
  517MOL0     C68119   9.898   4.397   2.609 -0.7757 -0.7610 -0.1726
  517MOL0     O68120  10.031   4.417   2.595  0.1994  0.4431 -0.1208
  517MOL0     C68121  10.127   4.344   2.668 -0.0258 -1.0092  0.0649
  517MOL0     C68122  10.221   4.439   2.720 -0.3427  0.1499  0.4073
  517MOL0     C68123  10.347   4.436   2.634  0.0239 -0.0366  0.4828
  517MOL0     C68124  10.444   4.539   2.678  0.5104  0.0583 -0.1853
  517MOL0     C68125  10.575   4.513   2.606  0.1111  0.3311  0.1084
  517MOL0     C68126  10.672   4.635   2.604  0.1238  0.1130  0.4063
  517MOL0     C68127  10.624   4.760   2.524  0.1806  0.1673 -0.6107
  517MOL0     C68128  10.577   4.745   2.379  1.1041 -0.1144 -0.3318
  517MOL0     N68129  10.547   4.878   2.314  0.3069  0.6004 -0.1481
  517MOL0     C68130  10.457   4.975   2.363  0.0929 -0.0949 -0.7753
  517MOL0     C68131  10.488   5.085   2.280  0.2914  0.8050 -0.7636
  517MOL0     C68132  10.437   5.223   2.280  0.1013  0.8302 -0.7960
  517MOL0     C68133  10.292   5.245   2.325 -0.6184  0.5902  0.8068
  517MOL0     C68134  10.267   5.395   2.314 -0.2567 -0.0545 -0.2374
  517MOL0     C68135  10.134   5.443   2.377  0.3510 -0.8611  1.0221
  517MOL0     O68136  10.030   5.351   2.337 -0.6181 -0.7412  0.0554
  517MOL0     C68137   9.913   5.395   2.278 -0.6834  0.3121 -0.5285
  517MOL0     C68138   9.900   5.516   2.222 -0.2019  0.4498 -0.6666
  517MOL0     C68139   9.783   5.554   2.165  0.1317 -0.4136  0.3657
  517MOL0     C68140   9.672   5.475   2.164 -0.1921 -0.5528  0.3349
  517MOL0     C68141   9.547   5.515   2.098  0.1083 -0.0443 -0.4699
  517MOL0     O68142   9.550   5.633   2.035 -0.0215  0.0342 -0.3061
  517MOL0     C68143   9.446   5.671   1.960  0.6708  1.0855  0.7171
  517MOL0     C68144   9.473   5.732   1.838  0.0033 -0.3086  0.5240
  517MOL0     C68145   9.372   5.773   1.745  0.6128 -0.1152 -0.2254
  517MOL0     C68146   9.240   5.778   1.792  0.2239 -0.7722 -0.2179
  517MOL0     O68147   9.137   5.816   1.700  0.3582 -0.0660  0.1565
  517MOL0     C68148   8.992   5.787   1.735  0.5778  0.5969  0.8119
  517MOL0     C68149   8.893   5.807   1.614 -0.3657 -0.0583  1.2523
  517MOL0     C68150   8.748   5.785   1.636  0.6772 -0.8298  0.3115
  517MOL0     C68151   8.679   5.906   1.713  0.0546  0.4424  0.2255
  517MOL0     C68152   8.540   5.873   1.777 -0.4357 -0.6295 -0.1496
  517MOL0     C68153   8.432   5.833   1.675 -0.2279 -0.5612  0.4002
  517MOL0     C68154   8.309   5.808   1.756  0.8480 -0.0434  1.2551
  517MOL0     C68155   8.212   5.710   1.688  0.1364 -0.5221  0.9274
  517MOL0    Cl68156   8.064   5.674   1.786  0.1711  0.2374  0.2525
  517MOL0     C68157   9.222   5.755   1.925  0.0335  0.2386 -0.5407
  517MOL0     C68158   9.313   5.677   1.997  1.0425  0.0745  0.1186
  517MOL0     O68159   9.450   5.440   2.100  0.0077 -0.9186  0.8437
  517MOL0     C68160   9.681   5.355   2.217  0.4247 -0.0628 -0.4833
  517MOL0     C68161   9.800   5.306   2.276  0.4309  0.7699 -0.2412
  517MOL0     N68162  10.588   5.055   2.198  0.0662  0.4299  0.1586
  517MOL0     N68163  10.619   4.929   2.212  1.1550  0.5799  0.9535
  517MOL0     C68164   9.814   4.508   2.598  0.7760  0.5091  0.7215
  517MOL0     C68165   9.678   4.498   2.603 -0.9267  0.3006 -0.4514
  517MOL0     C68166   9.264   4.382   2.675  0.3648 -0.8560 -0.3675
  517MOL0     C68167   9.230   4.289   2.575 -0.0346  0.5511 -1.2395
  517MOL0     C68168   9.093   4.264   2.556  0.0853  0.4961  0.0265
  517MOL0     C68169   8.986   4.314   2.637 -0.7847  0.2174  0.0114
  517MOL0     O68170   8.861   4.258   2.609  0.0128  0.5721 -0.1919
  517MOL0     C68171   8.746   4.327   2.661 -0.3409 -0.0951 -0.1281
  517MOL0     C68172   8.618   4.252   2.635  0.3014  0.4372  0.3075
  517MOL0     C68173   8.592   4.245   2.482  0.5659  0.2376 -0.2955
  517MOL0     C68174   8.500   4.133   2.452 -0.2704  0.2855 -0.1996
  517MOL0     C68175   8.355   4.168   2.472 -0.3915 -0.1953 -0.4250
  517MOL0     C68176   8.239   4.192   2.487  1.0389 -0.0325 -0.8877
  517MOL0     C68177   9.028   4.407   2.731  0.3955  0.3580 -0.5171
  517MOL0     C68178   9.162   4.442   2.750 -0.7675 -0.5058 -0.2368
  517MOL0     H68179   9.660   4.158   2.627  2.2512 -0.3561 -0.6060
  517MOL0     H68180   9.894   4.172   2.632  0.8511  0.3886  0.9239
  517MOL0     H68181  10.178   4.273   2.602 -1.2887 -1.1563 -0.7939
  517MOL0     H68182  10.078   4.284   2.746 -2.9343 -1.4697 -1.9165
  517MOL0     H68183  10.250   4.407   2.821  2.5050  1.7379  0.1969
  517MOL0     H68184  10.179   4.540   2.710 -1.2323 -0.3989 -1.7992
  517MOL0     H68185  10.316   4.448   2.530  0.2518 -1.1842  0.2738
  517MOL0     H68186  10.397   4.339   2.638 -0.1136 -0.1217  0.0964
  517MOL0     H68187  10.410   4.640   2.653 -1.7462 -0.5454  0.1879
  517MOL0     H68188  10.470   4.534   2.785  0.3283 -1.2899 -0.1900
  517MOL0     H68189  10.547   4.497   2.501 -2.1943  3.3380  0.1386
  517MOL0     H68190  10.620   4.426   2.655  0.7403  1.0373  0.7995
  517MOL0     H68191  10.767   4.604   2.561 -0.2467 -1.1732  0.4717
  517MOL0     H68192  10.697   4.665   2.706  0.6673 -2.4027  1.0703
  517MOL0     H68193  10.545   4.803   2.587  2.2622  1.0679  1.5601
  517MOL0     H68194  10.707   4.832   2.520  0.8904 -0.5800  0.0493
  517MOL0     H68195  10.486   4.685   2.376  1.2448 -0.3510 -0.0513
  517MOL0     H68196  10.660   4.694   2.329 -0.2473 -0.9549 -1.8254
  517MOL0     H68197  10.380   4.976   2.439  0.8723  1.4217  0.0427
  517MOL0     H68198  10.449   5.260   2.178 -1.4928  1.6497 -0.7047
  517MOL0     H68199  10.511   5.276   2.340  0.3062  0.8234 -1.0379
  517MOL0     H68200  10.273   5.212   2.428 -0.4494  1.3576  1.0841
  517MOL0     H68201  10.230   5.193   2.251  0.5644  1.0480 -0.5344
  517MOL0     H68202  10.351   5.439   2.370 -0.6519 -0.5789  0.7941
  517MOL0     H68203  10.276   5.442   2.216  0.8123  0.6344  0.1708
  517MOL0     H68204  10.125   5.548   2.349  3.1748 -0.6987  0.4906
  517MOL0     H68205  10.135   5.444   2.486  0.5470 -1.6641  1.0369
  517MOL0     H68206   9.988   5.577   2.208  1.2265 -1.8774 -2.5258
  517MOL0     H68207   9.790   5.652   2.118 -1.6507 -0.8489 -0.9238
  517MOL0     H68208   9.570   5.724   1.790  0.5074 -0.5528  1.5726
  517MOL0     H68209   9.386   5.786   1.639 -1.3282  0.6108 -0.4351
  517MOL0     H68210   8.955   5.847   1.819 -0.8545  0.6532  0.1684
  517MOL0     H68211   8.966   5.685   1.763 -1.2677  0.6476 -0.5358
  517MOL0     H68212   8.916   5.742   1.529  0.3782  2.7821 -0.8494
  517MOL0     H68213   8.915   5.905   1.572  1.0688 -1.3460 -1.1727
  517MOL0     H68214   8.742   5.690   1.689 -2.1026 -1.2819 -0.6529
  517MOL0     H68215   8.689   5.775   1.545 -0.4578  1.6139  0.6750
  517MOL0     H68216   8.748   5.932   1.794 -1.4642 -1.9575  2.4509
  517MOL0     H68217   8.664   5.996   1.653  0.1766 -0.5628 -1.3572
  517MOL0     H68218   8.502   5.963   1.826 -1.6936 -0.6419 -1.0749
  517MOL0     H68219   8.552   5.797   1.855  1.2455  0.8311  1.1184
  517MOL0     H68220   8.463   5.743   1.621 -1.7614 -0.4253 -0.7608
  517MOL0     H68221   8.413   5.912   1.601 -1.8788 -0.5399  0.8225
  517MOL0     H68222   8.329   5.778   1.859  0.9442 -0.3166  1.1583
  517MOL0     H68223   8.256   5.904   1.755  1.8044  0.4895  0.5703
  517MOL0     H68224   8.264   5.617   1.663 -0.2121 -0.5273  0.1646
  517MOL0     H68225   8.176   5.747   1.591 -1.6727 -2.5932  0.7235
  517MOL0     H68226   9.123   5.773   1.966  0.0714  1.2974 -0.8857
  517MOL0     H68227   9.290   5.659   2.101 -0.1919  1.0569  0.0432
  517MOL0     H68228   9.593   5.291   2.217  1.4090 -1.4791 -0.2919
  517MOL0     H68229   9.795   5.201   2.306 -0.9433  1.1492  0.9950
  517MOL0     H68230   9.846   4.610   2.586 -1.1744  0.9631 -1.3816
  517MOL0     H68231   9.611   4.583   2.598 -1.6907 -0.1334  1.5534
  517MOL0     H68232   9.301   4.223   2.526  0.0574 -1.3588  1.2700
  517MOL0     H68233   9.066   4.193   2.478  4.7091 -1.2397 -0.3203
  517MOL0     H68234   8.741   4.428   2.618 -1.4696 -0.1400 -0.1451
  517MOL0     H68235   8.763   4.344   2.768 -1.8171 -0.6832  0.2230
  517MOL0     H68236   8.633   4.152   2.676 -0.5203 -1.3824 -3.3916
  517MOL0     H68237   8.538   4.301   2.692 -1.9526 -0.0799 -2.2480
  517MOL0     H68238   8.687   4.219   2.434  0.4649  1.9039 -1.4600
  517MOL0     H68239   8.559   4.340   2.440  0.1444  1.2566  2.1752
  517MOL0     H68240   8.522   4.108   2.348 -0.9770 -0.8862 -0.0925
  517MOL0     H68241   8.535   4.044   2.504  2.1671  2.0559  1.3970
  517MOL0     H68242   8.137   4.224   2.493  1.0094  0.5787 -3.5022
  517MOL0     H68243   8.951   4.444   2.798 -1.1966 -4.1749  0.4734
  517MOL0     H68244   9.187   4.521   2.821 -1.8907  0.7891 -1.2435
  518MOL0     O68245   5.953   5.620   2.418 -0.4361 -1.1429  0.6185
  518MOL0     C68246   6.015   5.649   2.521 -0.3305  0.0127 -0.6140
  518MOL0     O68247   5.963   5.685   2.639  0.7670 -0.5126 -0.8060
  518MOL0     C68248   5.828   5.717   2.641  0.4491 -0.5833 -0.4132
  518MOL0     C68249   5.728   5.617   2.634 -0.2951  0.0400  0.7318
  518MOL0     C68250   5.590   5.647   2.658 -0.0776  0.7360  0.1184
  518MOL0     C68251   5.555   5.782   2.673  0.5809  0.3835 -0.0371
  518MOL0     O68252   5.422   5.817   2.668 -0.0260  0.3156 -0.2877
  518MOL0     C68253   5.373   5.931   2.740 -0.0523 -0.9978 -0.0934
  518MOL0     C68254   5.226   5.919   2.759  0.2009  0.2653  0.0989
  518MOL0     C68255   5.161   6.026   2.841  0.0851 -0.2194  0.6329
  518MOL0     C68256   5.013   6.000   2.866 -0.2024 -0.0544  0.4207
  518MOL0     C68257   4.940   6.123   2.922  0.1990  0.1324 -0.1234
  518MOL0     C68258   4.820   6.091   3.011 -0.6130 -0.5998  0.3940
  518MOL0     C68259   4.686   6.077   2.942  0.0684 -0.3258  0.5301
  518MOL0     C68260   4.580   6.036   3.048 -0.3790 -0.0181 -0.1812
  518MOL0     N68261   4.441   6.062   2.995  0.5345  0.0379  0.1988
  518MOL0     C68262   4.366   6.176   3.018 -0.0902  0.0825  0.3145
  518MOL0     C68263   4.243   6.150   2.955 -0.1987 -0.5935  0.0620
  518MOL0     C68264   4.127   6.243   2.932  0.4534 -0.3928 -0.7870
  518MOL0     C68265   3.991   6.183   2.876 -0.3098 -0.2375 -0.1528
  518MOL0     C68266   3.875   6.287   2.872 -0.3747  0.3800  0.5148
  518MOL0     C68267   3.728   6.226   2.869 -0.2571  0.4014 -0.0666
  518MOL0     O68268   3.635   6.337   2.867 -0.6361 -0.5998 -0.5208
  518MOL0     C68269   3.496   6.312   2.866 -0.6680 -0.3425 -1.0470
  518MOL0     C68270   3.405   6.417   2.845  0.4358  0.0547  0.1965
  518MOL0     C68271   3.269   6.407   2.830  0.6236  0.3372 -0.8323
  518MOL0     C68272   3.213   6.280   2.862  0.1149  1.2436  0.9086
  518MOL0     C68273   3.072   6.238   2.845 -0.4486  0.0865 -0.5041
  518MOL0     O68274   3.024   6.115   2.885  0.7149 -0.0533  0.2931
  518MOL0     C68275   2.888   6.093   2.880  0.2978 -0.2433 -0.1732
  518MOL0     C68276   2.816   6.035   2.976  0.7253  0.1230 -0.2654
  518MOL0     C68277   2.681   5.994   2.957 -0.2998 -0.9829 -0.3600
  518MOL0     C68278   2.615   6.023   2.842  0.8548  0.8839  0.2606
  518MOL0     O68279   2.479   5.994   2.836 -0.3926 -0.6421  0.0689
  518MOL0     C68280   2.407   6.000   2.711  0.1182  0.2330 -0.8950
  518MOL0     C68281   2.353   6.143   2.710 -0.3789 -0.4346 -0.3229
  518MOL0     C68282   2.261   6.173   2.589  1.3820  0.5647 -0.0060
  518MOL0     C68283   2.199   6.308   2.617 -0.4223 -0.3549  0.3787
  518MOL0     C68284   2.125   6.346   2.490  0.7092 -0.5099 -0.9958
  518MOL0     C68285   2.005   6.256   2.451 -0.2385 -0.0698  0.3338
  518MOL0     C68286   1.917   6.322   2.348  1.1124 -0.0825 -0.7025
  518MOL0     C68287   1.805   6.227   2.318  0.3515  0.6118 -0.0609
  518MOL0    Cl68288   1.715   6.299   2.182  0.0395 -0.0038 -0.2663
  518MOL0     C68289   2.688   6.069   2.728 -0.5621 -0.6205 -0.1413
  518MOL0     C68290   2.824   6.100   2.751 -0.5029  0.0891 -0.0962
  518MOL0     O68291   2.996   6.330   2.808 -0.1930  0.0597  1.0997
  518MOL0     C68292   3.301   6.175   2.878  0.2838 -0.7753  0.6483
  518MOL0     C68293   3.443   6.187   2.880  0.8523  0.9647  0.1168
  518MOL0     N68294   4.249   6.019   2.915 -0.1735  0.6543  0.5963
  518MOL0     N68295   4.360   5.974   2.927 -0.3529  0.5078 -0.5526
  518MOL0     C68296   5.652   5.879   2.685 -0.9202 -0.7064 -0.5958
  518MOL0     C68297   5.786   5.846   2.674  0.4364 -0.4154  0.7538
  518MOL0     C68298   6.158   5.665   2.522  0.3213  0.8101 -0.6834
  518MOL0     C68299   6.244   5.581   2.461 -0.4564 -0.5279  0.4732
  518MOL0     C68300   6.383   5.602   2.457  0.1803  1.2756 -0.0359
  518MOL0     C68301   6.441   5.705   2.534  0.1011 -0.3170  0.4880
  518MOL0     O68302   6.577   5.719   2.537 -0.0062  0.1802 -0.0873
  518MOL0     C68303   6.651   5.668   2.654  0.8201 -0.3525  0.3817
  518MOL0     C68304   6.755   5.563   2.609  0.6025  0.1484  0.0718
  518MOL0     C68305   6.854   5.610   2.496  0.1037 -0.4119  0.2101
  518MOL0     C68306   6.916   5.753   2.506 -0.1981  0.0560 -0.1639
  518MOL0     C68307   6.987   5.777   2.631  0.1256  0.9050 -0.7621
  518MOL0     C68308   7.051   5.770   2.739 -0.7417  0.2202 -0.6790
  518MOL0     C68309   6.357   5.801   2.598  0.4545  0.0284  1.4145
  518MOL0     C68310   6.217   5.778   2.595 -0.6973 -0.2263 -1.3104
  518MOL0     H68311   5.752   5.514   2.608  0.3028  0.3332  0.0882
  518MOL0     H68312   5.513   5.570   2.652  0.5981 -0.0779  1.3940
  518MOL0     H68313   5.405   6.026   2.698  0.2876 -1.9309 -2.0667
  518MOL0     H68314   5.418   5.941   2.840  0.0992 -3.5061  0.1606
  518MOL0     H68315   5.197   5.822   2.800 -0.5181  0.0045 -0.9836
  518MOL0     H68316   5.193   5.918   2.655 -0.3907  3.3414  0.1688
  518MOL0     H68317   5.167   6.110   2.771  0.4880 -0.2995  0.5730
  518MOL0     H68318   5.216   6.060   2.929 -0.5691  0.9966  0.6092
  518MOL0     H68319   4.961   5.971   2.775  1.8691 -5.4355  0.6239
  518MOL0     H68320   4.998   5.916   2.934 -3.3579 -1.9277 -2.2908
  518MOL0     H68321   4.908   6.179   2.834  1.3395 -0.1862 -0.7611
  518MOL0     H68322   5.016   6.179   2.977 -0.1561  0.0387  0.4709
  518MOL0     H68323   4.811   6.185   3.066  0.4871  0.6676 -1.4700
  518MOL0     H68324   4.834   6.000   3.071  2.9809 -0.4350  0.0270
  518MOL0     H68325   4.660   6.176   2.902  0.0689 -0.7956 -0.6581
  518MOL0     H68326   4.686   6.011   2.855  1.1549  0.3502 -0.0150
  518MOL0     H68327   4.591   6.100   3.136 -1.2816 -0.0420 -0.0506
  518MOL0     H68328   4.605   5.931   3.066 -1.2587 -0.0884  0.7180
  518MOL0     H68329   4.392   6.270   3.067 -2.5201  2.2520 -2.2136
  518MOL0     H68330   4.159   6.300   2.844 -1.1598  0.8209 -0.6298
  518MOL0     H68331   4.110   6.300   3.023  0.4734 -2.3106  0.4707
  518MOL0     H68332   3.971   6.095   2.936  0.8605 -1.1370 -1.0431
  518MOL0     H68333   4.006   6.147   2.774  1.6136  0.5312 -0.1712
  518MOL0     H68334   3.876   6.354   2.959 -1.0797 -0.2226  1.0021
  518MOL0     H68335   3.892   6.350   2.785  1.3410  1.5980  1.6571
  518MOL0     H68336   3.715   6.169   2.962  2.7687 -0.8498 -0.3092
  518MOL0     H68337   3.722   6.167   2.777 -2.6601 -0.0423  0.3096
  518MOL0     H68338   3.453   6.514   2.836 -0.1011  0.2830 -0.2414
  518MOL0     H68339   3.204   6.493   2.814  0.0984 -0.0895 -1.0310
  518MOL0     H68340   2.873   6.023   3.068  1.0284  0.3504 -0.4258
  518MOL0     H68341   2.624   5.969   3.046 -1.3473 -0.1018 -0.7609
  518MOL0     H68342   2.321   5.932   2.718 -0.1353  0.5938 -0.4569
  518MOL0     H68343   2.462   5.978   2.619  0.1493  0.9677 -1.0583
  518MOL0     H68344   2.431   6.219   2.703 -2.0820  1.5762  1.2292
  518MOL0     H68345   2.293   6.169   2.798 -1.8352  1.8016 -1.8655
  518MOL0     H68346   2.175   6.109   2.608  0.7808  2.3523  4.5593
  518MOL0     H68347   2.317   6.152   2.497 -1.3539 -3.1398 -1.0552
  518MOL0     H68348   2.127   6.296   2.699 -2.7658 -2.2378 -1.7658
  518MOL0     H68349   2.271   6.387   2.636 -0.6259  0.5797 -2.4073
  518MOL0     H68350   2.190   6.342   2.402 -1.6912 -1.2865 -2.8683
  518MOL0     H68351   2.095   6.451   2.495  2.9119  0.1667 -1.0790
  518MOL0     H68352   1.946   6.260   2.543  1.9115  2.6793  1.7886
  518MOL0     H68353   2.030   6.158   2.411 -0.9813 -0.3458  0.5414
  518MOL0     H68354   1.862   6.404   2.394 -0.6478 -0.2639 -2.3474
  518MOL0     H68355   1.980   6.349   2.263  3.5662 -2.0997  0.3414
  518MOL0     H68356   1.745   6.208   2.408  1.9959 -0.1323  0.9481
  518MOL0     H68357   1.840   6.126   2.293 -2.0390 -0.1542 -0.5871
  518MOL0     H68358   2.641   6.093   2.633 -0.7441  2.3752  0.5864
  518MOL0     H68359   2.874   6.135   2.662 -2.4623  0.5334 -1.0721
  518MOL0     H68360   3.261   6.075   2.892  0.0281 -1.0771 -1.7715
  518MOL0     H68361   3.492   6.090   2.878  0.0310  0.4591  2.1950
  518MOL0     H68362   5.626   5.980   2.714  0.6357 -1.2072  3.0987
  518MOL0     H68363   5.865   5.919   2.683  0.4081  0.0667 -1.9973
  518MOL0     H68364   6.197   5.494   2.415 -1.8399 -0.1415  1.0898
  518MOL0     H68365   6.449   5.535   2.403  1.3043 -0.1824  2.8756
  518MOL0     H68366   6.582   5.628   2.730  0.6234  0.0764  0.4295
  518MOL0     H68367   6.696   5.753   2.706  0.8534  0.1879 -0.5190
  518MOL0     H68368   6.819   5.541   2.695  0.1480 -0.2945  0.3050
  518MOL0     H68369   6.688   5.478   2.588  1.9279 -0.5120 -1.8002
  518MOL0     H68370   6.804   5.600   2.399  1.7654  0.9282 -0.8171
  518MOL0     H68371   6.933   5.535   2.488  0.9379  0.6416 -2.6065
  518MOL0     H68372   6.992   5.774   2.430 -0.1770 -0.1611 -0.2037
  518MOL0     H68373   6.828   5.818   2.507 -1.6683 -1.8264  0.2502
  518MOL0     H68374   7.111   5.748   2.824 -0.6867  0.9133 -0.5268
  518MOL0     H68375   6.393   5.894   2.642  0.7678  1.0447 -0.8640
  518MOL0     H68376   6.146   5.838   2.652 -2.2255  0.5306 -3.8653
  519MOL0     O68377   8.348   7.378   2.120  0.2976  0.2263  0.6603
  519MOL0     C68378   8.394   7.333   2.013  0.0336 -0.6000 -0.1697
  519MOL0     O68379   8.314   7.273   1.920 -0.5116  1.1522 -0.6050
  519MOL0     C68380   8.184   7.235   1.940 -0.6578  0.2392  0.3952
  519MOL0     C68381   8.105   7.238   1.827  0.5556  0.1274 -0.5391
  519MOL0     C68382   7.978   7.205   1.826  1.5995 -0.6263 -0.4397
  519MOL0     C68383   7.911   7.184   1.954  0.4138  0.3434  0.1249
  519MOL0     O68384   7.775   7.143   1.978 -0.3925 -0.1892 -0.4993
  519MOL0     C68385   7.678   7.206   1.885 -0.6833  0.6948 -0.1077
  519MOL0     C68386   7.539   7.144   1.905  0.1390  0.0147 -0.0053
  519MOL0     C68387   7.432   7.227   1.841  0.5284  0.1001 -0.3246
  519MOL0     C68388   7.293   7.182   1.896  0.2070  0.3366  0.2841
  519MOL0     C68389   7.175   7.234   1.819  0.1150 -0.2857  0.7612
  519MOL0     C68390   7.047   7.168   1.832  0.2038  0.4038 -0.2845
  519MOL0     C68391   6.944   7.247   1.753 -0.4396  0.3103 -0.2008
  519MOL0     C68392   6.806   7.179   1.761  0.1956  0.0656 -0.2323
  519MOL0     N68393   6.701   7.287   1.772  0.1990 -0.5332 -0.1616
  519MOL0     C68394   6.650   7.359   1.668 -0.3532 -0.0835  0.2798
  519MOL0     C68395   6.562   7.443   1.719  0.3984 -0.3641 -0.2633
  519MOL0     C68396   6.486   7.546   1.641  0.3200 -0.6279 -0.2788
  519MOL0     C68397   6.394   7.481   1.540  1.1960  0.3871  0.4072
  519MOL0     C68398   6.282   7.405   1.614  1.4246 -0.0416 -0.2576
  519MOL0     C68399   6.174   7.508   1.663  0.0975  0.0495  0.0729
  519MOL0     O68400   6.094   7.540   1.553  0.9267  0.1034 -0.3916
  519MOL0     C68401   5.978   7.604   1.569  0.5185  0.1353 -0.1492
  519MOL0     C68402   5.898   7.619   1.452 -0.2363  0.3341 -0.2479
  519MOL0     C68403   5.770   7.679   1.461 -0.1062 -0.4410 -0.3645
  519MOL0     C68404   5.718   7.722   1.587 -0.3583 -0.4516 -0.0725
  519MOL0     C68405   5.576   7.755   1.605  1.2361  0.8238  0.6638
  519MOL0     O68406   5.545   7.857   1.689 -0.3893  0.1301 -0.7700
  519MOL0     C68407   5.414   7.871   1.692  0.2387 -0.1587 -0.4745
  519MOL0     C68408   5.339   7.926   1.589  0.6628  0.6367 -0.3669
  519MOL0     C68409   5.190   7.926   1.598 -0.8584  0.7219  0.6151
  519MOL0     C68410   5.129   7.889   1.710 -0.6401  0.4675 -0.1912
  519MOL0     O68411   4.997   7.914   1.720  0.3170  0.6457 -0.6751
  519MOL0     C68412   4.918   7.789   1.745  0.5139  0.2864  0.3284
  519MOL0     C68413   4.779   7.816   1.687  0.6915  0.2184 -0.3364
  519MOL0     C68414   4.787   7.816   1.534  0.0068 -0.5212 -0.2766
  519MOL0     C68415   4.646   7.807   1.472 -0.3354  0.1984 -0.1951
  519MOL0     C68416   4.661   7.774   1.322 -0.1093  0.2036  0.6050
  519MOL0     C68417   4.525   7.783   1.237  0.5305  0.2287 -0.5324
  519MOL0     C68418   4.545   7.734   1.099 -0.2422 -0.0224  0.3130
  519MOL0     C68419   4.641   7.808   1.008 -0.1580  0.2944  0.8376
  519MOL0    Cl68420   4.583   7.973   0.963  0.4204 -0.2558  0.1312
  519MOL0     C68421   5.202   7.835   1.816 -0.4981  0.2656  0.2844
  519MOL0     C68422   5.343   7.828   1.804 -0.3157 -0.7025 -0.4469
  519MOL0     O68423   5.497   7.675   1.554  1.0255  1.1223 -0.0316
  519MOL0     C68424   5.807   7.732   1.694  1.0565  0.0467  0.7888
  519MOL0     C68425   5.928   7.664   1.691 -0.5509 -0.6010  0.8687
  519MOL0     N68426   6.565   7.433   1.860  0.0311  0.7392  0.0405
  519MOL0     N68427   6.641   7.332   1.887 -1.1277 -0.0248 -0.3834
  519MOL0     C68428   7.981   7.181   2.072 -1.1981  0.7545  0.2614
  519MOL0     C68429   8.115   7.200   2.059  0.2251  0.0581 -0.3933
  519MOL0     C68430   8.538   7.355   1.993  0.3391 -1.6004  0.3346
  519MOL0     C68431   8.619   7.410   2.099  0.3446 -1.2201 -0.0954
  519MOL0     C68432   8.755   7.432   2.088 -0.6957 -0.2443 -0.3526
  519MOL0     C68433   8.823   7.411   1.970 -0.6677 -0.2759  0.1320
  519MOL0     O68434   8.952   7.454   1.982  0.6401 -0.1306 -0.3490
  519MOL0     C68435   9.026   7.468   1.859 -0.0934  0.6986 -0.5783
  519MOL0     C68436   9.170   7.514   1.895  0.4580  1.0656  0.1172
  519MOL0     C68437   9.267   7.529   1.781  0.0078  0.8042 -0.5542
  519MOL0     C68438   9.377   7.415   1.771 -0.4992  0.3553 -0.2032
  519MOL0     C68439   9.427   7.395   1.630 -0.9253  0.1544 -0.2117
  519MOL0     C68440   9.465   7.396   1.515 -0.3653  0.0925  0.5066
  519MOL0     C68441   8.753   7.354   1.868  0.0552 -0.7706  0.5464
  519MOL0     C68442   8.610   7.329   1.870 -0.2069 -0.5695  0.5446
  519MOL0     H68443   8.148   7.254   1.728  1.9682 -2.7050 -0.5075
  519MOL0     H68444   7.913   7.209   1.740 -2.2994  1.4792  2.3017
  519MOL0     H68445   7.708   7.186   1.781  0.2470 -1.3286  0.4881
  519MOL0     H68446   7.677   7.314   1.899 -1.2028  0.6291  0.3484
  519MOL0     H68447   7.510   7.154   2.010 -0.4032  0.7923 -0.2132
  519MOL0     H68448   7.535   7.041   1.870  2.4616  0.4076 -1.6930
  519MOL0     H68449   7.436   7.221   1.732  0.4165 -0.5081 -0.2973
  519MOL0     H68450   7.456   7.331   1.865  1.6542 -0.4607  1.0993
  519MOL0     H68451   7.295   7.073   1.902  0.8374  0.3418  0.1847
  519MOL0     H68452   7.284   7.225   1.996 -2.0929  0.7705 -0.0472
  519MOL0     H68453   7.197   7.238   1.712  0.5939  2.3534  0.9082
  519MOL0     H68454   7.164   7.339   1.845  2.0119 -0.2434  1.5658
  519MOL0     H68455   7.033   7.162   1.941 -0.5376 -1.7367 -0.4363
  519MOL0     H68456   7.055   7.062   1.804  2.0475  0.5059 -0.2568
  519MOL0     H68457   6.931   7.342   1.805 -1.8080 -0.1441  0.3480
  519MOL0     H68458   6.974   7.275   1.652  2.5292 -5.0837 -1.1789
  519MOL0     H68459   6.790   7.113   1.847 -4.3454 -0.8876 -1.5321
  519MOL0     H68460   6.786   7.114   1.675 -2.4528  1.6207 -0.9242
  519MOL0     H68461   6.683   7.340   1.566  2.9390  0.0146  1.2031
  519MOL0     H68462   6.560   7.615   1.600  0.5772  0.4422  1.8635
  519MOL0     H68463   6.433   7.610   1.711  1.4806  0.7688 -0.6310
  519MOL0     H68464   6.455   7.418   1.474  2.6930  1.8907  0.2588
  519MOL0     H68465   6.343   7.552   1.475 -4.0154 -1.5616  1.8813
  519MOL0     H68466   6.234   7.341   1.540 -0.1970 -1.6060  2.0167
  519MOL0     H68467   6.310   7.330   1.688 -1.3241 -1.4518 -0.5548
  519MOL0     H68468   6.215   7.602   1.701 -0.8812  1.8791 -3.0206
  519MOL0     H68469   6.106   7.472   1.741 -0.9609  1.0508 -0.3426
  519MOL0     H68470   5.955   7.597   1.362 -0.1936  0.0906 -0.1638
  519MOL0     H68471   5.706   7.687   1.374 -0.5013  0.5104 -0.0026
  519MOL0     H68472   5.383   7.946   1.492  0.0720 -1.3275 -1.0905
  519MOL0     H68473   5.130   7.974   1.521 -0.5928  0.8412  0.4764
  519MOL0     H68474   4.898   7.782   1.853 -1.7146  0.6595 -0.0033
  519MOL0     H68475   4.963   7.696   1.710 -0.2719  0.7677 -2.1703
  519MOL0     H68476   4.726   7.902   1.730  1.6415 -0.8950  3.4012
  519MOL0     H68477   4.712   7.736   1.721 -1.6168  2.4526  0.7159
  519MOL0     H68478   4.849   7.728   1.518  0.8520  0.1430 -0.7016
  519MOL0     H68479   4.835   7.908   1.500  2.0027 -1.3186  0.2551
  519MOL0     H68480   4.590   7.722   1.512 -0.8504 -0.3613 -1.9848
  519MOL0     H68481   4.591   7.901   1.480 -0.0822  0.6356 -2.6654
  519MOL0     H68482   4.699   7.672   1.313 -0.3737 -0.2464  3.4347
  519MOL0     H68483   4.733   7.833   1.266 -1.1906  2.9400  1.9219
  519MOL0     H68484   4.477   7.881   1.234 -2.0304 -0.9714 -1.9165
  519MOL0     H68485   4.456   7.718   1.291 -0.0440  0.5662 -0.8489
  519MOL0     H68486   4.575   7.628   1.103  0.2791  0.1536  2.8423
  519MOL0     H68487   4.445   7.735   1.055  1.0643 -3.6297 -3.4521
  519MOL0     H68488   4.650   7.759   0.911  1.4671  0.1735  1.0293
  519MOL0     H68489   4.743   7.816   1.047  0.9199  1.8523 -1.9738
  519MOL0     H68490   5.166   7.818   1.917  0.1836  0.2074  0.5221
  519MOL0     H68491   5.380   7.789   1.899  2.7148  1.5887 -0.5010
  519MOL0     H68492   5.770   7.778   1.785  1.0253  0.6853  0.4583
  519MOL0     H68493   5.991   7.665   1.779  3.3258  0.4627 -1.6625
  519MOL0     H68494   7.941   7.145   2.166  0.7079 -3.1354 -0.2023
  519MOL0     H68495   8.169   7.202   2.153  1.4915  2.3512 -1.0928
  519MOL0     H68496   8.582   7.454   2.191  1.9165  1.4228 -0.6346
  519MOL0     H68497   8.814   7.476   2.168  0.0677  2.0777 -2.0997
  519MOL0     H68498   8.986   7.543   1.790  1.2051  3.6475  1.6602
  519MOL0     H68499   9.032   7.376   1.800  1.8928 -0.0644  0.7012
  519MOL0     H68500   9.144   7.609   1.943  0.6839  2.6077 -2.6212
  519MOL0     H68501   9.212   7.446   1.970 -1.4479 -0.1377  0.1554
  519MOL0     H68502   9.313   7.627   1.798  0.9556 -0.0643  2.7879
  519MOL0     H68503   9.199   7.526   1.696 -0.2957  3.3974 -0.4839
  519MOL0     H68504   9.460   7.430   1.841 -1.2065 -2.3472  1.3406
  519MOL0     H68505   9.337   7.319   1.803  1.7745 -1.2161 -1.6970
  519MOL0     H68506   9.498   7.399   1.413  3.3058  0.4988  1.5768
  519MOL0     H68507   8.793   7.334   1.769 -2.9892 -2.7354 -0.4488
  519MOL0     H68508   8.568   7.285   1.781  1.1097 -1.9626  0.5620
  520MOL0     O68509   3.182   1.888   3.347  0.0538  0.0345 -0.5769
  520MOL0     C68510   3.192   1.972   3.257  0.4238 -0.0648 -0.2280
  520MOL0     O68511   3.088   2.040   3.207 -0.1460  0.3489  1.1979
  520MOL0     C68512   2.954   2.015   3.222  0.8246 -0.6699  0.3698
  520MOL0     C68513   2.907   1.883   3.243  0.3095  0.0670  0.5826
  520MOL0     C68514   2.769   1.859   3.272  0.4054  0.0566  0.7784
  520MOL0     C68515   2.680   1.969   3.270  0.4535  0.4230  0.4702
  520MOL0     O68516   2.552   1.937   3.301 -0.1964 -0.0449  0.6301
  520MOL0     C68517   2.460   2.028   3.352  1.2396  0.1506 -0.1074
  520MOL0     C68518   2.332   1.956   3.390 -0.1953  0.3044  0.0984
  520MOL0     C68519   2.225   2.060   3.432  0.2143  0.1381 -0.4912
  520MOL0     C68520   2.107   1.992   3.499 -0.3379  0.2411  0.3288
  520MOL0     C68521   1.996   2.092   3.536  0.5108  0.6018  0.0348
  520MOL0     C68522   1.855   2.019   3.567  0.5003 -0.0362 -0.3406
  520MOL0     C68523   1.758   2.135   3.612 -0.5896 -1.1156 -1.1061
  520MOL0     C68524   1.615   2.076   3.638 -0.0308  0.1418  0.9674
  520MOL0     N68525   1.618   2.008   3.764  0.1649 -0.1817  0.8777
  520MOL0     C68526   1.592   2.066   3.880  0.5750  0.8831  0.1769
  520MOL0     C68527   1.593   1.961   3.971 -1.1195  0.2879  0.1975
  520MOL0     C68528   1.555   1.962   4.116 -0.7439 -0.4977 -0.6417
  520MOL0     C68529   1.408   1.963   4.150 -0.0900 -0.1328  0.0423
  520MOL0     C68530   1.340   2.079   4.076  0.2233 -0.4230 -0.5795
  520MOL0     C68531   1.191   2.104   4.117 -0.1978 -0.8246 -0.4339
  520MOL0     O68532   1.119   1.979   4.096  1.1396 -0.9526 -0.0151
  520MOL0     C68533   0.983   1.982   4.108 -0.2657  0.0868 -0.8626
  520MOL0     C68534   0.910   1.880   4.061 -0.6041  0.0914 -0.9843
  520MOL0     C68535   0.772   1.876   4.079  0.0399  0.2375 -0.2962
  520MOL0     C68536   0.690   1.985   4.129 -0.0314  0.7043 -0.3028
  520MOL0     C68537   0.548   1.973   4.156  0.2874  0.4598 -0.1756
  520MOL0     O68538   0.501   1.852   4.123  0.3598  0.9613  0.2437
  520MOL0     C68539   0.365   1.841   4.120  0.3708  0.8298 -0.7802
  520MOL0     C68540   0.312   1.751   4.216  0.3945 -0.5324 -0.0588
  520MOL0     C68541   0.177   1.718   4.205 -0.4831  0.7156  0.3293
  520MOL0     C68542   0.099   1.787   4.111  1.1873 -0.2364 -1.3093
  520MOL0     O68543  -0.034   1.768   4.097  0.3638  0.7262  0.2928
  520MOL0     C68544  -0.101   1.670   4.180  0.5585  0.2313  0.0181
  520MOL0     C68545  -0.243   1.673   4.150  0.3486 -0.3243  0.4768
  520MOL0     C68546  -0.336   1.654   4.276 -0.6485  0.0564 -0.0904
  520MOL0     C68547  -0.484   1.683   4.240 -0.6981 -0.0732 -0.1766
  520MOL0     C68548  -0.589   1.630   4.346  0.4454  0.3608 -0.2016
  520MOL0     C68549  -0.721   1.588   4.283 -0.1642  0.4188 -0.2896
  520MOL0     C68550  -0.826   1.533   4.383  0.5388  0.0979  0.3482
  520MOL0     C68551  -0.938   1.480   4.287  0.3106 -0.1080 -0.3549
  520MOL0    Cl68552  -1.067   1.405   4.386 -0.0078  0.1545  0.4509
  520MOL0     C68553   0.147   1.889   4.032 -0.3501  0.2878 -0.2734
  520MOL0     C68554   0.282   1.910   4.026  0.2008  0.6441  0.0434
  520MOL0     O68555   0.479   2.069   4.194 -0.4399 -0.3279 -0.4996
  520MOL0     C68556   0.770   2.086   4.180  0.6116 -0.6173  0.7055
  520MOL0     C68557   0.908   2.085   4.172  0.6320 -0.3956  0.1138
  520MOL0     N68558   1.617   1.845   3.903 -0.4134 -0.0692  1.0088
  520MOL0     N68559   1.634   1.876   3.782  0.5169 -0.0502 -0.8582
  520MOL0     C68560   2.726   2.093   3.236  0.1008 -0.4719 -0.2766
  520MOL0     C68561   2.860   2.114   3.200  0.2046 -0.2052 -0.3227
  520MOL0     C68562   3.319   2.003   3.202  0.2144  0.3094  0.1772
  520MOL0     C68563   3.335   2.097   3.099  1.3417  0.3171 -0.1965
  520MOL0     C68564   3.460   2.132   3.062 -0.0291  0.5464 -0.1140
  520MOL0     C68565   3.573   2.083   3.118  0.2823  0.3569  0.3991
  520MOL0     O68566   3.687   2.130   3.066  0.7690 -0.2401  0.1063
  520MOL0     C68567   3.806   2.085   3.128  1.5068  0.4918  0.2628
  520MOL0     C68568   3.925   2.149   3.060 -0.6309 -0.1439 -0.5628
  520MOL0     C68569   3.951   2.099   2.917 -1.2200  0.4706  0.1789
  520MOL0     C68570   4.092   2.135   2.867  0.4061 -0.6947 -0.3990
  520MOL0     C68571   4.201   2.086   2.949  0.4755  0.3879 -0.4303
  520MOL0     C68572   4.311   2.059   2.999  0.7305 -0.1567 -0.1433
  520MOL0     C68573   3.566   1.992   3.226  0.0291  0.8106  0.4547
  520MOL0     C68574   3.432   1.954   3.267 -0.1544  0.1468 -0.4924
  520MOL0     H68575   2.967   1.792   3.248 -1.7283 -1.3046  1.7887
  520MOL0     H68576   2.747   1.757   3.302 -0.3814  0.2916  1.0268
  520MOL0     H68577   2.437   2.095   3.269  1.1422  2.0389  1.3915
  520MOL0     H68578   2.500   2.090   3.432 -1.3313  0.6862  0.8354
  520MOL0     H68579   2.348   1.900   3.483  1.1123  2.9525  1.5907
  520MOL0     H68580   2.303   1.884   3.313  0.0659 -2.1534  2.1530
  520MOL0     H68581   2.203   2.113   3.339  4.1295  0.7097 -1.2957
  520MOL0     H68582   2.260   2.138   3.500 -0.2137 -0.2282  0.1545
  520MOL0     H68583   2.061   1.916   3.435 -2.4466  1.3857  0.3899
  520MOL0     H68584   2.137   1.934   3.588  0.5307 -1.0025 -0.7402
  520MOL0     H68585   1.977   2.154   3.448 -1.4698  0.1136  0.0836
  520MOL0     H68586   2.034   2.148   3.621  2.6161 -0.6704  0.0282
  520MOL0     H68587   1.867   1.950   3.651 -1.3247  1.0061  0.8520
  520MOL0     H68588   1.823   1.972   3.474 -1.8237  2.7661 -1.1219
  520MOL0     H68589   1.795   2.172   3.708 -1.5446  1.6855 -1.7042
  520MOL0     H68590   1.748   2.219   3.542 -1.1957 -0.8852 -0.7576
  520MOL0     H68591   1.594   2.014   3.550  1.4750  2.5640 -1.2726
  520MOL0     H68592   1.550   2.164   3.644 -0.5804 -0.2210  0.3982
  520MOL0     H68593   1.575   2.173   3.886 -1.9955  0.7687 -2.9011
  520MOL0     H68594   1.598   2.053   4.159 -2.1708  0.3692 -0.9577
  520MOL0     H68595   1.594   1.874   4.167 -1.7983 -0.4696  0.2665
  520MOL0     H68596   1.404   1.982   4.258  1.8675  1.0434 -0.0387
  520MOL0     H68597   1.363   1.870   4.116 -0.4516  0.9400 -2.6628
  520MOL0     H68598   1.405   2.166   4.094  0.5367 -0.5996 -0.8525
  520MOL0     H68599   1.325   2.057   3.970  0.9688  1.3452 -1.0933
  520MOL0     H68600   1.144   2.188   4.066 -0.1523 -0.5312 -0.0046
  520MOL0     H68601   1.186   2.131   4.223 -2.8867  1.1400 -0.9527
  520MOL0     H68602   0.965   1.808   4.002 -0.6836  0.9551 -2.1476
  520MOL0     H68603   0.729   1.790   4.029  3.1663 -0.6532 -1.7047
  520MOL0     H68604   0.379   1.693   4.280 -0.4638 -1.3155  0.1501
  520MOL0     H68605   0.127   1.651   4.274 -2.2806 -2.1866 -3.4314
  520MOL0     H68606  -0.092   1.683   4.288 -1.7236 -1.8830  0.5607
  520MOL0     H68607  -0.068   1.569   4.155  2.0709  0.2130  1.8443
  520MOL0     H68608  -0.258   1.596   4.073  4.3516 -1.9551  1.0618
  520MOL0     H68609  -0.275   1.768   4.107  0.7490  0.4644  1.8824
  520MOL0     H68610  -0.328   1.723   4.360 -1.5278 -0.4088  0.3896
  520MOL0     H68611  -0.325   1.554   4.319 -1.7010  0.2594  0.6984
  520MOL0     H68612  -0.491   1.791   4.227  1.1842 -0.1176 -2.1244
  520MOL0     H68613  -0.506   1.652   4.138 -1.1493 -1.4260  0.3065
  520MOL0     H68614  -0.617   1.703   4.423  2.2954 -0.6324  1.4860
  520MOL0     H68615  -0.546   1.546   4.401 -0.9000 -0.8916 -0.9825
  520MOL0     H68616  -0.693   1.510   4.211  2.4972  0.6715  0.3835
  520MOL0     H68617  -0.764   1.664   4.217 -2.3786 -0.1278  0.4434
  520MOL0     H68618  -0.798   1.448   4.445 -3.0378 -2.3767 -1.0727
  520MOL0     H68619  -0.865   1.615   4.445 -0.6988  0.6880 -1.1297
  520MOL0     H68620  -0.903   1.409   4.212  0.8444 -0.5066  0.2554
  520MOL0     H68621  -0.981   1.565   4.234 -1.5341  0.7217  2.2715
  520MOL0     H68622   0.084   1.938   3.959  1.1780  1.3966 -0.8893
  520MOL0     H68623   0.318   1.983   3.954  1.0509  0.4324  0.2416
  520MOL0     H68624   0.728   2.169   4.236 -1.6497 -1.6833  0.7276
  520MOL0     H68625   0.945   2.175   4.220 -0.6610  0.4851 -0.4914
  520MOL0     H68626   2.656   2.176   3.228 -1.1159 -1.3965  0.5398
  520MOL0     H68627   2.889   2.217   3.180  0.5941 -0.2334  0.0783
  520MOL0     H68628   3.250   2.139   3.047  1.7330  0.0044 -1.1128
  520MOL0     H68629   3.482   2.205   2.985  2.4221  0.2932  0.2719
  520MOL0     H68630   3.813   1.976   3.122 -2.6451  0.0452  0.4459
  520MOL0     H68631   3.807   2.105   3.235 -2.1275 -0.8858  0.7109
  520MOL0     H68632   3.907   2.257   3.051  0.9982  0.0138 -2.7979
  520MOL0     H68633   4.011   2.128   3.124 -0.3401 -2.0561 -1.4969
  520MOL0     H68634   3.884   2.117   2.832  0.2374 -0.8948 -1.3268
  520MOL0     H68635   3.958   1.991   2.936  3.5161  0.0454 -2.5471
  520MOL0     H68636   4.110   2.081   2.774 -1.0172 -0.5461 -0.7705
  520MOL0     H68637   4.101   2.244   2.858  0.5228 -0.7869 -1.5069
  520MOL0     H68638   4.401   2.032   3.050  0.9163  1.2997  0.3551
  520MOL0     H68639   3.659   1.952   3.263  1.4585  1.7197 -1.9420
  520MOL0     H68640   3.415   1.886   3.350  1.2777 -0.5320 -0.7168
  521MOL0     O68641   6.089  10.627   3.407  0.5169  0.2855 -0.0563
  521MOL0     C68642   6.120  10.599   3.292 -0.1015 -0.3139 -0.6963
  521MOL0     O68643   6.026  10.571   3.196 -0.7847  0.8511  1.0937
  521MOL0     C68644   5.903  10.530   3.224 -0.8017  0.3209 -0.0100
  521MOL0     C68645   5.801  10.577   3.145  0.2695  0.0903 -0.0516
  521MOL0     C68646   5.674  10.533   3.169 -0.7298 -0.4783 -0.0114
  521MOL0     C68647   5.638  10.439   3.267  0.0595  0.8852 -0.0777
  521MOL0     O68648   5.516  10.384   3.293  0.1463  0.3105  0.1054
  521MOL0     C68649   5.404  10.419   3.217  0.7676 -0.4779 -0.2426
  521MOL0     C68650   5.308  10.490   3.311 -0.2318  0.5168  0.1849
  521MOL0     C68651   5.193  10.569   3.253 -0.7105 -0.0474  0.4335
  521MOL0     C68652   5.096  10.630   3.347 -0.9171  0.7891 -0.4986
  521MOL0     C68653   5.019  10.758   3.303 -0.1726  0.6133  0.4274
  521MOL0     C68654   5.124  10.867   3.319  0.1920 -0.0245 -0.4790
  521MOL0     C68655   5.100  10.945   3.448 -0.8261  0.4437  0.7331
  521MOL0     C68656   4.956  11.015   3.460 -0.3791  1.1822  0.9876
  521MOL0     N68657   4.955  11.110   3.566  0.0122 -0.3400 -0.5710
  521MOL0     C68658   4.999  11.089   3.700  1.0129  0.2296  0.2350
  521MOL0     C68659   5.019  11.212   3.750 -0.3216 -0.1713  0.0688
  521MOL0     C68660   5.066  11.247   3.892  0.8410  0.4703  0.1775
  521MOL0     C68661   4.951  11.258   3.984 -0.0069  0.1052 -0.4653
  521MOL0     C68662   4.985  11.327   4.112 -0.0698 -0.1670  0.0507
  521MOL0     C68663   5.108  11.285   4.190 -0.5476 -0.3996  0.3096
  521MOL0     O68664   5.211  11.363   4.129  0.8244 -0.1598 -0.2342
  521MOL0     C68665   5.340  11.331   4.161  0.3251 -0.0717  0.0224
  521MOL0     C68666   5.389  11.260   4.266 -0.0532  0.7601 -0.6640
  521MOL0     C68667   5.529  11.257   4.292  0.9991 -0.2737  0.2101
  521MOL0     C68668   5.613  11.334   4.208 -0.4897 -0.2863  0.1253
  521MOL0     C68669   5.762  11.331   4.226  0.1898  0.1214 -0.1654
  521MOL0     O68670   5.844  11.432   4.168 -0.5397  0.0561 -0.1938
  521MOL0     C68671   5.975  11.440   4.207 -0.2480  0.0932  0.4941
  521MOL0     C68672   6.005  11.497   4.341 -1.0068  0.4323 -0.0208
  521MOL0     C68673   6.136  11.504   4.381 -0.6573 -0.2838  0.8843
  521MOL0     C68674   6.242  11.468   4.300  0.1081  0.1312  0.6380
  521MOL0     O68675   6.370  11.496   4.345 -1.3608 -0.0413 -0.1954
  521MOL0     C68676   6.480  11.432   4.287 -0.0412  0.0511  0.5955
  521MOL0     C68677   6.593  11.446   4.384 -0.2508  0.4323 -0.0781
  521MOL0     C68678   6.652  11.593   4.402  0.8659 -0.4847 -0.5271
  521MOL0     C68679   6.764  11.580   4.507 -0.5941 -0.4226 -0.5316
  521MOL0     C68680   6.822  11.716   4.538  0.2662  0.5355  0.2144
  521MOL0     C68681   6.940  11.718   4.641 -0.3011 -0.2769 -0.6395
  521MOL0     C68682   7.036  11.839   4.648 -0.2526  0.2664  0.3775
  521MOL0     C68683   7.102  11.851   4.780  0.4123 -0.4610 -0.6937
  521MOL0    Cl68684   7.174  12.016   4.787 -0.4966  0.3367 -0.2227
  521MOL0     C68685   6.211  11.396   4.172 -0.9326  1.0032  0.1979
  521MOL0     C68686   6.080  11.387   4.129  0.0777 -0.3415 -0.4182
  521MOL0     O68687   5.804  11.235   4.299 -0.3167 -0.2209 -0.0169
  521MOL0     C68688   5.566  11.418   4.118  0.5111 -0.7289  0.2012
  521MOL0     C68689   5.427  11.411   4.095 -0.7511 -0.1426  0.1841
  521MOL0     N68690   4.967  11.299   3.661  0.6142 -0.5117 -0.3066
  521MOL0     N68691   4.952  11.245   3.550 -0.5018 -0.4034  0.0366
  521MOL0     C68692   5.746  10.394   3.355 -0.1067 -0.4492  0.6418
  521MOL0     C68693   5.876  10.434   3.320 -0.8341  0.5784 -0.3957
  521MOL0     C68694   6.259  10.625   3.251 -0.4178  0.1581 -0.1701
  521MOL0     C68695   6.339  10.721   3.315  0.5186 -0.6435 -1.0126
  521MOL0     C68696   6.477  10.732   3.293  0.5737 -0.5534  0.2004
  521MOL0     C68697   6.550  10.650   3.204  0.4775 -0.1106  0.1168
  521MOL0     O68698   6.689  10.657   3.182 -0.6204  0.7907  0.7123
  521MOL0     C68699   6.728  10.749   3.078  0.0389  0.2454  0.3455
  521MOL0     C68700   6.828  10.857   3.128 -0.7623  0.9221  0.4093
  521MOL0     C68701   6.963  10.792   3.163  0.1416  0.1445  0.4668
  521MOL0     C68702   7.000  10.796   3.311  0.9438  1.0419 -0.6220
  521MOL0     C68703   7.058  10.913   3.373 -0.4315 -0.0780 -0.5201
  521MOL0     C68704   7.119  11.012   3.409  0.4345 -0.4374 -0.6556
  521MOL0     C68705   6.468  10.562   3.131 -0.2667 -0.0649  0.6356
  521MOL0     C68706   6.327  10.554   3.153 -0.1055  0.6907  0.4188
  521MOL0     H68707   5.830  10.650   3.069 -2.7260  1.6907  0.1856
  521MOL0     H68708   5.600  10.567   3.097  2.8799  2.7973 -2.6202
  521MOL0     H68709   5.358  10.325   3.188  0.4400 -0.8422  1.3520
  521MOL0     H68710   5.420  10.463   3.118 -1.7418 -2.4114 -1.6267
  521MOL0     H68711   5.361  10.558   3.377  5.1115 -2.4910 -0.4550
  521MOL0     H68712   5.270  10.414   3.380 -0.0634  1.1928  1.0366
  521MOL0     H68713   5.129  10.500   3.196 -1.2663 -0.6353  1.7212
  521MOL0     H68714   5.241  10.643   3.188 -0.3450  0.7682  1.6014
  521MOL0     H68715   5.022  10.554   3.374 -1.5245  2.2076  2.2073
  521MOL0     H68716   5.147  10.655   3.441  2.5642 -1.3905 -1.5940
  521MOL0     H68717   4.921  10.771   3.351 -1.7090 -1.0298 -2.0357
  521MOL0     H68718   4.995  10.739   3.198  0.1092  0.5211  0.3805
  521MOL0     H68719   5.127  10.929   3.228 -2.4794 -1.0250 -1.3723
  521MOL0     H68720   5.226  10.831   3.332  0.2044  0.1382 -0.1207
  521MOL0     H68721   5.120  10.876   3.530 -1.1295 -0.7078 -0.1484
  521MOL0     H68722   5.185  11.014   3.450  0.4635 -1.0032 -0.9327
  521MOL0     H68723   4.883  10.942   3.496 -0.3608  1.8160  2.3849
  521MOL0     H68724   4.908  11.056   3.370 -2.6351 -0.5012  1.3444
  521MOL0     H68725   5.026  10.991   3.738  1.8018  0.1783 -0.4305
  521MOL0     H68726   5.111  11.347   3.889 -1.2360  1.4545 -0.9995
  521MOL0     H68727   5.133  11.169   3.927  0.6665  0.6999  1.0613
  521MOL0     H68728   4.915  11.157   4.004  0.6905  0.1076  0.9082
  521MOL0     H68729   4.866  11.313   3.944 -0.5805  0.5009  1.2126
  521MOL0     H68730   4.988  11.435   4.090 -1.9986  0.0188  0.5150
  521MOL0     H68731   4.906  11.311   4.186  0.4393 -0.2952  0.5740
  521MOL0     H68732   5.135  11.181   4.175  2.8525  0.2127  1.3297
  521MOL0     H68733   5.096  11.311   4.296  1.3465  0.4348  0.3607
  521MOL0     H68734   5.319  11.210   4.333  2.7573 -2.1627  0.3380
  521MOL0     H68735   5.567  11.196   4.373 -0.0534  0.7448  1.5329
  521MOL0     H68736   5.930  11.538   4.407  1.4394  1.6555  2.1747
  521MOL0     H68737   6.145  11.551   4.478  2.1641  1.2400  0.0073
  521MOL0     H68738   6.512  11.490   4.201 -0.9939 -1.5340 -0.8830
  521MOL0     H68739   6.468  11.329   4.252 -2.7738  1.1652 -2.1356
  521MOL0     H68740   6.668  11.379   4.341 -1.8499  0.1469 -2.6421
  521MOL0     H68741   6.557  11.408   4.480  2.0755  2.2948  1.6450
  521MOL0     H68742   6.564  11.652   4.430  2.0478  2.4977 -2.5206
  521MOL0     H68743   6.686  11.632   4.305 -1.7901  1.1193 -0.9011
  521MOL0     H68744   6.728  11.541   4.602  2.4622 -0.7682  0.5849
  521MOL0     H68745   6.850  11.517   4.482  0.7748  0.7069  1.1302
  521MOL0     H68746   6.738  11.775   4.575 -0.7155 -1.1177  0.7086
  521MOL0     H68747   6.863  11.753   4.444 -1.1151  0.1735 -0.5538
  521MOL0     H68748   7.006  11.634   4.619  1.6980  1.0893 -0.0693
  521MOL0     H68749   6.894  11.703   4.739  1.4656 -1.7376  0.0195
  521MOL0     H68750   7.118  11.838   4.575 -0.9430 -0.6256 -0.4116
  521MOL0     H68751   6.972  11.927   4.640 -2.1810 -0.7802  2.9152
  521MOL0     H68752   7.181  11.776   4.798 -1.3142 -2.8768 -2.4696
  521MOL0     H68753   7.035  11.848   4.866 -0.0382  0.7544 -0.9867
  521MOL0     H68754   6.284  11.361   4.100 -2.3933  0.8123 -1.2472
  521MOL0     H68755   6.060  11.342   4.032 -3.0370  0.5171 -0.2763
  521MOL0     H68756   5.636  11.485   4.069 -3.7933  2.6671 -1.8972
  521MOL0     H68757   5.394  11.480   4.018  0.0938 -1.1199 -1.0970
  521MOL0     H68758   5.725  10.319   3.430  0.6903 -1.5032 -0.1614
  521MOL0     H68759   5.961  10.383   3.366 -1.8017 -1.0379 -0.3042
  521MOL0     H68760   6.301  10.771   3.404  0.6051 -2.6234  0.2271
  521MOL0     H68761   6.533  10.808   3.345  0.7520  0.1149 -0.9165
  521MOL0     H68762   6.635  10.788   3.036 -2.1546 -1.7756  2.9527
  521MOL0     H68763   6.792  10.702   3.002  2.1797 -2.3686  3.4288
  521MOL0     H68764   6.831  10.922   3.041 -0.2284 -2.2537 -2.1566
  521MOL0     H68765   6.792  10.913   3.215 -0.1412  2.0217 -0.0352
  521MOL0     H68766   7.043  10.831   3.098  0.7067 -2.8361 -0.7690
  521MOL0     H68767   6.963  10.687   3.135  0.8811  0.3838 -0.4980
  521MOL0     H68768   6.913  10.768   3.373  2.9187 -3.1951  0.6615
  521MOL0     H68769   7.072  10.714   3.320  1.0674  0.9504 -2.2026
  521MOL0     H68770   7.169  11.103   3.434 -0.0051  0.7125 -3.6431
  521MOL0     H68771   6.518  10.499   3.058  2.9536  2.3424  0.5290
  521MOL0     H68772   6.270  10.475   3.104  1.3377 -0.8194  1.0616
  522MOL0     O68773   2.593   8.588  10.106  1.0794 -0.2930  0.6115
  522MOL0     C68774   2.548   8.660  10.196  0.2496  0.6786 -1.0625
  522MOL0     O68775   2.417   8.689  10.211  0.1396 -0.9745  0.4511
  522MOL0     C68776   2.322   8.619  10.135 -0.7973 -0.3566  0.8251
  522MOL0     C68777   2.288   8.664  10.008  0.0901  0.1025 -0.3352
  522MOL0     C68778   2.194   8.602   9.924 -0.6489  0.0444  0.2621
  522MOL0     C68779   2.124   8.489   9.978 -0.9711 -0.2888 -0.3295
  522MOL0     O68780   2.037   8.424   9.902 -0.1060  0.1318  0.1458
  522MOL0     C68781   1.994   8.479   9.780 -0.1857  0.1231 -0.0436
  522MOL0     C68782   1.885   8.378   9.726  0.5585  0.6921 -0.1146
  522MOL0     C68783   1.936   8.238   9.710  0.3155  0.2728 -0.6849
  522MOL0     C68784   1.833   8.132   9.681  0.6130  0.4505 -0.2512
  522MOL0     C68785   1.793   8.052   9.809 -0.1050 -0.1070 -0.6091
  522MOL0     C68786   1.728   8.143   9.919 -0.5823 -0.7274  0.4959
  522MOL0     C68787   1.648   8.063  10.020  0.7306  0.0728 -0.3344
  522MOL0     C68788   1.601   8.144  10.147  1.0093  0.1618 -0.3071
  522MOL0     N68789   1.704   8.134  10.249 -0.1430  0.7585 -0.4705
  522MOL0     C68790   1.814   8.210  10.259  0.7787 -1.1941  0.3904
  522MOL0     C68791   1.879   8.181  10.376  0.5970 -0.2323  0.1516
  522MOL0     C68792   2.006   8.245  10.427  1.6863 -0.9560  0.0571
  522MOL0     C68793   1.967   8.346  10.538  0.1047 -0.1320  0.5386
  522MOL0     C68794   2.081   8.439  10.573 -0.4050 -0.3566  1.3417
  522MOL0     C68795   2.195   8.376  10.647 -0.2092 -1.0381 -0.5633
  522MOL0     O68796   2.300   8.480  10.645  0.0345  0.5517  0.3389
  522MOL0     C68797   2.408   8.464  10.722 -0.9855 -0.5318  0.2059
  522MOL0     C68798   2.501   8.569  10.722  0.7593  0.2464  0.7838
  522MOL0     C68799   2.615   8.581  10.797  0.1915 -0.2989  0.6350
  522MOL0     C68800   2.631   8.481  10.892 -0.2993 -0.4065  0.1156
  522MOL0     C68801   2.746   8.482  10.984 -0.4519  0.0493  0.0926
  522MOL0     O68802   2.802   8.360  11.031 -0.3306  0.7614  0.0207
  522MOL0     C68803   2.900   8.367  11.121 -0.3389  0.1292 -0.4483
  522MOL0     C68804   3.028   8.385  11.074 -0.2164 -0.3395  0.9348
  522MOL0     C68805   3.133   8.401  11.165  0.6789  0.6348  0.3128
  522MOL0     C68806   3.106   8.386  11.310  0.2935  0.5704  0.4695
  522MOL0     O68807   3.209   8.377  11.404  0.6855 -0.3274  0.4753
  522MOL0     C68808   3.331   8.428  11.356 -0.3268 -0.1365 -0.2968
  522MOL0     C68809   3.429   8.424  11.478  0.6552  0.4448  0.3369
  522MOL0     C68810   3.570   8.482  11.432  0.0005 -0.2571  0.0697
  522MOL0     C68811   3.581   8.625  11.467  0.1317 -0.1173  0.6608
  522MOL0     C68812   3.716   8.698  11.432 -0.2100 -0.1769  0.7134
  522MOL0     C68813   3.693   8.849  11.433 -0.3583 -0.9621  0.6515
  522MOL0     C68814   3.815   8.948  11.463 -0.6633 -0.3228  0.4483
  522MOL0     C68815   3.879   8.913  11.593  0.2770  0.8305  0.3266
  522MOL0    Cl68816   4.007   9.017  11.647 -0.0310  0.3282  0.4089
  522MOL0     C68817   2.972   8.365  11.353  0.1133 -0.2545 -0.4813
  522MOL0     C68818   2.869   8.342  11.256 -0.2450  0.1780  0.4771
  522MOL0     O68819   2.786   8.592  11.017  0.0351 -0.9310 -0.1638
  522MOL0     C68820   2.541   8.374  10.898  0.1658 -0.1655 -1.0838
  522MOL0     C68821   2.429   8.363  10.814  0.2064 -0.6889 -0.3035
  522MOL0     N68822   1.797   8.080  10.440 -1.0810 -0.7358 -0.3478
  522MOL0     N68823   1.705   8.049  10.355 -0.7287  0.6231 -0.3041
  522MOL0     C68824   2.162   8.443  10.099 -0.7387 -0.1616  0.4119
  522MOL0     C68825   2.259   8.503  10.177  0.3533 -0.2144 -0.7053
  522MOL0     C68826   2.637   8.697  10.307  0.4874  0.2977  0.1482
  522MOL0     C68827   2.755   8.630  10.332  0.4298  0.9337  0.3864
  522MOL0     C68828   2.825   8.658  10.439 -0.2410  0.3656  0.3695
  522MOL0     C68829   2.790   8.753  10.533 -0.1488 -0.7742  0.4309
  522MOL0     O68830   2.859   8.796  10.643  0.4686 -0.6609 -0.1267
  522MOL0     C68831   2.971   8.718  10.693  0.1887 -0.4687  0.1214
  522MOL0     C68832   3.035   8.795  10.811 -0.5032  0.5567 -0.1920
  522MOL0     C68833   3.145   8.705  10.877 -0.3492  0.1988  1.1210
  522MOL0     C68834   3.160   8.764  11.014  0.1223 -0.5085 -1.2415
  522MOL0     C68835   3.292   8.720  11.060 -0.2737  0.2514  1.6054
  522MOL0     C68836   3.409   8.682  11.090  0.0059 -0.9871 -0.0938
  522MOL0     C68837   2.675   8.826  10.505 -0.4386  0.4141 -0.7221
  522MOL0     C68838   2.595   8.798  10.390 -0.0975  0.2223  0.5698
  522MOL0     H68839   2.329   8.752   9.960 -0.1954 -0.2705 -1.2921
  522MOL0     H68840   2.171   8.631   9.822 -0.3148 -3.8487 -1.0563
  522MOL0     H68841   2.084   8.479   9.717  1.4813 -0.9456  2.2118
  522MOL0     H68842   1.953   8.580   9.789 -1.0289  0.0992 -2.5413
  522MOL0     H68843   1.836   8.410   9.634 -2.4523 -2.1511  0.3528
  522MOL0     H68844   1.797   8.389   9.789  0.3242  1.5713 -0.5781
  522MOL0     H68845   1.986   8.211   9.803 -1.1708 -3.1197 -0.7311
  522MOL0     H68846   2.011   8.223   9.631 -0.2429 -2.7302 -0.7559
  522MOL0     H68847   1.745   8.179   9.637 -0.7497  0.1546  2.0259
  522MOL0     H68848   1.878   8.061   9.611  1.0913 -1.2453  1.6730
  522MOL0     H68849   1.879   7.995   9.847  2.6484  3.9088 -0.1487
  522MOL0     H68850   1.713   7.979   9.798  1.1864 -1.4089 -1.7913
  522MOL0     H68851   1.657   8.206   9.865  0.5684  0.4953  0.3618
  522MOL0     H68852   1.811   8.199   9.964 -2.9400  2.5128  1.1473
  522MOL0     H68853   1.572   8.014   9.959  0.0479  0.3767  0.2503
  522MOL0     H68854   1.713   7.980  10.048 -2.5971 -2.8466 -0.5930
  522MOL0     H68855   1.503   8.118  10.189  1.6559 -0.6163  0.7744
  522MOL0     H68856   1.605   8.252  10.132  0.5910  0.3102  0.5524
  522MOL0     H68857   1.835   8.288  10.187  0.0474 -0.4646  0.9481
  522MOL0     H68858   2.044   8.308  10.346 -0.4063 -0.5274 -0.6674
  522MOL0     H68859   2.075   8.169  10.462  0.3683 -1.7029  1.1213
  522MOL0     H68860   1.924   8.296  10.625 -1.7478 -0.0715 -0.2944
  522MOL0     H68861   1.889   8.411  10.497 -0.5554  0.5635  2.7893
  522MOL0     H68862   2.123   8.474  10.477  1.8065 -2.1964  1.5551
  522MOL0     H68863   2.046   8.527  10.627 -0.8510 -0.7845  1.7470
  522MOL0     H68864   2.239   8.289  10.598  2.6680  0.4160 -0.8176
  522MOL0     H68865   2.163   8.349  10.747  1.4544  2.1306  0.9799
  522MOL0     H68866   2.495   8.642  10.642 -0.1856 -1.8144 -1.1497
  522MOL0     H68867   2.681   8.667  10.785  1.9852 -1.3216  2.5387
  522MOL0     H68868   3.037   8.409  10.969 -2.0165  4.0263  1.5934
  522MOL0     H68869   3.231   8.431  11.131  0.8048  0.1896  0.2789
  522MOL0     H68870   3.334   8.530  11.318  3.8621 -1.6243 -5.0408
  522MOL0     H68871   3.367   8.363  11.276 -0.8992 -0.9826  0.1161
  522MOL0     H68872   3.454   8.320  11.502 -4.1032 -1.6850 -2.4754
  522MOL0     H68873   3.400   8.479  11.568 -0.0693  0.5127  0.0679
  522MOL0     H68874   3.589   8.456  11.327  2.8173 -0.9771  0.6584
  522MOL0     H68875   3.654   8.441  11.488 -0.2257  1.7881  2.0295
  522MOL0     H68876   3.498   8.683  11.427  1.8538  2.8070  1.0079
  522MOL0     H68877   3.561   8.633  11.574 -3.0812  0.1683  0.1374
  522MOL0     H68878   3.739   8.669  11.329 -0.0840  2.3567 -0.0350
  522MOL0     H68879   3.796   8.655  11.493 -1.0340 -3.5810 -0.3828
  522MOL0     H68880   3.617   8.880  11.505 -0.4535 -1.3204  0.7085
  522MOL0     H68881   3.654   8.864  11.331 -0.8755 -0.4887  0.9139
  522MOL0     H68882   3.885   8.945  11.380  0.8224  1.4158  1.5597
  522MOL0     H68883   3.768   9.046  11.468 -0.3731 -0.1282 -0.5843
  522MOL0     H68884   3.906   8.807  11.590 -2.0730  0.0619  2.4607
  522MOL0     H68885   3.804   8.913  11.673 -1.3454  2.4969 -1.0999
  522MOL0     H68886   2.958   8.374  11.460 -0.2344  0.8193 -0.6100
  522MOL0     H68887   2.767   8.311  11.278 -0.7342  0.3998 -1.2999
  522MOL0     H68888   2.562   8.294  10.968 -1.5841 -1.2275 -1.7207
  522MOL0     H68889   2.365   8.276  10.825 -4.1709  2.4702  2.8251
  522MOL0     H68890   2.118   8.359  10.152  0.2996  0.7891  2.9400
  522MOL0     H68891   2.294   8.473  10.276 -1.5370 -0.0835  0.0429
  522MOL0     H68892   2.785   8.553  10.262  1.2973  1.4463  0.1853
  522MOL0     H68893   2.917   8.600  10.446 -0.2415  0.3152 -0.0456
  522MOL0     H68894   3.046   8.691  10.617  1.0628  0.2364  0.7160
  522MOL0     H68895   2.928   8.626  10.735 -2.3101  0.6314  0.1065
  522MOL0     H68896   3.077   8.888  10.771 -1.3753  0.6044 -1.0385
  522MOL0     H68897   2.958   8.823  10.884  0.5803  1.8662  0.5151
  522MOL0     H68898   3.240   8.721  10.826 -1.5315  1.7658 -0.7283
  522MOL0     H68899   3.102   8.605  10.870 -1.2121  0.5794  0.7717
  522MOL0     H68900   3.162   8.873  11.017 -1.0070 -0.4959 -0.6319
  522MOL0     H68901   3.082   8.725  11.080  1.3215  1.0455  1.2703
  522MOL0     H68902   3.505   8.639  11.112  0.9954  0.1048 -1.9838
  522MOL0     H68903   2.653   8.915  10.563  0.7326 -0.2946  0.8642
  522MOL0     H68904   2.495   8.840  10.389 -1.6647 -3.1669 -0.6254
  523MOL0     O68905   0.084  10.872   7.582 -0.5434  0.6545 -0.6051
  523MOL0     C68906   0.119  10.758   7.596 -0.3154  0.3829 -0.1613
  523MOL0     O68907   0.036  10.651   7.574  0.3084  0.2395  0.6482
  523MOL0     C68908  -0.102  10.662   7.563 -0.0400  0.1408  0.4136
  523MOL0     C68909  -0.159  10.595   7.452 -0.1211  0.6608  0.1181
  523MOL0     C68910  -0.293  10.608   7.425 -0.1149  0.3793 -0.0914
  523MOL0     C68911  -0.381  10.676   7.510 -0.3536  0.2745  0.5762
  523MOL0     O68912  -0.519  10.671   7.478 -0.6919 -0.0442 -0.7368
  523MOL0     C68913  -0.593  10.772   7.546 -0.1843  0.4513 -0.0006
  523MOL0     C68914  -0.724  10.781   7.465  0.0650 -1.4511  0.0132
  523MOL0     C68915  -0.697  10.847   7.325 -0.3093  0.1506  0.2181
  523MOL0     C68916  -0.726  10.749   7.200 -0.5156 -0.3777 -0.0669
  523MOL0     C68917  -0.657  10.612   7.176  0.4746  0.0510  0.1505
  523MOL0     C68918  -0.647  10.571   7.031 -0.5813 -0.1640  0.4264
  523MOL0     C68919  -0.767  10.541   6.954  0.3043  0.0278 -0.0687
  523MOL0     C68920  -0.868  10.442   7.021 -0.0459  0.2118 -0.3699
  523MOL0     N68921  -0.971  10.410   6.929 -1.2529  0.0442  0.5527
  523MOL0     C68922  -1.088  10.467   6.917 -0.2248 -0.5752 -0.1368
  523MOL0     C68923  -1.143  10.391   6.821  0.4433 -0.7511 -0.3500
  523MOL0     C68924  -1.289  10.407   6.776 -0.3317  0.1287  0.0876
  523MOL0     C68925  -1.365  10.275   6.775 -0.1033 -0.5063  1.0004
  523MOL0     C68926  -1.513  10.294   6.728 -0.1865  0.7534  0.2910
  523MOL0     C68927  -1.576  10.162   6.670 -0.4149 -0.4752  0.7690
  523MOL0     O68928  -1.712  10.189   6.620 -0.0744 -0.1324 -0.3112
  523MOL0     C68929  -1.809  10.098   6.644 -0.5033  0.2032  0.5045
  523MOL0     C68930  -1.939  10.148   6.626 -0.0567  0.4462 -0.6943
  523MOL0     C68931  -2.045  10.069   6.672 -0.3629  0.4216  1.0947
  523MOL0     C68932  -2.019   9.933   6.717 -0.1486  0.0768  0.3241
  523MOL0     C68933  -2.142   9.851   6.750 -1.0868  0.0922 -0.2793
  523MOL0     O68934  -2.261   9.912   6.749  1.2017 -0.3623  0.5446
  523MOL0     C68935  -2.391   9.853   6.763 -1.1481 -0.2018  0.5091
  523MOL0     C68936  -2.487   9.951   6.772 -0.4058  0.0776 -0.7379
  523MOL0     C68937  -2.621   9.918   6.779 -0.0141  0.0286 -0.6601
  523MOL0     C68938  -2.656   9.781   6.775 -0.4362 -0.5086 -0.5310
  523MOL0     O68939  -2.779   9.733   6.783  0.3638 -0.6120  1.1615
  523MOL0     C68940  -2.890   9.831   6.793  0.3528  0.4837  0.1856
  523MOL0     C68941  -3.022   9.764   6.755 -1.1358  0.1451 -0.8402
  523MOL0     C68942  -3.111   9.867   6.699  0.7820 -0.0754  0.5885
  523MOL0     C68943  -3.238   9.804   6.634  1.4874  0.4198  0.4482
  523MOL0     C68944  -3.354   9.905   6.617 -0.3791 -0.1711  0.2311
  523MOL0     C68945  -3.470   9.858   6.519  0.0669  0.0198  0.3185
  523MOL0     C68946  -3.552   9.744   6.593  0.1265 -0.1771  0.8427
  523MOL0     C68947  -3.623   9.789   6.717 -0.0486 -0.5116  0.3724
  523MOL0    Cl68948  -3.738   9.654   6.772 -0.1523  0.0216 -0.3543
  523MOL0     C68949  -2.560   9.686   6.795  0.5046 -0.2779 -0.0662
  523MOL0     C68950  -2.426   9.720   6.783  0.5869  0.2661 -0.5339
  523MOL0     O68951  -2.123   9.736   6.764 -1.0976 -0.3853 -0.1949
  523MOL0     C68952  -1.891   9.881   6.722  1.0611  0.5886  0.2644
  523MOL0     C68953  -1.784   9.962   6.681  0.4203 -0.8682  0.3762
  523MOL0     N68954  -1.063  10.285   6.779 -0.2685 -1.3047  0.3536
  523MOL0     N68955  -0.952  10.299   6.847 -0.4194 -0.5288  0.3643
  523MOL0     C68956  -0.327  10.740   7.625  0.1006  0.2752  0.0273
  523MOL0     C68957  -0.188  10.740   7.645 -0.3526 -0.7162 -0.6895
  523MOL0     C68958   0.263  10.723   7.627 -0.1079 -0.6218  0.7489
  523MOL0     C68959   0.313  10.589   7.642 -0.1764  0.4101 -0.0245
  523MOL0     C68960   0.447  10.559   7.678 -0.0119  0.6211 -0.5097
  523MOL0     C68961   0.536  10.659   7.694 -0.1155 -0.7983 -0.4637
  523MOL0     O68962   0.662  10.618   7.723  0.0096  0.6916  0.0218
  523MOL0     C68963   0.767  10.716   7.707 -0.2463 -0.3032  0.2783
  523MOL0     C68964   0.911  10.671   7.730 -0.2281 -0.2858  0.1293
  523MOL0     C68965   0.996  10.790   7.694 -0.4413 -0.1284 -0.0202
  523MOL0     C68966   1.150  10.751   7.723  0.5387  0.4022 -0.6288
  523MOL0     C68967   1.247  10.856   7.692 -0.2803 -0.4767  0.7827
  523MOL0     C68968   1.326  10.933   7.637  0.1430 -0.5223  1.2377
  523MOL0     C68969   0.490  10.784   7.681  1.1096 -0.0079 -0.4568
  523MOL0     C68970   0.354  10.816   7.653 -0.7230  0.1150 -0.3108
  523MOL0     H68971  -0.106  10.533   7.381  0.5981 -3.2399  3.6682
  523MOL0     H68972  -0.326  10.566   7.330 -0.6687  2.3411 -0.8119
  523MOL0     H68973  -0.549  10.872   7.543 -1.7341  1.1587 -0.6453
  523MOL0     H68974  -0.609  10.743   7.650 -1.4911 -3.1238 -1.0397
  523MOL0     H68975  -0.801  10.846   7.508  0.8663  1.7346 -2.9956
  523MOL0     H68976  -0.774  10.683   7.462  1.0025 -1.9462  0.2283
  523MOL0     H68977  -0.591  10.866   7.304 -0.5245 -0.4814 -1.6477
  523MOL0     H68978  -0.759  10.933   7.301  0.9548  0.5799 -1.7377
  523MOL0     H68979  -0.834  10.737   7.193 -0.2771 -2.4635 -0.7915
  523MOL0     H68980  -0.693  10.811   7.116  3.9914  0.6260  2.0921
  523MOL0     H68981  -0.701  10.534   7.240 -3.1378  1.7741 -0.0054
  523MOL0     H68982  -0.554  10.640   7.203  0.2894  3.6963 -2.3577
  523MOL0     H68983  -0.573  10.493   7.011 -0.9351 -0.4963  0.4022
  523MOL0     H68984  -0.609  10.660   6.981 -2.3750  0.8677  0.7971
  523MOL0     H68985  -0.812  10.636   6.924  1.5392  0.3233 -1.0771
  523MOL0     H68986  -0.738  10.504   6.855 -0.0587 -1.0265  0.2075
  523MOL0     H68987  -0.916  10.485   7.110  0.1930 -3.2766  1.6091
  523MOL0     H68988  -0.816  10.353   7.056  3.6964  1.6075 -1.8680
  523MOL0     H68989  -1.121  10.559   6.964  0.1326  0.3967 -1.7134
  523MOL0     H68990  -1.292  10.462   6.681 -1.9626  1.6631  0.9535
  523MOL0     H68991  -1.348  10.466   6.847  0.4418  1.6504 -0.4851
  523MOL0     H68992  -1.363  10.224   6.871 -0.0071  1.2258  1.9695
  523MOL0     H68993  -1.308  10.220   6.700 -4.0213 -1.1638 -1.7684
  523MOL0     H68994  -1.571  10.325   6.815  0.2961 -0.5739  1.1216
  523MOL0     H68995  -1.522  10.362   6.643 -0.3294  1.3759  0.8040
  523MOL0     H68996  -1.561  10.090   6.752  1.6034 -0.7149  0.2357
  523MOL0     H68997  -1.519  10.105   6.596  3.1367 -0.5511  3.2953
  523MOL0     H68998  -1.939  10.252   6.595  0.5158  0.6921  0.1077
  523MOL0     H68999  -2.143  10.116   6.664  0.7192  2.6272  0.1110
  523MOL0     H69000  -2.460  10.053   6.749 -0.5795  0.1230 -0.7405
  523MOL0     H69001  -2.694   9.999   6.778 -0.4704 -0.2942  1.4885
  523MOL0     H69002  -2.864   9.902   6.715  2.3149 -1.8590 -1.4646
  523MOL0     H69003  -2.902   9.864   6.897 -1.3166 -2.7125  1.1487
  523MOL0     H69004  -3.067   9.726   6.848 -3.2243 -2.5968 -2.7999
  523MOL0     H69005  -3.026   9.677   6.689 -1.4904 -1.5631  1.3061
  523MOL0     H69006  -3.070   9.930   6.620 -0.2307  0.8540  0.7693
  523MOL0     H69007  -3.130   9.944   6.775  0.2633  1.4391 -1.0222
  523MOL0     H69008  -3.207   9.751   6.543  1.5232 -1.0224  1.2619
  523MOL0     H69009  -3.270   9.723   6.700 -1.4441 -0.7204 -2.0861
  523MOL0     H69010  -3.304   9.993   6.577  3.3199 -2.1633  0.0048
  523MOL0     H69011  -3.398   9.934   6.713  2.0360  2.0681  0.7607
  523MOL0     H69012  -3.442   9.832   6.416  0.3740  0.8266  0.1941
  523MOL0     H69013  -3.538   9.942   6.505 -1.0030 -0.6090  1.5697
  523MOL0     H69014  -3.630   9.716   6.522  1.2873 -2.0279  0.2212
  523MOL0     H69015  -3.484   9.661   6.614 -0.8301 -1.1833  0.1144
  523MOL0     H69016  -3.675   9.884   6.699  0.5994  0.0489  1.3799
  523MOL0     H69017  -3.549   9.804   6.796  1.6615 -2.9743 -0.6453
  523MOL0     H69018  -2.598   9.586   6.814 -0.2608 -0.0697 -0.4715
  523MOL0     H69019  -2.354   9.640   6.795 -0.6312 -0.5019  2.3333
  523MOL0     H69020  -1.859   9.780   6.746 -0.6601 -0.2752 -0.8575
  523MOL0     H69021  -1.685   9.921   6.699 -0.5304 -3.1515  0.6632
  523MOL0     H69022  -0.388  10.799   7.692 -0.8690  2.5471 -2.6510
  523MOL0     H69023  -0.144  10.800   7.724  1.0623 -2.4088 -0.1263
  523MOL0     H69024   0.237  10.512   7.645 -0.8275  1.0611  0.7913
  523MOL0     H69025   0.480  10.456   7.685  1.5956  0.9803 -1.9712
  523MOL0     H69026   0.748  10.800   7.773 -1.3159 -0.6461  0.4230
  523MOL0     H69027   0.775  10.761   7.607  1.8620  2.6062  1.6268
  523MOL0     H69028   0.926  10.645   7.835  0.0733  2.9100  0.9774
  523MOL0     H69029   0.945  10.587   7.668  0.5521 -0.0447  0.2152
  523MOL0     H69030   0.963  10.884   7.740 -0.3804  1.9559 -3.7803
  523MOL0     H69031   0.982  10.813   7.588 -0.7921 -2.0985 -0.4368
  523MOL0     H69032   1.171  10.717   7.825  1.0463 -1.3312 -1.2773
  523MOL0     H69033   1.181  10.662   7.667  0.9868  2.0779 -3.2243
  523MOL0     H69034   1.400  11.002   7.599  0.4008 -1.3467  0.1956
  523MOL0     H69035   0.563  10.864   7.684 -0.5227  1.5329  0.9254
  523MOL0     H69036   0.330  10.922   7.639  2.6875  1.1907  1.0556
  524MOL0     O69037   2.391   7.299   4.748  0.3547  0.6037 -0.1484
  524MOL0     C69038   2.510   7.327   4.735 -0.1452  0.4619 -1.2635
  524MOL0     O69039   2.565   7.401   4.636 -0.2928 -0.3079  0.1992
  524MOL0     C69040   2.478   7.478   4.562 -0.2384 -0.0268 -0.1532
  524MOL0     C69041   2.444   7.611   4.604  0.1093  0.2444  0.3046
  524MOL0     C69042   2.358   7.685   4.533 -0.1732  0.0034 -0.2150
  524MOL0     C69043   2.300   7.634   4.417 -0.1799 -0.0720  0.0274
  524MOL0     O69044   2.216   7.716   4.346 -0.3354  0.3641 -0.1381
  524MOL0     C69045   2.094   7.730   4.419 -0.3837  0.3379 -1.2015
  524MOL0     C69046   2.023   7.871   4.385 -0.3596  0.4058 -0.1949
  524MOL0     C69047   1.894   7.886   4.452  0.0194 -0.1111 -0.4430
  524MOL0     C69048   1.827   8.018   4.410 -0.6866  0.2149  0.1665
  524MOL0     C69049   1.686   8.032   4.473 -0.3787  0.4635 -0.3865
  524MOL0     C69050   1.590   7.910   4.448 -0.3631 -0.4121  0.5360
  524MOL0     C69051   1.573   7.900   4.298 -0.2508  0.1945 -0.2779
  524MOL0     C69052   1.455   7.797   4.257 -0.0229 -0.5903 -0.8850
  524MOL0     N69053   1.325   7.826   4.310 -0.3972 -0.0668 -0.3052
  524MOL0     C69054   1.220   7.862   4.232  0.1924 -0.2775 -0.4558
  524MOL0     C69055   1.113   7.865   4.311  0.0481 -0.0456  0.5311
  524MOL0     C69056   0.977   7.890   4.260 -0.2294 -0.0294 -0.1096
  524MOL0     C69057   0.871   7.823   4.342 -0.4968  0.3107  0.4839
  524MOL0     C69058   0.761   7.815   4.235  0.4424 -0.2515  0.3885
  524MOL0     C69059   0.628   7.759   4.290  0.5906  0.1079 -0.0860
  524MOL0     O69060   0.520   7.787   4.207  0.0311  0.3972  0.5769
  524MOL0     C69061   0.400   7.758   4.255 -0.2447  0.1805  0.1648
  524MOL0     C69062   0.308   7.778   4.158 -0.8352 -0.4856  0.7827
  524MOL0     C69063   0.183   7.749   4.174  0.6339  0.2069  0.0399
  524MOL0     C69064   0.136   7.708   4.301  0.2750  1.2187 -0.0439
  524MOL0     C69065  -0.002   7.656   4.303 -0.3187 -0.5057 -0.3756
  524MOL0     O69066  -0.092   7.708   4.217 -0.3528 -0.5838  0.2145
  524MOL0     C69067  -0.222   7.656   4.212  0.0636  0.7503 -0.4137
  524MOL0     C69068  -0.257   7.593   4.094 -0.1735  0.5785 -0.7596
  524MOL0     C69069  -0.388   7.539   4.075  0.5205 -0.1341  0.5587
  524MOL0     C69070  -0.486   7.576   4.167 -0.6496  0.0918 -0.0513
  524MOL0     O69071  -0.613   7.535   4.137 -0.7020 -0.2793  0.3124
  524MOL0     C69072  -0.714   7.523   4.230  0.2315  0.6693 -0.0701
  524MOL0     C69073  -0.854   7.481   4.172 -0.2507  1.0039  0.2456
  524MOL0     C69074  -0.966   7.450   4.284 -0.5696  0.5710 -1.0562
  524MOL0     C69075  -1.108   7.445   4.232  0.8105  0.5455  0.5865
  524MOL0     C69076  -1.212   7.394   4.337  0.3699  0.2939 -0.2024
  524MOL0     C69077  -1.198   7.261   4.402  0.0585 -0.5645 -1.3757
  524MOL0     C69078  -1.325   7.226   4.490  0.6906 -0.1171  0.1584
  524MOL0     C69079  -1.323   7.082   4.514 -0.5735  0.2703  0.1826
  524MOL0    Cl69080  -1.184   7.056   4.637 -0.1049  0.0565 -0.5935
  524MOL0     C69081  -0.451   7.638   4.290  0.1514 -0.0954  0.9663
  524MOL0     C69082  -0.317   7.679   4.311 -0.4653 -0.9746 -0.8200
  524MOL0     O69083  -0.020   7.560   4.378  0.9120  0.3947 -0.6560
  524MOL0     C69084   0.223   7.697   4.413 -0.7793 -0.1556 -0.2200
  524MOL0     C69085   0.360   7.722   4.382  0.4074 -0.2092 -0.2026
  524MOL0     N69086   1.155   7.823   4.434  0.4399 -0.0944  0.2012
  524MOL0     N69087   1.280   7.794   4.436  0.0097  0.0035  0.1117
  524MOL0     C69088   2.326   7.499   4.379  0.3516 -0.7241  0.1619
  524MOL0     C69089   2.412   7.422   4.451  0.0017 -0.0105 -0.1133
  524MOL0     C69090   2.605   7.240   4.811 -0.7794 -0.3158  0.8040
  524MOL0     C69091   2.565   7.197   4.941  0.0323  0.2680 -0.6556
  524MOL0     C69092   2.638   7.105   5.012 -0.5754  0.3452 -0.2390
  524MOL0     C69093   2.752   7.044   4.956  0.0741 -0.2960  0.2679
  524MOL0     O69094   2.826   6.959   5.038  0.1079 -0.1424  0.4287
  524MOL0     C69095   2.949   6.913   4.987 -1.1232  1.1323 -0.0886
  524MOL0     C69096   3.059   7.008   4.995 -0.2273  0.4743 -0.5502
  524MOL0     C69097   3.191   6.944   4.982  0.4104  0.5112 -0.0265
  524MOL0     C69098   3.312   7.005   5.040 -0.6911 -0.3820  0.1057
  524MOL0     C69099   3.340   7.129   4.959 -0.0393 -0.4981 -0.2387
  524MOL0     C69100   3.355   7.229   4.888 -0.1983 -0.1738  0.0509
  524MOL0     C69101   2.795   7.084   4.827 -0.3391  0.3067  0.4000
  524MOL0     C69102   2.724   7.185   4.758 -0.2276  1.1788  0.1867
  524MOL0     H69103   2.495   7.653   4.690  2.8844  0.3831 -1.2673
  524MOL0     H69104   2.332   7.788   4.555  0.1367  0.0411 -0.0178
  524MOL0     H69105   2.106   7.719   4.527  0.9079  0.5854 -1.3148
  524MOL0     H69106   2.024   7.649   4.394  0.0890  0.2002 -2.1112
  524MOL0     H69107   2.001   7.888   4.279  0.2085  1.0314 -0.2253
  524MOL0     H69108   2.088   7.953   4.418 -1.6452  1.5853 -0.4861
  524MOL0     H69109   1.907   7.900   4.560  0.4691 -0.7626 -0.4043
  524MOL0     H69110   1.827   7.800   4.437 -0.7710  0.6355 -1.3128
  524MOL0     H69111   1.901   8.097   4.430  0.3906 -1.3243  2.8934
  524MOL0     H69112   1.811   8.016   4.302 -0.9348 -0.9435  0.2138
  524MOL0     H69113   1.632   8.125   4.455 -0.9469  0.4039  0.9036
  524MOL0     H69114   1.702   8.035   4.582 -3.2948  1.1271  0.1004
  524MOL0     H69115   1.496   7.934   4.500 -2.8023 -3.2772 -2.1240
  524MOL0     H69116   1.619   7.815   4.496  0.7372 -0.2357  0.2306
  524MOL0     H69117   1.534   7.996   4.262  0.5028  1.9118  3.1297
  524MOL0     H69118   1.667   7.859   4.261  0.4662  0.1207  1.5271
  524MOL0     H69119   1.487   7.697   4.288 -1.1144  0.6095  5.5543
  524MOL0     H69120   1.443   7.793   4.148  0.0687 -1.9360 -0.8532
  524MOL0     H69121   1.224   7.878   4.125 -1.7053  0.9799 -0.3690
  524MOL0     H69122   0.992   7.855   4.157  0.0364 -1.7216  0.4695
  524MOL0     H69123   0.965   7.998   4.276 -2.9325 -0.6453  3.1641
  524MOL0     H69124   0.834   7.894   4.417  2.2332  2.8772 -0.3912
  524MOL0     H69125   0.906   7.733   4.393  2.3132  0.5189 -0.9059
  524MOL0     H69126   0.736   7.919   4.210 -1.4677 -0.9860 -1.0080
  524MOL0     H69127   0.787   7.767   4.140 -1.8745  2.4304 -1.7923
  524MOL0     H69128   0.621   7.800   4.391  0.0169 -1.6115  0.6282
  524MOL0     H69129   0.634   7.649   4.291  0.8299  0.1215  0.1397
  524MOL0     H69130   0.338   7.813   4.060 -1.3596 -0.8357  0.4938
  524MOL0     H69131   0.119   7.751   4.086 -2.0828 -0.2441  1.8593
  524MOL0     H69132  -0.176   7.579   4.023  0.3908  0.0890 -0.0323
  524MOL0     H69133  -0.424   7.497   3.982 -2.8491  0.3279  1.5542
  524MOL0     H69134  -0.725   7.623   4.272  0.1402 -0.1332  1.9097
  524MOL0     H69135  -0.682   7.458   4.312  0.2304 -0.4263 -0.9222
  524MOL0     H69136  -0.836   7.388   4.117  0.5173  0.5415  1.2634
  524MOL0     H69137  -0.902   7.549   4.101 -1.5786 -3.0234 -3.1594
  524MOL0     H69138  -0.965   7.529   4.359  0.5614  2.9446 -3.3901
  524MOL0     H69139  -0.936   7.354   4.326  0.2065  0.3081 -2.1694
  524MOL0     H69140  -1.146   7.543   4.204 -0.4103  0.9755  3.3941
  524MOL0     H69141  -1.119   7.379   4.145 -1.1382  0.8475  0.5561
  524MOL0     H69142  -1.304   7.391   4.278  1.6564 -2.0979 -2.2965
  524MOL0     H69143  -1.223   7.459   4.425  3.3896 -0.4760  0.8734
  524MOL0     H69144  -1.102   7.256   4.454  0.4522 -1.6094 -2.1559
  524MOL0     H69145  -1.188   7.194   4.316  0.7525 -2.1972 -0.0842
  524MOL0     H69146  -1.328   7.288   4.580  2.2078  1.1015 -0.5821
  524MOL0     H69147  -1.415   7.247   4.432 -0.5596 -2.3266  1.1937
  524MOL0     H69148  -1.311   7.018   4.426  1.0452  0.2783  0.3729
  524MOL0     H69149  -1.418   7.061   4.564 -2.5615  0.9471 -2.9868
  524MOL0     H69150  -0.527   7.665   4.363  0.2958  0.6646  0.8404
  524MOL0     H69151  -0.289   7.732   4.401 -3.7031  2.3076 -1.5176
  524MOL0     H69152   0.194   7.663   4.512  1.1694 -0.8346  0.1702
  524MOL0     H69153   0.431   7.710   4.463  0.1986 -0.9447 -0.1272
  524MOL0     H69154   2.285   7.472   4.282  1.4661 -0.8216 -0.2914
  524MOL0     H69155   2.440   7.327   4.407  3.4023 -0.0591  1.7981
  524MOL0     H69156   2.484   7.240   5.000  1.7971 -0.7369  2.7356
  524MOL0     H69157   2.618   7.069   5.113  2.7919  1.0255  0.8274
  524MOL0     H69158   2.927   6.866   4.890 -1.6886 -0.9409  0.9769
  524MOL0     H69159   2.984   6.831   5.050  0.9675  0.2260 -2.2495
  524MOL0     H69160   3.048   7.088   4.922 -3.5729 -1.8662 -2.9312
  524MOL0     H69161   3.063   7.058   5.093 -1.9611  1.6794 -1.0490
  524MOL0     H69162   3.210   6.920   4.877  0.7787 -0.3863  0.2373
  524MOL0     H69163   3.176   6.846   5.029 -0.9881  1.8515  2.5325
  524MOL0     H69164   3.295   7.041   5.142  0.2877 -0.1241  0.1898
  524MOL0     H69165   3.394   6.932   5.038 -1.7198 -1.5362 -0.7612
  524MOL0     H69166   3.363   7.320   4.834  1.2837  0.1185  0.7215
  524MOL0     H69167   2.889   7.052   4.783 -1.0432 -0.4314 -0.6204
  524MOL0     H69168   2.759   7.224   4.663 -0.3611 -0.3675 -0.5327
  525MOL0     O69169   5.508   6.551   7.406  0.0697  0.0016 -0.3170
  525MOL0     C69170   5.490   6.667   7.425 -0.1020 -0.1388 -0.1492
  525MOL0     O69171   5.376   6.719   7.467 -0.0397 -0.2506 -0.0625
  525MOL0     C69172   5.258   6.647   7.450  1.0612 -0.1090 -1.3334
  525MOL0     C69173   5.157   6.657   7.550  0.0856 -0.2651  1.0944
  525MOL0     C69174   5.033   6.597   7.535  1.0199 -0.3796  0.2567
  525MOL0     C69175   5.003   6.522   7.416 -0.4548 -0.0659 -0.7748
  525MOL0     O69176   4.887   6.456   7.393 -0.5477 -0.8580 -0.2260
  525MOL0     C69177   4.769   6.487   7.472  0.5484 -0.0952 -0.7421
  525MOL0     C69178   4.637   6.435   7.425  0.9174 -0.0263  0.7072
  525MOL0     C69179   4.627   6.280   7.417 -0.1666 -0.3843  0.6669
  525MOL0     C69180   4.494   6.222   7.348 -0.5484 -0.5825 -0.2207
  525MOL0     C69181   4.478   6.073   7.358  0.6774  0.7186  0.6429
  525MOL0     C69182   4.487   6.023   7.505 -0.0224  0.3077  1.1853
  525MOL0     C69183   4.420   5.882   7.516 -0.2078 -0.1130 -0.6292
  525MOL0     C69184   4.531   5.777   7.554  0.3969 -0.6938  0.8581
  525MOL0     N69185   4.469   5.645   7.590  0.5324 -0.2826  0.1334
  525MOL0     C69186   4.533   5.557   7.670 -1.2247  1.0632  0.6762
  525MOL0     C69187   4.455   5.443   7.682 -0.9769 -0.5889  0.5657
  525MOL0     C69188   4.507   5.305   7.740 -0.0072 -0.7698 -0.0046
  525MOL0     C69189   4.408   5.195   7.746  0.6289  0.4989 -0.1269
  525MOL0     C69190   4.367   5.159   7.601 -0.1016  0.9639 -0.2241
  525MOL0     C69191   4.259   5.058   7.614 -0.7745  0.5498 -0.3069
  525MOL0     O69192   4.221   5.013   7.484 -0.2164  0.2744  0.3117
  525MOL0     C69193   4.113   4.934   7.474  0.0669  0.0389  0.5407
  525MOL0     C69194   4.039   4.881   7.584 -0.0021 -0.3941  0.3459
  525MOL0     C69195   3.925   4.795   7.555 -0.7819  0.2753  0.6042
  525MOL0     C69196   3.887   4.779   7.421  0.2327 -0.1741  0.2958
  525MOL0     C69197   3.767   4.710   7.383  0.0520  0.2005 -0.4426
  525MOL0     O69198   3.670   4.716   7.475  0.6235  0.3659 -0.0503
  525MOL0     C69199   3.558   4.637   7.447 -0.5975 -0.8341 -0.7061
  525MOL0     C69200   3.562   4.499   7.472 -0.0164 -0.1815  0.1231
  525MOL0     C69201   3.453   4.427   7.439  0.9866  0.5773 -0.2822
  525MOL0     C69202   3.327   4.479   7.390  0.0935  0.6881  0.0797
  525MOL0     O69203   3.216   4.410   7.343 -0.2664  0.0165  0.4678
  525MOL0     C69204   3.221   4.271   7.351  0.4289  0.0155  0.2413
  525MOL0     C69205   3.137   4.203   7.248 -0.5242 -0.1700  0.2295
  525MOL0     C69206   2.991   4.252   7.246 -0.2358  1.0617  0.1345
  525MOL0     C69207   2.912   4.190   7.128  0.2498 -0.5255 -0.6851
  525MOL0     C69208   2.767   4.229   7.145  0.3494  0.3003  0.4055
  525MOL0     C69209   2.677   4.158   7.046 -1.5126  0.7218 -0.0366
  525MOL0     C69210   2.534   4.202   7.045  0.6362  1.3292 -0.4029
  525MOL0     C69211   2.444   4.111   6.956  1.4165 -0.4890 -0.2093
  525MOL0    Cl69212   2.311   4.217   6.903 -0.1849 -0.1831  0.2859
  525MOL0     C69213   3.333   4.615   7.376 -0.2965 -0.2929  0.0867
  525MOL0     C69214   3.445   4.688   7.403 -0.1379 -0.0999  0.3676
  525MOL0     O69215   3.763   4.653   7.274  0.2288 -0.8276 -0.3430
  525MOL0     C69216   3.955   4.843   7.319  0.6410 -0.0146 -0.4667
  525MOL0     C69217   4.069   4.912   7.344 -0.4370 -0.6111 -0.2052
  525MOL0     N69218   4.344   5.478   7.607  0.3164  0.2521 -0.0064
  525MOL0     N69219   4.344   5.600   7.561 -0.5128  0.0498  0.2023
  525MOL0     C69220   5.098   6.515   7.319 -0.6110  0.1905  0.5148
  525MOL0     C69221   5.225   6.570   7.341  0.2214 -0.3091 -0.4936
  525MOL0     C69222   5.600   6.763   7.392 -0.2369  1.1185  0.0049
  525MOL0     C69223   5.607   6.895   7.443  0.4219  0.7835  1.1649
  525MOL0     C69224   5.715   6.972   7.415 -0.2683  0.3031  0.0608
  525MOL0     C69225   5.827   6.933   7.336  0.8458  0.0728 -0.1663
  525MOL0     O69226   5.914   7.029   7.293 -0.3662  0.3540 -1.1550
  525MOL0     C69227   6.012   6.984   7.208  0.7223  0.3030 -0.2573
  525MOL0     C69228   6.082   7.095   7.133 -0.3966 -0.7524  0.0566
  525MOL0     C69229   6.206   7.042   7.057 -0.8207 -0.2607  0.5025
  525MOL0     C69230   6.299   7.148   7.000 -1.0312  0.2959  0.7588
  525MOL0     C69231   6.224   7.236   6.915  0.2513  0.1818  0.6825
  525MOL0     C69232   6.134   7.305   6.858 -0.4809  0.0345  0.6442
  525MOL0     C69233   5.818   6.802   7.280 -0.3094 -0.3363 -0.3136
  525MOL0     C69234   5.709   6.721   7.305 -0.1770 -0.8269  0.4186
  525MOL0     H69235   5.176   6.717   7.639 -1.5326  2.1883 -0.0938
  525MOL0     H69236   4.958   6.610   7.612 -0.1965  2.0208 -1.2237
  525MOL0     H69237   4.751   6.595   7.482 -2.1567 -0.3966 -1.3905
  525MOL0     H69238   4.779   6.443   7.571  1.2668  0.1412 -0.7083
  525MOL0     H69239   4.612   6.478   7.327  0.0372  0.9770  1.3477
  525MOL0     H69240   4.555   6.467   7.490 -0.4938 -1.0150 -0.5229
  525MOL0     H69241   4.640   6.230   7.513  3.3179  0.0646  0.5433
  525MOL0     H69242   4.713   6.240   7.362 -0.7070 -1.5876  0.6647
  525MOL0     H69243   4.411   6.275   7.397  3.5915  5.6819  1.2313
  525MOL0     H69244   4.489   6.253   7.243  0.1126  0.6281  0.0808
  525MOL0     H69245   4.551   6.013   7.303 -1.0042 -1.8391  1.0132
  525MOL0     H69246   4.379   6.042   7.321 -1.6581  2.3927  4.8055
  525MOL0     H69247   4.435   6.090   7.574  0.4544  0.6952  1.1675
  525MOL0     H69248   4.590   6.031   7.539  0.7403  1.9176 -1.2399
  525MOL0     H69249   4.347   5.892   7.598 -1.2974 -0.5202 -1.5215
  525MOL0     H69250   4.370   5.855   7.423  0.8013  1.8563 -1.8170
  525MOL0     H69251   4.595   5.810   7.636  0.1789 -0.7223  1.0403
  525MOL0     H69252   4.601   5.767   7.470 -0.3396 -1.1974  0.2893
  525MOL0     H69253   4.629   5.576   7.717  0.2105 -0.6086 -1.3717
  525MOL0     H69254   4.552   5.313   7.839  0.7821 -2.1887 -0.2098
  525MOL0     H69255   4.590   5.275   7.675 -0.0579  1.6637 -1.3169
  525MOL0     H69256   4.326   5.242   7.801 -0.2471 -0.4953 -0.5570
  525MOL0     H69257   4.450   5.114   7.806  3.1814  2.9108  1.5936
  525MOL0     H69258   4.333   5.251   7.552 -0.1525  0.8167 -0.4704
  525MOL0     H69259   4.450   5.111   7.548 -3.0143 -1.7458 -2.7654
  525MOL0     H69260   4.180   5.102   7.675  0.4382  1.7193  0.4756
  525MOL0     H69261   4.296   4.968   7.664 -0.8432 -0.5651 -2.1497
  525MOL0     H69262   4.059   4.897   7.689 -1.9816  1.9790  0.4589
  525MOL0     H69263   3.873   4.755   7.642  1.9082 -1.5434  1.5135
  525MOL0     H69264   3.643   4.450   7.526  0.5786  0.8281  0.1672
  525MOL0     H69265   3.455   4.321   7.466  1.8908  1.0880  1.8747
  525MOL0     H69266   3.184   4.243   7.450 -0.6385 -2.0808 -0.6847
  525MOL0     H69267   3.320   4.229   7.332 -0.2223 -2.3328  1.5886
  525MOL0     H69268   3.133   4.095   7.263 -1.9591  0.0180  1.3694
  525MOL0     H69269   3.184   4.221   7.151 -0.3471 -2.7047 -0.2123
  525MOL0     H69270   2.982   4.361   7.252 -1.8446  0.9740 -0.1473
  525MOL0     H69271   2.946   4.212   7.338  3.8537 -1.5224  1.2318
  525MOL0     H69272   2.952   4.221   7.031  1.8600  3.2212  0.9547
  525MOL0     H69273   2.921   4.082   7.137 -3.0321 -0.7556  2.1224
  525MOL0     H69274   2.774   4.335   7.120 -0.0569 -0.3385 -2.8859
  525MOL0     H69275   2.728   4.198   7.242  0.5628 -3.6528 -0.5809
  525MOL0     H69276   2.686   4.051   7.066  2.8996  1.2008  1.6752
  525MOL0     H69277   2.721   4.178   6.948  1.3142 -3.0231  0.2453
  525MOL0     H69278   2.490   4.200   7.146  2.4065  0.8200  0.3985
  525MOL0     H69279   2.526   4.305   7.011  0.6632  0.6623 -2.5829
  525MOL0     H69280   2.418   4.015   6.999 -0.0803 -0.4013 -0.8282
  525MOL0     H69281   2.490   4.088   6.859 -3.1717  0.5822 -3.0200
  525MOL0     H69282   3.249   4.673   7.337  0.5833 -1.3535 -3.7804
  525MOL0     H69283   3.436   4.796   7.388  1.3186 -0.3644 -3.5372
  525MOL0     H69284   3.914   4.839   7.219  2.4744 -1.9558 -1.2380
  525MOL0     H69285   4.111   4.963   7.258 -1.2789 -1.0600 -0.8912
  525MOL0     H69286   5.058   6.463   7.233 -2.2683  2.3711 -0.1311
  525MOL0     H69287   5.299   6.536   7.268 -0.6220 -3.3982 -0.0636
  525MOL0     H69288   5.534   6.941   7.509 -0.5974  4.0760 -1.9719
  525MOL0     H69289   5.723   7.069   7.462 -0.2885  0.7969 -0.9300
  525MOL0     H69290   5.968   6.923   7.128 -0.9096 -0.8437  1.4290
  525MOL0     H69291   6.090   6.925   7.258  0.4096 -3.0171 -3.2808
  525MOL0     H69292   6.015   7.150   7.066  0.2071 -1.1317 -0.8751
  525MOL0     H69293   6.111   7.164   7.213 -0.3046 -0.2662 -0.3941
  525MOL0     H69294   6.177   6.979   6.973  0.3752  1.3837 -1.2560
  525MOL0     H69295   6.260   6.975   7.125 -1.9678 -3.4950 -1.5557
  525MOL0     H69296   6.342   7.200   7.086 -2.5188  1.1445  1.0135
  525MOL0     H69297   6.369   7.097   6.933 -5.4875 -2.8791 -2.0008
  525MOL0     H69298   6.059   7.376   6.832  2.3519  2.8626 -0.3478
  525MOL0     H69299   5.891   6.762   7.210 -2.3016  0.7917 -3.2031
  525MOL0     H69300   5.705   6.624   7.256 -0.4633 -0.3756 -0.4507
  526MOL0     O69301   1.528   0.544   2.633  0.7749  0.2259  0.0360
  526MOL0     C69302   1.576   0.654   2.621 -0.4416 -0.0184 -0.0900
  526MOL0     O69303   1.530   0.771   2.672  0.0566 -0.1109  0.0611
  526MOL0     C69304   1.407   0.757   2.733  0.2742  0.1880  0.7991
  526MOL0     C69305   1.290   0.747   2.655 -0.2823 -0.3973 -0.0395
  526MOL0     C69306   1.163   0.747   2.718  0.3260  0.2827 -0.1285
  526MOL0     C69307   1.159   0.747   2.858  1.2285  0.2491  0.4762
  526MOL0     O69308   1.049   0.765   2.924  0.6736  0.3393 -0.3477
  526MOL0     C69309   0.952   0.663   2.898  0.1582 -0.0825 -0.1822
  526MOL0     C69310   0.869   0.635   3.021 -0.4943 -0.0318 -0.3324
  526MOL0     C69311   0.767   0.522   2.989 -0.0915  0.0841 -1.2726
  526MOL0     C69312   0.680   0.489   3.108  0.2670 -0.4176  0.0363
  526MOL0     C69313   0.575   0.377   3.087  0.6384 -0.8900  0.5464
  526MOL0     C69314   0.480   0.377   3.205  0.3730  0.1498 -0.1895
  526MOL0     C69315   0.375   0.261   3.195  1.2272 -0.3591  0.4869
  526MOL0     C69316   0.251   0.264   3.289  0.4802  0.1466  0.3209
  526MOL0     N69317   0.150   0.156   3.265 -1.1383  0.5409 -0.9858
  526MOL0     C69318   0.012   0.165   3.284  0.6140  0.7946  0.0855
  526MOL0     C69319  -0.041   0.045   3.260 -0.6929  0.2708  0.4552
  526MOL0     C69320  -0.179  -0.002   3.255 -1.2445 -1.0438  0.2486
  526MOL0     C69321  -0.247   0.027   3.129 -0.1177  1.0961  0.6635
  526MOL0     C69322  -0.270   0.176   3.102  0.7183  0.1744  0.4236
  526MOL0     C69323  -0.350   0.196   2.975  0.2621 -0.3505  0.8226
  526MOL0     O69324  -0.476   0.128   2.969 -0.4976  0.0334  0.5886
  526MOL0     C69325  -0.580   0.163   3.056  0.2398  0.2400 -0.5968
  526MOL0     C69326  -0.687   0.070   3.052  0.4954  0.1239  0.5019
  526MOL0     C69327  -0.809   0.105   3.116  0.6572  0.0760 -0.2568
  526MOL0     C69328  -0.803   0.201   3.219  0.9599 -0.3702 -0.5070
  526MOL0     C69329  -0.917   0.206   3.311  0.2698  0.7417 -0.3710
  526MOL0     O69330  -0.922   0.311   3.402  0.1705  0.0933 -0.1979
  526MOL0     C69331  -1.036   0.321   3.477 -0.0246  0.5569 -0.5651
  526MOL0     C69332  -1.021   0.302   3.616 -0.1098  0.3289  0.3085
  526MOL0     C69333  -1.131   0.300   3.701  0.5157 -0.3156 -0.2511
  526MOL0     C69334  -1.261   0.318   3.653  0.0500 -0.1697  0.3167
  526MOL0     O69335  -1.367   0.338   3.746 -1.0155 -0.3129  0.4150
  526MOL0     C69336  -1.374   0.261   3.865 -0.6355  0.1486  1.0127
  526MOL0     C69337  -1.516   0.275   3.925  0.1776  0.8392  0.1640
  526MOL0     C69338  -1.609   0.145   3.906  0.3770 -0.4540 -0.0937
  526MOL0     C69339  -1.729   0.144   3.993  0.1047 -0.2167 -0.2257
  526MOL0     C69340  -1.824   0.035   3.957  0.3564 -0.0580  0.0558
  526MOL0     C69341  -1.757  -0.102   3.948  0.4946 -0.4401  0.0687
  526MOL0     C69342  -1.846  -0.222   3.956 -0.4691 -0.2420  0.1357
  526MOL0     C69343  -1.923  -0.237   4.080 -0.2256 -0.2503  1.0774
  526MOL0    Cl69344  -2.038  -0.363   4.053 -0.1227  0.0034  0.1888
  526MOL0     C69345  -1.273   0.345   3.516 -0.2872 -0.3643 -0.2238
  526MOL0     C69346  -1.164   0.345   3.431  0.1579 -0.4399  0.3359
  526MOL0     O69347  -1.009   0.121   3.306  0.0806  0.1247 -0.1633
  526MOL0     C69348  -0.695   0.291   3.222 -0.0908 -0.1468  0.4048
  526MOL0     C69349  -0.586   0.277   3.137 -0.3393  0.5614 -0.2730
  526MOL0     N69350   0.068  -0.044   3.229  0.9352 -0.1087 -0.1159
  526MOL0     N69351   0.182   0.029   3.227  0.0501 -0.1905  0.7386
  526MOL0     C69352   1.275   0.765   2.936 -0.0692 -0.4535 -0.1634
  526MOL0     C69353   1.402   0.761   2.873 -0.1959 -0.6252 -0.1528
  526MOL0     C69354   1.723   0.641   2.601 -0.4912  0.1561  0.8080
  526MOL0     C69355   1.790   0.764   2.582  1.0096 -0.3724  0.4288
  526MOL0     C69356   1.921   0.773   2.557 -0.0214  0.3606  0.6082
  526MOL0     C69357   2.001   0.657   2.563  0.5121 -0.1490 -0.4942
  526MOL0     O69358   2.137   0.665   2.579 -0.9055 -0.1276  0.0507
  526MOL0     C69359   2.214   0.543   2.558  0.2137  0.1073  0.2012
  526MOL0     C69360   2.361   0.573   2.535  0.5193  0.7574  0.1225
  526MOL0     C69361   2.391   0.638   2.393 -0.6153 -0.3142 -0.3197
  526MOL0     C69362   2.501   0.733   2.421 -0.2987 -1.4132 -0.0149
  526MOL0     C69363   2.578   0.764   2.298 -0.0313 -0.7647 -0.4080
  526MOL0     C69364   2.651   0.796   2.206  0.0245  0.0077  0.0087
  526MOL0     C69365   1.935   0.538   2.589  0.2354 -0.2257 -0.5564
  526MOL0     C69366   1.795   0.520   2.588 -0.4367 -0.4624  0.2406
  526MOL0     H69367   1.281   0.744   2.547  0.4492  0.1175 -0.1236
  526MOL0     H69368   1.068   0.767   2.668 -0.8770  1.9435  2.5967
  526MOL0     H69369   1.006   0.572   2.870  0.7042 -0.0019  0.6057
  526MOL0     H69370   0.896   0.690   2.808 -0.5543 -0.2972  0.1882
  526MOL0     H69371   0.820   0.723   3.064 -0.1671  1.6037 -3.0585
  526MOL0     H69372   0.933   0.596   3.100  0.4859  0.8760 -0.6568
  526MOL0     H69373   0.822   0.431   2.963  1.1100  0.4064  0.0152
  526MOL0     H69374   0.704   0.542   2.901  1.5233  0.8259 -2.3091
  526MOL0     H69375   0.740   0.462   3.195  1.5771  1.8841 -0.0667
  526MOL0     H69376   0.629   0.578   3.145  2.2757  1.9477 -2.4740
  526MOL0     H69377   0.620   0.278   3.078 -0.4811 -1.6890  2.9193
  526MOL0     H69378   0.527   0.403   2.992  1.1206  3.0280  1.1889
  526MOL0     H69379   0.424   0.470   3.198 -0.8235 -0.4177  1.2478
  526MOL0     H69380   0.530   0.384   3.302  0.9664  0.0378 -0.4803
  526MOL0     H69381   0.342   0.264   3.091 -0.9034  2.7539  1.1069
  526MOL0     H69382   0.426   0.167   3.221 -2.0041 -1.8069  2.1203
  526MOL0     H69383   0.198   0.359   3.276 -0.8273  0.2483  4.7404
  526MOL0     H69384   0.285   0.258   3.393  0.3886 -0.5315  0.3175
  526MOL0     H69385  -0.057   0.247   3.299  0.2098  0.8603 -1.9265
  526MOL0     H69386  -0.231   0.043   3.340 -0.8112 -1.3221  0.6620
  526MOL0     H69387  -0.178  -0.110   3.272 -2.7205 -1.3426 -1.2765
  526MOL0     H69388  -0.348  -0.016   3.138  0.8855 -2.1369 -1.7016
  526MOL0     H69389  -0.202  -0.018   3.040 -0.8339 -0.1072  0.8747
  526MOL0     H69390  -0.317   0.216   3.192  3.3120 -1.4970  2.6742
  526MOL0     H69391  -0.168   0.216   3.096  1.0643  0.3229  4.6281
  526MOL0     H69392  -0.287   0.156   2.895  0.2191  0.0926  0.5596
  526MOL0     H69393  -0.371   0.302   2.957  5.4283  0.9107  0.8025
  526MOL0     H69394  -0.686  -0.004   2.973 -1.1602 -0.9009  1.3925
  526MOL0     H69395  -0.902   0.048   3.111  0.5806  0.1111  0.6111
  526MOL0     H69396  -0.922   0.262   3.636 -1.2559 -2.9947 -0.0498
  526MOL0     H69397  -1.107   0.274   3.804  3.3789  0.0290 -0.7596
  526MOL0     H69398  -1.294   0.296   3.930  0.8197 -0.6567 -0.2592
  526MOL0     H69399  -1.353   0.155   3.845  0.4097  0.7186 -1.3289
  526MOL0     H69400  -1.554   0.369   3.884 -0.2068  0.3261 -0.6731
  526MOL0     H69401  -1.507   0.284   4.034  1.1638 -2.7220  0.5067
  526MOL0     H69402  -1.558   0.050   3.924 -0.3125 -1.7448 -3.8928
  526MOL0     H69403  -1.630   0.146   3.798  0.5025 -3.0915 -0.2047
  526MOL0     H69404  -1.686   0.123   4.091 -0.1611 -3.6601 -0.7199
  526MOL0     H69405  -1.783   0.239   3.985 -0.4475 -0.3844  1.2013
  526MOL0     H69406  -1.866   0.056   3.858  1.7367 -1.4982 -0.8899
  526MOL0     H69407  -1.908   0.040   4.027  0.0872  1.2109 -0.3288
  526MOL0     H69408  -1.688  -0.109   4.033  2.9562  0.4375 -1.7358
  526MOL0     H69409  -1.695  -0.099   3.859 -1.2725  1.7938 -1.2150
  526MOL0     H69410  -1.911  -0.212   3.869  2.9848  2.1825 -2.4545
  526MOL0     H69411  -1.786  -0.313   3.951 -2.3945 -1.6635  1.6770
  526MOL0     H69412  -1.965  -0.139   4.104  2.0423  0.3745  2.9429
  526MOL0     H69413  -1.856  -0.257   4.165  0.4462 -0.1895  0.5685
  526MOL0     H69414  -1.376   0.361   3.487  0.0714  1.1112 -0.7301
  526MOL0     H69415  -1.177   0.360   3.324 -0.7958 -2.9066  0.0507
  526MOL0     H69416  -0.686   0.372   3.294  1.5375 -0.8159  0.9952
  526MOL0     H69417  -0.508   0.352   3.133 -1.4882  1.7814 -0.5565
  526MOL0     H69418   1.265   0.765   3.044 -2.3560  0.2848 -0.3265
  526MOL0     H69419   1.493   0.764   2.933 -0.2403  1.7795 -0.1078
  526MOL0     H69420   1.733   0.857   2.588 -0.6944 -1.3113 -0.2804
  526MOL0     H69421   1.976   0.866   2.556 -0.3973  0.5859  0.8716
  526MOL0     H69422   2.169   0.493   2.472 -1.8281  1.4114  0.4538
  526MOL0     H69423   2.199   0.480   2.647  0.2523 -0.2724 -0.0592
  526MOL0     H69424   2.393   0.644   2.611  2.0604  0.1936  0.0392
  526MOL0     H69425   2.423   0.483   2.539  0.1226  0.1072 -3.7599
  526MOL0     H69426   2.307   0.700   2.360  0.8879  1.6165 -0.7197
  526MOL0     H69427   2.417   0.565   2.316 -1.9430  0.9329 -2.0412
  526MOL0     H69428   2.463   0.827   2.461  0.7588 -0.7845 -0.4194
  526MOL0     H69429   2.578   0.700   2.492  0.2002 -0.6378 -0.1738
  526MOL0     H69430   2.732   0.807   2.136 -1.3471 -0.7581 -1.7752
  526MOL0     H69431   1.992   0.446   2.599  4.7435  2.2781 -0.7387
  526MOL0     H69432   1.761   0.418   2.573  1.3543 -0.9536 -0.8855
  527MOL0     O69433  10.176   4.486   1.717 -0.1080  0.7070  0.2917
  527MOL0     C69434  10.194   4.475   1.588  0.3251 -0.2617  0.7692
  527MOL0     O69435  10.096   4.459   1.492  0.4167  0.5341  0.7777
  527MOL0     C69436   9.958   4.469   1.514 -0.1975  0.0968 -0.3299
  527MOL0     C69437   9.893   4.508   1.629 -1.0821 -0.0434 -1.0727
  527MOL0     C69438   9.757   4.536   1.634 -0.2271  0.6574 -0.0356
  527MOL0     C69439   9.675   4.518   1.522 -1.0585 -0.5642 -0.0858
  527MOL0     O69440   9.543   4.529   1.548  1.0287  0.1227 -0.1738
  527MOL0     C69441   9.464   4.561   1.429 -0.2283  1.0841  0.9010
  527MOL0     C69442   9.428   4.436   1.344  1.3364  0.9014 -0.3320
  527MOL0     C69443   9.336   4.331   1.420 -0.2062  0.4111 -0.7442
  527MOL0     C69444   9.307   4.202   1.340  0.4013  0.2484 -0.5761
  527MOL0     C69445   9.199   4.230   1.239 -0.2625  0.7337  0.5527
  527MOL0     C69446   9.121   4.110   1.187 -0.0535  1.0216 -0.2477
  527MOL0     C69447   9.012   4.152   1.088  0.0163  0.1000  0.4004
  527MOL0     C69448   8.948   4.023   1.027 -0.1640  0.3978  0.3877
  527MOL0     N69449   8.835   4.053   0.935  0.6851  0.5027 -0.5100
  527MOL0     C69450   8.714   3.990   0.945 -1.4889 -0.4224 -0.8021
  527MOL0     C69451   8.633   4.060   0.859 -0.5319 -0.5504 -0.0708
  527MOL0     C69452   8.493   4.053   0.839  0.2892  0.3633 -0.3925
  527MOL0     C69453   8.411   4.144   0.937  0.5665  0.6881 -0.1222
  527MOL0     C69454   8.281   4.075   0.977  0.0178 -0.7474  0.3655
  527MOL0     C69455   8.197   4.143   1.085  0.2902  0.7182  0.3628
  527MOL0     O69456   8.087   4.058   1.124  0.0212  0.6271 -0.0761
  527MOL0     C69457   7.959   4.098   1.086 -0.5814 -0.5713  0.4465
  527MOL0     C69458   7.895   4.202   1.141 -0.0828 -0.3428 -0.3100
  527MOL0     C69459   7.762   4.231   1.123  0.4511  0.7770  1.0855
  527MOL0     C69460   7.694   4.158   1.020 -1.4305 -0.9773  0.5044
  527MOL0     C69461   7.553   4.174   0.988 -0.6099 -0.2352  0.5672
  527MOL0     O69462   7.491   4.080   0.915 -0.2493  0.8586 -0.5311
  527MOL0     C69463   7.369   4.108   0.855  0.2129  0.7347 -0.2451
  527MOL0     C69464   7.255   4.088   0.931 -0.7791  0.2468  0.2283
  527MOL0     C69465   7.134   4.118   0.883 -1.1140  0.1500  0.1376
  527MOL0     C69466   7.123   4.170   0.752  0.7265  0.0926 -0.0705
  527MOL0     O69467   7.001   4.196   0.692 -0.1760 -0.3066  0.7825
  527MOL0     C69468   6.881   4.154   0.753  0.0618  0.0003  0.1981
  527MOL0     C69469   6.772   4.182   0.648 -1.2621 -0.4989 -0.3541
  527MOL0     C69470   6.788   4.084   0.525  0.7519 -0.6717 -0.4823
  527MOL0     C69471   6.726   4.135   0.392  0.1761  0.2573 -0.4296
  527MOL0     C69472   6.579   4.180   0.386 -0.0493 -0.2133 -0.1851
  527MOL0     C69473   6.478   4.069   0.368 -0.1260  0.5054  0.1734
  527MOL0     C69474   6.340   4.102   0.435 -0.5346  0.6004  0.1803
  527MOL0     C69475   6.244   4.005   0.364  0.0601  0.2808  0.5380
  527MOL0    Cl69476   6.107   4.005   0.482  0.0587 -0.0569  0.1119
  527MOL0     C69477   7.235   4.182   0.670  0.5763 -0.1544 -0.1174
  527MOL0     C69478   7.356   4.143   0.716  0.1238  0.5411  0.0832
  527MOL0     O69479   7.500   4.273   1.038  0.0261  0.3196  0.1369
  527MOL0     C69480   7.771   4.060   0.944  0.4246  0.2240  0.2448
  527MOL0     C69481   7.897   4.027   0.985 -0.2729  0.6126  0.8568
  527MOL0     N69482   8.702   4.165   0.814 -0.2102 -0.4492  0.0238
  527MOL0     N69483   8.829   4.148   0.842 -0.3206 -0.5217  0.3447
  527MOL0     C69484   9.746   4.486   1.404 -0.0415  0.0850 -0.3479
  527MOL0     C69485   9.881   4.452   1.404  0.6466 -0.4203  0.0760
  527MOL0     C69486  10.335   4.469   1.543  0.3223  0.8260  0.0735
  527MOL0     C69487  10.373   4.511   1.413  0.2836 -0.1196  0.0951
  527MOL0     C69488  10.502   4.523   1.368  0.3064  0.2368  1.0148
  527MOL0     C69489  10.604   4.482   1.450 -0.4513  0.0970  0.4516
  527MOL0     O69490  10.731   4.469   1.384  0.3371 -0.4673 -0.3928
  527MOL0     C69491  10.845   4.414   1.466  0.9475 -0.3076  0.5319
  527MOL0     C69492  10.949   4.364   1.364  0.4787  0.1744  1.1597
  527MOL0     C69493  11.089   4.391   1.414 -0.8042  0.4128  0.6611
  527MOL0     C69494  11.197   4.355   1.305  0.4916 -0.1071  0.5799
  527MOL0     C69495  11.193   4.453   1.196  0.3555 -0.4484 -0.1809
  527MOL0     C69496  11.215   4.529   1.105 -0.5074 -0.2671  0.0502
  527MOL0     C69497  10.575   4.432   1.580  0.8380  0.1456 -0.7577
  527MOL0     C69498  10.439   4.425   1.622  0.7790 -0.1171  0.1008
  527MOL0     H69499   9.931   4.546   1.723 -0.4398  1.6773 -1.9866
  527MOL0     H69500   9.710   4.552   1.731  1.9674  0.6144  1.0846
  527MOL0     H69501   9.527   4.631   1.372  3.8613 -2.5223  0.3986
  527MOL0     H69502   9.369   4.606   1.458 -1.3860 -0.3328 -0.5358
  527MOL0     H69503   9.516   4.378   1.315  0.7422  0.8922 -2.2470
  527MOL0     H69504   9.379   4.460   1.249  0.5492 -1.6968 -0.6822
  527MOL0     H69505   9.240   4.374   1.448 -1.5439 -1.7358 -1.7890
  527MOL0     H69506   9.393   4.303   1.509  2.9003  2.8440 -1.7851
  527MOL0     H69507   9.401   4.162   1.302  1.9562  2.6836  0.4848
  527MOL0     H69508   9.268   4.129   1.412  1.6644  0.2856  0.1787
  527MOL0     H69509   9.236   4.274   1.145 -0.4804  0.2897  0.2571
  527MOL0     H69510   9.129   4.298   1.288  0.3467 -0.3503  3.0763
  527MOL0     H69511   9.077   4.056   1.271 -1.7406  1.1649 -0.9812
  527MOL0     H69512   9.192   4.040   1.143 -2.4323 -0.5153 -1.9431
  527MOL0     H69513   8.938   4.208   1.147 -0.7407 -0.7856  0.3139
  527MOL0     H69514   9.059   4.215   1.013  2.2903 -1.2906  0.5891
  527MOL0     H69515   8.906   3.958   1.105  0.1456 -0.2918 -0.0089
  527MOL0     H69516   9.026   3.961   0.981  0.4845  1.9025 -0.6419
  527MOL0     H69517   8.695   3.910   1.015  0.2240  0.8972  1.3050
  527MOL0     H69518   8.459   3.949   0.839 -0.9704  0.7593  1.0289
  527MOL0     H69519   8.481   4.084   0.735  1.4189 -0.6469 -0.8537
  527MOL0     H69520   8.392   4.245   0.900 -0.8636  1.1163  1.5818
  527MOL0     H69521   8.476   4.155   1.025  2.2347  2.2498 -1.4776
  527MOL0     H69522   8.229   4.066   0.881 -1.8781  3.8121  0.6719
  527MOL0     H69523   8.308   3.977   1.017 -2.3853 -2.3752 -1.7141
  527MOL0     H69524   8.158   4.239   1.051 -1.4945 -0.5132 -1.3272
  527MOL0     H69525   8.264   4.144   1.172  0.2365  0.6624  0.4044
  527MOL0     H69526   7.957   4.253   1.213  1.5373 -5.5965  2.4766
  527MOL0     H69527   7.718   4.307   1.186  0.5339  0.5704  1.3938
  527MOL0     H69528   7.257   4.053   1.033  1.2132  0.0111  0.1576
  527MOL0     H69529   7.046   4.095   0.943 -0.9388 -1.6523 -0.2343
  527MOL0     H69530   6.855   4.208   0.845  1.1071  1.5593 -0.3638
  527MOL0     H69531   6.887   4.048   0.779  0.2296 -0.1382 -0.3885
  527MOL0     H69532   6.801   4.275   0.598  0.0019 -1.0486 -0.6713
  527MOL0     H69533   6.671   4.185   0.691 -0.5062  2.0806  1.5199
  527MOL0     H69534   6.754   3.982   0.548  1.8364 -1.3779 -1.8567
  527MOL0     H69535   6.893   4.063   0.504  1.7103  2.2031  0.9151
  527MOL0     H69536   6.792   4.212   0.350  1.7919  0.2129  1.8419
  527MOL0     H69537   6.736   4.058   0.315 -1.1982 -1.9512  1.4671
  527MOL0     H69538   6.562   4.258   0.311 -0.8774 -0.1610  0.0453
  527MOL0     H69539   6.556   4.233   0.479  0.2634 -0.8691  0.2722
  527MOL0     H69540   6.508   3.970   0.402 -1.0028  0.4238  0.7486
  527MOL0     H69541   6.472   4.060   0.259  2.1963  2.8327 -0.2794
  527MOL0     H69542   6.345   4.077   0.542 -0.3974  2.9288  0.7657
  527MOL0     H69543   6.323   4.208   0.417  1.2151  0.4827 -2.6307
  527MOL0     H69544   6.290   3.907   0.344 -1.2361 -0.2171 -0.1844
  527MOL0     H69545   6.200   4.043   0.271  2.7731  2.7891  0.1408
  527MOL0     H69546   7.217   4.215   0.568 -1.2651  0.4447  0.3694
  527MOL0     H69547   7.445   4.151   0.654  1.3033 -0.4221  1.5858
  527MOL0     H69548   7.734   4.020   0.851  0.9441 -0.9175  0.5125
  527MOL0     H69549   7.948   3.946   0.935  0.7074  0.2091  2.4391
  527MOL0     H69550   9.701   4.497   1.306  0.4797 -1.0661 -0.7366
  527MOL0     H69551   9.928   4.428   1.310 -0.3828  1.2091 -0.9105
  527MOL0     H69552  10.296   4.552   1.349 -0.8175  0.0971  1.5186
  527MOL0     H69553  10.519   4.543   1.263 -0.3363 -0.4161  0.7827
  527MOL0     H69554  10.815   4.332   1.533  0.2148  1.2596  2.2133
  527MOL0     H69555  10.881   4.505   1.517 -1.7716  0.2268  1.6757
  527MOL0     H69556  10.932   4.257   1.353 -1.6126  0.5104  0.7479
  527MOL0     H69557  10.944   4.411   1.265  2.1032  0.0141  0.9698
  527MOL0     H69558  11.099   4.322   1.498  0.9151  1.1020  1.0692
  527MOL0     H69559  11.093   4.496   1.445 -1.2112  0.6641 -0.1141
  527MOL0     H69560  11.291   4.351   1.361  0.7761  0.9760  0.2036
  527MOL0     H69561  11.177   4.251   1.281 -1.2315  0.5675 -1.0953
  527MOL0     H69562  11.205   4.605   1.031 -1.6984  2.0686  2.4109
  527MOL0     H69563  10.650   4.390   1.645  0.8023  1.9406  0.5058
  527MOL0     H69564  10.408   4.401   1.723 -0.1265 -0.8854 -0.3454
  528MOL0     O69565   9.372   6.914   0.871 -0.1216  0.8587 -0.2120
  528MOL0     C69566   9.356   6.897   0.993 -0.7389 -0.5182 -0.0986
  528MOL0     O69567   9.238   6.927   1.058 -0.1352 -0.1130  0.2191
  528MOL0     C69568   9.113   6.948   0.991  0.2013 -0.9146  0.7126
  528MOL0     C69569   9.098   6.987   0.859 -0.3654 -0.6330 -1.1290
  528MOL0     C69570   8.972   6.981   0.796  0.0688 -0.2235 -0.8102
  528MOL0     C69571   8.859   6.946   0.874  0.4827  0.7987 -0.0940
  528MOL0     O69572   8.732   6.962   0.828 -0.0710  0.0226 -0.3931
  528MOL0     C69573   8.630   6.860   0.852  0.7764 -0.4383  0.1170
  528MOL0     C69574   8.536   6.921   0.957  0.6806 -0.3936  0.1899
  528MOL0     C69575   8.467   7.044   0.899  0.7306  0.2577 -0.5140
  528MOL0     C69576   8.372   7.006   0.786 -0.4016 -0.9320 -0.3237
  528MOL0     C69577   8.243   6.940   0.828  0.2042 -0.1430  0.5202
  528MOL0     C69578   8.141   7.030   0.878 -0.4781 -0.2304 -0.4388
  528MOL0     C69579   8.003   6.967   0.882  0.5807  0.0268  0.0348
  528MOL0     C69580   7.921   7.064   0.965 -0.9952 -0.0348 -0.2115
  528MOL0     N69581   7.781   7.023   0.981  0.2151 -0.5640 -0.4529
  528MOL0     C69582   7.726   6.965   1.094  0.2415 -0.5928  0.5094
  528MOL0     C69583   7.596   6.949   1.047 -0.2806  0.6272 -0.3389
  528MOL0     C69584   7.495   6.878   1.139  0.5068 -0.6815  0.9275
  528MOL0     C69585   7.348   6.915   1.116 -0.3034 -0.0101 -0.9970
  528MOL0     C69586   7.253   6.812   1.187  0.0506 -0.0536  0.8298
  528MOL0     C69587   7.108   6.853   1.169 -1.3468 -0.6216  0.4411
  528MOL0     O69588   7.075   6.962   1.256  0.1342  0.1033 -0.0353
  528MOL0     C69589   6.944   6.984   1.267  0.8773 -0.3343  1.0136
  528MOL0     C69590   6.834   6.908   1.199 -0.0168 -0.0502 -0.0471
  528MOL0     C69591   6.699   6.936   1.210  0.0819 -0.5525  0.0137
  528MOL0     C69592   6.658   7.058   1.276 -0.3871 -0.6573  0.2889
  528MOL0     C69593   6.518   7.105   1.290 -0.6965 -0.7432 -0.5384
  528MOL0     O69594   6.424   7.038   1.208  0.3954 -0.1746 -0.4602
  528MOL0     C69595   6.292   7.087   1.217 -0.9963  0.0781 -0.0508
  528MOL0     C69596   6.195   6.988   1.249  0.1622  0.2099  0.6209
  528MOL0     C69597   6.061   7.031   1.267 -0.8002 -1.3411  0.1966
  528MOL0     C69598   6.013   7.165   1.240 -0.1019  0.2268  0.8610
  528MOL0     O69599   5.875   7.184   1.238 -0.3184  0.0091  0.2955
  528MOL0     C69600   5.826   7.305   1.179 -0.2803  0.8597  0.8314
  528MOL0     C69601   5.677   7.327   1.202 -0.2230 -0.5496 -0.2494
  528MOL0     C69602   5.648   7.471   1.150  0.1198  0.6660 -0.8652
  528MOL0     C69603   5.525   7.524   1.227  0.3714 -1.4127  0.3584
  528MOL0     C69604   5.396   7.435   1.216  0.4186  0.6564  0.5375
  528MOL0     C69605   5.272   7.498   1.274  0.7526 -0.4636  0.1391
  528MOL0     C69606   5.234   7.479   1.425 -0.5301 -0.4066 -0.2720
  528MOL0     C69607   5.096   7.528   1.459 -0.1928  0.1704  1.0240
  528MOL0    Cl69608   4.977   7.427   1.378 -0.1594 -0.1882  0.1938
  528MOL0     C69609   6.115   7.257   1.204 -0.6159 -0.8077 -0.3102
  528MOL0     C69610   6.247   7.221   1.191 -0.5528 -0.5348 -0.4758
  528MOL0     O69611   6.503   7.208   1.347  0.7340  0.5553 -0.5193
  528MOL0     C69612   6.760   7.138   1.330 -1.3321 -0.2088 -0.0404
  528MOL0     C69613   6.900   7.100   1.334  0.3044  0.4319 -0.0593
  528MOL0     N69614   7.573   7.002   0.923  0.0259  0.4360  0.0831
  528MOL0     N69615   7.688   7.042   0.885  0.5829  0.5889 -0.4016
  528MOL0     C69616   8.875   6.911   1.010 -0.0779  0.1988  0.2389
  528MOL0     C69617   9.004   6.914   1.064 -0.6582  0.1640 -1.0204
  528MOL0     C69618   9.482   6.866   1.063 -0.4049 -0.1306 -0.1474
  528MOL0     C69619   9.608   6.853   0.999 -0.3222 -0.1239 -0.7095
  528MOL0     C69620   9.728   6.820   1.076  0.4867 -0.5615  0.4506
  528MOL0     C69621   9.723   6.800   1.218 -0.0668 -0.2928 -0.2522
  528MOL0     O69622   9.835   6.773   1.296  0.3195  0.3974 -0.2155
  528MOL0     C69623   9.965   6.749   1.239 -0.6210  0.8845 -0.5826
  528MOL0     C69624   9.991   6.601   1.221  0.2445 -0.0039  0.2211
  528MOL0     C69625  10.133   6.567   1.167  0.1641 -0.4662  0.4397
  528MOL0     C69626  10.138   6.424   1.121 -0.0237  0.5845  0.3364
  528MOL0     C69627  10.095   6.315   1.212 -0.2055 -0.5793  0.7548
  528MOL0     C69628  10.083   6.242   1.307 -0.4459  0.1215  0.3576
  528MOL0     C69629   9.604   6.823   1.276  0.1439 -0.2212  0.6747
  528MOL0     C69630   9.490   6.858   1.204 -0.2556  0.6041  0.4605
  528MOL0     H69631   9.182   7.020   0.799  1.1137  0.8162  1.5448
  528MOL0     H69632   8.958   7.028   0.699  0.6455  1.1111 -0.2729
  528MOL0     H69633   8.660   6.764   0.895 -0.9940 -0.4186  1.5323
  528MOL0     H69634   8.576   6.842   0.759 -1.5556 -0.5012  1.4100
  528MOL0     H69635   8.588   6.944   1.051 -1.0725 -3.1501  1.9714
  528MOL0     H69636   8.463   6.844   0.984  0.6375 -1.6918 -3.1167
  528MOL0     H69637   8.536   7.121   0.864  1.2062  0.2901  0.4552
  528MOL0     H69638   8.407   7.095   0.974 -1.0406  1.8177 -2.8625
  528MOL0     H69639   8.343   7.094   0.727 -1.5593 -1.8034 -1.0936
  528MOL0     H69640   8.406   6.939   0.707  0.7082  0.7083 -1.3112
  528MOL0     H69641   8.261   6.862   0.903 -1.7135  2.1253  3.6012
  528MOL0     H69642   8.208   6.894   0.735  1.3504  3.1270 -1.6924
  528MOL0     H69643   8.149   7.123   0.821 -1.6471 -0.3448 -0.8210
  528MOL0     H69644   8.176   7.056   0.979  0.0265  0.0863 -0.6923
  528MOL0     H69645   7.967   6.957   0.779  0.7243  0.3819 -0.0529
  528MOL0     H69646   8.001   6.869   0.930 -0.3801  1.6021  3.5069
  528MOL0     H69647   7.928   7.163   0.918 -1.3387  0.8911  1.6037
  528MOL0     H69648   7.967   7.069   1.064 -0.0328  0.5609 -0.6691
  528MOL0     H69649   7.764   6.935   1.191  0.9554  1.3647  0.8677
  528MOL0     H69650   7.515   6.913   1.241 -2.3579 -0.7433  1.6084
  528MOL0     H69651   7.517   6.771   1.139 -1.3565 -1.1191  0.2773
  528MOL0     H69652   7.324   6.917   1.009 -1.0956  0.3214 -0.8209
  528MOL0     H69653   7.329   7.014   1.159  2.2166  0.3107 -0.4465
  528MOL0     H69654   7.278   6.712   1.152  0.8426  1.3892 -3.2906
  528MOL0     H69655   7.267   6.810   1.296 -0.5865 -0.3564  0.9080
  528MOL0     H69656   7.057   6.760   1.196  0.2060 -2.1975 -1.6335
  528MOL0     H69657   7.070   6.868   1.067 -1.4766  1.1048  0.7273
  528MOL0     H69658   6.851   6.814   1.147  0.2380 -0.0942  0.1140
  528MOL0     H69659   6.632   6.869   1.157  0.3589 -0.1535 -0.8677
  528MOL0     H69660   6.231   6.885   1.254  1.4325  0.1170 -4.9089
  528MOL0     H69661   5.988   6.957   1.299 -3.3823  0.5418 -0.9700
  528MOL0     H69662   5.847   7.301   1.072  0.0322  0.3989  0.9072
  528MOL0     H69663   5.883   7.392   1.214  1.4871  0.7815 -1.5900
  528MOL0     H69664   5.658   7.318   1.310  1.6831  0.1274  0.1823
  528MOL0     H69665   5.620   7.248   1.153 -0.4613 -1.6639  1.7429
  528MOL0     H69666   5.624   7.485   1.044  1.5202  2.5995 -0.9905
  528MOL0     H69667   5.736   7.533   1.168  1.3082 -1.2767  0.3278
  528MOL0     H69668   5.545   7.535   1.334 -1.2508 -1.1824  0.6720
  528MOL0     H69669   5.513   7.625   1.186 -2.2384 -1.8873 -0.2666
  528MOL0     H69670   5.409   7.335   1.259 -2.9433 -0.3622 -0.5500
  528MOL0     H69671   5.366   7.430   1.111  0.2983  0.9065  0.5599
  528MOL0     H69672   5.187   7.454   1.221 -1.2867  1.8487  1.2844
  528MOL0     H69673   5.281   7.604   1.248  0.1512 -0.5892 -0.5990
  528MOL0     H69674   5.243   7.379   1.467 -1.3426  0.9015  3.4002
  528MOL0     H69675   5.309   7.533   1.483 -1.3292 -1.5504  1.9216
  528MOL0     H69676   5.071   7.625   1.415 -2.4441 -1.4341 -1.6073
  528MOL0     H69677   5.063   7.534   1.563 -1.5819  2.3187  0.5285
  528MOL0     H69678   6.086   7.362   1.197  2.4770  0.4313  2.7993
  528MOL0     H69679   6.313   7.300   1.157 -0.3558 -1.1575 -1.5853
  528MOL0     H69680   6.720   7.224   1.383 -1.0404 -0.6919  0.9890
  528MOL0     H69681   6.974   7.163   1.382  0.5979  2.3286 -2.7950
  528MOL0     H69682   8.794   6.867   1.068 -0.2629 -0.3585 -0.4216
  528MOL0     H69683   9.009   6.892   1.170 -0.2846 -0.8334 -1.2376
  528MOL0     H69684   9.615   6.842   0.891 -0.8941 -2.4033 -0.5695
  528MOL0     H69685   9.815   6.807   1.013 -0.3121 -3.2676 -0.2294
  528MOL0     H69686  10.032   6.806   1.304 -0.0332 -0.2642 -0.1502
  528MOL0     H69687   9.985   6.795   1.142 -1.1794  0.6622 -0.8094
  528MOL0     H69688   9.983   6.549   1.317 -0.2213 -2.2886 -0.9838
  528MOL0     H69689   9.911   6.566   1.156 -0.6080  1.4510  0.4522
  528MOL0     H69690  10.200   6.589   1.251 -3.1622  1.8329  2.7032
  528MOL0     H69691  10.166   6.627   1.082 -0.2517  0.6979  1.0802
  528MOL0     H69692  10.075   6.416   1.032  0.6364  1.1003 -0.1876
  528MOL0     H69693  10.237   6.396   1.085  0.6810  0.8260  2.0069
  528MOL0     H69694  10.078   6.187   1.399  2.3139  0.9943  1.1237
  528MOL0     H69695   9.602   6.813   1.384 -1.3123 -0.0447  0.6775
  528MOL0     H69696   9.400   6.867   1.265 -0.2138 -2.2865  1.0686
  529MOL0     O69697   4.388   6.893   5.110  0.3674 -0.1982 -0.5446
  529MOL0     C69698   4.390   6.991   5.034  0.6114 -0.5795 -0.0691
  529MOL0     O69699   4.288   7.073   5.020  1.2885 -0.0714  0.3144
  529MOL0     C69700   4.187   7.070   5.114  0.6448  0.4311  0.0832
  529MOL0     C69701   4.153   7.185   5.175  1.0275 -0.0106 -0.0181
  529MOL0     C69702   4.030   7.203   5.239  0.2224 -0.4385  0.0617
  529MOL0     C69703   3.933   7.098   5.249 -0.6220 -0.7914 -0.1462
  529MOL0     O69704   3.812   7.111   5.320  0.6394 -0.6569 -0.2300
  529MOL0     C69705   3.838   7.107   5.457 -0.1158  0.1865  0.0597
  529MOL0     C69706   3.707   7.058   5.522  0.5000 -0.5142  0.2096
  529MOL0     C69707   3.674   6.913   5.482  0.1327  0.9246 -0.4462
  529MOL0     C69708   3.563   6.861   5.568 -0.0966 -0.4516 -0.4626
  529MOL0     C69709   3.506   6.728   5.518  0.5408  0.0503 -0.6109
  529MOL0     C69710   3.425   6.659   5.628 -1.0547 -0.4389 -0.3566
  529MOL0     C69711   3.384   6.531   5.564 -0.3408  0.8321  0.4835
  529MOL0     C69712   3.312   6.433   5.661 -0.2991 -0.4065  0.5545
  529MOL0     N69713   3.182   6.480   5.695 -0.5351 -0.7154 -0.0587
  529MOL0     C69714   3.076   6.478   5.613 -0.2109  0.1503 -0.7004
  529MOL0     C69715   2.968   6.516   5.690  0.4201 -1.0167  1.1551
  529MOL0     C69716   2.819   6.511   5.651  0.2068 -0.1606 -0.1301
  529MOL0     C69717   2.722   6.480   5.770 -0.0313 -0.6656  0.4232
  529MOL0     C69718   2.576   6.506   5.729  0.2034  0.2900 -1.0921
  529MOL0     C69719   2.494   6.511   5.859 -0.2002  0.4199 -0.1851
  529MOL0     O69720   2.364   6.560   5.814 -0.9994 -0.1710  0.0347
  529MOL0     C69721   2.263   6.483   5.768 -0.4074  0.0026  1.2885
  529MOL0     C69722   2.254   6.342   5.789 -0.1017 -0.4097 -0.5096
  529MOL0     C69723   2.139   6.269   5.756  0.1675 -0.3585  0.9618
  529MOL0     C69724   2.031   6.340   5.690 -0.0459  0.8939  0.3484
  529MOL0     C69725   1.903   6.262   5.659 -0.0165 -0.4301 -0.2954
  529MOL0     O69726   1.805   6.337   5.607  0.2014  0.3514 -0.5051
  529MOL0     C69727   1.679   6.284   5.575 -0.7527  0.3249  0.7156
  529MOL0     C69728   1.615   6.188   5.653 -0.2363 -0.1542  0.0582
  529MOL0     C69729   1.488   6.140   5.611  0.2273 -0.0545 -0.5533
  529MOL0     C69730   1.424   6.191   5.500 -0.1313 -0.5745 -0.0922
  529MOL0     O69731   1.305   6.131   5.467 -0.2880 -0.5254  0.2036
  529MOL0     C69732   1.264   6.139   5.332 -1.1689 -0.4490  0.9066
  529MOL0     C69733   1.127   6.070   5.331  0.1328  1.2122  0.4915
  529MOL0     C69734   1.143   5.913   5.342 -0.2067 -0.9010 -0.6058
  529MOL0     C69735   1.008   5.856   5.381  0.0495  0.1988 -0.4371
  529MOL0     C69736   1.004   5.707   5.413  0.0146  0.0490  0.1473
  529MOL0     C69737   0.859   5.648   5.421 -1.4936 -0.1751 -0.3854
  529MOL0     C69738   0.870   5.520   5.496  0.7067 -0.0048  0.5752
  529MOL0     C69739   0.739   5.433   5.486 -0.3255  0.4111 -0.0456
  529MOL0    Cl69740   0.597   5.525   5.530 -0.2388  0.0133  0.0560
  529MOL0     C69741   1.489   6.288   5.423  0.1722 -1.0747  0.1671
  529MOL0     C69742   1.616   6.335   5.463  0.5521  0.0370 -0.3310
  529MOL0     O69743   1.904   6.146   5.679 -0.4972 -0.5796  0.0868
  529MOL0     C69744   2.050   6.470   5.657 -0.2431 -0.0369  0.0642
  529MOL0     C69745   2.169   6.545   5.688  0.9819  0.7898 -0.5904
  529MOL0     N69746   3.020   6.536   5.817  0.0214 -0.5194 -0.2120
  529MOL0     N69747   3.146   6.512   5.817  0.1898 -0.0348 -0.6642
  529MOL0     C69748   3.970   6.982   5.185  0.2041  0.5282  0.4128
  529MOL0     C69749   4.096   6.966   5.122 -0.3653 -0.1670  0.1923
  529MOL0     C69750   4.494   7.003   4.938  0.4901 -0.1154 -0.3102
  529MOL0     C69751   4.501   7.111   4.848  0.4198  0.5516 -0.2549
  529MOL0     C69752   4.612   7.117   4.754  0.0538 -0.2176 -0.3580
  529MOL0     C69753   4.705   7.013   4.735  0.1237 -0.6372 -1.0527
  529MOL0     O69754   4.811   7.005   4.650 -0.4894 -0.3655  0.6990
  529MOL0     C69755   4.837   7.124   4.566  0.6499  0.6372 -1.2589
  529MOL0     C69756   4.937   7.098   4.463  0.0606  0.0862  0.2484
  529MOL0     C69757   5.083   7.080   4.506  0.0396  0.1839  0.6827
  529MOL0     C69758   5.175   7.040   4.390  0.2092 -0.7677  0.8309
  529MOL0     C69759   5.177   7.138   4.279  0.0239 -0.5066 -0.1823
  529MOL0     C69760   5.176   7.221   4.193 -0.2755  0.8675 -0.4707
  529MOL0     C69761   4.695   6.906   4.821  0.1908 -0.3662  0.9322
  529MOL0     C69762   4.597   6.901   4.929 -0.3893 -0.2910  0.1590
  529MOL0     H69763   4.211   7.275   5.160 -1.4364  1.1525 -4.4037
  529MOL0     H69764   4.021   7.299   5.291 -0.4776 -0.6172  0.2878
  529MOL0     H69765   3.863   7.206   5.496  4.5049  0.1334 -2.0571
  529MOL0     H69766   3.918   7.040   5.488  1.7402  2.8927  1.4754
  529MOL0     H69767   3.639   7.137   5.489  1.7633 -0.3763 -2.3004
  529MOL0     H69768   3.714   7.064   5.631  2.7690  1.5731  0.0469
  529MOL0     H69769   3.760   6.846   5.493 -0.5662 -0.0007 -0.5002
  529MOL0     H69770   3.648   6.893   5.378  1.6099 -0.7103 -0.5407
  529MOL0     H69771   3.600   6.855   5.671 -2.1692 -2.1255  0.2802
  529MOL0     H69772   3.481   6.933   5.570 -0.7649 -1.1910 -0.4263
  529MOL0     H69773   3.586   6.666   5.475 -1.9843 -2.3503 -2.1676
  529MOL0     H69774   3.439   6.745   5.434 -0.4358 -1.1034 -0.0917
  529MOL0     H69775   3.344   6.727   5.657 -0.7306 -0.3405  0.3334
  529MOL0     H69776   3.491   6.649   5.715 -2.4884 -1.4078  0.6701
  529MOL0     H69777   3.322   6.539   5.474  0.8005  1.4531 -0.2682
  529MOL0     H69778   3.478   6.491   5.525 -1.5003  0.5997 -2.2772
  529MOL0     H69779   3.363   6.407   5.754  1.3511 -1.0989 -0.4874
  529MOL0     H69780   3.303   6.332   5.617 -0.7806 -0.2619  0.3141
  529MOL0     H69781   3.068   6.448   5.509 -2.1203  0.2675 -0.6198
  529MOL0     H69782   2.809   6.442   5.567  0.5366 -0.9100  0.4351
  529MOL0     H69783   2.791   6.611   5.616 -0.2577  0.1203  1.0043
  529MOL0     H69784   2.750   6.541   5.856  1.1812  0.0447 -0.4307
  529MOL0     H69785   2.733   6.377   5.805 -2.7920 -1.0375  0.4286
  529MOL0     H69786   2.555   6.604   5.686 -1.5368  0.7147  0.5564
  529MOL0     H69787   2.544   6.421   5.669 -0.3960  0.7770 -1.4746
  529MOL0     H69788   2.545   6.579   5.928 -0.6369  1.8722 -1.2349
  529MOL0     H69789   2.487   6.415   5.911 -2.7734  1.3709  1.3888
  529MOL0     H69790   2.333   6.305   5.854  1.7045  0.4554 -2.1094
  529MOL0     H69791   2.132   6.165   5.786  1.4942 -0.1563  2.0608
  529MOL0     H69792   1.654   6.145   5.745  2.4498 -0.2276 -1.0494
  529MOL0     H69793   1.436   6.056   5.655  1.6786 -1.1527 -0.8502
  529MOL0     H69794   1.337   6.087   5.270  0.6823  0.2595  2.3789
  529MOL0     H69795   1.263   6.241   5.293  3.5377 -1.9329 -4.2781
  529MOL0     H69796   1.083   6.102   5.236  1.1339 -1.4992 -1.0120
  529MOL0     H69797   1.067   6.116   5.409  0.8043 -0.9655  2.4030
  529MOL0     H69798   1.220   5.900   5.419 -0.4222 -2.7396 -0.6515
  529MOL0     H69799   1.185   5.865   5.253  2.9075 -2.2068  1.3768
  529MOL0     H69800   0.982   5.901   5.478 -0.1109 -0.9807  0.0831
  529MOL0     H69801   0.938   5.880   5.302  0.4109  0.6856 -0.6140
  529MOL0     H69802   1.057   5.680   5.505  1.0543 -0.4506 -0.5765
  529MOL0     H69803   1.070   5.657   5.342  2.8232  3.6033 -0.0673
  529MOL0     H69804   0.817   5.632   5.321 -2.6793 -1.1099  0.2400
  529MOL0     H69805   0.790   5.708   5.481  1.2888  0.5805  2.3508
  529MOL0     H69806   0.950   5.458   5.454  0.9698 -0.4192  1.6713
  529MOL0     H69807   0.896   5.531   5.602 -1.9834  0.0648  1.2873
  529MOL0     H69808   0.747   5.352   5.558  2.5270  1.0677  0.4872
  529MOL0     H69809   0.728   5.391   5.385  0.6067  2.3699 -1.0240
  529MOL0     H69810   1.450   6.322   5.328 -1.0117 -1.3808  0.5321
  529MOL0     H69811   1.665   6.408   5.400 -0.4480  0.7295 -0.3354
  529MOL0     H69812   1.970   6.514   5.597 -0.9635 -0.5438  0.6282
  529MOL0     H69813   2.174   6.649   5.658  0.2705  0.9622 -0.1272
  529MOL0     H69814   3.898   6.902   5.171  3.6447 -2.7406 -0.1974
  529MOL0     H69815   4.112   6.882   5.055 -1.9907 -1.8561  1.7800
  529MOL0     H69816   4.434   7.195   4.846  0.5097  0.6172 -1.5741
  529MOL0     H69817   4.622   7.210   4.698  0.3388  1.0355  1.6775
  529MOL0     H69818   4.872   7.206   4.629  1.2901 -1.4645  1.2895
  529MOL0     H69819   4.742   7.150   4.517 -0.2685  0.1372  0.1901
  529MOL0     H69820   4.906   7.017   4.395  3.5762 -0.2188 -1.2201
  529MOL0     H69821   4.937   7.184   4.395  2.9517 -0.0079  0.0077
  529MOL0     H69822   5.100   7.003   4.582  0.5540 -1.9062 -1.4524
  529MOL0     H69823   5.120   7.174   4.549 -0.3885  0.4939  0.3888
  529MOL0     H69824   5.278   7.031   4.426  1.9761  2.3124 -2.7641
  529MOL0     H69825   5.145   6.939   4.359 -2.6667  0.7340 -1.7056
  529MOL0     H69826   5.188   7.286   4.109  0.0203 -1.1004 -2.0232
  529MOL0     H69827   4.756   6.820   4.796 -0.6482 -1.0830  1.2847
  529MOL0     H69828   4.590   6.812   4.990 -0.1943  0.6638  1.6085
  530MOL0     O69829   6.751   7.950   3.031  0.4718 -0.3751  0.1901
  530MOL0     C69830   6.724   7.845   3.076  0.3552 -0.0487 -0.2730
  530MOL0     O69831   6.599   7.799   3.102  0.3907 -0.4425 -0.9376
  530MOL0     C69832   6.479   7.854   3.066  0.3249 -0.1095  0.0862
  530MOL0     C69833   6.371   7.773   3.033 -0.0746  0.8756  0.7645
  530MOL0     C69834   6.247   7.832   2.991 -0.0064  0.5297 -0.4613
  530MOL0     C69835   6.229   7.973   2.993  0.2588 -0.6545  0.3298
  530MOL0     O69836   6.118   8.033   2.941 -0.8182 -0.9255 -0.1558
  530MOL0     C69837   5.997   7.984   2.996 -0.0238  0.3014  0.0136
  530MOL0     C69838   5.880   8.047   2.931 -0.0021  0.1303  0.1579
  530MOL0     C69839   5.745   7.987   2.974  0.6848  0.5338 -0.6987
  530MOL0     C69840   5.628   8.058   2.912 -0.7152 -0.3072  0.5600
  530MOL0     C69841   5.623   8.060   2.754 -0.3676  0.2764  0.2727
  530MOL0     C69842   5.619   7.924   2.679  0.0837  0.1182 -0.6932
  530MOL0     C69843   5.490   7.856   2.711 -0.2503  0.5857 -0.2362
  530MOL0     C69844   5.352   7.927   2.752  0.3871  0.5915  0.1224
  530MOL0     N69845   5.238   7.838   2.783  0.0139 -0.5414  0.3795
  530MOL0     C69846   5.248   7.701   2.786 -0.5009 -1.0625  0.2523
  530MOL0     C69847   5.120   7.663   2.788  0.1805 -0.8938  0.6716
  530MOL0     C69848   5.080   7.521   2.775  0.5785 -0.1603 -0.9582
  530MOL0     C69849   4.975   7.480   2.885 -0.0867  0.0477  0.8967
  530MOL0     C69850   4.899   7.344   2.846 -0.5989 -0.5045 -0.1212
  530MOL0     C69851   4.753   7.346   2.904  0.1771 -0.6393  0.4662
  530MOL0     O69852   4.777   7.340   3.045  0.0849  0.4539  0.5981
  530MOL0     C69853   4.672   7.293   3.118  0.0846  0.1820  0.9609
  530MOL0     C69854   4.688   7.202   3.216 -0.1343  0.6279 -0.0098
  530MOL0     C69855   4.583   7.163   3.302  0.3346  0.1897  0.2085
  530MOL0     C69856   4.459   7.223   3.279 -1.1007 -0.7059 -0.0046
  530MOL0     C69857   4.353   7.186   3.372  0.4160  0.1977  0.1018
  530MOL0     O69858   4.357   7.047   3.394  0.7193 -0.8405 -0.2388
  530MOL0     C69859   4.241   7.001   3.454 -0.5368 -0.3634  0.7864
  530MOL0     C69860   4.227   6.996   3.590 -0.7574  0.2346 -0.1897
  530MOL0     C69861   4.108   6.932   3.647 -0.7082 -0.1251  0.0320
  530MOL0     C69862   4.003   6.873   3.562 -0.2021 -0.7935  0.0507
  530MOL0     O69863   3.898   6.819   3.628  0.0432 -0.4185 -0.5279
  530MOL0     C69864   3.797   6.780   3.552  0.6688 -0.2721  0.5421
  530MOL0     C69865   3.695   6.715   3.642  0.2401 -0.6929 -0.3324
  530MOL0     C69866   3.577   6.678   3.562 -0.3366 -0.4072 -0.0332
  530MOL0     C69867   3.471   6.623   3.653  0.6133 -0.5177  0.5146
  530MOL0     C69868   3.346   6.590   3.576 -0.6829  1.0330 -0.4060
  530MOL0     C69869   3.369   6.488   3.455 -0.9751 -0.1022 -0.4917
  530MOL0     C69870   3.232   6.446   3.393 -0.6627 -0.8189 -0.0757
  530MOL0     C69871   3.250   6.356   3.276 -0.4033 -0.6066  0.6133
  530MOL0    Cl69872   3.089   6.306   3.227  0.0141 -0.1080 -0.1926
  530MOL0     C69873   4.031   6.889   3.421  0.3494  0.6852 -0.1280
  530MOL0     C69874   4.142   6.948   3.371 -0.1529 -0.8988  0.4962
  530MOL0     O69875   4.265   7.266   3.416  0.0408 -0.9243  0.2017
  530MOL0     C69876   4.447   7.325   3.176 -0.3774  0.7284 -0.4392
  530MOL0     C69877   4.553   7.358   3.101  0.1768 -0.0866  0.3730
  530MOL0     N69878   5.039   7.780   2.783 -0.5899 -0.2832 -0.3615
  530MOL0     N69879   5.112   7.885   2.796  0.2569 -0.0606 -0.2254
  530MOL0     C69880   6.341   8.055   3.015  0.1813  0.2564  0.2444
  530MOL0     C69881   6.463   7.991   3.058  0.0532 -0.0367 -0.7809
  530MOL0     C69882   6.833   7.747   3.101 -1.0049  0.0087  0.1037
  530MOL0     C69883   6.961   7.772   3.047  0.1507  0.2015 -0.1893
  530MOL0     C69884   7.061   7.679   3.068 -0.5161  0.3817  0.5897
  530MOL0     C69885   7.051   7.565   3.149  0.2859 -0.3241 -0.7596
  530MOL0     O69886   7.168   7.493   3.161 -0.5373  0.5381 -0.3955
  530MOL0     C69887   7.143   7.358   3.148  0.5252  0.2932  0.6399
  530MOL0     C69888   7.284   7.299   3.129 -0.4842  0.4068  0.6240
  530MOL0     C69889   7.379   7.315   3.248  0.0868  0.5172 -0.1760
  530MOL0     C69890   7.521   7.286   3.221 -0.0909 -0.4287 -0.2438
  530MOL0     C69891   7.582   7.382   3.131  0.4582 -0.3044  0.1576
  530MOL0     C69892   7.619   7.477   3.058 -0.4528 -0.2379 -0.9249
  530MOL0     C69893   6.923   7.538   3.197 -1.3483  0.0980  0.2983
  530MOL0     C69894   6.821   7.626   3.178 -0.1536  0.4646 -0.3874
  530MOL0     H69895   6.380   7.665   3.039  0.3702  0.3628 -4.5954
  530MOL0     H69896   6.160   7.770   2.970 -0.5371  0.1651  2.3418
  530MOL0     H69897   5.999   7.988   3.106  0.3507  3.9611  0.0130
  530MOL0     H69898   5.984   7.882   2.960  2.3147 -0.5703  1.4349
  530MOL0     H69899   5.894   8.033   2.823  2.5707  0.0431  0.4308
  530MOL0     H69900   5.875   8.155   2.947  0.0018 -0.1020  1.8657
  530MOL0     H69901   5.745   7.984   3.083  1.0269  0.2120 -0.7068
  530MOL0     H69902   5.737   7.886   2.934 -1.0645  0.2065  0.3703
  530MOL0     H69903   5.537   8.020   2.958 -2.7170  1.2531 -1.8594
  530MOL0     H69904   5.636   8.161   2.949 -3.8683  0.7058 -1.2305
  530MOL0     H69905   5.718   8.108   2.725  0.2257 -2.4752 -2.9607
  530MOL0     H69906   5.538   8.123   2.726 -0.3524 -0.2011 -0.8719
  530MOL0     H69907   5.693   7.849   2.712 -3.4035 -2.8195  1.1457
  530MOL0     H69908   5.633   7.941   2.572  0.3151 -2.6386 -1.1616
  530MOL0     H69909   5.455   7.798   2.625 -1.9159 -0.7228  1.2530
  530MOL0     H69910   5.519   7.795   2.798  1.0849  0.3432 -0.8216
  530MOL0     H69911   5.322   7.991   2.668 -3.2148  0.5919  1.2477
  530MOL0     H69912   5.369   7.985   2.843  0.4800 -1.8349  1.7333
  530MOL0     H69913   5.336   7.637   2.787  1.2802  1.0524 -2.8504
  530MOL0     H69914   5.172   7.464   2.792  0.9521  0.8401  0.5923
  530MOL0     H69915   5.050   7.514   2.670 -0.9450  2.1315 -0.7243
  530MOL0     H69916   4.911   7.564   2.913 -0.2136 -0.0078  0.7715
  530MOL0     H69917   5.029   7.461   2.978  2.0073 -1.6768 -0.5671
  530MOL0     H69918   4.897   7.337   2.737 -1.0007 -0.3046 -0.1290
  530MOL0     H69919   4.956   7.254   2.875  0.5655  0.3201  0.2212
  530MOL0     H69920   4.688   7.267   2.862  0.8444  0.3572 -2.7255
  530MOL0     H69921   4.708   7.444   2.890 -0.4554 -0.4251  3.3899
  530MOL0     H69922   4.787   7.160   3.228 -1.1701 -1.8049  0.6305
  530MOL0     H69923   4.597   7.086   3.377 -1.6297 -1.2175 -0.7802
  530MOL0     H69924   4.306   7.041   3.649 -0.3335  1.6633 -1.7524
  530MOL0     H69925   4.101   6.919   3.755 -4.5099  1.5928  0.1337
  530MOL0     H69926   3.818   6.704   3.475 -0.8861  0.5763 -0.7793
  530MOL0     H69927   3.764   6.873   3.505  2.0869  1.3052  2.4791
  530MOL0     H69928   3.676   6.791   3.719  3.5828  2.3279 -2.1663
  530MOL0     H69929   3.737   6.629   3.693  0.3563  1.0256  2.6982
  530MOL0     H69930   3.608   6.604   3.488 -1.5589 -0.5030 -0.4679
  530MOL0     H69931   3.534   6.768   3.516 -0.9056  0.7951  2.6429
  530MOL0     H69932   3.500   6.539   3.716 -0.0992  1.8952  4.4797
  530MOL0     H69933   3.446   6.707   3.719  2.8228  1.6063 -1.1345
  530MOL0     H69934   3.298   6.680   3.534  0.4312  2.3289  0.9847
  530MOL0     H69935   3.281   6.550   3.654 -0.2458 -0.3333 -0.7228
  530MOL0     H69936   3.420   6.397   3.488 -1.2806  0.7504  2.6969
  530MOL0     H69937   3.424   6.535   3.373  2.5410  0.1205  1.7916
  530MOL0     H69938   3.179   6.389   3.470 -1.4401  0.4509  0.3721
  530MOL0     H69939   3.185   6.540   3.360 -1.6411 -1.7505 -1.4673
  530MOL0     H69940   3.305   6.267   3.307  0.5723 -0.2941 -0.1533
  530MOL0     H69941   3.293   6.410   3.191  0.2894 -0.4133  1.0804
  530MOL0     H69942   3.955   6.843   3.357  1.6406 -0.2431 -1.0457
  530MOL0     H69943   4.166   6.945   3.265  2.1757 -0.3747  0.9529
  530MOL0     H69944   4.355   7.382   3.182 -0.8651  0.0967 -1.5613
  530MOL0     H69945   4.543   7.444   3.035 -1.2489  0.6484  1.4910
  530MOL0     H69946   6.330   8.163   3.018 -0.7770  0.1436  1.7806
  530MOL0     H69947   6.546   8.058   3.079  0.7110 -1.4241  1.3013
  530MOL0     H69948   6.983   7.856   2.982  0.6102  0.6335  0.5166
  530MOL0     H69949   7.161   7.694   3.027 -0.4590  0.5630  0.7924
  530MOL0     H69950   7.082   7.334   3.060 -0.5752 -0.6252  1.6148
  530MOL0     H69951   7.107   7.316   3.242  1.1483  0.9532  1.1799
  530MOL0     H69952   7.278   7.194   3.097 -1.5414 -0.0911  2.3223
  530MOL0     H69953   7.339   7.355   3.052  0.2391 -0.3650  0.5578
  530MOL0     H69954   7.339   7.256   3.331  0.2769  1.9572  0.9756
  530MOL0     H69955   7.377   7.417   3.287 -0.3319  0.7752 -0.8487
  530MOL0     H69956   7.578   7.305   3.313 -2.2304  3.2512  0.5054
  530MOL0     H69957   7.534   7.185   3.181 -5.4161 -0.3038 -3.2124
  530MOL0     H69958   7.649   7.552   2.988 -0.3116 -0.5998 -1.2535
  530MOL0     H69959   6.901   7.443   3.245 -1.3776  0.6721  1.4459
  530MOL0     H69960   6.727   7.601   3.226 -0.5033  2.3677  0.0172
  531MOL0     O69961   1.616   5.769   4.733 -0.0944 -0.1902  0.5522
  531MOL0     C69962   1.669   5.880   4.733  0.1540  0.1322 -0.5816
  531MOL0     O69963   1.612   5.984   4.672 -0.2490  0.0944  0.0385
  531MOL0     C69964   1.487   5.980   4.608  0.2372  0.1785 -0.4895
  531MOL0     C69965   1.380   5.917   4.660 -0.3586  0.1394  0.9335
  531MOL0     C69966   1.261   5.909   4.584  0.0318 -0.6432  0.1827
  531MOL0     C69967   1.243   5.988   4.468 -0.0262 -0.2429 -0.5992
  531MOL0     O69968   1.134   5.993   4.389  0.2036  0.4720 -0.0549
  531MOL0     C69969   1.023   6.028   4.460  0.8757 -0.1440 -0.2137
  531MOL0     C69970   0.903   5.936   4.437 -0.1930  0.3201 -0.0395
  531MOL0     C69971   0.790   5.958   4.540  0.6680 -0.4372 -0.2119
  531MOL0     C69972   0.666   5.864   4.520  0.0694 -0.1033  0.0523
  531MOL0     C69973   0.583   5.863   4.648 -0.5049  0.8628 -0.5737
  531MOL0     C69974   0.496   5.989   4.662  1.0100  0.2624  0.1168
  531MOL0     C69975   0.366   5.950   4.747  0.1435  0.5341  0.3622
  531MOL0     C69976   0.395   5.906   4.892  0.8106 -0.2641 -0.3570
  531MOL0     N69977   0.270   5.876   4.964  0.4358 -0.1224 -0.2076
  531MOL0     C69978   0.220   5.930   5.078  0.4631  0.0477  0.2830
  531MOL0     C69979   0.105   5.873   5.106  1.4627  0.5663 -0.6303
  531MOL0     C69980   0.014   5.897   5.225 -1.2642 -0.8860  0.5841
  531MOL0     C69981  -0.100   5.799   5.245 -0.3141 -0.6272 -0.8678
  531MOL0     C69982  -0.189   5.858   5.362  0.4228 -0.4366 -0.6339
  531MOL0     C69983  -0.302   5.766   5.386  0.2433  1.0215  0.0463
  531MOL0     O69984  -0.388   5.810   5.490 -0.3917 -0.5744 -0.2361
  531MOL0     C69985  -0.507   5.870   5.461 -0.3937 -0.6837 -0.2998
  531MOL0     C69986  -0.531   5.931   5.335 -0.0162 -0.1224 -0.4708
  531MOL0     C69987  -0.658   5.998   5.319  0.7861 -0.4069  0.2582
  531MOL0     C69988  -0.763   5.997   5.413  0.4260  0.9993 -0.0359
  531MOL0     C69989  -0.895   6.049   5.378 -0.6101  0.2684  0.4300
  531MOL0     O69990  -0.999   6.009   5.463 -0.1749  0.1243  0.7608
  531MOL0     C69991  -1.129   6.053   5.447  0.3163  0.2165 -0.1666
  531MOL0     C69992  -1.167   6.175   5.401  0.2420 -0.6668  0.3750
  531MOL0     C69993  -1.303   6.213   5.395  0.5103  0.8842 -0.2639
  531MOL0     C69994  -1.398   6.118   5.441  0.6679  0.7956 -0.5028
  531MOL0     O69995  -1.532   6.113   5.443 -0.1399 -0.4333  0.2379
  531MOL0     C69996  -1.588   6.223   5.366 -0.7527  0.1172 -0.0528
  531MOL0     C69997  -1.743   6.207   5.370 -0.2677 -0.2638 -0.5753
  531MOL0     C69998  -1.794   6.074   5.320  0.7026  0.9570  0.3501
  531MOL0     C69999  -1.945   6.075   5.319  0.7248 -0.6394  0.0723
  531MOL0     C70000  -2.002   5.939   5.284  1.2703 -0.3806  0.0068
  531MOL0     C70001  -2.143   5.943   5.233 -0.0745  0.4476  0.2241
  531MOL0     C70002  -2.258   5.969   5.323  0.1508  0.4458 -0.3469
  531MOL0     C70003  -2.374   6.045   5.253 -0.5262 -0.1285 -0.6602
  531MOL0    Cl70004  -2.503   6.098   5.364 -0.0015  0.1813  0.0562
  531MOL0     C70005  -1.353   6.003   5.498  0.4444 -0.1102  0.7689
  531MOL0     C70006  -1.219   5.969   5.508  0.2473  1.3049  0.9680
  531MOL0     O70007  -0.908   6.125   5.286 -0.3508 -0.1439  0.4691
  531MOL0     C70008  -0.742   5.923   5.529  0.1652 -0.4681  0.4246
  531MOL0     C70009  -0.612   5.867   5.554 -0.3171  0.9041 -0.5544
  531MOL0     N70010   0.071   5.801   4.994  0.2522  0.2858 -0.6733
  531MOL0     N70011   0.173   5.797   4.913 -0.8776  0.9060 -0.1345
  531MOL0     C70012   1.355   6.057   4.419  0.6475 -0.1634 -0.2305
  531MOL0     C70013   1.478   6.055   4.487  0.5976  0.3572  1.4132
  531MOL0     C70014   1.812   5.910   4.791 -0.1249 -0.2486 -0.6117
  531MOL0     C70015   1.878   6.034   4.774 -0.5602 -0.2335  0.3933
  531MOL0     C70016   2.015   6.048   4.823  0.6388 -0.0187 -0.6672
  531MOL0     C70017   2.069   5.953   4.906 -0.5842  0.1064  0.3590
  531MOL0     O70018   2.194   5.994   4.957 -0.1892  0.1905 -0.1159
  531MOL0     C70019   2.253   5.915   5.057 -0.3794  0.2994 -0.2597
  531MOL0     C70020   2.363   5.997   5.131  0.6369  0.9566 -0.2703
  531MOL0     C70021   2.448   5.906   5.224  0.5293  0.0444 -0.8089
  531MOL0     C70022   2.540   5.994   5.310 -0.9669  0.1671  0.6371
  531MOL0     C70023   2.472   6.071   5.415  0.8189  0.0075 -0.3883
  531MOL0     C70024   2.438   6.143   5.505  0.5559  0.1112 -0.1021
  531MOL0     C70025   2.006   5.830   4.919  0.2363  0.3545  0.1625
  531MOL0     C70026   1.877   5.806   4.853 -0.2028  0.0128 -0.6244
  531MOL0     H70027   1.399   5.879   4.760  1.5113 -1.9079 -0.1197
  531MOL0     H70028   1.173   5.849   4.606 -1.0112 -0.4582 -3.0600
  531MOL0     H70029   0.991   6.125   4.420  1.0659  0.3139  0.7140
  531MOL0     H70030   1.034   6.032   4.569  2.1910  0.7658 -0.3556
  531MOL0     H70031   0.938   5.836   4.462  0.0085  0.8315  1.8855
  531MOL0     H70032   0.868   5.936   4.334 -1.5427 -2.5980  0.3307
  531MOL0     H70033   0.748   6.059   4.541 -1.4309 -1.2501 -0.6114
  531MOL0     H70034   0.839   5.952   4.638  1.4419 -1.0104 -0.6238
  531MOL0     H70035   0.601   5.880   4.434  0.5426  2.8042  0.1482
  531MOL0     H70036   0.713   5.767   4.502  2.3095  0.8318  0.5097
  531MOL0     H70037   0.634   5.839   4.742  0.7085  0.4164 -1.3351
  531MOL0     H70038   0.523   5.773   4.630  0.6021 -0.3538  1.4522
  531MOL0     H70039   0.451   6.010   4.564  0.3990 -1.6382 -0.0520
  531MOL0     H70040   0.551   6.073   4.706 -1.5127  1.9834  0.2386
  531MOL0     H70041   0.309   6.043   4.749  0.2091  0.5710  0.4909
  531MOL0     H70042   0.306   5.875   4.694  0.6183  0.2808  0.1725
  531MOL0     H70043   0.453   5.975   4.955 -0.1621 -1.9367  2.5816
  531MOL0     H70044   0.453   5.814   4.887  0.7871 -0.2564 -0.8130
  531MOL0     H70045   0.279   5.999   5.137  1.5329 -2.6474  2.5582
  531MOL0     H70046  -0.023   6.000   5.218  1.8506  0.2353 -1.1158
  531MOL0     H70047   0.080   5.900   5.312 -0.2416 -0.5880 -0.1885
  531MOL0     H70048  -0.051   5.702   5.261 -2.4169 -1.3511  1.8004
  531MOL0     H70049  -0.162   5.801   5.155 -0.1713 -0.0046 -0.9546
  531MOL0     H70050  -0.126   5.873   5.450 -0.0258 -0.3425 -0.3206
  531MOL0     H70051  -0.220   5.961   5.340 -1.7550 -0.5227  1.5236
  531MOL0     H70052  -0.262   5.668   5.413 -1.0124 -0.7669 -3.8579
  531MOL0     H70053  -0.353   5.748   5.291  1.4762 -1.0674 -0.2842
  531MOL0     H70054  -0.455   5.938   5.258  0.8107  0.9865  0.4092
  531MOL0     H70055  -0.679   6.050   5.226  0.9324 -0.8174 -0.0090
  531MOL0     H70056  -1.101   6.252   5.362  1.5755 -2.5622 -1.3315
  531MOL0     H70057  -1.343   6.306   5.355  0.7470  1.2597  0.3665
  531MOL0     H70058  -1.562   6.224   5.260 -1.9844  1.4082 -0.3712
  531MOL0     H70059  -1.565   6.318   5.416  1.2695 -0.8290  0.9416
  531MOL0     H70060  -1.781   6.292   5.312 -0.9166  1.0478  1.6311
  531MOL0     H70061  -1.765   6.233   5.474 -1.3554  0.8451 -1.0505
  531MOL0     H70062  -1.765   5.993   5.388  2.0767  1.1419  0.0219
  531MOL0     H70063  -1.755   6.043   5.223 -0.5758 -1.2656  0.4640
  531MOL0     H70064  -1.985   6.099   5.418 -1.9976  3.5603 -1.7312
  531MOL0     H70065  -1.981   6.153   5.250  1.3128 -0.5904 -0.1872
  531MOL0     H70066  -1.994   5.878   5.375  1.0291  1.1739  1.1173
  531MOL0     H70067  -1.940   5.893   5.206  2.8810 -0.3513  1.2010
  531MOL0     H70068  -2.150   5.843   5.190  2.8456  0.7995 -1.3356
  531MOL0     H70069  -2.156   6.020   5.157 -2.5143  0.0903  0.1955
  531MOL0     H70070  -2.306   5.882   5.370  1.4019 -1.9261 -3.1421
  531MOL0     H70071  -2.216   6.017   5.412 -1.7236  0.4572  0.5772
  531MOL0     H70072  -2.408   5.987   5.167  3.0729  0.6853 -2.8564
  531MOL0     H70073  -2.334   6.132   5.199  0.6125 -1.5303 -2.2051
  531MOL0     H70074  -1.423   5.928   5.534  1.5404 -0.9472  1.2176
  531MOL0     H70075  -1.195   5.881   5.567 -1.1762 -0.5248 -1.0236
  531MOL0     H70076  -0.814   5.910   5.609 -0.5436  1.5795  0.1701
  531MOL0     H70077  -0.610   5.806   5.645  1.4367 -1.7862 -2.2462
  531MOL0     H70078   1.351   6.124   4.334  0.7813  1.8487  1.2635
  531MOL0     H70079   1.558   6.113   4.443  1.6472 -3.3587 -2.1906
  531MOL0     H70080   1.836   6.117   4.719  0.1107 -0.9995 -1.3440
  531MOL0     H70081   2.077   6.134   4.798  3.3293 -1.9560 -1.0439
  531MOL0     H70082   2.308   5.834   5.009  2.5470  1.0704  1.5096
  531MOL0     H70083   2.185   5.876   5.133  1.5835  1.7588  2.4353
  531MOL0     H70084   2.429   6.030   5.050  0.1064  1.7216 -0.3994
  531MOL0     H70085   2.325   6.091   5.171 -0.1009  2.7315 -4.6031
  531MOL0     H70086   2.504   5.836   5.162 -1.5178 -2.9900  0.5322
  531MOL0     H70087   2.399   5.845   5.301  3.9341 -1.3193  0.5046
  531MOL0     H70088   2.610   5.919   5.349 -1.9250  0.0817  2.2918
  531MOL0     H70089   2.589   6.069   5.247  2.0359 -2.0802  0.0972
  531MOL0     H70090   2.403   6.203   5.586 -0.8281 -2.4159  1.3156
  531MOL0     H70091   2.050   5.744   4.968  2.6681  1.4060 -0.0406
  531MOL0     H70092   1.823   5.712   4.861  3.1169 -1.9482  0.9978
  532MOL0     O70093   6.906   0.492   9.611  1.0701  0.1568  0.8160
  532MOL0     C70094   6.890   0.396   9.684  0.4261  0.5638 -0.5198
  532MOL0     O70095   6.996   0.334   9.748  0.0545  0.0186  0.2532
  532MOL0     C70096   7.120   0.370   9.714  0.3603 -0.3270  0.0741
  532MOL0     C70097   7.172   0.360   9.582  1.0609 -0.3237  0.6597
  532MOL0     C70098   7.305   0.400   9.571  0.1237  0.0786  0.1003
  532MOL0     C70099   7.386   0.451   9.675 -0.1902 -0.2915  0.7005
  532MOL0     O70100   7.502   0.492   9.624  0.0260 -0.5366 -0.3684
  532MOL0     C70101   7.617   0.493   9.704 -0.1161 -0.4664 -0.6260
  532MOL0     C70102   7.671   0.354   9.718 -0.0363  1.1710 -0.1182
  532MOL0     C70103   7.820   0.337   9.774 -0.2557  0.5138  0.2009
  532MOL0     C70104   7.852   0.186   9.796  0.0230  0.3792 -0.2497
  532MOL0     C70105   7.989   0.163   9.864  0.2340  0.6769 -0.5255
  532MOL0     C70106   8.011   0.019   9.897  0.3438 -0.2046 -0.4725
  532MOL0     C70107   8.041  -0.058   9.766 -0.0904  0.9868  0.1307
  532MOL0     C70108   7.955  -0.181   9.766  0.8814 -0.2683 -0.2391
  532MOL0     N70109   7.994  -0.286   9.677 -0.2211  0.4206 -0.9685
  532MOL0     C70110   7.964  -0.297   9.541 -0.7876  0.7362 -0.0642
  532MOL0     C70111   8.010  -0.417   9.497  0.0333 -0.3299  0.2272
  532MOL0     C70112   7.988  -0.475   9.364  0.8515  0.4072  0.9517
  532MOL0     C70113   7.861  -0.563   9.361 -0.9400 -0.3454 -0.5801
  532MOL0     C70114   7.877  -0.705   9.411 -0.2989 -0.5078  0.2987
  532MOL0     C70115   7.749  -0.779   9.407  0.3015  0.2757 -0.3004
  532MOL0     O70116   7.716  -0.843   9.281 -0.0688  0.1681  0.3947
  532MOL0     C70117   7.588  -0.883   9.260 -0.3932 -0.4678  0.9434
  532MOL0     C70118   7.496  -0.910   9.360  0.1271  0.0926  0.0182
  532MOL0     C70119   7.369  -0.949   9.329  0.1728  0.4189 -0.0925
  532MOL0     C70120   7.319  -0.958   9.196 -0.7608 -0.6042 -0.3658
  532MOL0     C70121   7.177  -0.997   9.167  0.8658  0.8773  0.3059
  532MOL0     O70122   7.130  -0.987   9.039 -0.0910  0.1148 -0.3191
  532MOL0     C70123   6.993  -0.981   9.022 -0.4914  0.3432 -0.2046
  532MOL0     C70124   6.931  -0.860   9.033 -0.1626  0.2137 -0.3570
  532MOL0     C70125   6.798  -0.855   9.012  0.6405 -0.7025 -0.0522
  532MOL0     C70126   6.728  -0.962   8.970  0.2863 -1.2653  0.2521
  532MOL0     O70127   6.586  -0.943   8.951 -0.0080 -0.2018  0.0592
  532MOL0     C70128   6.515  -1.025   8.858  0.6492  0.0877 -0.2017
  532MOL0     C70129   6.364  -0.975   8.854  0.6177  0.5775 -0.4989
  532MOL0     C70130   6.268  -1.078   8.780 -0.5264  0.2408 -0.5222
  532MOL0     C70131   6.122  -1.031   8.776 -1.2877  0.3565 -0.7495
  532MOL0     C70132   6.018  -1.137   8.727  0.4626  0.1709 -0.1393
  532MOL0     C70133   5.972  -1.227   8.837  0.3818  0.1219 -0.0531
  532MOL0     C70134   5.916  -1.359   8.770  0.5532  0.1829  0.5012
  532MOL0     C70135   5.760  -1.369   8.769 -0.1288 -0.3162 -0.2169
  532MOL0    Cl70136   5.687  -1.305   8.608  0.1753  0.0680  0.0970
  532MOL0     C70137   6.790  -1.085   8.948  0.7442 -0.2672  0.1604
  532MOL0     C70138   6.925  -1.095   8.976  0.3191  0.0838  0.4118
  532MOL0     O70139   7.102  -1.018   9.261 -0.2253 -0.1616 -0.6477
  532MOL0     C70140   7.416  -0.944   9.093  0.4039 -0.3130 -0.3306
  532MOL0     C70141   7.546  -0.915   9.124 -0.7506 -0.5801 -0.1745
  532MOL0     N70142   8.056  -0.484   9.613 -0.1449 -0.2583  0.7836
  532MOL0     N70143   8.042  -0.409   9.710  0.2441 -0.0626  0.8392
  532MOL0     C70144   7.326   0.472   9.800 -0.2455  0.8237 -0.8082
  532MOL0     C70145   7.191   0.423   9.818  0.2963  0.2062 -0.0263
  532MOL0     C70146   6.758   0.326   9.661  0.4589  0.5087 -0.4894
  532MOL0     C70147   6.652   0.400   9.618 -0.5556 -0.7453 -0.4919
  532MOL0     C70148   6.525   0.350   9.594  0.7357 -0.3701 -0.5607
  532MOL0     C70149   6.504   0.217   9.617 -0.3408  0.1579 -0.0881
  532MOL0     O70150   6.395   0.145   9.586  0.5205  0.0315  0.3553
  532MOL0     C70151   6.285   0.185   9.508 -0.4196  0.4069  0.7986
  532MOL0     C70152   6.206   0.063   9.446 -0.3370 -0.8788 -0.4798
  532MOL0     C70153   6.079   0.113   9.381 -0.0031  0.1396  0.0247
  532MOL0     C70154   6.091   0.196   9.250 -0.2496 -0.2076 -0.4036
  532MOL0     C70155   5.948   0.214   9.214 -0.2844  0.5518  0.1221
  532MOL0     C70156   5.836   0.232   9.172 -0.1868 -0.5164  0.1521
  532MOL0     C70157   6.603   0.140   9.670 -0.4256  0.3995  0.5647
  532MOL0     C70158   6.735   0.189   9.701  0.8083  0.2350  0.8605
  532MOL0     H70159   7.118   0.327   9.494  0.8169  0.4845  0.4965
  532MOL0     H70160   7.347   0.391   9.471  1.2592  1.5117  0.4154
  532MOL0     H70161   7.608   0.539   9.803 -1.3274 -0.3707 -0.7657
  532MOL0     H70162   7.683   0.564   9.652 -0.1837  0.0282 -0.0474
  532MOL0     H70163   7.670   0.305   9.621 -0.5558  3.0358 -1.1153
  532MOL0     H70164   7.597   0.305   9.782  0.3132 -1.9193 -1.8900
  532MOL0     H70165   7.840   0.388   9.869  0.2571 -2.1264  1.5997
  532MOL0     H70166   7.890   0.373   9.698  2.1684 -0.1739  1.9730
  532MOL0     H70167   7.780   0.142   9.865  1.3929  1.4067  1.9585
  532MOL0     H70168   7.850   0.129   9.702  2.2397  2.8518 -1.9612
  532MOL0     H70169   7.988   0.203   9.965 -1.0886 -3.9379  1.5869
  532MOL0     H70170   8.067   0.204   9.800  0.1269 -0.7961 -1.6591
  532MOL0     H70171   7.928  -0.026   9.953  2.2777 -1.2059  1.7550
  532MOL0     H70172   8.103   0.020   9.956  1.4561 -0.3360 -2.1342
  532MOL0     H70173   8.031   0.002   9.675 -2.4456  0.3423 -0.1061
  532MOL0     H70174   8.145  -0.089   9.779 -0.4138  0.4344  1.5905
  532MOL0     H70175   7.852  -0.146   9.751  0.7543 -0.7473 -0.5030
  532MOL0     H70176   7.971  -0.223   9.866  1.3047  1.7092  0.5888
  532MOL0     H70177   7.906  -0.228   9.481 -1.7471  0.6839  0.7840
  532MOL0     H70178   8.075  -0.535   9.334 -0.3311  0.0457 -2.2177
  532MOL0     H70179   7.977  -0.395   9.291 -1.1044 -0.4708  0.2173
  532MOL0     H70180   7.831  -0.564   9.256 -1.7871  0.3670 -0.3555
  532MOL0     H70181   7.782  -0.521   9.424  0.3871  3.2238 -1.0544
  532MOL0     H70182   7.952  -0.758   9.352  2.4503  3.1298  0.2397
  532MOL0     H70183   7.907  -0.693   9.516  0.2915  3.7520 -0.1944
  532MOL0     H70184   7.665  -0.722   9.446  1.4269  1.3877  0.5955
  532MOL0     H70185   7.770  -0.865   9.472  0.1994 -0.0369 -0.6763
  532MOL0     H70186   7.524  -0.892   9.463  2.1192 -2.1906 -0.0368
  532MOL0     H70187   7.302  -0.960   9.414  0.7986  1.7921  0.6119
  532MOL0     H70188   6.991  -0.775   9.065 -3.6940  2.5053  0.8276
  532MOL0     H70189   6.745  -0.762   9.033  1.1077 -0.9525  2.7065
  532MOL0     H70190   6.517  -1.126   8.900  2.0436  0.6748  1.2098
  532MOL0     H70191   6.567  -1.025   8.762 -2.4632 -0.4023 -2.0332
  532MOL0     H70192   6.357  -0.881   8.798 -0.4746  0.4439 -0.5982
  532MOL0     H70193   6.330  -0.956   8.956 -0.4375  1.8358 -1.0591
  532MOL0     H70194   6.271  -1.176   8.829 -1.6040 -0.3358 -1.5329
  532MOL0     H70195   6.304  -1.108   8.682 -0.3055 -0.6953 -0.1678
  532MOL0     H70196   6.091  -1.004   8.877 -0.9611 -0.9776 -0.2642
  532MOL0     H70197   6.121  -0.944   8.710 -1.5502  1.0633  0.1523
  532MOL0     H70198   6.053  -1.192   8.639  1.4725  2.0819 -0.9819
  532MOL0     H70199   5.931  -1.080   8.692  0.2924  0.5274  0.8300
  532MOL0     H70200   5.911  -1.173   8.911 -0.8528 -0.2783 -0.7411
  532MOL0     H70201   6.061  -1.269   8.884 -0.1553 -3.4926 -1.9591
  532MOL0     H70202   5.957  -1.381   8.671 -0.7323  0.6477 -0.1641
  532MOL0     H70203   5.942  -1.440   8.840 -2.4431 -1.0568  0.3318
  532MOL0     H70204   5.717  -1.315   8.854  1.9124 -2.6504  2.4864
  532MOL0     H70205   5.729  -1.473   8.781 -2.4106  0.3108 -0.1775
  532MOL0     H70206   6.755  -1.169   8.889  1.5315 -0.4632 -0.0462
  532MOL0     H70207   6.969  -1.191   8.952  0.2306  0.7302 -2.7667
  532MOL0     H70208   7.390  -0.961   8.989  0.8188  2.6171 -0.9991
  532MOL0     H70209   7.628  -0.900   9.054  1.1910 -2.0503  1.6638
  532MOL0     H70210   7.369   0.529   9.882  0.7355 -2.4733  1.1515
  532MOL0     H70211   7.155   0.439   9.919 -1.2647  1.3669 -0.7345
  532MOL0     H70212   6.667   0.506   9.599  1.3332 -0.7979  0.5064
  532MOL0     H70213   6.432   0.405   9.577 -2.6085 -4.7884  1.3173
  532MOL0     H70214   6.330   0.245   9.428 -0.4077 -1.8139 -0.9854
  532MOL0     H70215   6.233   0.253   9.576  2.0353  0.6252  2.6021
  532MOL0     H70216   6.273   0.008   9.379  1.1082 -0.9887  1.0061
  532MOL0     H70217   6.183  -0.010   9.524  0.1640 -0.7660 -0.2213
  532MOL0     H70218   6.026   0.165   9.461 -2.5598 -2.3918  0.1323
  532MOL0     H70219   6.020   0.024   9.357 -0.4294 -0.1479  1.9750
  532MOL0     H70220   6.147   0.289   9.262  1.4865 -0.9804 -2.1071
  532MOL0     H70221   6.154   0.152   9.173 -1.3044 -2.3097 -0.1336
  532MOL0     H70222   5.740   0.245   9.126 -0.7569  0.3571  1.5114
  532MOL0     H70223   6.584   0.034   9.688 -0.8548 -0.1556 -2.5403
  532MOL0     H70224   6.816   0.119   9.719 -2.1444 -2.8367  3.7567
  533MOL0     O70225   7.994   6.943  11.152  0.2889 -0.4614  0.2774
  533MOL0     C70226   8.064   6.908  11.056 -0.2326 -0.3272 -0.0307
  533MOL0     O70227   8.029   6.828  10.953 -0.5354  0.2037 -0.4552
  533MOL0     C70228   7.895   6.779  10.961 -0.1763 -0.4264  0.4447
  533MOL0     C70229   7.859   6.659  11.026 -1.3895  0.1070  0.9388
  533MOL0     C70230   7.730   6.618  11.040  0.5312  0.2918  0.2646
  533MOL0     C70231   7.632   6.685  10.979  0.2281 -0.1012  0.1691
  533MOL0     O70232   7.506   6.627  10.969 -0.0382 -0.2626 -0.1342
  533MOL0     C70233   7.386   6.704  10.968 -0.9228  0.0250  0.0372
  533MOL0     C70234   7.271   6.607  10.954  1.1187  0.7694 -0.2052
  533MOL0     C70235   7.137   6.674  10.915 -0.2099  1.3139 -0.0906
  533MOL0     C70236   7.064   6.726  11.036 -0.1899 -0.1824  0.3324
  533MOL0     C70237   6.915   6.759  11.018 -0.9316  0.7961 -0.4246
  533MOL0     C70238   6.882   6.897  10.949 -0.5713  0.5477 -0.3509
  533MOL0     C70239   6.729   6.915  10.962 -0.6748 -0.3730  0.6757
  533MOL0     C70240   6.691   7.030  10.877  0.0356 -0.4565  0.6656
  533MOL0     N70241   6.540   7.035  10.898  0.9043  0.0912 -0.1840
  533MOL0     C70242   6.442   6.964  10.823 -0.0903  0.4104 -0.3403
  533MOL0     C70243   6.322   7.003  10.872  0.2487 -0.2319  0.0243
  533MOL0     C70244   6.192   6.948  10.825  0.0407 -0.3157  0.2564
  533MOL0     C70245   6.153   7.008  10.683 -0.1255 -0.2532 -1.6960
  533MOL0     C70246   6.039   6.930  10.607 -0.1381 -0.1165 -0.8187
  533MOL0     C70247   5.904   6.906  10.675  0.0974  0.5074  0.2219
  533MOL0     O70248   5.808   6.884  10.566  0.1317 -0.2511  0.4991
  533MOL0     C70249   5.678   6.857  10.601  0.3183  0.2851 -0.5473
  533MOL0     C70250   5.646   6.833  10.731 -0.4774 -0.1212 -0.2892
  533MOL0     C70251   5.511   6.792  10.762  0.9581 -1.0472  0.9610
  533MOL0     C70252   5.421   6.774  10.656  0.1445 -0.9232  0.9539
  533MOL0     C70253   5.281   6.731  10.682  0.9604 -0.8056 -0.7627
  533MOL0     O70254   5.243   6.700  10.809  0.9460 -0.0574  0.0875
  533MOL0     C70255   5.114   6.706  10.843  0.4395  0.2616  0.0158
  533MOL0     C70256   5.032   6.824  10.834 -1.1729 -0.0715 -0.7789
  533MOL0     C70257   4.905   6.830  10.899 -0.4408  0.0543  1.1778
  533MOL0     C70258   4.845   6.724  10.954 -0.6234 -0.1177 -0.9135
  533MOL0     O70259   4.719   6.719  11.008  0.1142  0.4478 -0.1507
  533MOL0     C70260   4.645   6.838  11.043 -0.2371 -0.5129 -0.2381
  533MOL0     C70261   4.493   6.847  11.018  0.5191 -0.5349 -0.1745
  533MOL0     C70262   4.402   6.742  11.082 -0.2982 -0.3131 -1.1574
  533MOL0     C70263   4.259   6.799  11.089 -0.3715  0.0361  0.4182
  533MOL0     C70264   4.156   6.685  11.091 -1.1223 -0.1667 -0.1751
  533MOL0     C70265   4.017   6.729  11.059  0.5952 -0.1318  0.0253
  533MOL0     C70266   3.959   6.829  11.161 -0.0292 -0.0643 -0.3345
  533MOL0     C70267   3.809   6.799  11.178  0.0655  0.0562 -0.2030
  533MOL0    Cl70268   3.770   6.646  11.275 -0.2693 -0.2432 -0.3192
  533MOL0     C70269   4.927   6.610  10.957 -0.7008 -0.1579  0.4382
  533MOL0     C70270   5.052   6.594  10.905  0.1811  0.3211 -0.1434
  533MOL0     O70271   5.201   6.749  10.584  0.3930 -0.0053 -0.1692
  533MOL0     C70272   5.457   6.799  10.521  0.6974  0.2719  0.5094
  533MOL0     C70273   5.587   6.835  10.495 -0.1542 -0.0959 -0.0524
  533MOL0     N70274   6.336   7.079  10.988  0.1993  0.1347  0.3028
  533MOL0     N70275   6.460   7.112  10.983 -0.7374 -0.3433 -0.1671
  533MOL0     C70276   7.664   6.810  10.921  0.1222  0.9568 -0.0008
  533MOL0     C70277   7.796   6.863  10.914 -0.1482  0.9637  0.1740
  533MOL0     C70278   8.205   6.955  11.059 -0.7808 -0.5834  0.9223
  533MOL0     C70279   8.258   7.018  11.175 -0.2890 -0.0132 -0.0906
  533MOL0     C70280   8.392   7.050  11.180  1.1396 -0.5397 -0.2004
  533MOL0     C70281   8.478   7.008  11.080 -1.0173 -0.0371 -0.2088
  533MOL0     O70282   8.613   7.029  11.065 -0.1840 -0.1594  0.0808
  533MOL0     C70283   8.678   7.103  11.170  0.7512  1.3606  0.4775
  533MOL0     C70284   8.823   7.114  11.152  0.5731  0.3618  1.1910
  533MOL0     C70285   8.892   6.978  11.156  0.7743  0.0464  0.3256
  533MOL0     C70286   9.045   6.971  11.154 -0.6190  0.0451 -0.1149
  533MOL0     C70287   9.102   7.028  11.033  0.0452  0.1894 -0.3417
  533MOL0     C70288   9.152   7.080  10.931  0.3778  0.1819 -0.2316
  533MOL0     C70289   8.429   6.946  10.968 -0.0487 -0.6461 -0.3639
  533MOL0     C70290   8.293   6.917  10.951 -0.7343 -0.2910 -1.0630
  533MOL0     H70291   7.935   6.613  11.088 -3.5475 -0.3910  3.3791
  533MOL0     H70292   7.712   6.522  11.089  3.8345 -1.6594 -1.9611
  533MOL0     H70293   7.385   6.774  10.884 -0.5953  0.8485  0.7099
  533MOL0     H70294   7.392   6.767  11.057  0.9838 -0.8342  0.5733
  533MOL0     H70295   7.261   6.540  11.040 -1.5008 -1.0275 -1.7526
  533MOL0     H70296   7.310   6.534  10.882  1.2937 -1.3755  1.9397
  533MOL0     H70297   7.070   6.601  10.867 -0.5678  2.5491 -1.5631
  533MOL0     H70298   7.160   6.756  10.847 -0.2435  2.0096  0.7306
  533MOL0     H70299   7.071   6.646  11.110 -0.6345 -2.5280 -2.0240
  533MOL0     H70300   7.117   6.816  11.070 -0.3811  1.1319 -2.4973
  533MOL0     H70301   6.866   6.759  11.116 -2.3081  0.1382 -1.0826
  533MOL0     H70302   6.864   6.683  10.959 -0.8375  2.3019 -2.5254
  533MOL0     H70303   6.917   6.891  10.846  0.4472 -3.2891  0.0806
  533MOL0     H70304   6.939   6.968  11.011  0.3780 -1.5615  1.3073
  533MOL0     H70305   6.677   6.824  10.928  1.3631 -1.7579  1.1046
  533MOL0     H70306   6.699   6.934  11.066 -1.8248  2.6186 -0.0993
  533MOL0     H70307   6.715   7.015  10.772 -2.1151 -3.5699  0.4895
  533MOL0     H70308   6.745   7.116  10.919  0.1274 -0.8447  1.3520
  533MOL0     H70309   6.444   6.896  10.738  0.5525 -2.0108  1.4958
  533MOL0     H70310   6.112   6.961  10.898 -0.7569 -1.1814 -0.4317
  533MOL0     H70311   6.194   6.839  10.815  3.2139 -0.2747 -0.5218
  533MOL0     H70312   6.240   7.005  10.618  0.1288  2.1213 -1.5398
  533MOL0     H70313   6.113   7.109  10.691 -1.6305 -0.9362  0.5289
  533MOL0     H70314   6.041   6.992  10.517  6.6406  0.8305 -0.5091
  533MOL0     H70315   6.082   6.832  10.586 -1.1319 -1.2154  1.7708
  533MOL0     H70316   5.873   6.996  10.729 -2.0173  0.5194 -0.9058
  533MOL0     H70317   5.917   6.829  10.751  4.5470  0.8003  0.0188
  533MOL0     H70318   5.715   6.847  10.814 -1.9049  0.2935  0.8557
  533MOL0     H70319   5.482   6.753  10.859 -0.8686 -0.5431  0.6634
  533MOL0     H70320   5.069   6.910  10.779  0.5619 -0.6469 -0.5847
  533MOL0     H70321   4.847   6.921  10.888 -2.8841 -1.3560  1.6418
  533MOL0     H70322   4.692   6.931  11.010  1.6686 -1.1168  0.6381
  533MOL0     H70323   4.654   6.841  11.152 -2.0211  0.3346 -0.0731
  533MOL0     H70324   4.476   6.847  10.910 -1.6676 -1.2499  0.1150
  533MOL0     H70325   4.465   6.943  11.064 -1.7822 -1.5183  0.6378
  533MOL0     H70326   4.440   6.724  11.183  1.7241  2.2920 -1.3333
  533MOL0     H70327   4.401   6.648  11.026 -1.3172  0.4301 -2.4529
  533MOL0     H70328   4.249   6.879  11.162 -1.5113  1.7657 -1.5150
  533MOL0     H70329   4.244   6.849  10.993  3.6119 -0.4631 -0.6663
  533MOL0     H70330   4.162   6.648  11.194  3.8397  0.7145  0.1244
  533MOL0     H70331   4.191   6.606  11.024  0.5705  0.7072 -0.3615
  533MOL0     H70332   3.947   6.645  11.068  2.1691 -1.4031  1.1043
  533MOL0     H70333   4.012   6.770  10.958  1.9423  0.5004  0.2046
  533MOL0     H70334   4.015   6.813  11.253  1.6936 -1.3378 -1.5418
  533MOL0     H70335   3.974   6.930  11.122  0.7592 -0.3715 -0.8524
  533MOL0     H70336   3.771   6.802  11.075  1.8278 -1.2286 -0.9274
  533MOL0     H70337   3.763   6.868  11.249 -0.4715 -2.6982  2.3414
  533MOL0     H70338   4.884   6.518  10.996 -0.3273  0.0718  1.4154
  533MOL0     H70339   5.117   6.507  10.911  1.6122  1.3979  0.5847
  533MOL0     H70340   5.391   6.791  10.435  1.6216 -2.0893 -0.0638
  533MOL0     H70341   5.619   6.833  10.391 -2.2303  1.1825 -0.7824
  533MOL0     H70342   7.581   6.847  10.861  0.0624  0.8829  0.0361
  533MOL0     H70343   7.823   6.955  10.863  0.3737  0.6953 -0.0423
  533MOL0     H70344   8.187   7.041  11.253 -0.8009  0.4078 -0.6702
  533MOL0     H70345   8.435   7.099  11.267 -1.5400  0.9817  0.3654
  533MOL0     H70346   8.647   7.046  11.259 -1.6141  1.8835  0.0676
  533MOL0     H70347   8.633   7.202  11.172 -0.9405  0.6310  0.9764
  533MOL0     H70348   8.846   7.172  11.061  0.6928 -1.0479  0.2927
  533MOL0     H70349   8.862   7.162  11.242 -2.3002 -2.9167  4.5138
  533MOL0     H70350   8.859   6.922  11.069  0.1038  0.2775  0.4251
  533MOL0     H70351   8.850   6.920  11.239  3.2316 -0.6625  1.1551
  533MOL0     H70352   9.086   7.019  11.243 -1.0733  0.1651  0.0314
  533MOL0     H70353   9.069   6.864  11.152 -0.1436  0.1291  0.7033
  533MOL0     H70354   9.209   7.109  10.845  0.3771  0.2973 -0.1942
  533MOL0     H70355   8.488   6.918  10.881  0.0024  0.8338 -0.8407
  533MOL0     H70356   8.253   6.865  10.865 -0.3419  0.0976 -1.4859
  534MOL0     O70357   6.432  10.149   1.572 -0.0775 -0.5255  0.5754
  534MOL0     C70358   6.537  10.120   1.511  0.2307 -0.0314  0.4937
  534MOL0     O70359   6.541  10.108   1.377  0.0293 -0.3754  0.0748
  534MOL0     C70360   6.450  10.177   1.300  0.0696  0.9880 -0.0150
  534MOL0     C70361   6.513  10.286   1.241  0.5319  0.6107  0.5822
  534MOL0     C70362   6.442  10.370   1.158 -0.9160 -0.2266  0.3210
  534MOL0     C70363   6.306  10.340   1.127 -0.7493  0.3389  0.5719
  534MOL0     O70364   6.236  10.408   1.041  0.8454 -0.2459  0.1227
  534MOL0     C70365   6.255  10.544   1.006  0.4697  0.3396 -0.3954
  534MOL0     C70366   6.240  10.636   1.130 -0.0789 -0.9939 -0.6107
  534MOL0     C70367   6.094  10.634   1.195  0.3102  0.3779  0.0880
  534MOL0     C70368   5.984  10.629   1.087  0.5086 -0.5462 -0.1341
  534MOL0     C70369   5.850  10.680   1.150 -0.4443 -0.2932  0.9457
  534MOL0     C70370   5.730  10.645   1.068 -0.1886  0.1229  0.5359
  534MOL0     C70371   5.724  10.730   0.939 -0.7084 -0.7631 -0.1696
  534MOL0     C70372   5.588  10.726   0.885  0.6040 -0.3189  1.2309
  534MOL0     N70373   5.575  10.829   0.774 -0.5761  0.4439  0.2740
  534MOL0     C70374   5.501  10.944   0.782  0.4432 -0.0439  0.6650
  534MOL0     C70375   5.539  11.018   0.673 -0.6205 -0.6948 -0.3848
  534MOL0     C70376   5.463  11.135   0.620  0.4353 -0.4114 -0.3879
  534MOL0     C70377   5.317  11.091   0.576 -1.0583  0.2843  0.4623
  534MOL0     C70378   5.243  11.208   0.524  1.2102  0.3985  0.3591
  534MOL0     C70379   5.105  11.158   0.472 -0.2885 -0.0800  0.6204
  534MOL0     O70380   5.031  11.091   0.574 -0.0029 -0.3477 -0.4398
  534MOL0     C70381   4.908  11.040   0.533 -0.9446  0.2062  0.2450
  534MOL0     C70382   4.900  10.949   0.433  0.2964  0.8010  0.0304
  534MOL0     C70383   4.771  10.899   0.396 -0.1289 -0.5074 -0.0341
  534MOL0     C70384   4.655  10.951   0.461 -0.2149  0.3796 -0.0025
  534MOL0     C70385   4.522  10.910   0.422  0.0456  0.2935 -0.5406
  534MOL0     O70386   4.408  10.938   0.496 -0.6967 -0.5332 -0.7342
  534MOL0     C70387   4.285  10.893   0.467 -0.3520 -0.0711 -0.3175
  534MOL0     C70388   4.179  10.988   0.451 -0.7058 -0.6870 -0.6154
  534MOL0     C70389   4.044  10.943   0.451  0.1630 -0.4090  0.9116
  534MOL0     C70390   4.015  10.802   0.444  0.0745  0.6807 -0.7010
  534MOL0     O70391   3.892  10.741   0.441  0.0219 -0.2853 -0.0693
  534MOL0     C70392   3.781  10.826   0.408  0.3876 -0.1576 -0.4082
  534MOL0     C70393   3.648  10.755   0.368  0.5809  0.7371  0.6955
  534MOL0     C70394   3.572  10.701   0.493  0.3557 -0.2693  0.2116
  534MOL0     C70395   3.416  10.685   0.461 -0.8510 -0.8853  0.1148
  534MOL0     C70396   3.348  10.823   0.483  0.1865 -0.3082 -0.5791
  534MOL0     C70397   3.226  10.833   0.384 -0.5099 -0.3070  0.3387
  534MOL0     C70398   3.106  10.735   0.408 -0.6849 -0.2910 -1.1663
  534MOL0     C70399   3.026  10.748   0.283  0.0921 -0.0716 -1.3877
  534MOL0    Cl70400   2.958  10.914   0.257  0.0716 -0.1588 -0.0791
  534MOL0     C70401   4.121  10.714   0.447  0.2058 -0.3574 -0.8865
  534MOL0     C70402   4.254  10.761   0.453 -0.1510  0.6516 -0.4862
  534MOL0     O70403   4.520  10.838   0.321 -0.4090 -1.1991  0.3834
  534MOL0     C70404   4.665  11.048   0.560 -0.3672 -0.0673 -0.5977
  534MOL0     C70405   4.793  11.092   0.598 -0.5148  0.5068  0.2245
  534MOL0     N70406   5.634  10.939   0.604 -0.7801  0.0867 -0.7313
  534MOL0     N70407   5.644  10.816   0.660  0.3539 -0.0202 -0.4076
  534MOL0     C70408   6.250  10.225   1.175 -0.4036 -0.2144  0.5112
  534MOL0     C70409   6.317  10.145   1.266 -0.1248  0.0124 -0.1517
  534MOL0     C70410   6.656  10.083   1.589  0.5149 -0.3441  0.6229
  534MOL0     C70411   6.784  10.038   1.532  0.6171 -0.3960 -1.1562
  534MOL0     C70412   6.883   9.993   1.613 -0.3958 -0.9235  0.3716
  534MOL0     C70413   6.868   9.987   1.755 -0.2365  0.1124 -0.0421
  534MOL0     O70414   6.973   9.932   1.825  0.2745 -0.0778 -0.0038
  534MOL0     C70415   6.970   9.945   1.968 -0.4103 -0.4430 -0.0775
  534MOL0     C70416   7.096   9.869   2.014 -0.7908  0.2100  0.1654
  534MOL0     C70417   7.120   9.902   2.162  0.4896 -0.0836  0.9127
  534MOL0     C70418   7.265   9.868   2.219 -0.5252 -0.6779 -0.0017
  534MOL0     C70419   7.289   9.729   2.192 -0.5939 -0.0997 -0.7455
  534MOL0     C70420   7.321   9.619   2.152  1.3129 -0.0652  0.4362
  534MOL0     C70421   6.750  10.037   1.808 -0.6103 -0.0749 -1.0798
  534MOL0     C70422   6.652  10.096   1.728  0.8593 -0.2925 -0.1016
  534MOL0     H70423   6.616  10.308   1.267  1.2350 -2.6470  0.9121
  534MOL0     H70424   6.501  10.453   1.119  1.4205 -1.4008  1.1363
  534MOL0     H70425   6.179  10.567   0.932 -1.4720 -1.3012  0.9842
  534MOL0     H70426   6.355  10.568   0.968  1.5649  0.3494  2.2534
  534MOL0     H70427   6.262  10.741   1.110  0.3441 -0.9006  0.3102
  534MOL0     H70428   6.308  10.607   1.210 -1.6526  1.1656  1.6617
  534MOL0     H70429   6.083  10.726   1.254 -0.3803 -0.5117  1.4186
  534MOL0     H70430   6.097  10.551   1.267 -1.6786  1.0486  1.0478
  534MOL0     H70431   6.022  10.697   1.011  0.8834  0.9919  1.3597
  534MOL0     H70432   5.979  10.527   1.047  0.3743 -1.3793  1.8374
  534MOL0     H70433   5.841  10.784   1.182  0.0494 -0.5287  1.8779
  534MOL0     H70434   5.840  10.615   1.238  2.9375 -0.8393  1.0550
  534MOL0     H70435   5.641  10.661   1.129 -0.1071  0.0142  0.6867
  534MOL0     H70436   5.726  10.539   1.039 -0.0303 -0.1669  1.4990
  534MOL0     H70437   5.773  10.827   0.953  0.5260 -1.3446 -0.2932
  534MOL0     H70438   5.787  10.678   0.865 -0.5368 -4.5712  2.3614
  534MOL0     H70439   5.505  10.756   0.950 -1.2384  0.7178 -1.4094
  534MOL0     H70440   5.566  10.623   0.857  1.4500  0.0615 -1.0480
  534MOL0     H70441   5.418  10.961   0.850  0.3152  0.4770  0.3823
  534MOL0     H70442   5.514  11.187   0.538 -2.1765  1.9540 -0.6480
  534MOL0     H70443   5.451  11.216   0.693 -1.3899 -1.1859  0.2354
  534MOL0     H70444   5.262  11.043   0.657  0.5955 -0.7153  1.0393
  534MOL0     H70445   5.329  11.012   0.501  0.4199 -1.4820  2.4506
  534MOL0     H70446   5.232  11.284   0.601  1.9640  3.8063 -2.6344
  534MOL0     H70447   5.296  11.246   0.436  0.1910  2.9798  0.7883
  534MOL0     H70448   5.118  11.102   0.379 -0.4275  3.0685 -1.4329
  534MOL0     H70449   5.048  11.242   0.431 -0.1558  0.0872  0.7818
  534MOL0     H70450   4.989  10.913   0.382 -0.1641  1.9053 -1.5923
  534MOL0     H70451   4.767  10.831   0.311 -0.9556  2.1779 -2.2916
  534MOL0     H70452   4.212  11.091   0.455 -2.1086 -0.2354  2.8481
  534MOL0     H70453   3.962  11.014   0.450 -2.0891 -2.7908 -1.3568
  534MOL0     H70454   3.808  10.894   0.327  1.3819  4.3291  3.2049
  534MOL0     H70455   3.761  10.888   0.496  0.5992  0.3468 -0.7082
  534MOL0     H70456   3.671  10.661   0.317 -0.8194  0.5313  0.3995
  534MOL0     H70457   3.583  10.809   0.298 -1.8935 -3.5188 -0.6008
  534MOL0     H70458   3.596  10.764   0.579 -1.2355  0.4096  0.1831
  534MOL0     H70459   3.605  10.601   0.522 -1.2595 -0.6860  0.6880
  534MOL0     H70460   3.406  10.654   0.356  1.8340  0.0604 -0.5125
  534MOL0     H70461   3.369  10.613   0.528 -1.4520 -0.7606 -0.1726
  534MOL0     H70462   3.395  10.918   0.456 -2.4175  0.9276 -0.9865
  534MOL0     H70463   3.319  10.837   0.588  0.0715 -0.4707 -0.5890
  534MOL0     H70464   3.264  10.820   0.282 -3.2934 -1.1510 -0.6909
  534MOL0     H70465   3.172  10.927   0.398  0.6915  0.2117  1.7140
  534MOL0     H70466   3.138  10.631   0.420  0.8329  0.3124  0.4170
  534MOL0     H70467   3.047  10.760   0.496 -2.5760 -0.9865 -2.1905
  534MOL0     H70468   2.941  10.679   0.293 -1.0968  1.5131 -0.0758
  534MOL0     H70469   3.097  10.721   0.205  3.9379  0.5665  1.5956
  534MOL0     H70470   4.115  10.608   0.427 -0.7672 -0.2647 -1.1466
  534MOL0     H70471   4.326  10.682   0.440 -0.1107  0.7043 -0.5831
  534MOL0     H70472   4.583  11.087   0.619  0.2192 -0.6678  0.6454
  534MOL0     H70473   4.814  11.164   0.676  2.3063 -1.5350  1.5202
  534MOL0     H70474   6.149  10.198   1.148 -1.3944  2.3740  1.2729
  534MOL0     H70475   6.268  10.056   1.305 -1.0395 -0.1425 -1.5497
  534MOL0     H70476   6.801  10.024   1.425  1.8228 -0.1118 -1.0133
  534MOL0     H70477   6.979   9.966   1.570  0.8609  1.8888  1.1405
  534MOL0     H70478   6.883   9.898   2.016  0.5865 -0.3480  1.9041
  534MOL0     H70479   6.968  10.049   2.002 -2.3346 -0.4848  0.0658
  534MOL0     H70480   7.084   9.761   1.999 -0.7392  0.3861 -1.3375
  534MOL0     H70481   7.183   9.917   1.967 -2.4849  3.3506 -0.0371
  534MOL0     H70482   7.044   9.865   2.231  0.9440 -1.2375  0.8197
  534MOL0     H70483   7.120  10.011   2.174  1.5915  0.1882 -1.1222
  534MOL0     H70484   7.332   9.933   2.163  0.0954 -1.6903 -0.4591
  534MOL0     H70485   7.280   9.904   2.322  0.8463  3.0661 -1.3351
  534MOL0     H70486   7.356   9.536   2.094 -0.2422 -0.7259  0.3814
  534MOL0     H70487   6.723  10.039   1.914 -0.8572 -0.1738 -1.1404
  534MOL0     H70488   6.566  10.144   1.773  0.0674 -1.4498 -0.3322
  535MOL0     O70489   8.008   3.901   4.318  0.6209 -0.0701 -0.4927
  535MOL0     C70490   8.121   3.942   4.337 -0.1936 -0.2907  0.1603
  535MOL0     O70491   8.161   4.072   4.354 -0.7671  0.6507 -0.4974
  535MOL0     C70492   8.065   4.167   4.343  0.1699  0.7957 -0.0495
  535MOL0     C70493   8.049   4.264   4.447  0.6447 -0.7038  0.3559
  535MOL0     C70494   7.935   4.347   4.446 -0.7956  0.4454  0.1670
  535MOL0     C70495   7.863   4.361   4.326  0.8908  0.8634  0.6274
  535MOL0     O70496   7.767   4.454   4.307 -0.2488  0.3731 -1.3088
  535MOL0     C70497   7.634   4.416   4.361  0.1708 -0.1643 -0.0518
  535MOL0     C70498   7.575   4.542   4.412 -0.2266  0.2315 -0.5919
  535MOL0     C70499   7.420   4.527   4.429  0.2580  0.4169  0.3876
  535MOL0     C70500   7.348   4.537   4.294  0.6458  0.2229 -0.1104
  535MOL0     C70501   7.196   4.542   4.316 -0.0925 -0.0033 -0.2057
  535MOL0     C70502   7.121   4.525   4.182  0.2219 -1.0987 -0.0642
  535MOL0     C70503   6.977   4.552   4.222 -0.0965 -0.6562  0.2865
  535MOL0     C70504   6.881   4.549   4.097 -1.0011  0.5007 -0.2451
  535MOL0     N70505   6.743   4.594   4.122  0.2933  0.9983 -0.3544
  535MOL0     C70506   6.668   4.699   4.076 -0.0929 -0.2767  0.0946
  535MOL0     C70507   6.548   4.693   4.138  0.7939 -0.8069 -0.2028
  535MOL0     C70508   6.441   4.801   4.159 -0.3245 -0.0133 -0.2646
  535MOL0     C70509   6.297   4.744   4.123 -0.3013 -0.1314  0.9362
  535MOL0     C70510   6.184   4.854   4.109 -0.8406  0.2810  0.4551
  535MOL0     C70511   6.049   4.789   4.141 -0.0368 -0.1190  0.6293
  535MOL0     O70512   5.944   4.881   4.146  0.1628 -0.7333 -0.0386
  535MOL0     C70513   5.814   4.833   4.153  0.7225  0.1463 -1.0526
  535MOL0     C70514   5.702   4.901   4.114 -0.1884 -1.1666 -0.3039
  535MOL0     C70515   5.579   4.844   4.109  0.2314 -0.6460 -0.4731
  535MOL0     C70516   5.554   4.726   4.164  0.4689  0.3526 -0.0442
  535MOL0     C70517   5.417   4.674   4.171  0.4642  0.1277 -0.0897
  535MOL0     O70518   5.400   4.544   4.209 -0.3452  0.0834  0.1673
  535MOL0     C70519   5.271   4.501   4.195 -0.2053 -0.7058  0.1150
  535MOL0     C70520   5.225   4.428   4.090 -0.3127  0.7079  0.1207
  535MOL0     C70521   5.106   4.356   4.095 -0.4517 -0.3239 -0.6498
  535MOL0     C70522   5.020   4.371   4.201  0.3008  0.3315 -1.0182
  535MOL0     O70523   4.898   4.308   4.196  0.0917 -0.7978  0.1685
  535MOL0     C70524   4.805   4.341   4.299  0.1336  0.4578 -0.0105
  535MOL0     C70525   4.679   4.251   4.301 -0.4667  0.4404  0.4047
  535MOL0     C70526   4.597   4.222   4.167  0.0189  1.1811 -0.5338
  535MOL0     C70527   4.499   4.103   4.198  0.1223 -0.0898 -0.0450
  535MOL0     C70528   4.408   4.079   4.079 -0.2272  0.5309 -0.9147
  535MOL0     C70529   4.291   4.192   4.077 -0.8934  0.4063  0.0335
  535MOL0     C70530   4.192   4.142   3.967 -0.5670  0.2478  0.3001
  535MOL0     C70531   4.232   4.166   3.820  0.0790 -0.6006 -0.5185
  535MOL0    Cl70532   4.229   4.334   3.791  0.0574  0.2691  0.1325
  535MOL0     C70533   5.061   4.444   4.310 -1.1739 -0.2536 -0.3001
  535MOL0     C70534   5.190   4.505   4.308  0.5165 -0.1613  1.1588
  535MOL0     O70535   5.326   4.742   4.142  0.1373 -0.3003 -0.2174
  535MOL0     C70536   5.660   4.647   4.207 -0.4295 -0.5723 -0.9167
  535MOL0     C70537   5.789   4.699   4.189  0.5336 -0.4281  0.1956
  535MOL0     N70538   6.558   4.590   4.223  0.7769 -0.4904  0.5058
  535MOL0     N70539   6.665   4.524   4.213 -0.1001 -0.7815  0.2107
  535MOL0     C70540   7.875   4.266   4.222  0.3053  0.6763  0.7640
  535MOL0     C70541   7.975   4.164   4.235 -0.4656 -0.5358  0.1670
  535MOL0     C70542   8.226   3.830   4.336  0.0363 -0.4081 -0.3110
  535MOL0     C70543   8.204   3.697   4.299  0.1072  0.2617  0.1773
  535MOL0     C70544   8.289   3.592   4.329 -0.1981 -0.3841  0.2799
  535MOL0     C70545   8.415   3.615   4.381  0.5790  0.9038  0.2247
  535MOL0     O70546   8.480   3.496   4.415  0.5879 -0.4516  0.1197
  535MOL0     C70547   8.608   3.516   4.484  0.4593 -0.1811 -0.1567
  535MOL0     C70548   8.662   3.382   4.519 -0.4767  0.6010 -0.5550
  535MOL0     C70549   8.686   3.268   4.406  0.2381 -0.5721 -0.2826
  535MOL0     C70550   8.784   3.316   4.295  0.2174 -0.5149 -0.7376
  535MOL0     C70551   8.926   3.314   4.334 -0.8831  0.3206 -0.6245
  535MOL0     C70552   9.040   3.307   4.380  0.0918 -0.4200 -1.5121
  535MOL0     C70553   8.454   3.749   4.401  0.0146  0.1917 -0.1067
  535MOL0     C70554   8.361   3.855   4.381 -0.0813 -0.2326 -0.0652
  535MOL0     H70555   8.113   4.269   4.534  0.2398  1.2674  0.6004
  535MOL0     H70556   7.938   4.426   4.521  1.3847  0.2384  0.3733
  535MOL0     H70557   7.633   4.348   4.446 -0.2627  2.8362  2.5354
  535MOL0     H70558   7.580   4.373   4.276  2.4346  0.9850 -2.1804
  535MOL0     H70559   7.594   4.619   4.337 -0.0320  0.4688 -0.3000
  535MOL0     H70560   7.616   4.574   4.508  3.3557 -0.9372 -1.5652
  535MOL0     H70561   7.397   4.615   4.491 -1.0613  0.3389  0.0198
  535MOL0     H70562   7.390   4.434   4.479 -1.8033  1.7259  1.7193
  535MOL0     H70563   7.372   4.627   4.238 -3.0438  0.2743 -1.9575
  535MOL0     H70564   7.362   4.453   4.225  1.1283  0.1303  0.0983
  535MOL0     H70565   7.169   4.626   4.380 -0.3252 -0.6040  0.5045
  535MOL0     H70566   7.180   4.462   4.389 -0.3234  0.0949 -0.1494
  535MOL0     H70567   7.134   4.428   4.132  0.9698 -0.8678 -0.3302
  535MOL0     H70568   7.145   4.610   4.118 -0.1168 -1.5823 -0.8524
  535MOL0     H70569   6.936   4.485   4.297  0.6144 -0.9989  0.3749
  535MOL0     H70570   6.971   4.652   4.267 -1.7981 -1.1338  1.1726
  535MOL0     H70571   6.873   4.445   4.063  4.2469 -0.6631  1.1173
  535MOL0     H70572   6.922   4.607   4.014 -2.1617  1.8768  0.1029
  535MOL0     H70573   6.699   4.777   4.007 -0.1709 -1.4825 -1.3512
  535MOL0     H70574   6.460   4.887   4.094  0.3437 -1.5155 -2.1602
  535MOL0     H70575   6.449   4.840   4.261  3.0528  1.1470 -0.8467
  535MOL0     H70576   6.274   4.671   4.201  0.0397 -4.3010 -2.4570
  535MOL0     H70577   6.304   4.682   4.033  1.4472  1.0445  0.2042
  535MOL0     H70578   6.205   4.945   4.166 -2.8395 -0.0882  1.9144
  535MOL0     H70579   6.185   4.871   4.001  0.3713 -2.8767 -0.1564
  535MOL0     H70580   6.071   4.743   4.238 -0.9734  1.1604  1.4885
  535MOL0     H70581   6.028   4.706   4.074 -2.7639 -1.7227  3.2548
  535MOL0     H70582   5.710   5.003   4.078 -1.2503 -1.5636 -1.7384
  535MOL0     H70583   5.507   4.913   4.065 -0.3750 -0.7954  0.2737
  535MOL0     H70584   5.282   4.402   4.001 -2.0978  1.0079 -1.1647
  535MOL0     H70585   5.073   4.306   4.005 -1.5686  0.9350 -0.9854
  535MOL0     H70586   4.779   4.447   4.301  3.6964  1.4865  3.3557
  535MOL0     H70587   4.844   4.316   4.398 -0.3314  0.2405  0.1192
  535MOL0     H70588   4.619   4.283   4.387 -0.3872  0.5775  0.4093
  535MOL0     H70589   4.712   4.151   4.327 -3.7409 -0.4752  1.6010
  535MOL0     H70590   4.660   4.194   4.082 -1.4220  0.3275 -1.3491
  535MOL0     H70591   4.540   4.308   4.131 -1.8261 -0.5723 -2.0745
  535MOL0     H70592   4.556   4.010   4.209  0.1270 -0.4888 -2.7286
  535MOL0     H70593   4.453   4.113   4.297  1.9273 -0.7044  0.9166
  535MOL0     H70594   4.368   3.977   4.084  1.1102 -0.0392 -1.3069
  535MOL0     H70595   4.467   4.074   3.987  0.5918 -1.7543 -0.3349
  535MOL0     H70596   4.326   4.295   4.064  0.0782  0.4624  2.5976
  535MOL0     H70597   4.238   4.193   4.172 -1.9941  2.1388 -0.5501
  535MOL0     H70598   4.165   4.038   3.988  0.3316 -0.0820 -0.1484
  535MOL0     H70599   4.095   4.189   3.987 -1.0689 -0.5821 -0.1410
  535MOL0     H70600   4.165   4.120   3.747  1.0176  0.0025 -1.8187
  535MOL0     H70601   4.329   4.121   3.797  0.7340  0.8608 -0.7591
  535MOL0     H70602   5.005   4.465   4.401 -0.6038  2.2600 -0.4446
  535MOL0     H70603   5.235   4.543   4.400  1.2877 -0.9637  1.1293
  535MOL0     H70604   5.646   4.550   4.254  1.4638  0.3254  1.8054
  535MOL0     H70605   5.871   4.639   4.226  1.4938 -0.2340 -1.5250
  535MOL0     H70606   7.804   4.278   4.141 -0.8122 -0.2254  1.5696
  535MOL0     H70607   7.992   4.094   4.154  0.1628  0.9721 -1.0561
  535MOL0     H70608   8.104   3.678   4.262  0.6675 -1.6728 -0.4201
  535MOL0     H70609   8.266   3.488   4.310 -1.3674  0.2391 -2.1746
  535MOL0     H70610   8.590   3.585   4.567 -1.2756 -1.0306  0.2264
  535MOL0     H70611   8.676   3.567   4.415  0.0219  0.4502 -0.1342
  535MOL0     H70612   8.757   3.393   4.571  0.6565  1.3230 -2.6842
  535MOL0     H70613   8.588   3.329   4.580  0.1868 -0.8501 -0.9700
  535MOL0     H70614   8.593   3.262   4.349 -1.0070  1.5179  1.4017
  535MOL0     H70615   8.721   3.177   4.454 -1.0067  0.4693  2.8160
  535MOL0     H70616   8.772   3.241   4.217 -1.6034 -1.7186  0.6223
  535MOL0     H70617   8.750   3.415   4.264 -2.7423 -0.6224  1.7293
  535MOL0     H70618   9.132   3.285   4.431 -1.1335  0.5570  1.2555
  535MOL0     H70619   8.548   3.763   4.453  0.4839 -2.0455 -0.2468
  535MOL0     H70620   8.385   3.950   4.426 -2.3225 -0.6493  2.2479
  536MOL0     O70621   6.184   7.291   2.951  0.4503  0.2299 -0.2820
  536MOL0     C70622   6.256   7.380   2.909 -0.4501  0.5967  0.4204
  536MOL0     O70623   6.216   7.510   2.887 -0.5658 -0.2242  0.4797
  536MOL0     C70624   6.079   7.534   2.904  0.4518 -0.7794 -0.1404
  536MOL0     C70625   6.011   7.501   3.021  0.4904  0.5253 -0.6179
  536MOL0     C70626   5.880   7.531   3.042 -0.2421  0.7601  0.6604
  536MOL0     C70627   5.810   7.608   2.954 -0.2297  0.2305 -0.2051
  536MOL0     O70628   5.678   7.645   2.974 -0.0497  0.0867 -0.1729
  536MOL0     C70629   5.599   7.603   3.082  0.1345  0.1931 -0.0178
  536MOL0     C70630   5.469   7.675   3.075  0.2852 -0.1723 -0.0107
  536MOL0     C70631   5.364   7.644   3.178  0.4763 -0.1003  0.0157
  536MOL0     C70632   5.249   7.743   3.163 -0.4580  0.4795  0.5263
  536MOL0     C70633   5.133   7.726   3.260  0.1537 -0.2472 -0.0187
  536MOL0     C70634   5.039   7.615   3.218  0.6572 -0.4427 -0.2979
  536MOL0     C70635   4.953   7.583   3.343  0.3524 -1.0400  0.7592
  536MOL0     C70636   4.838   7.487   3.314  0.3802 -1.3616 -0.0092
  536MOL0     N70637   4.747   7.472   3.421 -0.1536  0.9166 -0.1884
  536MOL0     C70638   4.661   7.566   3.466 -0.2363 -0.9970  0.6337
  536MOL0     C70639   4.590   7.513   3.567  0.0108  0.6319 -0.2843
  536MOL0     C70640   4.509   7.578   3.671 -0.0970  0.2941 -0.6249
  536MOL0     C70641   4.412   7.472   3.739  0.2806 -0.1233 -0.5891
  536MOL0     C70642   4.269   7.492   3.671  0.4801  0.0427 -0.1065
  536MOL0     C70643   4.170   7.384   3.689 -0.3008  0.1254  0.0201
  536MOL0     O70644   4.075   7.414   3.799 -0.2107 -0.6621  0.2095
  536MOL0     C70645   3.970   7.327   3.824  0.3651  0.0918 -0.3269
  536MOL0     C70646   3.887   7.359   3.931  0.7892  0.8004  0.1363
  536MOL0     C70647   3.771   7.280   3.960 -0.4292  0.2967 -0.0064
  536MOL0     C70648   3.739   7.170   3.878 -0.7272  0.6938 -0.8653
  536MOL0     C70649   3.626   7.079   3.899 -0.4271  0.0992 -0.3161
  536MOL0     O70650   3.552   7.103   4.011  0.7248 -0.3235 -0.6260
  536MOL0     C70651   3.434   7.035   4.021 -0.0542  0.1071 -0.1364
  536MOL0     C70652   3.325   7.051   3.936 -0.6011  0.1212  0.8557
  536MOL0     C70653   3.212   6.970   3.950  0.0057 -0.9910  0.0975
  536MOL0     C70654   3.199   6.874   4.052  0.4038 -0.1449 -0.0705
  536MOL0     O70655   3.080   6.793   4.072 -0.5054 -0.5160 -0.0059
  536MOL0     C70656   2.965   6.818   3.992  0.1546 -0.3811  0.6689
  536MOL0     C70657   2.854   6.726   4.042  0.4130 -0.5099  1.2192
  536MOL0     C70658   2.721   6.735   3.968  0.1050 -0.5007  0.2469
  536MOL0     C70659   2.616   6.647   4.033  0.0252  0.3180 -0.1024
  536MOL0     C70660   2.474   6.679   3.979  0.0539  0.0703  0.3148
  536MOL0     C70661   2.365   6.613   4.051 -0.3501 -0.0501 -0.4481
  536MOL0     C70662   2.232   6.617   3.980  0.9416  0.0546  0.5232
  536MOL0     C70663   2.118   6.617   4.093 -0.2636  0.4532  0.3935
  536MOL0    Cl70664   1.953   6.634   4.039 -0.0008  0.0606  0.1319
  536MOL0     C70665   3.305   6.858   4.136 -0.2433  0.5402 -0.1535
  536MOL0     C70666   3.426   6.936   4.126  1.0733  0.4381 -0.8601
  536MOL0     O70667   3.595   7.008   3.802 -0.5521 -0.5717  0.2944
  536MOL0     C70668   3.825   7.146   3.766  0.3058  0.9806  0.6424
  536MOL0     C70669   3.939   7.223   3.743  0.3669  0.4756 -0.4765
  536MOL0     N70670   4.620   7.377   3.574 -0.4949 -0.0811 -0.4623
  536MOL0     N70671   4.725   7.356   3.497  0.1900 -0.4323 -1.0343
  536MOL0     C70672   5.867   7.644   2.834 -0.2993 -0.1166 -0.1732
  536MOL0     C70673   6.000   7.604   2.803 -0.2780 -0.3199 -1.1531
  536MOL0     C70674   6.394   7.338   2.876  0.5890 -0.4275 -0.5382
  536MOL0     C70675   6.431   7.212   2.885  0.0910  0.1275 -0.2644
  536MOL0     C70676   6.570   7.176   2.863 -0.1501 -0.0376 -0.2790
  536MOL0     C70677   6.667   7.264   2.814 -0.3516  0.2416 -0.5445
  536MOL0     O70678   6.794   7.224   2.812  0.2023  0.3253 -0.2517
  536MOL0     C70679   6.891   7.302   2.737  0.2746  0.3719  0.4468
  536MOL0     C70680   7.036   7.274   2.763 -0.2430 -1.1781  0.2747
  536MOL0     C70681   7.059   7.126   2.801  0.1580 -0.2917 -0.0398
  536MOL0     C70682   7.214   7.111   2.796  0.3842  0.6768 -0.4564
  536MOL0     C70683   7.245   6.975   2.847 -1.2193  0.4153 -0.8946
  536MOL0     C70684   7.277   6.867   2.896 -0.0401  0.5173  0.9067
  536MOL0     C70685   6.618   7.397   2.793 -0.7260  0.5227 -0.1225
  536MOL0     C70686   6.486   7.434   2.819 -0.1189  0.3376  0.6642
  536MOL0     H70687   6.058   7.441   3.098  1.8073  1.4499 -0.6683
  536MOL0     H70688   5.846   7.497   3.139 -1.1176  2.6777  1.0877
  536MOL0     H70689   5.651   7.622   3.176 -0.6967  1.3513  0.2284
  536MOL0     H70690   5.580   7.495   3.079  0.6937  0.0554  1.1459
  536MOL0     H70691   5.441   7.651   2.972  1.9067  0.9185 -0.7433
  536MOL0     H70692   5.493   7.781   3.090 -0.4472  0.0786 -0.5731
  536MOL0     H70693   5.403   7.647   3.281  0.4528 -1.1979  0.0690
  536MOL0     H70694   5.330   7.545   3.147 -0.6231  0.8932 -2.1301
  536MOL0     H70695   5.287   7.844   3.175  3.4125 -0.5083 -1.7666
  536MOL0     H70696   5.208   7.736   3.062  1.1759 -3.4156 -0.0441
  536MOL0     H70697   5.091   7.826   3.272  1.1847 -0.0662  3.0689
  536MOL0     H70698   5.177   7.709   3.359  1.8276 -2.8726 -1.1146
  536MOL0     H70699   5.098   7.528   3.187  3.8777  1.7311 -0.7159
  536MOL0     H70700   4.973   7.651   3.138  0.2330 -0.0643  0.2164
  536MOL0     H70701   5.028   7.548   3.415  0.6969 -0.6279  0.6076
  536MOL0     H70702   4.907   7.673   3.384  0.5156  0.0667 -1.3580
  536MOL0     H70703   4.881   7.388   3.295 -0.5384 -1.3104 -2.9333
  536MOL0     H70704   4.776   7.513   3.227 -1.1159  0.0746  1.3995
  536MOL0     H70705   4.658   7.669   3.433 -1.3092 -1.4468 -0.7406
  536MOL0     H70706   4.460   7.668   3.634 -0.2818  0.2804 -0.4210
  536MOL0     H70707   4.575   7.612   3.752 -2.0571  1.8518  0.4152
  536MOL0     H70708   4.407   7.478   3.848 -0.5858  0.5978 -0.6575
  536MOL0     H70709   4.437   7.368   3.719  1.2953  0.4618 -2.6811
  536MOL0     H70710   4.224   7.590   3.690  1.9615  1.2667 -2.4528
  536MOL0     H70711   4.296   7.481   3.566  3.3298  2.8093  0.1891
  536MOL0     H70712   4.217   7.286   3.706 -1.1818 -0.0714  1.4554
  536MOL0     H70713   4.113   7.382   3.596  1.5444 -2.3031 -1.1980
  536MOL0     H70714   3.918   7.438   3.999  0.7318  1.6226 -0.7573
  536MOL0     H70715   3.717   7.290   4.054  0.5088 -1.5705  0.7918
  536MOL0     H70716   3.329   7.128   3.860 -1.2708  0.0091  0.7016
  536MOL0     H70717   3.129   6.995   3.885  3.2555  2.4265 -3.1919
  536MOL0     H70718   2.974   6.805   3.884 -2.7962  2.8155 -0.1666
  536MOL0     H70719   2.942   6.924   4.011 -3.2840 -0.7607 -0.6896
  536MOL0     H70720   2.851   6.732   4.151 -0.3379 -1.2826  1.2509
  536MOL0     H70721   2.890   6.626   4.014  1.7017  0.0504  0.7946
  536MOL0     H70722   2.732   6.720   3.861 -0.8296  3.4920 -0.5414
  536MOL0     H70723   2.695   6.841   3.969 -0.3389 -0.6039  1.2381
  536MOL0     H70724   2.637   6.544   4.003  0.1037  0.7415 -1.6079
  536MOL0     H70725   2.618   6.652   4.142  0.1187  0.4424 -0.1086
  536MOL0     H70726   2.460   6.639   3.878  2.4076  3.1673 -1.4422
  536MOL0     H70727   2.465   6.788   3.988 -2.6408 -0.0740  0.1583
  536MOL0     H70728   2.357   6.659   4.150  0.8969  1.3386 -0.9540
  536MOL0     H70729   2.389   6.506   4.059 -0.2961  0.0215  0.6192
  536MOL0     H70730   2.222   6.700   3.909 -1.5605  1.0345  1.8966
  536MOL0     H70731   2.221   6.526   3.921 -0.2194  2.6055 -3.6401
  536MOL0     H70732   2.139   6.703   4.158  0.7832  0.5626 -0.0658
  536MOL0     H70733   2.114   6.527   4.155  0.8658  0.5611  0.6566
  536MOL0     H70734   3.297   6.780   4.211  0.6529  1.3042  0.7687
  536MOL0     H70735   3.508   6.916   4.194  1.0224  2.2177 -0.2437
  536MOL0     H70736   3.802   7.063   3.699  3.3363  0.1779  0.4652
  536MOL0     H70737   4.002   7.196   3.659  1.9720  1.7429  0.2751
  536MOL0     H70738   5.817   7.697   2.754 -0.6761 -0.8967 -0.4639
  536MOL0     H70739   6.043   7.634   2.708  0.0414 -3.5864 -2.1586
  536MOL0     H70740   6.357   7.151   2.937 -5.1857  4.1345 -2.1234
  536MOL0     H70741   6.618   7.085   2.897  2.0153  0.5342 -1.6130
  536MOL0     H70742   6.875   7.410   2.736  1.2742  0.5375 -0.7993
  536MOL0     H70743   6.868   7.271   2.634  0.2032  2.0931 -0.0851
  536MOL0     H70744   7.095   7.309   2.678 -2.0397 -0.9452 -0.9353
  536MOL0     H70745   7.070   7.346   2.838 -0.1729 -1.6970  0.7546
  536MOL0     H70746   7.011   7.064   2.725  1.2955 -0.4037 -0.6805
  536MOL0     H70747   7.020   7.103   2.900  0.4026  1.3399  0.4638
  536MOL0     H70748   7.236   7.114   2.689 -2.6080 -0.4109 -1.2025
  536MOL0     H70749   7.279   7.182   2.848  1.6927  0.4047 -1.6941
  536MOL0     H70750   7.298   6.769   2.933 -1.2901 -0.2174 -0.2513
  536MOL0     H70751   6.672   7.478   2.745 -2.7339  1.4817 -0.8651
  536MOL0     H70752   6.460   7.534   2.786 -1.7244 -1.0259 -2.6951
  537MOL0     O70753   3.844   0.119   5.600 -0.3265  0.9905  0.6217
  537MOL0     C70754   3.876   0.097   5.719 -0.0924  0.2123  0.5493
  537MOL0     O70755   3.829   0.154   5.832 -0.4006 -0.1453 -0.6205
  537MOL0     C70756   3.708   0.220   5.813  0.4045  0.0339  0.0359
  537MOL0     C70757   3.702   0.358   5.847 -0.3129  1.0953  0.7800
  537MOL0     C70758   3.586   0.426   5.844 -0.4681  0.5727  0.5292
  537MOL0     C70759   3.467   0.364   5.796 -0.7486  0.0546  1.0604
  537MOL0     O70760   3.342   0.428   5.802  0.3898  0.3239 -0.1315
  537MOL0     C70761   3.342   0.571   5.774 -0.2099  0.3681 -0.2735
  537MOL0     C70762   3.215   0.638   5.745  0.0739 -0.3340  0.1556
  537MOL0     C70763   3.140   0.673   5.874 -0.6904 -0.2961  0.3776
  537MOL0     C70764   3.005   0.747   5.838 -0.4236 -0.6330 -0.0166
  537MOL0     C70765   2.922   0.784   5.961 -0.7101  0.5473  0.4114
  537MOL0     C70766   2.988   0.882   6.058 -0.0149 -0.1916  0.6588
  537MOL0     C70767   2.902   0.928   6.184  0.3698  0.4240  0.7444
  537MOL0     C70768   2.795   1.027   6.140  0.4171  0.0045 -0.2409
  537MOL0     N70769   2.858   1.162   6.103 -0.2506  0.2585 -0.3408
  537MOL0     C70770   2.911   1.254   6.189 -1.3416 -0.0436 -0.0899
  537MOL0     C70771   2.956   1.360   6.112  0.1720  0.3122 -0.1780
  537MOL0     C70772   3.024   1.485   6.153 -0.4575  0.2764  0.0791
  537MOL0     C70773   3.172   1.460   6.187  0.3172 -0.3086  0.6956
  537MOL0     C70774   3.197   1.404   6.332  0.0219 -0.3018  0.0995
  537MOL0     C70775   3.340   1.362   6.347 -0.0526 -0.3056 -0.0224
  537MOL0     O70776   3.422   1.460   6.409 -0.4635 -0.2532 -0.8224
  537MOL0     C70777   3.555   1.437   6.436 -0.7083  0.0256  0.3760
  537MOL0     C70778   3.635   1.531   6.510 -0.3705 -0.4177  1.1013
  537MOL0     C70779   3.774   1.517   6.523  1.2465 -0.1212  0.9099
  537MOL0     C70780   3.837   1.407   6.478 -0.1269  0.3177 -1.2191
  537MOL0     C70781   3.985   1.407   6.498  0.1108  0.7870 -0.2881
  537MOL0     O70782   4.045   1.288   6.476  0.1822  0.6460  0.0505
  537MOL0     C70783   4.185   1.273   6.457  1.0798 -0.0390 -0.5105
  537MOL0     C70784   4.237   1.225   6.344  0.3545 -0.1342  0.5133
  537MOL0     C70785   4.375   1.216   6.332  0.6134  0.3809  0.0874
  537MOL0     C70786   4.469   1.257   6.428 -0.7603 -0.4257  0.1999
  537MOL0     O70787   4.603   1.249   6.396 -0.4194 -0.4527 -0.4383
  537MOL0     C70788   4.689   1.347   6.459  0.9976 -0.4378 -0.6069
  537MOL0     C70789   4.820   1.349   6.385 -0.8043 -0.6923  0.6312
  537MOL0     C70790   4.910   1.228   6.409 -0.7381 -0.3534  0.4411
  537MOL0     C70791   5.031   1.230   6.313  0.0511  0.2785  0.6453
  537MOL0     C70792   5.135   1.129   6.374 -0.0819 -1.3055 -0.2742
  537MOL0     C70793   5.245   1.094   6.277 -0.5089  0.6764 -0.2314
  537MOL0     C70794   5.365   1.016   6.344 -0.1515  0.2072 -0.2837
  537MOL0     C70795   5.493   1.013   6.260 -0.0685  0.5087  0.8985
  537MOL0    Cl70796   5.572   1.168   6.278 -0.0491  0.0569  0.0901
  537MOL0     C70797   4.415   1.309   6.548 -0.1950  0.0848  0.2333
  537MOL0     C70798   4.271   1.321   6.559  0.1515  0.1126  0.2153
  537MOL0     O70799   4.042   1.512   6.505 -0.2045 -0.0807 -0.1937
  537MOL0     C70800   3.762   1.312   6.409  0.1365 -0.0329 -0.1628
  537MOL0     C70801   3.628   1.327   6.382  0.6707 -0.2361  1.1748
  537MOL0     N70802   2.910   1.331   5.979 -0.5733 -0.4992 -0.2080
  537MOL0     N70803   2.865   1.212   5.978 -0.0927  0.5142  0.5270
  537MOL0     C70804   3.472   0.232   5.750  0.7154  0.7198  0.5458
  537MOL0     C70805   3.589   0.154   5.761 -1.2753  0.4377  0.2072
  537MOL0     C70806   3.972  -0.013   5.734 -0.1927  0.6898  0.0917
  537MOL0     C70807   4.022  -0.086   5.623  0.2381  0.3641 -0.6873
  537MOL0     C70808   4.141  -0.168   5.635 -0.2138  0.3736  0.5298
  537MOL0     C70809   4.197  -0.201   5.760  0.8862 -0.0725 -0.3744
  537MOL0     O70810   4.304  -0.282   5.753 -0.1548 -0.6223 -0.3117
  537MOL0     C70811   4.370  -0.292   5.876 -0.0920 -0.7799  0.8063
  537MOL0     C70812   4.494  -0.384   5.856 -0.0621  0.0609 -1.1386
  537MOL0     C70813   4.594  -0.326   5.759 -0.6023 -0.4985  0.0515
  537MOL0     C70814   4.670  -0.203   5.808 -0.2474  1.0372 -1.0593
  537MOL0     C70815   4.803  -0.199   5.739  0.2012  0.0740 -0.1942
  537MOL0     C70816   4.921  -0.206   5.690 -0.2869 -0.3521  0.1131
  537MOL0     C70817   4.136  -0.144   5.876  0.5272  0.0578  0.2734
  537MOL0     C70818   4.030  -0.046   5.855  1.1045 -0.0579 -0.0952
  537MOL0     H70819   3.793   0.407   5.879  0.6454 -0.1530  0.0518
  537MOL0     H70820   3.588   0.527   5.885 -1.5284  0.0604  1.9232
  537MOL0     H70821   3.404   0.592   5.687 -0.8077  1.3297 -0.4753
  537MOL0     H70822   3.385   0.628   5.857 -1.1103  0.1392  0.3635
  537MOL0     H70823   3.147   0.583   5.678 -2.0059  0.1750  1.7559
  537MOL0     H70824   3.238   0.734   5.698 -2.0192  0.8650  1.4513
  537MOL0     H70825   3.208   0.735   5.933  2.4446  0.5715 -3.7023
  537MOL0     H70826   3.111   0.578   5.921 -0.0618 -0.7678 -0.1874
  537MOL0     H70827   3.015   0.841   5.783  0.5529 -2.0198 -2.3187
  537MOL0     H70828   2.947   0.681   5.774  0.0332  0.3495 -1.5055
  537MOL0     H70829   2.877   0.695   6.007 -2.3964  1.5024  0.6520
  537MOL0     H70830   2.837   0.832   5.913 -0.9273  0.5654  0.8064
  537MOL0     H70831   3.025   0.970   6.004 -1.3432  1.1007  1.7632
  537MOL0     H70832   3.074   0.830   6.101  0.5012 -1.0589 -1.2769
  537MOL0     H70833   2.859   0.834   6.220 -0.0139  0.0146 -0.7080
  537MOL0     H70834   2.958   0.980   6.262 -0.2856  0.8005  0.9771
  537MOL0     H70835   2.715   1.046   6.212  0.0538 -0.9453 -0.3897
  537MOL0     H70836   2.741   0.992   6.052  0.1620 -0.0470 -0.0627
  537MOL0     H70837   2.933   1.240   6.294  0.6296  1.6436 -0.2101
  537MOL0     H70838   2.970   1.530   6.236 -0.6069  1.6447 -0.7337
  537MOL0     H70839   3.029   1.547   6.063  0.3370 -0.7767 -0.6261
  537MOL0     H70840   3.223   1.556   6.175 -2.7036  1.5228  1.3647
  537MOL0     H70841   3.212   1.400   6.105  1.9231  2.1541 -0.4585
  537MOL0     H70842   3.180   1.485   6.404 -3.4681  0.2503 -1.1448
  537MOL0     H70843   3.124   1.326   6.355 -3.0433  2.2110 -0.3791
  537MOL0     H70844   3.369   1.336   6.245  0.9353  1.4592 -0.2262
  537MOL0     H70845   3.332   1.266   6.400  0.3527 -1.0969 -1.3403
  537MOL0     H70846   3.581   1.613   6.556  0.4698  1.6581 -1.3655
  537MOL0     H70847   3.821   1.604   6.568  3.7896 -1.8331  1.7627
  537MOL0     H70848   4.182   1.212   6.252  1.1634  1.8294 -0.3031
  537MOL0     H70849   4.407   1.166   6.241 -1.8594 -4.8405  1.6871
  537MOL0     H70850   4.705   1.320   6.564  1.7104 -2.0484 -1.0872
  537MOL0     H70851   4.635   1.442   6.452  0.1249 -0.7196  1.6640
  537MOL0     H70852   4.875   1.439   6.412 -2.2035  0.8081 -1.2878
  537MOL0     H70853   4.802   1.368   6.279  1.2231  0.9308  0.5226
  537MOL0     H70854   4.855   1.136   6.386  2.8196 -2.0589 -2.2527
  537MOL0     H70855   4.953   1.229   6.510 -1.1361 -1.9831  0.6530
  537MOL0     H70856   4.998   1.190   6.217  0.5370 -0.6725  0.8588
  537MOL0     H70857   5.066   1.334   6.308 -1.5387  0.7544 -1.6662
  537MOL0     H70858   5.082   1.035   6.395  1.7037 -2.2124  0.3765
  537MOL0     H70859   5.179   1.179   6.461  0.8780 -3.1751  0.3772
  537MOL0     H70860   5.290   1.184   6.235 -0.2940  1.8455  2.2831
  537MOL0     H70861   5.201   1.042   6.192  0.5825 -1.3259  0.3627
  537MOL0     H70862   5.391   1.065   6.438  0.6260  0.7580 -0.7744
  537MOL0     H70863   5.328   0.914   6.354 -0.3702  0.4686  2.1468
  537MOL0     H70864   5.465   1.003   6.154  6.1313 -1.2026 -0.9870
  537MOL0     H70865   5.554   0.929   6.293  0.3866  0.1763 -0.7158
  537MOL0     H70866   4.472   1.345   6.632  0.1057 -0.3781  0.2297
  537MOL0     H70867   4.236   1.366   6.651  1.0452  2.7536 -0.6484
  537MOL0     H70868   3.812   1.221   6.379  0.7958  1.1185 -2.8775
  537MOL0     H70869   3.580   1.255   6.316  0.4454 -0.4355  1.5545
  537MOL0     H70870   3.388   0.183   5.701  2.4662 -0.9920 -0.8787
  537MOL0     H70871   3.594   0.049   5.734  1.6752 -0.5098  3.7102
  537MOL0     H70872   3.982  -0.070   5.524 -0.4821  4.3937  0.0702
  537MOL0     H70873   4.191  -0.205   5.546  0.5932  2.7414 -0.0785
  537MOL0     H70874   4.303  -0.334   5.952  0.7865 -1.0989  1.4196
  537MOL0     H70875   4.406  -0.197   5.917 -1.8690  0.5491 -0.5085
  537MOL0     H70876   4.538  -0.410   5.953 -2.2850 -2.5990 -0.6966
  537MOL0     H70877   4.466  -0.482   5.816  3.5094 -2.7358  2.4205
  537MOL0     H70878   4.549  -0.294   5.664  0.6950  1.2729 -0.0220
  537MOL0     H70879   4.667  -0.406   5.746 -1.1785 -1.1536  0.7847
  537MOL0     H70880   4.609  -0.114   5.792  0.7240  2.2880  1.6625
  537MOL0     H70881   4.681  -0.224   5.915  1.1138 -3.9657 -1.9384
  537MOL0     H70882   5.010  -0.222   5.632  0.7409 -2.9024  2.1401
  537MOL0     H70883   4.178  -0.155   5.976 -1.4625  0.9719  1.2689
  537MOL0     H70884   3.996   0.006   5.944  1.2725  0.6993 -0.4561
  538MOL0     O70885  10.251   0.633   5.469  0.2462 -0.1173 -0.3336
  538MOL0     C70886  10.260   0.742   5.428 -0.2440  0.4000  0.2026
  538MOL0     O70887  10.168   0.806   5.341 -0.6909  0.4904 -0.6399
  538MOL0     C70888  10.072   0.734   5.274 -0.7375 -0.4905  0.0363
  538MOL0     C70889  10.071   0.596   5.250 -1.1150  0.0194 -0.0109
  538MOL0     C70890   9.971   0.535   5.172  0.2623 -0.5082  0.1643
  538MOL0     C70891   9.868   0.608   5.115 -0.3555 -0.0914 -0.5954
  538MOL0     O70892   9.771   0.542   5.037 -0.5314 -0.2661  0.6653
  538MOL0     C70893   9.666   0.625   4.975  0.0700 -0.3802  0.0670
  538MOL0     C70894   9.533   0.542   4.967 -0.2917  0.0487  0.4055
  538MOL0     C70895   9.429   0.618   4.900 -0.0289  0.1190  0.0849
  538MOL0     C70896   9.297   0.537   4.892 -0.4793 -0.2420 -0.0032
  538MOL0     C70897   9.308   0.420   4.788  0.2267 -0.2716  0.6739
  538MOL0     C70898   9.171   0.377   4.733  0.9018  0.6128  0.6071
  538MOL0     C70899   9.072   0.352   4.851  0.3411 -0.2423  1.0154
  538MOL0     C70900   8.920   0.351   4.817 -0.5837  0.2277  0.2186
  538MOL0     N70901   8.868   0.244   4.732  0.5412 -0.4790 -0.3011
  538MOL0     C70902   8.752   0.174   4.752  0.7208 -0.1739  0.4745
  538MOL0     C70903   8.767   0.063   4.671 -0.2610 -0.8226 -0.0810
  538MOL0     C70904   8.664  -0.046   4.668  0.1294 -0.3578  1.1479
  538MOL0     C70905   8.574  -0.021   4.539  0.9989 -0.0801 -0.4244
  538MOL0     C70906   8.656  -0.049   4.412  0.5800 -0.3100 -0.0509
  538MOL0     C70907   8.583  -0.010   4.285  0.5885  0.4422 -0.5442
  538MOL0     O70908   8.531  -0.126   4.212 -0.4961 -0.6090 -0.0417
  538MOL0     C70909   8.442  -0.096   4.118 -0.2358  0.1785 -0.1575
  538MOL0     C70910   8.309  -0.135   4.138 -0.1460 -0.0257 -0.2423
  538MOL0     C70911   8.212  -0.088   4.051 -0.4697  0.3965 -0.4227
  538MOL0     C70912   8.242  -0.009   3.941 -0.0913 -0.1740 -0.0383
  538MOL0     C70913   8.136   0.022   3.845  0.9248  0.1749 -1.1844
  538MOL0     O70914   8.022  -0.044   3.857 -0.3627  0.1535 -0.4255
  538MOL0     C70915   7.932  -0.034   3.753  0.9005 -0.0278  0.3511
  538MOL0     C70916   7.806   0.023   3.776 -0.0027  0.0199  0.4522
  538MOL0     C70917   7.708   0.043   3.673  0.6154  1.0779 -0.4810
  538MOL0     C70918   7.741  -0.005   3.542 -0.1735 -0.4471  0.3847
  538MOL0     O70919   7.666  -0.002   3.428  0.1438 -0.1794  0.2785
  538MOL0     C70920   7.526   0.042   3.429 -0.5243 -1.0408  0.1387
  538MOL0     C70921   7.521   0.196   3.381  1.2438  0.1174  0.5377
  538MOL0     C70922   7.563   0.303   3.493  0.0042 -0.0553 -0.0043
  538MOL0     C70923   7.484   0.428   3.473 -0.1050 -0.5664 -0.0177
  538MOL0     C70924   7.538   0.542   3.563  0.5357 -0.0094  0.5565
  538MOL0     C70925   7.486   0.679   3.511 -0.5100 -0.1590 -0.0491
  538MOL0     C70926   7.537   0.792   3.600  0.6368 -0.5692 -0.3918
  538MOL0     C70927   7.499   0.929   3.554  1.0367 -0.2155 -0.0480
  538MOL0    Cl70928   7.311   0.952   3.544  0.2814  0.1983 -0.0718
  538MOL0     C70929   7.863  -0.070   3.525  0.2867  0.5473 -0.9144
  538MOL0     C70930   7.953  -0.097   3.630 -0.6067 -0.3283 -0.1219
  538MOL0     O70931   8.155   0.109   3.760 -0.3663  1.1058 -0.2611
  538MOL0     C70932   8.376   0.027   3.921 -0.6002 -0.2626 -0.1747
  538MOL0     C70933   8.481  -0.015   4.006  0.5610 -0.6101 -0.1912
  538MOL0     N70934   8.893   0.068   4.611  0.2504 -0.7789  0.4814
  538MOL0     N70935   8.949   0.180   4.646 -0.5630  0.2482  0.2559
  538MOL0     C70936   9.880   0.748   5.131 -0.2110 -0.6166 -0.7611
  538MOL0     C70937   9.977   0.811   5.203  0.3497 -0.3420 -0.2423
  538MOL0     C70938  10.374   0.822   5.476  0.0314 -0.6630  0.6689
  538MOL0     C70939  10.462   0.775   5.570 -0.9415 -0.8364 -0.3889
  538MOL0     C70940  10.566   0.851   5.616 -0.4989  0.6172 -1.3474
  538MOL0     C70941  10.576   0.981   5.581 -0.4610 -0.8881  0.3442
  538MOL0     O70942  10.669   1.046   5.655  0.3296  0.2868 -0.0736
  538MOL0     C70943  10.659   1.189   5.671 -0.5714 -0.0638 -0.6713
  538MOL0     C70944  10.770   1.234   5.764  0.2466 -0.1883  0.5277
  538MOL0     C70945  10.749   1.184   5.914  0.0404 -0.1246  0.2029
  538MOL0     C70946  10.871   1.209   6.004 -0.4335  0.0998 -0.3320
  538MOL0     C70947  10.831   1.199   6.140  0.4377  0.2470  0.9687
  538MOL0     C70948  10.793   1.198   6.253 -0.6664  0.0459  0.1967
  538MOL0     C70949  10.489   1.037   5.488  0.6453 -0.5768  0.0214
  538MOL0     C70950  10.391   0.955   5.430 -0.3049  0.9815  1.0372
  538MOL0     H70951  10.145   0.525   5.282  0.0820  0.5519 -1.4556
  538MOL0     H70952   9.986   0.429   5.160 -3.9926 -1.3907  0.9253
  538MOL0     H70953   9.690   0.660   4.874 -0.0521 -0.7538 -0.0953
  538MOL0     H70954   9.653   0.714   5.037  1.7058  0.9505 -1.3959
  538MOL0     H70955   9.500   0.526   5.070  1.8140 -3.1596  0.7213
  538MOL0     H70956   9.561   0.443   4.930  0.6390  0.1929  0.7048
  538MOL0     H70957   9.468   0.631   4.799  1.5010 -4.1079 -0.0765
  538MOL0     H70958   9.411   0.715   4.948 -1.2098 -0.7820  1.5604
  538MOL0     H70959   9.263   0.510   4.992 -1.2677 -0.2409 -0.2692
  538MOL0     H70960   9.233   0.619   4.859 -1.3396  0.2465  2.6907
  538MOL0     H70961   9.369   0.341   4.831 -0.4093 -2.1534 -1.6381
  538MOL0     H70962   9.368   0.440   4.698 -0.5710 -1.5504 -0.1746
  538MOL0     H70963   9.187   0.280   4.684  1.2995  0.1620  1.6035
  538MOL0     H70964   9.123   0.445   4.663 -0.2292  0.0448  0.8074
  538MOL0     H70965   9.117   0.264   4.898  1.7228  1.1134  2.3600
  538MOL0     H70966   9.080   0.435   4.922 -0.9381  1.6996 -0.9698
  538MOL0     H70967   8.897   0.442   4.761 -1.4047  0.7015  1.3063
  538MOL0     H70968   8.867   0.353   4.912 -2.0157 -2.2782 -0.4156
  538MOL0     H70969   8.660   0.209   4.798  1.5260  2.7030  0.1163
  538MOL0     H70970   8.612  -0.043   4.764 -0.0375  0.8967  1.0315
  538MOL0     H70971   8.719  -0.140   4.658 -1.2643 -1.4340  3.0806
  538MOL0     H70972   8.543   0.084   4.537  0.6238 -0.1314 -3.9389
  538MOL0     H70973   8.486  -0.086   4.548  0.6030  0.7664  4.2453
  538MOL0     H70974   8.741   0.019   4.420  0.8447 -0.7438  0.9616
  538MOL0     H70975   8.696  -0.150   4.403 -1.0776 -0.8170 -3.4365
  538MOL0     H70976   8.654   0.040   4.218  0.1800  1.1038 -0.4912
  538MOL0     H70977   8.505   0.063   4.304  2.3412  2.5112 -0.9348
  538MOL0     H70978   8.281  -0.200   4.219 -1.4062  0.8539  0.0577
  538MOL0     H70979   8.112  -0.126   4.069  0.4790 -2.4341 -0.5221
  538MOL0     H70980   7.780   0.072   3.869  0.5821  0.7317  0.2507
  538MOL0     H70981   7.613   0.091   3.691 -0.3778 -0.8990 -0.2178
  538MOL0     H70982   7.482   0.021   3.527  2.6093 -1.1329  1.6562
  538MOL0     H70983   7.476  -0.012   3.349  0.4497  2.3621 -3.0797
  538MOL0     H70984   7.417   0.211   3.353  1.1086 -1.1058  0.3637
  538MOL0     H70985   7.582   0.206   3.291  1.6142 -2.0510  0.5103
  538MOL0     H70986   7.671   0.313   3.485 -0.0462  0.6370  0.1011
  538MOL0     H70987   7.530   0.267   3.591  1.3251 -0.6383  0.2465
  538MOL0     H70988   7.485   0.461   3.368 -1.1982  0.7331  0.3513
  538MOL0     H70989   7.381   0.403   3.498 -0.3944  1.3800  0.9379
  538MOL0     H70990   7.647   0.547   3.562  0.5484  0.9504  2.2391
  538MOL0     H70991   7.501   0.532   3.666  0.4638 -2.5827  0.3402
  538MOL0     H70992   7.378   0.667   3.495  0.0729 -2.7197 -3.0575
  538MOL0     H70993   7.530   0.690   3.412 -0.7085 -1.6468 -0.3215
  538MOL0     H70994   7.497   0.790   3.702  1.5975  1.4062  0.0685
  538MOL0     H70995   7.645   0.777   3.607  0.9862  1.7326  0.0709
  538MOL0     H70996   7.548   0.950   3.459 -0.9493 -0.9079 -1.2859
  538MOL0     H70997   7.552   0.986   3.631  1.3632  1.2784 -1.3288
  538MOL0     H70998   7.885  -0.105   3.424 -0.9490 -1.3403 -0.5839
  538MOL0     H70999   8.051  -0.139   3.608  2.0305  3.6089  2.7085
  538MOL0     H71000   8.412   0.101   3.851 -1.0311  0.3206  0.2076
  538MOL0     H71001   8.578   0.020   3.971  0.0011  1.8669  0.4789
  538MOL0     H71002   9.808   0.813   5.082 -0.9893 -1.9885 -1.5049
  538MOL0     H71003   9.983   0.918   5.218  0.6999 -0.4551  0.4822
  538MOL0     H71004  10.439   0.675   5.606 -5.8932  0.0716 -0.3212
  538MOL0     H71005  10.626   0.793   5.686  1.0957  0.2455 -2.9673
  538MOL0     H71006  10.564   1.227   5.711 -0.2311 -1.0270  1.0958
  538MOL0     H71007  10.675   1.242   5.576  2.5497  1.0402  0.3714
  538MOL0     H71008  10.866   1.197   5.726  0.5288 -0.0008  1.0536
  538MOL0     H71009  10.771   1.343   5.766  0.2514 -0.1961  1.3593
  538MOL0     H71010  10.744   1.076   5.899 -0.8890  0.0366 -0.7222
  538MOL0     H71011  10.655   1.219   5.958 -1.9120 -1.7135 -2.4672
  538MOL0     H71012  10.954   1.143   5.978 -2.1854 -3.4168  2.0815
  538MOL0     H71013  10.903   1.313   5.992 -1.7830  0.4187 -1.3380
  538MOL0     H71014  10.758   1.209   6.354 -1.2911 -1.5238  0.1807
  538MOL0     H71015  10.502   1.139   5.454 -0.4182 -0.1146  0.9182
  538MOL0     H71016  10.318   0.993   5.359 -0.7222 -2.6874 -0.7311
  539MOL0     O71017   4.951   9.350   1.918 -0.3884 -0.2821 -0.1581
  539MOL0     C71018   4.989   9.300   1.811  0.1240 -0.4828 -1.3038
  539MOL0     O71019   4.902   9.296   1.696 -0.3533 -0.1259 -0.3727
  539MOL0     C71020   4.769   9.340   1.701  0.0312  0.0913  0.1773
  539MOL0     C71021   4.731   9.452   1.625  0.1802 -0.6127  0.7202
  539MOL0     C71022   4.598   9.502   1.624  0.1985 -0.3204 -0.3655
  539MOL0     C71023   4.500   9.428   1.687  0.0453 -0.4489 -0.7112
  539MOL0     O71024   4.365   9.466   1.677  0.0476  0.4911 -0.1561
  539MOL0     C71025   4.311   9.512   1.796 -0.2395  0.1194 -0.3594
  539MOL0     C71026   4.151   9.524   1.776  0.4739  0.5755  0.2171
  539MOL0     C71027   4.098   9.644   1.693 -0.1317 -0.7711 -0.1978
  539MOL0     C71028   3.942   9.642   1.685 -0.4663  0.8160  1.4454
  539MOL0     C71029   3.887   9.706   1.553  0.0566  0.2666 -0.8061
  539MOL0     C71030   3.733   9.705   1.547  0.1937 -0.7011  0.3108
  539MOL0     C71031   3.677   9.778   1.418 -0.7845  0.3258 -0.6833
  539MOL0     C71032   3.526   9.766   1.389  0.0423  0.1398 -0.9684
  539MOL0     N71033   3.435   9.826   1.490  0.5461  0.1929  0.2473
  539MOL0     C71034   3.423   9.963   1.501  0.5561  0.8605 -0.3364
  539MOL0     C71035   3.346   9.979   1.607 -0.9314 -1.0130  0.6075
  539MOL0     C71036   3.293  10.111   1.648  0.3371 -0.1627  0.2697
  539MOL0     C71037   3.170  10.138   1.562  0.4487 -0.5189  0.0053
  539MOL0     C71038   3.119  10.285   1.608 -0.0194  0.5430  0.0457
  539MOL0     C71039   2.973  10.311   1.555  0.7530 -0.0135 -0.2337
  539MOL0     O71040   2.978  10.340   1.411  0.3822  0.5944  0.1356
  539MOL0     C71041   2.863  10.341   1.336  0.9037 -0.6914  0.5989
  539MOL0     C71042   2.736  10.335   1.397 -0.8491  0.2849 -0.5454
  539MOL0     C71043   2.621  10.334   1.324 -0.1470  0.5014 -0.4188
  539MOL0     C71044   2.625  10.348   1.176  0.2956 -0.5622 -0.5618
  539MOL0     C71045   2.495  10.332   1.095 -0.3957 -0.1707  0.3336
  539MOL0     O71046   2.377  10.339   1.162 -0.1727  0.3718  0.1595
  539MOL0     C71047   2.254  10.312   1.098  0.3991  0.2923 -0.4397
  539MOL0     C71048   2.147  10.396   1.153 -0.4172  0.0855 -0.1872
  539MOL0     C71049   2.017  10.384   1.109  0.4617  0.4163 -0.6047
  539MOL0     C71050   1.991  10.298   0.999  0.3486 -1.0343  0.2065
  539MOL0     O71051   1.875  10.276   0.930 -0.1257  0.1435  0.9271
  539MOL0     C71052   1.761  10.344   0.988  0.5307  0.1902 -0.5444
  539MOL0     C71053   1.652  10.346   0.888 -0.2503 -0.1837 -0.2357
  539MOL0     C71054   1.522  10.384   0.963  0.5790  0.0982  1.1929
  539MOL0     C71055   1.416  10.403   0.859  0.4363  0.6702 -0.2176
  539MOL0     C71056   1.276  10.433   0.923  0.7731  0.0295  0.0416
  539MOL0     C71057   1.173  10.455   0.816  0.1770  0.3210  0.2388
  539MOL0     C71058   1.025  10.466   0.861  0.0735 -0.2027 -0.0601
  539MOL0     C71059   0.941  10.480   0.739 -0.1090  0.2744 -0.7609
  539MOL0    Cl71060   0.778  10.508   0.776 -0.4564 -0.3820 -0.1125
  539MOL0     C71061   2.097  10.226   0.944 -0.6159  0.1003 -0.6045
  539MOL0     C71062   2.221  10.221   0.995  0.2739 -0.5931 -0.0425
  539MOL0     O71063   2.517  10.316   0.975 -0.0466 -0.6247 -0.0943
  539MOL0     C71064   2.749  10.363   1.114 -0.3369  0.3010 -1.0820
  539MOL0     C71065   2.863  10.357   1.197 -0.0424  0.5727  0.1343
  539MOL0     N71066   3.320   9.862   1.676 -0.2704  0.7184  0.8076
  539MOL0     N71067   3.371   9.765   1.603 -0.7767 -0.5471  0.4689
  539MOL0     C71068   4.541   9.316   1.764  0.2073 -0.7884 -0.3181
  539MOL0     C71069   4.677   9.268   1.765  0.0947  0.7385 -0.7596
  539MOL0     C71070   5.124   9.245   1.793  0.2403 -0.7404  0.5769
  539MOL0     C71071   5.174   9.216   1.666 -0.5392  0.2335 -0.5028
  539MOL0     C71072   5.308   9.174   1.649  0.1901 -0.0859 -0.0493
  539MOL0     C71073   5.390   9.166   1.766  0.5019 -0.1677  0.8396
  539MOL0     O71074   5.522   9.135   1.769 -0.2160  0.2314 -0.0439
  539MOL0     C71075   5.577   9.084   1.642 -0.4560 -0.8467  0.6737
  539MOL0     C71076   5.709   9.007   1.675  0.9491  0.3769 -0.2791
  539MOL0     C71077   5.828   9.061   1.594 -0.4220  0.0392 -1.1848
  539MOL0     C71078   5.959   9.007   1.653 -0.0979  0.6963 -0.2730
  539MOL0     C71079   6.076   9.021   1.572 -0.8386  0.4289 -0.1678
  539MOL0     C71080   6.183   9.031   1.508  0.3597  0.0781  0.9312
  539MOL0     C71081   5.337   9.202   1.889 -0.5915 -0.2381 -1.0794
  539MOL0     C71082   5.204   9.231   1.907 -0.5044 -0.1228 -0.5138
  539MOL0     H71083   4.817   9.491   1.570 -1.2578 -1.1103 -2.1037
  539MOL0     H71084   4.578   9.594   1.571  1.3239  0.3163  0.2885
  539MOL0     H71085   4.353   9.605   1.835 -0.1123  0.3236 -0.9741
  539MOL0     H71086   4.335   9.440   1.875 -0.0466  0.9426  0.3560
  539MOL0     H71087   4.101   9.527   1.873 -2.3273 -3.1947 -0.8636
  539MOL0     H71088   4.124   9.427   1.732  1.1784  1.5222 -2.5269
  539MOL0     H71089   4.134   9.635   1.590 -0.4895 -0.6724 -0.3330
  539MOL0     H71090   4.142   9.734   1.736  0.0011 -0.4923 -0.9122
  539MOL0     H71091   3.899   9.542   1.691 -1.5889  1.2179  0.5138
  539MOL0     H71092   3.903   9.703   1.768 -3.0416 -0.6912  1.4533
  539MOL0     H71093   3.934   9.649   1.473  0.9762  1.0801 -0.8594
  539MOL0     H71094   3.917   9.810   1.545 -2.6660  1.2001  0.0568
  539MOL0     H71095   3.693   9.760   1.632 -2.0145  0.4368 -1.3691
  539MOL0     H71096   3.705   9.599   1.551 -2.3118 -0.1080  0.1093
  539MOL0     H71097   3.705   9.884   1.426  2.7744 -0.5756  0.8029
  539MOL0     H71098   3.725   9.732   1.331  0.5956 -0.8842  0.6707
  539MOL0     H71099   3.506   9.659   1.383 -1.1794  0.3218 -0.4896
  539MOL0     H71100   3.508   9.798   1.286  2.6662 -1.5401 -2.0418
  539MOL0     H71101   3.449  10.050   1.440  3.4539  0.9429  0.8174
  539MOL0     H71102   3.361  10.196   1.642 -0.4553  0.3770 -2.0844
  539MOL0     H71103   3.252  10.105   1.750 -0.3376  0.9640  0.0931
  539MOL0     H71104   3.094  10.063   1.584  0.8145 -0.5155  1.3788
  539MOL0     H71105   3.200  10.154   1.458  0.5675  2.0361  0.3574
  539MOL0     H71106   3.113  10.296   1.717  1.6156 -2.6834  0.5747
  539MOL0     H71107   3.189  10.365   1.579 -0.5634  1.3828  0.9838
  539MOL0     H71108   2.916  10.393   1.600 -2.5663 -1.1573 -2.0043
  539MOL0     H71109   2.918  10.219   1.573  2.0096 -0.9449 -1.0039
  539MOL0     H71110   2.717  10.319   1.503 -1.6184 -2.1293 -0.9747
  539MOL0     H71111   2.522  10.314   1.364  0.7733 -0.5165  1.4723
  539MOL0     H71112   2.174  10.462   1.234 -2.1956 -0.8649  1.2450
  539MOL0     H71113   1.943  10.453   1.149 -0.1213 -0.7805  0.4279
  539MOL0     H71114   1.791  10.448   0.998 -0.6713  0.7397 -2.1622
  539MOL0     H71115   1.724  10.311   1.086 -1.9996 -0.2438 -1.5551
  539MOL0     H71116   1.653  10.253   0.831 -0.5788 -0.0986 -0.3815
  539MOL0     H71117   1.680  10.426   0.818  0.8182  0.1645  0.5580
  539MOL0     H71118   1.526  10.470   1.031 -0.6955 -0.2213  1.7066
  539MOL0     H71119   1.500  10.291   1.015 -0.1492 -1.4019 -1.6209
  539MOL0     H71120   1.437  10.484   0.788  1.8130 -0.7952 -1.5659
  539MOL0     H71121   1.395  10.308   0.808  1.5976  1.9112 -3.2457
  539MOL0     H71122   1.283  10.525   0.980 -0.6963  1.1937 -1.5522
  539MOL0     H71123   1.253  10.345   0.985  4.3922 -2.7486 -2.1154
  539MOL0     H71124   1.183  10.368   0.751  2.0540 -0.7376  1.8590
  539MOL0     H71125   1.211  10.541   0.759  1.2094  1.8904  3.0963
  539MOL0     H71126   0.994  10.387   0.930 -1.9697  1.8645  1.5454
  539MOL0     H71127   1.006  10.557   0.919  1.8583 -0.1606  0.5262
  539MOL0     H71128   0.938  10.386   0.684 -0.3512 -0.5202  0.5740
  539MOL0     H71129   0.968  10.562   0.672 -0.8746  1.4441  0.3111
  539MOL0     H71130   2.073  10.167   0.856 -0.3347 -0.2053 -0.4787
  539MOL0     H71131   2.292  10.167   0.933 -0.4624  0.5817 -2.0308
  539MOL0     H71132   2.762  10.395   1.011  3.1582  3.0081 -0.0140
  539MOL0     H71133   2.961  10.375   1.153 -1.0016  2.9802 -1.2392
  539MOL0     H71134   4.458   9.271   1.818  0.3686  1.6554  2.1752
  539MOL0     H71135   4.723   9.188   1.823  0.8760  2.4012  1.0521
  539MOL0     H71136   5.112   9.227   1.577 -0.8681 -1.1033 -0.4682
  539MOL0     H71137   5.351   9.151   1.552  0.9373 -1.7783  0.6373
  539MOL0     H71138   5.599   9.170   1.578 -1.8440  0.4774  1.8904
  539MOL0     H71139   5.495   9.022   1.606 -0.3833 -2.1794  2.6379
  539MOL0     H71140   5.719   8.999   1.783 -0.6213 -0.0941 -0.1523
  539MOL0     H71141   5.706   8.903   1.640 -0.0044 -0.0820  1.1201
  539MOL0     H71142   5.836   9.168   1.614  1.6377 -0.3488  0.3864
  539MOL0     H71143   5.810   9.047   1.487  1.1040 -0.9238 -1.3430
  539MOL0     H71144   5.977   9.045   1.753  2.4887 -0.7168 -0.1088
  539MOL0     H71145   5.951   8.898   1.666 -0.9875  0.5396 -1.7683
  539MOL0     H71146   6.278   9.037   1.458 -1.0222  0.9409 -1.7635
  539MOL0     H71147   5.397   9.204   1.979 -0.7336 -0.0508 -0.9883
  539MOL0     H71148   5.168   9.226   2.009 -0.1930 -2.3883 -0.4711
  540MOL0     O71149  11.191   9.342   7.159 -0.1729  0.0854  0.5100
  540MOL0     C71150  11.263   9.288   7.074  0.2176  0.4458 -0.5743
  540MOL0     O71151  11.214   9.206   6.978  0.9040  0.3152 -0.3087
  540MOL0     C71152  11.077   9.201   6.937  0.0622 -0.3812  0.6367
  540MOL0     C71153  10.980   9.186   7.042 -1.2256 -0.9296  0.3859
  540MOL0     C71154  10.849   9.161   7.012  0.8168 -0.5792  0.3458
  540MOL0     C71155  10.801   9.173   6.879  0.0445  0.1287  0.1411
  540MOL0     O71156  10.665   9.183   6.852 -0.1828 -0.4733 -0.0799
  540MOL0     C71157  10.553   9.198   6.940  0.1404  0.7845  0.2594
  540MOL0     C71158  10.465   9.066   6.950 -0.4836 -0.7021  0.5620
  540MOL0     C71159  10.383   9.045   6.822  0.4564 -0.1194 -0.2445
  540MOL0     C71160  10.276   8.939   6.846 -0.8657  0.1452 -0.1401
  540MOL0     C71161  10.187   8.913   6.720 -0.6720 -0.7949 -0.1319
  540MOL0     C71162  10.091   9.020   6.680  0.0779  0.1736 -0.0296
  540MOL0     C71163  10.152   9.126   6.578  0.4310 -1.1167 -0.5009
  540MOL0     C71164  10.060   9.252   6.569 -0.5367 -0.3427 -0.2789
  540MOL0     N71165   9.918   9.225   6.554  0.1149  0.4881 -0.1737
  540MOL0     C71166   9.847   9.187   6.437 -0.0513 -0.2703 -0.3366
  540MOL0     C71167   9.720   9.175   6.484 -1.3208  0.4227  0.0359
  540MOL0     C71168   9.603   9.140   6.402  0.0920 -0.0884 -0.1708
  540MOL0     C71169   9.472   9.133   6.472  1.0309 -1.2261  0.1501
  540MOL0     C71170   9.361   9.111   6.366  0.1429 -0.4313 -0.4575
  540MOL0     C71171   9.357   8.959   6.334  0.1844  0.7170  0.0973
  540MOL0     O71172   9.275   8.916   6.221 -0.4193  0.1384 -0.1119
  540MOL0     C71173   9.154   8.962   6.214  0.0161 -0.6303  0.0136
  540MOL0     C71174   9.125   9.072   6.133 -1.0468  0.3335 -0.9247
  540MOL0     C71175   8.990   9.119   6.136 -0.4533  0.3025 -0.3345
  540MOL0     C71176   8.892   9.035   6.193 -0.1687  0.4312 -0.7199
  540MOL0     C71177   8.750   9.068   6.180 -0.8530 -0.0527  0.4318
  540MOL0     O71178   8.674   9.003   6.277  0.0556 -0.1201 -0.7017
  540MOL0     C71179   8.547   9.039   6.314  0.1646  0.0088 -0.0527
  540MOL0     C71180   8.456   9.074   6.219 -0.1861 -0.1004  0.4257
  540MOL0     C71181   8.320   9.094   6.255 -0.2460 -0.4172 -0.4978
  540MOL0     C71182   8.282   9.082   6.385  0.3513  0.1293 -0.1510
  540MOL0     O71183   8.151   9.124   6.416  0.3588  0.2007  0.2566
  540MOL0     C71184   8.076   9.013   6.452  0.4933 -0.5458 -0.4632
  540MOL0     C71185   8.036   8.939   6.323  0.8064 -0.5972  0.5422
  540MOL0     C71186   7.952   8.816   6.362  0.4395  0.1950 -0.5266
  540MOL0     C71187   7.854   8.776   6.242 -0.4941  0.5823 -0.3241
  540MOL0     C71188   7.932   8.719   6.126  0.4598 -0.1884  0.4957
  540MOL0     C71189   7.845   8.710   6.000  0.0036  0.4366 -0.0045
  540MOL0     C71190   7.933   8.652   5.893  0.4759 -1.4596 -0.2682
  540MOL0     C71191   7.864   8.678   5.753 -0.4781  0.2027 -0.3702
  540MOL0    Cl71192   7.841   8.850   5.729 -0.0647  0.2746  0.1730
  540MOL0     C71193   8.377   9.050   6.489 -0.0881 -0.0703  0.0510
  540MOL0     C71194   8.510   9.040   6.449 -0.1813 -0.8137 -0.4167
  540MOL0     O71195   8.715   9.153   6.104 -0.2257 -0.0154  0.2683
  540MOL0     C71196   8.927   8.919   6.273  0.1950  0.0402  0.1818
  540MOL0     C71197   9.062   8.889   6.284  0.3799  0.0528  0.1850
  540MOL0     N71198   9.718   9.198   6.621 -0.9529 -0.1594  0.2168
  540MOL0     N71199   9.835   9.231   6.658 -0.0220  0.4667 -0.9150
  540MOL0     C71200  10.894   9.189   6.773 -0.6069  0.3223 -0.3793
  540MOL0     C71201  11.035   9.192   6.801  0.2896  0.1342 -0.2189
  540MOL0     C71202  11.417   9.284   7.089  0.1160 -0.6383  0.3422
  540MOL0     C71203  11.497   9.351   7.190  0.4805  0.6982  0.0070
  540MOL0     C71204  11.630   9.346   7.207  0.6714  0.4548  0.1984
  540MOL0     C71205  11.713   9.266   7.123  0.1659 -0.3721  0.1578
  540MOL0     O71206  11.850   9.261   7.137  0.2058 -0.2565  0.0811
  540MOL0     C71207  11.914   9.347   7.227  0.5760  0.0525 -0.3817
  540MOL0     C71208  12.065   9.341   7.212  0.3401  0.6564  0.5165
  540MOL0     C71209  12.135   9.422   7.328 -0.0572  0.2857  0.4809
  540MOL0     C71210  12.292   9.409   7.307  0.5178  0.2591 -0.7651
  540MOL0     C71211  12.360   9.454   7.431 -0.1456  0.2505 -0.2935
  540MOL0     C71212  12.397   9.492   7.539 -0.9856 -0.2286 -0.3346
  540MOL0     C71213  11.643   9.194   7.025 -0.0761  0.3941 -0.0725
  540MOL0     C71214  11.502   9.197   7.017 -0.2369 -0.6743  0.8355
  540MOL0     H71215  11.016   9.185   7.144  1.0966 -0.5050 -0.3750
  540MOL0     H71216  10.773   9.168   7.088 -1.1909 -0.9739 -1.5193
  540MOL0     H71217  10.489   9.282   6.912 -0.5555  0.6595  1.4060
  540MOL0     H71218  10.586   9.215   7.043 -1.9895  0.1635  1.1049
  540MOL0     H71219  10.392   9.074   7.031  0.8349  0.6112  1.6954
  540MOL0     H71220  10.539   8.986   6.963  1.8395  0.3251 -4.1597
  540MOL0     H71221  10.453   9.009   6.746  0.6427 -0.0510 -0.1060
  540MOL0     H71222  10.337   9.143   6.809  2.2469  0.7868 -0.1046
  540MOL0     H71223  10.325   8.847   6.879 -1.9523 -0.8583 -1.1935
  540MOL0     H71224  10.214   8.986   6.922 -0.6944  0.4023 -0.1570
  540MOL0     H71225  10.120   8.833   6.753 -1.9142  1.1485  2.4385
  540MOL0     H71226  10.248   8.884   6.634 -0.6251 -1.6632  0.1828
  540MOL0     H71227  10.058   9.072   6.770  0.4485  0.5866 -0.1237
  540MOL0     H71228  10.004   8.976   6.631  0.1114 -1.7950  1.5887
  540MOL0     H71229  10.257   9.142   6.606  0.7260 -3.9671  0.3574
  540MOL0     H71230  10.152   9.080   6.479  1.9530  1.8959 -2.0363
  540MOL0     H71231  10.089   9.316   6.485  2.3081  1.5527  1.9452
  540MOL0     H71232  10.083   9.307   6.661 -2.6787  1.1167 -0.5291
  540MOL0     H71233   9.898   9.159   6.346  0.0370 -2.7254  0.4039
  540MOL0     H71234   9.622   9.042   6.357 -3.0021  0.4058 -2.9066
  540MOL0     H71235   9.610   9.218   6.327 -0.0852 -0.4989 -0.6195
  540MOL0     H71236   9.449   9.229   6.520  1.1279  0.3231 -2.6921
  540MOL0     H71237   9.472   9.056   6.550  0.8618 -0.2800  1.0973
  540MOL0     H71238   9.267   9.139   6.414  0.1338  0.7489 -1.1452
  540MOL0     H71239   9.374   9.173   6.277  0.4254  0.5201  0.2341
  540MOL0     H71240   9.328   8.907   6.426 -1.4638 -2.1303 -1.8478
  540MOL0     H71241   9.455   8.927   6.297 -0.0578 -1.7255  1.3765
  540MOL0     H71242   9.191   9.135   6.074  0.4572  2.5468  2.7631
  540MOL0     H71243   8.965   9.217   6.097 -3.8052  0.6300  2.1741
  540MOL0     H71244   8.475   9.082   6.112 -1.3247  0.7363  0.2699
  540MOL0     H71245   8.252   9.126   6.177 -2.1757  0.1717  1.3281
  540MOL0     H71246   7.987   9.051   6.503 -1.5403 -0.6288 -3.7067
  540MOL0     H71247   8.127   8.946   6.521  0.6167  0.4330  0.4257
  540MOL0     H71248   8.125   8.913   6.266  0.6995 -1.0901  0.6008
  540MOL0     H71249   7.981   9.012   6.262  2.2020  0.5539  0.6126
  540MOL0     H71250   7.884   8.841   6.444  1.4952  2.7087 -0.3158
  540MOL0     H71251   8.012   8.728   6.387 -0.5967 -1.5448 -3.6238
  540MOL0     H71252   7.778   8.702   6.269 -1.2949 -0.1768 -4.0362
  540MOL0     H71253   7.798   8.866   6.214 -3.2405 -1.2550 -1.1445
  540MOL0     H71254   7.984   8.626   6.151 -0.0075 -1.3482 -2.4602
  540MOL0     H71255   8.009   8.793   6.102  0.9452 -0.2065  1.8982
  540MOL0     H71256   7.804   8.810   5.979 -1.2920 -0.1852 -0.5946
  540MOL0     H71257   7.756   8.649   6.017  0.0732  0.2693 -0.2452
  540MOL0     H71258   8.031   8.701   5.894  0.4702 -1.4581  0.1756
  540MOL0     H71259   7.951   8.548   5.920  0.6696 -1.6187 -0.9746
  540MOL0     H71260   7.763   8.636   5.757  0.0874 -1.0921  1.1461
  540MOL0     H71261   7.910   8.630   5.666  0.3158 -5.7800  2.8240
  540MOL0     H71262   8.354   9.061   6.595 -0.2035 -1.3578  0.1693
  540MOL0     H71263   8.583   9.020   6.526  0.0367  0.3448 -0.3113
  540MOL0     H71264   8.856   8.865   6.334  2.5491 -0.1489  2.9743
  540MOL0     H71265   9.094   8.800   6.337 -0.4236 -0.5095 -0.2364
  540MOL0     H71266  10.866   9.180   6.669 -1.5908  0.4063 -0.1352
  540MOL0     H71267  11.098   9.194   6.713  1.7358  1.1339  0.8086
  540MOL0     H71268  11.436   9.405   7.262 -0.7839 -2.0090  1.0926
  540MOL0     H71269  11.666   9.407   7.290  3.5377  1.4993 -1.6314
  540MOL0     H71270  11.890   9.323   7.332  0.0668  3.8891  0.5221
  540MOL0     H71271  11.882   9.451   7.220 -1.1177 -0.3112  1.0367
  540MOL0     H71272  12.098   9.237   7.218 -1.1444  0.2319  2.8766
  540MOL0     H71273  12.094   9.385   7.117  5.4830 -2.7844  0.0657
  540MOL0     H71274  12.114   9.388   7.430 -0.0611 -0.5523  0.2019
  540MOL0     H71275  12.112   9.527   7.308  1.5556  0.1334 -2.6456
  540MOL0     H71276  12.318   9.303   7.300  2.8076  0.8269 -2.3630
  540MOL0     H71277  12.319   9.460   7.214  1.2960 -0.4871 -0.9580
  540MOL0     H71278  12.433   9.509   7.639  1.5455 -3.4907 -0.5209
  540MOL0     H71279  11.698   9.120   6.969 -0.6360 -1.5192  1.7498
  540MOL0     H71280  11.456   9.136   6.939  0.7727 -0.7377  0.2738
  541MOL0     O71281   5.100   7.004   5.240  0.0530 -0.3122  0.0002
  541MOL0     C71282   4.997   6.964   5.185 -0.9671 -0.5851  0.7543
  541MOL0     O71283   4.977   6.976   5.048 -0.2337 -0.8532 -0.0974
  541MOL0     C71284   5.090   7.013   4.977 -0.5873 -0.0424 -0.2799
  541MOL0     C71285   5.170   6.917   4.910  0.5364  0.5100  0.9173
  541MOL0     C71286   5.283   6.957   4.835 -0.4739 -0.3788  0.3121
  541MOL0     C71287   5.327   7.088   4.818  0.0695  0.0629 -0.2979
  541MOL0     O71288   5.447   7.122   4.754 -0.4655  0.5990 -0.0792
  541MOL0     C71289   5.492   7.034   4.651  0.3437  0.1491 -0.1161
  541MOL0     C71290   5.639   7.062   4.616  0.6009 -0.3177  0.2983
  541MOL0     C71291   5.734   6.994   4.715  0.2228 -0.0009 -0.0722
  541MOL0     C71292   5.748   6.838   4.703  0.3528  0.2894 -0.2385
  541MOL0     C71293   5.857   6.801   4.815 -0.9651  0.8468  0.3126
  541MOL0     C71294   5.797   6.787   4.958  0.8368  0.4283  0.2896
  541MOL0     C71295   5.912   6.768   5.066  0.6761 -0.6863  0.4925
  541MOL0     C71296   5.926   6.620   5.101  0.4277  1.0253  0.2199
  541MOL0     N71297   5.820   6.563   5.182 -0.0125 -0.1851 -0.5157
  541MOL0     C71298   5.839   6.548   5.319 -0.9639 -0.0673 -0.5801
  541MOL0     C71299   5.750   6.446   5.360  0.0531 -0.2362  0.1146
  541MOL0     C71300   5.737   6.405   5.502  0.5154  0.2897  0.6428
  541MOL0     C71301   5.597   6.348   5.548 -0.4675 -1.0107 -0.3334
  541MOL0     C71302   5.487   6.454   5.529 -0.2579 -0.4403  0.5288
  541MOL0     C71303   5.490   6.563   5.630 -0.6510 -0.7273  0.5722
  541MOL0     O71304   5.460   6.511   5.756  0.2796 -0.1590 -0.4352
  541MOL0     C71305   5.328   6.480   5.793 -0.1688  0.3666 -0.0001
  541MOL0     C71306   5.319   6.393   5.911 -0.8079 -0.2582  0.4868
  541MOL0     C71307   5.193   6.351   5.950 -0.0760 -0.8744 -0.2702
  541MOL0     C71308   5.076   6.385   5.877 -0.3545  0.2006  0.0289
  541MOL0     C71309   4.944   6.351   5.926  0.6314 -0.5596 -0.8784
  541MOL0     O71310   4.936   6.283   6.048 -0.7751  0.2602  0.4867
  541MOL0     C71311   4.819   6.232   6.093 -0.6956  1.0101  0.0557
  541MOL0     C71312   4.789   6.239   6.225 -0.2503  0.1236 -0.1500
  541MOL0     C71313   4.671   6.186   6.273 -0.3351  0.2460 -0.5036
  541MOL0     C71314   4.578   6.133   6.189 -0.0117  0.4651  0.0681
  541MOL0     O71315   4.470   6.086   6.253  0.1283  0.6010  0.3872
  541MOL0     C71316   4.412   5.963   6.203  0.0359  0.5165 -0.0651
  541MOL0     C71317   4.278   5.934   6.269  0.7947  0.4731  1.5748
  541MOL0     C71318   4.277   5.942   6.419 -0.0776  0.0165  1.1421
  541MOL0     C71319   4.156   5.916   6.507 -0.4775 -0.1700 -0.1797
  541MOL0     C71320   4.072   6.042   6.524 -0.1983 -0.1251 -0.3164
  541MOL0     C71321   3.947   6.010   6.612 -0.2798  0.3769  0.0139
  541MOL0     C71322   3.829   6.120   6.602  0.0724  0.1625 -0.5326
  541MOL0     C71323   3.810   6.185   6.744  0.1583  0.3750  0.2160
  541MOL0    Cl71324   3.644   6.264   6.753  0.0537 -0.3234  0.3784
  541MOL0     C71325   4.597   6.130   6.056 -0.6386 -0.4780 -0.4642
  541MOL0     C71326   4.717   6.175   6.012 -0.2580  0.0802 -0.0927
  541MOL0     O71327   4.857   6.366   5.846 -0.2451 -0.0686 -0.6656
  541MOL0     C71328   5.090   6.467   5.758  0.7591 -0.1846 -0.2262
  541MOL0     C71329   5.214   6.518   5.723 -1.4171  0.2854 -0.2567
  541MOL0     N71330   5.683   6.403   5.243 -0.5044 -0.1889  0.1195
  541MOL0     N71331   5.734   6.474   5.140 -0.6584  0.5316 -0.2947
  541MOL0     C71332   5.248   7.190   4.883 -0.2398  1.6159  0.8015
  541MOL0     C71333   5.135   7.152   4.962 -0.1611  0.7209  0.5314
  541MOL0     C71334   4.903   6.889   5.278 -0.4221 -1.1153  0.8119
  541MOL0     C71335   4.928   6.878   5.413  0.2791  0.6487 -0.2538
  541MOL0     C71336   4.842   6.811   5.504  0.2338  0.0888  0.2592
  541MOL0     C71337   4.721   6.750   5.454 -0.5513  0.1643 -0.4287
  541MOL0     O71338   4.631   6.666   5.520 -0.1681 -0.0838 -0.0276
  541MOL0     C71339   4.657   6.637   5.658  0.0090  0.6081 -0.0972
  541MOL0     C71340   4.549   6.545   5.724 -0.3123  0.4618  1.3171
  541MOL0     C71341   4.558   6.410   5.648  0.1547  0.4577  0.5091
  541MOL0     C71342   4.473   6.298   5.707 -0.0130  0.5199  0.3029
  541MOL0     C71343   4.328   6.325   5.690 -0.4111  0.0937 -0.0888
  541MOL0     C71344   4.212   6.360   5.661 -0.1830 -0.5903  0.2746
  541MOL0     C71345   4.695   6.770   5.318  0.0267  0.2821 -0.9423
  541MOL0     C71346   4.785   6.831   5.231 -0.0940 -0.6098 -1.1291
  541MOL0     H71347   5.140   6.813   4.912 -1.7701  1.1420  3.0158
  541MOL0     H71348   5.346   6.879   4.793 -1.9954 -1.0261 -0.8968
  541MOL0     H71349   5.430   7.058   4.563  0.1163  0.1047  0.0305
  541MOL0     H71350   5.484   6.925   4.653  0.9383 -0.0564 -3.3674
  541MOL0     H71351   5.663   7.168   4.622  3.4004 -0.8988  0.6414
  541MOL0     H71352   5.652   7.041   4.510 -2.2281  1.0836 -0.4361
  541MOL0     H71353   5.715   7.019   4.820  2.6331 -1.3526  0.7618
  541MOL0     H71354   5.833   7.032   4.691  0.3079  0.4983  1.0312
  541MOL0     H71355   5.651   6.790   4.718  0.3774 -0.5980 -2.4570
  541MOL0     H71356   5.783   6.812   4.602  0.4368  3.1070 -1.0265
  541MOL0     H71357   5.934   6.878   4.820  0.0341  0.1070 -2.2671
  541MOL0     H71358   5.903   6.704   4.796 -0.0305  0.5852  3.3228
  541MOL0     H71359   5.709   6.722   4.959 -0.3675  1.9942  0.4909
  541MOL0     H71360   5.754   6.884   4.985 -0.5461 -0.7519  2.7182
  541MOL0     H71361   6.003   6.815   5.027 -0.2753  0.6654 -0.1933
  541MOL0     H71362   5.882   6.820   5.158  1.7530  0.5822  0.1682
  541MOL0     H71363   6.023   6.606   5.149  0.1982  0.3695  0.4949
  541MOL0     H71364   5.935   6.569   5.005 -2.2837 -1.9534  1.3786
  541MOL0     H71365   5.918   6.588   5.380 -0.3622  0.0533 -1.4195
  541MOL0     H71366   5.760   6.490   5.567 -0.0567 -1.5253  3.3563
  541MOL0     H71367   5.813   6.328   5.515  3.3108  3.0163  1.6447
  541MOL0     H71368   5.604   6.308   5.650 -0.5853  0.2938  0.2028
  541MOL0     H71369   5.576   6.265   5.480  1.5886 -1.5307 -0.3982
  541MOL0     H71370   5.484   6.488   5.425  0.4576 -0.0644  0.6271
  541MOL0     H71371   5.394   6.397   5.543 -2.6050  1.9521 -3.4596
  541MOL0     H71372   5.428   6.647   5.597  0.8433  0.6924  1.2631
  541MOL0     H71373   5.591   6.605   5.630 -1.5070  1.4578  1.4011
  541MOL0     H71374   5.396   6.379   5.987 -1.3331  0.5837  1.1946
  541MOL0     H71375   5.193   6.289   6.040 -0.9870 -0.6528 -0.1101
  541MOL0     H71376   4.844   6.289   6.305 -3.0805  1.6166  1.0031
  541MOL0     H71377   4.640   6.182   6.377  0.3202 -1.0312 -0.3440
  541MOL0     H71378   4.477   5.877   6.219  0.3496  0.6044 -0.8109
  541MOL0     H71379   4.397   5.962   6.095  2.3716 -0.0610 -0.4492
  541MOL0     H71380   4.248   5.833   6.239 -1.4170  1.3378  0.6262
  541MOL0     H71381   4.201   5.996   6.221  1.6118 -1.3112 -2.5569
  541MOL0     H71382   4.322   6.038   6.447  1.8124 -0.4986  0.0306
  541MOL0     H71383   4.353   5.871   6.452  1.7814  1.3809 -0.0173
  541MOL0     H71384   4.099   5.831   6.471 -1.7201  0.0294  1.2277
  541MOL0     H71385   4.201   5.895   6.604 -1.9966  0.5530  0.7112
  541MOL0     H71386   4.042   6.077   6.425  0.5383 -0.5795 -0.7118
  541MOL0     H71387   4.135   6.118   6.572  1.3696 -0.7770 -1.2646
  541MOL0     H71388   3.988   5.988   6.711  1.4084  0.4838 -0.6322
  541MOL0     H71389   3.903   5.925   6.558 -0.5425  2.4545 -3.3476
  541MOL0     H71390   3.855   6.199   6.531 -2.1439  0.8069 -0.7300
  541MOL0     H71391   3.737   6.073   6.565  0.4069  0.0179 -1.1829
  541MOL0     H71392   3.892   6.256   6.760 -0.9430  1.4640  1.2520
  541MOL0     H71393   3.807   6.107   6.820 -1.2557  0.1853  0.0047
  541MOL0     H71394   4.531   6.103   5.974 -0.9412 -0.9725 -0.0630
  541MOL0     H71395   4.730   6.152   5.906  2.2916  3.7707 -0.7901
  541MOL0     H71396   5.004   6.496   5.698  2.9341  2.6421 -2.2601
  541MOL0     H71397   5.221   6.590   5.642 -1.0278  1.5640  0.8845
  541MOL0     H71398   5.266   7.294   4.857 -0.0214  1.5655  0.7485
  541MOL0     H71399   5.084   7.231   5.016  1.8915  2.3949  0.1736
  541MOL0     H71400   5.015   6.912   5.468  0.1197 -1.3509  1.3860
  541MOL0     H71401   4.869   6.812   5.609  1.6273  1.6319 -0.0695
  541MOL0     H71402   4.683   6.729   5.711 -0.8594  0.2973  0.9140
  541MOL0     H71403   4.751   6.581   5.656  0.9755  2.1002 -3.1326
  541MOL0     H71404   4.567   6.531   5.831 -1.6938  2.4171  1.8787
  541MOL0     H71405   4.453   6.597   5.712  0.4644  1.5486 -0.7228
  541MOL0     H71406   4.663   6.380   5.644 -0.5752 -3.3150  3.6063
  541MOL0     H71407   4.530   6.431   5.544  0.8309  0.4753  0.3308
  541MOL0     H71408   4.487   6.200   5.660 -1.1717  0.9260 -0.9816
  541MOL0     H71409   4.502   6.290   5.812 -1.9491 -1.1284  0.7757
  541MOL0     H71410   4.110   6.389   5.644 -0.5295 -1.1994  1.1872
  541MOL0     H71411   4.599   6.748   5.271 -0.3944 -0.1114  0.0760
  541MOL0     H71412   4.759   6.849   5.127 -0.0653  0.9934 -0.8783
  542MOL0     O71413   3.016   6.917   7.345 -0.3743 -0.3754  0.5133
  542MOL0     C71414   2.983   6.814   7.411 -0.6032 -0.1727  0.5166
  542MOL0     O71415   2.873   6.730   7.392 -0.2321  0.1502 -0.6076
  542MOL0     C71416   2.777   6.767   7.298 -0.4397 -0.1678  0.0389
  542MOL0     C71417   2.795   6.747   7.161 -0.5095 -0.4752  0.2816
  542MOL0     C71418   2.691   6.777   7.067 -0.3274 -0.0238 -0.6710
  542MOL0     C71419   2.574   6.832   7.112  0.0472  0.8161  0.7275
  542MOL0     O71420   2.485   6.873   7.011  0.7933 -0.2582 -0.1148
  542MOL0     C71421   2.347   6.876   7.036  0.7007  0.0251 -0.3045
  542MOL0     C71422   2.266   6.869   6.903 -0.1541 -0.3753 -0.8710
  542MOL0     C71423   2.154   6.972   6.896 -0.2062 -0.3012  0.2067
  542MOL0     C71424   2.062   6.929   6.777 -0.1193  0.0162  0.0510
  542MOL0     C71425   1.976   7.052   6.742  0.0011  0.9196  1.2172
  542MOL0     C71426   1.877   7.000   6.633 -0.0990 -0.6709  0.5984
  542MOL0     C71427   1.773   7.106   6.597 -0.9206  0.7093  1.3023
  542MOL0     C71428   1.665   7.101   6.711 -0.3914 -0.2913  0.1968
  542MOL0     N71429   1.552   7.189   6.682  0.1411 -0.1129 -0.0280
  542MOL0     C71430   1.553   7.324   6.694  0.2402  0.0167 -0.5889
  542MOL0     C71431   1.422   7.365   6.727  1.0024 -0.1186  0.0656
  542MOL0     C71432   1.393   7.512   6.736  0.3312 -0.6514 -0.1773
  542MOL0     C71433   1.254   7.551   6.793  0.3963 -0.0838  0.2205
  542MOL0     C71434   1.250   7.697   6.817  0.9150  0.7964 -0.2605
  542MOL0     C71435   1.110   7.745   6.841 -0.1431  0.7121  0.5673
  542MOL0     O71436   1.122   7.882   6.852  0.2944 -0.0674 -0.3753
  542MOL0     C71437   1.004   7.953   6.854 -0.0397 -0.1043  0.4818
  542MOL0     C71438   1.016   8.082   6.796 -0.5772  0.0753 -0.8100
  542MOL0     C71439   0.905   8.174   6.786  0.3500 -0.0685 -0.7520
  542MOL0     C71440   0.779   8.135   6.841 -0.5916  0.8704 -0.6571
  542MOL0     C71441   0.662   8.217   6.826 -0.4462 -0.5490  0.4338
  542MOL0     O71442   0.539   8.169   6.869  0.2149  0.4563  0.6699
  542MOL0     C71443   0.425   8.239   6.848 -0.4621  0.0971  0.5525
  542MOL0     C71444   0.316   8.161   6.877 -0.4515 -0.0161 -0.3624
  542MOL0     C71445   0.187   8.208   6.872 -0.0003 -0.8045  0.5985
  542MOL0     C71446   0.164   8.340   6.843 -0.0593  0.1418  0.1957
  542MOL0     O71447   0.046   8.399   6.840  0.4059  0.2433  0.0219
  542MOL0     C71448  -0.019   8.419   6.712  0.2653  1.5414  0.2441
  542MOL0     C71449  -0.156   8.357   6.713  0.1918  0.7274 -0.0593
  542MOL0     C71450  -0.172   8.218   6.777 -0.4507 -0.4180  0.3291
  542MOL0     C71451  -0.122   8.116   6.680 -0.9041 -0.7595 -0.5770
  542MOL0     C71452  -0.130   7.978   6.725  0.5233 -0.3117 -0.4545
  542MOL0     C71453  -0.148   7.874   6.619  0.6957 -0.8721 -0.6679
  542MOL0     C71454  -0.268   7.793   6.650  0.4071  0.0149  0.1827
  542MOL0     C71455  -0.291   7.681   6.542 -0.2619  0.0443 -0.4037
  542MOL0    Cl71456  -0.459   7.635   6.564  0.5444 -0.2598  0.0603
  542MOL0     C71457   0.269   8.423   6.819 -0.9384 -0.2798 -0.1490
  542MOL0     C71458   0.396   8.377   6.825 -0.6903  0.4389 -0.2026
  542MOL0     O71459   0.678   8.316   6.751  0.3109 -0.1755 -0.8272
  542MOL0     C71460   0.765   8.000   6.884 -0.6967 -0.3202  0.0246
  542MOL0     C71461   0.877   7.908   6.890  0.4908 -0.0602 -0.9012
  542MOL0     N71462   1.341   7.257   6.724 -0.4892  0.1883 -0.3209
  542MOL0     N71463   1.419   7.151   6.689 -0.2412 -0.0760  0.7690
  542MOL0     C71464   2.556   6.854   7.248  0.9613 -0.4451  0.0715
  542MOL0     C71465   2.653   6.824   7.344  0.6350  0.0866 -0.3036
  542MOL0     C71466   3.082   6.775   7.517 -1.2046 -0.6100  0.1340
  542MOL0     C71467   3.067   6.648   7.579  0.8010 -0.4437  0.0570
  542MOL0     C71468   3.161   6.614   7.680  0.4571 -0.5526  0.6105
  542MOL0     C71469   3.265   6.707   7.715  0.9813  1.4126 -0.4876
  542MOL0     O71470   3.349   6.670   7.814  0.3121  0.4305  0.9028
  542MOL0     C71471   3.479   6.741   7.817  0.1888  0.0965  0.4409
  542MOL0     C71472   3.584   6.679   7.912 -0.6521  0.4511  1.1067
  542MOL0     C71473   3.724   6.739   7.884 -0.1546 -0.1338 -0.6031
  542MOL0     C71474   3.832   6.700   7.984  0.1441  0.6333 -0.2496
  542MOL0     C71475   3.801   6.764   8.115  0.5076 -0.3786  0.3928
  542MOL0     C71476   3.757   6.816   8.215 -0.2893  0.2594 -0.1651
  542MOL0     C71477   3.271   6.824   7.656  0.1551 -0.2516  0.3049
  542MOL0     C71478   3.188   6.861   7.553 -1.1032  0.2462 -0.5503
  542MOL0     H71479   2.881   6.708   7.107 -0.3033 -0.1351  0.3577
  542MOL0     H71480   2.703   6.784   6.959 -1.7149  5.0069 -0.7578
  542MOL0     H71481   2.309   6.970   7.078 -1.9421 -0.6707 -0.9251
  542MOL0     H71482   2.307   6.797   7.100  2.3038 -0.7289 -0.2107
  542MOL0     H71483   2.218   6.771   6.897 -3.6925  1.2232 -1.0662
  542MOL0     H71484   2.334   6.863   6.817 -0.4641 -2.3269 -1.0275
  542MOL0     H71485   2.196   7.072   6.884 -0.8914  0.0741  0.8848
  542MOL0     H71486   2.093   6.972   6.987 -0.0233  0.2073  0.3322
  542MOL0     H71487   2.128   6.894   6.697 -0.7426 -0.6479 -0.1923
  542MOL0     H71488   1.995   6.846   6.804 -0.9642  1.0285  1.1477
  542MOL0     H71489   2.049   7.124   6.705  1.6518 -0.8406  0.9034
  542MOL0     H71490   1.919   7.100   6.823 -0.7205  2.2720 -0.0419
  542MOL0     H71491   1.831   6.914   6.683  0.3474 -0.5598  1.1968
  542MOL0     H71492   1.931   6.962   6.545 -2.7557 -1.9878 -0.5926
  542MOL0     H71493   1.806   7.207   6.568  0.4518 -0.5776 -2.1417
  542MOL0     H71494   1.721   7.074   6.506 -2.3467  2.3632  1.4534
  542MOL0     H71495   1.712   7.135   6.804 -2.1276  0.6601  0.7733
  542MOL0     H71496   1.631   6.997   6.711 -0.4910 -0.2587 -0.0892
  542MOL0     H71497   1.636   7.391   6.715 -0.6119  0.7339  0.6565
  542MOL0     H71498   1.404   7.557   6.637 -2.1460 -0.9434 -0.6638
  542MOL0     H71499   1.477   7.554   6.793  0.6556 -0.5675 -0.7087
  542MOL0     H71500   1.248   7.507   6.893  0.5637  2.1418  1.2705
  542MOL0     H71501   1.176   7.518   6.725  0.3758 -2.3656  1.2325
  542MOL0     H71502   1.317   7.720   6.900  1.2061  2.4738 -0.9255
  542MOL0     H71503   1.274   7.747   6.723 -1.2641 -2.3732 -2.7483
  542MOL0     H71504   1.077   7.704   6.937  0.7708  0.7164  0.8947
  542MOL0     H71505   1.039   7.719   6.762 -0.6878  4.2240 -0.2557
  542MOL0     H71506   1.115   8.124   6.777 -1.4503  3.1963  0.8271
  542MOL0     H71507   0.918   8.271   6.739 -2.3368  1.3954  1.2739
  542MOL0     H71508   0.330   8.058   6.908  1.3899 -0.4253 -2.3043
  542MOL0     H71509   0.109   8.137   6.898  1.1970 -1.7411  1.7806
  542MOL0     H71510   0.034   8.391   6.621 -1.6494 -1.7865  0.0002
  542MOL0     H71511  -0.032   8.528   6.719  2.1121  1.7059  3.8756
  542MOL0     H71512  -0.192   8.355   6.610  1.9827 -1.6561 -0.7088
  542MOL0     H71513  -0.227   8.416   6.772  0.9141  0.0797  1.5051
  542MOL0     H71514  -0.278   8.200   6.797  0.1324 -3.2343  1.3378
  542MOL0     H71515  -0.113   8.216   6.869 -2.4941 -0.5310  1.7069
  542MOL0     H71516  -0.178   8.113   6.586 -0.2887 -0.4178 -0.9662
  542MOL0     H71517  -0.014   8.124   6.661 -1.0038 -0.8722 -1.1974
  542MOL0     H71518  -0.220   7.976   6.787  1.0364  1.5498  0.4382
  542MOL0     H71519  -0.047   7.935   6.782  2.2110 -0.0953 -2.5730
  542MOL0     H71520  -0.060   7.809   6.621 -0.9942 -3.3250 -1.3032
  542MOL0     H71521  -0.166   7.922   6.523 -2.6673  0.7532  0.5997
  542MOL0     H71522  -0.263   7.762   6.755  1.0810  1.4280  0.5881
  542MOL0     H71523  -0.355   7.857   6.638  1.6261  1.5044 -1.1597
  542MOL0     H71524  -0.222   7.597   6.544 -0.1333  0.0936 -1.7059
  542MOL0     H71525  -0.284   7.723   6.441  1.7725  1.2743  0.1903
  542MOL0     H71526   0.254   8.529   6.800  0.0941 -0.2917 -1.1202
  542MOL0     H71527   0.482   8.442   6.813  0.5241 -0.7704  1.5161
  542MOL0     H71528   0.667   7.961   6.911  0.2034 -3.0773 -0.3921
  542MOL0     H71529   0.865   7.802   6.909 -0.1788  0.0063 -0.9062
  542MOL0     H71530   2.459   6.896   7.274  0.9335 -1.4134  1.6026
  542MOL0     H71531   2.637   6.844   7.449 -4.6597  2.8751 -1.3413
  542MOL0     H71532   2.991   6.575   7.553 -2.4083  2.9153 -0.7859
  542MOL0     H71533   3.149   6.524   7.740  1.3702 -1.2046 -0.1662
  542MOL0     H71534   3.458   6.844   7.849  1.2708  1.1875 -2.0755
  542MOL0     H71535   3.530   6.743   7.720 -0.3675  2.6737  0.1337
  542MOL0     H71536   3.539   6.694   8.011 -2.7329  4.8118 -0.2656
  542MOL0     H71537   3.589   6.572   7.891 -2.7956  0.6341 -0.6841
  542MOL0     H71538   3.725   6.848   7.875  0.6127  0.0177  0.9342
  542MOL0     H71539   3.755   6.693   7.789  1.9376  0.6846 -0.3801
  542MOL0     H71540   3.849   6.592   7.988  0.6604  0.7018 -0.5895
  542MOL0     H71541   3.928   6.736   7.947 -0.3059  1.4403 -0.6650
  542MOL0     H71542   3.725   6.869   8.302  1.0366 -1.3187  1.3629
  542MOL0     H71543   3.345   6.900   7.679 -0.8492  1.3830 -1.4797
  542MOL0     H71544   3.209   6.962   7.521 -2.9605  1.4004  1.5539
  543MOL0     O71545   8.440   9.423   4.439 -0.1129 -0.6332 -0.1216
  543MOL0     C71546   8.528   9.446   4.522  0.7853  0.0942  0.4181
  543MOL0     O71547   8.505   9.431   4.655  0.3097 -0.3452  0.1251
  543MOL0     C71548   8.390   9.377   4.707 -0.2987  0.3337  0.0149
  543MOL0     C71549   8.407   9.261   4.789 -0.1224  0.2885 -0.1621
  543MOL0     C71550   8.292   9.191   4.830  0.0691  0.7912  0.6053
  543MOL0     C71551   8.165   9.240   4.796 -0.3067 -0.2711 -1.0621
  543MOL0     O71552   8.061   9.172   4.838  0.1447 -0.1451  0.3644
  543MOL0     C71553   8.071   9.036   4.785 -1.1275  0.3340 -0.4857
  543MOL0     C71554   7.946   8.960   4.839 -0.6061 -0.8531  0.5305
  543MOL0     C71555   7.819   9.008   4.778 -0.1710 -0.2703  0.0143
  543MOL0     C71556   7.705   8.930   4.830 -0.1106  0.1299 -0.1862
  543MOL0     C71557   7.575   8.937   4.766 -0.4691 -0.1686  0.3250
  543MOL0     C71558   7.502   9.071   4.769  0.5287 -0.1160  0.1160
  543MOL0     C71559   7.482   9.136   4.911 -0.2289 -0.7428 -0.6290
  543MOL0     C71560   7.398   9.064   5.013  1.1265  0.6007 -0.3280
  543MOL0     N71561   7.264   9.106   4.995 -0.8288  0.1464  1.0504
  543MOL0     C71562   7.210   9.233   5.010  0.0270 -0.2270 -0.2071
  543MOL0     C71563   7.078   9.212   4.982 -0.0980  0.1411 -0.1682
  543MOL0     C71564   6.961   9.307   5.007  0.5333  0.0892  0.3648
  543MOL0     C71565   7.002   9.439   5.078 -0.3268  0.5928  0.5149
  543MOL0     C71566   6.895   9.545   5.048  0.5211  0.6993 -0.4366
  543MOL0     C71567   6.748   9.513   5.100 -0.8006  0.1057  0.3386
  543MOL0     O71568   6.669   9.626   5.071 -0.2157 -0.1305  0.4088
  543MOL0     C71569   6.539   9.600   5.049 -0.7491  0.5902  0.3529
  543MOL0     C71570   6.474   9.709   4.981 -0.8329 -0.5561 -0.0550
  543MOL0     C71571   6.337   9.694   4.939 -0.3696  0.3204  0.1151
  543MOL0     C71572   6.268   9.574   4.977  0.4132  1.1458  0.1530
  543MOL0     C71573   6.130   9.562   4.930  0.1630 -0.3473  0.1439
  543MOL0     O71574   6.051   9.477   4.993 -1.1114  0.3460  0.2715
  543MOL0     C71575   5.910   9.472   4.981 -0.2154 -1.0446 -0.5420
  543MOL0     C71576   5.842   9.350   5.022  0.1998  0.1437 -0.1551
  543MOL0     C71577   5.704   9.354   5.021 -0.2611 -0.0891 -0.5271
  543MOL0     C71578   5.639   9.469   4.997 -0.1971  0.2026 -0.5309
  543MOL0     O71579   5.507   9.466   5.014  0.1931 -0.5195 -0.2117
  543MOL0     C71580   5.429   9.421   4.904 -0.7226  0.0829 -0.1036
  543MOL0     C71581   5.302   9.366   4.960 -1.3628  1.0648 -0.1851
  543MOL0     C71582   5.215   9.300   4.852  0.4192 -0.1489  0.3806
  543MOL0     C71583   5.118   9.200   4.913  0.3928  0.2403 -0.8021
  543MOL0     C71584   5.020   9.140   4.811 -0.5829  0.2264  0.5827
  543MOL0     C71585   4.911   9.245   4.777  0.1995  0.1174  0.5715
  543MOL0     C71586   4.835   9.308   4.897  0.0997  0.5070 -0.3581
  543MOL0     C71587   4.703   9.383   4.845  0.1713  0.3419 -0.3136
  543MOL0    Cl71588   4.750   9.532   4.740  0.3130  0.4027 -0.5442
  543MOL0     C71589   5.702   9.586   4.961 -0.2223  0.0877 -0.5176
  543MOL0     C71590   5.839   9.582   4.949 -0.3124 -0.0301 -0.1627
  543MOL0     O71591   6.087   9.623   4.832  0.0400  0.0925  1.0906
  543MOL0     C71592   6.323   9.469   5.054  0.5737 -0.1678 -0.4012
  543MOL0     C71593   6.457   9.495   5.100  0.2391 -0.5429  0.0053
  543MOL0     N71594   7.057   9.083   4.937  0.3125  1.0441  0.0335
  543MOL0     N71595   7.169   9.021   4.945 -0.0244 -0.0965 -0.2276
  543MOL0     C71596   8.157   9.356   4.723 -0.2894 -0.6438  0.3523
  543MOL0     C71597   8.263   9.421   4.680  0.2689 -0.2420  0.0748
  543MOL0     C71598   8.658   9.492   4.484 -0.4340  0.0362 -0.4108
  543MOL0     C71599   8.670   9.571   4.369  0.6056  0.3999 -0.1401
  543MOL0     C71600   8.790   9.591   4.304  1.0976 -0.1939 -0.3898
  543MOL0     C71601   8.907   9.542   4.365 -0.1369  0.6751  0.3635
  543MOL0     O71602   9.032   9.577   4.324 -0.3072  0.2572 -0.3665
  543MOL0     C71603   9.057   9.602   4.187  0.5126  0.3788 -0.4221
  543MOL0     C71604   9.028   9.481   4.101 -0.4607  0.1732  0.0589
  543MOL0     C71605   9.099   9.515   3.968  0.6211 -0.4385 -0.2354
  543MOL0     C71606   9.026   9.455   3.847 -0.5366  0.8152 -0.1120
  543MOL0     C71607   8.896   9.511   3.821  0.4221 -0.7968  0.3075
  543MOL0     C71608   8.796   9.576   3.810 -0.7090 -0.2475  1.3097
  543MOL0     C71609   8.901   9.471   4.488 -1.2197  0.3244  0.9683
  543MOL0     C71610   8.773   9.445   4.540 -0.0298 -0.2304  0.0373
  543MOL0     H71611   8.507   9.220   4.803 -0.3380 -0.3067 -0.3401
  543MOL0     H71612   8.313   9.097   4.881 -0.0574  0.0896 -0.5794
  543MOL0     H71613   8.162   8.980   4.809  0.1409  1.7804 -1.6990
  543MOL0     H71614   8.067   9.045   4.676  0.4399  0.5176 -0.5563
  543MOL0     H71615   7.929   8.959   4.947  1.8051 -2.2027  0.9740
  543MOL0     H71616   7.954   8.860   4.795 -2.5997  0.5961 -3.6168
  543MOL0     H71617   7.828   8.994   4.670 -0.2013 -0.9660  0.1021
  543MOL0     H71618   7.812   9.117   4.792  0.9679 -0.4801  2.8226
  543MOL0     H71619   7.740   8.826   4.839 -0.6409  0.1200  3.1443
  543MOL0     H71620   7.691   8.955   4.936 -2.6197 -1.4483 -0.0590
  543MOL0     H71621   7.508   8.862   4.808 -3.8517  1.0565 -2.4107
  543MOL0     H71622   7.590   8.899   4.665 -0.6974 -1.1734  0.6630
  543MOL0     H71623   7.402   9.053   4.729  1.2173 -0.9841 -1.2820
  543MOL0     H71624   7.553   9.142   4.704  2.9492 -1.7290  0.1299
  543MOL0     H71625   7.586   9.141   4.947  0.2017 -0.1946 -1.9202
  543MOL0     H71626   7.446   9.239   4.908  0.1266 -0.6491 -2.1931
  543MOL0     H71627   7.430   9.108   5.108  1.0939  3.0054 -1.3613
  543MOL0     H71628   7.416   8.957   5.026 -1.7272 -0.0382 -0.9790
  543MOL0     H71629   7.251   9.329   5.040 -5.2439  1.7312  1.7647
  543MOL0     H71630   6.884   9.249   5.058 -1.3655  0.3238 -2.0623
  543MOL0     H71631   6.906   9.331   4.916 -0.2609 -0.3324  0.7320
  543MOL0     H71632   7.093   9.487   5.039 -1.0520 -0.0873 -2.1905
  543MOL0     H71633   7.012   9.431   5.187 -2.5783 -0.5576  0.6754
  543MOL0     H71634   6.938   9.632   5.098  0.5814 -0.2251  1.2133
  543MOL0     H71635   6.877   9.558   4.941 -2.8799  3.2614  0.2605
  543MOL0     H71636   6.757   9.500   5.208  1.6258  0.1594  0.1926
  543MOL0     H71637   6.707   9.420   5.060 -0.2468  0.3537 -0.8430
  543MOL0     H71638   6.525   9.801   4.952  0.2410 -1.3454 -0.7339
  543MOL0     H71639   6.285   9.760   4.870 -2.0578  0.0374  1.0665
  543MOL0     H71640   5.889   9.263   5.066 -0.1379  0.4422  0.8208
  543MOL0     H71641   5.651   9.267   5.058 -1.2994  1.4163  1.7411
  543MOL0     H71642   5.477   9.333   4.860  0.6058 -1.0559  3.2850
  543MOL0     H71643   5.415   9.500   4.829 -1.4966  0.8517  0.8191
  543MOL0     H71644   5.241   9.437   5.017 -2.2120 -1.2408  1.9431
  543MOL0     H71645   5.328   9.289   5.033 -0.0843  0.8286 -0.8751
  543MOL0     H71646   5.283   9.234   4.797  0.3304  0.9538 -1.1173
  543MOL0     H71647   5.155   9.370   4.794  2.1934  1.7009  0.6507
  543MOL0     H71648   5.176   9.113   4.946 -0.2962 -1.2431 -3.2615
  543MOL0     H71649   5.074   9.253   4.998  2.3623  1.0182 -0.2053
  543MOL0     H71650   4.976   9.053   4.860 -1.0487 -0.5581 -1.1289
  543MOL0     H71651   5.064   9.100   4.718 -0.6472 -0.4701  0.8449
  543MOL0     H71652   4.839   9.200   4.709  1.2570 -0.8576  0.0731
  543MOL0     H71653   4.959   9.317   4.710 -1.2039 -0.1486 -0.7788
  543MOL0     H71654   4.799   9.239   4.974 -1.1771  2.2351  0.6672
  543MOL0     H71655   4.902   9.386   4.934 -1.8610  0.5060  3.7308
  543MOL0     H71656   4.648   9.433   4.925  1.7418  1.6147  0.0266
  543MOL0     H71657   4.628   9.326   4.789  0.8928 -0.5935 -0.3479
  543MOL0     H71658   5.648   9.679   4.947 -1.3888 -0.6519 -1.0728
  543MOL0     H71659   5.883   9.675   4.915 -2.0875  0.9652  0.1438
  543MOL0     H71660   6.273   9.377   5.081  1.2708 -1.1211 -2.1993
  543MOL0     H71661   6.491   9.424   5.175 -3.9307 -2.0385  0.7616
  543MOL0     H71662   8.059   9.381   4.681  0.0818 -0.5619 -0.4838
  543MOL0     H71663   8.248   9.510   4.620 -2.0245  0.3430  1.4149
  543MOL0     H71664   8.582   9.611   4.320 -0.5013 -0.2731  1.2514
  543MOL0     H71665   8.794   9.645   4.210  2.7387  1.9229  0.8168
  543MOL0     H71666   9.163   9.618   4.164  1.4570 -3.3964  0.5400
  543MOL0     H71667   8.998   9.680   4.140  0.8638  0.1556 -1.2626
  543MOL0     H71668   9.076   9.388   4.134  0.3055  0.5563  0.0493
  543MOL0     H71669   8.923   9.454   4.087  0.0518 -2.3101  0.6125
  543MOL0     H71670   9.204   9.484   3.973  0.8786  0.4987  0.6801
  543MOL0     H71671   9.104   9.623   3.951  1.5495 -0.1475  1.6279
  543MOL0     H71672   9.084   9.459   3.754  0.0578 -3.0587 -0.0853
  543MOL0     H71673   9.001   9.351   3.868 -2.5825  1.1237 -0.7698
  543MOL0     H71674   8.705   9.630   3.794 -2.0912 -3.0640 -1.3761
  543MOL0     H71675   8.996   9.442   4.532 -0.7388  0.6490  0.1628
  543MOL0     H71676   8.770   9.395   4.636  0.4360  1.5700  1.0314
  544MOL0     O71677   9.220   2.362   5.603 -0.3675 -0.2109 -0.7592
  544MOL0     C71678   9.270   2.280   5.681  0.5471  0.2624  0.1010
  544MOL0     O71679   9.224   2.260   5.806 -0.1324  0.4049 -0.0703
  544MOL0     C71680   9.142   2.355   5.857  0.0007 -0.6719 -0.2182
  544MOL0     C71681   9.013   2.380   5.803 -0.3949 -0.7546 -0.3164
  544MOL0     C71682   8.933   2.480   5.863 -1.1303 -0.0257  0.0466
  544MOL0     C71683   8.985   2.546   5.978 -0.1173 -0.6322  0.7731
  544MOL0     O71684   8.917   2.636   6.052  0.4159  0.7206 -0.1008
  544MOL0     C71685   8.796   2.580   6.116 -0.5052 -0.2689  0.0725
  544MOL0     C71686   8.716   2.705   6.144 -0.1073  0.0468 -1.0937
  544MOL0     C71687   8.589   2.685   6.235 -0.5004  0.0105  0.4587
  544MOL0     C71688   8.544   2.811   6.305  0.4167 -0.7024 -0.4153
  544MOL0     C71689   8.395   2.801   6.349 -0.4722 -0.4635  1.5222
  544MOL0     C71690   8.291   2.799   6.234 -0.8198  1.1497 -0.1226
  544MOL0     C71691   8.149   2.847   6.284 -0.4880  0.4740  0.0261
  544MOL0     C71692   8.091   2.788   6.406 -0.4311 -0.4115 -0.2821
  544MOL0     N71693   7.974   2.872   6.446  0.0145 -0.3654 -0.8450
  544MOL0     C71694   7.958   2.928   6.567 -0.4476 -0.4101 -0.6105
  544MOL0     C71695   7.835   2.983   6.560 -0.3977 -0.1232 -0.2441
  544MOL0     C71696   7.748   3.034   6.672  0.1951  0.1716  0.1085
  544MOL0     C71697   7.763   3.187   6.691 -0.3481 -0.1324  0.3643
  544MOL0     C71698   7.712   3.233   6.834 -0.2817  0.1576 -0.4717
  544MOL0     C71699   7.561   3.211   6.851 -0.2123 -0.0317 -0.1364
  544MOL0     O71700   7.484   3.266   6.750  0.1023 -0.4262 -0.1412
  544MOL0     C71701   7.360   3.315   6.766  0.3946  0.4227  0.7332
  544MOL0     C71702   7.307   3.420   6.687  0.1542 -0.2956 -0.5928
  544MOL0     C71703   7.170   3.451   6.705  0.3459 -0.0106  0.1873
  544MOL0     C71704   7.083   3.366   6.775  0.0123 -1.1402 -0.4661
  544MOL0     C71705   6.941   3.394   6.760 -0.2413 -0.8167  0.1022
  544MOL0     O71706   6.855   3.325   6.847  0.5703  0.1024 -0.5130
  544MOL0     C71707   6.712   3.345   6.831  0.2318  0.1411 -0.5453
  544MOL0     C71708   6.621   3.252   6.879 -0.0969 -0.6140  0.7434
  544MOL0     C71709   6.481   3.266   6.874 -0.2357 -0.4211  0.3612
  544MOL0     C71710   6.425   3.380   6.818  0.6647  0.0107  0.3789
  544MOL0     O71711   6.291   3.410   6.796  0.0422 -0.5984  0.1032
  544MOL0     C71712   6.197   3.308   6.818  0.8995  0.2897  0.5968
  544MOL0     C71713   6.058   3.376   6.816 -0.1423 -0.3439  0.6128
  544MOL0     C71714   5.959   3.281   6.888  0.0936 -0.3279  0.0478
  544MOL0     C71715   5.819   3.346   6.890 -0.6105 -0.1190  0.0744
  544MOL0     C71716   5.725   3.261   6.997  0.0979 -0.3779 -0.7655
  544MOL0     C71717   5.577   3.277   6.975  0.8724  0.2737  1.0341
  544MOL0     C71718   5.500   3.198   7.086 -0.2198  0.5488  0.0990
  544MOL0     C71719   5.347   3.203   7.072  0.5287  0.0009  0.0157
  544MOL0    Cl71720   5.263   3.210   7.219  0.2515  0.0248  0.0297
  544MOL0     C71721   6.517   3.481   6.785  0.1396  0.3448 -0.3261
  544MOL0     C71722   6.652   3.467   6.793 -0.0971  0.0455  0.3842
  544MOL0     O71723   6.902   3.453   6.658  0.2182 -0.1050 -0.0510
  544MOL0     C71724   7.138   3.269   6.853 -0.5385  0.8117  0.0471
  544MOL0     C71725   7.270   3.237   6.841  0.1652  0.2664  0.0419
  544MOL0     N71726   7.796   2.988   6.425 -0.0940 -0.5638  0.7076
  544MOL0     N71727   7.882   2.921   6.360  0.1416  0.2874  0.0805
  544MOL0     C71728   9.112   2.522   6.018 -0.7064  0.1362  0.7487
  544MOL0     C71729   9.200   2.436   5.951 -0.1888  0.8513  0.2295
  544MOL0     C71730   9.374   2.190   5.636  0.0782 -0.7671 -0.5729
  544MOL0     C71731   9.459   2.127   5.726  0.5602 -0.9019  0.0057
  544MOL0     C71732   9.570   2.059   5.684 -0.1821 -0.0331 -0.1224
  544MOL0     C71733   9.596   2.050   5.546 -0.4636 -0.3131  0.2789
  544MOL0     O71734   9.715   1.999   5.505  0.1423  0.3002  0.2753
  544MOL0     C71735   9.696   1.896   5.407  0.7892 -0.7282 -0.4964
  544MOL0     C71736   9.810   1.798   5.408 -0.3466  0.3854  0.3867
  544MOL0     C71737   9.939   1.860   5.364  0.6539  0.1303 -0.6697
  544MOL0     C71738  10.053   1.757   5.385  0.6451  0.4430  0.3958
  544MOL0     C71739  10.180   1.790   5.320  0.1062 -0.0111  0.1097
  544MOL0     C71740  10.288   1.797   5.260  0.9504 -0.2397  0.4681
  544MOL0     C71741   9.518   2.119   5.454 -0.4858 -0.6021  0.2798
  544MOL0     C71742   9.402   2.178   5.498 -0.7156 -0.2444  0.2322
  544MOL0     H71743   8.978   2.307   5.731  1.3720 -3.8733  1.7117
  544MOL0     H71744   8.836   2.509   5.822 -1.2327  1.5240  1.2982
  544MOL0     H71745   8.838   2.527   6.202 -1.9554 -2.3743 -0.4281
  544MOL0     H71746   8.749   2.514   6.043 -0.5379  0.8157 -0.9124
  544MOL0     H71747   8.684   2.752   6.050  0.5546 -0.6757 -1.6907
  544MOL0     H71748   8.788   2.767   6.198 -0.8636  0.0466 -0.0625
  544MOL0     H71749   8.625   2.608   6.303 -3.5858 -1.8274  0.1922
  544MOL0     H71750   8.509   2.634   6.180  0.4292 -1.9159  0.8210
  544MOL0     H71751   8.612   2.831   6.388 -0.9484 -0.3893  0.6631
  544MOL0     H71752   8.541   2.896   6.236 -1.4634  0.3909  0.9359
  544MOL0     H71753   8.370   2.879   6.421 -0.3728  0.4178  0.6311
  544MOL0     H71754   8.376   2.708   6.403  0.4540  1.7329  6.0311
  544MOL0     H71755   8.278   2.703   6.184 -1.6810  0.2960  1.6353
  544MOL0     H71756   8.317   2.868   6.154  1.7296  1.3872  0.8236
  544MOL0     H71757   8.156   2.955   6.295 -3.3964  1.0811 -2.6984
  544MOL0     H71758   8.087   2.830   6.195  0.0258 -0.3914 -0.1819
  544MOL0     H71759   8.164   2.781   6.488  0.7138 -0.7830 -1.3129
  544MOL0     H71760   8.073   2.683   6.380  3.0794 -1.1591 -0.1772
  544MOL0     H71761   8.018   2.911   6.656  0.6450  3.0806 -0.5249
  544MOL0     H71762   7.763   2.974   6.762 -2.1666 -0.0353  0.4235
  544MOL0     H71763   7.649   3.001   6.640 -0.0228 -0.5456  1.4532
  544MOL0     H71764   7.717   3.234   6.604 -0.2278  1.7700  1.2706
  544MOL0     H71765   7.867   3.221   6.683 -1.1657  2.7299  0.7210
  544MOL0     H71766   7.768   3.176   6.909  0.7602 -1.2954 -2.2693
  544MOL0     H71767   7.736   3.339   6.847  1.0061 -0.0968 -0.5989
  544MOL0     H71768   7.539   3.248   6.951  1.9993 -0.4526  0.5590
  544MOL0     H71769   7.539   3.104   6.843  1.2010 -0.3322 -0.1968
  544MOL0     H71770   7.369   3.475   6.617  0.7137 -1.1391 -0.7829
  544MOL0     H71771   7.131   3.527   6.638  0.1106 -2.0317 -2.1294
  544MOL0     H71772   6.662   3.169   6.936  1.3642 -0.8341 -0.5550
  544MOL0     H71773   6.422   3.181   6.910 -1.0770  0.3787  0.9173
  544MOL0     H71774   6.209   3.248   6.909  0.1931  0.1851  0.6230
  544MOL0     H71775   6.200   3.244   6.730 -0.3813 -0.6948  1.2375
  544MOL0     H71776   6.030   3.414   6.718  0.9418  0.0962  0.4581
  544MOL0     H71777   6.058   3.462   6.885  1.2410 -1.2462  1.8066
  544MOL0     H71778   5.992   3.272   6.993  1.0723 -1.4600 -0.3299
  544MOL0     H71779   5.962   3.183   6.840 -3.4184 -0.4958 -0.0271
  544MOL0     H71780   5.820   3.453   6.914 -1.5109 -0.0802 -0.0149
  544MOL0     H71781   5.779   3.327   6.789  0.6852 -0.1800 -0.4450
  544MOL0     H71782   5.750   3.291   7.099 -1.8645  0.5394 -0.5159
  544MOL0     H71783   5.749   3.158   6.968 -0.8638 -1.1384  0.9571
  544MOL0     H71784   5.545   3.242   6.876 -2.5809  3.6820  0.6936
  544MOL0     H71785   5.540   3.380   6.988  1.5761  0.7670 -0.6292
  544MOL0     H71786   5.536   3.095   7.094 -1.4471  0.0805 -0.2379
  544MOL0     H71787   5.514   3.242   7.185 -0.4627  0.9585 -0.0445
  544MOL0     H71788   5.322   3.110   7.021 -0.3371  0.3969 -0.2931
  544MOL0     H71789   5.313   3.293   7.018 -1.8987 -1.0348 -0.2997
  544MOL0     H71790   6.476   3.577   6.755 -0.8716 -0.4823 -1.6862
  544MOL0     H71791   6.703   3.557   6.758  0.7230 -1.2487 -2.0290
  544MOL0     H71792   7.078   3.197   6.907  1.9869 -0.7459  1.0035
  544MOL0     H71793   7.308   3.151   6.894  0.7366 -0.9305 -2.1671
  544MOL0     H71794   9.148   2.575   6.105 -3.4632  2.0959  0.8304
  544MOL0     H71795   9.304   2.412   5.970 -0.6042 -0.9529  0.4105
  544MOL0     H71796   9.440   2.131   5.833  2.8457 -0.1447  0.4479
  544MOL0     H71797   9.644   2.026   5.756 -0.4287  0.6784  0.4644
  544MOL0     H71798   9.702   1.941   5.307  0.0596 -0.3309 -0.3637
  544MOL0     H71799   9.597   1.850   5.407 -0.9704  2.7518  0.7688
  544MOL0     H71800   9.815   1.752   5.507  2.0497 -3.3406 -1.2456
  544MOL0     H71801   9.781   1.726   5.332 -0.2827  3.6472 -2.9903
  544MOL0     H71802   9.962   1.956   5.412  0.7302  0.0323 -0.5113
  544MOL0     H71803   9.935   1.870   5.255 -2.3633 -1.1269 -0.7592
  544MOL0     H71804  10.070   1.744   5.492 -0.1555  0.3670  0.5199
  544MOL0     H71805  10.032   1.663   5.333 -1.1602  0.5575  0.8557
  544MOL0     H71806  10.376   1.807   5.201 -0.2203 -0.3620 -1.3974
  544MOL0     H71807   9.542   2.114   5.348 -1.2130  0.7591  0.0202
  544MOL0     H71808   9.339   2.218   5.419 -0.4706 -1.6949 -0.7425
  545MOL0     O71809   3.610  10.315   3.526 -0.6631 -0.3279  0.2456
  545MOL0     C71810   3.690  10.289   3.435 -0.4270 -0.6330 -0.8026
  545MOL0     O71811   3.668  10.184   3.341 -0.6720  0.3515 -0.5943
  545MOL0     C71812   3.558  10.104   3.348  0.5076  1.0821 -0.3025
  545MOL0     C71813   3.454  10.129   3.262  0.8396 -0.0805 -0.0836
  545MOL0     C71814   3.342  10.038   3.261 -0.5024  0.7507  0.3183
  545MOL0     C71815   3.334   9.944   3.360  0.4734  0.1744  0.3697
  545MOL0     O71816   3.220   9.872   3.359  0.3736  0.4656  0.4010
  545MOL0     C71817   3.153   9.844   3.477  1.1063  0.5236 -0.0390
  545MOL0     C71818   3.002   9.839   3.446  1.3766 -0.0953 -0.4208
  545MOL0     C71819   2.923   9.822   3.578  0.3559 -0.2222  0.5839
  545MOL0     C71820   2.777   9.798   3.541 -0.4033 -0.4570  0.4195
  545MOL0     C71821   2.670   9.815   3.643 -0.2949 -0.1493  0.5394
  545MOL0     C71822   2.540   9.752   3.580  0.3576 -0.3648 -0.2652
  545MOL0     C71823   2.422   9.746   3.681 -0.9731  0.6179 -0.8308
  545MOL0     C71824   2.413   9.625   3.778  0.5336 -0.5672  0.5367
  545MOL0     N71825   2.307   9.650   3.875 -0.9701 -1.0662 -0.1382
  545MOL0     C71826   2.326   9.716   3.999  0.0822  0.7839  0.1776
  545MOL0     C71827   2.215   9.699   4.062 -0.3482 -0.3819 -0.1626
  545MOL0     C71828   2.184   9.742   4.200  0.0359 -0.5395  0.1143
  545MOL0     C71829   2.210   9.644   4.319 -0.4583 -0.1062  0.1693
  545MOL0     C71830   2.130   9.511   4.306 -0.2907  0.5677  0.3687
  545MOL0     C71831   1.984   9.512   4.349  0.0476 -0.6832  0.2128
  545MOL0     O71832   1.919   9.612   4.268 -0.1064 -0.0329 -0.0647
  545MOL0     C71833   1.787   9.638   4.296 -0.2280  0.2440 -0.3088
  545MOL0     C71834   1.722   9.599   4.413 -0.1077 -0.0979  0.5820
  545MOL0     C71835   1.578   9.608   4.421  0.0686 -0.4879 -0.8475
  545MOL0     C71836   1.501   9.681   4.326 -0.1268 -0.4745 -0.1975
  545MOL0     C71837   1.358   9.716   4.357 -0.5553  0.0923  1.6566
  545MOL0     O71838   1.284   9.781   4.254 -0.4654  0.0947 -0.1557
  545MOL0     C71839   1.168   9.847   4.288  0.3697 -0.0663 -0.1175
  545MOL0     C71840   1.057   9.825   4.215  0.7472  1.2476  0.7992
  545MOL0     C71841   0.929   9.876   4.253  0.2570 -1.3342 -0.6301
  545MOL0     C71842   0.914   9.960   4.365  0.2931  0.0986 -0.0158
  545MOL0     O71843   0.787  10.004   4.392  0.5513 -0.9718  0.3352
  545MOL0     C71844   0.754  10.051   4.524 -0.1285  0.3388 -0.1629
  545MOL0     C71845   0.621   9.978   4.565 -0.3239 -0.3643  0.3485
  545MOL0     C71846   0.507  10.074   4.606 -0.3164  0.7233  1.0050
  545MOL0     C71847   0.403   9.992   4.678  0.2307  0.7083 -0.7494
  545MOL0     C71848   0.313  10.093   4.754 -0.2482 -0.4946  0.1872
  545MOL0     C71849   0.182  10.033   4.813  0.9439 -1.3823 -0.0051
  545MOL0     C71850   0.113  10.157   4.876 -0.0971 -0.3416  0.2924
  545MOL0     C71851  -0.027  10.127   4.934  0.1479 -0.1834 -1.4293
  545MOL0    Cl71852  -0.074  10.288   4.997 -0.0130 -0.2498  0.0115
  545MOL0     C71853   1.030   9.985   4.441 -0.0942  0.3230  0.5569
  545MOL0     C71854   1.154   9.930   4.405 -0.3207  0.2537 -0.3460
  545MOL0     O71855   1.315   9.689   4.467  0.3555 -0.4261  0.7290
  545MOL0     C71856   1.575   9.728   4.216  0.2734 -0.0335  0.4499
  545MOL0     C71857   1.717   9.704   4.198 -0.0067 -0.5372  0.9628
  545MOL0     N71858   2.117   9.655   3.978 -0.6029  0.2844  0.2354
  545MOL0     N71859   2.178   9.628   3.864  0.2006  0.1541  0.6285
  545MOL0     C71860   3.433   9.929   3.448  0.2672 -0.6044 -0.0403
  545MOL0     C71861   3.548  10.005   3.448  1.1445  0.6405 -0.3545
  545MOL0     C71862   3.820  10.363   3.438 -0.5212  1.5390 -0.2128
  545MOL0     C71863   3.938  10.314   3.369  0.8608  0.3917 -0.5392
  545MOL0     C71864   4.068  10.376   3.375 -0.0898  0.0025  0.6424
  545MOL0     C71865   4.078  10.497   3.440 -0.1088 -0.0253  0.3822
  545MOL0     O71866   4.199  10.554   3.424 -0.3858  0.4385 -0.2013
  545MOL0     C71867   4.258  10.613   3.544  0.3650 -0.1650 -0.1772
  545MOL0     C71868   4.255  10.524   3.673  0.2912  1.0344 -0.6123
  545MOL0     C71869   4.359  10.563   3.777 -0.1176  0.6008  0.4585
  545MOL0     C71870   4.413  10.443   3.847  0.3344  0.0068  1.0009
  545MOL0     C71871   4.495  10.475   3.963  0.2224  0.6405 -0.1611
  545MOL0     C71872   4.560  10.491   4.058  0.2419  0.2573  0.5530
  545MOL0     C71873   3.962  10.549   3.503  0.4727  1.2111  0.0269
  545MOL0     C71874   3.837  10.486   3.509 -0.9446 -0.1591 -0.8349
  545MOL0     H71875   3.468  10.208   3.189 -0.1379  0.3704  0.2130
  545MOL0     H71876   3.247  10.047   3.210 -0.4885 -1.8942 -0.3015
  545MOL0     H71877   3.179   9.916   3.555 -1.5174  0.3793  1.0813
  545MOL0     H71878   3.184   9.761   3.541  0.8751  0.6925  0.2986
  545MOL0     H71879   2.976   9.760   3.376 -0.6806  0.4216 -0.2980
  545MOL0     H71880   2.982   9.937   3.403 -0.6813  0.5207  1.7254
  545MOL0     H71881   2.934   9.913   3.636  1.2676 -0.9081  1.5207
  545MOL0     H71882   2.977   9.749   3.639  1.5672 -0.9822 -1.3037
  545MOL0     H71883   2.753   9.858   3.453 -1.7962 -1.1155  0.3199
  545MOL0     H71884   2.765   9.692   3.517 -3.2752 -0.0914 -0.1104
  545MOL0     H71885   2.646   9.921   3.659 -0.3933  0.0631 -0.8715
  545MOL0     H71886   2.701   9.769   3.737 -0.0120 -0.8289  0.1155
  545MOL0     H71887   2.563   9.648   3.555 -0.4522 -1.2022  2.1382
  545MOL0     H71888   2.522   9.819   3.495  1.0005 -2.6046 -2.2681
  545MOL0     H71889   2.414   9.844   3.729  0.8294  1.6515 -2.5039
  545MOL0     H71890   2.336   9.723   3.618 -1.5526 -0.9646  0.4855
  545MOL0     H71891   2.509   9.626   3.829  0.6046  0.0832  0.3916
  545MOL0     H71892   2.395   9.525   3.737 -0.5027  0.3251 -1.3306
  545MOL0     H71893   2.422   9.748   4.038 -0.2667  2.4193 -0.2486
  545MOL0     H71894   2.081   9.778   4.195 -0.2415 -1.4995 -1.6861
  545MOL0     H71895   2.239   9.836   4.213 -1.4763  0.4424 -0.3143
  545MOL0     H71896   2.177   9.686   4.415  0.8477 -3.1250  2.1043
  545MOL0     H71897   2.315   9.616   4.332  0.1455  1.5640 -0.8099
  545MOL0     H71898   2.123   9.477   4.202  1.0857 -0.6173  0.6456
  545MOL0     H71899   2.184   9.427   4.350 -2.3071 -0.8701  0.2446
  545MOL0     H71900   1.980   9.549   4.452 -0.6890  0.8689 -0.3503
  545MOL0     H71901   1.941   9.412   4.340 -0.7190 -0.3641  0.2273
  545MOL0     H71902   1.777   9.533   4.480  3.3049  0.8306 -1.0941
  545MOL0     H71903   1.526   9.560   4.504  0.3953 -2.2291 -1.6088
  545MOL0     H71904   1.062   9.780   4.116  1.3069 -0.3212  1.5084
  545MOL0     H71905   0.836   9.875   4.197 -0.1563  2.8483 -0.2786
  545MOL0     H71906   0.747  10.160   4.529  0.1206  0.3083  1.5207
  545MOL0     H71907   0.822  10.015   4.602 -0.5505  1.3198  0.6906
  545MOL0     H71908   0.657   9.921   4.651  1.8339 -0.9721 -0.8812
  545MOL0     H71909   0.596   9.903   4.489 -3.1890  1.0771 -0.2766
  545MOL0     H71910   0.458  10.127   4.524  2.2848 -0.3154 -1.3881
  545MOL0     H71911   0.543  10.160   4.664 -0.7977  0.3992  1.8098
  545MOL0     H71912   0.331   9.945   4.611 -1.0740  0.0948  1.0047
  545MOL0     H71913   0.452   9.917   4.740  3.3088  1.4609 -2.0712
  545MOL0     H71914   0.292  10.171   4.680 -4.5458 -0.6880  0.9238
  545MOL0     H71915   0.378  10.140   4.828  1.7819  2.3909 -3.0913
  545MOL0     H71916   0.200   9.953   4.885 -0.7983 -1.8195  0.0047
  545MOL0     H71917   0.120   9.997   4.730  0.1720 -1.6777  0.6764
  545MOL0     H71918   0.182  10.201   4.948 -0.5980 -2.2664  2.0385
  545MOL0     H71919   0.088  10.228   4.796 -1.6213  0.8701  1.7725
  545MOL0     H71920  -0.021  10.061   5.021 -1.1524 -0.0950 -1.2503
  545MOL0     H71921  -0.105  10.089   4.868 -2.0664 -1.7364  1.7900
  545MOL0     H71922   1.047  10.049   4.527  1.8722 -1.5827  1.7091
  545MOL0     H71923   1.249   9.947   4.454  0.2618 -0.0295 -1.3425
  545MOL0     H71924   1.516   9.793   4.153 -1.2035 -1.6519  0.0625
  545MOL0     H71925   1.784   9.730   4.117  3.8647 -5.3301  2.1650
  545MOL0     H71926   3.425   9.846   3.517  2.5904 -0.8351  0.0549
  545MOL0     H71927   3.623   9.984   3.524  0.1998 -1.8595 -0.0346
  545MOL0     H71928   3.945  10.217   3.319 -0.0471  0.7019 -1.2849
  545MOL0     H71929   4.149  10.331   3.318 -0.5450 -0.6510  0.5089
  545MOL0     H71930   4.208  10.708   3.566 -0.0472  0.3681 -2.9875
  545MOL0     H71931   4.361  10.640   3.521  1.2253  0.6217  3.8371
  545MOL0     H71932   4.157  10.517   3.721  0.8118 -1.7023  0.2038
  545MOL0     H71933   4.280  10.424   3.635  0.8479  0.1692  1.8466
  545MOL0     H71934   4.303  10.621   3.851 -3.9213  0.5501 -2.1044
  545MOL0     H71935   4.445  10.616   3.735 -1.8085  2.6735 -0.5664
  545MOL0     H71936   4.330  10.381   3.882 -1.2657  0.4049 -1.7628
  545MOL0     H71937   4.470  10.387   3.773  1.6372 -0.1006  2.0518
  545MOL0     H71938   4.609  10.500   4.153  1.0088  1.7504  0.0491
  545MOL0     H71939   3.966  10.643   3.557 -1.3488  1.4844 -0.2641
  545MOL0     H71940   3.753  10.532   3.561 -0.6006 -0.0333 -0.3794
  546MOL0     O71941   3.884   6.352   0.695 -0.2598 -0.2771  0.8415
  546MOL0     C71942   3.914   6.462   0.743  0.7495 -0.0108 -0.0753
  546MOL0     O71943   3.829   6.549   0.808  0.1611 -0.1619 -0.6502
  546MOL0     C71944   3.709   6.497   0.836 -0.8269  0.0715 -0.6478
  546MOL0     C71945   3.671   6.435   0.958  0.2456 -0.2275  0.1897
  546MOL0     C71946   3.541   6.395   0.987  0.7511 -0.3738  0.0649
  546MOL0     C71947   3.447   6.414   0.892 -0.1721  0.9329  0.3469
  546MOL0     O71948   3.324   6.364   0.924 -0.1979  0.1322  0.2622
  546MOL0     C71949   3.243   6.319   0.815 -0.1826  0.0083 -0.3848
  546MOL0     C71950   3.136   6.421   0.785 -0.0286 -1.7269  0.1041
  546MOL0     C71951   3.037   6.437   0.896 -0.8837 -0.2026 -0.0374
  546MOL0     C71952   2.925   6.542   0.846 -0.5301  1.0223 -0.1210
  546MOL0     C71953   2.821   6.544   0.953  1.1408  0.2038  0.9176
  546MOL0     C71954   2.709   6.656   0.920 -0.7157 -0.5430 -0.4661
  546MOL0     C71955   2.586   6.639   1.008 -0.3861  1.0520 -0.0263
  546MOL0     C71956   2.496   6.749   1.003 -0.3434 -0.0542  0.1258
  546MOL0     N71957   2.445   6.783   0.866 -0.7538  0.0424 -0.2507
  546MOL0     C71958   2.485   6.894   0.789 -0.7838  0.9353  0.0392
  546MOL0     C71959   2.451   6.863   0.662 -0.3724  0.3844  0.0459
  546MOL0     C71960   2.461   6.957   0.537 -0.3061  0.4419  0.3753
  546MOL0     C71961   2.377   7.085   0.541 -0.1288  0.5432 -0.8425
  546MOL0     C71962   2.235   7.059   0.578 -0.4866  0.3796 -0.5782
  546MOL0     C71963   2.155   6.988   0.471  0.2267 -0.8108  0.1925
  546MOL0     O71964   2.020   7.024   0.506  0.0018 -0.0273 -0.2180
  546MOL0     C71965   1.919   6.994   0.416 -0.2387  0.9502 -0.4247
  546MOL0     C71966   1.926   6.938   0.284  0.7698 -0.7009 -0.5077
  546MOL0     C71967   1.816   6.908   0.213  1.3762  0.0647  0.2656
  546MOL0     C71968   1.682   6.938   0.262 -0.5921 -1.2598  0.0247
  546MOL0     C71969   1.565   6.925   0.176  0.3131 -0.6650 -0.1415
  546MOL0     O71970   1.578   6.854   0.064 -0.1699 -0.0085 -0.0495
  546MOL0     C71971   1.469   6.843  -0.019  0.1444  0.7492 -0.9617
  546MOL0     C71972   1.439   6.942  -0.109  0.1352 -0.4522 -0.5872
  546MOL0     C71973   1.313   6.947  -0.174 -0.8211 -0.0922  0.7555
  546MOL0     C71974   1.219   6.845  -0.147  0.2036  0.7718  0.3857
  546MOL0     O71975   1.096   6.840  -0.211 -0.8058 -0.1528 -0.8511
  546MOL0     C71976   1.005   6.732  -0.197  0.2145  0.0868 -0.5831
  546MOL0     C71977   0.867   6.774  -0.246  0.0804 -0.3853  1.0163
  546MOL0     C71978   0.756   6.697  -0.171  0.0802  1.2728 -0.0481
  546MOL0     C71979   0.745   6.555  -0.219  0.0929  0.7224 -0.5073
  546MOL0     C71980   0.664   6.542  -0.346 -0.4548 -0.2265 -0.6914
  546MOL0     C71981   0.526   6.603  -0.353 -0.4497  0.3369 -0.2667
  546MOL0     C71982   0.434   6.531  -0.255  1.0101 -0.7105  0.2155
  546MOL0     C71983   0.290   6.564  -0.266 -0.9330  0.1942  0.2430
  546MOL0    Cl71984   0.219   6.468  -0.408  0.1838 -0.5226 -0.3152
  546MOL0     C71985   1.259   6.740  -0.062  0.3578  0.0877 -0.0405
  546MOL0     C71986   1.378   6.735  -0.000 -0.5140 -0.7521  0.3445
  546MOL0     O71987   1.462   6.976   0.205 -0.0656 -0.2928 -0.1533
  546MOL0     C71988   1.678   7.004   0.389  0.8904  1.4767 -0.1367
  546MOL0     C71989   1.793   7.023   0.466  0.3128 -0.8555  0.9074
  546MOL0     N71990   2.373   6.750   0.666  0.1969  0.2156  0.3706
  546MOL0     N71991   2.381   6.705   0.786  0.2202  0.0161  1.3974
  546MOL0     C71992   3.474   6.485   0.777 -0.3760  0.2244 -0.1361
  546MOL0     C71993   3.605   6.520   0.746 -0.2595  0.2623 -0.3125
  546MOL0     C71994   4.051   6.512   0.740 -0.6504 -0.4074  0.1858
  546MOL0     C71995   4.078   6.648   0.753  0.7221  0.1084  0.2549
  546MOL0     C71996   4.212   6.696   0.748  0.3089 -0.1528  0.0460
  546MOL0     C71997   4.317   6.607   0.736  0.3859  0.8273 -0.4395
  546MOL0     O71998   4.448   6.642   0.731 -0.0572 -0.1525 -0.7436
  546MOL0     C71999   4.511   6.774   0.726 -0.5524 -0.2899 -0.0146
  546MOL0     C72000   4.604   6.804   0.847  0.0317 -0.1613  0.3291
  546MOL0     C72001   4.743   6.723   0.845 -0.6700 -0.1001  0.2107
  546MOL0     C72002   4.819   6.766   0.976  0.2961 -0.3850  0.8137
  546MOL0     C72003   4.960   6.725   0.951  0.7625  0.2404 -0.8638
  546MOL0     C72004   5.073   6.705   0.916  0.3470  0.3756 -0.2701
  546MOL0     C72005   4.289   6.469   0.730 -0.0346 -0.6453 -0.6155
  546MOL0     C72006   4.158   6.426   0.720  0.2877  0.6797 -1.4710
  546MOL0     H72007   3.747   6.402   1.027 -1.5332 -2.8176  1.0213
  546MOL0     H72008   3.511   6.342   1.078  0.4932 -0.3793 -0.0222
  546MOL0     H72009   3.191   6.226   0.841 -1.3013  0.3635 -1.2834
  546MOL0     H72010   3.303   6.291   0.728  2.0420  0.0907  1.0440
  546MOL0     H72011   3.087   6.381   0.695 -0.6939  0.7702 -0.7246
  546MOL0     H72012   3.169   6.522   0.759 -1.8072 -0.5489  2.1226
  546MOL0     H72013   3.068   6.468   0.997 -1.0827  0.8252 -0.2789
  546MOL0     H72014   2.992   6.339   0.916 -1.4443  0.2769  1.2009
  546MOL0     H72015   2.969   6.640   0.825  0.8956 -0.0189 -2.4510
  546MOL0     H72016   2.874   6.514   0.753 -3.7602 -1.4381  2.1582
  546MOL0     H72017   2.862   6.574   1.050  0.7376  2.3004  0.4705
  546MOL0     H72018   2.774   6.445   0.966 -1.8468  1.1552 -1.3747
  546MOL0     H72019   2.675   6.641   0.816 -0.6930 -0.5383 -0.4742
  546MOL0     H72020   2.752   6.756   0.927 -1.7750 -0.1174  0.2833
  546MOL0     H72021   2.529   6.550   0.981 -0.0937 -0.3623  3.4805
  546MOL0     H72022   2.613   6.625   1.113  2.4436 -2.9384 -1.0578
  546MOL0     H72023   2.544   6.840   1.041 -0.3667 -0.3070  0.7706
  546MOL0     H72024   2.403   6.726   1.056 -0.9545 -0.4201 -1.0584
  546MOL0     H72025   2.538   6.987   0.811  1.3721 -0.2551  0.1801
  546MOL0     H72026   2.452   6.895   0.447  0.6251 -0.1093  0.6398
  546MOL0     H72027   2.563   6.996   0.539  0.3544 -1.1916  1.7091
  546MOL0     H72028   2.380   7.137   0.445  1.5234  1.0211 -0.5613
  546MOL0     H72029   2.419   7.154   0.615  0.9458  1.0552 -1.9010
  546MOL0     H72030   2.237   6.998   0.669  0.3291  1.2936  0.0478
  546MOL0     H72031   2.195   7.159   0.601 -0.5728  0.5472 -1.4233
  546MOL0     H72032   2.181   6.882   0.472  0.8140 -0.6638  0.7928
  546MOL0     H72033   2.164   7.035   0.373  0.1236 -2.3575 -0.5883
  546MOL0     H72034   2.026   6.904   0.261  1.0806  0.1361 -0.4443
  546MOL0     H72035   1.835   6.860   0.118  0.4653  1.0159 -0.4242
  546MOL0     H72036   1.501   7.031  -0.112  0.9257 -1.0032 -1.1338
  546MOL0     H72037   1.284   7.037  -0.228 -3.4964 -2.4808 -2.2038
  546MOL0     H72038   1.003   6.709  -0.090  0.4091  0.4100 -0.5107
  546MOL0     H72039   1.039   6.644  -0.254  1.1120  0.8900 -1.3240
  546MOL0     H72040   0.852   6.751  -0.353 -0.3837 -0.2758  1.0538
  546MOL0     H72041   0.853   6.882  -0.242  0.2658 -0.2447 -0.8652
  546MOL0     H72042   0.661   6.746  -0.191 -1.5094 -1.7646 -0.6352
  546MOL0     H72043   0.776   6.692  -0.064  2.1293  2.2511 -0.3381
  546MOL0     H72044   0.840   6.502  -0.217  0.0320  0.5197  2.8275
  546MOL0     H72045   0.701   6.496  -0.138  1.7187 -0.2943 -0.3335
  546MOL0     H72046   0.647   6.433  -0.343 -0.1477 -0.3137  3.6162
  546MOL0     H72047   0.729   6.580  -0.424  1.6201 -3.4218 -0.7155
  546MOL0     H72048   0.500   6.590  -0.458 -1.0156 -0.0338 -0.0855
  546MOL0     H72049   0.515   6.710  -0.333  0.8888  0.9078 -2.2694
  546MOL0     H72050   0.440   6.422  -0.262 -0.0274 -0.8709  1.4373
  546MOL0     H72051   0.458   6.550  -0.150  1.2976  0.8300 -0.0943
  546MOL0     H72052   0.268   6.671  -0.275  0.4938  0.4060 -1.0411
  546MOL0     H72053   0.247   6.528  -0.172  0.5501 -1.0934  0.4632
  546MOL0     H72054   1.195   6.653  -0.053 -2.8729  1.9036 -2.9179
  546MOL0     H72055   1.408   6.659   0.071  2.6060 -1.3014 -1.3908
  546MOL0     H72056   1.578   7.034   0.419  1.1436  0.1416  2.3541
  546MOL0     H72057   1.780   7.061   0.567 -2.6250  1.3234 -0.1457
  546MOL0     H72058   3.406   6.514   0.697  1.3138 -0.5172 -1.9183
  546MOL0     H72059   3.630   6.571   0.654 -1.7157  0.1071 -0.8223
  546MOL0     H72060   3.990   6.708   0.773 -1.3786 -3.5595  3.0589
  546MOL0     H72061   4.230   6.803   0.752  1.5643 -0.3909  0.9828
  546MOL0     H72062   4.438   6.854   0.710 -2.0365 -1.2601  1.4794
  546MOL0     H72063   4.571   6.770   0.635 -2.2620 -2.5111 -1.1532
  546MOL0     H72064   4.633   6.909   0.837  0.2303 -0.4409 -3.2922
  546MOL0     H72065   4.549   6.777   0.938  0.9208  0.6668  1.1451
  546MOL0     H72066   4.802   6.741   0.754  0.7968 -2.0013  0.7326
  546MOL0     H72067   4.725   6.616   0.837  3.3351 -0.8696 -0.7645
  546MOL0     H72068   4.818   6.874   0.996  0.3370 -0.1665 -0.3097
  546MOL0     H72069   4.787   6.718   1.069  3.1852  0.9994  2.6725
  546MOL0     H72070   5.171   6.672   0.888 -0.7961 -2.1300 -1.5830
  546MOL0     H72071   4.360   6.388   0.721 -1.0544 -1.4812 -1.2111
  546MOL0     H72072   4.148   6.318   0.722  1.9648  0.4625  1.9877
  547MOL0     O72073   1.866  10.109   8.775 -0.4030 -0.1058 -0.0812
  547MOL0     C72074   1.831  10.148   8.667  0.0907 -0.9499  0.0900
  547MOL0     O72075   1.706  10.156   8.625  0.1541  0.2185  0.4758
  547MOL0     C72076   1.601  10.188   8.717 -0.3227 -0.4017  0.5330
  547MOL0     C72077   1.622  10.253   8.841  0.1386  0.1400  0.4268
  547MOL0     C72078   1.506  10.276   8.925  0.0673 -0.1002  0.0734
  547MOL0     C72079   1.379  10.239   8.891  0.5553  0.3430  0.2233
  547MOL0     O72080   1.278  10.279   8.980  0.0949 -0.4951  0.3093
  547MOL0     C72081   1.182  10.181   9.021  1.1179 -0.0464  0.0732
  547MOL0     C72082   1.219  10.126   9.162 -0.0032 -0.6845  0.1268
  547MOL0     C72083   1.110  10.046   9.229 -1.1116  0.2097  0.1946
  547MOL0     C72084   1.181   9.958   9.338 -0.5035  0.0797  0.6169
  547MOL0     C72085   1.091   9.851   9.407  0.4853 -0.8614  1.4456
  547MOL0     C72086   0.977   9.918   9.493  0.0995 -0.7460  0.5794
  547MOL0     C72087   0.887   9.815   9.568 -0.4898 -0.5602  0.3496
  547MOL0     C72088   0.955   9.725   9.674  0.6251  0.9314  0.5845
  547MOL0     N72089   0.858   9.638   9.742  0.4842 -0.2866 -0.0697
  547MOL0     C72090   0.730   9.670   9.781 -0.4825 -0.1849  0.5482
  547MOL0     C72091   0.690   9.575   9.866 -0.1215  0.8192 -0.5310
  547MOL0     C72092   0.557   9.572   9.935  0.6795  0.0037 -0.5529
  547MOL0     C72093   0.431   9.551   9.850 -0.3852 -0.3088 -0.0993
  547MOL0     C72094   0.308   9.564   9.943  0.3103  0.1909 -0.4052
  547MOL0     C72095   0.179   9.525   9.862  1.0076 -0.2365  0.3878
  547MOL0     O72096   0.170   9.607   9.746  0.2807  0.8822 -0.5917
  547MOL0     C72097   0.070   9.595   9.654  0.2749 -0.3334 -0.1083
  547MOL0     C72098   0.095   9.591   9.519 -1.2246 -0.7039  0.5568
  547MOL0     C72099  -0.006   9.581   9.429  0.5613 -0.1918 -0.8114
  547MOL0     C72100  -0.142   9.612   9.469 -0.3949 -0.4854 -0.1732
  547MOL0     C72101  -0.262   9.615   9.379 -0.1284 -0.4908 -1.2255
  547MOL0     O72102  -0.356   9.703   9.405  0.1880 -0.0420 -0.0435
  547MOL0     C72103  -0.453   9.730   9.310 -0.6160  0.3937  0.1687
  547MOL0     C72104  -0.437   9.762   9.175 -0.0173 -1.3831 -1.0807
  547MOL0     C72105  -0.539   9.800   9.092 -0.3045  0.1849  0.3586
  547MOL0     C72106  -0.672   9.800   9.145  1.1487  0.5446 -0.5749
  547MOL0     O72107  -0.778   9.820   9.058 -0.3441  0.3074 -0.0562
  547MOL0     C72108  -0.907   9.756   9.080 -0.0571  1.2532  0.0884
  547MOL0     C72109  -1.010   9.803   8.969  0.4026 -0.0798 -0.2070
  547MOL0     C72110  -1.151   9.741   8.994  0.4312  0.5827  0.1538
  547MOL0     C72111  -1.246   9.785   8.881  0.2051 -0.3899 -0.0928
  547MOL0     C72112  -1.382   9.723   8.907  0.4444  0.4684 -0.9994
  547MOL0     C72113  -1.503   9.797   8.845  0.7251 -0.5026 -0.0240
  547MOL0     C72114  -1.637   9.754   8.888  0.6579  0.0386  0.6048
  547MOL0     C72115  -1.749   9.825   8.819 -0.3874 -0.7009 -0.6969
  547MOL0    Cl72116  -1.919   9.789   8.886  0.3713 -0.3464  0.0542
  547MOL0     C72117  -0.698   9.753   9.279  0.3656 -0.7263  0.5935
  547MOL0     C72118  -0.585   9.726   9.359  0.2544  0.2919 -0.2511
  547MOL0     O72119  -0.244   9.550   9.277  0.5651 -0.0266  0.1862
  547MOL0     C72120  -0.168   9.628   9.606  0.2637  0.3670  0.0111
  547MOL0     C72121  -0.059   9.616   9.698 -0.1530  1.3312  0.0651
  547MOL0     N72122   0.794   9.484   9.879  0.5400 -0.0834  0.7523
  547MOL0     N72123   0.891   9.512   9.803  0.1370  0.1647  0.3685
  547MOL0     C72124   1.362  10.176   8.765 -0.1945  0.5469  0.6219
  547MOL0     C72125   1.472  10.159   8.680 -0.8166  0.1249  0.2558
  547MOL0     C72126   1.939  10.178   8.561 -0.1471  0.5229 -0.7868
  547MOL0     C72127   2.073  10.127   8.582 -0.0720  0.4825  0.7232
  547MOL0     C72128   2.174  10.161   8.492  0.4042 -0.4677 -0.4057
  547MOL0     C72129   2.145  10.238   8.376  0.9791  0.3369  1.1386
  547MOL0     O72130   2.241  10.277   8.283  1.0655  0.3894 -0.3025
  547MOL0     C72131   2.357  10.196   8.277 -0.4047 -0.8916  0.8698
  547MOL0     C72132   2.438  10.246   8.158 -1.0471  0.3318  0.0744
  547MOL0     C72133   2.578  10.183   8.166 -0.3559 -0.4558 -0.1009
  547MOL0     C72134   2.677  10.258   8.082  0.0564 -0.0095  0.0068
  547MOL0     C72135   2.809  10.198   8.072 -0.1883 -0.0607 -0.6125
  547MOL0     C72136   2.915  10.151   8.095  0.6302 -0.8436 -0.2132
  547MOL0     C72137   2.008  10.275   8.356 -0.4379 -0.6912 -0.1104
  547MOL0     C72138   1.907  10.248   8.448  0.4832 -0.4372  0.4423
  547MOL0     H72139   1.716  10.300   8.868  0.2030 -1.7330  4.0392
  547MOL0     H72140   1.515  10.318   9.025 -0.2900 -1.9402  0.9336
  547MOL0     H72141   1.182  10.095   8.954  3.0370 -0.3760  0.4285
  547MOL0     H72142   1.082  10.224   9.029  1.1380 -0.2945  2.6645
  547MOL0     H72143   1.222  10.207   9.236 -2.3160  0.8133 -1.2946
  547MOL0     H72144   1.315  10.078   9.144  0.9918  0.9603  0.8387
  547MOL0     H72145   1.054   9.989   9.154  1.3091 -0.4453 -1.2462
  547MOL0     H72146   1.035  10.110   9.277  0.6885  2.3934  0.2469
  547MOL0     H72147   1.256   9.904   9.279  1.2027  0.3478  2.4207
  547MOL0     H72148   1.221  10.017   9.422  0.8589  0.8327 -0.5100
  547MOL0     H72149   1.152   9.789   9.472 -0.4594 -2.9239  0.4466
  547MOL0     H72150   1.051   9.792   9.324  2.2047 -1.1325  0.7789
  547MOL0     H72151   0.918   9.985   9.430 -0.0365 -2.1281 -0.7899
  547MOL0     H72152   1.033   9.982   9.563  2.1232 -1.0666 -0.6495
  547MOL0     H72153   0.819   9.877   9.626  2.0645  0.8850  1.9860
  547MOL0     H72154   0.826   9.766   9.491 -1.7241  0.4552  0.6651
  547MOL0     H72155   1.015   9.774   9.751  0.7668  1.3015  0.2453
  547MOL0     H72156   1.020   9.651   9.627 -1.8315 -0.5844 -0.6441
  547MOL0     H72157   0.680   9.765   9.762  0.1730 -0.3272 -2.3052
  547MOL0     H72158   0.547   9.663   9.995 -1.9057 -2.0837  2.5455
  547MOL0     H72159   0.553   9.494  10.012 -0.8376 -0.2800 -0.8930
  547MOL0     H72160   0.427   9.453   9.803  2.3057 -0.5090 -0.0656
  547MOL0     H72161   0.414   9.629   9.775 -1.4097  0.4542  0.8882
  547MOL0     H72162   0.331   9.497  10.026  1.7424  0.0226 -0.9176
  547MOL0     H72163   0.294   9.667   9.978 -4.2627  0.3963 -2.1933
  547MOL0     H72164   0.098   9.537   9.935  2.2510  1.3393  1.5933
  547MOL0     H72165   0.185   9.425   9.819  2.9470  0.3112 -0.7374
  547MOL0     H72166   0.196   9.615   9.487 -1.6566  0.1241 -0.2403
  547MOL0     H72167   0.001   9.578   9.321 -2.0946 -1.5949 -1.0345
  547MOL0     H72168  -0.336   9.742   9.141  1.4919  0.8517  1.6032
  547MOL0     H72169  -0.518   9.833   8.990 -0.5074 -1.1358 -0.1343
  547MOL0     H72170  -0.945   9.791   9.176 -1.2160  1.0197 -0.2725
  547MOL0     H72171  -0.894   9.647   9.076  2.0682  1.4655  0.3062
  547MOL0     H72172  -0.981   9.766   8.870  2.2738 -3.0352  1.3160
  547MOL0     H72173  -1.013   9.912   8.977 -0.3620 -0.1681  0.8662
  547MOL0     H72174  -1.186   9.753   9.097  1.8851  1.8563  0.5438
  547MOL0     H72175  -1.142   9.634   8.974  0.3314  0.3643  1.1747
  547MOL0     H72176  -1.255   9.892   8.863 -3.4276 -0.4399  0.6963
  547MOL0     H72177  -1.207   9.744   8.788 -1.3719  1.4872 -1.6660
  547MOL0     H72178  -1.395   9.723   9.015 -0.1694 -2.6445 -0.9750
  547MOL0     H72179  -1.390   9.618   8.875 -3.3715 -1.2788  4.2617
  547MOL0     H72180  -1.509   9.785   8.736 -0.8729 -3.2056  0.2583
  547MOL0     H72181  -1.506   9.902   8.872 -4.5902 -0.4486  0.3337
  547MOL0     H72182  -1.646   9.652   8.850  2.2717  1.1651 -3.2597
  547MOL0     H72183  -1.645   9.747   8.997  4.5151 -1.2646  0.9402
  547MOL0     H72184  -1.747   9.804   8.711 -3.4600 -3.4874 -0.3976
  547MOL0     H72185  -1.731   9.932   8.832  1.4151 -1.2073  1.5703
  547MOL0     H72186  -0.794   9.754   9.329 -0.4929  0.4099 -0.9689
  547MOL0     H72187  -0.592   9.684   9.459  0.6111 -0.6865 -0.6314
  547MOL0     H72188  -0.267   9.655   9.642  0.4210 -1.5650  2.1683
  547MOL0     H72189  -0.069   9.636   9.804  1.5988  0.1498  0.4984
  547MOL0     H72190   1.261  10.151   8.736  0.2933  1.0014 -1.6912
  547MOL0     H72191   1.472  10.114   8.581  5.3942  1.1440 -0.5722
  547MOL0     H72192   2.098  10.079   8.676 -3.2282 -0.8329  1.0273
  547MOL0     H72193   2.275  10.129   8.514  0.4167 -1.8233 -2.2174
  547MOL0     H72194   2.335  10.089   8.268  0.0850 -0.9980  0.8891
  547MOL0     H72195   2.407  10.210   8.374  0.6664  0.8243  0.1215
  547MOL0     H72196   2.408  10.221   8.056  4.3775  0.5875 -1.9199
  547MOL0     H72197   2.453  10.354   8.154 -0.8274  0.3025  0.0344
  547MOL0     H72198   2.581  10.081   8.127  0.0916  0.1393 -1.7238
  547MOL0     H72199   2.612  10.175   8.270  4.6301 -0.1218 -1.4537
  547MOL0     H72200   2.644  10.275   7.979 -1.3920 -1.3881  0.2158
  547MOL0     H72201   2.697  10.356   8.126  1.0195 -0.3323  0.3366
  547MOL0     H72202   3.001  10.089   8.105  0.1818 -1.9235 -2.4084
  547MOL0     H72203   1.987  10.330   8.265 -1.5046 -0.4493  0.2783
  547MOL0     H72204   1.806  10.285   8.431  0.7022  0.1594  0.4078
  548MOL0     O72205   4.588   9.631   9.757 -0.5391 -0.1540  0.0197
  548MOL0     C72206   4.606   9.744   9.799  0.1993  0.8700 -0.5176
  548MOL0     O72207   4.540   9.849   9.744 -0.2327 -0.4571 -0.4905
  548MOL0     C72208   4.407   9.839   9.699  0.0439 -0.9807 -0.4794
  548MOL0     C72209   4.379   9.913   9.573 -0.1947 -0.2190 -0.3827
  548MOL0     C72210   4.250   9.905   9.528 -1.2285 -0.0408 -0.2100
  548MOL0     C72211   4.158   9.820   9.586 -0.0980  0.9113 -0.3373
  548MOL0     O72212   4.037   9.820   9.522  0.0149 -0.0378  0.0743
  548MOL0     C72213   3.925   9.743   9.577  0.3687  0.0725  0.1430
  548MOL0     C72214   3.806   9.771   9.488  0.1240  0.0586 -0.3003
  548MOL0     C72215   3.674   9.743   9.563  0.0082  0.2500 -0.0514
  548MOL0     C72216   3.654   9.852   9.666 -0.0701 -0.3729  0.4712
  548MOL0     C72217   3.550   9.823   9.772  0.4803  0.5088  0.2966
  548MOL0     C72218   3.532   9.938   9.867  0.6404 -0.9853  0.2616
  548MOL0     C72219   3.440   9.913   9.988 -0.2101 -0.5040 -0.3515
  548MOL0     C72220   3.335  10.030  10.002  0.0572 -0.7277  0.4047
  548MOL0     N72221   3.259  10.023  10.125 -0.3439 -0.3301  0.4193
  548MOL0     C72222   3.255  10.123  10.222 -0.3592  0.5372 -0.6176
  548MOL0     C72223   3.175  10.066  10.320  0.7790 -0.4078  0.4444
  548MOL0     C72224   3.145  10.121  10.452  0.5252 -0.1630 -0.0712
  548MOL0     C72225   3.012  10.191  10.477  0.2151  0.8955 -0.3506
  548MOL0     C72226   2.994  10.323  10.393 -0.8410 -0.3565 -0.1955
  548MOL0     C72227   2.845  10.378  10.410 -0.4125  0.8674 -0.8325
  548MOL0     O72228   2.812  10.420  10.544 -0.1427 -0.1254  0.0293
  548MOL0     C72229   2.681  10.434  10.579  0.5077  0.2386 -0.1693
  548MOL0     C72230   2.571  10.426  10.491  1.0173 -0.6026 -0.8633
  548MOL0     C72231   2.438  10.460  10.524  0.1328 -0.4257  0.7220
  548MOL0     C72232   2.411  10.495  10.659  0.3470 -0.2812 -0.1806
  548MOL0     C72233   2.273  10.526  10.713 -0.9118 -0.2474 -0.3433
  548MOL0     O72234   2.165  10.531  10.630  0.3309  0.8138 -0.7190
  548MOL0     C72235   2.031  10.540  10.674 -0.2431  0.6453 -0.2781
  548MOL0     C72236   1.956  10.630  10.603 -0.2116 -0.0505  0.4576
  548MOL0     C72237   1.819  10.641  10.628 -0.4971  0.2505 -0.1576
  548MOL0     C72238   1.758  10.562  10.726  0.1493 -0.1262 -0.3824
  548MOL0     O72239   1.626  10.543  10.757 -0.5278 -0.8142  0.0892
  548MOL0     C72240   1.525  10.610  10.681  0.9377  0.4827  0.0392
  548MOL0     C72241   1.391  10.601  10.749  0.6755  0.6240 -0.8254
  548MOL0     C72242   1.313  10.469  10.733 -0.3468 -0.3519 -0.2887
  548MOL0     C72243   1.262  10.453  10.599  0.7069  0.4004 -0.3681
  548MOL0     C72244   1.153  10.346  10.573  0.3967  0.1062 -0.7824
  548MOL0     C72245   1.029  10.367  10.659  0.8300  0.4515  0.5138
  548MOL0     C72246   0.909  10.272  10.628  0.1803 -0.1722  0.1253
  548MOL0     C72247   0.818  10.334  10.527  0.6606  0.7976 -0.0100
  548MOL0    Cl72248   0.659  10.252  10.521  0.0128  0.5164 -0.3021
  548MOL0     C72249   1.841  10.484  10.799 -0.2222  0.2121  0.5312
  548MOL0     C72250   1.975  10.467  10.775 -0.3410 -0.3046  0.7589
  548MOL0     O72251   2.260  10.536  10.832  0.1020  0.3503  0.0977
  548MOL0     C72252   2.523  10.500  10.747  1.0425  0.2017  0.5007
  548MOL0     C72253   2.649  10.464  10.709  0.3957  0.2741  0.3912
  548MOL0     N72254   3.115   9.947  10.276 -0.9150 -0.4655  0.5129
  548MOL0     N72255   3.176   9.924  10.162 -0.3510  1.2160 -0.1912
  548MOL0     C72256   4.189   9.750   9.700  0.8444 -0.1612  0.4541
  548MOL0     C72257   4.309   9.760   9.756 -0.2204  0.7007 -0.2019
  548MOL0     C72258   4.695   9.762   9.909 -0.1928  0.0341 -0.7158
  548MOL0     C72259   4.718   9.895   9.950  0.5181 -0.1455 -1.6061
  548MOL0     C72260   4.826   9.913  10.048  0.2145 -0.4194  0.1841
  548MOL0     C72261   4.881   9.799  10.117 -0.5110 -0.3998 -0.1993
  548MOL0     O72262   4.970   9.808  10.218  0.4131  0.1710 -0.3269
  548MOL0     C72263   5.016   9.931  10.278  0.2491  0.0159 -0.2671
  548MOL0     C72264   5.103   9.999  10.170  0.3205 -0.1154 -0.0979
  548MOL0     C72265   5.181  10.124  10.216  0.6903  0.0048  0.2669
  548MOL0     C72266   5.099  10.256  10.191 -0.8861  0.1098  0.3802
  548MOL0     C72267   4.979  10.262  10.268 -0.3656 -0.0425 -0.8451
  548MOL0     C72268   4.892  10.261  10.347 -0.3325 -0.2397 -0.6122
  548MOL0     C72269   4.847   9.670  10.065 -0.0311 -0.7554 -0.2167
  548MOL0     C72270   4.766   9.657   9.960  0.2617 -0.9462  0.6433
  548MOL0     H72271   4.463   9.963   9.526 -0.2388  0.5148  0.2977
  548MOL0     H72272   4.225   9.951   9.433 -1.7318 -0.2392 -0.1796
  548MOL0     H72273   3.895   9.779   9.676 -3.7135  1.6235 -1.4477
  548MOL0     H72274   3.952   9.637   9.573 -2.1085 -0.9131  4.0091
  548MOL0     H72275   3.813   9.703   9.403  0.2127 -0.0842 -0.1809
  548MOL0     H72276   3.807   9.874   9.452 -1.8779  0.4352  0.6081
  548MOL0     H72277   3.681   9.647   9.613 -1.3479  1.0194  1.7317
  548MOL0     H72278   3.586   9.728   9.500 -0.5808 -3.6659  1.4614
  548MOL0     H72279   3.748   9.883   9.711  0.9015  1.9855 -2.8690
  548MOL0     H72280   3.635   9.949   9.619  4.7328  1.8601  2.4837
  548MOL0     H72281   3.569   9.734   9.833 -3.0086  0.5240  1.5985
  548MOL0     H72282   3.459   9.793   9.720  0.4471 -2.2836  1.7826
  548MOL0     H72283   3.492  10.021   9.807  2.6438  1.0979  1.6469
  548MOL0     H72284   3.632   9.969   9.899 -0.2212  1.7903  0.5044
  548MOL0     H72285   3.395   9.814   9.979 -1.3264  0.1073 -1.9045
  548MOL0     H72286   3.513   9.916  10.070  0.4149 -1.2563 -0.8579
  548MOL0     H72287   3.272  10.031   9.912  0.5254  0.1108  0.0737
  548MOL0     H72288   3.389  10.124   9.989  0.3100 -1.1475 -2.2073
  548MOL0     H72289   3.303  10.220  10.219  0.4003  0.1635 -0.7272
  548MOL0     H72290   3.216  10.199  10.478 -1.3933  1.1261  1.6083
  548MOL0     H72291   3.151  10.044  10.529 -0.0014 -2.7263 -2.4215
  548MOL0     H72292   3.019  10.219  10.583 -1.1058 -0.3197  0.0927
  548MOL0     H72293   2.931  10.117  10.477  0.8946  0.0671  1.5632
  548MOL0     H72294   3.068  10.398  10.419  0.4696 -1.0990 -1.6317
  548MOL0     H72295   3.013  10.302  10.287  2.7469 -1.9882  0.6319
  548MOL0     H72296   2.775  10.299  10.379  1.8172 -1.7826  0.4156
  548MOL0     H72297   2.838  10.469  10.350 -1.7055  2.6816  1.8525
  548MOL0     H72298   2.594  10.407  10.387  2.1334 -0.7729 -0.5886
  548MOL0     H72299   2.366  10.465  10.443  1.3898 -0.0334 -0.4157
  548MOL0     H72300   2.008  10.697  10.535  1.3539 -0.7830  0.8889
  548MOL0     H72301   1.756  10.711  10.573  0.7079  0.1721 -1.7067
  548MOL0     H72302   1.525  10.557  10.586  3.4473  0.2893  0.0731
  548MOL0     H72303   1.554  10.714  10.662 -0.4032  0.9499  0.4347
  548MOL0     H72304   1.335  10.677  10.694 -1.4523 -0.8517 -0.8075
  548MOL0     H72305   1.396  10.627  10.856  2.9190 -1.3583 -0.3766
  548MOL0     H72306   1.243  10.460  10.816 -0.1740 -0.4748 -0.1534
  548MOL0     H72307   1.389  10.390  10.741 -0.7006 -0.5862  0.8744
  548MOL0     H72308   1.220  10.544  10.555  0.3873  0.1306 -0.6362
  548MOL0     H72309   1.343  10.425  10.531  1.9249  4.0379 -0.6008
  548MOL0     H72310   1.197  10.247  10.587  1.8566  0.9732  1.3016
  548MOL0     H72311   1.131  10.351  10.466 -2.0198 -2.3264 -0.4998
  548MOL0     H72312   1.003  10.473  10.654 -2.1630 -0.1480  1.3657
  548MOL0     H72313   1.042  10.341  10.765 -1.6219  2.3845  1.4091
  548MOL0     H72314   0.940  10.180  10.578 -2.0720  0.2931 -2.3827
  548MOL0     H72315   0.863  10.246  10.724  1.2185 -2.1825  0.1274
  548MOL0     H72316   0.861  10.332  10.426  2.1864 -1.1704  0.6239
  548MOL0     H72317   0.798  10.433  10.569  0.4849 -0.6738  3.8088
  548MOL0     H72318   1.795  10.418  10.871 -3.2039  1.6386  0.0719
  548MOL0     H72319   2.033  10.388  10.821 -0.2198 -1.5075 -1.3057
  548MOL0     H72320   2.504  10.527  10.851  0.3435  2.4713 -0.1684
  548MOL0     H72321   2.727  10.454  10.785 -0.3190 -2.1615  0.8681
  548MOL0     H72322   4.118   9.687   9.753  2.0101  0.0910  2.4111
  548MOL0     H72323   4.329   9.696   9.841  0.0625 -1.0640 -1.5524
  548MOL0     H72324   4.660   9.983   9.923  0.8433  1.4701  2.3116
  548MOL0     H72325   4.846  10.010  10.092  2.3406 -0.0643 -1.3803
  548MOL0     H72326   5.089   9.902  10.354  1.1392 -3.3721 -2.2092
  548MOL0     H72327   4.939   9.997  10.318  2.3264  2.2318  0.2709
  548MOL0     H72328   5.193   9.938  10.159  1.0032  0.9404 -0.5700
  548MOL0     H72329   5.055  10.024  10.075  0.5067 -1.6490 -0.6169
  548MOL0     H72330   5.275  10.130  10.162  0.0606  2.9354 -0.7030
  548MOL0     H72331   5.214  10.106  10.319 -0.9322 -0.1819  0.7963
  548MOL0     H72332   5.166  10.342  10.199  0.6141 -1.0062  0.3284
  548MOL0     H72333   5.066  10.262  10.086  0.7347  0.6719 -0.1275
  548MOL0     H72334   4.830  10.257  10.435  2.7320 -1.9279  1.6882
  548MOL0     H72335   4.877   9.577  10.112  1.1107 -0.1978  0.1828
  548MOL0     H72336   4.755   9.554   9.927 -0.3516 -0.5974 -0.2798
  549MOL0     O72337  10.373   4.781   4.830 -0.8183 -0.0957  0.5749
  549MOL0     C72338  10.429   4.693   4.900  0.6238  0.1717 -0.0252
  549MOL0     O72339  10.361   4.617   4.988 -0.3142 -0.1787  0.1376
  549MOL0     C72340  10.238   4.652   5.018  0.1989  0.0818  0.1314
  549MOL0     C72341  10.202   4.767   5.095  0.1743  0.1233 -0.6750
  549MOL0     C72342  10.065   4.794   5.131 -0.0199 -0.7437 -0.7636
  549MOL0     C72343   9.964   4.724   5.081  0.6007  0.1503  0.9217
  549MOL0     O72344   9.835   4.749   5.112  0.3231  0.1001  0.2805
  549MOL0     C72345   9.785   4.661   5.217  0.9555  0.3030 -0.0988
  549MOL0     C72346   9.630   4.646   5.234 -0.4986 -0.4614 -0.0329
  549MOL0     C72347   9.601   4.545   5.342  0.3670 -0.0375  1.2479
  549MOL0     C72348   9.446   4.527   5.361  0.6765  0.1728  0.2698
  549MOL0     C72349   9.392   4.407   5.274 -0.5535 -0.4125  0.2846
  549MOL0     C72350   9.240   4.363   5.279  0.1188  0.1653  0.7833
  549MOL0     C72351   9.190   4.324   5.421 -0.1879 -0.5654  0.6423
  549MOL0     C72352   9.062   4.251   5.412  0.5355 -0.2369 -0.4303
  549MOL0     N72353   9.055   4.140   5.307 -0.5090  0.4203 -0.0552
  549MOL0     C72354   9.122   4.015   5.304 -0.1392  0.9899  0.5311
  549MOL0     C72355   9.076   3.952   5.188  0.2408  0.3969 -0.6905
  549MOL0     C72356   9.109   3.818   5.132 -0.2217 -0.0437 -0.2235
  549MOL0     C72357   9.203   3.828   5.013 -0.4539  0.3102 -0.0315
  549MOL0     C72358   9.245   3.684   4.973  0.7818 -0.5773  0.8853
  549MOL0     C72359   9.377   3.642   5.038  0.7236 -0.0308 -0.1603
  549MOL0     O72360   9.411   3.517   4.985 -0.2804  0.5297 -0.8307
  549MOL0     C72361   9.541   3.475   5.009  0.9176 -0.0065 -0.3584
  549MOL0     C72362   9.583   3.458   5.143  0.5252  0.5768 -0.2080
  549MOL0     C72363   9.714   3.410   5.160 -0.3330 -0.3776  0.2594
  549MOL0     C72364   9.808   3.390   5.056  0.1165  0.0123  0.4524
  549MOL0     C72365   9.954   3.363   5.080  1.3388 -0.0687 -0.3190
  549MOL0     O72366  10.032   3.359   4.967  0.1811 -0.3291  0.0472
  549MOL0     C72367  10.166   3.329   4.965 -0.2819  0.1034 -0.8473
  549MOL0     C72368  10.225   3.258   4.856  0.9565 -0.9398 -0.2537
  549MOL0     C72369  10.355   3.230   4.853  0.7083 -0.7731  1.1196
  549MOL0     C72370  10.432   3.267   4.960  0.1360  0.0991  0.7609
  549MOL0     O72371  10.552   3.214   4.953 -0.0777  0.0276 -0.4335
  549MOL0     C72372  10.660   3.288   5.007 -0.3008  0.4194 -0.5807
  549MOL0     C72373  10.786   3.216   4.956 -0.7179  0.3079  0.8451
  549MOL0     C72374  10.799   3.219   4.802  0.6397 -0.1524 -0.1218
  549MOL0     C72375  10.920   3.133   4.761  0.3603 -0.7866  0.4040
  549MOL0     C72376  10.891   3.095   4.606 -0.1493 -0.4097 -0.3672
  549MOL0     C72377  11.025   3.040   4.546 -0.0972  1.0822  0.0386
  549MOL0     C72378  11.100   2.934   4.624 -0.0207 -0.4993  0.7336
  549MOL0     C72379  11.206   2.858   4.540  0.0519  0.5482  0.3175
  549MOL0    Cl72380  11.127   2.757   4.425  0.2228  0.4010  0.0877
  549MOL0     C72381  10.384   3.345   5.063  0.0025 -0.9395  1.1165
  549MOL0     C72382  10.247   3.375   5.065  0.0196 -0.3903 -0.1332
  549MOL0     O72383   9.984   3.336   5.196 -0.6850  0.3154  1.2548
  549MOL0     C72384   9.764   3.414   4.926 -0.4538 -0.1008 -0.1348
  549MOL0     C72385   9.628   3.452   4.904 -0.1888  0.4144  0.0424
  549MOL0     N72386   8.983   4.033   5.130 -0.0690  0.6485  0.7740
  549MOL0     N72387   8.973   4.151   5.195 -0.6540 -0.0094 -0.0675
  549MOL0     C72388   9.995   4.607   5.013 -0.3759  0.1879  1.0850
  549MOL0     C72389  10.128   4.571   4.980 -0.0017  0.3032  0.4968
  549MOL0     C72390  10.575   4.664   4.886  0.5236 -1.0786 -0.2675
  549MOL0     C72391  10.636   4.540   4.932 -0.3714 -0.5004  0.4596
  549MOL0     C72392  10.766   4.511   4.927 -0.1572  0.1271 -0.0700
  549MOL0     C72393  10.850   4.601   4.869  0.1498  0.6948  0.2792
  549MOL0     O72394  10.988   4.571   4.865  0.1399  0.2746 -0.1951
  549MOL0     C72395  11.080   4.682   4.865  0.3778 -0.6533 -0.6038
  549MOL0     C72396  11.214   4.617   4.879 -0.4643 -0.1412 -0.2108
  549MOL0     C72397  11.316   4.726   4.890  1.0086 -0.1732 -0.0039
  549MOL0     C72398  11.460   4.674   4.906 -0.1834  0.2650 -1.4015
  549MOL0     C72399  11.549   4.785   4.874 -0.6317 -0.3368 -0.7811
  549MOL0     C72400  11.631   4.878   4.863  0.9708 -0.0142 -0.6498
  549MOL0     C72401  10.795   4.720   4.817 -0.7132  0.7147 -0.1746
  549MOL0     C72402  10.666   4.757   4.831  0.4384  0.0667  0.9923
  549MOL0     H72403  10.286   4.828   5.127 -0.5298 -0.0332  1.6463
  549MOL0     H72404  10.041   4.871   5.204  0.5768 -0.4097 -0.9118
  549MOL0     H72405   9.836   4.684   5.311  2.5554 -1.8692 -0.3585
  549MOL0     H72406   9.818   4.558   5.205 -2.4730 -1.5090  3.6249
  549MOL0     H72407   9.584   4.622   5.138 -1.0234  0.8798 -0.1432
  549MOL0     H72408   9.600   4.743   5.276 -2.1626 -1.1362  0.4028
  549MOL0     H72409   9.641   4.590   5.433 -0.3495  1.3757  0.8884
  549MOL0     H72410   9.655   4.452   5.325 -0.2103  0.1813 -2.6051
  549MOL0     H72411   9.434   4.501   5.467 -0.6971 -0.5382 -0.0394
  549MOL0     H72412   9.390   4.618   5.337 -0.9168 -0.1661  2.3680
  549MOL0     H72413   9.450   4.316   5.294 -0.6386 -0.3387  0.8823
  549MOL0     H72414   9.417   4.443   5.174  1.6241  0.5062  1.0840
  549MOL0     H72415   9.223   4.284   5.204 -1.5543  0.6962  0.5576
  549MOL0     H72416   9.176   4.445   5.245 -3.0116 -1.3855  2.4863
  549MOL0     H72417   9.266   4.257   5.459 -0.0702 -1.0953 -0.4749
  549MOL0     H72418   9.185   4.411   5.487  0.0852 -1.3872  1.7710
  549MOL0     H72419   8.979   4.318   5.388  1.5273  0.4721 -2.0236
  549MOL0     H72420   9.049   4.190   5.502 -0.2144 -0.9543 -1.0009
  549MOL0     H72421   9.205   3.983   5.367  0.2375  0.2673 -0.3078
  549MOL0     H72422   9.013   3.774   5.104  1.2361 -1.9952 -2.5248
  549MOL0     H72423   9.147   3.749   5.209 -2.4993 -0.5184  0.5578
  549MOL0     H72424   9.293   3.889   5.025  1.9313 -1.6043 -5.5019
  549MOL0     H72425   9.155   3.883   4.932  0.0714  1.5089  0.4498
  549MOL0     H72426   9.177   3.610   5.016  3.9252 -3.8351  0.7947
  549MOL0     H72427   9.247   3.666   4.865  0.3616 -1.9676  1.0939
  549MOL0     H72428   9.368   3.639   5.147  1.4792  1.0505 -0.0422
  549MOL0     H72429   9.450   3.720   5.014  0.3000  0.9913  1.7215
  549MOL0     H72430   9.517   3.456   5.229  2.5190  1.2443  1.4065
  549MOL0     H72431   9.751   3.390   5.260 -0.0597  0.8602  0.4251
  549MOL0     H72432  10.163   3.236   4.770 -0.8987  2.6279 -0.0091
  549MOL0     H72433  10.412   3.175   4.779  1.9722  0.3374  1.2331
  549MOL0     H72434  10.664   3.287   5.117  0.5598  0.6460 -0.6008
  549MOL0     H72435  10.654   3.393   4.976 -2.4748 -0.4036 -3.2929
  549MOL0     H72436  10.785   3.114   4.996 -0.2915 -0.8530 -1.8715
  549MOL0     H72437  10.871   3.269   5.001  1.4501 -3.0777  1.0394
  549MOL0     H72438  10.816   3.319   4.761 -1.4568 -0.0113 -0.7550
  549MOL0     H72439  10.709   3.178   4.755  0.5731 -2.1361  1.5806
  549MOL0     H72440  11.011   3.193   4.768  0.2238 -0.4269 -0.6819
  549MOL0     H72441  10.937   3.038   4.812 -0.7710 -1.4871 -0.4605
  549MOL0     H72442  10.857   3.179   4.545 -0.8756 -3.2497 -4.2014
  549MOL0     H72443  10.815   3.018   4.591  1.6440 -2.3762  0.2110
  549MOL0     H72444  11.097   3.119   4.526  0.8343 -0.2938 -2.4430
  549MOL0     H72445  11.005   2.994   4.448  2.1560 -0.3621  0.1955
  549MOL0     H72446  11.139   2.987   4.712 -1.0575  2.0678 -0.2518
  549MOL0     H72447  11.029   2.861   4.662 -1.2034 -0.6958 -1.7383
  549MOL0     H72448  11.260   2.786   4.603 -1.4335  0.6233  1.7637
  549MOL0     H72449  11.263   2.934   4.487 -1.9356 -0.3437 -3.5074
  549MOL0     H72450  10.447   3.389   5.138 -0.6031  0.2544  0.9400
  549MOL0     H72451  10.206   3.432   5.148  5.4579  1.1357  1.9458
  549MOL0     H72452   9.831   3.409   4.841 -1.7945  0.1629 -1.2188
  549MOL0     H72453   9.593   3.455   4.802  2.0388  2.2817 -0.7645
  549MOL0     H72454   9.914   4.539   4.990 -0.5615  1.2372 -1.7244
  549MOL0     H72455  10.151   4.480   4.925  1.1157  1.2879 -0.7226
  549MOL0     H72456  10.564   4.466   4.966 -0.2555 -1.2845 -0.9523
  549MOL0     H72457  10.804   4.416   4.962 -1.4024 -0.0400  0.9025
  549MOL0     H72458  11.062   4.755   4.945 -0.5721  0.9474 -2.2041
  549MOL0     H72459  11.074   4.744   4.775  0.3227 -1.5605 -1.2360
  549MOL0     H72460  11.216   4.558   4.971  0.8847 -0.4234 -0.3982
  549MOL0     H72461  11.245   4.556   4.794  2.6226  0.1015  0.6225
  549MOL0     H72462  11.289   4.788   4.976  2.0031 -0.1972  0.3441
  549MOL0     H72463  11.306   4.788   4.800  0.0801  0.1592  0.3216
  549MOL0     H72464  11.480   4.642   5.009  1.6370  3.4982 -0.6143
  549MOL0     H72465  11.481   4.591   4.838  0.0253  1.4473 -2.8259
  549MOL0     H72466  11.686   4.969   4.849  0.1076  0.7422  0.5965
  549MOL0     H72467  10.858   4.797   4.773  1.4561 -0.5040  0.6475
  549MOL0     H72468  10.629   4.851   4.789 -1.8304 -0.2906  2.0271
  550MOL0     O72469   5.315   2.774   0.669  0.4179 -0.3056  0.2778
  550MOL0     C72470   5.324   2.669   0.603  0.4241  0.5149 -0.7750
  550MOL0     O72471   5.220   2.601   0.555  0.2917  0.5859 -0.0694
  550MOL0     C72472   5.107   2.677   0.536  0.4763 -0.0659 -1.2687
  550MOL0     C72473   5.052   2.721   0.409 -0.7605  0.6709 -0.1216
  550MOL0     C72474   4.917   2.758   0.395  0.0712 -0.5805 -0.5197
  550MOL0     C72475   4.834   2.781   0.498  0.3976 -0.1027  0.2917
  550MOL0     O72476   4.706   2.824   0.470 -0.1048 -0.0775 -0.4148
  550MOL0     C72477   4.613   2.835   0.582  0.0647  1.3178 -0.1349
  550MOL0     C72478   4.492   2.911   0.542 -0.4233 -0.4954 -0.5420
  550MOL0     C72479   4.397   2.829   0.464 -0.1343 -0.8827 -0.3223
  550MOL0     C72480   4.267   2.912   0.432  0.5966  0.7879 -0.2561
  550MOL0     C72481   4.152   2.840   0.363  0.3549  0.0471 -0.1491
  550MOL0     C72482   4.058   2.761   0.457  0.5057  0.1072 -0.3348
  550MOL0     C72483   3.990   2.651   0.371 -0.1160 -0.1501  0.6624
  550MOL0     C72484   3.911   2.711   0.259 -0.0463 -0.0626 -0.1542
  550MOL0     N72485   3.823   2.614   0.199  0.0480  0.2767  0.1320
  550MOL0     C72486   3.685   2.598   0.225 -0.5401 -0.2056 -0.5878
  550MOL0     C72487   3.641   2.512   0.128  0.2046  0.1519 -0.1114
  550MOL0     C72488   3.504   2.456   0.127  0.1801  0.4076  0.2928
  550MOL0     C72489   3.407   2.570   0.156 -0.1299 -0.2899 -0.0586
  550MOL0     C72490   3.278   2.510   0.210  0.0677 -0.5904  0.3122
  550MOL0     C72491   3.174   2.616   0.262 -0.5783  0.4320  0.5497
  550MOL0     O72492   3.050   2.552   0.291  0.0242 -0.6367  0.4009
  550MOL0     C72493   2.929   2.621   0.265  0.3757  0.1128  1.1264
  550MOL0     C72494   2.811   2.553   0.308  0.5229 -0.4466  0.0755
  550MOL0     C72495   2.682   2.608   0.304 -0.3207  0.6284 -0.5773
  550MOL0     C72496   2.669   2.742   0.257  0.2199  1.2112  0.0903
  550MOL0     C72497   2.545   2.811   0.244 -0.5981  0.2565 -0.5647
  550MOL0     O72498   2.448   2.781   0.339 -0.3429 -0.6458 -0.3813
  550MOL0     C72499   2.314   2.819   0.314 -0.3684  0.5361  0.0156
  550MOL0     C72500   2.259   2.952   0.306 -1.1914  0.2503 -0.0823
  550MOL0     C72501   2.122   2.975   0.304 -0.9344  0.0531  0.2444
  550MOL0     C72502   2.033   2.872   0.315  0.1605 -0.0409  0.1219
  550MOL0     O72503   1.891   2.902   0.315 -0.7810 -0.2427  0.4589
  550MOL0     C72504   1.832   3.005   0.235  0.5405 -0.4282  0.3883
  550MOL0     C72505   1.682   2.988   0.250  0.1905 -0.0491 -0.0179
  550MOL0     C72506   1.610   2.862   0.195  0.2510  0.5479 -0.5738
  550MOL0     C72507   1.462   2.867   0.231  0.3147 -0.3401  1.1089
  550MOL0     C72508   1.387   2.747   0.147 -0.0647 -0.6848  0.4714
  550MOL0     C72509   1.258   2.722   0.210  0.4737 -0.9109  0.0716
  550MOL0     C72510   1.203   2.588   0.156  0.1054 -0.0856 -0.1211
  550MOL0     C72511   1.140   2.602   0.016 -0.0227 -0.4585  0.6785
  550MOL0    Cl72512   1.051   2.465  -0.043 -0.0596  0.0183 -0.1127
  550MOL0     C72513   2.081   2.740   0.324  0.1068 -0.0372 -0.1056
  550MOL0     C72514   2.220   2.710   0.320  0.3911  0.0913 -0.6251
  550MOL0     O72515   2.535   2.885   0.142  0.1369  1.0367  0.0886
  550MOL0     C72516   2.784   2.813   0.225 -0.5286 -0.1668 -0.0356
  550MOL0     C72517   2.918   2.757   0.240  0.0677 -0.7224  0.7974
  550MOL0     N72518   3.744   2.492   0.039  0.3377 -0.2949 -0.1741
  550MOL0     N72519   3.844   2.559   0.070 -0.0955 -0.3688 -0.2114
  550MOL0     C72520   4.886   2.759   0.631 -0.2157 -0.0918 -0.2890
  550MOL0     C72521   5.016   2.700   0.645  0.0950  0.0182 -0.1014
  550MOL0     C72522   5.462   2.611   0.584  0.0675  0.3672 -0.1220
  550MOL0     C72523   5.482   2.502   0.501  0.2484  0.6342  0.0430
  550MOL0     C72524   5.601   2.435   0.474  0.3143 -0.1192 -0.6652
  550MOL0     C72525   5.714   2.489   0.534 -0.0350  0.6889 -0.1403
  550MOL0     O72526   5.842   2.441   0.518 -0.5906 -0.5362  0.4637
  550MOL0     C72527   5.855   2.303   0.477  0.1750 -1.0443  0.4452
  550MOL0     C72528   6.006   2.271   0.509  0.3120 -0.2266 -0.1869
  550MOL0     C72529   6.027   2.286   0.657 -0.7641 -0.3925 -0.1271
  550MOL0     C72530   6.110   2.172   0.712  0.1360 -0.5830 -0.7733
  550MOL0     C72531   6.043   2.040   0.703 -0.1724 -0.2224  0.3004
  550MOL0     C72532   6.001   1.927   0.693  0.5151 -0.0244  0.8575
  550MOL0     C72533   5.698   2.601   0.620  0.1518 -0.3815 -0.3753
  550MOL0     C72534   5.574   2.667   0.640  0.7424 -1.0410  0.8845
  550MOL0     H72535   5.119   2.702   0.326  3.2974  2.3673  2.4251
  550MOL0     H72536   4.874   2.751   0.296  3.4110  0.1261 -2.1543
  550MOL0     H72537   4.655   2.888   0.668  1.4885  1.9152 -1.1639
  550MOL0     H72538   4.572   2.738   0.613  2.0954  0.0486 -1.1710
  550MOL0     H72539   4.510   3.008   0.494 -1.1319  0.2757  0.6745
  550MOL0     H72540   4.442   2.932   0.638  1.5938  0.8561  0.2743
  550MOL0     H72541   4.380   2.738   0.521  0.3736 -0.7688  0.0072
  550MOL0     H72542   4.438   2.795   0.368  1.8580 -0.9809  0.5227
  550MOL0     H72543   4.219   2.957   0.520  0.3696  0.1876 -0.0637
  550MOL0     H72544   4.297   3.000   0.375  2.2090  2.1297  2.4613
  550MOL0     H72545   4.191   2.773   0.286 -1.6217  1.1997 -2.2622
  550MOL0     H72546   4.094   2.919   0.316 -0.9371 -0.4018  0.6439
  550MOL0     H72547   3.990   2.828   0.510  0.6834  1.4505 -1.7490
  550MOL0     H72548   4.120   2.706   0.529  2.1484  0.8680 -1.1298
  550MOL0     H72549   4.072   2.588   0.334 -1.7990 -0.9089 -2.0921
  550MOL0     H72550   3.929   2.581   0.429 -1.0148  2.2685  2.8081
  550MOL0     H72551   3.970   2.758   0.180 -0.0733 -0.4773 -0.4251
  550MOL0     H72552   3.848   2.786   0.307 -2.5911 -1.3106 -1.3842
  550MOL0     H72553   3.637   2.645   0.310 -2.3943 -0.0845 -1.6638
  550MOL0     H72554   3.507   2.373   0.198 -0.2844 -0.1503 -0.3304
  550MOL0     H72555   3.482   2.411   0.030  2.0328 -0.7651  0.3757
  550MOL0     H72556   3.391   2.631   0.067 -3.3457  2.6177  2.2369
  550MOL0     H72557   3.457   2.640   0.223  0.1485 -0.3027 -0.2538
  550MOL0     H72558   3.226   2.447   0.136  2.0135  0.6398 -2.2705
  550MOL0     H72559   3.300   2.447   0.296  0.5030  1.6314  1.9296
  550MOL0     H72560   3.157   2.693   0.187 -2.8488 -2.0496 -1.6902
  550MOL0     H72561   3.217   2.663   0.351 -0.5436  3.1906 -0.8033
  550MOL0     H72562   2.836   2.456   0.351  0.4451 -0.1867  0.7117
  550MOL0     H72563   2.601   2.548   0.341  1.4269 -0.2902  2.0783
  550MOL0     H72564   2.316   3.043   0.299  1.0196 -0.8753  1.9634
  550MOL0     H72565   2.091   3.079   0.304 -0.9036  0.0970  2.3212
  550MOL0     H72566   1.860   2.994   0.130 -2.4191  0.9848 -0.6572
  550MOL0     H72567   1.875   3.100   0.266  0.9408 -1.0466  1.8050
  550MOL0     H72568   1.639   3.072   0.194  2.3826 -0.7693 -3.0511
  550MOL0     H72569   1.660   2.991   0.357  0.2548 -0.2441  0.0021
  550MOL0     H72570   1.655   2.768   0.228 -1.3284 -0.6941 -1.7634
  550MOL0     H72571   1.622   2.855   0.086 -2.2776 -2.6617 -0.7828
  550MOL0     H72572   1.450   2.865   0.339 -1.8698  0.6183  0.9261
  550MOL0     H72573   1.422   2.963   0.197  0.9473 -0.0602  1.1304
  550MOL0     H72574   1.437   2.651   0.165  1.4409  0.1733  1.0984
  550MOL0     H72575   1.385   2.764   0.039  2.6356 -1.8548  0.1512
  550MOL0     H72576   1.194   2.811   0.205  2.5047  0.6556  0.4193
  550MOL0     H72577   1.280   2.698   0.314  2.9737  0.5446 -0.0277
  550MOL0     H72578   1.285   2.516   0.157 -0.8279 -1.2418 -2.2393
  550MOL0     H72579   1.126   2.555   0.226  0.1205  2.2427  1.1105
  550MOL0     H72580   1.224   2.629  -0.049 -1.7304  1.0815 -1.0087
  550MOL0     H72581   1.078   2.692   0.012  2.1464  1.0986  0.4170
  550MOL0     H72582   2.006   2.663   0.340 -1.5612  1.8243  1.5741
  550MOL0     H72583   2.263   2.611   0.331 -2.1994 -0.8218  3.3410
  550MOL0     H72584   2.783   2.920   0.205 -1.3238  0.1971  1.8045
  550MOL0     H72585   3.009   2.815   0.227  0.4918 -1.0756  2.0428
  550MOL0     H72586   4.824   2.772   0.719  2.5941  0.6177  1.7235
  550MOL0     H72587   5.060   2.666   0.738  0.1338 -0.9702 -0.4769
  550MOL0     H72588   5.394   2.464   0.448  1.6910 -1.4372 -1.0321
  550MOL0     H72589   5.595   2.358   0.398 -1.0996 -0.1797 -0.5116
  550MOL0     H72590   5.845   2.298   0.368  0.4620 -1.0511  0.4185
  550MOL0     H72591   5.778   2.249   0.533  1.1221 -1.8680  0.9921
  550MOL0     H72592   6.022   2.167   0.476  4.4994  0.1216  0.2465
  550MOL0     H72593   6.073   2.337   0.452  0.1070  0.2451  0.1174
  550MOL0     H72594   5.938   2.293   0.720 -0.4936  2.3286  0.0860
  550MOL0     H72595   6.082   2.379   0.675 -0.3501 -0.2525 -1.8807
  550MOL0     H72596   6.199   2.154   0.651  0.3763 -3.5732  0.3037
  550MOL0     H72597   6.133   2.197   0.816 -0.8299  1.2925 -0.9601
  550MOL0     H72598   5.951   1.832   0.689 -1.3384  0.9390 -1.3041
  550MOL0     H72599   5.789   2.644   0.662 -0.5261 -0.1617  0.9212
  550MOL0     H72600   5.570   2.757   0.701 -1.3241  0.0435 -0.7358
  551MOL0     O72601   8.418   2.064  10.481 -0.1103  0.5775 -0.4353
  551MOL0     C72602   8.461   2.112  10.584  0.2308 -0.3672  0.1195
  551MOL0     O72603   8.387   2.120  10.708 -0.9225 -0.0028  0.7748
  551MOL0     C72604   8.252   2.112  10.711 -0.2508 -0.2293  0.4393
  551MOL0     C72605   8.166   2.158  10.601 -1.4612  0.6314 -0.5404
  551MOL0     C72606   8.025   2.135  10.591  0.1056 -0.7766  0.6316
  551MOL0     C72607   7.964   2.080  10.698 -0.2469  0.3079  0.4786
  551MOL0     O72608   7.831   2.075  10.688 -0.3631 -0.7921  0.6997
  551MOL0     C72609   7.749   2.056  10.798  0.0347 -0.1618 -0.4433
  551MOL0     C72610   7.607   2.065  10.741  0.2311  0.2435  0.7080
  551MOL0     C72611   7.499   2.036  10.849 -0.9887 -0.5797 -0.1413
  551MOL0     C72612   7.353   2.054  10.803 -0.0704 -1.0533 -0.1464
  551MOL0     C72613   7.298   1.960  10.700 -0.7177 -0.2539  0.0298
  551MOL0     C72614   7.168   2.001  10.644  0.4616 -0.5718  0.6439
  551MOL0     C72615   7.061   2.023  10.751  1.1153  0.0331  0.1718
  551MOL0     C72616   6.930   2.042  10.684  0.6756  0.3495 -0.4110
  551MOL0     N72617   6.823   2.073  10.786 -0.2064 -0.4073  0.6290
  551MOL0     C72618   6.815   2.179  10.876 -0.0329  0.6511 -0.5838
  551MOL0     C72619   6.704   2.145  10.957  0.3815 -0.3336  0.4493
  551MOL0     C72620   6.650   2.220  11.075  0.0194  0.5464 -0.1996
  551MOL0     C72621   6.753   2.311  11.134  0.4240 -0.4581  0.5002
  551MOL0     C72622   6.712   2.391  11.254 -0.0526 -1.0284 -0.6799
  551MOL0     C72623   6.588   2.484  11.240 -0.6036 -0.5149  0.0609
  551MOL0     O72624   6.563   2.535  11.367  0.1080  0.5882 -0.0346
  551MOL0     C72625   6.477   2.631  11.405 -0.3480 -1.1658 -0.1067
  551MOL0     C72626   6.388   2.694  11.322  0.1842  0.8328  0.4727
  551MOL0     C72627   6.281   2.766  11.386 -0.3020 -0.0466  0.7232
  551MOL0     C72628   6.275   2.791  11.519 -0.5518  0.2353  0.5786
  551MOL0     C72629   6.158   2.856  11.586 -0.8672 -1.1114  0.4821
  551MOL0     O72630   6.065   2.927  11.511  0.1025  0.8021  0.2595
  551MOL0     C72631   5.962   2.984  11.578  0.4567 -1.3329 -1.0449
  551MOL0     C72632   5.849   2.904  11.620 -0.4647  0.3306 -0.4421
  551MOL0     C72633   5.744   2.958  11.693  0.0962  1.0215 -0.2583
  551MOL0     C72634   5.752   3.093  11.725 -0.5676  0.0087 -0.3810
  551MOL0     O72635   5.656   3.163  11.798 -0.4964 -0.2626  0.3419
  551MOL0     C72636   5.578   3.082  11.898  0.4831 -0.2635  0.0569
  551MOL0     C72637   5.579   3.152  12.032 -0.0814  0.4585 -0.2336
  551MOL0     C72638   5.726   3.151  12.091  0.0857  0.5899  0.8205
  551MOL0     C72639   5.733   3.239  12.225  0.2847 -0.0100 -0.5429
  551MOL0     C72640   5.880   3.274  12.244  0.0541  0.9497  0.0313
  551MOL0     C72641   5.905   3.374  12.352 -0.5046  0.2117  0.3995
  551MOL0     C72642   6.063   3.364  12.384 -0.1701 -0.6262 -0.3466
  551MOL0     C72643   6.099   3.470  12.491 -0.4829  0.1335  0.8500
  551MOL0    Cl72644   6.021   3.415  12.641  0.1587 -0.6550 -0.6292
  551MOL0     C72645   5.869   3.166  11.702 -0.3612  0.1491 -0.8550
  551MOL0     C72646   5.978   3.115  11.627  0.0276  0.3851 -0.1099
  551MOL0     O72647   6.152   2.840  11.707  0.7057  0.6443 -0.0509
  551MOL0     C72648   6.372   2.727  11.604 -0.1178  0.1261  0.3144
  551MOL0     C72649   6.474   2.645  11.544  0.4988 -0.6161  0.7695
  551MOL0     N72650   6.646   2.030  10.905 -0.6234  0.2368 -0.1072
  551MOL0     N72651   6.713   1.987  10.807 -0.2764  0.0346 -0.2988
  551MOL0     C72652   8.036   2.031  10.809  0.9665 -0.1584  0.8902
  551MOL0     C72653   8.179   2.058  10.814  0.0506  0.6945  0.2415
  551MOL0     C72654   8.597   2.150  10.588  0.5769  0.2824  0.6803
  551MOL0     C72655   8.657   2.171  10.712  0.1365 -0.1408 -0.5019
  551MOL0     C72656   8.790   2.222  10.721 -0.3513  0.4605  0.7224
  551MOL0     C72657   8.864   2.254  10.607  0.1164  1.0283 -0.1167
  551MOL0     O72658   8.986   2.297  10.631  0.0961 -0.5399  0.7277
  551MOL0     C72659   9.084   2.322  10.533  0.2291  0.5999  0.3368
  551MOL0     C72660   9.216   2.361  10.594  0.2917  0.5530 -0.6828
  551MOL0     C72661   9.334   2.382  10.499  0.4782  0.8965 -0.1796
  551MOL0     C72662   9.470   2.415  10.569  0.5655 -0.3191  0.8649
  551MOL0     C72663   9.516   2.315  10.661  0.2852 -0.2114  0.7443
  551MOL0     C72664   9.546   2.229  10.743 -0.8333  0.1855  0.4805
  551MOL0     C72665   8.800   2.228  10.487 -0.0602 -0.4481  0.4027
  551MOL0     C72666   8.670   2.175  10.475 -0.2269 -1.0192  0.5360
  551MOL0     H72667   8.222   2.208  10.523  0.9814 -0.3044  0.5245
  551MOL0     H72668   7.974   2.179  10.506 -0.3073  1.7898  2.0953
  551MOL0     H72669   7.764   2.132  10.875 -1.8978  0.2360 -0.4091
  551MOL0     H72670   7.768   1.955  10.836 -1.9257 -1.4754 -2.7060
  551MOL0     H72671   7.593   1.997  10.656 -3.2906 -0.3219  1.5400
  551MOL0     H72672   7.594   2.167  10.704 -0.2597 -0.6739 -1.8348
  551MOL0     H72673   7.513   2.115  10.924  1.2069 -2.9891  2.2212
  551MOL0     H72674   7.517   1.939  10.896 -2.3930 -0.4436  0.7317
  551MOL0     H72675   7.292   2.045  10.893  2.9948 -0.1475  2.1601
  551MOL0     H72676   7.333   2.157  10.773  2.4411 -0.2172  0.8187
  551MOL0     H72677   7.280   1.855  10.723 -3.9553 -0.1423 -1.4846
  551MOL0     H72678   7.369   1.961  10.617 -2.2348 -1.1460 -1.3241
  551MOL0     H72679   7.138   1.922  10.575 -0.1811  0.2826 -0.0736
  551MOL0     H72680   7.173   2.097  10.591  1.0269  0.7944  3.0142
  551MOL0     H72681   7.056   1.939  10.821  0.1768 -1.7155 -1.8695
  551MOL0     H72682   7.083   2.109  10.814  1.5550 -0.9223  1.3665
  551MOL0     H72683   6.903   1.945  10.639  2.7199 -1.1706  1.3991
  551MOL0     H72684   6.935   2.114  10.602  0.2080  0.5768 -0.2404
  551MOL0     H72685   6.893   2.254  10.889  2.6831 -1.7190 -2.0011
  551MOL0     H72686   6.613   2.143  11.143 -2.0725 -2.7832 -4.5553
  551MOL0     H72687   6.562   2.279  11.050  0.4953  1.5494  0.4338
  551MOL0     H72688   6.794   2.378  11.058  2.4335 -2.5549 -0.3736
  551MOL0     H72689   6.840   2.256  11.171  0.3149  0.3377  2.0000
  551MOL0     H72690   6.701   2.332  11.345 -0.6624 -0.2227 -0.2207
  551MOL0     H72691   6.798   2.456  11.272 -0.6733 -0.6671  1.1784
  551MOL0     H72692   6.501   2.421  11.215  0.1132 -1.2421 -0.6512
  551MOL0     H72693   6.605   2.565  11.169  0.3894  2.0557  3.0227
  551MOL0     H72694   6.386   2.677  11.215  1.6191  0.3012  0.5051
  551MOL0     H72695   6.202   2.808  11.324  0.2216  0.4200  0.3570
  551MOL0     H72696   5.844   2.801  11.588 -0.3329  0.4212 -0.7583
  551MOL0     H72697   5.667   2.894  11.734  3.5204 -1.5434  2.8235
  551MOL0     H72698   5.629   2.986  11.903  0.3260 -0.3632 -0.2255
  551MOL0     H72699   5.476   3.078  11.859  0.0501  1.8599  0.8144
  551MOL0     H72700   5.515   3.094  12.099  1.0651 -1.9364 -1.1065
  551MOL0     H72701   5.535   3.252  12.034  0.1050  0.5646 -1.2055
  551MOL0     H72702   5.798   3.196  12.022 -1.0951  2.5819  0.8000
  551MOL0     H72703   5.757   3.048  12.110  2.5460  0.8525 -1.1867
  551MOL0     H72704   5.663   3.323  12.224 -0.5886 -0.7106  0.0790
  551MOL0     H72705   5.698   3.185  12.314  3.3060 -1.6659 -0.2367
  551MOL0     H72706   5.929   3.305  12.152  2.1840 -0.4983  0.6214
  551MOL0     H72707   5.942   3.187  12.268 -1.0923  0.1272  0.0978
  551MOL0     H72708   5.856   3.351  12.447 -0.4082 -0.2232  0.3500
  551MOL0     H72709   5.876   3.476  12.324  1.3974  0.1942 -2.0233
  551MOL0     H72710   6.100   3.273  12.432  3.4199 -0.6186 -2.7037
  551MOL0     H72711   6.119   3.386  12.293  1.4573  0.3473  0.8341
  551MOL0     H72712   6.079   3.569  12.449  4.5141 -0.2770 -3.6143
  551MOL0     H72713   6.208   3.474  12.500 -0.3340  2.1445 -0.9165
  551MOL0     H72714   5.886   3.261  11.751  0.6959 -0.9854  1.1426
  551MOL0     H72715   6.070   3.162  11.596 -0.0767 -1.0499 -2.9420
  551MOL0     H72716   6.363   2.730  11.712 -3.7073  2.9982  0.1194
  551MOL0     H72717   6.554   2.601  11.603  2.2992 -0.4966 -1.4336
  551MOL0     H72718   7.981   1.984  10.891 -1.9012 -0.4921 -1.0502
  551MOL0     H72719   8.235   2.019  10.898 -2.7564 -3.8942  0.3196
  551MOL0     H72720   8.602   2.178  10.806  1.9243  3.7168  0.4511
  551MOL0     H72721   8.840   2.220  10.817 -1.9306 -2.8358  1.6320
  551MOL0     H72722   9.043   2.405  10.475 -0.3379 -0.6237 -1.0694
  551MOL0     H72723   9.089   2.238  10.464  1.3518  0.8743  0.0798
  551MOL0     H72724   9.192   2.455  10.645  0.8774  0.6630 -0.6006
  551MOL0     H72725   9.239   2.282  10.666  3.1455 -0.2755 -2.3239
  551MOL0     H72726   9.297   2.447  10.418  2.5452 -0.3821 -2.2847
  551MOL0     H72727   9.347   2.288  10.444 -0.9519  1.0876 -0.9068
  551MOL0     H72728   9.553   2.425  10.498  2.5813 -0.1009  3.1229
  551MOL0     H72729   9.469   2.513  10.619  1.9608  1.6093 -2.5557
  551MOL0     H72730   9.574   2.159  10.818  0.1033  1.2419  1.1472
  551MOL0     H72731   8.845   2.259  10.393 -0.9072  1.4090  0.5659
  551MOL0     H72732   8.614   2.156  10.384 -1.7120  2.7782  0.4932
  552MOL0     O72733  10.264   2.161   4.004  0.1928  0.4840 -0.1403
  552MOL0     C72734  10.278   2.273   3.951  0.1225  0.0844 -0.6587
  552MOL0     O72735  10.171   2.358   3.930  0.3521 -0.4430 -0.0567
  552MOL0     C72736  10.045   2.320   3.957 -0.7441  0.3851 -1.0105
  552MOL0     C72737   9.998   2.379   4.077 -0.0693 -0.3081 -0.3262
  552MOL0     C72738   9.871   2.347   4.124 -0.1856 -0.3141  0.5733
  552MOL0     C72739   9.787   2.273   4.044 -0.1731  0.1017  0.4662
  552MOL0     O72740   9.656   2.242   4.073 -0.3073 -0.3293 -0.0260
  552MOL0     C72741   9.593   2.304   4.184 -0.2816 -0.1210 -0.1353
  552MOL0     C72742   9.456   2.256   4.197  0.7829  0.1154  0.4638
  552MOL0     C72743   9.382   2.293   4.336 -0.2371  0.3555  0.1420
  552MOL0     C72744   9.236   2.242   4.330 -0.2646 -0.9200 -0.0003
  552MOL0     C72745   9.164   2.310   4.451  0.5657  0.3387  0.4675
  552MOL0     C72746   9.010   2.275   4.453 -0.5173  0.8525 -0.1901
  552MOL0     C72747   8.950   2.330   4.587  0.0271 -0.4446 -0.6937
  552MOL0     C72748   8.805   2.340   4.573 -0.1155 -0.5689  0.3374
  552MOL0     N72749   8.734   2.352   4.698  0.6660  0.0554  0.1701
  552MOL0     C72750   8.670   2.237   4.754 -0.3615 -0.5021  0.1327
  552MOL0     C72751   8.586   2.293   4.841 -0.6401  0.4047 -0.9474
  552MOL0     C72752   8.497   2.224   4.941 -0.5536  0.4846 -0.0203
  552MOL0     C72753   8.360   2.296   4.954  0.1745 -0.4535 -0.3600
  552MOL0     C72754   8.253   2.235   5.042  0.7795 -0.1101  0.0147
  552MOL0     C72755   8.131   2.328   5.035  0.6186  0.6431 -0.0658
  552MOL0     O72756   8.093   2.379   4.906  0.0826 -0.1096 -0.2728
  552MOL0     C72757   7.998   2.299   4.844  0.4795 -0.2030  0.5567
  552MOL0     C72758   7.869   2.310   4.903  0.0145  0.9022 -0.8128
  552MOL0     C72759   7.768   2.243   4.842 -1.0077  0.5413  0.2546
  552MOL0     C72760   7.784   2.166   4.721  0.3811  0.1287  0.2570
  552MOL0     C72761   7.664   2.107   4.655 -0.2212  0.2746 -0.6024
  552MOL0     O72762   7.540   2.117   4.711  0.3230 -0.3818 -0.4553
  552MOL0     C72763   7.435   2.050   4.647  0.3095 -0.6293 -0.0602
  552MOL0     C72764   7.407   2.092   4.512  0.3123 -0.0958 -0.0108
  552MOL0     C72765   7.297   2.037   4.449  0.0852  0.4501  0.0793
  552MOL0     C72766   7.205   1.941   4.514 -0.3481 -0.3741  0.1649
  552MOL0     O72767   7.092   1.894   4.470 -0.7683 -0.2297 -0.0030
  552MOL0     C72768   7.073   1.892   4.331  0.2658  0.2084 -0.4867
  552MOL0     C72769   6.920   1.858   4.287 -0.1708 -0.2050  0.4270
  552MOL0     C72770   6.806   1.954   4.315  0.2832 -0.6750 -0.2610
  552MOL0     C72771   6.809   2.017   4.463 -0.0512  0.1509  0.2824
  552MOL0     C72772   6.688   2.116   4.498 -0.3045 -0.0855  0.4330
  552MOL0     C72773   6.677   2.239   4.406 -0.0852  0.1307 -0.7907
  552MOL0     C72774   6.564   2.334   4.441  0.6875 -0.1289  0.5771
  552MOL0     C72775   6.422   2.264   4.444  0.0050 -0.4201  0.1531
  552MOL0    Cl72776   6.357   2.207   4.292 -0.1951  0.0095  0.0295
  552MOL0     C72777   7.246   1.887   4.637 -0.1892 -0.0248 -0.1465
  552MOL0     C72778   7.353   1.948   4.705  0.7305 -0.1145  0.0723
  552MOL0     O72779   7.692   2.056   4.541  0.1042  0.7370  0.0646
  552MOL0     C72780   7.913   2.159   4.662 -0.3219  0.3780  0.7606
  552MOL0     C72781   8.017   2.220   4.737 -0.8918  0.3748  0.2112
  552MOL0     N72782   8.600   2.432   4.846 -0.8560 -0.3495 -0.4991
  552MOL0     N72783   8.682   2.469   4.756 -0.1355 -0.1933 -0.3040
  552MOL0     C72784   9.834   2.225   3.916  0.3515 -0.1793 -0.0650
  552MOL0     C72785   9.967   2.242   3.878 -0.4082 -0.8914 -0.1832
  552MOL0     C72786  10.409   2.333   3.917  0.7055  0.4614 -1.4065
  552MOL0     C72787  10.521   2.254   3.942 -0.5759  0.1062 -0.2374
  552MOL0     C72788  10.649   2.309   3.936  0.2804  0.0055 -0.9956
  552MOL0     C72789  10.671   2.444   3.892  0.3148  0.8216 -0.6145
  552MOL0     O72790  10.797   2.508   3.893 -0.3015 -0.1152  0.1921
  552MOL0     C72791  10.884   2.457   3.996 -0.6836  1.0740 -0.6185
  552MOL0     C72792  10.991   2.565   4.031 -1.0643 -0.5978 -0.1450
  552MOL0     C72793  10.920   2.693   4.085  0.4774 -0.3925 -0.1217
  552MOL0     C72794  11.018   2.816   4.096 -1.5559  0.0849  0.3009
  552MOL0     C72795  11.070   2.870   3.968  0.0446 -1.0469  0.0253
  552MOL0     C72796  11.130   2.920   3.872 -0.1782 -0.1494 -0.6240
  552MOL0     C72797  10.562   2.510   3.839  0.4399  0.3410 -0.5958
  552MOL0     C72798  10.432   2.455   3.855 -0.1136  0.5467  0.3429
  552MOL0     H72799  10.068   2.447   4.124 -0.7372 -0.4368  0.8714
  552MOL0     H72800   9.839   2.405   4.211 -1.3221  0.1336 -0.1254
  552MOL0     H72801   9.581   2.408   4.152 -1.3599 -0.4415 -0.8166
  552MOL0     H72802   9.644   2.287   4.279 -1.4343 -0.6449  0.3937
  552MOL0     H72803   9.466   2.147   4.192 -2.3697 -0.2333 -0.8381
  552MOL0     H72804   9.401   2.295   4.111 -2.1388 -0.3429  1.9551
  552MOL0     H72805   9.385   2.401   4.355  3.2788  0.3660  0.2291
  552MOL0     H72806   9.441   2.251   4.418 -0.1390  0.0894 -0.0665
  552MOL0     H72807   9.188   2.285   4.242 -0.8875  1.6082  1.4457
  552MOL0     H72808   9.217   2.135   4.342  2.1346 -1.6943 -2.3292
  552MOL0     H72809   9.176   2.419   4.452  2.7939  0.1640 -0.5190
  552MOL0     H72810   9.205   2.265   4.542 -1.1646  0.0148  1.1340
  552MOL0     H72811   9.001   2.166   4.447  2.4254  0.5115  0.2220
  552MOL0     H72812   8.962   2.307   4.360  2.3213 -1.9552 -2.8855
  552MOL0     H72813   8.986   2.266   4.667 -0.0032 -0.3849 -0.6318
  552MOL0     H72814   8.991   2.430   4.604 -2.2806  0.5086 -0.2752
  552MOL0     H72815   8.777   2.240   4.539  2.1061 -1.4202  0.8364
  552MOL0     H72816   8.783   2.416   4.498  5.5136  2.1598  0.9379
  552MOL0     H72817   8.692   2.133   4.734 -0.3070 -0.6003  0.6745
  552MOL0     H72818   8.557   2.227   5.033  0.5738  2.9012 -0.7536
  552MOL0     H72819   8.473   2.121   4.912 -1.2351  0.9497 -1.1776
  552MOL0     H72820   8.322   2.292   4.851  1.3272 -1.4909 -0.7764
  552MOL0     H72821   8.376   2.401   4.977  1.0054 -0.7657  0.5660
  552MOL0     H72822   8.231   2.138   4.998 -4.3229  1.7016 -2.2526
  552MOL0     H72823   8.291   2.229   5.144 -0.1975 -3.1288  0.2913
  552MOL0     H72824   8.157   2.418   5.092  1.0849  2.1394 -2.4854
  552MOL0     H72825   8.054   2.277   5.094  0.7626  2.3265  1.7219
  552MOL0     H72826   7.852   2.369   4.992  1.5235 -0.6862  0.6017
  552MOL0     H72827   7.666   2.261   4.876 -1.1219  0.3486  0.0192
  552MOL0     H72828   7.484   2.145   4.458  2.8492 -3.6670 -0.2247
  552MOL0     H72829   7.271   2.079   4.352  0.6367  2.9239  0.9305
  552MOL0     H72830   7.136   1.813   4.289  0.0383 -1.2077  1.6771
  552MOL0     H72831   7.096   1.991   4.290  3.3603 -0.2482 -0.0466
  552MOL0     H72832   6.900   1.765   4.340  0.5432  1.0878  3.1670
  552MOL0     H72833   6.929   1.843   4.179  0.1690  0.4099  0.3617
  552MOL0     H72834   6.707   1.911   4.302  0.9396 -2.5624  0.6686
  552MOL0     H72835   6.806   2.043   4.251 -1.0245 -0.0333  0.5976
  552MOL0     H72836   6.815   1.934   4.534 -0.1497  0.7180  0.9590
  552MOL0     H72837   6.903   2.072   4.470 -0.4091  1.1760 -1.9500
  552MOL0     H72838   6.703   2.144   4.603 -0.2974  1.0300  0.1475
  552MOL0     H72839   6.602   2.050   4.483  0.9536 -1.5563 -0.5950
  552MOL0     H72840   6.662   2.210   4.302 -0.9381  2.2784 -1.3352
  552MOL0     H72841   6.766   2.303   4.407 -0.3700  0.6084 -2.3081
  552MOL0     H72842   6.580   2.380   4.539 -0.0342 -0.3152  0.7862
  552MOL0     H72843   6.563   2.408   4.360 -2.5571 -0.7950 -0.1066
  552MOL0     H72844   6.344   2.331   4.481 -1.7493 -2.5106  0.4287
  552MOL0     H72845   6.420   2.180   4.515  2.1915 -1.2498 -0.6860
  552MOL0     H72846   7.194   1.807   4.688  1.6049 -1.5846 -0.6612
  552MOL0     H72847   7.359   1.916   4.809  0.7082 -1.7737 -0.4171
  552MOL0     H72848   7.922   2.125   4.560 -1.8237  0.0216  0.7128
  552MOL0     H72849   8.121   2.223   4.704 -0.1088 -1.2681  2.3460
  552MOL0     H72850   9.768   2.159   3.861  0.0528  0.7919 -0.8972
  552MOL0     H72851  10.003   2.198   3.785  2.5752 -2.6959  1.6629
  552MOL0     H72852  10.520   2.148   3.964  1.2196  0.3940  1.5562
  552MOL0     H72853  10.735   2.256   3.975 -0.0994  1.3089  1.8533
  552MOL0     H72854  10.925   2.358   3.976 -2.1324  0.4088 -0.4715
  552MOL0     H72855  10.827   2.447   4.088  2.4841  0.0684  1.3804
  552MOL0     H72856  11.057   2.514   4.101  0.1674 -0.7096 -1.3353
  552MOL0     H72857  11.045   2.571   3.935 -0.8710 -1.7059 -0.1222
  552MOL0     H72858  10.877   2.679   4.185 -1.5633 -0.1268 -0.9230
  552MOL0     H72859  10.832   2.715   4.024 -0.2136 -1.3719  0.5043
  552MOL0     H72860  10.972   2.903   4.144 -2.3829  0.5009 -1.1552
  552MOL0     H72861  11.111   2.783   4.142 -1.6397 -1.5792 -0.6370
  552MOL0     H72862  11.175   2.962   3.784  1.2628 -2.6257 -1.1612
  552MOL0     H72863  10.561   2.606   3.790 -4.1881  0.6857 -0.1915
  552MOL0     H72864  10.350   2.514   3.813  0.0907  0.6378  0.0650
  553MOL0     O72865   9.351   1.419   6.287 -0.8007  0.6480  0.6206
  553MOL0     C72866   9.408   1.307   6.301  0.4355  0.3484  0.4754
  553MOL0     O72867   9.377   1.191   6.232 -0.4118 -0.6058  0.2982
  553MOL0     C72868   9.271   1.192   6.139 -0.7398 -0.5608 -0.6293
  553MOL0     C72869   9.292   1.166   6.001  0.2894 -0.5973 -0.0225
  553MOL0     C72870   9.183   1.148   5.910 -0.2100  0.4832  0.6663
  553MOL0     C72871   9.050   1.174   5.952 -1.0144  0.0643 -0.7117
  553MOL0     O72872   8.940   1.181   5.882  0.5217 -0.6318  0.0224
  553MOL0     C72873   8.940   1.169   5.736  0.1052 -0.1625 -1.1070
  553MOL0     C72874   8.999   1.287   5.659 -0.8202 -0.3650  0.4471
  553MOL0     C72875   8.941   1.421   5.708 -0.7461 -0.3645 -0.2045
  553MOL0     C72876   8.818   1.465   5.629 -0.4584  0.2236  0.7313
  553MOL0     C72877   8.780   1.608   5.670  0.1563  0.5771 -0.4176
  553MOL0     C72878   8.741   1.629   5.815  0.2214 -0.3799  0.2103
  553MOL0     C72879   8.641   1.746   5.843  0.3342 -0.4281 -0.5282
  553MOL0     C72880   8.506   1.722   5.769 -1.2410  0.1058 -0.3453
  553MOL0     N72881   8.395   1.791   5.824  0.0028  0.1879  0.0835
  553MOL0     C72882   8.314   1.742   5.925  0.2898 -0.7091 -0.3676
  553MOL0     C72883   8.197   1.797   5.891  0.4544 -0.5572 -0.0171
  553MOL0     C72884   8.068   1.766   5.978 -0.4363  0.5199  0.0639
  553MOL0     C72885   7.983   1.641   5.944  0.7474  1.0213 -0.1372
  553MOL0     C72886   7.851   1.617   6.019 -0.3934  0.7375 -0.3028
  553MOL0     C72887   7.863   1.605   6.176 -0.0818  0.2299  0.1544
  553MOL0     O72888   7.848   1.470   6.195  0.7540 -0.1777 -1.4609
  553MOL0     C72889   7.868   1.428   6.325 -0.0085 -0.2707 -0.4128
  553MOL0     C72890   7.776   1.339   6.374  0.0554  0.9492  0.1760
  553MOL0     C72891   7.783   1.282   6.505 -0.5414  1.0127 -0.8064
  553MOL0     C72892   7.874   1.340   6.594  0.0434 -0.1416  0.0396
  553MOL0     C72893   7.877   1.295   6.733  0.0252  0.5843 -0.0467
  553MOL0     O72894   7.937   1.373   6.836  0.3793 -1.0405  0.1330
  553MOL0     C72895   7.955   1.326   6.968 -0.3340  0.4633  0.0733
  553MOL0     C72896   7.970   1.195   7.014  0.0259  0.2054 -0.4011
  553MOL0     C72897   7.998   1.163   7.141  0.1228 -0.5143 -0.3923
  553MOL0     C72898   8.009   1.265   7.237  0.6910 -0.3580 -0.5527
  553MOL0     O72899   8.026   1.248   7.369 -0.8174  0.2796 -0.4580
  553MOL0     C72900   7.950   1.140   7.438  0.0402  0.1753 -0.0329
  553MOL0     C72901   8.011   1.120   7.569 -0.1872  0.2482 -0.4779
  553MOL0     C72902   7.907   1.050   7.670  0.3981 -0.1938 -0.3260
  553MOL0     C72903   7.880   0.894   7.637  0.0378 -0.0436  0.3381
  553MOL0     C72904   7.751   0.860   7.564 -0.7510  0.7290  0.3388
  553MOL0     C72905   7.629   0.904   7.638 -0.0329 -0.4819  0.6621
  553MOL0     C72906   7.495   0.869   7.571 -1.1213  0.4700  0.2065
  553MOL0     C72907   7.376   0.928   7.638  0.4178 -0.0811 -0.4231
  553MOL0    Cl72908   7.401   0.919   7.821 -0.4639  0.0415  0.3245
  553MOL0     C72909   8.001   1.398   7.201 -0.2952 -0.5502 -0.1335
  553MOL0     C72910   7.979   1.428   7.065 -0.7233 -0.6283  0.0841
  553MOL0     O72911   7.836   1.178   6.756 -0.7454  0.2531  0.3248
  553MOL0     C72912   7.972   1.429   6.548 -0.2069  0.2930 -0.0468
  553MOL0     C72913   7.964   1.473   6.416 -0.4106  0.2763  0.7120
  553MOL0     N72914   8.214   1.896   5.799 -0.2380  0.8240 -0.4580
  553MOL0     N72915   8.337   1.894   5.755 -0.1281  0.1793 -0.7918
  553MOL0     C72916   9.028   1.212   6.093 -0.6810  0.0166  0.3744
  553MOL0     C72917   9.138   1.217   6.182  0.8891  1.1119 -0.6690
  553MOL0     C72918   9.516   1.289   6.392 -0.1711 -0.6706  0.1625
  553MOL0     C72919   9.583   1.403   6.445  0.1164  0.4527 -0.4202
  553MOL0     C72920   9.702   1.377   6.519  0.3228 -0.2782  0.0388
  553MOL0     C72921   9.737   1.250   6.555  0.4660 -0.4077  0.1951
  553MOL0     O72922   9.853   1.226   6.631  0.4873 -0.0492  0.4623
  553MOL0     C72923   9.978   1.220   6.557 -0.9364  0.0684  0.2635
  553MOL0     C72924  10.052   1.081   6.565  0.0403 -0.4134  0.2938
  553MOL0     C72925  10.162   1.077   6.460 -0.7050  0.7866  1.3533
  553MOL0     C72926  10.282   1.179   6.483 -0.4077  0.1973 -0.3042
  553MOL0     C72927  10.382   1.139   6.382 -0.4850 -0.0143 -0.4838
  553MOL0     C72928  10.460   1.108   6.298  0.7435  0.8737 -0.3275
  553MOL0     C72929   9.677   1.141   6.501 -0.4003  0.2216 -0.0844
  553MOL0     C72930   9.563   1.160   6.422  0.1768  0.2205 -0.1769
  553MOL0     H72931   9.393   1.151   5.965  0.0189  1.3444 -1.7456
  553MOL0     H72932   9.200   1.138   5.803 -0.4265 -2.0940  0.8161
  553MOL0     H72933   8.836   1.173   5.704  0.8156 -0.0039 -3.5706
  553MOL0     H72934   8.990   1.076   5.708 -0.8047 -1.3249  0.8771
  553MOL0     H72935   8.978   1.260   5.555 -1.6461 -3.6399  1.3582
  553MOL0     H72936   9.107   1.286   5.678 -0.3813 -1.6686 -1.7631
  553MOL0     H72937   9.025   1.490   5.708 -0.3841 -0.5860  3.3370
  553MOL0     H72938   8.923   1.407   5.816  1.3453  2.4644  0.6344
  553MOL0     H72939   8.829   1.479   5.521 -2.0832  1.4738  0.6891
  553MOL0     H72940   8.739   1.391   5.639 -0.0135 -0.1097  2.0443
  553MOL0     H72941   8.690   1.626   5.609  0.1684  2.4082  0.0281
  553MOL0     H72942   8.858   1.676   5.634  0.2255 -1.3281 -4.3738
  553MOL0     H72943   8.833   1.648   5.872 -0.2632 -0.8784  1.1750
  553MOL0     H72944   8.706   1.533   5.854  2.2353 -0.4469  2.0355
  553MOL0     H72945   8.620   1.752   5.950  0.4871  2.0303 -0.5750
  553MOL0     H72946   8.683   1.843   5.812  0.1309  0.5919  2.0997
  553MOL0     H72947   8.474   1.618   5.757 -2.0190  0.2983  0.0024
  553MOL0     H72948   8.523   1.767   5.670  0.6909 -0.4879 -0.3314
  553MOL0     H72949   8.329   1.668   6.003  0.3512  2.2491  2.6606
  553MOL0     H72950   8.002   1.852   5.963 -0.7914 -0.3677 -5.1342
  553MOL0     H72951   8.100   1.747   6.081  2.8067 -0.1658 -0.9654
  553MOL0     H72952   8.043   1.550   5.953 -0.0287  0.6214  1.3696
  553MOL0     H72953   7.961   1.655   5.838 -0.1202 -1.0107 -0.2757
  553MOL0     H72954   7.795   1.704   5.984 -0.7577  0.1102 -1.3118
  553MOL0     H72955   7.801   1.528   5.980  3.1166 -1.6406  0.0931
  553MOL0     H72956   7.776   1.662   6.210 -1.7675 -1.2250 -1.4923
  553MOL0     H72957   7.950   1.644   6.229 -1.3161 -0.1755  2.5886
  553MOL0     H72958   7.693   1.317   6.308  0.7819  1.1686 -0.8222
  553MOL0     H72959   7.709   1.210   6.537 -0.0811  0.3272 -1.2537
  553MOL0     H72960   7.956   1.114   6.943 -1.3080  0.9891 -1.0731
  553MOL0     H72961   7.997   1.059   7.170  0.1632 -0.9232 -1.7863
  553MOL0     H72962   7.952   1.052   7.373 -0.2134  2.4840 -3.3801
  553MOL0     H72963   7.848   1.175   7.452  0.6838  1.1186  3.3089
  553MOL0     H72964   8.033   1.216   7.617  0.5102 -1.5536  3.2341
  553MOL0     H72965   8.103   1.060   7.567  0.8960  1.4928  3.1720
  553MOL0     H72966   7.814   1.106   7.678  0.6648  0.4347 -1.4306
  553MOL0     H72967   7.954   1.054   7.769  1.5805 -1.2903 -0.8084
  553MOL0     H72968   7.969   0.870   7.578  2.4534  1.8744  2.9059
  553MOL0     H72969   7.891   0.843   7.733 -0.2305 -0.3434  0.2112
  553MOL0     H72970   7.768   0.754   7.540  0.4883  1.1855 -0.9330
  553MOL0     H72971   7.754   0.899   7.461 -2.5012 -0.7288 -0.3277
  553MOL0     H72972   7.629   1.013   7.649  0.3304 -0.2680 -1.1350
  553MOL0     H72973   7.635   0.855   7.736  2.3691 -4.1626 -1.1196
  553MOL0     H72974   7.495   0.892   7.464  1.0445 -4.7397 -1.2443
  553MOL0     H72975   7.482   0.761   7.577 -1.8231  0.6116  1.7817
  553MOL0     H72976   7.280   0.879   7.618 -0.0130  1.3654 -2.1113
  553MOL0     H72977   7.365   1.033   7.611  1.2135  0.4291  1.1368
  553MOL0     H72978   8.011   1.478   7.273  0.2655  0.4538 -1.2828
  553MOL0     H72979   7.971   1.530   7.031 -1.9876 -0.2597  1.3876
  553MOL0     H72980   8.061   1.459   6.603 -1.6980  1.1356  2.0233
  553MOL0     H72981   8.051   1.531   6.387 -0.6840  1.1242  1.5372
  553MOL0     H72982   8.939   1.252   6.140  0.4300  1.4778  1.3335
  553MOL0     H72983   9.109   1.247   6.282  0.2924  1.4581 -0.9416
  553MOL0     H72984   9.552   1.506   6.428  0.4416  0.5566 -0.3923
  553MOL0     H72985   9.762   1.450   6.574 -1.0973 -0.0776  1.3755
  553MOL0     H72986  10.047   1.285   6.611 -0.5305 -0.4679  0.4016
  553MOL0     H72987   9.964   1.255   6.455  1.7934 -0.9637 -0.5419
  553MOL0     H72988  10.096   1.083   6.665  0.0748 -1.5341  0.3122
  553MOL0     H72989   9.988   0.994   6.550  1.9432 -1.6258 -1.1427
  553MOL0     H72990  10.121   1.099   6.361 -3.8394  0.7359  2.5561
  553MOL0     H72991  10.195   0.973   6.462  1.8022  1.4713  0.1462
  553MOL0     H72992  10.251   1.283   6.470 -1.1474 -0.2584 -3.0048
  553MOL0     H72993  10.323   1.165   6.583 -0.6983 -1.3586 -0.3683
  553MOL0     H72994  10.535   1.089   6.223  2.2511  0.9050  1.1165
  553MOL0     H72995   9.729   1.047   6.517 -2.4344 -0.5263  2.8552
  553MOL0     H72996   9.513   1.080   6.369  0.5160 -0.4788  0.5184
  554MOL0     O72997   9.535   6.223   1.678  0.0177 -0.4473 -0.6328
  554MOL0     C72998   9.551   6.110   1.644 -0.2418 -0.7155 -0.0599
  554MOL0     O72999   9.478   6.040   1.554  0.2803  0.5991  0.6682
  554MOL0     C73000   9.358   6.079   1.501  0.2405  0.4281 -0.2949
  554MOL0     C73001   9.355   6.065   1.364  0.2530 -0.5302 -0.0289
  554MOL0     C73002   9.239   6.078   1.295  0.2874 -0.0174  0.4759
  554MOL0     C73003   9.121   6.114   1.372 -0.4971 -0.1352  0.0841
  554MOL0     O73004   9.008   6.128   1.297 -0.1353 -0.3441  0.5226
  554MOL0     C73005   8.877   6.130   1.365 -1.3064  0.3402 -0.5651
  554MOL0     C73006   8.777   6.158   1.258  0.8768  0.0387 -0.7999
  554MOL0     C73007   8.629   6.180   1.311 -0.8551 -1.3451 -0.0426
  554MOL0     C73008   8.525   6.140   1.200  0.4341 -0.2203  0.1946
  554MOL0     C73009   8.395   6.118   1.265 -0.2853  0.3967  0.6879
  554MOL0     C73010   8.295   6.056   1.169 -0.1042 -0.2246  0.2144
  554MOL0     C73011   8.238   6.171   1.077  0.0450 -0.8876  0.1914
  554MOL0     C73012   8.128   6.124   0.975 -0.3284  0.9235 -0.3705
  554MOL0     N73013   8.004   6.094   1.051 -0.7355 -0.0547 -0.5828
  554MOL0     C73014   7.942   5.971   1.064 -0.1665 -0.0402 -0.0948
  554MOL0     C73015   7.860   5.982   1.166  1.0787 -0.4122  0.4999
  554MOL0     C73016   7.781   5.875   1.231 -0.2363  0.2091 -0.3448
  554MOL0     C73017   7.872   5.793   1.314 -0.3160  0.0400  0.0423
  554MOL0     C73018   7.896   5.862   1.452 -0.2571  0.8305  0.4843
  554MOL0     C73019   7.828   5.774   1.562  0.5079  0.1581 -0.4542
  554MOL0     O73020   7.689   5.739   1.524 -0.2175 -0.5259  0.3356
  554MOL0     C73021   7.593   5.836   1.542 -0.6219  0.1551  0.2694
  554MOL0     C73022   7.466   5.822   1.473  0.6564 -1.0883 -0.5379
  554MOL0     C73023   7.369   5.919   1.501 -0.2962  0.3475  1.4220
  554MOL0     C73024   7.393   6.025   1.592  0.0596 -0.2119  1.3644
  554MOL0     C73025   7.286   6.124   1.615 -0.0186  0.4293 -1.1110
  554MOL0     O73026   7.313   6.229   1.696 -0.2751 -0.0933 -0.5967
  554MOL0     C73027   7.214   6.292   1.767 -0.3456 -0.0773 -0.3807
  554MOL0     C73028   7.267   6.391   1.854 -0.9177 -0.1140  0.8187
  554MOL0     C73029   7.181   6.485   1.915  0.1568  1.1290 -0.3862
  554MOL0     C73030   7.040   6.470   1.907 -0.9190 -0.2414  0.1089
  554MOL0     O73031   6.966   6.572   1.969  0.3312  0.1208  0.6955
  554MOL0     C73032   6.829   6.580   1.970 -0.3736 -0.3750  1.0119
  554MOL0     C73033   6.784   6.514   2.107  0.7805  0.1255  0.1601
  554MOL0     C73034   6.851   6.555   2.245 -0.0470  0.0701  0.0387
  554MOL0     C73035   6.783   6.490   2.373 -0.1219 -0.0033 -0.0894
  554MOL0     C73036   6.856   6.524   2.502  0.0437  0.4104 -1.0026
  554MOL0     C73037   6.830   6.664   2.546  0.2002  0.4636 -0.3050
  554MOL0     C73038   6.904   6.693   2.677  0.1842  0.7803 -0.0955
  554MOL0     C73039   6.812   6.711   2.795 -0.2287  1.0636  0.0090
  554MOL0    Cl73040   6.698   6.851   2.774  0.0957 -0.0485 -0.0033
  554MOL0     C73041   6.995   6.369   1.824  0.3244 -0.1698 -0.1684
  554MOL0     C73042   7.076   6.281   1.755  0.8189 -0.9567 -0.5766
  554MOL0     O73043   7.182   6.106   1.555  0.2733  0.4770  0.3051
  554MOL0     C73044   7.516   6.042   1.641 -0.5618 -0.6054  0.0554
  554MOL0     C73045   7.619   5.953   1.618  0.7774  0.1414  0.3781
  554MOL0     N73046   7.872   6.098   1.232 -0.6566  0.0700  0.2143
  554MOL0     N73047   7.954   6.176   1.155  0.3253  1.1305  0.3840
  554MOL0     C73048   9.115   6.114   1.508 -0.3273 -0.6991 -0.3174
  554MOL0     C73049   9.241   6.093   1.577  0.4504  0.5147  0.5905
  554MOL0     C73050   9.662   6.033   1.721  0.1140  0.3730 -0.3006
  554MOL0     C73051   9.731   6.075   1.838  0.0512 -0.1245 -0.5710
  554MOL0     C73052   9.833   5.994   1.891 -0.0731 -0.6984 -0.5502
  554MOL0     C73053   9.889   5.888   1.822  0.3593 -0.1470  0.5743
  554MOL0     O73054   9.985   5.804   1.878  0.5233 -0.1330 -0.2602
  554MOL0     C73055  10.111   5.782   1.805  0.4019  0.8880  1.6427
  554MOL0     C73056  10.214   5.734   1.895  0.9900  0.0862  0.0126
  554MOL0     C73057  10.248   5.825   2.009  0.4469 -0.7764  0.4419
  554MOL0     C73058  10.368   5.788   2.085 -0.1962  0.1602 -0.7035
  554MOL0     C73059  10.490   5.773   2.003  0.0559 -0.4001  0.1012
  554MOL0     C73060  10.594   5.729   1.958 -0.3294  0.0339 -0.2034
  554MOL0     C73061   9.824   5.853   1.698 -0.0666  0.2942 -0.4439
  554MOL0     C73062   9.714   5.923   1.653  0.8011 -0.3265  0.0898
  554MOL0     H73063   9.454   6.041   1.326  0.7029  0.8250  0.2553
  554MOL0     H73064   9.224   6.079   1.188  1.5894 -0.6729  0.2767
  554MOL0     H73065   8.878   6.219   1.429 -3.9680  0.3130 -0.3857
  554MOL0     H73066   8.855   6.037   1.420  1.0768 -0.4240 -0.7958
  554MOL0     H73067   8.782   6.076   1.185 -0.7010  0.7940 -1.8155
  554MOL0     H73068   8.810   6.253   1.215 -0.4792  2.5014  3.0752
  554MOL0     H73069   8.610   6.282   1.347  1.4590 -1.5227  1.9442
  554MOL0     H73070   8.618   6.124   1.403 -2.9394  0.1818  0.7273
  554MOL0     H73071   8.517   6.231   1.140 -2.4633 -1.2218 -1.1590
  554MOL0     H73072   8.555   6.054   1.139  0.3395  0.0335 -0.2127
  554MOL0     H73073   8.359   6.211   1.310 -1.1302 -0.2298  1.3475
  554MOL0     H73074   8.408   6.056   1.354  2.7293  2.1069  1.5781
  554MOL0     H73075   8.209   6.024   1.230 -1.8074 -1.0206 -2.4274
  554MOL0     H73076   8.321   5.968   1.109 -0.9915 -1.1205  1.0834
  554MOL0     H73077   8.192   6.251   1.136 -1.4430 -2.7948  1.7472
  554MOL0     H73078   8.324   6.207   1.020  1.2387 -0.8071  1.9473
  554MOL0     H73079   8.171   6.043   0.915 -1.0296 -1.0431  1.6514
  554MOL0     H73080   8.107   6.208   0.909 -1.2811  0.8321 -0.1984
  554MOL0     H73081   7.962   5.883   1.004 -2.4548 -1.6911  1.4202
  554MOL0     H73082   7.732   5.815   1.154  0.6189 -0.1096 -0.6566
  554MOL0     H73083   7.706   5.908   1.303 -2.3209 -2.0739 -1.3210
  554MOL0     H73084   7.965   5.789   1.255 -0.9838 -1.7603 -0.9623
  554MOL0     H73085   7.825   5.695   1.322 -0.6398  0.2583  0.9647
  554MOL0     H73086   8.002   5.882   1.472 -0.3743  0.7883  1.1850
  554MOL0     H73087   7.856   5.963   1.450 -1.7617  0.2485 -0.5348
  554MOL0     H73088   7.846   5.805   1.666  3.3205  0.0307 -0.8066
  554MOL0     H73089   7.878   5.676   1.567  0.1578 -0.0257 -0.5754
  554MOL0     H73090   7.459   5.742   1.400  0.8815  0.2653 -2.0917
  554MOL0     H73091   7.280   5.925   1.440  1.2465 -1.7032 -1.1860
  554MOL0     H73092   7.373   6.409   1.870 -0.6972  1.5108 -1.8285
  554MOL0     H73093   7.215   6.573   1.969 -0.8880  1.8581 -0.8961
  554MOL0     H73094   6.787   6.529   1.884  1.4826  1.6994 -1.2807
  554MOL0     H73095   6.794   6.684   1.976  2.4970  0.7245  0.4334
  554MOL0     H73096   6.782   6.406   2.093 -2.9409  0.2168 -1.0935
  554MOL0     H73097   6.678   6.542   2.109  0.5601 -0.7043  0.4569
  554MOL0     H73098   6.858   6.664   2.249  0.4180  0.0233  0.4535
  554MOL0     H73099   6.954   6.518   2.246  0.2813  0.9429 -0.4533
  554MOL0     H73100   6.680   6.526   2.382  0.7186  2.2977  1.2257
  554MOL0     H73101   6.779   6.382   2.359  1.2766 -0.0133 -0.5321
  554MOL0     H73102   6.955   6.481   2.485 -0.4515 -2.2791  1.9501
  554MOL0     H73103   6.812   6.461   2.581  1.1001  1.6904  0.6871
  554MOL0     H73104   6.722   6.675   2.560 -0.1938 -1.8346 -1.1511
  554MOL0     H73105   6.855   6.736   2.467  2.0569  0.0594 -0.1275
  554MOL0     H73106   6.966   6.608   2.708 -0.6314  0.8636  1.8849
  554MOL0     H73107   6.973   6.777   2.671  1.2569 -0.0310  0.5327
  554MOL0     H73108   6.877   6.720   2.882 -2.8397 -2.7085  2.6790
  554MOL0     H73109   6.749   6.623   2.812  1.0506  0.3993  1.5736
  554MOL0     H73110   6.888   6.353   1.826 -0.1054  1.6714 -2.8774
  554MOL0     H73111   7.019   6.204   1.704 -1.4627  1.9594 -2.7809
  554MOL0     H73112   7.533   6.135   1.695  1.4927  0.1526 -1.7346
  554MOL0     H73113   7.719   5.978   1.651  0.5691  1.3239  0.1552
  554MOL0     H73114   9.026   6.142   1.562  0.2075  0.5135 -0.0265
  554MOL0     H73115   9.241   6.077   1.684 -0.2641 -2.0295  0.2802
  554MOL0     H73116   9.715   6.161   1.902  2.4117  0.2809 -0.4475
  554MOL0     H73117   9.890   6.023   1.978  0.0273 -0.7132 -0.6107
  554MOL0     H73118  10.130   5.864   1.735  1.0690 -0.8469 -0.2948
  554MOL0     H73119  10.093   5.693   1.744  1.5085  0.3067  2.1341
  554MOL0     H73120  10.167   5.648   1.944  1.7650  1.4293  3.4408
  554MOL0     H73121  10.295   5.705   1.828 -0.4522 -1.5581 -1.1138
  554MOL0     H73122  10.161   5.826   2.076 -1.3566 -2.7747 -1.6693
  554MOL0     H73123  10.269   5.925   1.971 -0.2830 -0.2918  1.2732
  554MOL0     H73124  10.379   5.871   2.154  0.4589 -0.8766  0.4796
  554MOL0     H73125  10.358   5.698   2.147 -1.1841  1.1580  0.6508
  554MOL0     H73126  10.692   5.702   1.925 -0.3618  0.4288 -0.6421
  554MOL0     H73127   9.849   5.770   1.632  0.1201 -1.6557  1.9526
  554MOL0     H73128   9.672   5.892   1.557 -0.0278  2.9867 -0.7212
  555MOL0     O73129   1.050   3.866   5.962  0.1996  0.4258  0.1539
  555MOL0     C73130   1.074   3.853   6.080  0.0542 -0.0237  1.0737
  555MOL0     O73131   0.977   3.867   6.181  0.1410  0.6224  0.1466
  555MOL0     C73132   0.847   3.899   6.144  0.3243  0.2968  0.5734
  555MOL0     C73133   0.745   3.819   6.196  0.4222  0.1103  0.2514
  555MOL0     C73134   0.607   3.867   6.194 -0.2941  0.5917 -0.0864
  555MOL0     C73135   0.574   3.987   6.138  0.7960  0.4605  0.3497
  555MOL0     O73136   0.447   4.023   6.159  0.7599  0.7738  0.0518
  555MOL0     C73137   0.427   4.162   6.173 -0.4664  1.0004  0.4899
  555MOL0     C73138   0.487   4.237   6.296  0.4645  0.1057 -0.3296
  555MOL0     C73139   0.379   4.269   6.400  0.1494  0.0588 -0.1756
  555MOL0     C73140   0.455   4.309   6.527 -0.2150 -0.3370  0.5309
  555MOL0     C73141   0.378   4.351   6.656 -0.1324 -0.0648 -0.5840
  555MOL0     C73142   0.264   4.447   6.624 -0.2811  0.1443 -0.8896
  555MOL0     C73143   0.183   4.479   6.750  1.1156 -0.9053  0.3516
  555MOL0     C73144   0.251   4.562   6.847 -0.8480  0.1328 -0.1803
  555MOL0     N73145   0.177   4.575   6.968 -0.3957  0.8330 -0.3619
  555MOL0     C73146   0.209   4.520   7.089 -0.5283 -0.2043 -0.4223
  555MOL0     C73147   0.118   4.574   7.173 -0.4353  0.1295  0.6971
  555MOL0     C73148   0.116   4.538   7.320 -0.0193  0.1273 -0.1851
  555MOL0     C73149  -0.037   4.527   7.359 -0.5773 -0.0436 -0.0687
  555MOL0     C73150  -0.054   4.516   7.511 -1.2254 -0.5856 -0.7036
  555MOL0     C73151  -0.028   4.374   7.552 -0.0041 -0.1422 -0.1016
  555MOL0     O73152  -0.019   4.360   7.697 -0.7460 -0.0654 -0.0029
  555MOL0     C73153  -0.150   4.366   7.748  0.1636  1.1531 -0.6911
  555MOL0     C73154  -0.206   4.482   7.795  0.0002  0.9225  0.0692
  555MOL0     C73155  -0.331   4.474   7.845 -0.2117  0.3231 -0.4032
  555MOL0     C73156  -0.413   4.357   7.851 -0.7754 -0.2768 -0.3500
  555MOL0     C73157  -0.549   4.356   7.893  0.8283 -0.0122  0.1409
  555MOL0     O73158  -0.585   4.448   7.994 -0.4039 -0.2487  0.3583
  555MOL0     C73159  -0.714   4.473   8.029 -0.5013 -0.1684 -0.9584
  555MOL0     C73160  -0.805   4.368   8.033  0.0853 -0.1707 -0.6571
  555MOL0     C73161  -0.942   4.399   8.061 -0.2120  0.4458 -0.3953
  555MOL0     C73162  -0.983   4.536   8.064  1.0123 -0.4356 -0.0638
  555MOL0     O73163  -1.117   4.563   8.088  0.2924  0.0148  0.1275
  555MOL0     C73164  -1.166   4.694   8.058  0.3130  0.4831 -1.1451
  555MOL0     C73165  -1.319   4.711   8.096  0.2812  0.8049 -0.8008
  555MOL0     C73166  -1.355   4.863   8.108 -0.3980 -0.1861 -0.5028
  555MOL0     C73167  -1.340   4.930   7.966  0.2306 -0.1534  0.0967
  555MOL0     C73168  -1.379   5.079   7.955 -0.2534  0.6409  0.2945
  555MOL0     C73169  -1.491   5.128   8.045 -0.6499 -0.3002 -0.2467
  555MOL0     C73170  -1.622   5.054   8.007 -0.4194 -0.0184  0.0886
  555MOL0     C73171  -1.747   5.119   8.067  0.7596 -0.3736  0.3119
  555MOL0    Cl73172  -1.852   4.979   8.102  0.5501 -0.3631  0.3765
  555MOL0     C73173  -0.880   4.631   8.040 -0.7566  0.0631 -0.8583
  555MOL0     C73174  -0.745   4.604   8.022  0.0708  0.6893 -0.9849
  555MOL0     O73175  -0.629   4.280   7.833  0.2568  0.3431 -0.3538
  555MOL0     C73176  -0.358   4.246   7.795 -0.4678 -0.8400 -0.0686
  555MOL0     C73177  -0.227   4.244   7.746 -0.1114 -0.5411 -0.6214
  555MOL0     N73178   0.045   4.674   7.104  0.1485 -0.4312  0.5594
  555MOL0     N73179   0.080   4.673   6.987  0.4657  0.2357  0.0813
  555MOL0     C73180   0.676   4.068   6.083  0.3297 -0.4149  0.1543
  555MOL0     C73181   0.811   4.022   6.083  0.0022  0.5129 -0.1700
  555MOL0     C73182   1.207   3.805   6.127 -0.8639 -0.4577 -0.4616
  555MOL0     C73183   1.238   3.767   6.259  1.1611 -0.0087  0.2476
  555MOL0     C73184   1.365   3.725   6.296 -0.2318 -0.9390 -1.0449
  555MOL0     C73185   1.469   3.713   6.202  0.1122 -0.5104 -0.7443
  555MOL0     O73186   1.595   3.673   6.237  0.3694  0.0623 -0.3342
  555MOL0     C73187   1.616   3.573   6.338 -1.2669 -1.0422  0.5217
  555MOL0     C73188   1.632   3.627   6.483  1.2500 -0.7018  0.0244
  555MOL0     C73189   1.688   3.780   6.495 -0.2440 -0.5148 -0.3233
  555MOL0     C73190   1.829   3.798   6.449 -0.1562 -0.1928  1.1231
  555MOL0     C73191   1.860   3.943   6.457 -0.4877  0.2102 -0.0845
  555MOL0     C73192   1.877   4.061   6.467  0.2220  0.5383  0.1531
  555MOL0     C73193   1.448   3.758   6.073  0.0570  0.1933 -0.2201
  555MOL0     C73194   1.323   3.807   6.039  0.2761 -0.9054  0.6964
  555MOL0     H73195   0.763   3.723   6.242 -3.1547 -1.3471 -1.0294
  555MOL0     H73196   0.531   3.808   6.244 -1.1333 -0.8332 -2.8076
  555MOL0     H73197   0.320   4.186   6.178 -0.5382  1.3232 -1.5346
  555MOL0     H73198   0.452   4.205   6.075 -0.1767 -0.6798 -0.2187
  555MOL0     H73199   0.532   4.332   6.265  1.8337 -0.4652 -0.1360
  555MOL0     H73200   0.574   4.186   6.339 -0.4419 -1.5993 -0.4677
  555MOL0     H73201   0.319   4.179   6.416 -0.9377  0.2714 -2.6513
  555MOL0     H73202   0.314   4.350   6.366 -1.1698 -1.6014 -1.8776
  555MOL0     H73203   0.519   4.223   6.550 -1.5024 -1.6349 -0.5162
  555MOL0     H73204   0.518   4.396   6.506 -2.9320  1.8754  0.8455
  555MOL0     H73205   0.445   4.403   6.726 -0.8380 -0.9047  0.7451
  555MOL0     H73206   0.332   4.261   6.697 -0.5040  0.7958  1.0083
  555MOL0     H73207   0.199   4.404   6.547  0.6410 -1.9918 -0.5294
  555MOL0     H73208   0.307   4.538   6.582  0.3291 -0.9433 -2.6841
  555MOL0     H73209   0.101   4.548   6.725  1.9160  0.6466  1.8254
  555MOL0     H73210   0.139   4.385   6.785  0.7801  0.6569  4.6323
  555MOL0     H73211   0.261   4.667   6.816 -1.5648 -0.5462 -2.9201
  555MOL0     H73212   0.356   4.537   6.867 -1.4297 -0.4349  2.6983
  555MOL0     H73213   0.291   4.454   7.117 -0.5899  0.0638  0.4270
  555MOL0     H73214   0.167   4.620   7.370 -0.5972 -0.8565  2.1547
  555MOL0     H73215   0.183   4.453   7.338 -0.6749 -0.7985 -1.8892
  555MOL0     H73216  -0.092   4.444   7.315 -1.4712  1.0517 -1.0660
  555MOL0     H73217  -0.087   4.621   7.335 -0.8360 -0.1338  0.1137
  555MOL0     H73218   0.024   4.579   7.555 -3.1014  1.9666 -0.7924
  555MOL0     H73219  -0.148   4.558   7.549  0.2628  4.3011 -1.7245
  555MOL0     H73220   0.070   4.341   7.515 -0.3136 -1.5451  0.2773
  555MOL0     H73221  -0.105   4.310   7.509 -1.4688  3.8090 -4.0398
  555MOL0     H73222  -0.156   4.579   7.788  0.8051  0.4477 -1.2397
  555MOL0     H73223  -0.371   4.562   7.896  1.9656  0.1599  1.7853
  555MOL0     H73224  -0.784   4.265   8.009 -0.3386 -0.1628 -1.0881
  555MOL0     H73225  -1.021   4.327   8.080  1.1197 -1.2937 -1.1257
  555MOL0     H73226  -1.151   4.729   7.955 -2.2172  1.7007 -1.1675
  555MOL0     H73227  -1.096   4.755   8.115 -0.8111  0.2387  0.5519
  555MOL0     H73228  -1.334   4.652   8.186  2.0511  2.0102  0.3399
  555MOL0     H73229  -1.381   4.667   8.016  0.6772 -0.5087 -0.4148
  555MOL0     H73230  -1.288   4.909   8.182 -1.6186  1.9041 -0.6001
  555MOL0     H73231  -1.456   4.871   8.150  0.3046  0.3777  1.1911
  555MOL0     H73232  -1.239   4.922   7.923 -0.3965 -0.0654 -1.4477
  555MOL0     H73233  -1.398   4.873   7.894  1.3052 -2.3078  0.8624
  555MOL0     H73234  -1.401   5.102   7.850 -1.5196  3.4356  1.0637
  555MOL0     H73235  -1.287   5.131   7.984  0.7662 -1.2022  0.5195
  555MOL0     H73236  -1.495   5.236   8.028  0.7278 -0.3276 -0.9189
  555MOL0     H73237  -1.463   5.107   8.148 -0.6567 -1.3715 -0.4567
  555MOL0     H73238  -1.643   5.045   7.900 -0.7208 -1.6056  0.2656
  555MOL0     H73239  -1.620   4.949   8.037  0.9197 -0.2666 -0.7690
  555MOL0     H73240  -1.789   5.187   7.992 -2.1002 -2.2390  0.0694
  555MOL0     H73241  -1.726   5.182   8.154  0.2906  1.9521 -1.1865
  555MOL0     H73242  -0.901   4.738   8.050 -0.5348  0.0861 -0.6080
  555MOL0     H73243  -0.684   4.692   8.003 -2.4994  2.3878 -1.9793
  555MOL0     H73244  -0.414   4.153   7.791 -1.6152 -0.1635 -0.0457
  555MOL0     H73245  -0.190   4.149   7.709 -2.1210 -1.3908 -0.5588
  555MOL0     H73246   0.652   4.167   6.045  1.7878 -0.9606 -2.4428
  555MOL0     H73247   0.884   4.097   6.053  0.8939 -0.5199 -0.6335
  555MOL0     H73248   1.147   3.758   6.317  0.0716  2.2544 -0.9660
  555MOL0     H73249   1.379   3.689   6.397  0.6384  0.6327 -0.5817
  555MOL0     H73250   1.711   3.524   6.314 -1.0375 -1.5309  2.2526
  555MOL0     H73251   1.549   3.488   6.329 -0.0467 -1.8909 -1.0034
  555MOL0     H73252   1.536   3.620   6.534  0.1803  1.1434 -1.5986
  555MOL0     H73253   1.713   3.570   6.529  2.3771  0.1197 -0.8866
  555MOL0     H73254   1.661   3.831   6.588  0.6437  1.0003 -0.8727
  555MOL0     H73255   1.642   3.848   6.422  3.3641  2.4498 -0.1236
  555MOL0     H73256   1.899   3.747   6.515  4.1157 -0.8513 -3.3406
  555MOL0     H73257   1.827   3.762   6.346 -2.6622  0.0986  1.0041
  555MOL0     H73258   1.884   4.167   6.476  0.9553  0.5523 -0.4957
  555MOL0     H73259   1.529   3.773   6.002  0.9116 -2.2156  0.1604
  555MOL0     H73260   1.307   3.844   5.938 -2.7026 -1.5016  0.8664
  556MOL0     O73261   9.599   5.036  10.895  0.8140 -0.1071 -0.5167
  556MOL0     C73262   9.606   5.111  10.987  0.0181  0.4142 -0.0546
  556MOL0     O73263   9.504   5.142  11.069  0.5428  0.4948  0.1727
  556MOL0     C73264   9.374   5.095  11.037  0.1930 -0.1132 -0.3838
  556MOL0     C73265   9.344   4.965  11.013  0.1092  0.8919 -0.1511
  556MOL0     C73266   9.204   4.931  10.982  0.5286 -0.0237  0.2890
  556MOL0     C73267   9.104   5.025  10.993 -0.0670  0.6639  0.4095
  556MOL0     O73268   8.969   4.997  10.965 -0.1575  0.1775 -0.1107
  556MOL0     C73269   8.886   5.020  11.074  0.6763  0.0532 -0.5052
  556MOL0     C73270   8.756   4.936  11.072 -0.3044  0.2366  0.1580
  556MOL0     C73271   8.658   4.967  11.175  0.5055 -0.0125 -0.7236
  556MOL0     C73272   8.549   4.849  11.207 -0.2140  0.6906  1.0011
  556MOL0     C73273   8.440   4.896  11.307 -0.4685  0.2823 -0.4647
  556MOL0     C73274   8.350   4.787  11.354  0.6128 -0.7143 -0.4906
  556MOL0     C73275   8.246   4.834  11.456 -0.1015  0.4007  0.6975
  556MOL0     C73276   8.189   4.707  11.519  0.8907 -0.8996 -0.1601
  556MOL0     N73277   8.051   4.728  11.580  0.0418  0.5856  0.0060
  556MOL0     C73278   7.993   4.636  11.668  0.0078 -0.1776  1.0353
  556MOL0     C73279   7.866   4.683  11.693  0.2888  1.2598 -0.3865
  556MOL0     C73280   7.761   4.612  11.780  0.0440 -0.2982 -0.2537
  556MOL0     C73281   7.653   4.553  11.685  0.2065  0.1311 -0.2009
  556MOL0     C73282   7.567   4.673  11.633  0.2014 -0.3833 -0.3882
  556MOL0     C73283   7.453   4.626  11.534  0.2382 -0.0721 -0.6396
  556MOL0     O73284   7.370   4.530  11.598  0.4983  0.2961 -0.6725
  556MOL0     C73285   7.258   4.582  11.658 -0.6498 -0.1595 -0.0057
  556MOL0     C73286   7.159   4.485  11.679 -0.0768  0.0665 -0.3212
  556MOL0     C73287   7.031   4.521  11.724  0.4682  0.6496 -0.3362
  556MOL0     C73288   6.996   4.656  11.751 -0.2978  0.1248 -0.4377
  556MOL0     C73289   6.855   4.692  11.790 -0.2399 -0.3858  0.1182
  556MOL0     O73290   6.827   4.824  11.822  0.0262 -0.0635 -0.1190
  556MOL0     C73291   6.697   4.846  11.866  0.1797 -0.0153  0.1539
  556MOL0     C73292   6.673   4.840  12.008  0.0656  0.4245  0.2609
  556MOL0     C73293   6.545   4.874  12.062 -0.8188  0.9709  0.1317
  556MOL0     C73294   6.437   4.916  11.974 -0.4598 -0.3307 -0.3013
  556MOL0     O73295   6.312   4.927  12.037  0.0047  0.4248 -0.4971
  556MOL0     C73296   6.185   4.913  11.964 -0.1329 -0.3455  0.0315
  556MOL0     C73297   6.134   4.768  11.955  0.1515  0.7698 -1.0051
  556MOL0     C73298   6.189   4.676  11.857  0.1303 -0.1803  0.0621
  556MOL0     C73299   6.153   4.708  11.712  1.0411 -0.1438  0.3559
  556MOL0     C73300   6.162   4.588  11.620 -0.2576  0.2495  1.0430
  556MOL0     C73301   6.299   4.522  11.614 -0.3857 -0.4755  0.4353
  556MOL0     C73302   6.401   4.620  11.571  0.1084 -0.7091 -0.0198
  556MOL0     C73303   6.540   4.552  11.553 -0.1637 -0.2429  0.0247
  556MOL0    Cl73304   6.514   4.461  11.395 -0.0058 -0.3028  0.0430
  556MOL0     C73305   6.470   4.932  11.837  0.2917  0.2860  0.7974
  556MOL0     C73306   6.596   4.895  11.786 -0.3631 -0.5281  0.1900
  556MOL0     O73307   6.768   4.601  11.777 -0.7851  0.2024 -0.1314
  556MOL0     C73308   7.098   4.752  11.743 -1.0163 -1.4208  0.8185
  556MOL0     C73309   7.228   4.717  11.707  0.0704 -0.4055 -0.1336
  556MOL0     N73310   7.859   4.796  11.629  0.5698  0.2364  0.3679
  556MOL0     N73311   7.971   4.833  11.562  0.1304  0.5451 -0.7266
  556MOL0     C73312   9.146   5.156  11.029 -0.1733  0.1911 -1.3928
  556MOL0     C73313   9.277   5.187  11.057 -0.2762 -0.1870  0.1962
  556MOL0     C73314   9.731   5.181  11.012 -0.0360  0.5491 -0.9330
  556MOL0     C73315   9.733   5.276  11.123 -0.0261  0.1780  0.3650
  556MOL0     C73316   9.860   5.329  11.157  0.3405 -0.2137  0.6703
  556MOL0     C73317   9.976   5.289  11.089 -0.1760 -0.0314 -0.0917
  556MOL0     O73318  10.099   5.345  11.117 -1.1767  0.1303  0.4184
  556MOL0     C73319  10.217   5.321  11.036 -0.3516  0.7868  0.0680
  556MOL0     C73320  10.343   5.393  11.083  0.6836 -0.5630  0.6119
  556MOL0     C73321  10.412   5.316  11.202 -1.0297 -0.9659 -0.6987
  556MOL0     C73322  10.526   5.406  11.259 -0.6426 -0.1326 -0.0121
  556MOL0     C73323  10.467   5.522  11.321 -0.2015 -0.3591 -0.0103
  556MOL0     C73324  10.410   5.622  11.353 -0.8387 -0.4530 -0.1353
  556MOL0     C73325   9.965   5.191  10.993  0.4444  0.4745  0.1629
  556MOL0     C73326   9.849   5.137  10.954  0.1293 -0.0011  0.4654
  556MOL0     H73327   9.422   4.891  11.003 -0.8088  0.1437 -2.3785
  556MOL0     H73328   9.160   4.833  10.967 -3.5369  1.7904 -1.2934
  556MOL0     H73329   8.854   5.124  11.059  3.3172  0.8513 -1.1934
  556MOL0     H73330   8.940   5.011  11.168  1.9066  0.6805 -1.1267
  556MOL0     H73331   8.781   4.833  11.097 -3.4812 -1.1567 -1.6599
  556MOL0     H73332   8.701   4.940  10.977 -1.6248 -2.2629  0.7384
  556MOL0     H73333   8.612   5.062  11.148  1.3006  0.3874 -0.7160
  556MOL0     H73334   8.710   4.972  11.272 -2.6458  2.4049  1.0365
  556MOL0     H73335   8.508   4.815  11.111 -0.4072 -2.4680  2.0729
  556MOL0     H73336   8.614   4.769  11.243  0.4524  0.2456 -1.0413
  556MOL0     H73337   8.387   4.979  11.259 -0.2323  1.6978  1.5770
  556MOL0     H73338   8.487   4.942  11.394 -0.8773 -2.0501  1.0668
  556MOL0     H73339   8.416   4.713  11.401  1.0787  1.8467  3.3083
  556MOL0     H73340   8.300   4.739  11.270 -1.1774  0.6804 -0.2678
  556MOL0     H73341   8.293   4.897  11.533  2.6834  0.5171 -0.9853
  556MOL0     H73342   8.170   4.891  11.401 -0.9736 -0.2960  1.1620
  556MOL0     H73343   8.260   4.680  11.598  0.9634  0.4688  0.2568
  556MOL0     H73344   8.182   4.632  11.440  1.7994 -1.3870  0.2028
  556MOL0     H73345   8.043   4.549  11.708  2.4564  1.0529  0.8390
  556MOL0     H73346   7.710   4.684  11.845  0.5737  0.0063 -0.1621
  556MOL0     H73347   7.801   4.541  11.852 -1.7637  0.9893  2.1720
  556MOL0     H73348   7.587   4.485  11.739  2.1614 -2.4420 -0.8255
  556MOL0     H73349   7.700   4.512  11.595 -1.8005 -0.2915 -1.0951
  556MOL0     H73350   7.531   4.747  11.705  1.4016 -0.9043  0.7895
  556MOL0     H73351   7.643   4.728  11.577  3.8122 -1.4399  3.0055
  556MOL0     H73352   7.505   4.577  11.451 -2.3355 -1.2898 -1.6475
  556MOL0     H73353   7.389   4.706  11.496 -0.5225 -0.1845  0.3745
  556MOL0     H73354   7.193   4.389  11.642  4.1478  1.2024  0.0247
  556MOL0     H73355   6.956   4.442  11.730  1.1048  0.0866  0.3411
  556MOL0     H73356   6.743   4.814  12.087 -0.6839  0.4974  0.9679
  556MOL0     H73357   6.528   4.861  12.169 -0.4431  0.7177  0.1639
  556MOL0     H73358   6.201   4.948  11.862  3.6202 -0.1782  0.5348
  556MOL0     H73359   6.101   4.967  12.009  0.1629  1.8539 -1.9037
  556MOL0     H73360   6.025   4.770  11.943 -0.5558  0.5166  3.6629
  556MOL0     H73361   6.150   4.734  12.058 -1.5847  2.2080 -0.2187
  556MOL0     H73362   6.152   4.575  11.877 -1.3649  0.8036  2.7879
  556MOL0     H73363   6.298   4.675  11.871  0.3580 -0.0542 -1.5126
  556MOL0     H73364   6.046   4.734  11.714  0.0484 -3.6576  3.1294
  556MOL0     H73365   6.219   4.789  11.679  2.4114 -1.0731  0.7692
  556MOL0     H73366   6.153   4.626  11.518  0.0686 -3.3624 -0.4586
  556MOL0     H73367   6.081   4.519  11.644 -0.2369 -0.3410 -0.4573
  556MOL0     H73368   6.304   4.445  11.536  0.4922 -0.0931  0.1034
  556MOL0     H73369   6.313   4.467  11.708 -0.0400 -0.9458  0.1172
  556MOL0     H73370   6.362   4.679  11.487  0.5121 -0.9261 -0.3647
  556MOL0     H73371   6.422   4.693  11.649 -1.2909  1.7684 -1.8117
  556MOL0     H73372   6.563   4.496  11.643  0.4346  1.1083  0.7378
  556MOL0     H73373   6.623   4.623  11.544  0.5542 -0.8064  1.7692
  556MOL0     H73374   6.398   4.976  11.768 -0.2600 -0.8316  0.6256
  556MOL0     H73375   6.621   4.909  11.681 -1.0338 -0.2548  0.0595
  556MOL0     H73376   7.075   4.855  11.769  0.4237  0.2445 -3.7327
  556MOL0     H73377   7.301   4.797  11.711 -0.3115 -0.0762  0.5981
  556MOL0     H73378   9.073   5.236  11.034  2.9023  3.1377  2.2814
  556MOL0     H73379   9.303   5.288  11.088  0.4039 -0.6575  1.2435
  556MOL0     H73380   9.653   5.297  11.194  0.4234  0.2719  0.8490
  556MOL0     H73381   9.851   5.393  11.245 -0.6856  2.8607 -1.5092
  556MOL0     H73382  10.188   5.351  10.935 -3.3043 -2.8103 -0.3452
  556MOL0     H73383  10.246   5.216  11.031  0.0364  0.7130  2.4318
  556MOL0     H73384  10.414   5.405  11.001  0.0734  0.7125  0.2343
  556MOL0     H73385  10.308   5.489  11.123 -0.6114 -1.2478  1.1766
  556MOL0     H73386  10.456   5.230  11.151  2.3089  0.3201 -0.2257
  556MOL0     H73387  10.351   5.283  11.287 -1.1074  1.8997  0.4921
  556MOL0     H73388  10.581   5.351  11.336 -0.3693  1.6548  1.1229
  556MOL0     H73389  10.604   5.430  11.186  1.1753 -1.2166  1.4784
  556MOL0     H73390  10.365   5.714  11.385 -0.6797 -0.2498 -0.4763
  556MOL0     H73391  10.054   5.158  10.940  0.5649  2.8561 -1.2515
  556MOL0     H73392   9.842   5.064  10.875  0.6920 -0.5207  0.8888
  557MOL0     O73393   2.136   9.113   7.095  1.0172  0.3221  0.0143
  557MOL0     C73394   2.205   9.117   6.998 -0.6144  0.3482 -0.1619
  557MOL0     O73395   2.190   9.046   6.886 -0.5173  0.2133  1.1059
  557MOL0     C73396   2.063   8.991   6.852  0.3982 -0.2455  0.0685
  557MOL0     C73397   1.945   9.063   6.872  0.4290 -0.0157  0.5263
  557MOL0     C73398   1.823   9.023   6.816  0.1556  0.4428  0.1470
  557MOL0     C73399   1.811   8.905   6.743 -0.3034  0.1473 -1.1216
  557MOL0     O73400   1.705   8.863   6.670 -0.2095 -0.0805 -0.0537
  557MOL0     C73401   1.577   8.893   6.733  0.4232  0.0495  0.4953
  557MOL0     C73402   1.478   8.826   6.646  0.4244  0.4216  0.8088
  557MOL0     C73403   1.344   8.861   6.703  0.0240  0.0884  0.8618
  557MOL0     C73404   1.224   8.808   6.617 -0.0491  0.0255 -1.3974
  557MOL0     C73405   1.219   8.659   6.613 -0.2127  0.3575  0.1238
  557MOL0     C73406   1.099   8.622   6.525 -0.3501 -0.5655 -0.0259
  557MOL0     C73407   1.052   8.473   6.522  0.2403  0.3169  0.3132
  557MOL0     C73408   0.954   8.461   6.399  0.8586  0.8781  0.3526
  557MOL0     N73409   0.832   8.540   6.425  0.4446  0.2516 -0.7540
  557MOL0     C73410   0.718   8.500   6.497 -0.1828  0.0570  0.4434
  557MOL0     C73411   0.638   8.607   6.494  0.7037 -0.2009  0.5052
  557MOL0     C73412   0.490   8.613   6.532 -0.9195  0.1425 -0.3871
  557MOL0     C73413   0.386   8.605   6.413  0.3660  0.5364 -0.8361
  557MOL0     C73414   0.250   8.592   6.468  0.3579  0.6503 -0.2665
  557MOL0     C73415   0.145   8.565   6.360  0.8498  0.4703  0.4957
  557MOL0     O73416   0.019   8.604   6.396  0.0739 -0.3688  0.2662
  557MOL0     C73417  -0.090   8.571   6.307 -0.5868  0.0902 -0.1951
  557MOL0     C73418  -0.079   8.521   6.174 -0.4115 -0.0562 -1.4270
  557MOL0     C73419  -0.194   8.516   6.092 -0.3690 -0.1161  0.7931
  557MOL0     C73420  -0.322   8.544   6.156  0.1216 -0.9759 -0.2894
  557MOL0     C73421  -0.443   8.547   6.072  0.0284 -0.8190 -0.3953
  557MOL0     O73422  -0.556   8.608   6.113  0.1031  0.1023 -0.3235
  557MOL0     C73423  -0.675   8.595   6.049  0.1482  0.0392  0.5687
  557MOL0     C73424  -0.697   8.601   5.911  0.5978 -0.2494  0.1856
  557MOL0     C73425  -0.826   8.626   5.862 -0.2862 -1.2830 -1.1486
  557MOL0     C73426  -0.934   8.641   5.955  0.2906 -0.4335  0.2213
  557MOL0     O73427  -1.053   8.677   5.893 -0.4656  0.6152  0.4623
  557MOL0     C73428  -1.166   8.714   5.968  0.5022  0.6360 -0.4515
  557MOL0     C73429  -1.244   8.595   6.023  0.0320 -0.6305 -0.0251
  557MOL0     C73430  -1.362   8.628   6.115 -0.0638 -0.6001  0.1650
  557MOL0     C73431  -1.339   8.601   6.263 -0.2377  0.0717 -0.1090
  557MOL0     C73432  -1.465   8.623   6.336 -0.3991  0.3053  0.1465
  557MOL0     C73433  -1.439   8.688   6.461  0.1490  0.8341 -0.1491
  557MOL0     C73434  -1.576   8.715   6.530 -0.0199 -0.1542 -0.0988
  557MOL0     C73435  -1.555   8.788   6.663 -0.5894  1.0336 -0.4267
  557MOL0    Cl73436  -1.705   8.869   6.715 -0.5492  0.2210  0.0079
  557MOL0     C73437  -0.910   8.631   6.089  0.5320 -0.2265  0.1296
  557MOL0     C73438  -0.780   8.619   6.126 -0.4924  0.3292 -0.5725
  557MOL0     O73439  -0.424   8.496   5.967  0.6447 -0.0971  0.0939
  557MOL0     C73440  -0.330   8.581   6.291  0.4311 -0.3008  0.6180
  557MOL0     C73441  -0.212   8.604   6.359  0.8251 -0.0366  0.2548
  557MOL0     N73442   0.703   8.703   6.421  0.3071 -1.1515  0.1466
  557MOL0     N73443   0.819   8.663   6.379  0.2240  0.2031  0.4336
  557MOL0     C73444   1.932   8.836   6.713 -0.4673  0.3126  0.1349
  557MOL0     C73445   2.055   8.877   6.779  0.1171  0.7339 -0.0426
  557MOL0     C73446   2.324   9.193   7.001  0.2647 -0.2733  0.4182
  557MOL0     C73447   2.347   9.288   7.100  0.7431  0.6502 -0.1035
  557MOL0     C73448   2.467   9.356   7.105 -0.2904  0.6379 -0.2602
  557MOL0     C73449   2.561   9.346   6.997  0.3211 -0.7993  0.2103
  557MOL0     O73450   2.672   9.428   7.006  0.3616  0.2588  0.8810
  557MOL0     C73451   2.773   9.433   6.899 -0.5859 -0.3954  0.0543
  557MOL0     C73452   2.873   9.324   6.910 -0.3027  0.0371 -0.6355
  557MOL0     C73453   2.957   9.348   7.036 -0.2408 -0.8187 -0.3618
  557MOL0     C73454   3.076   9.262   7.038  0.1269  0.7256 -0.2580
  557MOL0     C73455   3.149   9.293   7.166 -1.3123 -0.2586  0.0199
  557MOL0     C73456   3.214   9.314   7.267  0.4412  0.6460  0.2854
  557MOL0     C73457   2.539   9.258   6.893  0.1154 -0.0610  0.5207
  557MOL0     C73458   2.415   9.184   6.894  0.3965 -0.0337 -0.7221
  557MOL0     H73459   1.944   9.160   6.921 -0.3129  1.1134 -1.5942
  557MOL0     H73460   1.745   9.098   6.822 -2.5760 -2.3849  3.3244
  557MOL0     H73461   1.561   9.001   6.723 -1.5418 -0.2102  0.4460
  557MOL0     H73462   1.568   8.873   6.840  1.5662 -1.0053  0.4205
  557MOL0     H73463   1.500   8.719   6.647  1.6900  0.6305 -0.8926
  557MOL0     H73464   1.485   8.864   6.544  0.5133  0.6021  0.8822
  557MOL0     H73465   1.342   8.971   6.697  4.5627  0.4013  1.8417
  557MOL0     H73466   1.335   8.835   6.809 -0.2679 -2.7394  0.2143
  557MOL0     H73467   1.139   8.854   6.668 -0.2811 -1.4364 -0.3996
  557MOL0     H73468   1.223   8.851   6.517 -2.3677 -0.1635 -1.5006
  557MOL0     H73469   1.209   8.615   6.713  1.1247  0.6634  0.4067
  557MOL0     H73470   1.310   8.618   6.569  0.9181  3.3987 -0.6133
  557MOL0     H73471   1.113   8.663   6.424  0.3580  0.1560  0.3570
  557MOL0     H73472   1.017   8.681   6.566  2.1159  0.8710  3.3392
  557MOL0     H73473   1.136   8.405   6.507 -0.0374 -0.3318  1.5462
  557MOL0     H73474   1.002   8.450   6.617  0.0702 -2.3146 -0.3556
  557MOL0     H73475   0.925   8.357   6.383 -1.5675  1.6117 -0.4505
  557MOL0     H73476   1.004   8.488   6.306  0.1847 -1.1526 -0.6423
  557MOL0     H73477   0.691   8.408   6.549 -4.1009  1.8499  1.9917
  557MOL0     H73478   0.462   8.704   6.587  2.7083  0.3825  1.3542
  557MOL0     H73479   0.471   8.522   6.589  1.5679  0.2134  0.7029
  557MOL0     H73480   0.408   8.519   6.350 -1.7625 -0.3825 -0.3973
  557MOL0     H73481   0.397   8.698   6.357  1.4813  0.0127 -1.5275
  557MOL0     H73482   0.229   8.510   6.537 -4.1879 -0.6949 -2.8547
  557MOL0     H73483   0.234   8.685   6.524  1.2042  0.9736 -0.5413
  557MOL0     H73484   0.143   8.458   6.339 -0.1569  0.4574  0.6055
  557MOL0     H73485   0.162   8.616   6.264 -5.6098 -0.0393 -1.4079
  557MOL0     H73486   0.024   8.493   6.153  0.6810  0.6667  2.1706
  557MOL0     H73487  -0.179   8.484   5.990  1.3159 -0.5078  1.1302
  557MOL0     H73488  -0.607   8.614   5.852 -0.1664  0.9161 -0.7878
  557MOL0     H73489  -0.843   8.640   5.756  0.7324 -1.6330 -1.3719
  557MOL0     H73490  -1.233   8.777   5.909  3.0738  2.5637 -1.4807
  557MOL0     H73491  -1.149   8.784   6.050 -2.6025  0.2382  0.6756
  557MOL0     H73492  -1.168   8.528   6.063  1.6062  0.1951 -1.5054
  557MOL0     H73493  -1.282   8.544   5.934 -1.9405 -1.4425  1.2139
  557MOL0     H73494  -1.429   8.547   6.088 -0.8042  0.2111 -0.4799
  557MOL0     H73495  -1.399   8.729   6.093 -2.0438 -1.2735  0.2895
  557MOL0     H73496  -1.316   8.495   6.273 -2.7692 -0.8180 -2.5843
  557MOL0     H73497  -1.257   8.660   6.306  0.6855 -2.2136  1.4674
  557MOL0     H73498  -1.514   8.527   6.351  2.1330 -0.8408  1.6867
  557MOL0     H73499  -1.518   8.694   6.272  3.1409  3.2167  0.0961
  557MOL0     H73500  -1.382   8.779   6.440  0.4755  0.5667 -0.4298
  557MOL0     H73501  -1.371   8.617   6.510  0.4293  0.1436 -1.5122
  557MOL0     H73502  -1.651   8.767   6.471 -0.3636 -2.9930 -2.3951
  557MOL0     H73503  -1.613   8.615   6.556 -0.6166  0.5642  1.9839
  557MOL0     H73504  -1.485   8.871   6.650 -2.6337  3.3633  2.2309
  557MOL0     H73505  -1.509   8.722   6.738  2.2963 -0.0758 -2.9483
  557MOL0     H73506  -0.984   8.618   6.166  3.0454 -1.4042  2.5252
  557MOL0     H73507  -0.753   8.624   6.231  1.8046 -1.1709 -1.0207
  557MOL0     H73508  -0.430   8.607   6.325 -0.5244 -1.7689 -0.8941
  557MOL0     H73509  -0.211   8.659   6.453  0.0795  0.4133  0.0145
  557MOL0     H73510   1.911   8.755   6.644 -1.4922  0.6598  0.0141
  557MOL0     H73511   2.144   8.825   6.744  1.7720  2.7285  0.9474
  557MOL0     H73512   2.266   9.307   7.170 -0.5259 -1.2469 -0.9700
  557MOL0     H73513   2.477   9.428   7.185 -0.1001 -0.8787  1.1210
  557MOL0     H73514   2.809   9.536   6.903 -0.3619 -0.4259 -0.8766
  557MOL0     H73515   2.722   9.430   6.802  0.3584 -0.5991 -0.4499
  557MOL0     H73516   2.826   9.232   6.945 -1.7549  1.3362  1.0196
  557MOL0     H73517   2.938   9.307   6.824  1.9646 -2.0355  1.3502
  557MOL0     H73518   2.893   9.333   7.123 -0.5103  2.7451  0.1941
  557MOL0     H73519   2.987   9.453   7.034  0.5831 -1.0529 -0.5359
  557MOL0     H73520   3.047   9.157   7.035 -4.9484  1.8916  0.0477
  557MOL0     H73521   3.141   9.283   6.953  0.3139  0.8687 -0.0823
  557MOL0     H73522   3.281   9.346   7.345  2.3969 -0.7400 -0.7386
  557MOL0     H73523   2.609   9.254   6.810  1.8958  0.1373  1.9618
  557MOL0     H73524   2.395   9.126   6.805 -1.5574 -1.8024  0.7644
  558MOL0     O73525   0.495   9.251   2.300 -0.3418 -0.5358  0.3045
  558MOL0     C73526   0.475   9.152   2.234  0.0865  0.5116  0.3380
  558MOL0     O73527   0.358   9.121   2.163  0.6257  0.5964 -0.5154
  558MOL0     C73528   0.235   9.181   2.185 -0.3858  0.6120 -0.2275
  558MOL0     C73529   0.145   9.199   2.079  1.3266  0.5198  0.1049
  558MOL0     C73530   0.022   9.258   2.108 -1.3813 -1.1713  0.5614
  558MOL0     C73531  -0.005   9.305   2.231 -0.7547  0.2691 -0.2625
  558MOL0     O73532  -0.126   9.366   2.259 -0.2684  0.2909  0.2877
  558MOL0     C73533  -0.200   9.440   2.163  0.2979 -0.2941  0.0507
  558MOL0     C73534  -0.283   9.548   2.232  0.0784  0.1065 -0.3967
  558MOL0     C73535  -0.383   9.488   2.336 -0.3213  0.1255  0.4445
  558MOL0     C73536  -0.477   9.600   2.376 -0.3955  0.0282  0.1785
  558MOL0     C73537  -0.571   9.559   2.494 -0.6363 -0.4068  0.6407
  558MOL0     C73538  -0.660   9.681   2.545 -0.4955  0.5112 -0.4171
  558MOL0     C73539  -0.771   9.730   2.456  0.4004  0.3446  0.4989
  558MOL0     C73540  -0.897   9.645   2.458 -0.8239 -0.6205 -0.0614
  558MOL0     N73541  -0.960   9.627   2.589  0.0175 -0.3705 -0.6959
  558MOL0     C73542  -1.038   9.531   2.650  0.2252 -0.0364 -0.1272
  558MOL0     C73543  -1.079   9.579   2.763  0.4924 -0.7372 -0.5044
  558MOL0     C73544  -1.154   9.498   2.863  0.5223  0.0069 -0.8315
  558MOL0     C73545  -1.302   9.539   2.864 -0.7347 -0.1293 -0.3620
  558MOL0     C73546  -1.377   9.483   2.992 -0.1022 -0.3594  0.0254
  558MOL0     C73547  -1.519   9.530   2.993 -0.4583 -0.7198 -0.3718
  558MOL0     O73548  -1.594   9.481   2.879 -0.5481 -0.2964 -0.3814
  558MOL0     C73549  -1.730   9.495   2.880 -0.1678 -0.3452  0.0443
  558MOL0     C73550  -1.804   9.578   2.963  0.1870  0.4337  0.0314
  558MOL0     C73551  -1.948   9.582   2.950 -0.2172  0.3847  0.1970
  558MOL0     C73552  -2.014   9.504   2.848 -0.2405 -0.9419 -0.2996
  558MOL0     C73553  -2.156   9.509   2.817 -0.1443  0.1227  0.0624
  558MOL0     O73554  -2.236   9.598   2.883  0.4237 -0.4147 -0.1826
  558MOL0     C73555  -2.378   9.572   2.896 -0.2396 -0.5638  0.9574
  558MOL0     C73556  -2.466   9.684   2.889  0.1593 -0.1060 -0.8841
  558MOL0     C73557  -2.604   9.684   2.893 -0.6392  0.1392 -0.2080
  558MOL0     C73558  -2.665   9.561   2.912 -0.3012  0.1432 -0.3861
  558MOL0     O73559  -2.803   9.545   2.924 -0.5157 -0.2250 -0.9295
  558MOL0     C73560  -2.884   9.659   2.948  0.0207 -0.0366 -0.3530
  558MOL0     C73561  -3.023   9.631   3.022 -1.0361 -0.1564  0.2325
  558MOL0     C73562  -3.112   9.511   2.974  0.7725  0.3152 -0.5645
  558MOL0     C73563  -3.262   9.526   3.015 -0.2393  0.5435 -0.7142
  558MOL0     C73564  -3.324   9.387   3.010  0.8439  0.0925 -0.1717
  558MOL0     C73565  -3.468   9.390   3.056 -0.3864  0.1269 -0.8427
  558MOL0     C73566  -3.574   9.427   2.955  0.7454  0.0972 -0.2282
  558MOL0     C73567  -3.714   9.431   3.021 -0.7370 -0.0228 -0.3560
  558MOL0    Cl73568  -3.778   9.272   3.055 -0.4456 -0.0248 -0.0149
  558MOL0     C73569  -2.588   9.440   2.914 -0.6766 -0.3812  0.7259
  558MOL0     C73570  -2.441   9.446   2.899  0.4238  0.2211 -0.4610
  558MOL0     O73571  -2.194   9.428   2.735 -0.1276  0.0470 -0.2634
  558MOL0     C73572  -1.934   9.441   2.754 -0.8082  0.3268  1.0005
  558MOL0     C73573  -1.797   9.431   2.772 -0.2607  0.6822 -0.5911
  558MOL0     N73574  -1.037   9.701   2.780 -0.2674 -0.3032  0.1996
  558MOL0     N73575  -0.969   9.742   2.678  0.2339 -0.0150 -0.1611
  558MOL0     C73576   0.085   9.291   2.335  0.4285 -0.5113 -0.3066
  558MOL0     C73577   0.206   9.226   2.312 -0.0558 -0.6487 -0.7640
  558MOL0     C73578   0.590   9.059   2.222  0.0090  0.6114 -0.2200
  558MOL0     C73579   0.568   8.931   2.170 -0.1328 -0.6876 -0.0600
  558MOL0     C73580   0.682   8.841   2.160 -0.1346  0.7107  0.1830
  558MOL0     C73581   0.809   8.877   2.210  0.1263 -0.2876  0.0169
  558MOL0     O73582   0.908   8.782   2.229  0.5278 -0.6947 -0.3745
  558MOL0     C73583   0.934   8.713   2.115  0.0452 -0.5932  0.6728
  558MOL0     C73584   1.084   8.730   2.083  0.7844 -0.0194  0.2883
  558MOL0     C73585   1.172   8.659   2.189  0.3493 -0.1953 -0.0373
  558MOL0     C73586   1.323   8.652   2.140 -0.0259 -0.5375 -0.3421
  558MOL0     C73587   1.407   8.548   2.199  0.7698  0.6831  0.3964
  558MOL0     C73588   1.463   8.470   2.263 -0.2709  0.1666 -0.0413
  558MOL0     C73589   0.823   8.999   2.275  0.1530 -0.2298  0.0350
  558MOL0     C73590   0.720   9.091   2.268 -0.3512  0.4704  0.4302
  558MOL0     H73591   0.182   9.163   1.984  2.0721 -0.6892  0.8220
  558MOL0     H73592  -0.050   9.280   2.029  2.4182  1.3342 -2.6143
  558MOL0     H73593  -0.270   9.374   2.110  0.8626 -1.6885  0.9822
  558MOL0     H73594  -0.147   9.487   2.079  0.7090  1.5524  1.2804
  558MOL0     H73595  -0.336   9.583   2.143  0.8685 -2.8988 -2.2121
  558MOL0     H73596  -0.227   9.626   2.285 -1.0779  0.2171  0.7040
  558MOL0     H73597  -0.335   9.453   2.428  2.5413 -0.5249 -1.1848
  558MOL0     H73598  -0.435   9.405   2.286 -0.9280  1.0912 -0.5888
  558MOL0     H73599  -0.416   9.684   2.410 -2.5134  1.2757  1.0613
  558MOL0     H73600  -0.533   9.646   2.294  0.3091  0.4097 -0.0970
  558MOL0     H73601  -0.516   9.512   2.576 -1.9373 -1.8533  0.7244
  558MOL0     H73602  -0.628   9.476   2.451  1.4444 -0.4912 -2.2502
  558MOL0     H73603  -0.581   9.754   2.565  0.9575 -1.4509  1.5658
  558MOL0     H73604  -0.703   9.647   2.640 -1.8575  0.5344 -1.0088
  558MOL0     H73605  -0.787   9.830   2.499 -0.7530 -0.0397  1.0240
  558MOL0     H73606  -0.725   9.745   2.358 -0.6046  0.3137  0.0133
  558MOL0     H73607  -0.870   9.551   2.408  0.0072 -1.0684  1.1599
  558MOL0     H73608  -0.969   9.696   2.395  0.3444  1.1105 -0.0532
  558MOL0     H73609  -1.072   9.436   2.610 -2.9207  1.3870 -1.1704
  558MOL0     H73610  -1.113   9.515   2.963 -3.1159 -3.5799  1.5909
  558MOL0     H73611  -1.130   9.394   2.838  0.5576 -0.0328 -0.6329
  558MOL0     H73612  -1.353   9.504   2.774 -0.5732  0.9156 -0.8781
  558MOL0     H73613  -1.300   9.648   2.874  0.5815 -0.2628  1.2379
  558MOL0     H73614  -1.375   9.374   2.993  0.3716 -0.3934 -1.7512
  558MOL0     H73615  -1.329   9.521   3.083  1.5339 -4.2393  1.0040
  558MOL0     H73616  -1.514   9.639   2.996  2.7846 -0.7928  2.0818
  558MOL0     H73617  -1.568   9.504   3.087 -0.1533  0.0855  0.0188
  558MOL0     H73618  -1.756   9.641   3.037 -0.2266  2.0421 -1.0166
  558MOL0     H73619  -1.999   9.636   3.030 -1.8980 -1.6024  0.5537
  558MOL0     H73620  -2.421   9.781   2.875  0.8401 -0.6820 -3.0194
  558MOL0     H73621  -2.658   9.777   2.890 -1.2169 -0.1929 -0.2041
  558MOL0     H73622  -2.907   9.705   2.851  2.9245 -0.8962 -1.5399
  558MOL0     H73623  -2.829   9.733   3.006  0.4105  0.5730 -1.4540
  558MOL0     H73624  -3.088   9.720   3.018 -0.6865  0.0454 -2.0962
  558MOL0     H73625  -3.003   9.628   3.130 -1.9579 -1.4254  0.3860
  558MOL0     H73626  -3.063   9.424   3.018 -0.4820 -1.6031 -2.7355
  558MOL0     H73627  -3.105   9.493   2.866  1.1699 -1.5491 -0.2558
  558MOL0     H73628  -3.265   9.565   3.117  0.1545 -2.1963  0.4288
  558MOL0     H73629  -3.311   9.582   2.934  0.0491 -0.5946 -1.7144
  558MOL0     H73630  -3.275   9.324   3.084 -1.2275  0.2102  1.4171
  558MOL0     H73631  -3.319   9.336   2.913 -1.2968  0.2102 -0.3978
  558MOL0     H73632  -3.483   9.452   3.145  0.6795 -1.5038  0.5176
  558MOL0     H73633  -3.480   9.287   3.090  1.9388  0.4655  1.3272
  558MOL0     H73634  -3.563   9.530   2.919 -3.0877  0.5355 -0.5499
  558MOL0     H73635  -3.581   9.365   2.866 -1.3866  2.3730 -1.7757
  558MOL0     H73636  -3.785   9.474   2.950 -0.5908 -2.6313 -2.2494
  558MOL0     H73637  -3.709   9.484   3.116 -2.2316 -0.8302  0.2199
  558MOL0     H73638  -2.634   9.341   2.915 -1.4504 -0.0387  0.0606
  558MOL0     H73639  -2.382   9.356   2.887  1.4213  0.3811  2.5655
  558MOL0     H73640  -1.972   9.388   2.667 -0.5858  1.3575  0.2675
  558MOL0     H73641  -1.743   9.365   2.705  0.0033 -2.4662  2.3988
  558MOL0     H73642   0.068   9.328   2.436  1.0817 -0.3627 -0.2504
  558MOL0     H73643   0.275   9.220   2.395  0.0800  1.9539 -0.5955
  558MOL0     H73644   0.476   8.892   2.128  0.5190 -2.6132  0.2293
  558MOL0     H73645   0.685   8.741   2.119  1.0184 -0.4454  2.8250
  558MOL0     H73646   0.886   8.741   2.021  0.0340 -1.6639  0.3428
  558MOL0     H73647   0.916   8.606   2.131 -1.1694 -0.4341  0.4222
  558MOL0     H73648   1.103   8.675   1.990 -0.4403 -1.9010  1.0750
  558MOL0     H73649   1.105   8.836   2.070  1.8399 -0.5793 -3.7734
  558MOL0     H73650   1.124   8.561   2.199 -1.4203  0.5321 -0.8483
  558MOL0     H73651   1.168   8.703   2.289  1.5278 -0.5809  0.1942
  558MOL0     H73652   1.320   8.647   2.031  1.0431  1.5108 -0.4995
  558MOL0     H73653   1.367   8.750   2.160  0.1012 -0.4227 -1.1615
  558MOL0     H73654   1.508   8.398   2.328  0.0930 -1.2094 -1.7252
  558MOL0     H73655   0.915   9.036   2.318  0.3473  0.8495 -1.2271
  558MOL0     H73656   0.738   9.196   2.284 -0.1558  0.7642 -1.4377
  559MOL0     O73657   4.372   1.675   8.329  0.0356 -0.0801  0.3918
  559MOL0     C73658   4.375   1.733   8.435 -0.4603  0.1566 -0.3276
  559MOL0     O73659   4.266   1.795   8.491 -0.7868  0.2956 -0.0655
  559MOL0     C73660   4.142   1.773   8.445  0.3485 -0.1891 -0.2240
  559MOL0     C73661   4.096   1.649   8.392  0.2323  0.6973  0.6144
  559MOL0     C73662   3.964   1.629   8.344  0.7585 -0.4970 -0.2580
  559MOL0     C73663   3.868   1.732   8.350 -0.8786  0.2283 -0.1592
  559MOL0     O73664   3.744   1.704   8.301 -0.3366 -0.1251  1.5092
  559MOL0     C73665   3.642   1.791   8.289  0.3531 -0.2353 -0.2706
  559MOL0     C73666   3.508   1.718   8.255  0.2594 -0.5790 -0.9539
  559MOL0     C73667   3.383   1.817   8.257 -0.7933 -1.0620  0.3791
  559MOL0     C73668   3.383   1.927   8.379  0.3352  1.0528  0.5709
  559MOL0     C73669   3.240   1.976   8.405  0.2313  0.6521 -0.0609
  559MOL0     C73670   3.185   2.063   8.291 -0.4577  0.6562  0.0372
  559MOL0     C73671   3.046   2.116   8.310  0.7611  0.7575 -0.6560
  559MOL0     C73672   2.920   2.027   8.306 -0.2347  1.5854  0.5852
  559MOL0     N73673   2.803   2.106   8.334  0.2304 -0.3090  0.2835
  559MOL0     C73674   2.766   2.226   8.275  0.2301  1.2759 -0.4640
  559MOL0     C73675   2.641   2.241   8.308  0.3576 -0.1234  0.3408
  559MOL0     C73676   2.548   2.347   8.246  0.0826  0.3047 -0.0501
  559MOL0     C73677   2.449   2.268   8.160 -0.1358 -0.3881  1.6149
  559MOL0     C73678   2.366   2.348   8.055 -0.6338  0.5737 -0.1731
  559MOL0     C73679   2.294   2.470   8.121 -0.6346  1.1212 -0.3416
  559MOL0     O73680   2.214   2.415   8.224  0.0949 -0.4568  0.0563
  559MOL0     C73681   2.134   2.504   8.288  0.3221  0.2861  0.3005
  559MOL0     C73682   2.180   2.579   8.398 -0.1858 -0.1803  0.1508
  559MOL0     C73683   2.094   2.671   8.460  0.5736 -0.6774 -0.7789
  559MOL0     C73684   1.956   2.680   8.418  0.6257 -0.7986 -0.0476
  559MOL0     C73685   1.861   2.766   8.500 -0.2542  0.0186  0.3565
  559MOL0     O73686   1.917   2.849   8.587  0.2469  0.4071  0.9956
  559MOL0     C73687   1.838   2.962   8.609 -1.3788 -0.1850 -0.0681
  559MOL0     C73688   1.812   3.065   8.511  0.2145  0.3895 -0.0608
  559MOL0     C73689   1.728   3.173   8.543  0.4864 -0.7895  0.8666
  559MOL0     C73690   1.639   3.169   8.653  0.2636 -0.3690  0.1438
  559MOL0     O73691   1.537   3.262   8.656 -0.2596  0.3948  0.0668
  559MOL0     C73692   1.534   3.343   8.773  0.3005 -0.0643  0.4289
  559MOL0     C73693   1.415   3.446   8.778  0.0146  0.3818  0.3037
  559MOL0     C73694   1.279   3.377   8.800 -0.0630 -0.5123 -0.1883
  559MOL0     C73695   1.236   3.337   8.945 -0.6049  0.5862  0.4066
  559MOL0     C73696   1.094   3.272   8.956  0.3853 -0.2198 -0.2213
  559MOL0     C73697   1.077   3.249   9.111 -0.0337  0.0070 -0.2902
  559MOL0     C73698   0.939   3.188   9.136 -0.2251 -0.5075 -0.3069
  559MOL0     C73699   0.932   3.172   9.287  0.3369 -0.2929 -0.6185
  559MOL0    Cl73700   0.763   3.125   9.335  0.4585  0.0266  0.0993
  559MOL0     C73701   1.657   3.072   8.747  1.0311 -0.2070  0.6375
  559MOL0     C73702   1.751   2.968   8.718  0.2695  0.2160  0.3947
  559MOL0     O73703   1.741   2.774   8.466 -0.0472  1.0027  0.0129
  559MOL0     C73704   1.917   2.611   8.302  0.2371 -0.0135 -0.9072
  559MOL0     C73705   2.011   2.525   8.238 -0.4091 -0.5386 -0.1353
  559MOL0     N73706   2.610   2.140   8.396  0.3143 -0.0368 -0.3382
  559MOL0     N73707   2.705   2.067   8.409 -0.2388 -0.0433  0.4217
  559MOL0     C73708   3.908   1.851   8.419  0.3204 -0.4169 -0.1018
  559MOL0     C73709   4.045   1.870   8.468  0.3543 -0.0338 -1.0295
  559MOL0     C73710   4.505   1.754   8.486  0.1692  0.2839 -0.2831
  559MOL0     C73711   4.540   1.871   8.555  0.5528  0.4950  0.7567
  559MOL0     C73712   4.673   1.889   8.600 -0.4408  0.3825 -0.2362
  559MOL0     C73713   4.774   1.787   8.600  0.0276  0.3827  0.6531
  559MOL0     O73714   4.899   1.800   8.658 -0.2217  0.6863 -0.3521
  559MOL0     C73715   4.920   1.911   8.740 -1.3721 -0.6437 -0.5795
  559MOL0     C73716   5.039   1.896   8.839  0.1930 -0.4005  0.2356
  559MOL0     C73717   5.088   2.026   8.896 -0.2385  0.1915  0.3225
  559MOL0     C73718   5.203   1.992   8.991 -0.1206 -0.3224  0.8990
  559MOL0     C73719   5.285   2.099   9.047 -0.3937  0.4939  0.2126
  559MOL0     C73720   5.356   2.172   9.119 -0.0601 -0.2385  0.1003
  559MOL0     C73721   4.734   1.671   8.531 -0.1219 -0.7557  0.2229
  559MOL0     C73722   4.607   1.656   8.470 -0.1273 -0.8288 -0.7454
  559MOL0     H73723   4.156   1.561   8.368 -2.6814 -0.2754 -4.8855
  559MOL0     H73724   3.937   1.534   8.299  0.0495 -0.2389 -0.3956
  559MOL0     H73725   3.664   1.860   8.206  1.1754 -0.2023 -0.0315
  559MOL0     H73726   3.632   1.846   8.383  2.9807  1.8992 -1.0928
  559MOL0     H73727   3.491   1.643   8.333 -1.3694  0.8159  0.1081
  559MOL0     H73728   3.517   1.672   8.157 -0.7530  2.6180 -2.6865
  559MOL0     H73729   3.296   1.752   8.261 -0.1202 -1.9144  2.1018
  559MOL0     H73730   3.394   1.868   8.161 -1.1390 -0.6286  0.5649
  559MOL0     H73731   3.438   1.884   8.463  1.9076 -0.3042 -1.0682
  559MOL0     H73732   3.433   2.021   8.354 -0.1099  0.7364 -1.7539
  559MOL0     H73733   3.242   2.046   8.489  0.1952  0.3081  0.2276
  559MOL0     H73734   3.175   1.896   8.441  3.6385 -1.7469  1.2439
  559MOL0     H73735   3.171   1.998   8.204  1.0217 -1.8865  1.5748
  559MOL0     H73736   3.255   2.141   8.258 -0.2927  1.5152  2.2799
  559MOL0     H73737   3.039   2.170   8.405 -0.5948 -3.0604  1.6837
  559MOL0     H73738   3.017   2.186   8.232 -4.5267 -0.8227 -0.5257
  559MOL0     H73739   2.920   1.935   8.366 -0.9192 -2.8567 -5.3631
  559MOL0     H73740   2.893   1.988   8.207 -2.1022 -1.8076  2.2253
  559MOL0     H73741   2.820   2.286   8.202 -1.1309 -0.2586 -2.8896
  559MOL0     H73742   2.599   2.415   8.177  0.8519  2.7961  2.7852
  559MOL0     H73743   2.498   2.410   8.320 -0.3323  0.8410 -0.7690
  559MOL0     H73744   2.381   2.227   8.235 -0.2817  1.1017  2.3345
  559MOL0     H73745   2.503   2.190   8.105  0.7248  2.5802 -2.1683
  559MOL0     H73746   2.421   2.393   7.972 -0.8313 -2.4091 -2.0791
  559MOL0     H73747   2.294   2.280   8.008  0.4018 -1.3958  0.9116
  559MOL0     H73748   2.246   2.527   8.041 -2.0251 -0.3748 -0.6342
  559MOL0     H73749   2.368   2.541   8.159 -0.2538  1.0333 -0.9034
  559MOL0     H73750   2.281   2.567   8.436  0.5377 -1.1780 -1.9384
  559MOL0     H73751   2.138   2.741   8.530  4.6697  0.9423 -4.5049
  559MOL0     H73752   1.859   3.067   8.413 -0.1120 -1.3877 -0.2927
  559MOL0     H73753   1.713   3.251   8.468  0.9565 -0.0278  1.5599
  559MOL0     H73754   1.627   3.400   8.782  2.3244 -2.8896 -1.0797
  559MOL0     H73755   1.524   3.284   8.864  1.8909  1.3422  1.5648
  559MOL0     H73756   1.410   3.510   8.689 -2.5469  1.2326  0.9746
  559MOL0     H73757   1.428   3.524   8.853 -3.1155  1.8931 -0.5670
  559MOL0     H73758   1.274   3.288   8.735  1.3183 -2.0759  1.7090
  559MOL0     H73759   1.213   3.456   8.765 -1.2728  0.0045  2.9444
  559MOL0     H73760   1.308   3.269   8.991 -0.3512  0.7141  0.2062
  559MOL0     H73761   1.231   3.433   8.998 -0.8221 -1.1786  3.8818
  559MOL0     H73762   1.091   3.173   8.909  0.8264 -0.0868 -0.5344
  559MOL0     H73763   1.015   3.333   8.912  0.7891  0.7771  0.4068
  559MOL0     H73764   1.078   3.345   9.164 -0.5363  0.0830 -0.4156
  559MOL0     H73765   1.150   3.178   9.150  2.0736  2.8020  1.2942
  559MOL0     H73766   0.878   3.269   9.095  1.6515  1.3164  0.3048
  559MOL0     H73767   0.931   3.092   9.085  4.0331 -0.8715 -0.6573
  559MOL0     H73768   0.949   3.266   9.338 -1.5449 -0.1197 -0.2453
  559MOL0     H73769   1.007   3.107   9.333  0.7436  1.5231  1.4440
  559MOL0     H73770   1.596   3.080   8.837 -0.4668  4.8283 -0.4623
  559MOL0     H73771   1.751   2.875   8.773 -0.0910 -0.3740 -0.5769
  559MOL0     H73772   1.815   2.610   8.263  0.4400  0.1041 -1.4427
  559MOL0     H73773   1.972   2.493   8.142 -0.5927  0.2835 -0.3461
  559MOL0     H73774   3.847   1.940   8.434 -0.3490 -0.9483  0.3528
  559MOL0     H73775   4.067   1.961   8.522 -0.5494  0.2124 -1.0722
  559MOL0     H73776   4.468   1.952   8.567  1.5042  1.2815  1.2986
  559MOL0     H73777   4.683   1.983   8.653 -0.4215 -0.2056  0.8357
  559MOL0     H73778   4.838   1.936   8.808 -1.0564 -0.5177 -0.2433
  559MOL0     H73779   4.939   1.999   8.678 -1.3002  2.3616  3.2722
  559MOL0     H73780   5.014   1.828   8.921  0.3561  0.0715  0.6817
  559MOL0     H73781   5.124   1.859   8.780 -1.1043  0.6965 -2.5419
  559MOL0     H73782   5.009   2.091   8.935  0.3473  1.2019 -0.1445
  559MOL0     H73783   5.134   2.081   8.814 -0.1553 -1.4419 -0.7769
  559MOL0     H73784   5.175   1.928   9.075  0.2259 -1.2337  0.3346
  559MOL0     H73785   5.275   1.943   8.924  0.6623  1.1463  0.6071
  559MOL0     H73786   5.425   2.229   9.178  2.9518 -2.2429 -1.2847
  559MOL0     H73787   4.806   1.591   8.543 -0.0801 -0.6698  0.5326
  559MOL0     H73788   4.601   1.554   8.432 -1.0339 -1.1522  0.1891
  560MOL0     O73789   5.183  10.068   6.086  0.2328 -0.6100 -0.0077
  560MOL0     C73790   5.132  10.175   6.040  0.8136  0.6052  0.3729
  560MOL0     O73791   5.005  10.207   6.021 -0.4330  0.2376 -0.0808
  560MOL0     C73792   4.903  10.149   6.096 -0.4278 -0.3191 -0.8571
  560MOL0     C73793   4.776  10.136   6.041  0.1361 -0.8840  0.1155
  560MOL0     C73794   4.675  10.063   6.099  0.4469 -0.5201  0.3295
  560MOL0     C73795   4.693  10.014   6.232 -0.7588  0.0291  0.1015
  560MOL0     O73796   4.579   9.961   6.291  0.0099  0.0972  0.3572
  560MOL0     C73797   4.600   9.861   6.385 -0.6944 -0.5655 -0.4332
  560MOL0     C73798   4.461   9.807   6.402 -0.3590  0.6033  0.0930
  560MOL0     C73799   4.347   9.900   6.447  0.3389 -0.0988  0.5695
  560MOL0     C73800   4.216   9.827   6.477  0.1560  0.0215  0.0093
  560MOL0     C73801   4.107   9.929   6.536 -0.6438 -0.3841 -0.1682
  560MOL0     C73802   4.047  10.015   6.427  0.9241  0.3953 -0.0473
  560MOL0     C73803   3.913  10.084   6.447 -0.3712 -0.0976  0.4140
  560MOL0     C73804   3.789   9.993   6.427 -0.3433  0.0254  0.0076
  560MOL0     N73805   3.668  10.040   6.506 -0.6473  0.2530  0.8232
  560MOL0     C73806   3.596  10.155   6.489 -0.0660 -0.0489  0.5685
  560MOL0     C73807   3.499  10.145   6.580  0.0595 -0.1625 -0.1174
  560MOL0     C73808   3.374  10.225   6.605  0.1748  0.4056 -0.5614
  560MOL0     C73809   3.375  10.287   6.747 -0.3770  0.9852 -0.4733
  560MOL0     C73810   3.308  10.214   6.858 -0.5266  0.3194  0.6749
  560MOL0     C73811   3.156  10.189   6.841  0.3101 -0.4732  0.0790
  560MOL0     O73812   3.096  10.303   6.777 -0.0882 -0.1465  0.1718
  560MOL0     C73813   2.963  10.303   6.764 -0.4930  0.5818 -0.1926
  560MOL0     C73814   2.892  10.428   6.749 -0.0769  0.5788 -0.4062
  560MOL0     C73815   2.754  10.422   6.722  0.3556  0.3734 -0.2170
  560MOL0     C73816   2.677  10.304   6.725  0.2838 -0.3435  0.1641
  560MOL0     C73817   2.526  10.305   6.705  0.3541 -0.5090  0.7033
  560MOL0     O73818   2.454  10.431   6.715 -0.3529  0.1138  0.0968
  560MOL0     C73819   2.316  10.409   6.715 -0.7750 -0.6156 -0.3086
  560MOL0     C73820   2.242  10.416   6.834  0.2883  0.3234 -0.4185
  560MOL0     C73821   2.105  10.391   6.837 -1.0010 -0.0938 -0.0805
  560MOL0     C73822   2.039  10.352   6.715 -0.0350  0.4851 -0.1486
  560MOL0     O73823   1.920  10.284   6.711  0.1858 -0.4461 -0.1024
  560MOL0     C73824   1.833  10.283   6.829 -0.6845 -1.3938 -0.4712
  560MOL0     C73825   1.717  10.177   6.808 -1.4860  0.2682  0.3553
  560MOL0     C73826   1.744  10.033   6.837  0.0200  0.0361 -0.1515
  560MOL0     C73827   1.635   9.940   6.788  0.2860  0.7827  0.0667
  560MOL0     C73828   1.693   9.800   6.779 -0.2630  0.8349  0.5864
  560MOL0     C73829   1.570   9.708   6.769 -0.6138 -0.5573 -0.4400
  560MOL0     C73830   1.632   9.564   6.745  1.0706  0.1587 -0.0097
  560MOL0     C73831   1.526   9.451   6.714  0.0695  0.9395 -0.2825
  560MOL0    Cl73832   1.386   9.507   6.608 -0.2537 -0.1617  0.1129
  560MOL0     C73833   2.115  10.339   6.592  0.0604 -0.4105 -0.7825
  560MOL0     C73834   2.251  10.378   6.600  0.0726 -0.4376  0.3909
  560MOL0     O73835   2.472  10.197   6.680 -0.1508  0.0496  0.2083
  560MOL0     C73836   2.746  10.187   6.739  0.6907 -0.0243  0.4011
  560MOL0     C73837   2.886  10.184   6.756  0.0943  0.2987  0.6110
  560MOL0     N73838   3.508  10.023   6.648  0.1766  0.1337 -0.1512
  560MOL0     N73839   3.615   9.963   6.603 -0.1426  0.1052 -0.2205
  560MOL0     C73840   4.813  10.040   6.290  0.0407  0.3357  0.0452
  560MOL0     C73841   4.924  10.099   6.227  0.0842 -0.7718  0.5369
  560MOL0     C73842   5.229  10.283   6.001  0.9469 -0.1368 -0.0407
  560MOL0     C73843   5.365  10.270   5.997 -0.0893 -0.2232  0.6249
  560MOL0     C73844   5.446  10.373   5.962 -0.1093 -0.3744 -0.5358
  560MOL0     C73845   5.396  10.503   5.937  0.0969  0.1686  0.2971
  560MOL0     O73846   5.471  10.605   5.897  0.7493 -0.6448  0.2889
  560MOL0     C73847   5.611  10.573   5.874 -1.2822  0.5054  0.5794
  560MOL0     C73848   5.679  10.718   5.885  0.6714  0.1335  0.5483
  560MOL0     C73849   5.832  10.699   5.865 -0.2478 -0.0137  0.2661
  560MOL0     C73850   5.912  10.674   5.997  0.7713 -0.2382  0.7690
  560MOL0     C73851   6.027  10.591   5.979 -0.6028  0.5798 -0.2331
  560MOL0     C73852   6.137  10.541   5.974 -0.2446  0.3610  0.0245
  560MOL0     C73853   5.257  10.521   5.940 -0.4599 -0.5717 -0.7310
  560MOL0     C73854   5.174  10.410   5.966  0.4357 -0.1761  0.8567
  560MOL0     H73855   4.737  10.184   5.952 -4.5742 -1.4338  1.6006
  560MOL0     H73856   4.582  10.040   6.048  1.6670 -2.0277 -1.3049
  560MOL0     H73857   4.628   9.910   6.478 -2.1729  1.8954 -1.2075
  560MOL0     H73858   4.674   9.785   6.359 -0.1333 -0.1667 -0.0302
  560MOL0     H73859   4.475   9.725   6.473 -2.1659  0.6792  0.5953
  560MOL0     H73860   4.429   9.751   6.313 -1.2131 -4.2261  3.0368
  560MOL0     H73861   4.316   9.983   6.383 -0.9865 -0.3812  0.8159
  560MOL0     H73862   4.377   9.938   6.546  1.7077 -1.2478  0.6190
  560MOL0     H73863   4.188   9.776   6.385  0.4451  1.6415 -1.0168
  560MOL0     H73864   4.235   9.746   6.548  0.7293 -0.2168 -0.4121
  560MOL0     H73865   4.139   9.996   6.616  0.2231 -1.5590  0.4839
  560MOL0     H73866   4.021   9.867   6.562 -0.2197 -0.8797  0.0770
  560MOL0     H73867   4.034   9.964   6.331 -2.8145  0.7904  0.0829
  560MOL0     H73868   4.124  10.090   6.406  1.2502  0.3186  0.8382
  560MOL0     H73869   3.910  10.130   6.546  1.0295  0.6623  0.1204
  560MOL0     H73870   3.908  10.161   6.369 -3.1513 -0.3301  0.2671
  560MOL0     H73871   3.818   9.889   6.445  1.1126  0.5574  0.9266
  560MOL0     H73872   3.772   9.993   6.319  1.6362 -2.6048 -0.4076
  560MOL0     H73873   3.616  10.234   6.418 -0.1551 -0.2531  0.3155
  560MOL0     H73874   3.286  10.161   6.597  1.6311 -2.4307  3.1821
  560MOL0     H73875   3.363  10.314   6.542  1.5825  1.4280  0.5614
  560MOL0     H73876   3.327  10.385   6.758 -1.4067  0.4440 -0.0921
  560MOL0     H73877   3.479  10.304   6.778 -0.3022  1.8654 -1.1337
  560MOL0     H73878   3.352  10.115   6.871  1.9835  1.6758  4.4550
  560MOL0     H73879   3.327  10.264   6.953  0.7532  3.1255 -0.9247
  560MOL0     H73880   3.109  10.173   6.938 -0.7904 -0.7844 -0.4888
  560MOL0     H73881   3.130  10.101   6.782  0.5868  0.1803 -1.0576
  560MOL0     H73882   2.954  10.517   6.746  2.4136 -0.9805  0.7461
  560MOL0     H73883   2.701  10.516   6.708  0.9548  1.0594  1.8331
  560MOL0     H73884   2.295  10.437   6.926  1.3573 -0.2800 -0.8662
  560MOL0     H73885   2.046  10.400   6.927 -1.0000  2.0154 -0.2409
  560MOL0     H73886   1.785  10.381   6.837 -3.2737 -2.6231  0.2349
  560MOL0     H73887   1.894  10.253   6.915 -0.3308 -0.3048 -0.3319
  560MOL0     H73888   1.694  10.189   6.702  2.3836  1.2580 -0.5275
  560MOL0     H73889   1.632  10.206   6.870 -3.8747 -0.0136 -2.5423
  560MOL0     H73890   1.743  10.010   6.943 -1.6191  0.2518 -0.0915
  560MOL0     H73891   1.841  10.012   6.791 -0.0275 -0.7897  0.1142
  560MOL0     H73892   1.549   9.943   6.855  0.1248  1.1954 -0.1530
  560MOL0     H73893   1.593   9.959   6.688 -0.0695  0.0324  0.0670
  560MOL0     H73894   1.751   9.783   6.870 -0.5227 -0.0260  0.5959
  560MOL0     H73895   1.760   9.788   6.694  1.3502  3.2605  1.4197
  560MOL0     H73896   1.502   9.746   6.692 -1.8599  2.4019  1.9323
  560MOL0     H73897   1.516   9.710   6.864 -1.0079 -1.9142 -0.6201
  560MOL0     H73898   1.710   9.563   6.668  1.8395  1.2527  0.7116
  560MOL0     H73899   1.679   9.522   6.835  1.0421 -2.0826 -0.9911
  560MOL0     H73900   1.487   9.423   6.813  0.7955 -2.2655 -0.7931
  560MOL0     H73901   1.570   9.359   6.673 -1.1710 -0.7513  1.9297
  560MOL0     H73902   2.080  10.305   6.494 -0.9556 -0.3140 -0.4621
  560MOL0     H73903   2.301  10.379   6.503  1.7735  3.4569  1.1643
  560MOL0     H73904   2.688  10.095   6.737  0.0341  0.3005  2.4676
  560MOL0     H73905   2.909  10.078   6.760 -5.2886 -1.1445  1.2317
  560MOL0     H73906   4.822  10.011   6.395 -0.6975 -0.0526  0.0093
  560MOL0     H73907   5.019  10.099   6.279  1.3718 -4.3083 -1.4677
  560MOL0     H73908   5.410  10.174   6.020  1.3146  1.2543  4.9589
  560MOL0     H73909   5.549  10.340   5.949 -0.4513 -2.5305  1.3786
  560MOL0     H73910   5.627  10.534   5.773  1.2652  0.2291  1.0258
  560MOL0     H73911   5.663  10.509   5.946  0.7942  3.3153  1.7818
  560MOL0     H73912   5.649  10.784   5.804  2.6601  1.7332  1.0310
  560MOL0     H73913   5.664  10.764   5.983 -2.8025 -1.7411  1.0647
  560MOL0     H73914   5.876  10.791   5.823 -0.8023 -0.5482 -1.5860
  560MOL0     H73915   5.862  10.630   5.785  2.2150 -0.3684  1.4153
  560MOL0     H73916   5.920  10.775   6.040  1.4233 -1.1485  2.9189
  560MOL0     H73917   5.858  10.634   6.083  2.0692  0.8046  2.1199
  560MOL0     H73918   6.233  10.494   5.979 -1.9804 -3.4840  1.3122
  560MOL0     H73919   5.216  10.616   5.907  0.6909 -0.7574 -2.8742
  560MOL0     H73920   5.070  10.442   5.968  0.1070 -0.6850 -2.4200
  561MOL0     O73921   4.772   7.395   5.223  0.4744 -0.2783  0.1003
  561MOL0     C73922   4.874   7.350   5.272 -0.5037 -0.3218  0.3294
  561MOL0     O73923   4.877   7.246   5.361 -0.9095 -0.4682 -0.3657
  561MOL0     C73924   4.756   7.187   5.392 -0.2826  0.1243  0.0218
  561MOL0     C73925   4.659   7.153   5.303  0.2687 -0.3275  0.0309
  561MOL0     C73926   4.545   7.087   5.340 -0.0550 -0.2817 -0.3625
  561MOL0     C73927   4.523   7.053   5.475 -0.3135  0.1922  0.3044
  561MOL0     O73928   4.417   6.978   5.515  0.1243  0.5253  0.1247
  561MOL0     C73929   4.341   6.888   5.424  0.4145 -0.1641  0.6742
  561MOL0     C73930   4.273   6.778   5.505  0.3546  0.2826  0.7824
  561MOL0     C73931   4.153   6.825   5.587  0.2346 -0.1228 -0.3385
  561MOL0     C73932   4.045   6.715   5.599  0.4799  0.4835  0.8356
  561MOL0     C73933   3.963   6.748   5.723  0.1554  0.6742  0.2426
  561MOL0     C73934   3.854   6.644   5.748 -0.1172 -0.2576  0.7923
  561MOL0     C73935   3.800   6.668   5.887 -0.2676 -1.0714  0.2354
  561MOL0     C73936   3.700   6.564   5.932  0.1969 -0.2908  0.6321
  561MOL0     N73937   3.630   6.618   6.049  0.0685  0.1770 -0.1224
  561MOL0     C73938   3.516   6.692   6.055  0.6806 -0.1422 -0.7914
  561MOL0     C73939   3.505   6.735   6.176  0.3589  0.5893  0.1499
  561MOL0     C73940   3.404   6.828   6.229 -0.1550 -0.0001  1.0556
  561MOL0     C73941   3.288   6.761   6.313 -1.6361 -0.7997 -0.5766
  561MOL0     C73942   3.239   6.631   6.262  0.0452  1.0230  0.1190
  561MOL0     C73943   3.088   6.613   6.291 -0.7211 -1.5880  0.0853
  561MOL0     O73944   3.044   6.491   6.242  0.0537  0.2735  0.3065
  561MOL0     C73945   2.914   6.470   6.226  0.0468 -0.5446  0.4750
  561MOL0     C73946   2.814   6.551   6.295  0.2472  0.7735 -0.0371
  561MOL0     C73947   2.682   6.522   6.278 -0.3569 -0.3532 -0.1201
  561MOL0     C73948   2.640   6.416   6.194 -0.1567  0.0011 -0.7160
  561MOL0     C73949   2.503   6.379   6.178  0.3764 -0.0509  0.4686
  561MOL0     O73950   2.402   6.470   6.220  0.0498  0.3089  1.0690
  561MOL0     C73951   2.272   6.419   6.204 -0.4048 -0.4260 -0.0631
  561MOL0     C73952   2.195   6.460   6.096  0.9961  0.0528 -0.2208
  561MOL0     C73953   2.063   6.400   6.087 -0.3863 -0.6076 -0.1887
  561MOL0     C73954   2.016   6.299   6.176 -0.3038  0.0406  0.4802
  561MOL0     O73955   1.900   6.234   6.163 -0.1552 -0.2387  0.0627
  561MOL0     C73956   1.868   6.203   6.030 -0.3524 -0.0203  0.4605
  561MOL0     C73957   1.739   6.115   6.037  0.3059 -0.3911 -0.1858
  561MOL0     C73958   1.608   6.194   6.065 -0.4992 -0.7213 -0.3700
  561MOL0     C73959   1.497   6.093   6.068 -0.1080 -0.3232  0.3818
  561MOL0     C73960   1.380   6.144   6.163  0.4821 -0.5362  0.3323
  561MOL0     C73961   1.245   6.064   6.141 -0.2865  0.0947  0.0313
  561MOL0     C73962   1.190   6.079   6.003  0.2112 -0.1606 -0.3468
  561MOL0     C73963   1.203   5.951   5.922 -0.0199 -0.4128 -0.6722
  561MOL0    Cl73964   1.126   5.982   5.767  0.0362 -0.4158  0.0961
  561MOL0     C73965   2.101   6.264   6.278 -0.7310 -0.1199 -0.7215
  561MOL0     C73966   2.225   6.331   6.300 -0.1445 -0.0609  0.2154
  561MOL0     O73967   2.485   6.267   6.134  0.0620  0.7318 -0.3776
  561MOL0     C73968   2.738   6.344   6.126 -0.6371 -0.0718 -0.0476
  561MOL0     C73969   2.872   6.369   6.140  0.2101  0.7904  0.6317
  561MOL0     N73970   3.626   6.702   6.247  0.4429 -0.6238 -0.4008
  561MOL0     N73971   3.701   6.635   6.164 -0.0635  0.3634 -0.4174
  561MOL0     C73972   4.625   7.094   5.566  0.1747 -1.1487 -0.4367
  561MOL0     C73973   4.741   7.160   5.526 -0.8685  0.6640 -0.1554
  561MOL0     C73974   4.998   7.401   5.214 -0.3351 -1.4370  0.6324
  561MOL0     C73975   5.124   7.341   5.233 -0.0346  0.6757  0.3999
  561MOL0     C73976   5.238   7.401   5.188 -0.7287 -0.9715 -0.2408
  561MOL0     C73977   5.233   7.519   5.111  0.8178  0.7146  0.0929
  561MOL0     O73978   5.337   7.587   5.052  0.2207 -0.2444 -0.6636
  561MOL0     C73979   5.464   7.505   5.041  0.0878 -0.4881 -0.5868
  561MOL0     C73980   5.556   7.589   4.953  0.3435  0.0408  0.1389
  561MOL0     C73981   5.696   7.509   4.939 -0.8253 -1.1413  0.4445
  561MOL0     C73982   5.704   7.389   4.836  0.3192 -0.1519 -0.7303
  561MOL0     C73983   5.712   7.438   4.698 -0.7802  0.0565 -0.5676
  561MOL0     C73984   5.718   7.483   4.590 -0.6566 -0.5020  0.2934
  561MOL0     C73985   5.113   7.578   5.079 -0.4009  0.2076 -0.4441
  561MOL0     C73986   4.999   7.516   5.127 -0.3249  0.1108 -0.5523
  561MOL0     H73987   4.680   7.166   5.197 -4.0466  0.3855 -0.9128
  561MOL0     H73988   4.469   7.069   5.265 -3.2128  1.3840  2.2140
  561MOL0     H73989   4.412   6.837   5.359 -0.1076 -1.7728  1.3123
  561MOL0     H73990   4.267   6.944   5.365  1.2419 -0.5970 -0.8175
  561MOL0     H73991   4.344   6.714   5.559 -0.3251  0.7121  2.2533
  561MOL0     H73992   4.228   6.704   5.439  0.7358 -3.0964  4.0042
  561MOL0     H73993   4.109   6.913   5.538  0.3092 -1.6536 -3.3693
  561MOL0     H73994   4.193   6.855   5.684  2.7752  0.1270 -1.3974
  561MOL0     H73995   3.988   6.715   5.505  0.4583  1.4896  0.8345
  561MOL0     H73996   4.094   6.617   5.605  2.9803  1.6738  1.2555
  561MOL0     H73997   3.928   6.852   5.720  0.4859  0.7883  0.3022
  561MOL0     H73998   4.032   6.734   5.807  1.6137  0.1778 -0.9726
  561MOL0     H73999   3.906   6.548   5.746  0.1424 -0.1267  1.1106
  561MOL0     H74000   3.774   6.648   5.673  0.1471 -1.9153  0.3714
  561MOL0     H74001   3.881   6.679   5.960  0.0473  2.0319 -0.4401
  561MOL0     H74002   3.744   6.762   5.883  1.4169  0.0705  1.6462
  561MOL0     H74003   3.764   6.482   5.966  1.5825  0.0252 -1.0427
  561MOL0     H74004   3.633   6.534   5.850 -1.1562 -0.5004  1.7749
  561MOL0     H74005   3.435   6.705   5.983  1.4942  0.8227 -1.5639
  561MOL0     H74006   3.357   6.875   6.142 -0.4867 -1.4225  0.4375
  561MOL0     H74007   3.452   6.913   6.278 -2.0712 -0.2158  3.5440
  561MOL0     H74008   3.213   6.839   6.327 -1.8747 -0.8019 -1.7473
  561MOL0     H74009   3.324   6.740   6.414 -0.8674 -1.4036 -0.9680
  561MOL0     H74010   3.251   6.627   6.153  1.5102 -0.4877  0.2940
  561MOL0     H74011   3.303   6.549   6.296 -0.8272 -0.1135 -0.8470
  561MOL0     H74012   3.040   6.697   6.239  0.6902 -0.8959 -0.1532
  561MOL0     H74013   3.078   6.613   6.400  2.4331  0.3485  0.5084
  561MOL0     H74014   2.833   6.637   6.357 -0.5937  0.1619  1.1115
  561MOL0     H74015   2.608   6.589   6.321 -1.9179 -1.1404 -1.4609
  561MOL0     H74016   2.228   6.526   6.016 -1.1376 -0.3361 -1.5229
  561MOL0     H74017   2.000   6.450   6.014  0.7116  4.8221  2.0687
  561MOL0     H74018   1.949   6.143   5.989 -1.4429 -1.7760  0.7869
  561MOL0     H74019   1.857   6.293   5.968  0.9221 -0.0540  0.1592
  561MOL0     H74020   1.747   6.037   6.113  0.2209 -0.4857 -0.2726
  561MOL0     H74021   1.729   6.061   5.942  0.2207 -2.5007  0.9564
  561MOL0     H74022   1.582   6.270   5.991 -0.3268 -0.2507  0.0445
  561MOL0     H74023   1.616   6.242   6.164 -2.6546  1.1882 -1.0330
  561MOL0     H74024   1.455   6.081   5.968 -1.0064  4.1144  0.0373
  561MOL0     H74025   1.525   5.990   6.093  2.4173 -0.2282 -1.6763
  561MOL0     H74026   1.362   6.248   6.133  0.3266 -0.7431 -0.3282
  561MOL0     H74027   1.407   6.145   6.268  1.9994 -2.8581  0.0291
  561MOL0     H74028   1.183   6.110   6.218  2.1728 -0.1954  2.3616
  561MOL0     H74029   1.241   5.957   6.165  0.2517  0.3445  1.3271
  561MOL0     H74030   1.085   6.106   6.019 -0.6683 -2.5467 -1.5669
  561MOL0     H74031   1.234   6.169   5.959  0.5167  0.4467  1.1635
  561MOL0     H74032   1.154   5.871   5.979 -0.7351 -0.6272 -1.5611
  561MOL0     H74033   1.303   5.911   5.900 -0.8649 -2.4076 -1.1637
  561MOL0     H74034   2.064   6.195   6.353 -0.0843 -1.2053 -1.3886
  561MOL0     H74035   2.294   6.299   6.378 -0.5853  0.6291  0.8996
  561MOL0     H74036   2.708   6.258   6.067 -0.7710 -2.8698  3.7394
  561MOL0     H74037   2.939   6.313   6.076  0.4375  1.3779  0.3531
  561MOL0     H74038   4.629   7.049   5.665 -0.7004 -1.6468 -0.6219
  561MOL0     H74039   4.826   7.178   5.591  0.7146 -0.4763 -1.8016
  561MOL0     H74040   5.132   7.247   5.285  1.0754  0.6306  0.1701
  561MOL0     H74041   5.335   7.355   5.204 -0.0584  1.4265  4.2235
  561MOL0     H74042   5.450   7.414   4.981 -1.6185  0.7547 -2.1929
  561MOL0     H74043   5.496   7.486   5.144  0.5486 -0.6751 -0.7654
  561MOL0     H74044   5.521   7.617   4.854 -1.4574  2.6757  1.4025
  561MOL0     H74045   5.577   7.683   5.006 -0.1794 -0.1385  0.6788
  561MOL0     H74046   5.731   7.473   5.036  0.9011 -1.3149 -0.1993
  561MOL0     H74047   5.782   7.572   4.912 -0.4326 -1.3027  1.2820
  561MOL0     H74048   5.787   7.328   4.873  0.6730  0.9738  0.4268
  561MOL0     H74049   5.628   7.311   4.848  1.2725 -1.3697 -2.2465
  561MOL0     H74050   5.719   7.527   4.493  0.2976  1.4727  1.1466
  561MOL0     H74051   5.109   7.669   5.021 -0.7676  1.6742  1.7648
  561MOL0     H74052   4.912   7.573   5.099 -0.4612 -0.4492 -1.3143
  562MOL0     O74053   0.908   5.410   7.700  0.2186  0.3205  0.0514
  562MOL0     C74054   0.996   5.373   7.781 -0.2226 -0.3207  0.3758
  562MOL0     O74055   0.989   5.265   7.865 -0.0788 -0.3101 -0.8779
  562MOL0     C74056   0.879   5.185   7.839  0.5868 -0.6200  0.3214
  562MOL0     C74057   0.920   5.057   7.812  0.3454  0.5713  1.3314
  562MOL0     C74058   0.830   4.957   7.773  0.1618  0.4018  0.1678
  562MOL0     C74059   0.685   4.986   7.776 -0.3142  1.4042 -0.2525
  562MOL0     O74060   0.589   4.896   7.760  0.9929 -0.0208  0.3060
  562MOL0     C74061   0.623   4.756   7.738  0.5901  0.2003  0.2996
  562MOL0     C74062   0.482   4.691   7.738 -0.2869 -0.4834 -0.2931
  562MOL0     C74063   0.481   4.542   7.716 -0.1424 -0.5033  0.0232
  562MOL0     C74064   0.334   4.486   7.686  0.3941 -0.0835  0.5072
  562MOL0     C74065   0.324   4.329   7.711  0.1965 -0.8162  0.2383
  562MOL0     C74066   0.311   4.301   7.862  0.2298  0.2642  0.1807
  562MOL0     C74067   0.252   4.160   7.861 -0.3915  0.0225  0.4123
  562MOL0     C74068   0.255   4.090   7.991 -0.0653  0.0451  0.7285
  562MOL0     N74069   0.197   4.171   8.102 -0.5544 -0.4193  0.3396
  562MOL0     C74070   0.074   4.226   8.113 -0.2071  0.5897 -0.1596
  562MOL0     C74071   0.070   4.283   8.238  0.1087 -0.2372 -0.3057
  562MOL0     C74072  -0.051   4.332   8.312 -0.5285  0.2904  0.0448
  562MOL0     C74073  -0.153   4.220   8.333 -0.4008 -0.1280 -0.0304
  562MOL0     C74074  -0.250   4.273   8.442 -0.1465  0.2772 -0.5741
  562MOL0     C74075  -0.375   4.171   8.453  0.0828  0.1415  0.0885
  562MOL0     O74076  -0.491   4.224   8.388  0.1285 -0.3786 -0.5700
  562MOL0     C74077  -0.620   4.187   8.424  0.5112 -0.2943 -0.0462
  562MOL0     C74078  -0.731   4.274   8.382 -0.2168 -0.5542  0.0334
  562MOL0     C74079  -0.862   4.250   8.423  0.6760  0.2423  0.8767
  562MOL0     C74080  -0.895   4.137   8.487  0.0049 -0.0945  0.1745
  562MOL0     C74081  -1.031   4.089   8.509  0.2231  0.6035  0.3919
  562MOL0     O74082  -1.119   4.179   8.464 -0.0391  0.6332 -0.0534
  562MOL0     C74083  -1.253   4.145   8.459  0.0467 -0.0540 -0.2593
  562MOL0     C74084  -1.319   4.118   8.581  0.7505 -0.3310  1.1539
  562MOL0     C74085  -1.459   4.087   8.575  0.1505  0.3342  0.3914
  562MOL0     C74086  -1.536   4.075   8.453 -1.0697  0.1257 -0.0439
  562MOL0     O74087  -1.672   4.063   8.464  0.2507  0.2718  0.4606
  562MOL0     C74088  -1.766   4.089   8.359  0.1704  0.2114 -0.2706
  562MOL0     C74089  -1.915   4.094   8.410  0.1970  0.0133 -0.5411
  562MOL0     C74090  -1.945   4.230   8.489 -0.1442  0.2551 -0.1504
  562MOL0     C74091  -2.095   4.253   8.531  0.2076  0.5680  1.0019
  562MOL0     C74092  -2.100   4.390   8.598  1.1175  0.5386  0.8383
  562MOL0     C74093  -2.034   4.407   8.734  0.3020 -0.6628  0.2500
  562MOL0     C74094  -2.050   4.546   8.804 -0.1770  0.0016  0.5332
  562MOL0     C74095  -2.019   4.525   8.955  0.2468 -0.7485 -0.0951
  562MOL0    Cl74096  -1.996   4.689   9.035 -0.2500  0.0651  0.0213
  562MOL0     C74097  -1.461   4.101   8.335 -0.4429  0.7812  0.1828
  562MOL0     C74098  -1.323   4.142   8.337  0.5538  0.8086 -1.3631
  562MOL0     O74099  -1.045   3.974   8.544  0.6402  0.3614 -0.3811
  562MOL0     C74100  -0.789   4.053   8.526  0.1516 -0.4000  0.0144
  562MOL0     C74101  -0.654   4.075   8.500  0.6405 -0.6215  0.0576
  562MOL0     N74102   0.196   4.267   8.294 -0.3202 -0.6226  0.5403
  562MOL0     N74103   0.266   4.195   8.216 -0.1070  0.2366  1.0476
  562MOL0     C74104   0.648   5.122   7.810  0.1226  0.3187  0.0604
  562MOL0     C74105   0.749   5.217   7.846  0.3712  0.1089 -0.4653
  562MOL0     C74106   1.127   5.452   7.793  0.1618  0.0210  0.5548
  562MOL0     C74107   1.235   5.391   7.852 -0.6689 -0.3229 -0.7818
  562MOL0     C74108   1.355   5.453   7.876  0.1782 -0.3122 -1.1457
  562MOL0     C74109   1.366   5.594   7.853  0.5794  0.0512  0.6873
  562MOL0     O74110   1.471   5.672   7.888  0.1585 -0.7331 -0.0761
  562MOL0     C74111   1.585   5.615   7.947  0.1210 -0.0854  0.1716
  562MOL0     C74112   1.647   5.725   8.029 -0.7550 -0.3617 -0.2097
  562MOL0     C74113   1.740   5.661   8.135  0.2522  0.5751 -0.2537
  562MOL0     C74114   1.757   5.757   8.259  0.4579  0.1512  0.2801
  562MOL0     C74115   1.847   5.707   8.355 -0.6463  0.1622 -1.3956
  562MOL0     C74116   1.922   5.669   8.451  0.1448 -0.0968 -0.2743
  562MOL0     C74117   1.259   5.661   7.791 -0.0052 -0.0027 -1.2774
  562MOL0     C74118   1.135   5.592   7.772 -0.4150 -0.5910  0.4825
  562MOL0     H74119   1.027   5.040   7.813  0.4233  0.0384 -2.3268
  562MOL0     H74120   0.855   4.855   7.744  0.4348  0.5367 -0.0777
  562MOL0     H74121   0.685   4.710   7.815  2.0104  1.3066 -0.1308
  562MOL0     H74122   0.677   4.743   7.643 -1.5327  2.6597 -1.4035
  562MOL0     H74123   0.426   4.739   7.657 -2.6747  3.3260  3.1886
  562MOL0     H74124   0.422   4.723   7.824  2.0219  4.0638 -0.0679
  562MOL0     H74125   0.519   4.493   7.806  1.7035 -2.2667 -1.6106
  562MOL0     H74126   0.547   4.524   7.630 -1.5721 -0.2687 -1.1575
  562MOL0     H74127   0.259   4.533   7.750  0.1966  0.9158 -0.4251
  562MOL0     H74128   0.307   4.518   7.585  1.1061 -1.1733 -0.0367
  562MOL0     H74129   0.410   4.285   7.660  0.1072  1.7772 -2.4594
  562MOL0     H74130   0.231   4.294   7.665 -0.7757  1.5051  0.2676
  562MOL0     H74131   0.243   4.366   7.917  0.3174  0.4001  0.1267
  562MOL0     H74132   0.408   4.294   7.912 -0.8548  0.1676  2.3974
  562MOL0     H74133   0.152   4.174   7.819  0.7984  1.0336 -2.3329
  562MOL0     H74134   0.301   4.088   7.795 -4.3382 -3.0390  0.4675
  562MOL0     H74135   0.359   4.071   8.017  0.7326 -0.6177 -2.4895
  562MOL0     H74136   0.205   3.994   7.979  0.5976  0.0146 -2.9554
  562MOL0     H74137  -0.007   4.225   8.040  0.8429  0.7460 -1.3557
  562MOL0     H74138  -0.086   4.424   8.265 -0.8006 -0.6987 -1.7850
  562MOL0     H74139  -0.016   4.362   8.411  0.7035 -1.9388  0.3518
  562MOL0     H74140  -0.095   4.134   8.366 -0.4730 -0.1279  0.0970
  562MOL0     H74141  -0.209   4.198   8.241 -0.6027 -0.4190  0.1604
  562MOL0     H74142  -0.200   4.282   8.539 -0.3706  0.7946 -0.5059
  562MOL0     H74143  -0.296   4.371   8.428 -0.8668  0.5774  2.9274
  562MOL0     H74144  -0.395   4.168   8.561 -0.0654 -1.0231  0.0476
  562MOL0     H74145  -0.348   4.070   8.419  0.1548 -0.2728  1.3260
  562MOL0     H74146  -0.705   4.364   8.327  0.5525 -1.5113 -1.2304
  562MOL0     H74147  -0.937   4.321   8.390 -0.3580 -0.7862  0.9384
  562MOL0     H74148  -1.279   4.137   8.681 -3.7175 -2.3879  3.6503
  562MOL0     H74149  -1.511   4.085   8.670 -0.0881 -0.6638  0.2553
  562MOL0     H74150  -1.757   4.002   8.292  0.1122  0.5408 -0.7079
  562MOL0     H74151  -1.741   4.176   8.299 -0.6513  2.0562  1.9179
  562MOL0     H74152  -1.940   4.002   8.464  1.2078 -0.3741 -0.7183
  562MOL0     H74153  -1.976   4.087   8.320  1.7149  0.2684 -1.6388
  562MOL0     H74154  -1.917   4.300   8.410  0.7589  1.8363  1.4969
  562MOL0     H74155  -1.872   4.233   8.570  0.2041 -1.8973 -0.3285
  562MOL0     H74156  -2.146   4.251   8.435  0.1725 -1.7786  1.0168
  562MOL0     H74157  -2.133   4.180   8.603  2.4504 -0.5038  1.1711
  562MOL0     H74158  -2.206   4.414   8.611  0.6502  1.8379 -3.7435
  562MOL0     H74159  -2.054   4.464   8.531  0.6809  0.2743  0.2412
  562MOL0     H74160  -1.928   4.386   8.716  1.0460  0.7487  2.6167
  562MOL0     H74161  -2.070   4.337   8.810  2.9422 -0.9621  1.3575
  562MOL0     H74162  -1.978   4.621   8.770 -1.9763  1.7292  0.4022
  562MOL0     H74163  -2.155   4.571   8.788  0.6467  2.0542 -2.6511
  562MOL0     H74164  -1.921   4.477   8.964 -0.4096 -3.0253 -3.3307
  562MOL0     H74165  -2.097   4.474   9.013  0.2484  0.3097  0.8733
  562MOL0     H74166  -1.510   4.097   8.238 -1.5230 -1.7136  0.7496
  562MOL0     H74167  -1.273   4.162   8.243 -0.3478  1.7598 -1.6706
  562MOL0     H74168  -0.818   3.969   8.587  0.6478 -0.0178  0.7961
  562MOL0     H74169  -0.582   4.000   8.531 -0.4669 -1.4158  0.7454
  562MOL0     H74170   0.541   5.143   7.811  0.1537  0.6317 -1.2327
  562MOL0     H74171   0.721   5.316   7.880 -4.8638 -1.9775  2.3503
  562MOL0     H74172   1.233   5.286   7.876  1.6451 -1.0760 -3.3033
  562MOL0     H74173   1.445   5.404   7.911  0.7220  1.2961 -0.1426
  562MOL0     H74174   1.661   5.581   7.875  1.3209 -0.7057  1.6674
  562MOL0     H74175   1.567   5.540   8.025  0.3958 -0.7035 -0.3429
  562MOL0     H74176   1.693   5.808   7.976  1.1271 -2.9814 -2.9777
  562MOL0     H74177   1.560   5.768   8.081  1.6632  1.2572  2.8699
  562MOL0     H74178   1.834   5.649   8.080  1.1304  1.2905  1.0386
  562MOL0     H74179   1.713   5.560   8.166  1.0364 -0.2633 -2.1582
  562MOL0     H74180   1.782   5.847   8.203  0.7331  0.4606  0.8953
  562MOL0     H74181   1.660   5.781   8.305 -1.1338 -0.9245 -2.2913
  562MOL0     H74182   1.988   5.639   8.530 -1.6676 -0.9151  0.9934
  562MOL0     H74183   1.265   5.769   7.783  3.2169  0.0260  0.1193
  562MOL0     H74184   1.049   5.644   7.731  1.0122  2.0108  0.6141
  563MOL0     O74185   6.519   7.686   0.207  0.2487  0.3200  0.4778
  563MOL0     C74186   6.517   7.613   0.305  0.4661  0.0832 -0.7067
  563MOL0     O74187   6.408   7.575   0.375  0.1066 -0.5244 -0.6818
  563MOL0     C74188   6.280   7.614   0.359 -1.2260  0.1332 -0.7896
  563MOL0     C74189   6.210   7.645   0.240 -0.7557  0.3676  0.1047
  563MOL0     C74190   6.075   7.665   0.240 -0.2435  0.2333  1.5313
  563MOL0     C74191   5.995   7.675   0.357 -0.0718 -0.3196  0.3266
  563MOL0     O74192   5.862   7.715   0.330  0.8793  0.0962  0.2981
  563MOL0     C74193   5.767   7.715   0.445  0.3920 -0.5071  0.3806
  563MOL0     C74194   5.632   7.679   0.394  0.4887 -0.3033  0.8168
  563MOL0     C74195   5.553   7.802   0.340 -0.0438  0.0367  0.9690
  563MOL0     C74196   5.432   7.752   0.262  0.5482  0.2252  0.0114
  563MOL0     C74197   5.360   7.873   0.196 -0.5781  1.0494 -0.8407
  563MOL0     C74198   5.254   7.940   0.292 -0.9298  0.5807  0.6151
  563MOL0     C74199   5.191   8.065   0.220 -1.0603  0.2895 -0.1618
  563MOL0     C74200   5.129   8.026   0.082  0.2230  0.0754  0.0776
  563MOL0     N74201   4.997   8.095   0.076  0.2963  0.4748  0.0730
  563MOL0     C74202   4.883   8.041   0.128  0.3295 -0.1140 -0.6249
  563MOL0     C74203   4.797   8.147   0.137  0.7399 -0.4493 -0.3813
  563MOL0     C74204   4.658   8.149   0.197 -0.3193 -0.5892  0.0585
  563MOL0     C74205   4.561   8.135   0.083  0.2143 -0.1392  0.5185
  563MOL0     C74206   4.591   8.239  -0.036  0.4005  0.4575 -0.7716
  563MOL0     C74207   4.467   8.254  -0.128  0.3240  0.3047 -0.1092
  563MOL0     O74208   4.342   8.262  -0.055 -0.9452  0.1969  0.1772
  563MOL0     C74209   4.225   8.228  -0.123  0.0654  0.0814  0.2948
  563MOL0     C74210   4.225   8.203  -0.261  0.5054  0.2916  0.2895
  563MOL0     C74211   4.106   8.194  -0.328 -1.2729 -0.1843 -0.1414
  563MOL0     C74212   3.982   8.211  -0.266  0.2216  0.7016  0.0813
  563MOL0     C74213   3.858   8.198  -0.341  0.8305  0.4973 -0.1059
  563MOL0     O74214   3.738   8.233  -0.280 -0.9772  1.4099  0.1450
  563MOL0     C74215   3.620   8.229  -0.347 -0.3576 -0.3392 -0.4473
  563MOL0     C74216   3.573   8.125  -0.429 -0.9727  0.5497 -0.7234
  563MOL0     C74217   3.449   8.130  -0.484 -0.3542  0.8687 -0.3794
  563MOL0     C74218   3.370   8.240  -0.465  0.1722 -0.3774  0.3485
  563MOL0     O74219   3.245   8.262  -0.525 -0.2868 -0.8486 -0.6681
  563MOL0     C74220   3.173   8.142  -0.529  0.4320 -0.1618  0.1535
  563MOL0     C74221   3.029   8.178  -0.551  0.1258 -0.0809  0.6848
  563MOL0     C74222   3.000   8.211  -0.697  0.5356 -0.3760  0.5928
  563MOL0     C74223   2.860   8.274  -0.734  0.2705 -0.0146 -0.1267
  563MOL0     C74224   2.747   8.177  -0.735  0.3786 -0.4059 -0.3155
  563MOL0     C74225   2.608   8.248  -0.737  0.2201 -0.2295 -0.0558
  563MOL0     C74226   2.566   8.327  -0.857  0.2132  0.2900  0.3972
  563MOL0     C74227   2.512   8.253  -0.975 -0.0452  0.3750 -0.5375
  563MOL0    Cl74228   2.368   8.149  -0.937  0.2099  0.0642 -0.2722
  563MOL0     C74229   3.415   8.349  -0.391 -1.6709  0.3168  0.3985
  563MOL0     C74230   3.537   8.342  -0.318 -0.1504  0.5610  1.1013
  563MOL0     O74231   3.867   8.150  -0.454 -0.9658 -0.1335  0.1948
  563MOL0     C74232   3.980   8.239  -0.127 -0.1432  0.0812  0.1285
  563MOL0     C74233   4.104   8.236  -0.054  1.1389 -0.3081 -0.0149
  563MOL0     N74234   4.850   8.262   0.101 -0.1408 -0.5107 -0.0095
  563MOL0     N74235   4.970   8.232   0.050 -0.1909  0.1581  0.2523
  563MOL0     C74236   6.073   7.669   0.478  0.4478  0.4748 -0.2451
  563MOL0     C74237   6.206   7.620   0.476  0.0643 -0.0514 -0.4948
  563MOL0     C74238   6.642   7.535   0.337  0.3903  0.5623  0.6751
  563MOL0     C74239   6.756   7.538   0.247  0.3261 -0.4564  0.0842
  563MOL0     C74240   6.882   7.478   0.292  0.0830 -0.0287  0.0377
  563MOL0     C74241   6.886   7.406   0.413 -0.3655  0.5027  0.5427
  563MOL0     O74242   6.999   7.344   0.463  0.2813 -0.7012  0.2694
  563MOL0     C74243   7.102   7.315   0.369 -1.1371  0.6876 -0.5805
  563MOL0     C74244   7.213   7.229   0.422 -0.1284 -1.1414 -0.1186
  563MOL0     C74245   7.303   7.173   0.313 -0.6961 -0.4619 -0.2076
  563MOL0     C74246   7.453   7.173   0.359  0.0808 -0.1581 -0.5258
  563MOL0     C74247   7.545   7.115   0.261  0.2588  0.0869  0.5946
  563MOL0     C74248   7.607   7.077   0.170 -0.4599  0.4035 -0.0951
  563MOL0     C74249   6.774   7.399   0.494 -0.5981 -0.7640  0.7791
  563MOL0     C74250   6.655   7.473   0.455 -0.3458 -0.0147  0.1773
  563MOL0     H74251   6.260   7.642   0.144 -1.1534 -0.5698 -0.0932
  563MOL0     H74252   6.028   7.690   0.145  1.6007 -0.9308  0.2530
  563MOL0     H74253   5.765   7.809   0.502  0.9418 -0.7743  0.8498
  563MOL0     H74254   5.788   7.636   0.517 -0.7762 -0.4381  0.8230
  563MOL0     H74255   5.566   7.625   0.462 -1.4999 -0.5941 -1.2186
  563MOL0     H74256   5.658   7.613   0.311 -0.9123  0.1252  0.0099
  563MOL0     H74257   5.613   7.864   0.272  2.1471  0.1100  2.8502
  563MOL0     H74258   5.523   7.866   0.423 -2.0907  1.3492 -0.6771
  563MOL0     H74259   5.468   7.685   0.183  1.0044 -0.8148  1.0704
  563MOL0     H74260   5.359   7.692   0.317 -2.2559 -0.5484 -4.1034
  563MOL0     H74261   5.315   7.842   0.101  0.1846  1.0597 -1.2078
  563MOL0     H74262   5.428   7.954   0.170 -0.2274  0.4576 -1.8010
  563MOL0     H74263   5.298   7.962   0.390 -1.6708 -1.3189  1.4322
  563MOL0     H74264   5.186   7.857   0.312  0.1344 -0.9684 -1.7208
  563MOL0     H74265   5.120   8.120   0.282 -0.5886  2.0584 -1.1156
  563MOL0     H74266   5.272   8.134   0.195 -1.3206  0.6190 -0.1051
  563MOL0     H74267   5.104   7.920   0.092 -1.3194 -0.0368 -3.3901
  563MOL0     H74268   5.197   8.033  -0.003 -0.9249  1.0933 -0.7986
  563MOL0     H74269   4.859   7.943   0.169 -0.5974  0.4782  0.3016
  563MOL0     H74270   4.648   8.248   0.243 -0.9977 -1.3992  1.7592
  563MOL0     H74271   4.637   8.082   0.280 -0.7179 -0.8783 -0.2748
  563MOL0     H74272   4.461   8.158   0.120 -0.7192 -1.7631 -0.8555
  563MOL0     H74273   4.560   8.033   0.046 -0.9993 -0.9837  2.7083
  563MOL0     H74274   4.612   8.338   0.005  1.6157  0.1024 -0.4703
  563MOL0     H74275   4.675   8.202  -0.096 -1.4911 -0.4673 -3.0044
  563MOL0     H74276   4.462   8.166  -0.193 -1.2462 -0.0021  0.3870
  563MOL0     H74277   4.478   8.345  -0.189  2.2416 -0.1982 -0.5649
  563MOL0     H74278   4.313   8.186  -0.321  2.0173  1.1667  2.1584
  563MOL0     H74279   4.112   8.163  -0.432 -1.1400 -1.5283  0.2484
  563MOL0     H74280   3.629   8.034  -0.446  0.3157  0.1619  4.2047
  563MOL0     H74281   3.417   8.044  -0.544  0.4869 -0.0811  0.4910
  563MOL0     H74282   3.184   8.091  -0.433 -1.1234 -0.1455  0.3577
  563MOL0     H74283   3.212   8.079  -0.610  2.2132  0.1972  0.6856
  563MOL0     H74284   3.003   8.261  -0.484 -2.3018 -0.6938  0.5866
  563MOL0     H74285   2.965   8.094  -0.525 -0.1463 -0.2770 -0.5695
  563MOL0     H74286   3.013   8.116  -0.751  0.9449  1.0058 -1.8736
  563MOL0     H74287   3.073   8.281  -0.739 -0.3969  0.3667  0.1648
  563MOL0     H74288   2.832   8.363  -0.677  0.5224 -0.0887  0.1149
  563MOL0     H74289   2.886   8.314  -0.833  2.3117 -2.3634 -0.6483
  563MOL0     H74290   2.758   8.121  -0.642  0.0369  1.5197  0.9292
  563MOL0     H74291   2.769   8.111  -0.820 -2.6350  0.3882 -1.8563
  563MOL0     H74292   2.601   8.326  -0.661 -1.9232  2.7335 -3.0158
  563MOL0     H74293   2.530   8.173  -0.719  0.5035  0.1812  3.4376
  563MOL0     H74294   2.500   8.405  -0.818 -0.1265 -0.4322  1.2959
  563MOL0     H74295   2.656   8.375  -0.899  1.1416 -2.3592 -0.8687
  563MOL0     H74296   2.601   8.194  -1.001  1.3459  0.6920  2.9370
  563MOL0     H74297   2.484   8.320  -1.056 -1.0171  0.2581 -0.3049
  563MOL0     H74298   3.350   8.436  -0.392 -1.4714  0.4770  1.0257
  563MOL0     H74299   3.562   8.416  -0.242 -0.9458 -0.9007  2.8496
  563MOL0     H74300   3.883   8.254  -0.082 -0.7414  3.6772 -1.9607
  563MOL0     H74301   4.107   8.265   0.051 -2.1504  2.5688 -0.5337
  563MOL0     H74302   6.028   7.688   0.575  2.8468  2.7557  0.5414
  563MOL0     H74303   6.270   7.615   0.563  1.7973  0.7667 -1.6801
  563MOL0     H74304   6.762   7.595   0.155 -0.6672  1.0143  0.8966
  563MOL0     H74305   6.970   7.500   0.232  0.8739  1.8454  1.7872
  563MOL0     H74306   7.155   7.407   0.343  0.2017 -0.1640 -0.9528
  563MOL0     H74307   7.058   7.279   0.275 -4.8078  0.6081  0.9750
  563MOL0     H74308   7.261   7.287   0.501 -1.8379  0.5980 -0.2762
  563MOL0     H74309   7.168   7.142   0.471 -1.8094 -0.5850 -0.5908
  563MOL0     H74310   7.296   7.221   0.215  0.2727 -0.7934 -0.4525
  563MOL0     H74311   7.279   7.067   0.301  1.7735 -1.0583 -0.4603
  563MOL0     H74312   7.484   7.277   0.374 -1.5535  0.4479 -1.2114
  563MOL0     H74313   7.465   7.132   0.460  0.7120  3.5605  1.1008
  563MOL0     H74314   7.665   7.034   0.091  1.2466  0.0457  1.3023
  563MOL0     H74315   6.780   7.340   0.585  2.0390 -3.0409 -0.6928
  563MOL0     H74316   6.570   7.467   0.523 -3.3381  4.2924 -2.6894
  564MOL0     O74317   0.077   4.101   3.273  0.7113 -0.3011  0.2982
  564MOL0     C74318   0.173   4.179   3.300 -0.3819  0.8295 -0.4609
  564MOL0     O74319   0.200   4.246   3.420 -0.6877 -0.7481 -1.0616
  564MOL0     C74320   0.101   4.227   3.523 -1.5407  0.6777 -0.0469
  564MOL0     C74321  -0.026   4.270   3.507 -0.3779  1.4290  0.3086
  564MOL0     C74322  -0.122   4.248   3.607 -0.4653 -0.0871  0.3196
  564MOL0     C74323  -0.095   4.179   3.725 -0.3207 -0.8424  0.3353
  564MOL0     O74324  -0.181   4.158   3.832  0.4434 -0.8869 -0.2293
  564MOL0     C74325  -0.301   4.226   3.831  0.2629 -1.3621  0.1931
  564MOL0     C74326  -0.404   4.124   3.801  0.1967 -0.8377 -0.1427
  564MOL0     C74327  -0.543   4.185   3.781 -0.9751  0.0960 -0.4817
  564MOL0     C74328  -0.639   4.075   3.750 -0.0843  0.5076  0.0948
  564MOL0     C74329  -0.785   4.111   3.771  0.0978 -0.1786 -0.2899
  564MOL0     C74330  -0.863   3.979   3.798  0.0095  0.9739  0.2365
  564MOL0     C74331  -1.015   3.998   3.790  0.3701  0.1461 -0.3375
  564MOL0     C74332  -1.074   4.099   3.889 -1.3647 -0.4492 -0.1867
  564MOL0     N74333  -1.210   4.116   3.858  0.1806  0.0033 -0.3903
  564MOL0     C74334  -1.264   4.199   3.764  0.0113 -0.7079  0.2487
  564MOL0     C74335  -1.394   4.189   3.778  0.3285 -0.3141  0.4966
  564MOL0     C74336  -1.513   4.243   3.700  0.0670 -0.7672 -0.4979
  564MOL0     C74337  -1.645   4.173   3.724  0.6224 -0.5398 -0.0838
  564MOL0     C74338  -1.764   4.265   3.680 -0.7766  0.2296 -0.4965
  564MOL0     C74339  -1.769   4.305   3.531  1.0251  1.0234 -0.5974
  564MOL0     O74340  -1.800   4.190   3.449 -0.3452 -0.3044  0.4548
  564MOL0     C74341  -1.922   4.134   3.452  0.0906 -1.1722  0.1929
  564MOL0     C74342  -2.040   4.187   3.509 -0.0641 -0.3860  0.2872
  564MOL0     C74343  -2.165   4.122   3.492 -0.1310  0.2444 -0.4542
  564MOL0     C74344  -2.174   4.012   3.407  1.0885  0.2096 -0.1128
  564MOL0     C74345  -2.304   3.941   3.371  0.1011  0.1334  0.6628
  564MOL0     O74346  -2.411   3.982   3.441 -0.0017 -0.9698 -0.1356
  564MOL0     C74347  -2.537   3.944   3.387 -1.0968 -0.6796 -0.4036
  564MOL0     C74348  -2.589   4.012   3.281 -0.5081 -0.3617 -0.2015
  564MOL0     C74349  -2.708   3.978   3.218 -0.2831 -0.0396 -0.8568
  564MOL0     C74350  -2.770   3.870   3.261  0.9453  0.2637 -0.6647
  564MOL0     O74351  -2.882   3.850   3.185 -0.5287  0.8256 -0.3775
  564MOL0     C74352  -2.981   3.767   3.245 -0.1299  0.1992 -0.0109
  564MOL0     C74353  -3.098   3.758   3.143  0.4403 -0.7954 -0.4784
  564MOL0     C74354  -3.188   3.888   3.174  1.3258  0.0422 -0.3781
  564MOL0     C74355  -3.313   3.894   3.078  0.0805  0.8436 -0.1508
  564MOL0     C74356  -3.375   4.028   3.065  0.1154 -0.2955  0.3727
  564MOL0     C74357  -3.489   4.025   2.966 -0.1342  0.0013 -0.4711
  564MOL0     C74358  -3.528   4.169   2.940  0.4362  0.5231  0.2823
  564MOL0     C74359  -3.683   4.175   2.912 -0.2284  0.4481 -0.5576
  564MOL0    Cl74360  -3.774   4.131   3.062 -0.2410 -0.1188 -0.2070
  564MOL0     C74361  -2.717   3.788   3.370 -0.3326  0.1571  0.2441
  564MOL0     C74362  -2.600   3.826   3.432  0.0910 -0.2733 -0.0202
  564MOL0     O74363  -2.299   3.853   3.286  0.0589 -0.0960  0.2254
  564MOL0     C74364  -2.058   3.956   3.351 -0.4612 -0.2333 -0.9387
  564MOL0     C74365  -1.934   4.015   3.375  0.0047 -0.0129 -0.6580
  564MOL0     N74366  -1.424   4.097   3.882 -0.2456 -0.3978  0.1476
  564MOL0     N74367  -1.312   4.057   3.926 -0.9747 -0.1350 -0.0036
  564MOL0     C74368   0.038   4.135   3.734 -0.1191 -0.1129 -0.3429
  564MOL0     C74369   0.136   4.150   3.636 -0.1074 -1.0535 -0.0554
  564MOL0     C74370   0.278   4.186   3.198  0.7294  0.2538  0.5438
  564MOL0     C74371   0.267   4.125   3.072 -0.1696 -0.2459 -0.1812
  564MOL0     C74372   0.370   4.129   2.973  0.4938  0.4551 -0.4975
  564MOL0     C74373   0.484   4.215   2.998  0.3389 -0.0465 -0.9319
  564MOL0     O74374   0.586   4.231   2.908  0.2215 -0.2464 -0.0594
  564MOL0     C74375   0.565   4.185   2.772 -0.8381 -0.3966  0.0872
  564MOL0     C74376   0.696   4.228   2.698  0.5146 -0.0540  0.5928
  564MOL0     C74377   0.689   4.231   2.542  0.5910 -0.5415  0.4860
  564MOL0     C74378   0.828   4.251   2.479 -0.8718 -0.2339  0.9917
  564MOL0     C74379   0.928   4.134   2.480 -0.4655 -0.4118 -0.0391
  564MOL0     C74380   0.998   4.040   2.485 -0.3936 -0.2912 -0.5981
  564MOL0     C74381   0.476   4.304   3.106 -0.2468  0.6010  0.9364
  564MOL0     C74382   0.382   4.279   3.207  0.4825  0.0469  0.4035
  564MOL0     H74383  -0.062   4.322   3.419 -1.2264 -2.0186 -1.5813
  564MOL0     H74384  -0.224   4.272   3.577 -0.3544 -0.9809 -0.8577
  564MOL0     H74385  -0.306   4.309   3.759  1.4852 -1.1273  0.3535
  564MOL0     H74386  -0.316   4.264   3.932  0.3216 -1.1934  0.1397
  564MOL0     H74387  -0.400   4.056   3.887 -3.0610 -0.1556  0.6571
  564MOL0     H74388  -0.381   4.088   3.700 -1.0968  2.5035 -1.7836
  564MOL0     H74389  -0.523   4.253   3.697  2.0885 -1.1966 -0.9283
  564MOL0     H74390  -0.569   4.238   3.873 -0.4230 -2.7275  1.4064
  564MOL0     H74391  -0.631   4.027   3.652  0.0268 -0.5173  0.5889
  564MOL0     H74392  -0.624   3.999   3.828 -1.0653  3.0340  2.9197
  564MOL0     H74393  -0.821   4.158   3.679  3.3859  0.9770 -1.1649
  564MOL0     H74394  -0.788   4.181   3.855  1.3214 -0.9976  0.4725
  564MOL0     H74395  -0.836   3.948   3.900  0.2994 -0.5714 -0.2820
  564MOL0     H74396  -0.842   3.896   3.730  0.7803  0.4422  1.0942
  564MOL0     H74397  -1.054   4.029   3.692 -2.9828 -1.1972  0.4240
  564MOL0     H74398  -1.056   3.900   3.816  1.0288  0.4384  1.9949
  564MOL0     H74399  -1.021   4.193   3.876 -1.2504 -0.4573  0.2098
  564MOL0     H74400  -1.056   4.062   3.991 -0.9719  0.5669  0.1290
  564MOL0     H74401  -1.210   4.262   3.693  1.4257 -1.9445  0.1823
  564MOL0     H74402  -1.496   4.242   3.591 -2.3525  2.8067 -1.0913
  564MOL0     H74403  -1.532   4.348   3.725 -2.8396 -0.8487 -1.9439
  564MOL0     H74404  -1.668   4.153   3.829  1.5135 -2.3463 -0.1957
  564MOL0     H74405  -1.645   4.084   3.661 -0.1120  0.7640 -2.0505
  564MOL0     H74406  -1.851   4.206   3.708  1.0331 -1.7151  1.4235
  564MOL0     H74407  -1.763   4.353   3.745 -0.2494  0.6965 -1.1249
  564MOL0     H74408  -1.684   4.355   3.486  0.6817  2.7141  0.5357
  564MOL0     H74409  -1.853   4.374   3.516 -3.7113 -4.0582 -0.6843
  564MOL0     H74410  -2.047   4.276   3.570 -1.0112  1.3759 -2.2452
  564MOL0     H74411  -2.253   4.165   3.540 -0.8082 -0.4278 -1.0867
  564MOL0     H74412  -2.532   4.097   3.247  0.4417 -0.9334 -0.0743
  564MOL0     H74413  -2.746   4.039   3.137  0.9897  0.6504 -0.9591
  564MOL0     H74414  -3.025   3.802   3.339  0.0914  4.2117 -1.2127
  564MOL0     H74415  -2.934   3.670   3.259 -3.0577 -1.3085  0.0480
  564MOL0     H74416  -3.152   3.663   3.149 -0.9809 -0.1335 -1.9538
  564MOL0     H74417  -3.063   3.766   3.040  1.6464  0.4324 -0.0115
  564MOL0     H74418  -3.128   3.978   3.161 -1.9153  2.6397  0.9511
  564MOL0     H74419  -3.217   3.895   3.280  0.6409 -0.6980 -0.5048
  564MOL0     H74420  -3.265   3.859   2.987  2.0340 -3.1176  2.1084
  564MOL0     H74421  -3.379   3.818   3.123  0.8503  0.5726  0.5590
  564MOL0     H74422  -3.309   4.095   3.010  1.5887 -2.2393 -0.3676
  564MOL0     H74423  -3.399   4.059   3.167 -0.3860  0.7269 -0.0505
  564MOL0     H74424  -3.573   3.962   2.998 -0.9044  1.5436  0.6605
  564MOL0     H74425  -3.453   3.988   2.870  1.8266  3.2151 -1.1118
  564MOL0     H74426  -3.503   4.243   3.016  0.7468 -2.0571  2.8413
  564MOL0     H74427  -3.474   4.206   2.852  0.5045 -0.5980 -0.1671
  564MOL0     H74428  -3.713   4.107   2.832  1.8069  0.7415 -1.6374
  564MOL0     H74429  -3.708   4.280   2.892  2.5254  0.9053 -2.0695
  564MOL0     H74430  -2.763   3.696   3.404 -2.1546  0.9712  0.0668
  564MOL0     H74431  -2.570   3.763   3.514  3.4385  0.9683 -0.1397
  564MOL0     H74432  -2.068   3.875   3.280 -3.4884 -2.7237  2.0389
  564MOL0     H74433  -1.851   3.977   3.317 -0.4121  0.0491 -1.3153
  564MOL0     H74434   0.062   4.077   3.823 -1.5382  2.1691  1.6594
  564MOL0     H74435   0.239   4.118   3.635  0.1277 -0.3085 -0.6858
  564MOL0     H74436   0.187   4.052   3.070 -0.0282 -0.6165  2.7522
  564MOL0     H74437   0.361   4.061   2.889  3.3171  1.4822 -1.7701
  564MOL0     H74438   0.484   4.242   2.726  1.7066  1.8523 -2.0284
  564MOL0     H74439   0.555   4.077   2.759  0.4002 -0.4118 -0.9984
  564MOL0     H74440   0.722   4.330   2.727 -0.6000  1.5370 -3.2598
  564MOL0     H74441   0.765   4.151   2.732 -0.9656 -1.0597  1.4601
  564MOL0     H74442   0.629   4.319   2.518  1.1910 -0.1810  0.2888
  564MOL0     H74443   0.653   4.138   2.498  1.7564 -1.1981  0.8895
  564MOL0     H74444   0.816   4.270   2.372  0.6983 -2.8476  0.2561
  564MOL0     H74445   0.871   4.335   2.534 -1.3239  0.4868  0.2646
  564MOL0     H74446   1.047   3.945   2.494 -0.2236 -0.7589 -4.6475
  564MOL0     H74447   0.558   4.374   3.110  1.5216 -1.3091 -0.0546
  564MOL0     H74448   0.387   4.334   3.301 -3.2193  2.9147 -0.7914
  565MOL0     O74449   7.089   2.976   7.733  0.9335 -0.8870 -0.7319
  565MOL0     C74450   7.180   3.018   7.804  1.1457  0.1505 -0.3495
  565MOL0     O74451   7.166   3.064   7.933 -0.0312 -0.2694 -0.3422
  565MOL0     C74452   7.044   3.074   7.990  1.3062  0.4292 -0.6268
  565MOL0     C74453   6.973   2.958   8.002  0.7346 -0.4430  0.0602
  565MOL0     C74454   6.848   2.950   8.067  0.0191 -0.1852  0.6108
  565MOL0     C74455   6.788   3.068   8.113 -0.2477 -0.2296  0.0901
  565MOL0     O74456   6.667   3.072   8.181  0.1445 -0.0191  0.6416
  565MOL0     C74457   6.568   2.966   8.168 -0.0943  0.4490  0.1062
  565MOL0     C74458   6.554   2.904   8.303  0.2814 -0.3796 -0.2551
  565MOL0     C74459   6.488   2.770   8.313  0.9725 -0.5149  0.2146
  565MOL0     C74460   6.346   2.776   8.268  0.7466 -0.4228  0.0344
  565MOL0     C74461   6.289   2.634   8.267  0.2760 -0.2124 -0.1711
  565MOL0     C74462   6.306   2.559   8.140 -0.4932 -0.1785  0.4424
  565MOL0     C74463   6.246   2.611   8.005  1.0816 -0.1504  0.5434
  565MOL0     C74464   6.252   2.493   7.906  0.9535 -0.3343 -0.0441
  565MOL0     N74465   6.250   2.533   7.769 -0.1921 -0.2745  0.2155
  565MOL0     C74466   6.139   2.561   7.696  0.4128 -0.5499 -0.0989
  565MOL0     C74467   6.177   2.632   7.589 -0.1074  0.7851  0.0061
  565MOL0     C74468   6.077   2.665   7.483  0.4070  0.0351  0.3539
  565MOL0     C74469   6.023   2.542   7.408 -0.8975 -0.0526  0.6226
  565MOL0     C74470   5.902   2.469   7.458  0.3591 -0.3235 -0.3408
  565MOL0     C74471   5.868   2.373   7.343  0.0689  0.4048  0.7855
  565MOL0     O74472   5.797   2.273   7.411  0.6780 -0.6341 -0.2320
  565MOL0     C74473   5.712   2.194   7.333  1.0442 -0.6610  0.0758
  565MOL0     C74474   5.721   2.169   7.193 -0.1767 -1.1432 -0.2520
  565MOL0     C74475   5.630   2.089   7.125 -0.5228 -0.0459  0.4041
  565MOL0     C74476   5.530   2.026   7.199  0.8033  1.3246 -0.0082
  565MOL0     C74477   5.422   1.956   7.128  1.1604  0.2983 -0.5731
  565MOL0     O74478   5.349   1.852   7.197 -0.3246 -0.6015 -0.0636
  565MOL0     C74479   5.235   1.779   7.148 -0.5734 -0.7258 -1.0916
  565MOL0     C74480   5.165   1.808   7.030  0.2197  0.3413 -0.2051
  565MOL0     C74481   5.058   1.728   6.988 -0.0056 -0.5515 -0.2763
  565MOL0     C74482   5.007   1.634   7.083 -1.1369  0.9245 -0.2929
  565MOL0     O74483   4.904   1.565   7.029  0.5645 -0.1266 -0.3448
  565MOL0     C74484   4.835   1.465   7.106  0.3571  0.5641 -0.7172
  565MOL0     C74485   4.771   1.514   7.227  0.1365 -0.3201  0.0617
  565MOL0     C74486   4.742   1.400   7.326 -0.0774 -0.3622 -0.5753
  565MOL0     C74487   4.634   1.450   7.425  0.2650  0.1354 -1.3038
  565MOL0     C74488   4.582   1.328   7.497  0.4720  0.0911 -0.1327
  565MOL0     C74489   4.524   1.380   7.633  0.1373 -0.0892  0.4856
  565MOL0     C74490   4.461   1.271   7.728 -0.3177  0.0332  0.8032
  565MOL0     C74491   4.561   1.162   7.783 -1.7191  0.8469  0.0677
  565MOL0    Cl74492   4.485   1.102   7.934  0.0516  0.5593  0.3479
  565MOL0     C74493   5.074   1.602   7.205 -0.1709  0.0418 -0.1606
  565MOL0     C74494   5.182   1.679   7.236 -0.3242 -0.2105 -0.2955
  565MOL0     O74495   5.394   1.995   7.019  0.4752 -0.3928  0.4424
  565MOL0     C74496   5.528   2.040   7.340 -0.1512  0.1370  0.8417
  565MOL0     C74497   5.618   2.126   7.399  0.6338 -0.5417 -0.6099
  565MOL0     N74498   6.313   2.661   7.599 -0.1870  0.1404  0.1743
  565MOL0     N74499   6.348   2.608   7.718 -0.5762 -0.5025 -0.4206
  565MOL0     C74500   6.869   3.188   8.101  0.5202  0.3942 -0.1144
  565MOL0     C74501   6.990   3.191   8.047 -0.5331 -1.4086  0.0683
  565MOL0     C74502   7.321   3.026   7.757 -0.2745  0.5604  0.9954
  565MOL0     C74503   7.430   3.056   7.837 -0.1000  0.4448  0.1551
  565MOL0     C74504   7.563   3.040   7.792 -0.2840  0.4296 -0.3627
  565MOL0     C74505   7.596   2.994   7.663  0.2841  1.7237  0.7471
  565MOL0     O74506   7.729   2.972   7.630 -0.1761  0.1486 -0.2293
  565MOL0     C74507   7.770   2.947   7.489  0.9767  1.1053 -0.2903
  565MOL0     C74508   7.918   2.922   7.487  0.0344 -0.2171  0.4351
  565MOL0     C74509   8.004   3.051   7.504 -0.1110  0.6395  0.7898
  565MOL0     C74510   7.969   3.166   7.405  0.0102  0.2347  0.7901
  565MOL0     C74511   8.059   3.274   7.443 -0.1598  0.4440  0.3057
  565MOL0     C74512   8.122   3.365   7.490 -0.1374  0.4933 -0.2151
  565MOL0     C74513   7.484   2.971   7.576  0.5420 -0.3503 -0.0091
  565MOL0     C74514   7.349   2.989   7.618  0.1316  0.5917 -0.0805
  565MOL0     H74515   7.013   2.862   7.971  1.8863  0.3380 -0.9534
  565MOL0     H74516   6.801   2.853   8.078 -0.6641  0.2115  1.2718
  565MOL0     H74517   6.600   2.886   8.101  0.6882  1.3758 -0.6554
  565MOL0     H74518   6.472   3.008   8.137  0.6141  0.2477 -2.6126
  565MOL0     H74519   6.509   2.978   8.369 -0.7148 -0.2897 -1.0122
  565MOL0     H74520   6.658   2.892   8.335  1.7585 -0.8007 -4.5532
  565MOL0     H74521   6.487   2.736   8.417 -2.1763  1.2664  0.9126
  565MOL0     H74522   6.538   2.698   8.249 -0.8720  0.2287 -2.2212
  565MOL0     H74523   6.292   2.842   8.336  0.9360  0.6708 -0.8464
  565MOL0     H74524   6.330   2.823   8.171  0.4762 -1.8465 -0.6380
  565MOL0     H74525   6.181   2.642   8.284 -0.2359 -1.0397 -2.6437
  565MOL0     H74526   6.324   2.571   8.349 -2.5378 -1.9949 -0.1828
  565MOL0     H74527   6.259   2.460   8.145 -2.3151  0.6166  0.1091
  565MOL0     H74528   6.413   2.543   8.127 -0.3900  2.2164 -3.1177
  565MOL0     H74529   6.143   2.645   8.015  0.5547 -2.1348  2.7340
  565MOL0     H74530   6.309   2.694   7.972  1.6363 -0.8147 -0.0941
  565MOL0     H74531   6.176   2.417   7.927  2.6382 -1.8306  0.8634
  565MOL0     H74532   6.354   2.458   7.921  0.9529 -1.2411 -1.9035
  565MOL0     H74533   6.039   2.524   7.714  0.1505  0.5276  0.7334
  565MOL0     H74534   6.126   2.727   7.407 -0.3818 -0.6603 -0.7531
  565MOL0     H74535   5.992   2.714   7.531  0.7835 -1.2592  2.4787
  565MOL0     H74536   6.099   2.464   7.396 -1.0262 -0.3940  1.9467
  565MOL0     H74537   5.997   2.578   7.308 -1.5686  0.8780  1.1139
  565MOL0     H74538   5.917   2.408   7.548 -2.0806 -0.0626  0.2962
  565MOL0     H74539   5.826   2.547   7.465  0.3384 -0.1078 -2.4136
  565MOL0     H74540   5.951   2.330   7.287 -0.2324  1.8475 -0.8627
  565MOL0     H74541   5.807   2.432   7.274  2.0271  1.4074 -0.1842
  565MOL0     H74542   5.791   2.232   7.139 -0.0339 -1.1075 -0.0241
  565MOL0     H74543   5.616   2.064   7.020 -4.2578 -0.5122  0.9112
  565MOL0     H74544   5.202   1.883   6.961  0.5931  0.4563  0.1140
  565MOL0     H74545   5.014   1.743   6.889 -1.8940 -4.9242 -0.3242
  565MOL0     H74546   4.909   1.388   7.130  0.4660 -0.0747 -2.9139
  565MOL0     H74547   4.748   1.434   7.047  1.0228  2.9156 -3.1357
  565MOL0     H74548   4.683   1.560   7.182  0.5329  0.4551  0.0627
  565MOL0     H74549   4.821   1.596   7.280 -4.4323  3.3201 -0.6109
  565MOL0     H74550   4.835   1.365   7.371  0.8760  1.5828 -0.9118
  565MOL0     H74551   4.693   1.314   7.279 -2.4136 -1.2615  3.1470
  565MOL0     H74552   4.693   1.514   7.491 -0.7074 -0.3692  0.0809
  565MOL0     H74553   4.549   1.502   7.380 -0.4184  0.7209  0.6033
  565MOL0     H74554   4.648   1.242   7.512 -0.4963 -1.5091 -4.0245
  565MOL0     H74555   4.494   1.297   7.441  1.0788 -0.8226 -0.5915
  565MOL0     H74556   4.443   1.447   7.601 -1.0571 -1.1255  1.2631
  565MOL0     H74557   4.589   1.436   7.700 -1.5423 -1.4618  3.4462
  565MOL0     H74558   4.423   1.322   7.817  0.3798 -0.2218  1.2520
  565MOL0     H74559   4.375   1.230   7.674  0.5628 -0.1431 -0.5161
  565MOL0     H74560   4.664   1.199   7.777 -0.3033 -2.8585 -2.5444
  565MOL0     H74561   4.569   1.073   7.719 -0.1798  0.0607  1.2749
  565MOL0     H74562   5.039   1.529   7.277  2.2551 -1.2484 -0.1792
  565MOL0     H74563   5.215   1.663   7.338 -1.1225  1.3606  0.2502
  565MOL0     H74564   5.442   2.004   7.395 -2.5368  3.9720 -0.0330
  565MOL0     H74565   5.607   2.152   7.504  1.1177  3.2614 -1.3415
  565MOL0     H74566   6.820   3.282   8.125 -0.5961  0.6855 -3.0464
  565MOL0     H74567   7.047   3.280   8.024  0.1226 -1.5955  0.9383
  565MOL0     H74568   7.424   3.086   7.941  0.3674  1.8175 -0.1844
  565MOL0     H74569   7.631   3.049   7.876 -0.4126 -1.0512 -0.0650
  565MOL0     H74570   7.751   3.032   7.422  0.5367 -0.5938 -2.4422
  565MOL0     H74571   7.710   2.864   7.450 -1.5901  1.8141  1.8591
  565MOL0     H74572   7.945   2.851   7.565  0.3767 -0.1478  0.3806
  565MOL0     H74573   7.942   2.877   7.389 -2.9431  1.7200 -1.3255
  565MOL0     H74574   8.110   3.024   7.500  0.3431  1.1523  4.7642
  565MOL0     H74575   7.986   3.090   7.605 -0.5325 -0.5811  1.2083
  565MOL0     H74576   7.981   3.130   7.302  3.6653  1.4332  0.6429
  565MOL0     H74577   7.870   3.211   7.416  2.0883  5.1116  2.1138
  565MOL0     H74578   8.175   3.449   7.530 -1.1395  0.5364  1.0898
  565MOL0     H74579   7.498   2.963   7.469 -0.9645  1.8473 -0.4589
  565MOL0     H74580   7.265   2.972   7.551  1.3123 -1.2932 -1.1423
  566MOL0     O74581   6.740   7.703  10.137  1.1922 -0.7184 -0.3651
  566MOL0     C74582   6.794   7.596  10.169  0.4274 -0.4230  0.2907
  566MOL0     O74583   6.729   7.472  10.174 -0.8580 -0.1819  0.3923
  566MOL0     C74584   6.598   7.472  10.133  0.6253 -0.7853  0.0079
  566MOL0     C74585   6.555   7.513  10.008 -0.4039 -0.1855  0.1539
  566MOL0     C74586   6.417   7.510   9.977  0.6210  0.1920  0.1874
  566MOL0     C74587   6.320   7.498  10.081  0.0194 -0.1167  0.1638
  566MOL0     O74588   6.180   7.512  10.087  0.6410  0.1993 -0.2388
  566MOL0     C74589   6.092   7.573   9.989  0.0160 -0.4039 -0.5351
  566MOL0     C74590   6.065   7.479   9.879 -0.5562  0.3374  0.6192
  566MOL0     C74591   5.961   7.545   9.783 -0.1230 -0.5400 -0.0969
  566MOL0     C74592   5.815   7.522   9.825  0.1380  0.6822  1.0393
  566MOL0     C74593   5.714   7.538   9.702  0.2371 -0.6010  0.3708
  566MOL0     C74594   5.569   7.550   9.755 -0.1137  0.1071  0.0592
  566MOL0     C74595   5.515   7.421   9.803 -0.2184  0.4564  1.1689
  566MOL0     C74596   5.386   7.431   9.872  0.6142  0.6554 -0.2426
  566MOL0     N74597   5.276   7.486   9.790 -0.5836 -0.3394 -0.2565
  566MOL0     C74598   5.174   7.409   9.746 -0.3814  0.3944  0.6502
  566MOL0     C74599   5.103   7.494   9.672  0.5585  0.1175  0.7743
  566MOL0     C74600   4.990   7.447   9.584 -0.1665  0.5295 -0.3169
  566MOL0     C74601   5.028   7.415   9.439 -0.8598  0.1874  0.3001
  566MOL0     C74602   4.915   7.373   9.346  0.0359 -0.5552 -0.6239
  566MOL0     C74603   4.945   7.314   9.215  0.5016  0.9406 -0.0828
  566MOL0     O74604   4.840   7.225   9.169 -0.6308  0.0934 -0.5880
  566MOL0     C74605   4.863   7.124   9.073 -0.7684 -0.4353  0.0505
  566MOL0     C74606   4.760   7.038   9.043  0.3728  0.4668  0.6818
  566MOL0     C74607   4.774   6.938   8.943 -0.3336 -0.0650 -0.3492
  566MOL0     C74608   4.897   6.928   8.872  0.4728  0.5026  1.1342
  566MOL0     C74609   4.919   6.820   8.766  0.9395  0.2596  0.2389
  566MOL0     O74610   4.805   6.739   8.737 -0.3333 -0.7707 -0.0936
  566MOL0     C74611   4.826   6.659   8.621  0.3474 -0.4781 -0.3119
  566MOL0     C74612   4.799   6.524   8.632 -0.1578 -0.7816  0.3251
  566MOL0     C74613   4.816   6.443   8.518  0.4831 -0.1207  0.5845
  566MOL0     C74614   4.847   6.502   8.401 -0.7587 -0.3558 -0.1455
  566MOL0     O74615   4.838   6.427   8.282  0.4931  0.3463  0.0296
  566MOL0     C74616   4.701   6.423   8.235  0.3825 -0.5882 -0.8777
  566MOL0     C74617   4.677   6.306   8.134  0.2100  0.1469  0.3299
  566MOL0     C74618   4.772   6.179   8.155  0.5969  0.8906 -0.2498
  566MOL0     C74619   4.747   6.098   8.280 -0.1671  0.6254 -0.1790
  566MOL0     C74620   4.858   5.989   8.294 -0.0702  0.3233 -0.4805
  566MOL0     C74621   4.823   5.911   8.422  0.8950 -0.2799 -0.1935
  566MOL0     C74622   4.876   5.987   8.545 -0.5983 -0.4068 -1.4171
  566MOL0     C74623   5.037   5.982   8.554 -0.7276  0.8816  0.0659
  566MOL0    Cl74624   5.093   5.811   8.588 -0.3262  0.1509 -0.2938
  566MOL0     C74625   4.887   6.639   8.395  0.2558  0.2057  0.4869
  566MOL0     C74626   4.876   6.719   8.498 -0.5782  0.6522  1.1578
  566MOL0     O74627   5.032   6.815   8.718 -0.7435 -0.5913 -0.0681
  566MOL0     C74628   4.996   7.022   8.897 -0.5185  0.7406  0.2392
  566MOL0     C74629   4.984   7.116   9.000  0.6467  0.3464  0.4607
  566MOL0     N74630   5.152   7.618   9.677  0.2469  0.1166  0.1792
  566MOL0     N74631   5.249   7.621   9.762 -0.1638  0.8494  0.5635
  566MOL0     C74632   6.370   7.466  10.197  0.4974  0.4993 -0.3775
  566MOL0     C74633   6.506   7.444  10.225  0.9603 -1.3347  0.8683
  566MOL0     C74634   6.940   7.606  10.190 -0.1394  0.1003 -0.3792
  566MOL0     C74635   7.020   7.510  10.260 -0.2380  0.2490  0.6807
  566MOL0     C74636   7.161   7.533  10.266 -1.4251  0.2300  0.7093
  566MOL0     C74637   7.222   7.652  10.216  0.0498  0.8928  0.4119
  566MOL0     O74638   7.361   7.685  10.223 -0.3889  0.7653  0.5338
  566MOL0     C74639   7.441   7.599  10.312  0.0238  0.1548  0.2726
  566MOL0     C74640   7.583   7.660  10.319  0.0046 -0.1876 -1.0816
  566MOL0     C74641   7.612   7.758  10.440  0.6201 -0.5939 -0.0359
  566MOL0     C74642   7.520   7.885  10.439  0.3348  0.6392 -0.3738
  566MOL0     C74643   7.554   7.978  10.330 -0.0267 -0.4440 -0.4112
  566MOL0     C74644   7.589   8.052  10.239  1.0999 -0.0155  0.1009
  566MOL0     C74645   7.139   7.748  10.160  0.5385  0.4922  1.1263
  566MOL0     C74646   7.000   7.726  10.154 -0.0454 -0.2322  1.2680
  566MOL0     H74647   6.618   7.547   9.925  3.5945 -4.0229  1.2213
  566MOL0     H74648   6.385   7.546   9.880 -0.9881 -0.6373  0.3895
  566MOL0     H74649   6.129   7.671   9.957 -0.6386 -0.2152 -0.7275
  566MOL0     H74650   5.995   7.585  10.038  0.7463 -2.0443  1.4515
  566MOL0     H74651   6.029   7.390   9.933  0.9355  0.1108  1.2910
  566MOL0     H74652   6.156   7.448   9.827 -0.6739 -0.5945  0.9471
  566MOL0     H74653   5.982   7.500   9.685  0.3076  0.6387 -0.5573
  566MOL0     H74654   5.974   7.652   9.770 -1.6184  0.0959  2.9167
  566MOL0     H74655   5.809   7.417   9.855  1.6083 -0.2707 -1.6427
  566MOL0     H74656   5.787   7.580   9.914  3.2121  2.9302  0.7112
  566MOL0     H74657   5.733   7.454   9.635 -2.0178 -0.7084 -0.2241
  566MOL0     H74658   5.743   7.629   9.648 -3.4972  0.4901 -0.0907
  566MOL0     H74659   5.512   7.595   9.673  1.4887 -0.3347 -1.3697
  566MOL0     H74660   5.572   7.619   9.839 -1.7620  1.9650 -1.3075
  566MOL0     H74661   5.512   7.355   9.716  0.8451  1.6665  0.1777
  566MOL0     H74662   5.577   7.382   9.884 -0.4113  2.2030  2.2177
  566MOL0     H74663   5.383   7.480   9.970 -0.1624  1.3933 -0.6283
  566MOL0     H74664   5.366   7.324   9.884  2.0917  0.3049 -0.6972
  566MOL0     H74665   5.153   7.303   9.750  1.4771 -0.0078  0.5515
  566MOL0     H74666   4.914   7.525   9.575 -2.6445 -1.8707 -1.6889
  566MOL0     H74667   4.937   7.366   9.636  0.1244  1.0701  0.8579
  566MOL0     H74668   5.101   7.334   9.443 -1.0343 -0.0017 -0.2159
  566MOL0     H74669   5.088   7.499   9.404  1.2463 -1.2738  0.2297
  566MOL0     H74670   4.837   7.319   9.400  0.0105  2.1516  2.4011
  566MOL0     H74671   4.857   7.465   9.332 -0.8225 -0.2580  3.5161
  566MOL0     H74672   5.045   7.270   9.221 -0.3124 -0.7900  2.7215
  566MOL0     H74673   4.955   7.398   9.146  1.7669 -0.5286 -1.7668
  566MOL0     H74674   4.668   7.055   9.099 -0.1125  1.8728 -0.4766
  566MOL0     H74675   4.703   6.860   8.919  0.2704 -0.7712  0.1108
  566MOL0     H74676   4.764   6.481   8.726 -1.4637 -1.1926 -0.3300
  566MOL0     H74677   4.791   6.337   8.519 -3.0038  0.5589 -1.0052
  566MOL0     H74678   4.670   6.514   8.184  0.1543 -1.5448 -2.5190
  566MOL0     H74679   4.642   6.395   8.324  2.4680  0.5635  0.9723
  566MOL0     H74680   4.699   6.349   8.036 -0.0408 -0.1676  0.1325
  566MOL0     H74681   4.574   6.270   8.132 -0.2723  1.5080 -0.1057
  566MOL0     H74682   4.873   6.219   8.155  0.6930  0.6735 -0.9799
  566MOL0     H74683   4.760   6.112   8.069 -0.4116  0.6797  0.0362
  566MOL0     H74684   4.738   6.166   8.365 -1.1730 -0.4564  0.6136
  566MOL0     H74685   4.650   6.049   8.266  1.1648 -2.4560  0.4554
  566MOL0     H74686   4.952   6.042   8.308  0.6494 -0.7846 -1.0375
  566MOL0     H74687   4.852   5.918   8.211 -0.9753 -0.3868  0.1643
  566MOL0     H74688   4.855   5.806   8.428  0.0087 -0.7190 -2.2154
  566MOL0     H74689   4.714   5.909   8.423  0.6752  3.5996 -1.4049
  566MOL0     H74690   4.845   6.090   8.561 -0.6820 -0.8529  1.8020
  566MOL0     H74691   4.836   5.934   8.632  0.3954 -1.7749 -1.7529
  566MOL0     H74692   5.057   6.035   8.647 -3.3056 -1.0402  1.8760
  566MOL0     H74693   5.092   6.019   8.466 -3.4487 -2.8830 -3.6271
  566MOL0     H74694   4.914   6.671   8.295  3.4719 -2.4081  0.3038
  566MOL0     H74695   4.898   6.825   8.495 -1.0301  0.7212  0.0502
  566MOL0     H74696   5.093   7.004   8.852 -0.5156 -0.7308  0.7934
  566MOL0     H74697   5.062   7.192   9.006 -0.4884  2.1107 -3.7631
  566MOL0     H74698   6.303   7.437  10.277 -1.3042  0.3858 -1.8794
  566MOL0     H74699   6.544   7.405  10.319  1.0201 -0.8445  1.0508
  566MOL0     H74700   6.987   7.412  10.291 -1.0269  0.0014 -0.8599
  566MOL0     H74701   7.227   7.455  10.303 -0.4501 -0.7946 -2.8285
  566MOL0     H74702   7.446   7.495  10.279 -0.5751 -1.1492  3.8803
  566MOL0     H74703   7.394   7.598  10.410 -0.5148  0.4042  0.0224
  566MOL0     H74704   7.660   7.582  10.325 -0.2907 -0.3402  1.9044
  566MOL0     H74705   7.608   7.714  10.227  0.2472  1.0990 -0.2749
  566MOL0     H74706   7.712   7.798  10.421 -0.5816  2.4702 -0.5449
  566MOL0     H74707   7.608   7.717  10.542  2.1876  2.6413  1.4831
  566MOL0     H74708   7.417   7.853  10.422  0.5958  0.7448 -2.3552
  566MOL0     H74709   7.526   7.945  10.530  1.6110  0.7826 -0.5297
  566MOL0     H74710   7.620   8.123  10.165  1.2314  0.9230  1.0163
  566MOL0     H74711   7.181   7.846  10.140 -0.8834  0.8136 -0.5310
  566MOL0     H74712   6.962   7.800  10.084  1.6785 -0.9235 -0.5226
  567MOL0     O74713   3.898   2.275   5.223 -0.2412 -0.4416 -0.4973
  567MOL0     C74714   3.906   2.170   5.172  0.3755 -0.1138  0.3300
  567MOL0     O74715   3.801   2.091   5.128 -0.1940 -0.1798 -0.0197
  567MOL0     C74716   3.671   2.134   5.136 -0.5884  0.2696  0.2922
  567MOL0     C74717   3.633   2.275   5.121  0.9667  0.4652 -0.1073
  567MOL0     C74718   3.504   2.304   5.143  0.4960 -0.1687  0.4039
  567MOL0     C74719   3.406   2.211   5.165 -0.8490  0.0157 -0.7167
  567MOL0     O74720   3.267   2.234   5.165 -0.3114 -0.0376  0.0858
  567MOL0     C74721   3.203   2.164   5.276 -0.7728  0.5344  0.0699
  567MOL0     C74722   3.069   2.234   5.309 -1.0797  0.9253  0.0920
  567MOL0     C74723   3.018   2.204   5.449  0.2830 -0.0557  0.6180
  567MOL0     C74724   2.900   2.111   5.451 -0.1910  1.5213  0.1315
  567MOL0     C74725   2.771   2.186   5.422  1.5301 -0.6985  0.4907
  567MOL0     C74726   2.658   2.073   5.397  0.8931  0.0215  0.5318
  567MOL0     C74727   2.541   2.114   5.304 -0.3641 -0.5961 -0.0294
  567MOL0     C74728   2.457   2.227   5.373 -0.3539 -0.5619 -0.5006
  567MOL0     N74729   2.340   2.265   5.302  0.6314 -0.5843  0.2247
  567MOL0     C74730   2.222   2.193   5.309  1.0460  0.0279  0.6335
  567MOL0     C74731   2.134   2.237   5.215  0.7084 -0.1755  0.3009
  567MOL0     C74732   1.997   2.191   5.170  0.5245 -0.8305  0.4678
  567MOL0     C74733   2.010   2.068   5.077  0.2855  0.9004  0.1721
  567MOL0     C74734   1.876   2.025   5.023 -0.1869  0.1511 -0.6452
  567MOL0     C74735   1.797   2.124   4.933  0.3015 -0.4754  0.0828
  567MOL0     O74736   1.884   2.195   4.839 -1.0027  0.0988 -0.6720
  567MOL0     C74737   1.943   2.132   4.722  0.1936 -0.3128 -0.5387
  567MOL0     C74738   1.871   2.035   4.653  0.4362  0.3178 -0.1331
  567MOL0     C74739   1.903   1.990   4.526 -0.2114  0.1788 -0.4027
  567MOL0     C74740   2.028   2.033   4.472  0.4839  0.8877  0.4752
  567MOL0     C74741   2.070   1.981   4.339  0.4548 -0.5735 -0.0051
  567MOL0     O74742   1.983   1.893   4.264 -0.0891 -0.2169  0.7235
  567MOL0     C74743   2.038   1.832   4.150  0.8115 -0.2369  0.2855
  567MOL0     C74744   2.170   1.790   4.123 -0.5839  1.2665  0.2732
  567MOL0     C74745   2.195   1.725   4.005  0.1047  0.4711  0.4221
  567MOL0     C74746   2.099   1.687   3.915 -0.8460 -0.6550 -0.3924
  567MOL0     O74747   2.146   1.624   3.798 -0.5798  0.4956 -0.5672
  567MOL0     C74748   2.056   1.541   3.723 -0.4288 -0.5295  0.6494
  567MOL0     C74749   2.116   1.479   3.591  0.0293 -0.3531  0.5988
  567MOL0     C74750   2.183   1.583   3.500 -0.5715  0.6606  0.5324
  567MOL0     C74751   2.214   1.514   3.366  0.5985 -0.4077 -0.4033
  567MOL0     C74752   2.298   1.599   3.282 -0.5309  0.6677 -0.2147
  567MOL0     C74753   2.337   1.522   3.159  0.0742 -0.3797 -0.1591
  567MOL0     C74754   2.403   1.609   3.044 -0.1779  0.1654  0.9180
  567MOL0     C74755   2.537   1.675   3.081 -0.0822 -0.1576  0.6940
  567MOL0    Cl74756   2.596   1.746   2.928  0.1245 -0.0671  0.2857
  567MOL0     C74757   1.971   1.726   3.948 -0.0012 -0.4267  0.3429
  567MOL0     C74758   1.945   1.797   4.058 -0.3708 -0.4672 -0.3096
  567MOL0     O74759   2.168   2.037   4.295 -0.2886 -0.0836  0.2275
  567MOL0     C74760   2.111   2.113   4.547 -0.3061  0.0448 -0.1850
  567MOL0     C74761   2.064   2.168   4.668  0.5758 -0.2412  0.6899
  567MOL0     N74762   2.196   2.341   5.153  0.2549 -0.1852  0.0865
  567MOL0     N74763   2.320   2.358   5.198 -0.5024 -0.2969  0.4688
  567MOL0     C74764   3.448   2.077   5.169 -0.5178  0.0503 -0.0918
  567MOL0     C74765   3.573   2.032   5.149 -0.3681  0.8143 -0.1196
  567MOL0     C74766   4.040   2.115   5.176 -0.2770 -0.7303 -1.1918
  567MOL0     C74767   4.150   2.192   5.228  0.4101  1.0123 -0.2293
  567MOL0     C74768   4.277   2.140   5.249  0.3986 -0.0010  0.4113
  567MOL0     C74769   4.308   2.011   5.202  0.0302  0.1462 -0.2673
  567MOL0     O74770   4.432   1.958   5.213 -0.9429  0.2401 -0.2736
  567MOL0     C74771   4.552   2.044   5.243  0.2088  0.0887  0.2244
  567MOL0     C74772   4.696   1.985   5.223  0.5555  0.2960  0.1359
  567MOL0     C74773   4.803   2.074   5.274  1.1333 -0.4468  0.4696
  567MOL0     C74774   4.940   1.999   5.253  0.4537  0.0682 -0.6538
  567MOL0     C74775   5.043   2.084   5.317  0.0873  1.0114 -0.5809
  567MOL0     C74776   5.129   2.153   5.364  0.0817  0.1614 -0.1343
  567MOL0     C74777   4.207   1.938   5.141  1.0985  0.2875  0.5229
  567MOL0     C74778   4.076   1.986   5.130 -1.2374 -0.6316 -0.8329
  567MOL0     H74779   3.693   2.362   5.098  1.7383  0.0660  0.3443
  567MOL0     H74780   3.469   2.406   5.132  1.4626  0.1007 -0.1763
  567MOL0     H74781   3.260   2.171   5.369  0.0843 -3.8494  0.1067
  567MOL0     H74782   3.173   2.061   5.256 -0.5599  0.6568 -0.9107
  567MOL0     H74783   2.992   2.213   5.235 -0.2066 -1.6942 -0.1927
  567MOL0     H74784   3.096   2.340   5.311 -0.6870  0.8240  0.4251
  567MOL0     H74785   2.990   2.298   5.497  0.7463  0.1216  0.5483
  567MOL0     H74786   3.100   2.168   5.512  0.1195 -1.1351  0.2404
  567MOL0     H74787   2.919   2.032   5.378 -2.0209  0.0640  1.1400
  567MOL0     H74788   2.885   2.060   5.547  0.7567  1.2156  0.1230
  567MOL0     H74789   2.780   2.261   5.343  2.4296  0.8277  1.9849
  567MOL0     H74790   2.725   2.240   5.505 -4.7952 -1.3737 -1.9634
  567MOL0     H74791   2.609   2.053   5.493  0.5720  2.7422  0.9991
  567MOL0     H74792   2.696   1.981   5.351 -0.8239  0.9553 -3.1468
  567MOL0     H74793   2.579   2.154   5.210 -1.2603  0.9780  0.2420
  567MOL0     H74794   2.467   2.034   5.290 -1.2039 -0.5182  3.2410
  567MOL0     H74795   2.518   2.316   5.394  1.1131 -1.6460  0.0295
  567MOL0     H74796   2.419   2.193   5.470 -2.4498  2.6057 -0.0907
  567MOL0     H74797   2.202   2.118   5.385  0.5707  0.6293  1.1080
  567MOL0     H74798   1.951   2.267   5.107 -1.4968  0.4142  3.2371
  567MOL0     H74799   1.928   2.175   5.253 -1.1613  1.2197 -0.4397
  567MOL0     H74800   2.062   1.983   5.123 -0.2055 -1.1408 -2.7858
  567MOL0     H74801   2.067   2.095   4.987 -0.5678 -0.1268 -0.6901
  567MOL0     H74802   1.899   1.936   4.963 -2.2781 -2.0039  1.5231
  567MOL0     H74803   1.814   1.990   5.106 -0.7891  1.1206 -0.6808
  567MOL0     H74804   1.751   2.205   4.990 -0.9510 -1.7804  1.0008
  567MOL0     H74805   1.717   2.069   4.883  1.4416 -1.4448 -0.7508
  567MOL0     H74806   1.780   1.999   4.701 -1.3252  3.7767 -0.5387
  567MOL0     H74807   1.835   1.923   4.474 -1.0001 -0.4173  1.3110
  567MOL0     H74808   2.260   1.814   4.179 -1.7018  1.4468  2.0811
  567MOL0     H74809   2.294   1.694   3.975 -0.6699 -1.1144 -0.6683
  567MOL0     H74810   1.963   1.597   3.710  0.0303  0.6485  2.1237
  567MOL0     H74811   2.030   1.462   3.794  0.5014  0.3443  2.0115
  567MOL0     H74812   2.024   1.446   3.541 -0.1126  0.4961  0.2855
  567MOL0     H74813   2.173   1.387   3.607 -0.8774 -0.7169  1.8280
  567MOL0     H74814   2.277   1.612   3.548 -0.5369 -1.8232  2.1730
  567MOL0     H74815   2.123   1.675   3.500  1.9979  2.4488  0.0177
  567MOL0     H74816   2.262   1.418   3.385  0.9521 -0.2120 -0.2968
  567MOL0     H74817   2.116   1.500   3.318  0.4485  3.1655 -1.4304
  567MOL0     H74818   2.385   1.635   3.340 -0.6582 -2.1569  1.9286
  567MOL0     H74819   2.243   1.684   3.242  0.1874  0.0015 -2.7858
  567MOL0     H74820   2.254   1.459   3.126  0.8822 -1.2752 -0.4844
  567MOL0     H74821   2.414   1.451   3.190  0.3850  0.4318  0.9888
  567MOL0     H74822   2.425   1.542   2.961 -0.0449 -1.1510  1.9868
  567MOL0     H74823   2.332   1.679   3.000  0.2168  1.3975  2.1667
  567MOL0     H74824   2.608   1.606   3.127 -0.3838 -0.4809  0.6865
  567MOL0     H74825   2.537   1.758   3.152  0.1651  1.8586 -1.5480
  567MOL0     H74826   1.886   1.696   3.887 -1.2997  1.5983  1.0814
  567MOL0     H74827   1.840   1.823   4.068 -0.0060  1.3426 -0.9742
  567MOL0     H74828   2.209   2.147   4.515  0.1537  1.3207  2.3295
  567MOL0     H74829   2.123   2.232   4.733  2.4572  0.1384 -1.2869
  567MOL0     H74830   3.368   2.004   5.177  0.1061 -0.4675  3.0715
  567MOL0     H74831   3.578   1.924   5.142 -1.5023  0.8203 -1.8108
  567MOL0     H74832   4.137   2.294   5.263 -0.1855  0.2410  2.0222
  567MOL0     H74833   4.356   2.196   5.297 -0.2697  0.5656  0.8488
  567MOL0     H74834   4.543   2.068   5.350  2.2107  1.1479  0.2045
  567MOL0     H74835   4.529   2.131   5.180 -1.2129 -1.1961 -1.1079
  567MOL0     H74836   4.694   1.892   5.280  2.1255 -0.4249 -0.9364
  567MOL0     H74837   4.722   1.963   5.119  1.4590  0.7974  0.2461
  567MOL0     H74838   4.784   2.089   5.381 -1.4964 -0.4908  0.0619
  567MOL0     H74839   4.805   2.173   5.229  1.4067  0.3119  2.0766
  567MOL0     H74840   4.928   1.905   5.307 -1.4422  0.0326 -1.0419
  567MOL0     H74841   4.960   1.970   5.149 -2.8008  1.6135 -1.8596
  567MOL0     H74842   5.195   2.225   5.407  1.2971  0.6966 -2.6888
  567MOL0     H74843   4.237   1.842   5.100 -2.3677 -0.4658 -0.5906
  567MOL0     H74844   4.000   1.921   5.088 -2.7568  0.3702  0.2371
  568MOL0     O74845  10.402   1.200   5.211 -0.1230 -0.5987  0.2898
  568MOL0     C74846  10.410   1.323   5.175  0.7728  0.5905 -0.2975
  568MOL0     O74847  10.304   1.413   5.189 -0.7793 -0.4277  0.6040
  568MOL0     C74848  10.189   1.371   5.250  0.2013 -0.5330  0.0458
  568MOL0     C74849  10.193   1.296   5.366 -0.1513  0.4045  0.2648
  568MOL0     C74850  10.075   1.267   5.438  0.2406 -0.0677 -0.7875
  568MOL0     C74851   9.953   1.312   5.390 -0.3486 -0.4991 -0.3842
  568MOL0     O74852   9.840   1.271   5.456 -1.0655  0.0981 -0.1521
  568MOL0     C74853   9.829   1.308   5.596  0.1357  0.0857  0.4101
  568MOL0     C74854   9.779   1.457   5.601  0.3104 -0.4176  0.6461
  568MOL0     C74855   9.762   1.513   5.749 -0.5033 -0.5109  0.3213
  568MOL0     C74856   9.654   1.442   5.828  1.2025 -0.4105  0.0199
  568MOL0     C74857   9.661   1.444   5.980  0.7979 -0.1771  0.0841
  568MOL0     C74858   9.647   1.587   6.041 -0.0304 -0.8704 -0.0800
  568MOL0     C74859   9.513   1.646   6.007  0.5910 -1.0081  0.8456
  568MOL0     C74860   9.485   1.783   6.075 -0.4953  0.0439  0.7079
  568MOL0     N74861   9.536   1.810   6.215 -0.3345  0.3101  0.4007
  568MOL0     C74862   9.462   1.773   6.327 -0.0836  0.4265 -0.7098
  568MOL0     C74863   9.513   1.839   6.434  0.6845 -0.1575 -0.6556
  568MOL0     C74864   9.452   1.827   6.571  1.3819 -0.3242  0.6505
  568MOL0     C74865   9.466   1.961   6.644  0.0424 -0.0955 -0.4109
  568MOL0     C74866   9.385   2.073   6.572 -0.4059 -0.1689 -0.0700
  568MOL0     C74867   9.371   2.201   6.657  0.2719 -0.0030 -0.1418
  568MOL0     O74868   9.228   2.218   6.684  0.3766  0.2618 -0.5559
  568MOL0     C74869   9.206   2.290   6.800 -0.5506  0.4068  0.5667
  568MOL0     C74870   9.296   2.365   6.878 -0.5608 -0.4229  1.5232
  568MOL0     C74871   9.246   2.453   6.977  0.5249 -0.4550 -0.3480
  568MOL0     C74872   9.114   2.449   7.017  0.7567 -0.1934  0.4849
  568MOL0     C74873   9.076   2.527   7.135 -0.1250  0.6805 -0.0417
  568MOL0     O74874   9.149   2.639   7.160 -0.1473 -0.2178 -0.1090
  568MOL0     C74875   9.116   2.730   7.259  0.1195 -0.5367 -0.0861
  568MOL0     C74876   9.005   2.726   7.343  0.9268  0.8142 -0.0258
  568MOL0     C74877   8.982   2.822   7.450 -0.1407 -0.2925  0.9286
  568MOL0     C74878   9.063   2.932   7.462  0.6523 -0.1409 -0.0490
  568MOL0     O74879   9.034   3.020   7.566 -0.1467  0.4585 -0.6193
  568MOL0     C74880   9.100   3.145   7.576  1.1281  0.5099 -0.6409
  568MOL0     C74881   9.233   3.131   7.644 -0.1133 -0.4687  0.3017
  568MOL0     C74882   9.276   3.269   7.705 -0.7598 -0.4362 -0.6630
  568MOL0     C74883   9.409   3.268   7.800  0.1563 -0.1227 -0.2199
  568MOL0     C74884   9.433   3.413   7.851 -0.4607  0.1680 -0.4454
  568MOL0     C74885   9.526   3.424   7.971 -0.4530 -0.9216  0.2022
  568MOL0     C74886   9.520   3.572   8.024 -0.2501  0.5094  0.7491
  568MOL0     C74887   9.395   3.593   8.105  0.1001 -0.5406  0.5591
  568MOL0    Cl74888   9.433   3.736   8.220 -0.1013 -0.1262  0.2157
  568MOL0     C74889   9.172   2.935   7.371 -0.3377 -0.6206  0.4983
  568MOL0     C74890   9.199   2.835   7.280 -0.5610  0.0692  0.4874
  568MOL0     O74891   8.982   2.477   7.196  0.2842 -0.5513  0.7523
  568MOL0     C74892   9.024   2.366   6.945  0.0252 -0.0364  0.1197
  568MOL0     C74893   9.068   2.296   6.824 -0.9657 -0.0406 -0.4570
  568MOL0     N74894   9.616   1.915   6.381  1.3363  0.3868 -0.8644
  568MOL0     N74895   9.624   1.904   6.256  0.2340 -0.1495 -1.3442
  568MOL0     C74896   9.949   1.380   5.273  0.0777  0.2029 -0.1343
  568MOL0     C74897  10.062   1.409   5.204  0.9320  0.5648 -0.3007
  568MOL0     C74898  10.538   1.369   5.128  0.2684  0.2258 -0.5694
  568MOL0     C74899  10.575   1.503   5.150  0.3910  0.2514  0.1644
  568MOL0     C74900  10.700   1.552   5.121 -0.3363 -0.2344 -0.8312
  568MOL0     C74901  10.784   1.472   5.043 -0.0577 -0.0921  0.0475
  568MOL0     O74902  10.905   1.514   5.008  0.1806 -0.0001 -0.5430
  568MOL0     C74903  11.006   1.422   4.965 -0.3079 -0.0233  0.1839
  568MOL0     C74904  11.143   1.489   4.999 -0.2619 -0.1420  0.6123
  568MOL0     C74905  11.151   1.527   5.151  0.0570 -0.1344  0.9967
  568MOL0     C74906  11.291   1.569   5.188 -0.3549 -0.0498  0.6894
  568MOL0     C74907  11.313   1.583   5.333  0.5566  0.3758 -0.0493
  568MOL0     C74908  11.338   1.578   5.455  0.6404  0.0621  0.0946
  568MOL0     C74909  10.748   1.341   5.008  0.3679 -0.9201 -0.2658
  568MOL0     C74910  10.622   1.285   5.063 -0.2925  0.2740 -0.7868
  568MOL0     H74911  10.288   1.264   5.409  1.1225  1.7715 -1.4217
  568MOL0     H74912  10.075   1.218   5.535  0.7045  1.9717  0.3015
  568MOL0     H74913   9.924   1.289   5.648 -0.7378 -2.2400  1.3173
  568MOL0     H74914   9.756   1.247   5.651  2.2147 -2.0340  1.0263
  568MOL0     H74915   9.694   1.473   5.534 -0.2525 -1.5387  1.0613
  568MOL0     H74916   9.858   1.521   5.560  0.2343 -0.0160  1.1186
  568MOL0     H74917   9.747   1.621   5.763  1.5907 -0.0214 -0.7875
  568MOL0     H74918   9.855   1.504   5.807 -0.3752  0.8195  0.3552
  568MOL0     H74919   9.554   1.476   5.799  0.8352 -3.5331 -3.1101
  568MOL0     H74920   9.649   1.334   5.809 -1.0394 -1.1182  3.5307
  568MOL0     H74921   9.757   1.413   6.021  0.7620  3.3418  3.3423
  568MOL0     H74922   9.579   1.384   6.022 -1.3570  2.3449 -0.2000
  568MOL0     H74923   9.730   1.650   6.008 -0.4960  0.7726  1.6466
  568MOL0     H74924   9.651   1.583   6.151 -0.7805 -3.3636 -0.0849
  568MOL0     H74925   9.507   1.674   5.901  1.0189  2.1565  1.5328
  568MOL0     H74926   9.430   1.576   6.021 -0.1778  0.2010  2.8653
  568MOL0     H74927   9.375   1.778   6.075 -0.5111  0.3789  0.9169
  568MOL0     H74928   9.512   1.864   6.006  0.5105  0.0230  1.0678
  568MOL0     H74929   9.382   1.699   6.333  2.4009 -2.3290  2.4865
  568MOL0     H74930   9.500   1.743   6.622  0.6102  0.0169  2.0205
  568MOL0     H74931   9.345   1.806   6.559  1.6662 -1.5145  0.0504
  568MOL0     H74932   9.571   1.993   6.643  0.1045 -0.2993 -0.3714
  568MOL0     H74933   9.424   1.954   6.745  1.0353  1.0021  0.1058
  568MOL0     H74934   9.430   2.102   6.477 -0.7598 -0.5214 -0.3497
  568MOL0     H74935   9.292   2.028   6.535 -2.0422  3.4447 -0.8417
  568MOL0     H74936   9.412   2.285   6.600 -0.8268  0.8715  0.3092
  568MOL0     H74937   9.433   2.193   6.746 -0.5422  1.2696  0.5680
  568MOL0     H74938   9.403   2.350   6.867 -0.7489 -0.3929 -0.7041
  568MOL0     H74939   9.316   2.521   7.026 -0.7901  0.3183  0.5070
  568MOL0     H74940   8.929   2.648   7.340  2.0339 -0.2660 -0.5304
  568MOL0     H74941   8.900   2.813   7.522 -0.1040 -0.0479  0.9995
  568MOL0     H74942   9.038   3.210   7.639  1.4184 -0.3809  0.6119
  568MOL0     H74943   9.110   3.202   7.483 -0.1209  4.6883  1.5066
  568MOL0     H74944   9.308   3.106   7.569 -1.7877  1.0171 -2.0249
  568MOL0     H74945   9.229   3.058   7.726 -1.3021 -0.2746  0.4403
  568MOL0     H74946   9.192   3.308   7.762  0.0879 -0.4413  0.6244
  568MOL0     H74947   9.287   3.356   7.638 -0.1581  1.6635  1.9887
  568MOL0     H74948   9.373   3.221   7.891 -2.7332  2.1941 -0.0031
  568MOL0     H74949   9.501   3.231   7.754 -0.6923 -1.3645 -0.9644
  568MOL0     H74950   9.343   3.468   7.881 -0.0266  1.1003 -0.8237
  568MOL0     H74951   9.479   3.462   7.765 -1.2062 -0.4387 -1.2200
  568MOL0     H74952   9.625   3.394   7.937 -0.6067 -2.6784  1.1914
  568MOL0     H74953   9.495   3.369   8.060 -1.7317 -0.2187  0.2236
  568MOL0     H74954   9.612   3.588   8.081  1.8555 -1.5742 -1.7488
  568MOL0     H74955   9.520   3.644   7.942 -0.2339  1.5408  1.6303
  568MOL0     H74956   9.366   3.501   8.155 -0.1829 -0.2574  0.9211
  568MOL0     H74957   9.312   3.621   8.039 -2.3015 -0.9501  3.2415
  568MOL0     H74958   9.246   3.014   7.385 -1.2455  0.4874 -0.7803
  568MOL0     H74959   9.285   2.849   7.214 -0.7518  0.2051  0.2633
  568MOL0     H74960   8.917   2.364   6.965  0.6353  0.3991  4.4142
  568MOL0     H74961   9.000   2.249   6.755  0.1874 -0.0361 -1.6454
  568MOL0     H74962   9.852   1.410   5.236  0.6664  0.2523 -1.7124
  568MOL0     H74963  10.056   1.465   5.111 -0.6652  1.6824  0.4426
  568MOL0     H74964  10.516   1.579   5.200 -0.0529 -1.1534  1.8558
  568MOL0     H74965  10.733   1.654   5.138  1.5475 -0.7190 -1.3928
  568MOL0     H74966  11.004   1.403   4.857  3.3980  3.1706 -0.7006
  568MOL0     H74967  11.007   1.320   5.005  2.5134 -0.7543 -1.4562
  568MOL0     H74968  11.226   1.428   4.964  0.6089  2.3509 -2.0392
  568MOL0     H74969  11.151   1.574   4.930  0.4366  1.2236  2.2848
  568MOL0     H74970  11.131   1.436   5.210  1.0753  0.4590  2.3194
  568MOL0     H74971  11.070   1.596   5.178 -2.9967 -3.0135 -0.1622
  568MOL0     H74972  11.359   1.489   5.158  1.2955  1.0349  1.3530
  568MOL0     H74973  11.309   1.663   5.135 -1.2739  0.3307  1.0396
  568MOL0     H74974  11.360   1.594   5.558  0.3395 -2.0969  0.5358
  568MOL0     H74975  10.800   1.275   4.940  2.0262  0.6128 -0.5772
  568MOL0     H74976  10.598   1.180   5.055  0.0362  0.1167  0.1509
  569MOL0     O74977   2.504   2.168  10.400  0.3884 -0.3650 -0.0360
  569MOL0     C74978   2.588   2.188  10.309 -0.4390 -0.9299  0.1607
  569MOL0     O74979   2.570   2.166  10.176 -0.0678 -0.0834  0.1686
  569MOL0     C74980   2.459   2.100  10.140  0.2952  0.5658 -0.2585
  569MOL0     C74981   2.333   2.163  10.122 -0.7610 -0.1421  0.3209
  569MOL0     C74982   2.221   2.086  10.084 -0.5763  0.2383 -0.8088
  569MOL0     C74983   2.223   1.944  10.070  0.1755  0.3980  0.2881
  569MOL0     O74984   2.113   1.873  10.022 -0.6428  0.3504  0.5348
  569MOL0     C74985   1.992   1.927  10.078 -0.3832 -0.1879 -0.0804
  569MOL0     C74986   1.875   1.827  10.099 -0.1535  0.6378 -0.1372
  569MOL0     C74987   1.814   1.771   9.971  0.3271 -0.3980 -0.0193
  569MOL0     C74988   1.697   1.677   9.994  0.5668  0.5866 -0.0150
  569MOL0     C74989   1.638   1.622   9.864 -0.3495  0.3742 -0.1993
  569MOL0     C74990   1.509   1.527   9.887 -0.2380 -0.1620  0.2303
  569MOL0     C74991   1.457   1.488   9.742  0.3731  0.3538 -0.3147
  569MOL0     C74992   1.363   1.370   9.747  0.5326  0.7842  1.2387
  569MOL0     N74993   1.227   1.402   9.788  0.9419 -0.1570 -0.0296
  569MOL0     C74994   1.127   1.450   9.711 -0.4101  0.5357  0.7891
  569MOL0     C74995   1.018   1.468   9.796  0.0117 -0.4200  0.0795
  569MOL0     C74996   0.890   1.541   9.751  0.3222  1.1210 -0.4770
  569MOL0     C74997   0.775   1.436   9.781 -0.2076  0.1826 -0.0082
  569MOL0     C74998   0.640   1.496   9.813 -0.3936 -0.2084 -0.1919
  569MOL0     C74999   0.615   1.541   9.956 -0.2784  0.6916 -1.1069
  569MOL0     O75000   0.471   1.586   9.958  0.3397  0.2163 -0.1271
  569MOL0     C75001   0.418   1.619  10.081  0.1836  0.8646  0.4534
  569MOL0     C75002   0.504   1.676  10.177  0.0098 -0.1830  1.1414
  569MOL0     C75003   0.463   1.689  10.306  0.4251  0.0031  0.4112
  569MOL0     C75004   0.331   1.652  10.338 -0.4663  0.2069 -0.4441
  569MOL0     C75005   0.286   1.662  10.481 -0.0392 -0.6311  0.4128
  569MOL0     O75006   0.354   1.745  10.567 -0.1634  0.0356 -0.0734
  569MOL0     C75007   0.294   1.767  10.691 -1.3519  0.3520  0.1804
  569MOL0     C75008   0.369   1.748  10.811 -0.1534  1.0200  0.0698
  569MOL0     C75009   0.318   1.783  10.940 -0.1824 -0.5915  0.4033
  569MOL0     C75010   0.192   1.841  10.953  0.5362 -0.7140 -0.8370
  569MOL0     O75011   0.161   1.888  11.084 -0.1666 -1.0349 -0.4429
  569MOL0     C75012   0.024   1.854  11.124 -0.5593  1.1357  0.2866
  569MOL0     C75013  -0.063   1.985  11.143 -0.4881  0.3638  0.2988
  569MOL0     C75014  -0.211   1.936  11.143 -0.1250 -0.0068 -0.1721
  569MOL0     C75015  -0.312   2.041  11.158  0.7075 -0.3112 -0.4954
  569MOL0     C75016  -0.461   2.001  11.121 -0.1347 -0.4054  0.4897
  569MOL0     C75017  -0.555   2.110  11.180  0.1351  0.4072 -0.1498
  569MOL0     C75018  -0.710   2.097  11.148  0.0716  0.3106 -0.5594
  569MOL0     C75019  -0.773   1.958  11.195  1.0045 -0.1248 -0.2699
  569MOL0    Cl75020  -0.933   1.932  11.131  0.0451  0.2863  0.2495
  569MOL0     C75021   0.123   1.867  10.841  0.3306  0.2309  0.5446
  569MOL0     C75022   0.178   1.835  10.712  0.5733  0.2537  0.6871
  569MOL0     O75023   0.183   1.608  10.508  0.3343 -0.6616  0.0964
  569MOL0     C75024   0.249   1.604  10.244  0.6606 -0.6705  0.4360
  569MOL0     C75025   0.286   1.577  10.115  0.0192  0.6052 -1.5661
  569MOL0     N75026   1.058   1.431   9.920 -0.1405 -0.3670 -0.0409
  569MOL0     N75027   1.180   1.395   9.913  0.5091 -0.4455  0.1707
  569MOL0     C75028   2.349   1.874  10.089  0.4490 -0.5536  0.8978
  569MOL0     C75029   2.468   1.958  10.113 -0.3874 -0.1865  0.4011
  569MOL0     C75030   2.731   2.243  10.350  0.6768  0.7857 -0.7506
  569MOL0     C75031   2.830   2.283  10.256 -0.1362  0.5958 -0.6228
  569MOL0     C75032   2.947   2.344  10.291 -0.5618  0.1690  0.6723
  569MOL0     C75033   2.978   2.366  10.429 -0.5523 -0.4276 -0.1646
  569MOL0     O75034   3.106   2.400  10.480  0.4298  1.1288  0.3108
  569MOL0     C75035   3.193   2.487  10.402  0.9949  0.2749  0.6052
  569MOL0     C75036   3.159   2.635  10.422 -0.2449  0.1563 -0.0076
  569MOL0     C75037   3.272   2.714  10.369 -0.2251  0.0110  0.3994
  569MOL0     C75038   3.274   2.856  10.427  0.2929  0.6495 -0.4022
  569MOL0     C75039   3.143   2.919  10.429  0.0564  0.4997 -0.2416
  569MOL0     C75040   3.044   2.985  10.429  0.6771 -0.0351  0.2816
  569MOL0     C75041   2.883   2.333  10.525 -0.8080  0.0590  0.3586
  569MOL0     C75042   2.760   2.274  10.486 -0.0885 -0.2219  0.2500
  569MOL0     H75043   2.315   2.270  10.124 -3.2029 -0.4705 -0.2649
  569MOL0     H75044   2.128   2.137  10.062 -0.7982  0.6155  0.9376
  569MOL0     H75045   1.955   1.999  10.005 -0.9012 -0.6092 -0.2447
  569MOL0     H75046   2.013   1.983  10.170  1.8318 -0.3417 -0.4351
  569MOL0     H75047   1.796   1.888  10.145  1.8297  3.1298  0.1999
  569MOL0     H75048   1.908   1.743  10.161 -0.2221  0.6091 -0.1391
  569MOL0     H75049   1.891   1.728   9.906  0.8636 -1.7841  1.4825
  569MOL0     H75050   1.766   1.858   9.924 -2.9549 -0.5589  2.6639
  569MOL0     H75051   1.739   1.609  10.069  2.3989  2.4048  0.7111
  569MOL0     H75052   1.611   1.726  10.041  1.0018 -0.4298  1.9683
  569MOL0     H75053   1.724   1.574   9.817  0.8704  0.8802  1.3909
  569MOL0     H75054   1.600   1.691   9.788 -3.6515 -1.7225 -0.6005
  569MOL0     H75055   1.437   1.587   9.943  0.2425  0.9105 -0.2835
  569MOL0     H75056   1.531   1.431   9.935 -1.2228 -2.2077 -3.0391
  569MOL0     H75057   1.418   1.566   9.676 -0.0446  1.7775  1.5069
  569MOL0     H75058   1.546   1.457   9.687  1.2002  1.2000  0.5018
  569MOL0     H75059   1.418   1.294   9.804  1.1757  0.0716 -0.2864
  569MOL0     H75060   1.358   1.342   9.641 -0.1708  2.5923  0.7520
  569MOL0     H75061   1.141   1.472   9.605 -2.1954  3.9228  1.1098
  569MOL0     H75062   0.893   1.557   9.643 -3.1399 -1.7102 -1.1572
  569MOL0     H75063   0.877   1.635   9.806  0.4311  0.2905  1.0542
  569MOL0     H75064   0.802   1.367   9.862  0.0971 -1.9390 -1.8416
  569MOL0     H75065   0.764   1.386   9.685  1.1940  1.2615 -0.7639
  569MOL0     H75066   0.627   1.592   9.762  0.0705  1.6775  2.9428
  569MOL0     H75067   0.559   1.430   9.780 -1.4635  0.1767  1.4806
  569MOL0     H75068   0.675   1.629   9.981  0.4141 -0.3613  1.2744
  569MOL0     H75069   0.617   1.457  10.026  1.5621  1.6651  0.0848
  569MOL0     H75070   0.606   1.707  10.158 -0.0239 -0.3399  0.6678
  569MOL0     H75071   0.524   1.722  10.389 -0.0720  0.0642  0.7577
  569MOL0     H75072   0.470   1.711  10.798 -0.1193  1.9454 -2.9000
  569MOL0     H75073   0.387   1.766  11.022  0.2043  1.2925  0.5163
  569MOL0     H75074   0.033   1.780  11.203  3.0927  0.3367 -0.7054
  569MOL0     H75075  -0.019   1.798  11.040 -0.4556  3.2534 -1.2777
  569MOL0     H75076  -0.040   2.061  11.067  2.4666  1.3011  1.9340
  569MOL0     H75077  -0.038   2.025  11.242  0.2275 -0.8204  0.6135
  569MOL0     H75078  -0.230   1.865  11.224 -0.2958  0.7053  0.4262
  569MOL0     H75079  -0.236   1.875  11.056  0.2994 -0.9873  0.3799
  569MOL0     H75080  -0.314   2.074  11.262  0.2878 -0.1789 -0.5433
  569MOL0     H75081  -0.276   2.129  11.104  0.1647  0.2070 -0.0319
  569MOL0     H75082  -0.484   1.896  11.142  0.4983 -0.6938 -0.2233
  569MOL0     H75083  -0.465   2.006  11.012 -1.3076 -2.1499  0.4185
  569MOL0     H75084  -0.510   2.206  11.153  1.3606  0.1649  0.9115
  569MOL0     H75085  -0.542   2.108  11.289  0.0067 -3.2719 -0.0694
  569MOL0     H75086  -0.770   2.177  11.192  0.5299  0.1977  0.2918
  569MOL0     H75087  -0.717   2.106  11.039  0.9777 -0.5463 -0.7048
  569MOL0     H75088  -0.787   1.956  11.304 -3.5906  0.0972 -0.6514
  569MOL0     H75089  -0.717   1.872  11.159 -0.2714  0.3050 -3.5974
  569MOL0     H75090   0.030   1.920  10.854 -1.2329 -2.3237  0.5392
  569MOL0     H75091   0.130   1.872  10.622 -0.3410  1.3193  1.5743
  569MOL0     H75092   0.145   1.576  10.255 -0.0902 -0.4218 -4.0260
  569MOL0     H75093   0.229   1.510  10.052 -1.1367 -1.5225  1.5162
  569MOL0     H75094   2.362   1.766  10.084 -0.5276 -0.6851  0.8902
  569MOL0     H75095   2.566   1.914  10.116  0.2167  0.8992 -1.6156
  569MOL0     H75096   2.818   2.267  10.150 -1.2169 -0.3396 -0.3737
  569MOL0     H75097   3.019   2.365  10.212 -0.2128 -0.7674  0.7361
  569MOL0     H75098   3.189   2.467  10.295  0.5106 -1.3621  0.8981
  569MOL0     H75099   3.297   2.466  10.429  1.5663 -0.3131 -1.8415
  569MOL0     H75100   3.063   2.652  10.373 -1.7811 -1.4187  2.2977
  569MOL0     H75101   3.143   2.655  10.528  2.7977  2.8166  0.1187
  569MOL0     H75102   3.260   2.718  10.261 -0.1249  1.2399  0.4223
  569MOL0     H75103   3.368   2.670  10.397 -0.4167 -0.6646  0.0127
  569MOL0     H75104   3.306   2.860  10.531  1.6418 -2.5420 -0.5933
  569MOL0     H75105   3.351   2.919  10.381  3.8287 -2.4968  0.7579
  569MOL0     H75106   2.953   3.041  10.433 -0.2519 -1.4148 -0.7752
  569MOL0     H75107   2.915   2.364  10.624 -0.6005  0.8761  0.0477
  569MOL0     H75108   2.687   2.263  10.565  0.7504  0.0639  1.0837
  570MOL0     O75109   5.093   9.491   1.145 -0.0529  0.7726  0.2358
  570MOL0     C75110   5.135   9.489   1.259 -0.4517  0.3854  0.0280
  570MOL0     O75111   5.057   9.517   1.368  0.2908 -0.0744  0.2007
  570MOL0     C75112   4.931   9.569   1.341 -0.2290 -0.4478  0.5988
  570MOL0     C75113   4.879   9.699   1.381  1.0350 -0.2928  0.5910
  570MOL0     C75114   4.743   9.744   1.361 -0.5940 -0.6436 -0.6262
  570MOL0     C75115   4.653   9.654   1.305 -1.2681 -1.1466 -0.9205
  570MOL0     O75116   4.524   9.693   1.281  0.2691 -0.3012 -0.6850
  570MOL0     C75117   4.415   9.590   1.257  0.5987 -0.1443  0.4850
  570MOL0     C75118   4.278   9.649   1.254  0.1405 -0.3015  0.3338
  570MOL0     C75119   4.260   9.732   1.128  0.6051 -0.0229 -0.2096
  570MOL0     C75120   4.107   9.767   1.108  0.1017  0.2336 -1.0465
  570MOL0     C75121   4.047   9.848   1.227  0.0094  0.1496 -0.1681
  570MOL0     C75122   3.941   9.957   1.186 -0.1485  0.0681  0.6693
  570MOL0     C75123   3.915  10.069   1.285 -0.2725  0.9160  0.2732
  570MOL0     C75124   3.831  10.178   1.217 -0.1857 -0.5960 -0.0853
  570MOL0     N75125   3.698  10.135   1.157 -0.1310  0.6339 -0.1347
  570MOL0     C75126   3.671  10.068   1.038  0.0548  0.0026 -0.0546
  570MOL0     C75127   3.537  10.054   1.051  0.5610  0.0637  0.3486
  570MOL0     C75128   3.445   9.964   0.961 -0.1817  0.2919 -0.5427
  570MOL0     C75129   3.358  10.038   0.861  0.4192  0.2875  0.6582
  570MOL0     C75130   3.232  10.077   0.933 -0.6993 -0.2646  0.3237
  570MOL0     C75131   3.144  10.176   0.859 -0.2177 -0.1820  0.7341
  570MOL0     O75132   3.016  10.178   0.921  0.2693 -0.3132 -0.1798
  570MOL0     C75133   2.902  10.176   0.845  0.2117  0.2238  0.1195
  570MOL0     C75134   2.819  10.063   0.838  0.4801  0.3279 -0.6086
  570MOL0     C75135   2.695  10.070   0.784  1.0463  0.3612  0.4706
  570MOL0     C75136   2.641  10.192   0.735 -0.0171 -0.1621 -0.4015
  570MOL0     C75137   2.507  10.199   0.672  0.0376 -0.0595  1.0900
  570MOL0     O75138   2.439  10.321   0.649  0.1302  0.9937  0.4852
  570MOL0     C75139   2.315  10.315   0.613  0.1140  0.1194  0.2064
  570MOL0     C75140   2.224  10.392   0.684 -0.7931 -0.0986  0.8165
  570MOL0     C75141   2.084  10.401   0.640 -0.5299  0.1130 -0.9489
  570MOL0     C75142   2.053  10.341   0.519  0.6676 -0.7028  0.2587
  570MOL0     O75143   1.917  10.338   0.482 -0.7131 -0.0630 -1.2226
  570MOL0     C75144   1.814  10.412   0.541 -0.5837 -0.4517  0.2366
  570MOL0     C75145   1.690  10.345   0.489 -0.3017 -0.1483  0.3734
  570MOL0     C75146   1.568  10.438   0.513  0.1037 -0.1346  0.3480
  570MOL0     C75147   1.454  10.377   0.434 -0.0562  0.3808 -0.7660
  570MOL0     C75148   1.335  10.463   0.437  0.1882  0.1255  1.0318
  570MOL0     C75149   1.223  10.388   0.350  0.1465 -0.2904  0.1756
  570MOL0     C75150   1.109  10.489   0.298 -0.2966  0.0084 -0.4781
  570MOL0     C75151   1.014  10.433   0.201 -0.2715 -0.9787 -0.4467
  570MOL0    Cl75152   0.883  10.348   0.261  0.4664 -0.2009  0.0939
  570MOL0     C75153   2.153  10.290   0.438 -0.6531 -0.1111 -0.5635
  570MOL0     C75154   2.282  10.287   0.484  0.4840 -0.0054  0.3419
  570MOL0     O75155   2.462  10.086   0.645  0.1325  0.5551  0.6606
  570MOL0     C75156   2.733  10.303   0.737 -0.0473  0.2596 -0.6802
  570MOL0     C75157   2.862  10.287   0.790  0.8234 -0.6336  0.2033
  570MOL0     N75158   3.481  10.109   1.163  0.9233 -0.7431 -0.3107
  570MOL0     N75159   3.582  10.157   1.224  0.0605 -0.0005  0.2359
  570MOL0     C75160   4.699   9.533   1.271  0.5895  0.5875 -1.1764
  570MOL0     C75161   4.830   9.495   1.285 -0.0754 -0.0884  0.0623
  570MOL0     C75162   5.280   9.454   1.281  0.1679 -0.0079 -0.0193
  570MOL0     C75163   5.330   9.432   1.410  0.4875 -0.0235  0.3202
  570MOL0     C75164   5.456   9.387   1.436  0.6137 -1.1329  0.1397
  570MOL0     C75165   5.544   9.369   1.329  0.4187 -0.1487  0.3404
  570MOL0     O75166   5.666   9.330   1.351 -0.4222 -0.2186  0.1228
  570MOL0     C75167   5.768   9.438   1.351 -0.2216  0.6829 -0.1607
  570MOL0     C75168   5.914   9.399   1.344 -0.2314  0.1618  0.5776
  570MOL0     C75169   5.958   9.284   1.249 -0.4461 -0.7667 -0.6362
  570MOL0     C75170   6.113   9.280   1.269  0.5712 -0.9076  0.4192
  570MOL0     C75171   6.178   9.164   1.199  0.1162  0.4585 -0.1512
  570MOL0     C75172   6.235   9.061   1.170 -0.4083  0.1480  0.5340
  570MOL0     C75173   5.502   9.394   1.198 -0.4232 -0.7526  0.2922
  570MOL0     C75174   5.373   9.434   1.174  0.7501 -0.3181  0.5125
  570MOL0     H75175   4.955   9.771   1.409 -0.1378  1.4489 -0.5617
  570MOL0     H75176   4.710   9.841   1.395  1.3220 -1.0444  2.8256
  570MOL0     H75177   4.420   9.514   1.336  1.5257  0.3403  0.9112
  570MOL0     H75178   4.424   9.551   1.155 -1.7074 -0.0539  0.1944
  570MOL0     H75179   4.270   9.702   1.349 -1.8652  0.6086 -0.2820
  570MOL0     H75180   4.208   9.565   1.249 -2.6207  1.8210  0.6882
  570MOL0     H75181   4.303   9.674   1.046  0.0059 -0.5774 -0.1416
  570MOL0     H75182   4.311   9.828   1.139 -0.2524  0.4506 -0.2476
  570MOL0     H75183   4.111   9.831   1.019  1.0901  2.8183  0.7477
  570MOL0     H75184   4.046   9.679   1.084  1.4613 -0.9755 -0.1860
  570MOL0     H75185   4.129   9.893   1.284  0.2119 -1.2861  0.7118
  570MOL0     H75186   4.005   9.767   1.287  0.6853 -0.7533 -0.8860
  570MOL0     H75187   3.850   9.901   1.161  0.2191 -1.0173  1.6955
  570MOL0     H75188   3.977  10.015   1.101 -1.0848  2.5380  1.8784
  570MOL0     H75189   3.861  10.026   1.370  3.1410  1.0829  2.7415
  570MOL0     H75190   4.008  10.110   1.325  0.0343 -2.0746  3.0651
  570MOL0     H75191   3.884  10.226   1.134 -2.9110 -1.0368 -2.1918
  570MOL0     H75192   3.821  10.267   1.281 -0.4165 -0.4021 -0.3899
  570MOL0     H75193   3.736  10.017   0.968  2.7789  0.1003  2.2569
  570MOL0     H75194   3.377   9.903   1.021 -0.1477 -0.4134 -1.1978
  570MOL0     H75195   3.519   9.899   0.913  0.2955 -1.0403  1.8622
  570MOL0     H75196   3.347   9.968   0.777  1.2406 -1.0065  1.5935
  570MOL0     H75197   3.407  10.129   0.824  1.7025 -0.7109 -0.1955
  570MOL0     H75198   3.170   9.990   0.956 -1.5869  0.6937  1.7543
  570MOL0     H75199   3.261  10.121   1.029 -0.8639 -0.8178  0.6330
  570MOL0     H75200   3.122  10.135   0.760 -1.3653 -0.9508  1.2832
  570MOL0     H75201   3.197  10.271   0.848  1.9581 -1.3241  0.8641
  570MOL0     H75202   2.847   9.973   0.892  2.1231 -0.3060 -2.3867
  570MOL0     H75203   2.639   9.978   0.795  0.0330  0.8256 -0.5819
  570MOL0     H75204   2.256  10.424   0.782 -0.6004 -1.4715  1.2128
  570MOL0     H75205   2.013  10.441   0.712 -3.2051 -0.8290 -2.9072
  570MOL0     H75206   1.826  10.515   0.506  2.5452 -1.1193 -0.9070
  570MOL0     H75207   1.804  10.410   0.650 -0.7866 -0.9397  0.2135
  570MOL0     H75208   1.681  10.241   0.523  1.2362 -0.1251  0.9385
  570MOL0     H75209   1.706  10.337   0.381 -1.5005  2.3005 -0.0470
  570MOL0     H75210   1.571  10.536   0.464 -0.0272 -1.1413 -1.7796
  570MOL0     H75211   1.526  10.443   0.614 -0.4238  2.5729  0.0695
  570MOL0     H75212   1.488  10.356   0.332  1.3687  0.7303 -0.3966
  570MOL0     H75213   1.424  10.290   0.494 -1.3558  1.2652 -0.0910
  570MOL0     H75214   1.359  10.562   0.397  2.4651 -1.2971 -1.3876
  570MOL0     H75215   1.289  10.478   0.536 -1.0376 -2.7381  0.9737
  570MOL0     H75216   1.175  10.304   0.402  1.1260 -2.1536 -1.7658
  570MOL0     H75217   1.282  10.353   0.265 -0.4703 -2.0053  0.4094
  570MOL0     H75218   1.049  10.523   0.383 -1.2603 -0.5276 -0.9384
  570MOL0     H75219   1.156  10.578   0.254 -1.1656 -0.2644 -1.9850
  570MOL0     H75220   1.068  10.383   0.119 -0.0849  1.3908 -1.8512
  570MOL0     H75221   0.971  10.521   0.152 -2.3260 -2.0626 -0.6999
  570MOL0     H75222   2.120  10.249   0.343 -1.8588  0.3521 -0.3576
  570MOL0     H75223   2.353  10.249   0.411  0.0413 -0.6071  0.2229
  570MOL0     H75224   2.697  10.400   0.704  0.1818  0.4919 -0.2428
  570MOL0     H75225   2.928  10.374   0.788  1.5051 -1.1463  0.0954
  570MOL0     H75226   4.636   9.459   1.223 -1.2526  1.2716  0.0512
  570MOL0     H75227   4.835   9.392   1.252 -5.9423 -0.7482  0.1285
  570MOL0     H75228   5.260   9.447   1.492  0.3693  1.8263 -0.0751
  570MOL0     H75229   5.489   9.367   1.538 -4.5179  1.8978  2.7524
  570MOL0     H75230   5.752   9.481   1.450 -2.0550  1.8329 -0.9095
  570MOL0     H75231   5.758   9.497   1.260 -1.4893 -2.2808 -2.0955
  570MOL0     H75232   5.967   9.491   1.320  1.3843 -0.8585  0.0559
  570MOL0     H75233   5.941   9.364   1.445 -1.5534 -5.7472 -0.7522
  570MOL0     H75234   5.938   9.314   1.146  3.4772  1.3461 -0.9597
  570MOL0     H75235   5.910   9.188   1.272  0.0684 -1.2108 -1.3867
  570MOL0     H75236   6.159   9.366   1.220 -0.7442 -2.2886 -3.7001
  570MOL0     H75237   6.143   9.293   1.373  3.5601  3.0444 -0.6693
  570MOL0     H75238   6.273   8.963   1.151  0.5781  0.1860  2.1171
  570MOL0     H75239   5.572   9.405   1.116 -2.2380  1.4297 -1.1187
  570MOL0     H75240   5.337   9.475   1.080 -2.1977  0.2459  1.7854
  571MOL0     O75241   9.953   0.548   8.075  0.2275  0.5473  0.6493
  571MOL0     C75242  10.018   0.525   7.973 -0.1334  0.1225  0.5109
  571MOL0     O75243   9.976   0.457   7.860 -0.4138  0.4027  0.5716
  571MOL0     C75244   9.844   0.421   7.863  0.2493 -0.3044  0.6035
  571MOL0     C75245   9.819   0.281   7.848  0.3199 -0.3776 -0.1328
  571MOL0     C75246   9.695   0.223   7.854  0.0949 -0.0167 -0.5250
  571MOL0     C75247   9.586   0.312   7.858  0.7894  0.1196  0.4140
  571MOL0     O75248   9.456   0.259   7.863 -0.4413  0.5395  0.0581
  571MOL0     C75249   9.333   0.329   7.826 -1.1609 -0.9730 -0.0693
  571MOL0     C75250   9.232   0.229   7.784  0.4865 -0.2429 -0.1231
  571MOL0     C75251   9.107   0.304   7.741  1.3418  0.5941 -0.0899
  571MOL0     C75252   9.004   0.197   7.701  0.6532  0.2470 -0.5198
  571MOL0     C75253   8.897   0.251   7.612 -0.2930  0.7846  0.9946
  571MOL0     C75254   8.779   0.158   7.612  0.1613 -0.2582  0.8659
  571MOL0     C75255   8.663   0.195   7.517  0.0520 -0.7108  0.1191
  571MOL0     C75256   8.698   0.158   7.371 -1.0471  0.5022 -0.1547
  571MOL0     N75257   8.580   0.161   7.287 -0.0477 -0.5669  0.3334
  571MOL0     C75258   8.497   0.269   7.263 -0.1814 -0.7345  0.0062
  571MOL0     C75259   8.399   0.230   7.177 -0.3874 -0.2572  0.0529
  571MOL0     C75260   8.281   0.310   7.132 -0.0748  0.0629  0.4315
  571MOL0     C75261   8.155   0.237   7.104 -0.4593  0.4565  0.7934
  571MOL0     C75262   8.172   0.141   6.985  0.5205 -0.4629 -1.0705
  571MOL0     C75263   8.037   0.099   6.933  0.9356  0.1170  0.0647
  571MOL0     O75264   8.042  -0.007   6.843 -0.5889  0.4585  0.6154
  571MOL0     C75265   7.923  -0.066   6.811  0.0931  0.2206  0.8845
  571MOL0     C75266   7.814   0.012   6.763 -0.1116  0.3121 -0.1201
  571MOL0     C75267   7.695  -0.042   6.719  0.1299  0.6583 -0.6653
  571MOL0     C75268   7.686  -0.182   6.716  0.1249 -0.1167  0.5807
  571MOL0     C75269   7.558  -0.247   6.680  0.1701 -0.8317 -0.6135
  571MOL0     O75270   7.559  -0.379   6.662  0.3050  0.6757  0.7052
  571MOL0     C75271   7.439  -0.448   6.644  1.0037  0.4871 -1.2986
  571MOL0     C75272   7.315  -0.400   6.697  0.5999  1.1025 -0.4652
  571MOL0     C75273   7.202  -0.482   6.692  0.4802  0.1393 -0.0807
  571MOL0     C75274   7.198  -0.595   6.621  0.1019  0.1463 -0.5712
  571MOL0     O75275   7.078  -0.672   6.603 -0.3967 -0.3084 -0.8620
  571MOL0     C75276   6.951  -0.605   6.609  0.6432 -0.2006  0.1047
  571MOL0     C75277   6.847  -0.715   6.577  0.1376  0.8443 -0.2247
  571MOL0     C75278   6.700  -0.677   6.570 -0.0019 -0.0262 -0.4435
  571MOL0     C75279   6.622  -0.799   6.523  0.0712  0.1344  0.6498
  571MOL0     C75280   6.480  -0.753   6.529  0.8381  0.4545 -0.3930
  571MOL0     C75281   6.379  -0.834   6.444 -0.4404  0.5251 -0.0601
  571MOL0     C75282   6.230  -0.816   6.469  0.1405 -0.4218  0.6818
  571MOL0     C75283   6.150  -0.868   6.340  0.6512  0.2508 -0.0248
  571MOL0    Cl75284   5.977  -0.830   6.381  0.1396 -0.6511  0.0441
  571MOL0     C75285   7.321  -0.654   6.579 -0.5072 -0.6606 -0.1192
  571MOL0     C75286   7.437  -0.566   6.586 -0.0469  0.2882  0.2424
  571MOL0     O75287   7.470  -0.175   6.640 -0.3670 -0.4449 -0.0224
  571MOL0     C75288   7.796  -0.265   6.759  0.1022  0.0546  0.0551
  571MOL0     C75289   7.916  -0.208   6.810 -0.2192  0.2534  0.5500
  571MOL0     N75290   8.422   0.101   7.145  0.5195 -0.0092  0.1133
  571MOL0     N75291   8.536   0.061   7.215  0.0709  0.3426  1.1133
  571MOL0     C75292   9.607   0.453   7.866  0.3829  0.5398  1.2223
  571MOL0     C75293   9.739   0.508   7.863 -0.1868 -0.1743 -1.2011
  571MOL0     C75294  10.167   0.555   7.991  1.9220 -0.2282  0.0052
  571MOL0     C75295  10.211   0.646   8.092  0.2881  0.0797  0.1097
  571MOL0     C75296  10.349   0.668   8.119 -0.6366  0.5499  0.0500
  571MOL0     C75297  10.449   0.606   8.041 -0.3310 -0.0387  0.6287
  571MOL0     O75298  10.577   0.617   8.089 -0.0551 -0.2215 -0.3425
  571MOL0     C75299  10.673   0.629   7.987  0.5596  0.7092 -0.0112
  571MOL0     C75300  10.792   0.706   8.028  0.1420  0.1977  0.6248
  571MOL0     C75301  10.737   0.829   8.103 -0.2290 -1.3300 -0.4940
  571MOL0     C75302  10.845   0.941   8.126  0.4906  1.0425 -0.0868
  571MOL0     C75303  10.875   1.012   8.000 -0.9085 -0.3729  0.2426
  571MOL0     C75304  10.901   1.079   7.901 -1.1071  0.2681 -0.0919
  571MOL0     C75305  10.405   0.525   7.931 -0.0456 -0.1473  0.9844
  571MOL0     C75306  10.270   0.511   7.903 -0.6324 -0.0164 -0.4497
  571MOL0     H75307   9.907   0.218   7.844  2.0981  2.0025 -1.5570
  571MOL0     H75308   9.678   0.116   7.852 -0.5986  0.0768  0.1404
  571MOL0     H75309   9.347   0.405   7.748  0.5910 -2.9413 -1.8294
  571MOL0     H75310   9.309   0.385   7.917  3.3251 -0.6248  1.1719
  571MOL0     H75311   9.206   0.168   7.871 -1.0547 -0.1441 -0.4740
  571MOL0     H75312   9.255   0.165   7.698  2.2446  1.2069 -0.8054
  571MOL0     H75313   9.131   0.366   7.654  0.2957  1.7529  0.4299
  571MOL0     H75314   9.072   0.356   7.830  1.7720 -1.0061  1.0521
  571MOL0     H75315   9.048   0.115   7.644  0.1333  0.4433 -1.2240
  571MOL0     H75316   8.954   0.154   7.788  1.4060 -1.6529 -0.9842
  571MOL0     H75317   8.950   0.253   7.516  0.2008 -4.1876  0.9184
  571MOL0     H75318   8.859   0.350   7.639 -0.5771  0.7327  0.7857
  571MOL0     H75319   8.735   0.163   7.713 -0.2643  3.7026  0.6348
  571MOL0     H75320   8.811   0.057   7.587  0.4219 -0.2123  1.0079
  571MOL0     H75321   8.579   0.135   7.551  3.0515 -3.2310  4.0337
  571MOL0     H75322   8.643   0.303   7.519 -2.2536 -1.1041  1.9363
  571MOL0     H75323   8.731   0.054   7.374  1.4757  1.2611  2.3871
  571MOL0     H75324   8.782   0.216   7.333 -0.6038 -0.5023 -0.7446
  571MOL0     H75325   8.521   0.366   7.307 -3.2406 -1.3153  3.4125
  571MOL0     H75326   8.315   0.367   7.045 -0.1960 -2.5013 -1.4142
  571MOL0     H75327   8.260   0.380   7.213  0.2008  0.6120  0.0366
  571MOL0     H75328   8.081   0.309   7.068 -1.6712 -1.3966 -0.6009
  571MOL0     H75329   8.129   0.185   7.197  0.5228  2.5086  2.3003
  571MOL0     H75330   8.219   0.195   6.902  1.7550 -2.1529 -1.5322
  571MOL0     H75331   8.230   0.051   7.010  1.5833  0.7366  1.0456
  571MOL0     H75332   7.984   0.182   6.884 -0.4490 -0.4244  0.5732
  571MOL0     H75333   7.970   0.070   7.015  1.7938 -3.3488 -0.3093
  571MOL0     H75334   7.820   0.120   6.762  0.6002  0.2837  0.1788
  571MOL0     H75335   7.614   0.027   6.697 -1.5835 -0.7673  0.8764
  571MOL0     H75336   7.314  -0.309   6.755  2.1483  2.0714 -1.8928
  571MOL0     H75337   7.112  -0.447   6.743  0.0731 -0.2142 -0.5387
  571MOL0     H75338   6.943  -0.526   6.533 -3.0860  2.4912  2.9169
  571MOL0     H75339   6.926  -0.555   6.703 -3.3402  1.4833 -1.6265
  571MOL0     H75340   6.848  -0.793   6.653  1.7133  1.9638  0.9831
  571MOL0     H75341   6.889  -0.764   6.489 -2.2985  2.1501 -2.2372
  571MOL0     H75342   6.696  -0.593   6.499  3.7014  4.6719  4.0753
  571MOL0     H75343   6.679  -0.635   6.668  2.3409 -0.6536  0.4080
  571MOL0     H75344   6.642  -0.828   6.420  1.6198 -0.0795  0.9843
  571MOL0     H75345   6.638  -0.890   6.583 -1.4870  1.0783  2.6228
  571MOL0     H75346   6.460  -0.650   6.501  2.0090  1.1648  1.2101
  571MOL0     H75347   6.448  -0.765   6.633  0.3319 -1.3571 -0.7302
  571MOL0     H75348   6.403  -0.932   6.484  2.2070  1.3646  0.6020
  571MOL0     H75349   6.411  -0.832   6.339  3.5701  0.4746  1.0016
  571MOL0     H75350   6.194  -0.877   6.553 -2.5636 -1.1500 -0.8692
  571MOL0     H75351   6.201  -0.713   6.495 -0.3032  0.5857 -3.1375
  571MOL0     H75352   6.154  -0.974   6.314  0.3386 -0.6224  3.0776
  571MOL0     H75353   6.195  -0.818   6.253  2.1799  2.1068  1.7229
  571MOL0     H75354   7.327  -0.755   6.538  0.9364 -1.4849  1.9587
  571MOL0     H75355   7.527  -0.606   6.541 -0.5131  0.4478 -0.8540
  571MOL0     H75356   7.793  -0.374   6.761 -0.2909  0.0729  0.8098
  571MOL0     H75357   8.005  -0.264   6.839  0.1153  1.6064  2.3546
  571MOL0     H75358   9.523   0.521   7.858 -0.1851 -0.2730 -0.1678
  571MOL0     H75359   9.746   0.616   7.872 -1.7458 -0.0917 -0.4796
  571MOL0     H75360  10.135   0.696   8.152  2.1940  1.5800  1.4042
  571MOL0     H75361  10.383   0.738   8.194  0.2149  0.9388 -0.6690
  571MOL0     H75362  10.629   0.669   7.896  0.0246 -1.3849 -0.7475
  571MOL0     H75363  10.703   0.525   7.970  1.1797  0.6260  1.4513
  571MOL0     H75364  10.857   0.640   8.084 -1.1769 -0.5130  1.3653
  571MOL0     H75365  10.837   0.744   7.936  0.8724  0.5858  1.1359
  571MOL0     H75366  10.697   0.799   8.201 -1.7235  1.4310 -0.1555
  571MOL0     H75367  10.647   0.871   8.056 -2.0538 -3.6203  0.6897
  571MOL0     H75368  10.808   1.002   8.209  0.3957  0.9883 -0.0903
  571MOL0     H75369  10.939   0.906   8.170  0.5556  0.4784 -0.6599
  571MOL0     H75370  10.946   1.130   7.818  0.4912  1.1085  1.2423
  571MOL0     H75371  10.474   0.481   7.860 -2.8056  2.7039 -3.9632
  571MOL0     H75372  10.238   0.452   7.818 -0.0299 -0.9047 -0.0769
  572MOL0     O75373   9.666   7.380   4.219  0.7163 -0.8600  0.2378
  572MOL0     C75374   9.579   7.385   4.127 -1.3615  0.8612 -1.0507
  572MOL0     O75375   9.601   7.413   3.994 -0.5587 -0.6398  0.1412
  572MOL0     C75376   9.736   7.413   3.954 -0.4648 -1.2454 -0.2996
  572MOL0     C75377   9.821   7.514   3.991 -0.2974 -0.8985  0.0374
  572MOL0     C75378   9.948   7.521   3.947  0.1384  0.2860 -0.3470
  572MOL0     C75379   9.994   7.418   3.850  0.2590 -0.0237 -0.9904
  572MOL0     O75380  10.107   7.416   3.782 -0.4954  0.0428  0.2174
  572MOL0     C75381  10.209   7.502   3.836 -0.0796  0.0142  0.3121
  572MOL0     C75382  10.340   7.499   3.755  0.5830  0.4058 -0.4150
  572MOL0     C75383  10.418   7.624   3.790  0.2758 -0.2626  0.5849
  572MOL0     C75384  10.560   7.601   3.728 -0.0430  0.5136 -0.0440
  572MOL0     C75385  10.663   7.706   3.761  0.0301  0.4712  0.4212
  572MOL0     C75386  10.800   7.652   3.724 -0.1357 -0.0932  0.0364
  572MOL0     C75387  10.904   7.760   3.759 -0.0887 -0.2510 -0.2123
  572MOL0     C75388  11.040   7.714   3.688 -0.4715 -0.3539  0.3736
  572MOL0     N75389  11.148   7.813   3.710  0.0490  0.2231  0.2864
  572MOL0     C75390  11.127   7.950   3.705 -0.7429 -0.4928  0.3871
  572MOL0     C75391  11.198   7.993   3.809  0.0791  0.2388  0.4297
  572MOL0     C75392  11.182   8.133   3.865  0.2478 -0.1471 -0.1327
  572MOL0     C75393  11.033   8.164   3.902 -1.1716 -0.7059  0.7341
  572MOL0     C75394  10.978   8.059   4.001  0.4284 -0.8417  0.2173
  572MOL0     C75395  10.824   8.083   4.035  0.5465  0.9351 -0.9069
  572MOL0     O75396  10.755   7.977   3.962  0.4595  0.0995 -0.1033
  572MOL0     C75397  10.623   7.968   3.975  0.4866 -0.5599 -0.4194
  572MOL0     C75398  10.585   7.880   4.077 -0.2634 -0.2548  0.4939
  572MOL0     C75399  10.445   7.857   4.098  0.6110  0.6579 -0.2715
  572MOL0     C75400  10.348   7.915   4.014  0.5679 -0.8941 -0.3504
  572MOL0     C75401  10.208   7.871   4.032  0.2582 -0.6522 -0.2883
  572MOL0     O75402  10.112   7.966   4.009  0.0496 -0.4891  0.4320
  572MOL0     C75403   9.979   7.924   4.032  0.2049  0.3745  0.6016
  572MOL0     C75404   9.879   7.900   3.936 -0.1939  0.5427  0.0687
  572MOL0     C75405   9.750   7.872   3.967  0.5064 -0.5560  0.5208
  572MOL0     C75406   9.700   7.887   4.104 -0.9819  0.8093 -0.0099
  572MOL0     O75407   9.571   7.894   4.151  0.0608  0.0507 -0.6482
  572MOL0     C75408   9.467   7.853   4.072  0.9100  0.2834  0.0394
  572MOL0     C75409   9.353   7.807   4.167 -0.8216 -0.0733 -0.1983
  572MOL0     C75410   9.315   7.923   4.262  0.5061  0.1747 -0.1044
  572MOL0     C75411   9.189   7.874   4.336  0.0472  0.5443 -0.1744
  572MOL0     C75412   9.143   7.972   4.445 -0.1645 -0.0920  0.4639
  572MOL0     C75413   9.018   7.927   4.510  0.1857 -0.1919 -0.5527
  572MOL0     C75414   8.941   8.039   4.578  0.4138 -0.3486  0.2635
  572MOL0     C75415   9.017   8.103   4.694 -0.2506  0.5155  0.0995
  572MOL0    Cl75416   8.924   8.249   4.748  0.0005  0.2254  0.0116
  572MOL0     C75417   9.803   7.915   4.195 -0.9987 -0.3396 -0.1086
  572MOL0     C75418   9.938   7.922   4.162  0.0683  0.1113  0.3695
  572MOL0     O75419  10.187   7.751   4.059 -0.0641 -0.5610 -0.1092
  572MOL0     C75420  10.391   7.999   3.909 -1.1802  0.0477  0.7850
  572MOL0     C75421  10.527   8.029   3.892  0.2767  0.0573 -0.3272
  572MOL0     N75422  11.283   7.902   3.870  0.6496  0.3405  0.5798
  572MOL0     N75423  11.253   7.790   3.805  0.2555 -0.3177 -0.0606
  572MOL0     C75424   9.909   7.309   3.824 -0.4239  0.1414  0.7912
  572MOL0     C75425   9.777   7.307   3.875  0.0947  1.2432  0.6878
  572MOL0     C75426   9.443   7.389   4.174  0.0208  0.4487 -0.4494
  572MOL0     C75427   9.421   7.396   4.311  0.4605 -0.6957 -0.0898
  572MOL0     C75428   9.294   7.411   4.367 -0.2961 -0.1419 -0.6095
  572MOL0     C75429   9.190   7.404   4.282  0.0695 -0.1651  0.1826
  572MOL0     O75430   9.065   7.399   4.341  0.3085 -0.4565 -0.6114
  572MOL0     C75431   8.941   7.399   4.263 -0.4058  0.3287 -0.0653
  572MOL0     C75432   8.916   7.255   4.227 -0.1257 -1.2794  0.3557
  572MOL0     C75433   8.792   7.258   4.138  0.0704 -0.3148  0.6707
  572MOL0     C75434   8.656   7.261   4.208  0.6880 -0.0782 -0.3868
  572MOL0     C75435   8.547   7.199   4.132  0.3605 -0.3170 -0.6701
  572MOL0     C75436   8.457   7.130   4.091  0.2686  0.3013 -0.0047
  572MOL0     C75437   9.204   7.399   4.143  0.0091  0.0503  0.3004
  572MOL0     C75438   9.335   7.391   4.090 -0.5253 -0.6867  0.3922
  572MOL0     H75439   9.774   7.594   4.046 -0.3039 -0.9248  0.0700
  572MOL0     H75440  10.006   7.608   3.974 -1.2971  1.3483 -0.5543
  572MOL0     H75441  10.228   7.496   3.943  0.2459  0.8087  0.3083
  572MOL0     H75442  10.171   7.602   3.812 -2.7731 -1.8139 -4.4139
  572MOL0     H75443  10.324   7.503   3.647  1.1467  2.0268 -0.4591
  572MOL0     H75444  10.395   7.413   3.793  0.6429  1.2387  1.4576
  572MOL0     H75445  10.433   7.640   3.898 -0.0890  1.0426  0.4613
  572MOL0     H75446  10.374   7.715   3.750 -0.2676  0.7614  3.2614
  572MOL0     H75447  10.589   7.505   3.772  0.6915  0.0593 -1.4510
  572MOL0     H75448  10.552   7.592   3.619  3.3155 -1.9541 -0.2627
  572MOL0     H75449  10.661   7.724   3.869  0.6247  1.6560  0.2498
  572MOL0     H75450  10.639   7.795   3.702  1.2861 -0.7802 -2.1170
  572MOL0     H75451  10.791   7.639   3.616  1.0253  1.2656 -0.2432
  572MOL0     H75452  10.816   7.556   3.774 -0.6144  0.1228  0.6059
  572MOL0     H75453  10.872   7.861   3.733  0.2391 -0.4050 -1.2610
  572MOL0     H75454  10.921   7.744   3.866  0.1499  0.3569 -0.1543
  572MOL0     H75455  11.021   7.710   3.580 -4.5249 -0.6517  0.9324
  572MOL0     H75456  11.061   7.612   3.723  1.8894  0.2405  0.8352
  572MOL0     H75457  11.047   8.006   3.656  0.7933  1.8496  0.4281
  572MOL0     H75458  11.225   8.220   3.815 -0.9267  0.4754 -0.0990
  572MOL0     H75459  11.231   8.115   3.961  0.6933 -0.0519 -0.3408
  572MOL0     H75460  10.978   8.164   3.807  0.2790  2.0579 -0.2206
  572MOL0     H75461  11.036   8.262   3.951  1.0457  1.2038 -2.7975
  572MOL0     H75462  10.988   7.953   3.974 -0.3482 -0.9948  0.5001
  572MOL0     H75463  11.027   8.081   4.096 -2.7729  3.4533  1.1596
  572MOL0     H75464  10.802   8.180   3.989  1.7663  1.8540  0.3859
  572MOL0     H75465  10.794   8.085   4.140  1.3147 -1.4701 -0.5772
  572MOL0     H75466  10.660   7.838   4.143 -0.6237 -0.6010  0.6872
  572MOL0     H75467  10.413   7.789   4.176 -2.1555  2.3446  0.2257
  572MOL0     H75468   9.910   7.910   3.832  0.3442 -0.8376  0.0728
  572MOL0     H75469   9.686   7.846   3.883  1.1151  0.4607 -0.2832
  572MOL0     H75470   9.492   7.772   4.003  0.4994  0.8829 -0.8302
  572MOL0     H75471   9.444   7.939   4.008 -0.2444 -0.5278 -0.6618
  572MOL0     H75472   9.382   7.727   4.235  3.9814  1.6821  0.2397
  572MOL0     H75473   9.274   7.771   4.101  0.8231 -3.9993 -0.2808
  572MOL0     H75474   9.303   8.017   4.208 -1.8648  0.1171  0.2054
  572MOL0     H75475   9.393   7.926   4.339  0.2913 -1.5620  0.2254
  572MOL0     H75476   9.111   7.860   4.261 -0.1779  0.5914  0.0496
  572MOL0     H75477   9.209   7.775   4.379  1.1367  0.3332 -1.1174
  572MOL0     H75478   9.129   8.070   4.397  2.9716  0.4529  0.4671
  572MOL0     H75479   9.216   7.996   4.522 -0.8223  0.9035  0.7963
  572MOL0     H75480   9.033   7.844   4.580 -3.4008 -0.1398  0.4944
  572MOL0     H75481   8.955   7.892   4.428  0.1654  1.1200 -1.1119
  572MOL0     H75482   8.923   8.116   4.502 -0.1666 -0.3221  0.4267
  572MOL0     H75483   8.842   8.005   4.610  0.1921  1.9283  2.3602
  572MOL0     H75484   9.115   8.138   4.660 -0.1435 -0.2300 -0.3749
  572MOL0     H75485   9.027   8.034   4.778 -0.1191 -0.6542 -0.8563
  572MOL0     H75486   9.781   7.940   4.299  1.5337 -2.0699  0.9291
  572MOL0     H75487  10.018   7.937   4.234  0.9087 -2.3539  0.0281
  572MOL0     H75488  10.309   8.030   3.844  1.1735  0.5997 -2.1550
  572MOL0     H75489  10.550   8.111   3.824 -0.5720 -0.4015 -1.1921
  572MOL0     H75490   9.953   7.231   3.763  0.2269 -0.2921  1.7910
  572MOL0     H75491   9.711   7.223   3.857  0.0364  0.8189  2.5743
  572MOL0     H75492   9.510   7.406   4.372  1.2368 -2.7453 -0.8015
  572MOL0     H75493   9.286   7.407   4.475 -0.0118  1.4607 -0.4979
  572MOL0     H75494   8.956   7.474   4.185  3.3054 -0.3102 -0.1641
  572MOL0     H75495   8.864   7.439   4.329  0.5924 -0.7630  1.8420
  572MOL0     H75496   9.001   7.219   4.168  1.8494  2.8849  0.2652
  572MOL0     H75497   8.895   7.197   4.317 -0.1750 -2.8258 -0.6308
  572MOL0     H75498   8.801   7.183   4.059 -0.9792  1.8592 -1.6204
  572MOL0     H75499   8.797   7.355   4.089  1.3667 -1.2393 -1.1535
  572MOL0     H75500   8.671   7.214   4.306  0.4804  3.1094  1.2953
  572MOL0     H75501   8.625   7.362   4.235 -3.1908 -1.0796 -0.5793
  572MOL0     H75502   8.373   7.069   4.061 -0.2370  0.5824  0.8030
  572MOL0     H75503   9.125   7.379   4.071 -0.1784 -0.4257  0.6350
  572MOL0     H75504   9.355   7.365   3.986  1.1715 -2.3446  1.0769
  573MOL0     O75505   7.587   1.629   1.491  0.0608  0.1128 -0.1984
  573MOL0     C75506   7.628   1.644   1.376  0.6810  1.0540  0.5083
  573MOL0     O75507   7.550   1.687   1.268 -0.4293  0.6064 -0.0042
  573MOL0     C75508   7.419   1.713   1.296 -0.2951  0.0009  0.0980
  573MOL0     C75509   7.321   1.629   1.241 -0.3751  0.0281  0.8588
  573MOL0     C75510   7.186   1.661   1.239 -1.0398 -0.3344 -0.0923
  573MOL0     C75511   7.141   1.767   1.316 -0.1204 -0.4918  0.7467
  573MOL0     O75512   7.009   1.797   1.311  0.0289 -0.0521 -0.1816
  573MOL0     C75513   6.966   1.931   1.308 -0.0799 -0.4199 -0.8644
  573MOL0     C75514   6.821   1.952   1.268 -0.4373 -1.2684  0.4700
  573MOL0     C75515   6.808   2.090   1.194 -0.1656 -0.5639  0.2134
  573MOL0     C75516   6.659   2.144   1.161  0.2509  0.2599 -0.4863
  573MOL0     C75517   6.585   2.074   1.051  0.0867 -0.2600  0.7322
  573MOL0     C75518   6.507   1.954   1.102  0.7235 -0.1593 -0.5122
  573MOL0     C75519   6.353   1.967   1.077  0.3509  0.2340  0.0605
  573MOL0     C75520   6.274   1.874   1.172 -0.5150 -1.0958 -0.5400
  573MOL0     N75521   6.136   1.903   1.153  0.6605 -0.5674  0.3747
  573MOL0     C75522   6.046   1.855   1.059 -0.1859 -0.0105  0.0931
  573MOL0     C75523   5.936   1.931   1.076  0.3775  0.5184 -0.0230
  573MOL0     C75524   5.791   1.892   1.029 -0.7138  0.5432  0.1555
  573MOL0     C75525   5.732   1.764   1.114 -0.6635  0.5043 -0.0978
  573MOL0     C75526   5.600   1.713   1.040 -0.4147  0.2561  0.9525
  573MOL0     C75527   5.497   1.825   1.002 -0.4632  0.1243  0.4199
  573MOL0     O75528   5.538   1.883   0.877  0.2551 -0.3662 -0.7746
  573MOL0     C75529   5.445   1.972   0.811 -0.0880 -0.9427 -1.0104
  573MOL0     C75530   5.498   2.035   0.700 -0.1146 -0.5301 -0.8162
  573MOL0     C75531   5.421   2.106   0.609  0.2685  0.3337 -0.2735
  573MOL0     C75532   5.282   2.123   0.632  0.5682  0.1929 -0.7275
  573MOL0     C75533   5.206   2.202   0.529 -0.3935 -0.0409 -0.7695
  573MOL0     O75534   5.078   2.182   0.551 -0.5938  0.4094 -0.3102
  573MOL0     C75535   4.983   2.208   0.462  0.0566 -0.6019 -0.0080
  573MOL0     C75536   4.902   2.101   0.430 -0.1478  0.4477 -0.6460
  573MOL0     C75537   4.801   2.115   0.338 -0.3646 -0.6740 -0.2443
  573MOL0     C75538   4.785   2.229   0.266  0.4471 -0.0815 -0.5456
  573MOL0     O75539   4.671   2.237   0.186  0.4397 -0.2502  0.3007
  573MOL0     C75540   4.682   2.265   0.046  0.1144  0.3659 -0.8720
  573MOL0     C75541   4.585   2.178  -0.033 -0.3837  0.5636  0.3109
  573MOL0     C75542   4.616   2.028  -0.027  0.1486  0.5668 -0.1813
  573MOL0     C75543   4.540   1.940  -0.130 -0.5875 -0.4459 -0.4641
  573MOL0     C75544   4.396   1.927  -0.092 -0.0799  1.1986 -0.6077
  573MOL0     C75545   4.328   1.806  -0.170  0.5951 -0.0158 -0.3661
  573MOL0     C75546   4.185   1.769  -0.125 -0.2879 -0.1039  0.0692
  573MOL0     C75547   4.139   1.634  -0.185  0.6595  0.2588 -0.0230
  573MOL0    Cl75548   4.119   1.641  -0.363 -0.2314  0.1412 -0.2461
  573MOL0     C75549   4.862   2.337   0.296  0.3135  0.4008  0.2943
  573MOL0     C75550   4.963   2.326   0.392 -0.7620  0.5282 -0.4034
  573MOL0     O75551   5.257   2.279   0.443  0.2634 -0.0267 -0.8211
  573MOL0     C75552   5.222   2.079   0.751  0.8738 -0.1429 -0.4156
  573MOL0     C75553   5.306   2.000   0.836 -0.3112 -0.2098  0.8926
  573MOL0     N75554   5.962   2.024   1.175  0.4854 -0.3731 -0.3141
  573MOL0     N75555   6.087   2.009   1.217  0.2431 -0.2344  0.2205
  573MOL0     C75556   7.234   1.847   1.380  0.7406  0.0689 -0.7611
  573MOL0     C75557   7.372   1.826   1.369  0.6631  0.4297  0.1402
  573MOL0     C75558   7.777   1.613   1.343  0.8906 -0.8633 -0.1827
  573MOL0     C75559   7.813   1.595   1.212  0.3849 -0.0292 -0.7667
  573MOL0     C75560   7.944   1.561   1.181 -0.3800  0.6866 -0.2375
  573MOL0     C75561   8.045   1.546   1.284  0.6909 -0.6157  0.3086
  573MOL0     O75562   8.168   1.528   1.238 -1.0191  0.3103 -1.1738
  573MOL0     C75563   8.247   1.421   1.292 -0.2462 -0.8120  0.6794
  573MOL0     C75564   8.370   1.384   1.203  0.7382  0.7715 -0.3442
  573MOL0     C75565   8.469   1.300   1.269  0.7643  0.6234 -0.2900
  573MOL0     C75566   8.593   1.289   1.176  0.8662  0.7369 -0.7031
  573MOL0     C75567   8.691   1.397   1.187 -0.5620  0.0708 -0.5577
  573MOL0     C75568   8.777   1.480   1.185 -1.0966 -0.3998  0.8096
  573MOL0     C75569   8.006   1.575   1.426 -1.1519 -0.1822 -0.6508
  573MOL0     C75570   7.874   1.610   1.450 -0.4561 -0.0739  0.3201
  573MOL0     H75571   7.372   1.548   1.189 -0.1198  2.3678 -2.9036
  573MOL0     H75572   7.110   1.614   1.176 -0.5462  0.6816 -1.4980
  573MOL0     H75573   7.028   1.983   1.234 -1.8804  0.8507 -1.5566
  573MOL0     H75574   6.988   1.974   1.406  0.9882  2.8958 -2.3948
  573MOL0     H75575   6.760   1.950   1.359 -0.0545 -0.5511  0.7511
  573MOL0     H75576   6.795   1.875   1.194 -0.0912  2.2352 -3.6692
  573MOL0     H75577   6.869   2.093   1.103  1.0915  1.0026  1.0574
  573MOL0     H75578   6.858   2.164   1.257 -0.7022 -0.8048  0.9317
  573MOL0     H75579   6.591   2.147   1.246  0.5863 -2.0413 -0.0581
  573MOL0     H75580   6.676   2.246   1.125  1.5741  0.3708  0.3701
  573MOL0     H75581   6.647   2.039   0.967 -1.8335 -0.8282 -0.5108
  573MOL0     H75582   6.517   2.147   1.006  1.0257  0.8051  0.9952
  573MOL0     H75583   6.521   1.939   1.210 -0.9669 -0.3885 -0.2879
  573MOL0     H75584   6.534   1.859   1.056 -0.2468 -2.0312  2.5253
  573MOL0     H75585   6.315   2.067   1.103  2.2830  0.9639  0.2279
  573MOL0     H75586   6.332   1.948   0.971 -0.6937 -0.7335  0.4232
  573MOL0     H75587   6.314   1.897   1.272 -0.6034  0.2949 -0.8153
  573MOL0     H75588   6.303   1.770   1.152  0.6436 -0.4044 -2.8138
  573MOL0     H75589   6.063   1.775   0.989 -0.8172 -0.8067  0.8296
  573MOL0     H75590   5.792   1.862   0.924  0.0341  3.0866 -0.6386
  573MOL0     H75591   5.723   1.977   1.043  0.9928  1.9670  0.1738
  573MOL0     H75592   5.717   1.802   1.215 -1.4980  0.9520 -0.3813
  573MOL0     H75593   5.801   1.679   1.113 -0.8290  0.2977  1.8989
  573MOL0     H75594   5.634   1.658   0.951 -1.8474  0.5861  0.1668
  573MOL0     H75595   5.568   1.622   1.092 -0.6495 -0.0515  0.2871
  573MOL0     H75596   5.500   1.904   1.077 -0.5728 -0.9207  1.5412
  573MOL0     H75597   5.397   1.782   0.993 -0.9234  1.4686 -1.8858
  573MOL0     H75598   5.601   2.029   0.666  0.5242  3.2501  0.0150
  573MOL0     H75599   5.455   2.149   0.516 -2.3622  3.9190  0.1786
  573MOL0     H75600   4.914   2.003   0.474  3.5319  0.7877 -0.5972
  573MOL0     H75601   4.734   2.036   0.305  0.9231 -1.5120 -0.9519
  573MOL0     H75602   4.788   2.251   0.020 -0.2451 -1.2168 -1.6240
  573MOL0     H75603   4.647   2.362   0.012 -3.0350 -1.0135 -1.9891
  573MOL0     H75604   4.582   2.203  -0.139 -1.6477 -2.5257 -0.4770
  573MOL0     H75605   4.490   2.208   0.011 -0.6891  2.2356 -1.3713
  573MOL0     H75606   4.589   1.992   0.073  1.9118 -1.6077 -0.4160
  573MOL0     H75607   4.724   2.016  -0.030  0.3844  1.5500  2.4402
  573MOL0     H75608   4.556   1.974  -0.233  1.8388  1.1505  0.3484
  573MOL0     H75609   4.597   1.847  -0.124 -0.0488 -0.1812 -1.2904
  573MOL0     H75610   4.345   2.022  -0.113 -0.2393  1.1936 -0.2452
  573MOL0     H75611   4.398   1.901   0.014  1.4629 -0.7772 -1.0632
  573MOL0     H75612   4.399   1.723  -0.158  0.7892 -0.0788 -1.8189
  573MOL0     H75613   4.319   1.836  -0.275 -2.5120  0.7334  0.0162
  573MOL0     H75614   4.189   1.739  -0.020 -0.3978 -2.5870 -0.5637
  573MOL0     H75615   4.107   1.843  -0.144 -2.6744 -2.7380 -1.1807
  573MOL0     H75616   4.046   1.604  -0.135  1.5320  1.8192  2.7650
  573MOL0     H75617   4.215   1.558  -0.167  1.8735  1.3273 -0.5415
  573MOL0     H75618   4.857   2.425   0.234 -0.4873 -1.9216 -3.2176
  573MOL0     H75619   5.025   2.410   0.421  1.8715 -1.8763  1.5261
  573MOL0     H75620   5.119   2.096   0.779  0.9659 -0.1237 -0.0871
  573MOL0     H75621   5.247   1.962   0.918 -1.7416  1.0895  0.5210
  573MOL0     H75622   7.195   1.922   1.448  0.4728  0.3305 -1.2044
  573MOL0     H75623   7.448   1.893   1.408  1.9867 -0.5702 -0.6137
  573MOL0     H75624   7.735   1.593   1.136  0.1359  1.1414 -0.5595
  573MOL0     H75625   7.990   1.549   1.083  2.3109  3.3480  0.5235
  573MOL0     H75626   8.187   1.330   1.301  0.7798 -1.8995 -2.2298
  573MOL0     H75627   8.286   1.460   1.387 -4.5799 -0.2290  2.4583
  573MOL0     H75628   8.324   1.341   1.114  2.1616 -0.3624 -0.5795
  573MOL0     H75629   8.419   1.476   1.170  1.1960  0.2942 -1.0139
  573MOL0     H75630   8.421   1.207   1.301 -4.2889  3.3181  1.1023
  573MOL0     H75631   8.493   1.351   1.363 -1.6257  2.1950 -0.4452
  573MOL0     H75632   8.647   1.201   1.214 -2.1049 -2.0973 -2.5065
  573MOL0     H75633   8.559   1.278   1.073 -0.1128  0.4876 -0.3678
  573MOL0     H75634   8.840   1.564   1.202 -1.6943  0.5882 -1.4729
  573MOL0     H75635   8.088   1.569   1.497 -1.3632 -0.1646 -0.4050
  573MOL0     H75636   7.843   1.623   1.553  0.9947  0.6521  0.7042
  574MOL0     O75637   8.844   1.495  10.895 -0.3324 -0.0095 -0.3087
  574MOL0     C75638   8.846   1.566  10.999 -0.0893  0.5343 -0.1026
  574MOL0     O75639   8.774   1.557  11.113  0.4482  0.2272  0.2874
  574MOL0     C75640   8.653   1.499  11.098 -0.0226 -0.3167  0.5486
  574MOL0     C75641   8.566   1.521  10.985 -0.0103  0.0360  0.3806
  574MOL0     C75642   8.429   1.483  10.985  0.4299  0.3823 -0.3504
  574MOL0     C75643   8.383   1.434  11.099  0.3308 -0.1476 -0.2127
  574MOL0     O75644   8.251   1.405  11.116  0.3872 -0.4681 -0.2070
  574MOL0     C75645   8.196   1.308  11.025  0.2081  0.1756 -0.6412
  574MOL0     C75646   8.049   1.275  11.069 -0.3491 -0.6354  0.8952
  574MOL0     C75647   7.993   1.150  11.007 -0.2858 -0.0388  0.4124
  574MOL0     C75648   7.861   1.109  11.074  0.5793  0.4819  0.8773
  574MOL0     C75649   7.742   1.183  11.019 -0.1962 -0.0130  0.0464
  574MOL0     C75650   7.616   1.137  11.095 -0.2850  0.5303  0.5996
  574MOL0     C75651   7.489   1.197  11.039  0.6500 -0.5355  0.2156
  574MOL0     C75652   7.379   1.182  11.146 -1.7023  0.2296  0.5053
  574MOL0     N75653   7.252   1.234  11.106 -0.2764  0.5314 -1.0990
  574MOL0     C75654   7.166   1.174  11.024 -0.3958 -0.5681 -1.0317
  574MOL0     C75655   7.066   1.258  11.001 -0.6232  0.7168 -0.1963
  574MOL0     C75656   6.957   1.238  10.891 -0.0351 -0.3183 -0.1576
  574MOL0     C75657   7.006   1.292  10.758  0.6592  0.2282  0.0859
  574MOL0     C75658   6.934   1.227  10.634 -0.1335 -0.1834 -1.1369
  574MOL0     C75659   6.788   1.263  10.640  0.6477  0.0290 -0.2970
  574MOL0     O75660   6.743   1.220  10.508 -0.1831 -0.3185  0.0340
  574MOL0     C75661   6.619   1.248  10.462 -0.2011  0.8852  0.1853
  574MOL0     C75662   6.525   1.321  10.540 -0.3516  0.3529  1.0629
  574MOL0     C75663   6.402   1.346  10.487  0.2800  0.6208  0.1136
  574MOL0     C75664   6.367   1.312  10.355  0.3964  0.0473 -0.2353
  574MOL0     C75665   6.234   1.340  10.296  0.0689 -0.5900 -0.4734
  574MOL0     O75666   6.142   1.435  10.353 -0.3934  0.4852  0.9499
  574MOL0     C75667   6.012   1.448  10.314  0.0489 -0.3226 -0.1306
  574MOL0     C75668   5.963   1.431  10.184 -0.7247 -0.6452 -0.7096
  574MOL0     C75669   5.829   1.434  10.157 -0.5393 -0.2336 -0.2663
  574MOL0     C75670   5.739   1.476  10.255  0.4411 -0.3978  1.1732
  574MOL0     O75671   5.602   1.480  10.234 -0.2383  0.3527  0.5431
  574MOL0     C75672   5.552   1.394  10.132  0.5550  0.2600  0.1553
  574MOL0     C75673   5.404   1.386  10.109  0.1266 -0.5207 -0.7742
  574MOL0     C75674   5.336   1.504  10.038 -0.1504  0.5030  0.7006
  574MOL0     C75675   5.387   1.646  10.072 -0.3767  0.3309  0.4862
  574MOL0     C75676   5.485   1.704   9.962  0.9219  0.0544  0.8112
  574MOL0     C75677   5.531   1.850  10.006 -0.2472  0.0892 -0.5193
  574MOL0     C75678   5.630   1.918   9.912  0.5916  0.2457  0.7064
  574MOL0     C75679   5.751   1.825   9.857 -0.0871 -0.7319 -0.4415
  574MOL0    Cl75680   5.812   1.736  10.000  0.0992 -0.0608  0.0148
  574MOL0     C75681   5.793   1.502  10.382  0.0106  0.3281 -0.9962
  574MOL0     C75682   5.924   1.499  10.412 -1.2561  0.0263 -0.2012
  574MOL0     O75683   6.201   1.267  10.206  0.9972 -0.2318  0.5101
  574MOL0     C75684   6.461   1.242  10.276 -0.5049  0.0023 -0.3399
  574MOL0     C75685   6.586   1.209  10.332 -0.6372 -0.9194 -0.6850
  574MOL0     N75686   7.089   1.364  11.086 -0.3174  0.0257 -0.4641
  574MOL0     N75687   7.203   1.349  11.144 -0.2400  0.0838 -0.5909
  574MOL0     C75688   8.455   1.409  11.210 -0.9639 -0.0644  0.1782
  574MOL0     C75689   8.595   1.443  11.216 -0.0764  0.6538  1.1537
  574MOL0     C75690   8.972   1.647  11.004  0.3669  0.6529 -0.5298
  574MOL0     C75691   9.069   1.648  10.907 -0.3390  0.3320  0.1084
  574MOL0     C75692   9.184   1.721  10.916 -0.3136  0.2989 -0.3149
  574MOL0     C75693   9.218   1.799  11.028  1.0515 -0.0563  0.1826
  574MOL0     O75694   9.347   1.847  11.019 -0.0305 -0.0427 -0.2644
  574MOL0     C75695   9.392   1.903  11.139  0.5304  0.1018  0.4720
  574MOL0     C75696   9.537   1.973  11.131  0.2750 -0.8968  0.3567
  574MOL0     C75697   9.654   1.889  11.070  0.9965  0.3832 -1.2597
  574MOL0     C75698   9.743   1.845  11.179  0.1677  0.3233 -0.3596
  574MOL0     C75699   9.677   1.781  11.289  0.1681 -0.8603  0.6787
  574MOL0     C75700   9.630   1.721  11.387 -0.4478  0.4070 -0.2287
  574MOL0     C75701   9.126   1.789  11.129 -0.4662  0.8104 -0.1569
  574MOL0     C75702   9.009   1.718  11.120 -0.2660 -0.6821  0.2914
  574MOL0     H75703   8.598   1.564  10.890 -2.2635 -2.2162 -1.5578
  574MOL0     H75704   8.361   1.493  10.901 -0.0853  0.0217  0.0190
  574MOL0     H75705   8.264   1.223  11.035  2.5919  2.0670  0.2651
  574MOL0     H75706   8.196   1.342  10.922  1.6383  1.8389 -0.1454
  574MOL0     H75707   7.986   1.362  11.050 -0.9170 -0.7962  1.9352
  574MOL0     H75708   8.052   1.255  11.177 -1.4342 -2.4539  0.6302
  574MOL0     H75709   8.063   1.067  11.026 -0.9490 -0.8509 -0.5816
  574MOL0     H75710   7.986   1.163  10.898  3.5485 -2.3916 -0.3513
  574MOL0     H75711   7.841   1.002  11.063 -0.2398  0.4898  2.1124
  574MOL0     H75712   7.863   1.130  11.182 -1.2773  0.3615  0.9655
  574MOL0     H75713   7.739   1.166  10.911  1.0667  0.6962 -0.1220
  574MOL0     H75714   7.752   1.290  11.037  1.7757 -0.0950 -0.3003
  574MOL0     H75715   7.623   1.162  11.202 -0.0313 -1.6020  1.1301
  574MOL0     H75716   7.608   1.029  11.077 -1.8569  1.1054 -3.0894
  574MOL0     H75717   7.506   1.303  11.018 -1.0047  0.0895  1.8141
  574MOL0     H75718   7.464   1.155  10.941  1.8876  1.9139 -1.2827
  574MOL0     H75719   7.414   1.239  11.232 -1.4700  2.6634 -1.1076
  574MOL0     H75720   7.372   1.076  11.171 -2.2460 -0.5048 -2.3600
  574MOL0     H75721   7.179   1.076  10.978 -1.1540 -1.9331  1.4947
  574MOL0     H75722   6.875   1.302  10.926  1.2261  1.0379  0.4350
  574MOL0     H75723   6.924   1.136  10.872 -1.8145  0.5656 -2.1558
  574MOL0     H75724   7.113   1.268  10.759  0.4037 -1.1536  2.4548
  574MOL0     H75725   6.995   1.400  10.752  1.7531  0.2802 -2.4284
  574MOL0     H75726   6.980   1.272  10.546 -1.7661  1.1513 -1.3782
  574MOL0     H75727   6.952   1.119  10.635  0.8665 -0.0250  0.0941
  574MOL0     H75728   6.784   1.368  10.669 -0.8324 -0.0266 -0.2015
  574MOL0     H75729   6.736   1.206  10.719  2.1903 -0.0180  0.7273
  574MOL0     H75730   6.530   1.337  10.647 -1.1560  2.3668  0.8465
  574MOL0     H75731   6.337   1.396  10.559  1.4544  0.5314  1.2753
  574MOL0     H75732   6.039   1.425  10.106 -2.8850  0.3853 -3.0137
  574MOL0     H75733   5.806   1.425  10.051  1.7386 -1.0661 -0.7491
  574MOL0     H75734   5.582   1.291  10.152  1.4350 -0.1137 -2.6529
  574MOL0     H75735   5.605   1.429  10.043  0.1933 -0.4409 -0.3439
  574MOL0     H75736   5.377   1.387  10.214 -1.6416  0.8484 -1.1939
  574MOL0     H75737   5.378   1.293  10.058 -0.8405 -0.5670 -0.2105
  574MOL0     H75738   5.232   1.504  10.072  0.2177  1.0977  1.8676
  574MOL0     H75739   5.331   1.501   9.929 -0.1806  1.2279  0.6811
  574MOL0     H75740   5.293   1.701  10.076 -0.8760 -0.5692  1.5955
  574MOL0     H75741   5.428   1.650  10.173 -1.3714 -2.1040  1.0618
  574MOL0     H75742   5.439   1.696   9.863 -1.7178 -2.1670  2.0960
  574MOL0     H75743   5.574   1.642   9.971  2.5350  2.3321  1.4295
  574MOL0     H75744   5.579   1.840  10.104 -1.0574 -1.2137 -0.2314
  574MOL0     H75745   5.438   1.906  10.020 -1.8142 -2.3926 -0.3510
  574MOL0     H75746   5.561   1.947   9.832 -1.0276  1.1095  2.3377
  574MOL0     H75747   5.662   2.010   9.963  1.3741 -0.4981  1.5990
  574MOL0     H75748   5.826   1.889   9.811 -0.3463  0.6713  0.9841
  574MOL0     H75749   5.711   1.751   9.786 -0.9350 -0.9326  0.2257
  574MOL0     H75750   5.728   1.532  10.463  0.7442  1.9229 -0.9678
  574MOL0     H75751   5.961   1.528  10.510 -1.3597  1.3951 -0.5493
  574MOL0     H75752   6.436   1.207  10.176 -3.6456  1.7799 -0.2980
  574MOL0     H75753   6.659   1.157  10.270  1.0925  2.8080 -2.0557
  574MOL0     H75754   8.403   1.363  11.293 -1.1851 -0.9881 -0.4656
  574MOL0     H75755   8.658   1.412  11.299 -1.6683 -1.3693  1.7126
  574MOL0     H75756   9.065   1.588  10.817 -0.3103 -0.0390  0.3522
  574MOL0     H75757   9.252   1.715  10.832 -2.3373  1.0214 -2.1003
  574MOL0     H75758   9.408   1.821  11.209  1.6173 -0.4724 -0.4033
  574MOL0     H75759   9.318   1.975  11.174  0.5159 -0.7321  2.2395
  574MOL0     H75760   9.527   2.057  11.062  1.0310 -1.3649 -0.3417
  574MOL0     H75761   9.559   2.011  11.232 -0.8365 -0.1000  0.3206
  574MOL0     H75762   9.719   1.947  11.004  0.6509  0.4941 -1.5047
  574MOL0     H75763   9.609   1.799  11.027  0.9636 -0.5317  0.5633
  574MOL0     H75764   9.819   1.775  11.144  0.0628 -0.4869  0.9519
  574MOL0     H75765   9.795   1.933  11.218  1.6582 -0.4288 -0.5823
  574MOL0     H75766   9.591   1.656  11.463 -1.6738 -1.8832 -2.6288
  574MOL0     H75767   9.137   1.856  11.213 -3.5099  3.3400 -1.5421
  574MOL0     H75768   8.942   1.719  11.205 -0.6707 -1.9062  0.0121
  575MOL0     O75769   3.182   5.344   7.016  0.1996 -0.4478 -0.0664
  575MOL0     C75770   3.244   5.424   7.088 -0.1690  0.8709 -0.8634
  575MOL0     O75771   3.202   5.464   7.216 -0.2874  0.2105  0.4824
  575MOL0     C75772   3.076   5.438   7.264  0.7638 -0.1922  0.5697
  575MOL0     C75773   3.052   5.464   7.404 -0.2570 -0.1525  0.3484
  575MOL0     C75774   2.930   5.442   7.466 -0.0524  0.3081 -0.7672
  575MOL0     C75775   2.815   5.411   7.385  0.0939  0.1648  0.6341
  575MOL0     O75776   2.702   5.394   7.456  0.6076  0.3209  0.2186
  575MOL0     C75777   2.576   5.368   7.384  0.4944 -0.2469  0.3518
  575MOL0     C75778   2.466   5.380   7.487 -0.4629  0.6103  0.6351
  575MOL0     C75779   2.335   5.325   7.435 -0.0043 -0.4051  0.5542
  575MOL0     C75780   2.276   5.428   7.320  0.1866  0.1913 -0.1642
  575MOL0     C75781   2.140   5.384   7.279 -1.2727 -0.0411  1.1063
  575MOL0     C75782   2.023   5.457   7.338 -0.0908 -0.4202 -0.5412
  575MOL0     C75783   1.888   5.391   7.357 -0.1175 -0.0703  0.1931
  575MOL0     C75784   1.806   5.391   7.225 -0.7764  0.4138  0.4656
  575MOL0     N75785   1.683   5.307   7.231 -0.5071 -0.6777  0.3053
  575MOL0     C75786   1.626   5.266   7.108 -0.1166  0.0415 -0.0285
  575MOL0     C75787   1.499   5.224   7.140 -0.4954 -0.0143 -0.5377
  575MOL0     C75788   1.397   5.168   7.038 -0.4195 -0.0041  0.7672
  575MOL0     C75789   1.254   5.220   7.067  0.4115 -0.2355 -0.2594
  575MOL0     C75790   1.156   5.163   6.966 -0.4238  0.5332  0.2545
  575MOL0     C75791   1.020   5.198   7.006  0.7581  0.3000  0.1844
  575MOL0     O75792   0.931   5.145   6.913 -0.2461  0.8754 -0.0684
  575MOL0     C75793   0.797   5.158   6.929  0.2830 -0.2897 -0.0436
  575MOL0     C75794   0.710   5.099   6.839 -0.5509 -0.5449 -0.1782
  575MOL0     C75795   0.570   5.105   6.862  0.0422  0.1338 -0.5004
  575MOL0     C75796   0.514   5.167   6.976  0.3828 -0.5882  0.4216
  575MOL0     C75797   0.363   5.177   6.992 -0.1079  0.4406 -0.1824
  575MOL0     O75798   0.320   5.235   7.109 -0.4956  0.4195  0.9413
  575MOL0     C75799   0.189   5.218   7.131  0.6699  0.1969  0.0958
  575MOL0     C75800   0.112   5.334   7.170 -0.7726 -0.1035  0.6186
  575MOL0     C75801  -0.028   5.326   7.207  0.0012 -0.1717 -0.0954
  575MOL0     C75802  -0.086   5.204   7.200 -0.0802  0.0634 -0.2860
  575MOL0     O75803  -0.219   5.201   7.228  0.0326 -0.1852 -0.2267
  575MOL0     C75804  -0.298   5.223   7.109 -0.3359  0.3477  0.8194
  575MOL0     C75805  -0.432   5.149   7.119  0.3102  0.7256  1.2915
  575MOL0     C75806  -0.515   5.191   7.246  0.0536  0.4107 -0.3600
  575MOL0     C75807  -0.661   5.134   7.251 -1.4635 -0.1039  0.1787
  575MOL0     C75808  -0.722   5.204   7.375 -0.2988 -0.0685 -0.3043
  575MOL0     C75809  -0.871   5.166   7.385 -0.7233  0.1598  0.3554
  575MOL0     C75810  -0.950   5.257   7.288 -0.4088  0.8450  0.1894
  575MOL0     C75811  -1.091   5.197   7.281  0.1955 -0.2358  0.1223
  575MOL0    Cl75812  -1.183   5.302   7.181 -0.0364  0.1115 -0.5927
  575MOL0     C75813  -0.015   5.094   7.159  0.8018  0.1541  0.1282
  575MOL0     C75814   0.119   5.095   7.131  0.9829  0.8447 -0.1293
  575MOL0     O75815   0.301   5.109   6.911 -0.2993  0.2829 -0.1276
  575MOL0     C75816   0.607   5.228   7.059  0.1478  0.6840 -0.2136
  575MOL0     C75817   0.740   5.218   7.041  0.0291 -1.0241  0.7641
  575MOL0     N75818   1.485   5.254   7.275  0.2526 -0.2813 -0.6820
  575MOL0     N75819   1.590   5.311   7.334  0.7987  0.2801  0.0260
  575MOL0     C75820   2.830   5.403   7.245  0.1648  0.6051  0.6291
  575MOL0     C75821   2.962   5.413   7.185 -0.3372  0.8700  0.1468
  575MOL0     C75822   3.369   5.470   7.042 -0.9835 -0.3027 -1.1229
  575MOL0     C75823   3.459   5.538   7.132 -0.0547  0.0822  0.3730
  575MOL0     C75824   3.582   5.584   7.080  0.5045 -0.7104 -0.3774
  575MOL0     C75825   3.622   5.556   6.945  0.2506  0.2059  0.3337
  575MOL0     O75826   3.753   5.562   6.905  0.2088 -0.2708 -0.4315
  575MOL0     C75827   3.857   5.594   6.993 -0.4402  0.2459  0.2162
  575MOL0     C75828   3.991   5.564   6.921 -0.5226  0.4168 -0.2832
  575MOL0     C75829   4.013   5.648   6.791  0.0971  0.4822  0.1505
  575MOL0     C75830   4.157   5.630   6.741  0.9613 -0.7841  0.1780
  575MOL0     C75831   4.265   5.681   6.824  0.0168  0.1967  0.0299
  575MOL0     C75832   4.342   5.733   6.899 -0.3644  0.2910 -0.4123
  575MOL0     C75833   3.535   5.486   6.871 -0.3122  0.5451  0.1838
  575MOL0     C75834   3.410   5.448   6.911  0.0675  0.1288  0.1168
  575MOL0     H75835   3.133   5.488   7.473  0.4447  0.0862 -0.5349
  575MOL0     H75836   2.927   5.448   7.574  2.6259  1.8624 -0.6874
  575MOL0     H75837   2.568   5.263   7.353  1.0267 -0.4526  0.9012
  575MOL0     H75838   2.550   5.438   7.304 -1.6837 -2.4408 -1.0127
  575MOL0     H75839   2.451   5.482   7.526 -0.5478  0.7539  0.2375
  575MOL0     H75840   2.490   5.318   7.574 -3.5126  1.7089  2.4377
  575MOL0     H75841   2.265   5.312   7.518 -0.6080 -0.3169  0.0681
  575MOL0     H75842   2.349   5.225   7.393 -2.1862 -1.0888  1.3280
  575MOL0     H75843   2.276   5.533   7.352 -1.4050 -0.9211  4.0212
  575MOL0     H75844   2.341   5.425   7.232 -1.5869 -1.9934 -1.5038
  575MOL0     H75845   2.124   5.277   7.287 -1.0748 -0.0455  1.4562
  575MOL0     H75846   2.122   5.409   7.174 -0.0691 -0.0257  0.8900
  575MOL0     H75847   2.009   5.559   7.300 -2.2715 -0.3341  0.3891
  575MOL0     H75848   2.072   5.475   7.434  0.7733 -1.5870 -0.7348
  575MOL0     H75849   1.906   5.288   7.390  0.0775 -0.2916 -0.5882
  575MOL0     H75850   1.835   5.453   7.430 -0.5599 -2.0608  1.6628
  575MOL0     H75851   1.869   5.359   7.142  0.6258  0.4020  1.4896
  575MOL0     H75852   1.778   5.493   7.199  1.0273  0.5393 -1.2406
  575MOL0     H75853   1.683   5.279   7.017  1.2071  2.2756  1.0320
  575MOL0     H75854   1.396   5.060   7.055 -1.5464 -0.1911 -0.3422
  575MOL0     H75855   1.431   5.196   6.938  0.4039 -1.1818  0.7003
  575MOL0     H75856   1.254   5.329   7.068 -2.3130 -0.1767 -0.1191
  575MOL0     H75857   1.225   5.183   7.165 -2.3026 -0.3010 -0.9890
  575MOL0     H75858   1.180   5.197   6.865  0.4147 -0.2143  0.1851
  575MOL0     H75859   1.174   5.055   6.961 -1.6084  0.3651 -2.9735
  575MOL0     H75860   1.019   5.307   7.012 -0.7523  0.2873  0.7180
  575MOL0     H75861   1.009   5.158   7.108  1.8281  0.1100  0.2313
  575MOL0     H75862   0.734   5.049   6.746  1.9813 -2.0456  1.1780
  575MOL0     H75863   0.499   5.061   6.792  1.9873 -1.7568 -1.3933
  575MOL0     H75864   0.162   5.429   7.185 -1.1948  0.5443 -1.6717
  575MOL0     H75865  -0.077   5.412   7.250 -0.4842  1.1580 -3.0472
  575MOL0     H75866  -0.256   5.188   7.015 -3.1080 -0.7262 -0.1276
  575MOL0     H75867  -0.320   5.331   7.109  0.5989  0.5530 -0.2636
  575MOL0     H75868  -0.409   5.042   7.122  0.5125  0.2770 -4.3034
  575MOL0     H75869  -0.494   5.172   7.031 -0.7125 -0.4288  1.6816
  575MOL0     H75870  -0.508   5.299   7.259  1.1867  0.6655 -2.5748
  575MOL0     H75871  -0.457   5.152   7.331  1.4324  0.9949 -0.9962
  575MOL0     H75872  -0.707   5.154   7.154 -0.9944 -0.2341 -0.0785
  575MOL0     H75873  -0.649   5.026   7.257  0.8935  0.1682  2.0914
  575MOL0     H75874  -0.720   5.313   7.366  1.8065  0.1183  1.4118
  575MOL0     H75875  -0.666   5.164   7.460  1.3226  2.5176 -0.0467
  575MOL0     H75876  -0.912   5.185   7.485 -3.0397 -0.6870 -0.3601
  575MOL0     H75877  -0.884   5.061   7.357  1.1355  0.3806 -1.6443
  575MOL0     H75878  -0.955   5.360   7.325 -2.0319  1.8122 -2.4340
  575MOL0     H75879  -0.902   5.258   7.189 -0.3066 -1.5034  0.1615
  575MOL0     H75880  -1.129   5.180   7.382  1.0430 -2.0625  0.1756
  575MOL0     H75881  -1.089   5.093   7.247  1.9502  0.5616 -2.5347
  575MOL0     H75882  -0.068   5.000   7.146  0.9756  0.2871 -2.0272
  575MOL0     H75883   0.165   5.001   7.102  0.9709 -0.0183  2.4137
  575MOL0     H75884   0.572   5.283   7.145 -0.9196 -0.7585  0.3221
  575MOL0     H75885   0.802   5.287   7.097 -0.1962  0.5272 -0.7818
  575MOL0     H75886   2.735   5.394   7.194 -0.4938  2.2125  1.4579
  575MOL0     H75887   2.964   5.411   7.077  1.1733 -1.1165  0.1497
  575MOL0     H75888   3.438   5.535   7.238 -0.3953  1.3963  0.3595
  575MOL0     H75889   3.660   5.628   7.141  2.3654 -1.5411 -2.0235
  575MOL0     H75890   3.843   5.545   7.090 -1.7709 -1.4364 -0.7650
  575MOL0     H75891   3.854   5.703   6.999  0.5919  0.5254 -2.5388
  575MOL0     H75892   4.076   5.578   6.988  0.1269 -2.3869 -0.3912
  575MOL0     H75893   3.996   5.455   6.910  1.4504  0.3613  0.8153
  575MOL0     H75894   3.997   5.754   6.813  2.5164  0.8355  0.4126
  575MOL0     H75895   3.938   5.601   6.727 -0.1280 -1.6471  1.8731
  575MOL0     H75896   4.162   5.521   6.742  0.1126 -0.8864 -1.6573
  575MOL0     H75897   4.163   5.675   6.641 -1.6910  1.0633  0.7177
  575MOL0     H75898   4.425   5.773   6.954 -2.1687  1.4152  1.6681
  575MOL0     H75899   3.561   5.476   6.766 -0.4435  0.6695  0.1407
  575MOL0     H75900   3.345   5.412   6.832 -0.5238 -0.1833  0.7373
  576MOL0     O75901   1.069   8.954  10.773  0.3641 -0.0681  0.1430
  576MOL0     C75902   1.136   8.873  10.718  0.6375  0.3009 -0.1023
  576MOL0     O75903   1.100   8.756  10.661  0.1673  0.3072  0.6720
  576MOL0     C75904   0.969   8.722  10.665  0.2645 -0.0576 -0.6789
  576MOL0     C75905   0.902   8.709  10.543 -0.6146 -0.6326 -0.0086
  576MOL0     C75906   0.763   8.692  10.540 -0.3948  0.0205  0.7305
  576MOL0     C75907   0.696   8.662  10.658  0.5248  0.6699  0.1088
  576MOL0     O75908   0.557   8.645  10.648 -0.2543  0.5652  0.7655
  576MOL0     C75909   0.483   8.720  10.742 -0.0612 -0.0651  0.6563
  576MOL0     C75910   0.344   8.742  10.686  0.3621  0.3539 -0.7185
  576MOL0     C75911   0.227   8.722  10.790 -0.2302  0.8567 -0.0874
  576MOL0     C75912   0.097   8.692  10.736  1.6771  0.3074 -0.7453
  576MOL0     C75913  -0.011   8.678  10.847 -0.2693 -0.0521 -0.3775
  576MOL0     C75914  -0.115   8.587  10.797  0.2061  0.5606 -0.1554
  576MOL0     C75915  -0.187   8.623  10.666  0.3093  0.1671  1.0535
  576MOL0     C75916  -0.295   8.527  10.625  0.8355  0.4501  0.3529
  576MOL0     N75917  -0.421   8.565  10.679 -0.1874 -0.6055  0.7776
  576MOL0     C75918  -0.463   8.533  10.802  0.4749 -1.1131 -0.4967
  576MOL0     C75919  -0.588   8.594  10.813  0.3758  1.0518  0.2860
  576MOL0     C75920  -0.694   8.585  10.920 -0.3519  0.1804 -0.9110
  576MOL0     C75921  -0.822   8.512  10.882  0.5196  0.1352 -1.4239
  576MOL0     C75922  -0.922   8.608  10.816  0.2432  0.9927  0.6553
  576MOL0     C75923  -1.064   8.545  10.773  0.0682  0.0986 -0.9898
  576MOL0     O75924  -1.147   8.564  10.885  0.8070 -0.3935  0.4733
  576MOL0     C75925  -1.273   8.521  10.884  1.2694 -0.7151 -0.3068
  576MOL0     C75926  -1.338   8.517  10.999  0.3123 -0.3434 -0.3561
  576MOL0     C75927  -1.466   8.474  11.017 -0.4575  0.2639  0.4945
  576MOL0     C75928  -1.536   8.430  10.905 -0.4383  0.8871 -0.1511
  576MOL0     C75929  -1.670   8.376  10.909 -0.4962 -0.6097 -0.7621
  576MOL0     O75930  -1.721   8.354  11.038 -0.3486  0.1508  0.0752
  576MOL0     C75931  -1.859   8.319  11.039  0.4323 -0.6511  0.1618
  576MOL0     C75932  -1.897   8.203  11.115  0.2041 -0.0554 -0.7750
  576MOL0     C75933  -2.034   8.165  11.115  0.1257  0.6607  0.9539
  576MOL0     C75934  -2.137   8.237  11.056 -0.2039 -0.6581 -0.5142
  576MOL0     O75935  -2.264   8.189  11.069 -0.4461 -0.2949 -0.3221
  576MOL0     C75936  -2.390   8.252  11.025  0.1194 -0.2106  0.4444
  576MOL0     C75937  -2.510   8.169  11.066  0.3006  0.4538  0.5474
  576MOL0     C75938  -2.505   8.024  11.007 -0.3528 -0.8518 -0.2348
  576MOL0     C75939  -2.624   7.942  11.026 -0.1664 -0.3918 -0.3620
  576MOL0     C75940  -2.650   7.915  11.176  0.3338 -0.4079  0.4586
  576MOL0     C75941  -2.746   7.804  11.216 -0.0437  0.5570  0.1006
  576MOL0     C75942  -2.891   7.846  11.198  0.5562 -0.4012 -0.4386
  576MOL0     C75943  -2.944   7.891  11.333 -0.2589  0.1844  0.1491
  576MOL0    Cl75944  -3.097   7.970  11.289  0.0205 -0.0150 -0.5298
  576MOL0     C75945  -2.102   8.357  10.986 -1.2138  0.6392  0.1553
  576MOL0     C75946  -1.962   8.399  10.980  0.6504  0.5726 -0.0844
  576MOL0     O75947  -1.726   8.354  10.806 -0.1633 -0.3877 -0.0276
  576MOL0     C75948  -1.470   8.433  10.781  0.6928  0.4650  0.5339
  576MOL0     C75949  -1.340   8.482  10.772 -1.1466 -1.4923  0.0478
  576MOL0     N75950  -0.604   8.674  10.705  0.5209 -0.6596 -0.3541
  576MOL0     N75951  -0.508   8.652  10.621  0.3593 -0.0081 -0.6679
  576MOL0     C75952   0.765   8.657  10.780 -0.2530 -0.6427  0.0460
  576MOL0     C75953   0.904   8.689  10.783  0.6470  0.0574 -0.8735
  576MOL0     C75954   1.278   8.900  10.721  0.8711 -0.0426  0.0269
  576MOL0     C75955   1.339   9.005  10.782  0.2220  0.6125  0.3181
  576MOL0     C75956   1.478   9.029  10.775  0.0386  1.0417 -0.2527
  576MOL0     C75957   1.567   8.939  10.718  0.8454  0.7791 -0.7255
  576MOL0     O75958   1.704   8.940  10.714 -0.3723  0.2190 -0.5157
  576MOL0     C75959   1.768   9.059  10.760  0.4104  0.2222  0.2654
  576MOL0     C75960   1.770   9.159  10.651  0.7718 -0.1277 -0.2931
  576MOL0     C75961   1.884   9.258  10.659 -0.1879 -0.2245  0.3719
  576MOL0     C75962   1.911   9.321  10.517  0.0937  0.9839  0.3553
  576MOL0     C75963   1.949   9.234  10.407  0.2247 -0.5026 -0.0247
  576MOL0     C75964   1.964   9.135  10.342 -1.1689  0.0931 -0.6178
  576MOL0     C75965   1.504   8.833  10.649 -1.1928  0.1727 -0.2378
  576MOL0     C75966   1.362   8.815  10.643 -0.8108 -0.0103 -0.5388
  576MOL0     H75967   0.950   8.746  10.452 -1.0842 -0.3564 -0.1476
  576MOL0     H75968   0.702   8.707  10.451  1.5725 -1.1361 -0.9170
  576MOL0     H75969   0.541   8.811  10.759 -0.0833 -0.3159  2.2690
  576MOL0     H75970   0.481   8.662  10.835  1.5552 -0.5113  0.4514
  576MOL0     H75971   0.328   8.681  10.597  0.3314  0.0072 -0.4806
  576MOL0     H75972   0.329   8.845  10.652  2.7407  1.0421  0.0739
  576MOL0     H75973   0.221   8.811  10.853 -0.5620 -0.1171  1.3060
  576MOL0     H75974   0.250   8.637  10.856  2.9201  1.1683 -0.5886
  576MOL0     H75975   0.071   8.766  10.660  1.5770  2.4663  1.2679
  576MOL0     H75976   0.109   8.589  10.702  1.6012 -0.1265  0.4772
  576MOL0     H75977  -0.065   8.772  10.861 -5.2827 -1.9280 -4.2856
  576MOL0     H75978   0.046   8.642  10.934  2.8357 -0.4415 -2.4095
  576MOL0     H75979  -0.187   8.590  10.880  0.4294 -0.6351  0.0947
  576MOL0     H75980  -0.069   8.488  10.788  2.1582  1.3226  0.9278
  576MOL0     H75981  -0.233   8.722  10.673 -0.5709 -0.1014 -0.5193
  576MOL0     H75982  -0.114   8.628  10.584 -1.8000 -1.2595 -1.0116
  576MOL0     H75983  -0.283   8.420  10.645 -2.5051  0.1308  1.1704
  576MOL0     H75984  -0.292   8.534  10.516  2.2642  1.1807  0.4129
  576MOL0     H75985  -0.433   8.458  10.876 -0.2460 -0.2355  0.7218
  576MOL0     H75986  -0.722   8.689  10.941  0.3366 -0.0677  1.5912
  576MOL0     H75987  -0.649   8.539  11.008 -0.8653  0.5321 -0.4535
  576MOL0     H75988  -0.876   8.483  10.973 -0.0141  0.8779 -1.5012
  576MOL0     H75989  -0.799   8.420  10.826  1.0112 -0.3892 -0.3915
  576MOL0     H75990  -0.939   8.691  10.885  1.2439  1.3386  0.5140
  576MOL0     H75991  -0.867   8.646  10.729  1.2330  0.6892  1.1227
  576MOL0     H75992  -1.061   8.439  10.747 -0.9512 -0.2389  0.1588
  576MOL0     H75993  -1.104   8.599  10.687  0.5669  0.8041 -0.7939
  576MOL0     H75994  -1.277   8.535  11.088  2.1978 -0.3773 -1.5921
  576MOL0     H75995  -1.503   8.467  11.119  0.8129 -1.0710  0.8986
  576MOL0     H75996  -1.818   8.142  11.158  1.2961  3.0590  2.1433
  576MOL0     H75997  -2.053   8.063  11.148 -2.2168  1.6396  2.9035
  576MOL0     H75998  -2.380   8.256  10.916 -2.8400  1.3344  0.1162
  576MOL0     H75999  -2.400   8.357  11.056  0.0191 -0.5049  1.4341
  576MOL0     H76000  -2.605   8.221  11.053 -0.9521 -1.6500  0.6993
  576MOL0     H76001  -2.495   8.159  11.174  1.4004  2.9226  0.6917
  576MOL0     H76002  -2.414   7.972  11.038 -0.0954 -0.5217 -0.4313
  576MOL0     H76003  -2.499   8.046  10.900 -1.8447  0.0265 -0.1677
  576MOL0     H76004  -2.710   7.997  10.985 -1.0185 -0.2404  1.5523
  576MOL0     H76005  -2.632   7.844  10.979  2.2654  0.2796 -2.4315
  576MOL0     H76006  -2.698   8.009  11.206 -2.5282 -1.2670 -1.0149
  576MOL0     H76007  -2.553   7.898  11.223 -0.3902  0.3053  2.2915
  576MOL0     H76008  -2.735   7.785  11.323  1.2133 -0.8704 -0.2435
  576MOL0     H76009  -2.727   7.712  11.159 -0.6821 -1.0758  2.3739
  576MOL0     H76010  -2.905   7.933  11.133 -1.8978  0.9345  1.6896
  576MOL0     H76011  -2.954   7.761  11.170 -2.5617  1.6557 -0.2136
  576MOL0     H76012  -2.877   7.964  11.379  2.0569 -0.2549 -2.2756
  576MOL0     H76013  -2.958   7.802  11.395  1.4373 -1.2683 -1.4456
  576MOL0     H76014  -2.176   8.433  10.964 -3.3713 -1.2011  0.7473
  576MOL0     H76015  -1.941   8.498  10.939 -1.0378  1.5638  1.2669
  576MOL0     H76016  -1.507   8.402  10.684  1.4584  0.4772  0.2227
  576MOL0     H76017  -1.291   8.477  10.675 -2.0360 -0.7467 -0.4619
  576MOL0     H76018   0.721   8.634  10.877  0.1624 -0.8473  0.1885
  576MOL0     H76019   0.965   8.670  10.871 -0.1708 -1.5591 -0.6177
  576MOL0     H76020   1.278   9.080  10.831 -1.8515 -1.6012  1.3517
  576MOL0     H76021   1.501   9.120  10.829  0.4671 -1.1071  3.6511
  576MOL0     H76022   1.870   9.029  10.786  0.9844  2.1341  0.4055
  576MOL0     H76023   1.714   9.104  10.844  0.8795 -2.6171  2.2573
  576MOL0     H76024   1.762   9.111  10.553 -2.1926  0.1448 -0.2828
  576MOL0     H76025   1.676   9.213  10.666 -1.3732 -4.2674  3.7076
  576MOL0     H76026   1.974   9.209  10.696 -1.8315 -2.9694  1.0395
  576MOL0     H76027   1.857   9.339  10.728 -1.7178  0.3814 -0.8671
  576MOL0     H76028   1.825   9.380  10.485  0.9170  0.7457 -2.6012
  576MOL0     H76029   1.997   9.388  10.531  2.0569 -0.9123 -1.6265
  576MOL0     H76030   1.979   9.043  10.290  0.5102  0.0350 -0.0954
  576MOL0     H76031   1.558   8.748  10.609 -2.2049 -0.7353  0.2825
  576MOL0     H76032   1.334   8.718  10.604 -0.6923 -0.4073  0.3235
  577MOL0     O76033   6.640   0.915   6.768 -0.2290 -0.6443  0.0815
  577MOL0     C76034   6.719   0.828   6.731 -0.1171 -0.5019  0.0422
  577MOL0     O76035   6.690   0.696   6.702  0.0685 -0.1088  0.7598
  577MOL0     C76036   6.553   0.666   6.716  0.3272  0.6448 -0.4439
  577MOL0     C76037   6.478   0.612   6.611  0.3696 -0.2613  0.8208
  577MOL0     C76038   6.345   0.578   6.630 -0.0317 -0.0674 -0.3214
  577MOL0     C76039   6.281   0.591   6.746 -0.2319 -0.6164 -0.4219
  577MOL0     O76040   6.146   0.563   6.755 -0.1333  1.1942  0.3738
  577MOL0     C76041   6.086   0.572   6.887 -0.7692  0.5003 -0.6255
  577MOL0     C76042   5.939   0.539   6.896 -0.0662  0.6437  0.8675
  577MOL0     C76043   5.919   0.392   6.868 -0.3408 -0.0101 -0.4902
  577MOL0     C76044   5.792   0.366   6.799  0.2092  0.5336  0.5370
  577MOL0     C76045   5.669   0.393   6.889  0.6341 -0.3112 -0.6204
  577MOL0     C76046   5.543   0.391   6.805 -0.1214 -0.2725  0.4984
  577MOL0     C76047   5.497   0.251   6.770  0.1965  0.2259  0.2651
  577MOL0     C76048   5.419   0.176   6.884  0.3472  0.6156 -0.2619
  577MOL0     N76049   5.509   0.117   6.984 -0.6162 -0.4990 -0.1716
  577MOL0     C76050   5.608   0.023   6.962  0.6849  0.0986  0.1796
  577MOL0     C76051   5.647  -0.021   7.076  1.1813 -0.0653 -0.3319
  577MOL0     C76052   5.727  -0.138   7.116  1.0826 -0.2909  0.4273
  577MOL0     C76053   5.867  -0.113   7.101 -0.3735  0.0595  0.6729
  577MOL0     C76054   5.943  -0.212   7.192 -0.0789 -0.1618  0.2821
  577MOL0     C76055   6.075  -0.160   7.238  0.6395 -0.9204  0.7932
  577MOL0     O76056   6.172  -0.153   7.122  0.4285 -0.1411  0.0601
  577MOL0     C76057   6.294  -0.102   7.152  0.3264 -1.5399  0.1281
  577MOL0     C76058   6.317   0.004   7.247  0.3187  0.4365 -0.4795
  577MOL0     C76059   6.444   0.050   7.259  0.0987  0.4058 -0.1046
  577MOL0     C76060   6.546   0.003   7.186 -0.1585 -0.0199  0.0318
  577MOL0     C76061   6.684   0.060   7.202 -0.3480  0.2516 -0.7172
  577MOL0     O76062   6.778   0.006   7.108  0.7147 -0.1083 -0.4325
  577MOL0     C76063   6.903   0.052   7.089 -1.1519 -0.6786  0.1227
  577MOL0     C76064   6.991  -0.043   7.024 -0.5513 -0.0807  0.1094
  577MOL0     C76065   7.132  -0.024   7.030  0.2392  0.0143 -0.5292
  577MOL0     C76066   7.191   0.095   7.082 -0.2718 -0.2439 -1.2887
  577MOL0     O76067   7.324   0.103   7.079  0.0744  0.0352 -0.2282
  577MOL0     C76068   7.396   0.224   7.053  0.2212  0.0453 -0.2573
  577MOL0     C76069   7.529   0.191   7.003 -0.1280 -0.0538  0.4636
  577MOL0     C76070   7.626   0.315   6.969 -0.1938  0.1571  0.0998
  577MOL0     C76071   7.654   0.412   7.083  0.0930 -0.0041 -0.5431
  577MOL0     C76072   7.749   0.529   7.055  0.2582 -0.8367  0.6448
  577MOL0     C76073   7.691   0.622   6.945  0.0830  0.1177  0.4776
  577MOL0     C76074   7.794   0.729   6.898  0.6566 -0.4041  0.2992
  577MOL0     C76075   7.727   0.831   6.802  0.2450  0.4195  0.4617
  577MOL0    Cl76076   7.613   0.756   6.681 -0.2096  0.1960  0.0252
  577MOL0     C76077   7.099   0.183   7.145 -0.1416 -0.3300  0.3736
  577MOL0     C76078   6.963   0.166   7.146 -0.2911  0.2873  0.6354
  577MOL0     O76079   6.707   0.146   7.284 -0.1366 -0.2947 -0.1522
  577MOL0     C76080   6.525  -0.091   7.091  0.0722  0.4034 -0.1774
  577MOL0     C76081   6.398  -0.144   7.071  0.4953  0.4438 -0.3182
  577MOL0     N76082   5.577   0.051   7.175  0.2515  0.0507 -0.0660
  577MOL0     N76083   5.493   0.128   7.115 -0.9253  0.0101 -0.9724
  577MOL0     C76084   6.352   0.649   6.856  0.4773 -0.4174 -1.1009
  577MOL0     C76085   6.485   0.686   6.837  0.2273 -0.9817 -0.8951
  577MOL0     C76086   6.855   0.881   6.722 -0.1307 -1.4994  0.3787
  577MOL0     C76087   6.878   1.018   6.716  0.8998  0.2297  0.3126
  577MOL0     C76088   7.010   1.069   6.714 -0.7155  0.5206  0.8107
  577MOL0     C76089   7.124   0.975   6.720  0.4129  0.8556 -0.3887
  577MOL0     O76090   7.252   1.014   6.704  0.8022 -0.0245  0.5720
  577MOL0     C76091   7.286   1.153   6.670 -0.1010 -0.1609  0.3054
  577MOL0     C76092   7.426   1.187   6.719 -0.6102  0.5123  0.8000
  577MOL0     C76093   7.443   1.341   6.726  0.1290 -0.6289 -0.1727
  577MOL0     C76094   7.387   1.414   6.605 -0.5808  0.3869 -0.3663
  577MOL0     C76095   7.469   1.533   6.567  0.4416  0.4254 -0.5849
  577MOL0     C76096   7.541   1.627   6.537 -0.3195 -0.6126  0.0782
  577MOL0     C76097   7.093   0.838   6.725 -0.3668 -0.1572 -0.2730
  577MOL0     C76098   6.961   0.797   6.730 -0.4756  0.0087  0.6880
  577MOL0     H76099   6.533   0.593   6.520 -0.5173  1.6282 -0.1603
  577MOL0     H76100   6.284   0.541   6.547 -0.7936  1.5348 -0.5279
  577MOL0     H76101   6.107   0.665   6.941  0.2286  0.8394 -1.5771
  577MOL0     H76102   6.130   0.485   6.936 -0.0801  0.8544 -0.5993
  577MOL0     H76103   5.888   0.610   6.830  0.9597  1.0034  0.4484
  577MOL0     H76104   5.887   0.556   6.991  0.4614  1.5087  1.0160
  577MOL0     H76105   5.931   0.335   6.960  2.2872 -2.4894 -2.2131
  577MOL0     H76106   5.988   0.357   6.792 -0.1466 -0.5953 -0.0481
  577MOL0     H76107   5.783   0.426   6.708 -3.5365  0.2380  0.5519
  577MOL0     H76108   5.792   0.260   6.770  0.9194  0.9311 -1.0153
  577MOL0     H76109   5.675   0.490   6.939  2.2416 -0.2712 -0.8102
  577MOL0     H76110   5.670   0.317   6.969  1.6099  0.1988 -0.1211
  577MOL0     H76111   5.549   0.452   6.714 -1.1655 -1.1329 -0.1623
  577MOL0     H76112   5.453   0.434   6.850  0.3616  1.7453 -0.3402
  577MOL0     H76113   5.429   0.264   6.686 -2.1854  0.2113  2.1070
  577MOL0     H76114   5.572   0.183   6.729 -0.2981 -1.3318  1.8170
  577MOL0     H76115   5.359   0.091   6.848 -2.7829  1.0565  3.2050
  577MOL0     H76116   5.351   0.244   6.936  1.1318  3.2683 -2.4879
  577MOL0     H76117   5.649   0.002   6.863  0.1930  1.3130 -0.3112
  577MOL0     H76118   5.691  -0.223   7.059 -3.8104  0.9480  1.1798
  577MOL0     H76119   5.688  -0.164   7.215 -4.4138  0.6155 -1.1697
  577MOL0     H76120   5.881  -0.007   7.123 -2.5852  0.4977  0.1731
  577MOL0     H76121   5.893  -0.142   6.999  1.7645 -1.3228  1.5322
  577MOL0     H76122   5.890  -0.259   7.275  2.2043 -1.2759  1.1901
  577MOL0     H76123   5.967  -0.307   7.143  3.4987  0.4801  0.5258
  577MOL0     H76124   6.125  -0.221   7.314 -1.8942 -0.8171  2.6962
  577MOL0     H76125   6.057  -0.065   7.290  2.3851 -0.5873  0.8376
  577MOL0     H76126   6.235   0.036   7.310 -1.4671 -0.1319 -2.4136
  577MOL0     H76127   6.470   0.128   7.331  0.0430  2.0457 -1.7906
  577MOL0     H76128   6.959  -0.131   6.970  4.7236 -1.6522 -1.0366
  577MOL0     H76129   7.204  -0.091   6.984  0.0820 -0.5501  0.0294
  577MOL0     H76130   7.403   0.275   7.150  1.3928 -2.4130  1.0582
  577MOL0     H76131   7.361   0.290   6.973  1.3642  1.6551  0.5195
  577MOL0     H76132   7.509   0.134   6.912 -3.0590  0.4984  0.6651
  577MOL0     H76133   7.582   0.124   7.070  0.6572 -0.5784 -0.6472
  577MOL0     H76134   7.599   0.371   6.880  1.6463  1.0341  0.0484
  577MOL0     H76135   7.719   0.267   6.937 -1.5320 -1.1795 -2.0137
  577MOL0     H76136   7.559   0.449   7.123  0.8401 -0.4193  1.7445
  577MOL0     H76137   7.704   0.356   7.162  1.2108 -1.6448 -2.3017
  577MOL0     H76138   7.850   0.490   7.036  0.0915 -0.7285 -0.5019
  577MOL0     H76139   7.759   0.599   7.138  0.0309  0.5509 -0.4650
  577MOL0     H76140   7.609   0.676   6.993  0.7935  1.2991  0.3927
  577MOL0     H76141   7.656   0.561   6.861  3.7098 -1.8069  0.1534
  577MOL0     H76142   7.833   0.787   6.982  2.5751 -0.3063 -0.6178
  577MOL0     H76143   7.873   0.672   6.848  1.1630 -0.2850  0.9447
  577MOL0     H76144   7.794   0.899   6.747  0.0440 -0.6427 -1.1475
  577MOL0     H76145   7.670   0.897   6.869 -0.6416  0.8625 -0.7036
  577MOL0     H76146   7.137   0.279   7.179  1.9282 -0.6400 -0.8412
  577MOL0     H76147   6.914   0.236   7.213  0.1214  0.4684  0.7550
  577MOL0     H76148   6.602  -0.119   7.020 -0.4467  0.6229 -0.8438
  577MOL0     H76149   6.393  -0.225   6.999  0.4111  0.7203 -0.6267
  577MOL0     H76150   6.310   0.666   6.955 -0.9288  0.5721 -1.8379
  577MOL0     H76151   6.539   0.721   6.923 -0.0615  1.2684 -1.5584
  577MOL0     H76152   6.797   1.090   6.706  1.4479  0.5933 -2.3109
  577MOL0     H76153   7.027   1.175   6.727  2.6385  0.1633  0.3613
  577MOL0     H76154   7.218   1.222   6.721 -1.3741 -0.4732 -0.8941
  577MOL0     H76155   7.274   1.160   6.561 -0.6445 -2.5966  0.1339
  577MOL0     H76156   7.445   1.140   6.816  1.4542  0.9702  0.6708
  577MOL0     H76157   7.497   1.148   6.645 -2.0042 -1.9320  0.6360
  577MOL0     H76158   7.549   1.369   6.730 -0.0721  0.4346 -1.7050
  577MOL0     H76159   7.395   1.375   6.819  0.4749 -1.0485  0.1631
  577MOL0     H76160   7.390   1.358   6.511  1.3314  2.2996 -1.5285
  577MOL0     H76161   7.283   1.436   6.628 -0.2600  2.1003 -0.4373
  577MOL0     H76162   7.619   1.696   6.511 -0.7571 -0.2770 -0.3457
  577MOL0     H76163   7.173   0.764   6.723  0.4864  0.6925 -3.4900
  577MOL0     H76164   6.931   0.694   6.751 -0.2305 -0.0309  0.8474
  578MOL0     O76165   8.980  10.432   0.739  0.7050 -0.1442 -0.5653
  578MOL0     C76166   9.004  10.463   0.626 -0.3075  0.2946 -0.3314
  578MOL0     O76167   8.918  10.522   0.537  0.0004 -0.6782  0.3316
  578MOL0     C76168   8.787  10.536   0.581 -0.2163  0.2403  0.3883
  578MOL0     C76169   8.709  10.419   0.574 -0.0006 -0.0430  0.5862
  578MOL0     C76170   8.591  10.427   0.638  0.9822  0.1288 -0.3355
  578MOL0     C76171   8.542  10.542   0.708  0.7075  1.0891  0.7787
  578MOL0     O76172   8.418  10.563   0.754 -0.5096 -0.3544 -1.1059
  578MOL0     C76173   8.320  10.457   0.760 -0.5238 -0.7220  0.0996
  578MOL0     C76174   8.198  10.510   0.849 -0.4931  0.1422  0.1484
  578MOL0     C76175   8.100  10.395   0.878  0.5226 -1.0583  0.1632
  578MOL0     C76176   7.978  10.445   0.965  0.5058 -0.7461  0.5229
  578MOL0     C76177   7.893  10.329   1.004  0.1650 -1.0092 -0.8699
  578MOL0     C76178   7.765  10.374   1.077 -0.2243 -0.6578 -0.3810
  578MOL0     C76179   7.691  10.251   1.124  0.6915 -0.3328  0.3798
  578MOL0     C76180   7.573  10.229   1.027  0.3315 -0.2989  0.5257
  578MOL0     N76181   7.498  10.109   1.086  0.9753 -0.3779 -0.7068
  578MOL0     C76182   7.424  10.119   1.206 -0.6955  0.7579  0.6970
  578MOL0     C76183   7.311  10.052   1.192 -0.6784  0.5057  0.2606
  578MOL0     C76184   7.207  10.044   1.298 -1.0864 -1.0517  0.6364
  578MOL0     C76185   7.069  10.096   1.240 -0.4761  0.2052  0.0979
  578MOL0     C76186   6.997   9.984   1.176 -0.2961  0.3414  0.5601
  578MOL0     C76187   6.862  10.031   1.126 -0.1009 -0.3756  0.1630
  578MOL0     O76188   6.784   9.918   1.080 -0.2250 -0.8169  0.2490
  578MOL0     C76189   6.659   9.946   1.015 -0.5403  0.8129  1.5423
  578MOL0     C76190   6.606  10.076   1.004 -0.1090 -0.1424 -1.2092
  578MOL0     C76191   6.476  10.091   0.952  0.0846 -0.2392 -1.0878
  578MOL0     C76192   6.402   9.984   0.902 -0.2782  0.1817 -0.1219
  578MOL0     C76193   6.270  10.010   0.836  0.1214 -0.7474  0.0431
  578MOL0     O76194   6.168   9.931   0.863 -0.1084  0.2989 -0.3601
  578MOL0     C76195   6.049   9.940   0.796 -0.1048  0.5725 -0.2425
  578MOL0     C76196   5.976  10.059   0.776  1.0994  0.4910  0.3464
  578MOL0     C76197   5.842  10.055   0.708  0.0980  1.0354  0.9190
  578MOL0     C76198   5.794   9.932   0.646  0.2070  1.0484  0.0877
  578MOL0     O76199   5.675   9.937   0.585 -0.1436  0.1003  0.0368
  578MOL0     C76200   5.605   9.817   0.532 -0.0281  0.6926 -0.1317
  578MOL0     C76201   5.464   9.839   0.582  0.0469 -0.2899 -0.2872
  578MOL0     C76202   5.357   9.755   0.525 -0.1350  0.3967 -0.0041
  578MOL0     C76203   5.221   9.811   0.548  0.9249 -0.0889 -0.2950
  578MOL0     C76204   5.101   9.716   0.492 -0.1622 -0.5845 -0.9707
  578MOL0     C76205   5.120   9.681   0.341 -0.5087 -0.0662 -0.2898
  578MOL0     C76206   4.987   9.659   0.283 -0.2608  0.3510 -0.8323
  578MOL0     C76207   4.905   9.548   0.346  0.2289  0.3963  0.2947
  578MOL0    Cl76208   4.762   9.543   0.253  0.0649  0.4517 -0.3172
  578MOL0     C76209   5.876   9.810   0.665  0.5590 -0.2520 -0.1499
  578MOL0     C76210   5.994   9.820   0.743 -0.3168 -0.1123 -0.7721
  578MOL0     O76211   6.265  10.102   0.760  0.0148  0.5133  0.2379
  578MOL0     C76212   6.462   9.858   0.897  0.2249  0.8904 -0.2858
  578MOL0     C76213   6.586   9.837   0.958 -0.5024  1.4680 -0.0424
  578MOL0     N76214   7.314   9.984   1.076  0.2432  0.0809 -0.5183
  578MOL0     N76215   7.431  10.019   1.016  0.1787 -0.0978 -0.1773
  578MOL0     C76216   8.621  10.648   0.717 -0.7567  0.5764  0.0349
  578MOL0     C76217   8.750  10.649   0.660 -0.7186 -0.0483  0.6867
  578MOL0     C76218   9.143  10.459   0.575  0.1991 -0.1437  0.5679
  578MOL0     C76219   9.174  10.526   0.456  0.1051 -0.6495  0.2373
  578MOL0     C76220   9.298  10.510   0.400 -0.3803 -0.2422  0.3622
  578MOL0     C76221   9.401  10.447   0.459  0.4942 -0.2114  0.4180
  578MOL0     O76222   9.519  10.429   0.400 -0.1118  0.6507  0.5072
  578MOL0     C76223   9.622  10.500   0.463 -0.5070 -0.6448 -0.0723
  578MOL0     C76224   9.748  10.499   0.364 -0.1079  0.1612 -0.1274
  578MOL0     C76225   9.866  10.580   0.405 -0.3154 -0.2387 -0.8977
  578MOL0     C76226   9.972  10.604   0.293  1.0495 -0.3970  0.0316
  578MOL0     C76227   9.912  10.699   0.195  1.2720  0.6294 -0.2527
  578MOL0     C76228   9.850  10.776   0.125 -0.3294 -0.3499 -0.8016
  578MOL0     C76229   9.380  10.387   0.582  0.6918  0.4340 -0.0814
  578MOL0     C76230   9.246  10.383   0.636  0.2984 -0.0176  0.4124
  578MOL0     H76231   8.754  10.331   0.529 -3.1375 -1.5393  0.0583
  578MOL0     H76232   8.532  10.336   0.639  1.7185 -0.3650 -0.6982
  578MOL0     H76233   8.378  10.376   0.807  0.3202 -0.8178 -1.0662
  578MOL0     H76234   8.279  10.429   0.663 -0.6462 -3.6340  0.8901
  578MOL0     H76235   8.146  10.585   0.790  1.3831 -1.1860 -3.5274
  578MOL0     H76236   8.231  10.557   0.942 -1.4131 -1.0770  1.1386
  578MOL0     H76237   8.157  10.323   0.937  0.0451  0.7426  3.0222
  578MOL0     H76238   8.067  10.350   0.784  2.0493 -1.7257 -0.0845
  578MOL0     H76239   8.017  10.499   1.052  1.3182 -0.2809 -0.1078
  578MOL0     H76240   7.916  10.506   0.899  1.8911 -0.4167 -0.5261
  578MOL0     H76241   7.952  10.258   1.063 -1.0331 -0.1641  1.4579
  578MOL0     H76242   7.871  10.268   0.915 -0.5475 -2.1339  0.0419
  578MOL0     H76243   7.697  10.440   1.022  1.2492  0.7765 -0.5594
  578MOL0     H76244   7.803  10.434   1.160  1.3371 -1.7727 -0.2520
  578MOL0     H76245   7.745  10.157   1.131 -0.5089 -1.0457  0.4131
  578MOL0     H76246   7.665  10.274   1.228 -0.8707 -0.8905  0.1436
  578MOL0     H76247   7.604  10.209   0.923  0.4071  3.6264 -0.3443
  578MOL0     H76248   7.498  10.308   1.022  2.0357  1.3808  0.3968
  578MOL0     H76249   7.445  10.177   1.295  1.9745  1.5408 -0.3355
  578MOL0     H76250   7.243  10.112   1.376  1.4645 -3.2327  1.5258
  578MOL0     H76251   7.200   9.940   1.331 -1.9802 -1.2329 -0.1098
  578MOL0     H76252   7.082  10.188   1.183  2.9473  2.6840  4.2488
  578MOL0     H76253   7.013  10.135   1.325 -0.3665  1.3962 -0.3627
  578MOL0     H76254   7.055   9.946   1.091 -3.4554  1.0102 -2.1001
  578MOL0     H76255   6.973   9.908   1.251  0.7889  0.7825  1.3898
  578MOL0     H76256   6.876  10.099   1.041  2.8088 -2.1181 -0.8987
  578MOL0     H76257   6.802  10.080   1.203 -0.5881  1.3981 -1.2701
  578MOL0     H76258   6.660  10.162   1.044 -0.1677  0.3000 -2.0682
  578MOL0     H76259   6.434  10.190   0.944  0.0192 -0.2065 -0.3820
  578MOL0     H76260   6.027  10.147   0.815  2.4144 -0.5106  0.9685
  578MOL0     H76261   5.773  10.136   0.688 -3.0453 -1.2433  1.7656
  578MOL0     H76262   5.640   9.725   0.579  2.7499  2.1934  1.0011
  578MOL0     H76263   5.621   9.812   0.424  1.9861  1.9497  0.0619
  578MOL0     H76264   5.432   9.938   0.550 -1.2912 -0.4241  0.5452
  578MOL0     H76265   5.455   9.835   0.691 -1.7670  1.1337 -0.3568
  578MOL0     H76266   5.360   9.656   0.571 -1.3077  0.7754  0.9175
  578MOL0     H76267   5.385   9.746   0.420 -0.2740  1.1651 -0.1121
  578MOL0     H76268   5.210   9.826   0.656 -1.3802 -2.1252 -0.1648
  578MOL0     H76269   5.213   9.906   0.496 -2.1453  0.2585  0.6176
  578MOL0     H76270   5.015   9.781   0.510  0.5366  0.5781 -1.7451
  578MOL0     H76271   5.091   9.627   0.555 -2.3494  1.5675  2.0425
  578MOL0     H76272   5.186   9.594   0.336  1.5535  1.3808  0.4272
  578MOL0     H76273   5.177   9.755   0.283  0.1977 -1.3061 -1.2308
  578MOL0     H76274   4.924   9.748   0.283  0.0865  0.5976 -1.1958
  578MOL0     H76275   5.002   9.641   0.176 -0.2772  0.7310 -0.9002
  578MOL0     H76276   4.883   9.552   0.453 -2.5684 -0.8556 -0.1372
  578MOL0     H76277   4.967   9.461   0.325  0.0380  0.2470  0.3493
  578MOL0     H76278   5.837   9.716   0.630 -0.9906  1.1192 -2.3167
  578MOL0     H76279   6.033   9.720   0.756  0.8844  0.4873  0.4316
  578MOL0     H76280   6.413   9.772   0.852  1.1202  0.1131  0.1991
  578MOL0     H76281   6.632   9.740   0.971  0.6405  1.9896 -0.0637
  578MOL0     H76282   8.584  10.739   0.763 -2.7342 -0.6293  0.9872
  578MOL0     H76283   8.809  10.740   0.661 -0.8498  0.1979 -2.3207
  578MOL0     H76284   9.109  10.578   0.387  1.4768 -1.7565 -2.0200
  578MOL0     H76285   9.319  10.542   0.298 -2.5793  3.2922  0.8341
  578MOL0     H76286   9.657  10.451   0.555  0.9353  0.3231 -0.0673
  578MOL0     H76287   9.604  10.607   0.477  1.7175  0.1313 -2.3543
  578MOL0     H76288   9.786  10.397   0.368  1.6068  0.8140  2.4257
  578MOL0     H76289   9.732  10.521   0.258  1.5924 -0.9432 -0.6445
  578MOL0     H76290   9.914  10.539   0.495 -0.5803  1.1424 -0.0951
  578MOL0     H76291   9.823  10.678   0.429 -2.0517 -1.3127  0.5924
  578MOL0     H76292  10.066  10.649   0.328  0.8317  0.5355 -0.5498
  578MOL0     H76293   9.999  10.510   0.244 -2.4928 -1.2999 -0.4370
  578MOL0     H76294   9.783  10.838   0.068 -1.9944 -0.3905  1.0011
  578MOL0     H76295   9.451  10.333   0.642 -0.7836 -1.7462 -0.1879
  578MOL0     H76296   9.226  10.336   0.732  2.1580  1.1071  1.4283
  579MOL0     O76297   6.060   4.955   1.943 -0.1296  0.3737  0.0860
  579MOL0     C76298   6.096   4.979   1.827 -0.1936 -0.0816 -0.1693
  579MOL0     O76299   6.079   5.097   1.764 -0.2822  0.2124 -0.1999
  579MOL0     C76300   6.008   5.193   1.825 -1.1015  0.2964  0.2607
  579MOL0     C76301   5.886   5.239   1.772  0.2809 -0.7000 -0.3221
  579MOL0     C76302   5.807   5.334   1.846 -0.6983 -0.2635 -0.7341
  579MOL0     C76303   5.852   5.371   1.973 -0.3792 -0.0942  0.1455
  579MOL0     O76304   5.766   5.457   2.040 -0.8025  0.1577  0.3369
  579MOL0     C76305   5.776   5.465   2.177  0.5650  0.4379 -0.4155
  579MOL0     C76306   5.687   5.584   2.213 -0.0372 -0.2930 -0.4023
  579MOL0     C76307   5.561   5.616   2.132  0.7631  0.3891  0.0988
  579MOL0     C76308   5.457   5.507   2.126  0.5557  0.1996 -1.1871
  579MOL0     C76309   5.391   5.463   2.259 -0.0472  0.4261 -0.6966
  579MOL0     C76310   5.329   5.581   2.335  0.1126  0.1216  0.0559
  579MOL0     C76311   5.205   5.538   2.415 -0.2178  0.8737 -1.2061
  579MOL0     C76312   5.122   5.667   2.431 -0.3218 -0.8424 -0.6515
  579MOL0     N76313   4.996   5.630   2.483  0.6402 -0.0797 -0.1482
  579MOL0     C76314   4.878   5.676   2.426 -0.0299  0.1186  0.7270
  579MOL0     C76315   4.781   5.634   2.506  1.4871 -0.2670  0.3425
  579MOL0     C76316   4.635   5.652   2.482  1.2502 -0.3474 -0.1217
  579MOL0     C76317   4.575   5.740   2.590  0.7792  0.5719 -0.7643
  579MOL0     C76318   4.427   5.770   2.565 -0.4105  0.6586 -0.5878
  579MOL0     C76319   4.332   5.647   2.572 -0.1169 -0.5986 -0.0164
  579MOL0     O76320   4.335   5.562   2.456 -0.7481  0.6346 -0.1178
  579MOL0     C76321   4.220   5.524   2.395  0.0592  0.5636  0.5578
  579MOL0     C76322   4.106   5.605   2.379  0.1540 -0.0841  0.2914
  579MOL0     C76323   3.993   5.557   2.316 -0.0118 -0.1112  0.6548
  579MOL0     C76324   3.967   5.422   2.286 -0.1231  1.3604 -1.2288
  579MOL0     C76325   3.841   5.360   2.230 -1.2722 -0.0399 -0.3638
  579MOL0     O76326   3.750   5.443   2.198  0.0963 -1.0280 -0.7118
  579MOL0     C76327   3.626   5.397   2.228  0.5523 -0.4315  0.5804
  579MOL0     C76328   3.550   5.320   2.143  0.5670  0.3216  0.8488
  579MOL0     C76329   3.427   5.276   2.181  0.2529 -0.1872 -0.6520
  579MOL0     C76330   3.360   5.319   2.294 -0.1070  0.0266 -0.1524
  579MOL0     O76331   3.229   5.264   2.308  0.5354  0.4622 -0.0743
  579MOL0     C76332   3.144   5.307   2.410 -0.0028 -0.2905 -0.0053
  579MOL0     C76333   2.994   5.278   2.370 -0.1286 -0.3162  0.2044
  579MOL0     C76334   2.952   5.365   2.249 -0.7250  0.2789 -0.3568
  579MOL0     C76335   2.811   5.330   2.204 -0.3603  0.3113 -0.3001
  579MOL0     C76336   2.761   5.410   2.084  0.3528 -0.4317  0.7069
  579MOL0     C76337   2.619   5.364   2.053  0.2110 -0.0279  0.8401
  579MOL0     C76338   2.572   5.455   1.943 -0.4278 -0.5162 -0.5301
  579MOL0     C76339   2.555   5.598   1.994  0.1955 -0.0785  0.7546
  579MOL0    Cl76340   2.443   5.688   1.900  0.1977  0.2376  0.2337
  579MOL0     C76341   3.432   5.400   2.378 -0.3806  0.0508 -0.3861
  579MOL0     C76342   3.565   5.446   2.342 -0.3620  0.2025 -0.8410
  579MOL0     O76343   3.838   5.240   2.221  0.2718  0.3043 -0.4016
  579MOL0     C76344   4.077   5.332   2.329 -0.1644 -0.0390  0.6410
  579MOL0     C76345   4.203   5.383   2.365  0.0088  0.6066  0.0147
  579MOL0     N76346   4.838   5.563   2.612  0.3303 -0.0684 -0.0700
  579MOL0     N76347   4.966   5.568   2.603 -0.3097 -0.0548  0.2735
  579MOL0     C76348   5.981   5.334   2.022 -0.6068  0.2394 -0.1476
  579MOL0     C76349   6.063   5.250   1.948 -0.2321 -0.0302  0.5646
  579MOL0     C76350   6.181   4.877   1.753 -0.1895 -0.4233  0.0408
  579MOL0     C76351   6.212   4.883   1.621  0.3550  0.0459  0.7592
  579MOL0     C76352   6.285   4.781   1.560 -0.2985 -0.2984  0.0564
  579MOL0     C76353   6.340   4.681   1.629 -0.2631 -0.3799 -0.1370
  579MOL0     O76354   6.418   4.590   1.556 -0.3254 -0.3215  0.0875
  579MOL0     C76355   6.490   4.490   1.626  0.6288 -0.2557 -0.7899
  579MOL0     C76356   6.607   4.563   1.682 -0.7393 -0.6739 -0.0623
  579MOL0     C76357   6.705   4.470   1.745  0.0302 -0.2609  0.0510
  579MOL0     C76358   6.815   4.540   1.825  0.7598  1.0950 -0.2896
  579MOL0     C76359   6.935   4.450   1.817  0.0889  0.3354  0.9393
  579MOL0     C76360   7.032   4.379   1.811  0.6152 -0.0787  0.3950
  579MOL0     C76361   6.315   4.679   1.766 -0.8545 -0.2375  0.4775
  579MOL0     C76362   6.228   4.768   1.828 -0.0298 -0.1508  1.5907
  579MOL0     H76363   5.847   5.197   1.680  0.4378 -3.3477  0.7309
  579MOL0     H76364   5.714   5.376   1.808 -1.8936 -2.3675 -0.3347
  579MOL0     H76365   5.877   5.487   2.212  0.5965 -2.2846  1.5137
  579MOL0     H76366   5.745   5.374   2.229 -1.3164  0.8500 -0.7168
  579MOL0     H76367   5.745   5.676   2.205  1.6953 -1.1520  1.4987
  579MOL0     H76368   5.665   5.575   2.319  2.2825 -1.7191  0.0203
  579MOL0     H76369   5.600   5.642   2.033  0.2353  0.2332 -0.1566
  579MOL0     H76370   5.517   5.711   2.163 -0.8600 -0.3444  0.1613
  579MOL0     H76371   5.385   5.562   2.065  0.8641  1.1725 -0.6906
  579MOL0     H76372   5.493   5.415   2.080 -0.9380  0.0158 -2.0328
  579MOL0     H76373   5.473   5.423   2.319 -0.7250  0.7188  0.4575
  579MOL0     H76374   5.320   5.383   2.237  1.0585 -0.8093  0.0176
  579MOL0     H76375   5.299   5.660   2.266 -1.8294 -2.3845 -2.1808
  579MOL0     H76376   5.412   5.628   2.389  2.0687  1.1381 -3.4925
  579MOL0     H76377   5.152   5.455   2.368  0.4588 -1.1501  1.3745
  579MOL0     H76378   5.235   5.511   2.516 -1.3301  1.2899 -0.7539
  579MOL0     H76379   5.101   5.714   2.335 -1.3693  0.2614  0.0963
  579MOL0     H76380   5.175   5.737   2.496 -1.1201  0.5719 -1.4970
  579MOL0     H76381   4.860   5.736   2.337 -0.2166 -1.1271 -0.1039
  579MOL0     H76382   4.591   5.552   2.476  3.2940 -1.1978 -2.4612
  579MOL0     H76383   4.623   5.685   2.379 -0.1786 -2.1893 -0.6062
  579MOL0     H76384   4.624   5.837   2.591  1.4687  0.2645  1.2645
  579MOL0     H76385   4.585   5.699   2.691 -0.3112  0.3610 -0.7205
  579MOL0     H76386   4.398   5.843   2.642 -0.4639  2.0690 -1.9044
  579MOL0     H76387   4.428   5.820   2.468  0.0947 -1.5175 -1.7525
  579MOL0     H76388   4.233   5.690   2.588  0.9548  1.8783  0.2824
  579MOL0     H76389   4.361   5.587   2.660  3.2052  2.2365  1.0702
  579MOL0     H76390   4.118   5.710   2.405  1.9093  0.1987 -1.5140
  579MOL0     H76391   3.918   5.633   2.299  0.7039  0.2467 -1.0775
  579MOL0     H76392   3.587   5.302   2.043  3.2884  0.9829  1.6569
  579MOL0     H76393   3.370   5.222   2.106 -1.1346  1.3102 -0.7509
  579MOL0     H76394   3.160   5.415   2.421 -1.6160 -0.1211  1.1319
  579MOL0     H76395   3.174   5.254   2.501  0.0152  0.4692  0.4408
  579MOL0     H76396   2.928   5.295   2.455 -2.0907 -3.5076 -0.4859
  579MOL0     H76397   2.972   5.172   2.350  0.1022 -0.7195  1.9317
  579MOL0     H76398   3.020   5.350   2.164 -0.0735  4.3037 -0.7747
  579MOL0     H76399   2.957   5.470   2.278 -3.1811  0.5896 -0.8964
  579MOL0     H76400   2.811   5.222   2.184 -0.5679  0.7875 -3.3125
  579MOL0     H76401   2.744   5.339   2.289  0.5019  1.3342  0.2899
  579MOL0     H76402   2.836   5.393   2.005 -0.4491 -2.0999  0.2627
  579MOL0     H76403   2.766   5.515   2.115 -0.6589  0.4827 -1.9623
  579MOL0     H76404   2.559   5.381   2.143 -0.0661  2.0750  0.3010
  579MOL0     H76405   2.623   5.261   2.017  1.1641 -0.1896  1.3712
  579MOL0     H76406   2.646   5.449   1.863 -1.9076 -3.3649 -1.8159
  579MOL0     H76407   2.473   5.423   1.907 -0.6025  1.3687 -1.9430
  579MOL0     H76408   2.648   5.654   1.990 -0.7797  1.5307 -1.7680
  579MOL0     H76409   2.522   5.603   2.099 -1.0375 -2.8115  0.5905
  579MOL0     H76410   3.397   5.460   2.460  3.1845  2.9851 -0.7542
  579MOL0     H76411   3.618   5.502   2.419  1.2274 -2.1263 -0.1390
  579MOL0     H76412   4.076   5.223   2.328  0.6604 -0.0668 -1.1334
  579MOL0     H76413   4.287   5.318   2.386  0.1726  0.9297  0.3783
  579MOL0     H76414   6.015   5.380   2.114 -1.0436  2.3948 -1.0040
  579MOL0     H76415   6.165   5.226   1.977 -0.0410  0.5580  0.3943
  579MOL0     H76416   6.181   4.966   1.559  1.5543  0.1149  0.2232
  579MOL0     H76417   6.297   4.778   1.452 -0.2498 -0.7595  0.0726
  579MOL0     H76418   6.543   4.412   1.570  1.7160 -3.2551  3.7736
  579MOL0     H76419   6.431   4.429   1.695  2.3857 -1.9120 -0.6270
  579MOL0     H76420   6.660   4.612   1.600  0.8712  2.9842  2.8900
  579MOL0     H76421   6.571   4.635   1.755  0.0538 -1.6135  1.3061
  579MOL0     H76422   6.751   4.407   1.669  0.3881  0.0952 -0.0280
  579MOL0     H76423   6.662   4.398   1.816  0.0674  1.2854  1.7244
  579MOL0     H76424   6.854   4.630   1.775 -1.1893  0.1023 -3.9881
  579MOL0     H76425   6.781   4.557   1.927 -0.2631  6.6134 -1.2227
  579MOL0     H76426   7.116   4.312   1.803  0.7196 -0.0311  1.0207
  579MOL0     H76427   6.355   4.602   1.831 -2.4453 -1.5790 -0.0372
  579MOL0     H76428   6.208   4.765   1.934  0.2535  0.8795  1.6844
  580MOL0     O76429   9.274   5.060  10.142  0.0605 -0.1896 -0.0666
  580MOL0     C76430   9.350   4.963  10.167  0.5469  0.6272  0.4555
  580MOL0     O76431   9.315   4.830  10.146  0.3784  0.5968  0.6522
  580MOL0     C76432   9.191   4.801  10.083 -0.4123  0.8416 -0.6175
  580MOL0     C76433   9.196   4.727   9.967 -1.2301  0.5936 -1.0021
  580MOL0     C76434   9.077   4.701   9.893 -0.4362  0.1745  0.0878
  580MOL0     C76435   8.956   4.744   9.938 -0.3102 -0.4074  0.1297
  580MOL0     O76436   8.855   4.703   9.862 -0.0068 -0.0220  0.2442
  580MOL0     C76437   8.741   4.787   9.868  0.1769 -0.5338 -0.3892
  580MOL0     C76438   8.653   4.776   9.743 -0.7561  0.5564 -0.7201
  580MOL0     C76439   8.577   4.642   9.743  0.5124 -0.2821  0.5769
  580MOL0     C76440   8.667   4.520   9.701  0.8430 -0.0619 -1.0720
  580MOL0     C76441   8.589   4.386   9.704  0.5316  0.2307  1.5711
  580MOL0     C76442   8.562   4.327   9.837  0.1486 -1.2404 -0.8013
  580MOL0     C76443   8.508   4.185   9.846  0.4610 -0.4120  0.0766
  580MOL0     C76444   8.583   4.100   9.950 -0.4217  0.0828 -0.3938
  580MOL0     N76445   8.497   3.993  10.004 -0.4349 -0.2842  0.6582
  580MOL0     C76446   8.395   4.018  10.094 -0.0088  0.5701 -0.0964
  580MOL0     C76447   8.351   3.886  10.120  0.2515  0.8240  0.1617
  580MOL0     C76448   8.239   3.865  10.222  0.4511  0.0345  0.0506
  580MOL0     C76449   8.097   3.838  10.178  0.1632  0.3565  0.4080
  580MOL0     C76450   8.006   3.773  10.271 -0.8314  0.2125  0.2163
  580MOL0     C76451   7.997   3.850  10.405  0.4609  0.7386  0.3441
  580MOL0     O76452   7.895   3.778  10.476  0.3069 -0.3551 -0.5209
  580MOL0     C76453   7.849   3.822  10.596 -0.1451  0.0240 -0.5133
  580MOL0     C76454   7.910   3.919  10.670 -0.0745 -0.0558 -0.4987
  580MOL0     C76455   7.863   3.962  10.789  0.1515 -0.1730 -0.3907
  580MOL0     C76456   7.748   3.900  10.840  0.0750 -0.8959  0.0834
  580MOL0     C76457   7.677   3.942  10.967  0.6102 -0.2933 -0.0686
  580MOL0     O76458   7.547   3.918  10.961 -0.0297  0.3253  0.1043
  580MOL0     C76459   7.468   3.905  11.071 -0.1632  0.4006 -0.0231
  580MOL0     C76460   7.508   3.852  11.192  0.1778  0.2604  0.2461
  580MOL0     C76461   7.413   3.826  11.295  0.1453  0.1452 -0.0378
  580MOL0     C76462   7.274   3.850  11.272  0.4465  0.8128 -0.1423
  580MOL0     O76463   7.188   3.827  11.379  0.1086 -0.8106  0.6368
  580MOL0     C76464   7.049   3.840  11.366 -0.3162 -0.3240  0.8530
  580MOL0     C76465   6.997   3.718  11.303 -1.7583  0.3242  0.3453
  580MOL0     C76466   6.847   3.727  11.284  0.5172  0.6862 -0.1302
  580MOL0     C76467   6.801   3.600  11.207 -0.2634 -0.2196  0.3635
  580MOL0     C76468   6.669   3.632  11.131 -1.4068  0.5829 -0.1070
  580MOL0     C76469   6.558   3.584  11.221  0.5613 -0.2343  0.1909
  580MOL0     C76470   6.422   3.623  11.168  0.9061 -0.5673  0.4201
  580MOL0     C76471   6.340   3.712  11.267 -0.3083 -0.1182  0.5331
  580MOL0    Cl76472   6.190   3.760  11.184 -0.2526  0.2831  0.6368
  580MOL0     C76473   7.235   3.886  11.148 -0.3433 -0.1849  0.6658
  580MOL0     C76474   7.333   3.906  11.050  0.4692  0.2990  0.0738
  580MOL0     O76475   7.742   3.989  11.065 -0.0066  0.3660  0.4061
  580MOL0     C76476   7.682   3.799  10.774 -0.1735  0.3694  0.6886
  580MOL0     C76477   7.742   3.760  10.652  0.8816  0.0219 -0.3783
  580MOL0     N76478   8.428   3.793  10.054 -0.1103  0.1163  0.3326
  580MOL0     N76479   8.510   3.864   9.979  0.5433  0.8332  0.5905
  580MOL0     C76480   8.952   4.822  10.055  0.4631 -1.1773 -0.3923
  580MOL0     C76481   9.068   4.863  10.115 -0.3601  0.9471 -0.5270
  580MOL0     C76482   9.478   5.000  10.219 -0.4729 -0.5443  0.1988
  580MOL0     C76483   9.519   5.133  10.241  0.4052  0.1093 -0.3346
  580MOL0     C76484   9.657   5.158  10.264 -0.2048 -0.5584 -0.6806
  580MOL0     C76485   9.753   5.049  10.288  0.6642 -0.1958 -0.2119
  580MOL0     O76486   9.883   5.059  10.330 -0.0434  0.1460  0.1396
  580MOL0     C76487   9.959   5.175  10.287 -0.1717 -0.2912  0.9310
  580MOL0     C76488  10.112   5.157  10.303  0.0957 -0.0672 -0.9189
  580MOL0     C76489  10.175   5.025  10.256  0.5274 -0.8202 -0.7468
  580MOL0     C76490  10.321   5.040  10.281 -0.2446  0.0337 -0.5302
  580MOL0     C76491  10.383   4.914  10.263 -0.5593 -0.1399  0.3435
  580MOL0     C76492  10.450   4.816  10.247 -1.0605  0.2251  1.2010
  580MOL0     C76493   9.699   4.917  10.282  0.1499 -0.6023 -0.5974
  580MOL0     C76494   9.563   4.895  10.242  0.2463  0.3600  0.6520
  580MOL0     H76495   9.294   4.695   9.934 -0.8210 -0.5189  1.1095
  580MOL0     H76496   9.069   4.646   9.801 -1.2725 -2.7118  1.7541
  580MOL0     H76497   8.767   4.892   9.880 -2.9683  0.4669 -1.3620
  580MOL0     H76498   8.679   4.754   9.952 -1.4232 -1.1396 -1.7524
  580MOL0     H76499   8.710   4.773   9.649  0.9032 -3.6165  0.2022
  580MOL0     H76500   8.578   4.856   9.751  0.4922  1.7505 -0.7002
  580MOL0     H76501   8.496   4.647   9.670  1.6742  0.2075 -0.7326
  580MOL0     H76502   8.533   4.625   9.842  1.6210  1.5841  1.4510
  580MOL0     H76503   8.704   4.528   9.599  0.0631 -2.3702 -1.5759
  580MOL0     H76504   8.744   4.505   9.778 -1.4086  1.1335  1.6143
  580MOL0     H76505   8.632   4.310   9.639 -1.7183  0.5279 -0.4163
  580MOL0     H76506   8.492   4.391   9.653 -0.0448 -1.5277  2.3987
  580MOL0     H76507   8.498   4.399   9.889 -0.5743 -0.8524 -2.1763
  580MOL0     H76508   8.658   4.337   9.889 -0.4947  0.0683  0.1982
  580MOL0     H76509   8.402   4.176   9.873  0.6219 -1.2046  0.4880
  580MOL0     H76510   8.517   4.138   9.748  1.4912 -0.2074  0.0616
  580MOL0     H76511   8.608   4.171  10.030  0.8437 -0.5304 -0.2164
  580MOL0     H76512   8.677   4.059   9.912 -1.7193 -3.2953 -0.2887
  580MOL0     H76513   8.375   4.116  10.135  2.2406  0.6535  0.9753
  580MOL0     H76514   8.241   3.953  10.287  0.5860  1.0105 -1.2193
  580MOL0     H76515   8.270   3.782  10.286 -0.2847  1.0919  1.8799
  580MOL0     H76516   8.111   3.765  10.097  0.4805 -0.4472  1.1686
  580MOL0     H76517   8.042   3.926  10.142  0.7202  0.6385  0.2386
  580MOL0     H76518   7.908   3.783  10.223 -2.3326 -1.5466  2.7128
  580MOL0     H76519   8.028   3.668  10.291  0.3969  0.7278  1.8770
  580MOL0     H76520   7.965   3.948  10.368  0.4833 -0.1624 -2.3139
  580MOL0     H76521   8.098   3.846  10.448 -0.0539 -0.5974  1.5035
  580MOL0     H76522   7.992   3.981  10.636 -1.5778  2.3540  0.0120
  580MOL0     H76523   7.907   4.045  10.842 -2.5900  0.8545  0.4567
  580MOL0     H76524   7.613   3.830  11.212  0.2201  1.4276  1.4702
  580MOL0     H76525   7.442   3.792  11.394  0.2960 -2.0913 -0.7968
  580MOL0     H76526   7.017   3.937  11.327 -0.3304  0.2517  2.2591
  580MOL0     H76527   7.006   3.838  11.466 -0.2331 -1.6118  0.8705
  580MOL0     H76528   7.010   3.632  11.370  0.5644 -1.1090 -1.7879
  580MOL0     H76529   7.044   3.699  11.206 -1.2916 -2.3103  0.9977
  580MOL0     H76530   6.806   3.812  11.229 -1.2848  0.9723  1.5392
  580MOL0     H76531   6.796   3.733  11.381 -2.3525  0.8089 -1.5328
  580MOL0     H76532   6.875   3.569  11.132 -0.1945  1.1893 -0.1793
  580MOL0     H76533   6.801   3.520  11.283 -0.7348 -0.9563 -0.3954
  580MOL0     H76534   6.669   3.570  11.041  1.5197 -1.2937  1.0246
  580MOL0     H76535   6.662   3.739  11.113  2.6338  1.3824  1.9042
  580MOL0     H76536   6.562   3.626  11.322 -0.5623  1.5990 -0.4546
  580MOL0     H76537   6.555   3.475  11.229  2.3772 -0.3953 -0.8819
  580MOL0     H76538   6.428   3.670  11.069 -0.0133  0.0622  0.6408
  580MOL0     H76539   6.349   3.542  11.160 -1.6887  1.5814  0.8235
  580MOL0     H76540   6.406   3.792  11.301 -1.4887  0.2840  2.0203
  580MOL0     H76541   6.318   3.658  11.360  1.0132 -2.9752 -0.6896
  580MOL0     H76542   7.132   3.904  11.118  0.1418  2.1027  0.2215
  580MOL0     H76543   7.309   3.949  10.953 -2.4707  0.7061  0.8824
  580MOL0     H76544   7.597   3.744  10.813 -0.2510  0.5146  0.7225
  580MOL0     H76545   7.685   3.685  10.598 -1.9051  1.1567  0.7689
  580MOL0     H76546   8.863   4.870  10.094  2.9491  1.1270  2.9920
  580MOL0     H76547   9.063   4.939  10.192 -0.8918 -1.0180  1.4757
  580MOL0     H76548   9.452   5.218  10.235  0.9848  0.6285  0.3623
  580MOL0     H76549   9.695   5.260  10.266 -0.7284 -0.2640 -3.2666
  580MOL0     H76550   9.928   5.265  10.341  2.0151 -0.3845  2.4768
  580MOL0     H76551   9.941   5.197  10.181 -1.0759  0.4888  1.2415
  580MOL0     H76552  10.170   5.240  10.263  3.6969 -1.0149  1.7176
  580MOL0     H76553  10.115   5.169  10.412 -1.9834  1.0470 -0.9359
  580MOL0     H76554  10.157   5.011  10.150  1.1486 -1.6320 -0.7554
  580MOL0     H76555  10.122   4.948  10.312 -0.6730  0.4031 -0.1309
  580MOL0     H76556  10.357   5.118  10.212  0.6433  0.1353  0.0304
  580MOL0     H76557  10.337   5.069  10.385 -1.7575  1.3503 -0.6271
  580MOL0     H76558  10.510   4.728  10.234  0.4511  1.4913 -1.0864
  580MOL0     H76559   9.754   4.827  10.304 -1.8818 -1.5939  0.7230
  580MOL0     H76560   9.539   4.789  10.237 -3.2429  1.0821  0.2141
  581MOL0     O76561   1.054   4.160   0.979 -0.8438 -0.0488 -1.1176
  581MOL0     C76562   1.114   4.212   0.887 -0.0183  0.2655 -0.5242
  581MOL0     O76563   1.062   4.304   0.794  0.2153  0.7386 -0.0130
  581MOL0     C76564   0.930   4.349   0.805  0.0411 -0.0372 -0.7577
  581MOL0     C76565   0.883   4.427   0.915 -0.1355  0.2746  0.9877
  581MOL0     C76566   0.756   4.469   0.921  0.0932 -0.6063 -0.2653
  581MOL0     C76567   0.663   4.444   0.819 -0.3509 -0.6448  0.0535
  581MOL0     O76568   0.540   4.494   0.822  1.3909  0.0171  0.0998
  581MOL0     C76569   0.459   4.438   0.930  0.6325  0.7652 -0.1595
  581MOL0     C76570   0.314   4.474   0.926  0.4851  0.2415 -1.0625
  581MOL0     C76571   0.257   4.472   0.791  0.1775  0.3601  1.2006
  581MOL0     C76572   0.104   4.466   0.789  0.3597 -0.3610 -0.4707
  581MOL0     C76573   0.063   4.433   0.653  0.4365  0.5913  0.0324
  581MOL0     C76574  -0.088   4.414   0.667 -0.4004  0.6779  0.5001
  581MOL0     C76575  -0.178   4.420   0.548  1.4369  0.4626  0.0424
  581MOL0     C76576  -0.318   4.371   0.568  0.2760  0.7857 -0.3008
  581MOL0     N76577  -0.409   4.480   0.605 -0.5619  0.0294  0.7503
  581MOL0     C76578  -0.462   4.511   0.732 -0.2539  0.3854 -0.3561
  581MOL0     C76579  -0.547   4.609   0.707 -0.3152  0.7222 -0.2516
  581MOL0     C76580  -0.646   4.668   0.804  0.4815 -0.0473  0.5981
  581MOL0     C76581  -0.785   4.621   0.763  0.4500 -0.0533 -0.2308
  581MOL0     C76582  -0.897   4.662   0.863 -0.3539 -0.3914 -0.5731
  581MOL0     C76583  -1.022   4.686   0.783  0.3794  0.1173 -0.4986
  581MOL0     O76584  -1.104   4.745   0.881 -0.9242  0.6476  0.2633
  581MOL0     C76585  -1.234   4.782   0.850 -0.1359  1.0855 -0.3253
  581MOL0     C76586  -1.308   4.840   0.955 -1.4691 -0.3525 -0.0037
  581MOL0     C76587  -1.445   4.862   0.940  1.0500  0.1183  0.1447
  581MOL0     C76588  -1.511   4.814   0.821 -0.0945  0.5670  0.8477
  581MOL0     C76589  -1.655   4.829   0.801  0.3057 -1.3216  0.0072
  581MOL0     O76590  -1.715   4.844   0.680  0.7302  0.7543  0.5416
  581MOL0     C76591  -1.848   4.879   0.678 -0.0646  0.7103 -0.1881
  581MOL0     C76592  -1.943   4.815   0.598  0.0439 -0.0051  1.2708
  581MOL0     C76593  -2.077   4.862   0.581 -0.6658  0.2831  0.7284
  581MOL0     C76594  -2.126   4.966   0.650  0.1579 -0.2802  0.6334
  581MOL0     O76595  -2.259   4.991   0.654  0.2763  0.1895  0.5272
  581MOL0     C76596  -2.316   5.035   0.771  0.7176 -0.0008  0.3801
  581MOL0     C76597  -2.478   5.033   0.768 -0.4636  0.4398 -0.1935
  581MOL0     C76598  -2.542   5.070   0.908 -0.2185  0.3228  0.1031
  581MOL0     C76599  -2.686   5.067   0.897 -0.0453  0.4050  0.5327
  581MOL0     C76600  -2.766   5.058   1.030  0.0633  0.2847  0.5835
  581MOL0     C76601  -2.915   5.010   1.016 -0.4271 -0.3431 -0.5962
  581MOL0     C76602  -2.998   5.028   1.148  0.3667 -1.0364  0.2445
  581MOL0     C76603  -3.136   4.978   1.108 -0.2757  1.4080  0.5319
  581MOL0    Cl76604  -3.198   4.939   1.265  0.3848  0.3602  0.2287
  581MOL0     C76605  -2.037   5.033   0.738 -0.6069 -0.1375 -0.0615
  581MOL0     C76606  -1.897   4.996   0.742 -0.6645 -0.6398 -0.0079
  581MOL0     O76607  -1.709   4.842   0.917  0.7262  0.4023  0.5350
  581MOL0     C76608  -1.433   4.762   0.716  0.1190 -0.6993 -0.5470
  581MOL0     C76609  -1.296   4.749   0.727 -0.2619 -0.6023  0.0962
  581MOL0     N76610  -0.544   4.646   0.574  0.3634  0.1935  0.4335
  581MOL0     N76611  -0.466   4.560   0.512  0.4470  0.0788  0.2199
  581MOL0     C76612   0.703   4.357   0.721  0.0643 -0.1996 -0.1171
  581MOL0     C76613   0.838   4.311   0.712 -0.7352 -0.4623  0.5697
  581MOL0     C76614   1.254   4.162   0.873 -0.2110  0.5616  0.1470
  581MOL0     C76615   1.332   4.211   0.768 -0.4884 -0.0345  0.6966
  581MOL0     C76616   1.467   4.185   0.756 -0.0819 -0.7921 -0.3946
  581MOL0     C76617   1.525   4.088   0.833  0.0100 -0.7375  0.0595
  581MOL0     O76618   1.656   4.057   0.811 -0.5373 -0.5026 -0.0450
  581MOL0     C76619   1.732   3.970   0.902  0.3230 -0.8860  0.0797
  581MOL0     C76620   1.730   3.822   0.858  0.2611  0.6450  0.2119
  581MOL0     C76621   1.840   3.785   0.758  0.7587  0.4612 -0.0110
  581MOL0     C76622   1.833   3.829   0.611 -0.5072 -0.0331 -0.0180
  581MOL0     C76623   1.717   3.774   0.544 -0.6662 -0.0724  0.2993
  581MOL0     C76624   1.608   3.734   0.506  0.5423  0.7281 -0.3621
  581MOL0     C76625   1.444   4.022   0.929  0.3164 -0.9958 -0.1762
  581MOL0     C76626   1.317   4.066   0.959  0.7073  0.0141 -0.5163
  581MOL0     H76627   0.951   4.466   0.991  0.8112  0.0860  0.2609
  581MOL0     H76628   0.739   4.521   1.014  0.5129  1.9734 -1.5327
  581MOL0     H76629   0.491   4.466   1.031 -1.8915 -0.7841  1.1795
  581MOL0     H76630   0.462   4.329   0.919 -1.3046  0.5954  0.5231
  581MOL0     H76631   0.302   4.572   0.973  1.2143 -0.3165  0.3516
  581MOL0     H76632   0.260   4.395   0.980  1.3759 -1.2411 -2.2554
  581MOL0     H76633   0.287   4.377   0.746 -0.4518  0.7604 -0.0966
  581MOL0     H76634   0.307   4.543   0.725  2.7254 -1.3618  1.1332
  581MOL0     H76635   0.068   4.384   0.853  0.6641 -0.3555 -0.2893
  581MOL0     H76636   0.078   4.565   0.827  2.8410 -0.5402  2.0511
  581MOL0     H76637   0.109   4.342   0.614  0.2970  0.3537  0.4051
  581MOL0     H76638   0.086   4.509   0.579 -0.6675 -0.3088 -1.2774
  581MOL0     H76639  -0.137   4.493   0.726  1.8884  2.4888  0.1453
  581MOL0     H76640  -0.105   4.315   0.709  2.9649  0.4914  1.7189
  581MOL0     H76641  -0.175   4.516   0.497 -0.1995 -0.0147 -1.0280
  581MOL0     H76642  -0.130   4.348   0.481  2.9427 -0.3530  1.8906
  581MOL0     H76643  -0.319   4.301   0.652 -1.1868  0.8054 -0.2682
  581MOL0     H76644  -0.349   4.323   0.474  1.1107  0.0695 -0.2237
  581MOL0     H76645  -0.444   4.465   0.829 -1.6970 -2.4860 -1.3413
  581MOL0     H76646  -0.652   4.777   0.797  0.9795 -0.0520 -0.0328
  581MOL0     H76647  -0.633   4.625   0.904 -0.0683 -1.3573  0.1322
  581MOL0     H76648  -0.774   4.512   0.771  2.6811  0.2017  0.7005
  581MOL0     H76649  -0.797   4.653   0.659  1.3361  4.9660  0.9521
  581MOL0     H76650  -0.913   4.589   0.943 -0.9524 -2.1696 -2.2529
  581MOL0     H76651  -0.873   4.753   0.918  2.0019 -1.7663  0.8669
  581MOL0     H76652  -1.073   4.592   0.762 -2.4805  0.9328  2.1276
  581MOL0     H76653  -1.006   4.738   0.688 -1.3114  0.0948 -0.8228
  581MOL0     H76654  -1.269   4.863   1.053  1.4515 -1.2933 -0.8452
  581MOL0     H76655  -1.491   4.907   1.028 -0.0435  0.9919 -0.8387
  581MOL0     H76656  -1.910   4.724   0.549 -0.5611  0.7449 -0.6128
  581MOL0     H76657  -2.140   4.802   0.516  0.9129 -4.2224  2.9513
  581MOL0     H76658  -2.283   5.139   0.775  3.7889 -0.8551 -0.3791
  581MOL0     H76659  -2.271   4.976   0.851  0.4027 -1.3337 -0.4021
  581MOL0     H76660  -2.514   4.935   0.736  1.9411 -0.5517 -0.1117
  581MOL0     H76661  -2.507   5.109   0.694  1.1613 -0.7254 -2.1352
  581MOL0     H76662  -2.502   5.168   0.935  1.7258  0.0044 -1.3873
  581MOL0     H76663  -2.506   4.998   0.982  3.5696  1.8161 -0.0768
  581MOL0     H76664  -2.714   5.160   0.846  1.3530  0.5371 -0.0349
  581MOL0     H76665  -2.712   4.985   0.830 -0.0844  0.3731  0.5873
  581MOL0     H76666  -2.757   5.151   1.088  2.5971  0.4924 -0.0135
  581MOL0     H76667  -2.717   4.984   1.094 -0.3197  0.7171  1.4039
  581MOL0     H76668  -2.897   4.905   0.991  3.5428 -0.7381  2.8022
  581MOL0     H76669  -2.962   5.062   0.931 -0.3075 -1.0204 -1.0839
  581MOL0     H76670  -2.958   4.970   1.233 -1.7112 -1.2699  1.1221
  581MOL0     H76671  -2.999   5.132   1.182  1.0856 -1.6781  2.3718
  581MOL0     H76672  -3.116   4.893   1.042  3.0060  0.7752  2.1389
  581MOL0     H76673  -3.195   5.051   1.051  0.1887  1.5686  0.2514
  581MOL0     H76674  -2.074   5.120   0.792 -0.8458 -0.1561 -0.1917
  581MOL0     H76675  -1.837   5.072   0.792 -2.8990  0.2596  1.4360
  581MOL0     H76676  -1.481   4.727   0.625 -1.8449 -1.7492  0.8233
  581MOL0     H76677  -1.252   4.697   0.642 -0.1935 -0.1724 -0.1378
  581MOL0     H76678   0.639   4.315   0.644 -0.3984  1.2895 -0.5773
  581MOL0     H76679   0.853   4.248   0.624 -3.2071  3.5878 -3.1799
  581MOL0     H76680   1.290   4.287   0.703  0.9952 -1.9376 -2.7655
  581MOL0     H76681   1.508   4.231   0.666 -0.8714 -3.2185 -2.0941
  581MOL0     H76682   1.686   3.977   1.002  1.3002 -0.7327  0.5278
  581MOL0     H76683   1.832   4.013   0.906 -0.1621  0.2257  0.6796
  581MOL0     H76684   1.749   3.757   0.944 -0.3877  0.8873  0.5507
  581MOL0     H76685   1.626   3.798   0.833 -0.9048  0.1541  4.6676
  581MOL0     H76686   1.852   3.676   0.756 -1.0860  0.2286 -1.0495
  581MOL0     H76687   1.931   3.838   0.789  1.1133 -1.0031  1.6153
  581MOL0     H76688   1.824   3.938   0.606  0.7041  0.0367 -1.2169
  581MOL0     H76689   1.926   3.805   0.558 -0.7251  0.3251 -0.5613
  581MOL0     H76690   1.520   3.681   0.475  1.4667 -0.3760 -1.1701
  581MOL0     H76691   1.474   3.930   0.979 -0.2344  0.3556  2.9220
  581MOL0     H76692   1.253   4.024   1.036 -1.5192  1.0347 -1.7194
  582MOL0     O76693   3.205   3.728  10.910 -0.4018 -0.1191  0.3557
  582MOL0     C76694   3.279   3.633  10.945  0.1930  0.1026 -0.1406
  582MOL0     O76695   3.260   3.559  11.058  0.4753 -0.0814 -0.0856
  582MOL0     C76696   3.138   3.589  11.133 -0.3485  0.1979  0.5074
  582MOL0     C76697   3.015   3.630  11.085  0.0420 -0.2292  0.2933
  582MOL0     C76698   2.914   3.673  11.172 -0.3107  1.1242 -0.5695
  582MOL0     C76699   2.929   3.661  11.310 -0.8205 -0.7634  0.0047
  582MOL0     O76700   2.842   3.694  11.412  0.2002  0.5230  0.8745
  582MOL0     C76701   2.704   3.703  11.375  0.9962  0.0279 -0.2076
  582MOL0     C76702   2.663   3.841  11.318 -0.3683 -0.3556 -0.7833
  582MOL0     C76703   2.517   3.875  11.372 -0.6369 -0.3951 -0.7738
  582MOL0     C76704   2.464   4.009  11.311  0.8683 -0.4527 -0.0921
  582MOL0     C76705   2.320   4.047  11.378  0.3814 -0.1561  0.1675
  582MOL0     C76706   2.321   4.059  11.530 -0.1835 -0.1264  0.2884
  582MOL0     C76707   2.182   4.092  11.582 -0.3100  0.5022  0.0125
  582MOL0     C76708   2.134   4.224  11.519 -0.1794 -0.1539  0.7361
  582MOL0     N76709   2.016   4.275  11.583  0.5996  0.4521  0.3909
  582MOL0     C76710   1.906   4.190  11.603 -1.0204  0.4504  0.3918
  582MOL0     C76711   1.812   4.276  11.643 -0.2792  0.3554 -0.0604
  582MOL0     C76712   1.674   4.238  11.693 -0.4439 -0.3409  0.7066
  582MOL0     C76713   1.566   4.346  11.712  0.3391 -0.1278 -0.1854
  582MOL0     C76714   1.547   4.438  11.599  0.1382 -0.0256 -1.1778
  582MOL0     C76715   1.416   4.516  11.599  0.3530  0.7332 -0.2971
  582MOL0     O76716   1.302   4.432  11.579  0.0436 -0.1132  0.2232
  582MOL0     C76717   1.173   4.486  11.586 -0.1761  0.3358  1.3889
  582MOL0     C76718   1.153   4.621  11.574 -0.5730 -0.0499 -0.1474
  582MOL0     C76719   1.018   4.670  11.589  0.0327  0.2163 -0.3852
  582MOL0     C76720   0.909   4.570  11.585 -0.0078 -0.9434  0.0563
  582MOL0     C76721   0.772   4.613  11.582  0.2606  0.3001  0.6552
  582MOL0     O76722   0.684   4.515  11.572  0.0469  0.1126  0.1548
  582MOL0     C76723   0.554   4.550  11.549  0.9595 -0.5799 -0.0446
  582MOL0     C76724   0.476   4.606  11.654 -0.1969  0.0039 -0.6989
  582MOL0     C76725   0.336   4.642  11.635 -0.3078  0.6074  0.1108
  582MOL0     C76726   0.287   4.638  11.501  0.3982 -0.2850  0.3113
  582MOL0     O76727   0.161   4.678  11.504  0.3654  0.8835 -0.0342
  582MOL0     C76728   0.096   4.692  11.371  0.0840 -0.3287 -0.7668
  582MOL0     C76729  -0.052   4.676  11.402  0.3578  0.4453 -0.3130
  582MOL0     C76730  -0.113   4.781  11.499  1.3665 -0.9383  0.6984
  582MOL0     C76731  -0.097   4.920  11.434  0.4356  0.2124 -0.5682
  582MOL0     C76732  -0.159   4.938  11.300  0.5436 -0.2125 -0.0322
  582MOL0     C76733  -0.309   4.939  11.290  0.7346  0.3815 -1.3557
  582MOL0     C76734  -0.372   4.997  11.166  0.4988 -0.6745  0.3843
  582MOL0     C76735  -0.520   4.985  11.168 -1.1990  0.2741 -0.2834
  582MOL0    Cl76736  -0.602   5.074  11.035  0.2338 -0.2606 -0.0407
  582MOL0     C76737   0.370   4.595  11.391 -0.6064 -0.4317 -0.4457
  582MOL0     C76738   0.497   4.547  11.417 -0.9303  0.2890  0.3739
  582MOL0     O76739   0.757   4.736  11.575  0.8470  0.0436  0.0121
  582MOL0     C76740   0.942   4.438  11.588  0.0651  0.4790 -1.2775
  582MOL0     C76741   1.072   4.398  11.591  0.6087 -0.2150  0.1430
  582MOL0     N76742   1.872   4.397  11.668 -0.4874 -0.7450 -0.4635
  582MOL0     N76743   1.995   4.400  11.627  0.2350 -0.0370 -0.2810
  582MOL0     C76744   3.055   3.624  11.359  0.9142  0.2551 -0.2631
  582MOL0     C76745   3.159   3.590  11.268  0.1174  0.5194 -0.1826
  582MOL0     C76746   3.393   3.595  10.858  0.2466  0.8324  0.2444
  582MOL0     C76747   3.494   3.519  10.915  0.0767  0.4631 -0.5495
  582MOL0     C76748   3.619   3.497  10.845 -0.4521  0.2433  1.2644
  582MOL0     C76749   3.632   3.550  10.713 -0.5838  0.1044  0.1987
  582MOL0     O76750   3.741   3.521  10.633 -0.9210 -0.2846 -0.9224
  582MOL0     C76751   3.788   3.388  10.612 -0.5585  0.2317  0.4895
  582MOL0     C76752   3.697   3.303  10.523  0.2070 -0.1443  0.7924
  582MOL0     C76753   3.565   3.266  10.599  0.2947  0.4548 -0.0711
  582MOL0     C76754   3.497   3.144  10.545 -0.0404  0.1045  0.6438
  582MOL0     C76755   3.521   3.026  10.625 -0.6902  0.6484 -0.0020
  582MOL0     C76756   3.554   2.929  10.684  0.2196  0.0399  0.1803
  582MOL0     C76757   3.529   3.625  10.654  0.0179  0.8502 -0.2868
  582MOL0     C76758   3.408   3.653  10.729 -0.3577 -0.0895 -0.8789
  582MOL0     H76759   2.999   3.630  10.977  2.1919  2.6530 -0.1402
  582MOL0     H76760   2.824   3.712  11.126 -0.2208  0.9417 -0.9046
  582MOL0     H76761   2.634   3.681  11.456 -0.1296 -1.7674 -1.5974
  582MOL0     H76762   2.674   3.641  11.291  1.5728  3.1273 -2.9103
  582MOL0     H76763   2.656   3.837  11.209 -3.4964  0.1944 -0.7105
  582MOL0     H76764   2.727   3.926  11.346 -2.1807  0.5067  0.9902
  582MOL0     H76765   2.534   3.898  11.477 -2.9654  2.4971 -0.9058
  582MOL0     H76766   2.442   3.796  11.360 -0.7359 -0.5195  0.5502
  582MOL0     H76767   2.528   4.097  11.315  1.0753 -0.6506  1.6131
  582MOL0     H76768   2.447   4.001  11.203  0.4621  2.6726 -0.3400
  582MOL0     H76769   2.243   3.975  11.346 -1.2029  0.3299  2.6151
  582MOL0     H76770   2.296   4.143  11.331  0.8881  0.7941  1.7967
  582MOL0     H76771   2.393   4.138  11.554 -0.8676 -0.0407  2.2436
  582MOL0     H76772   2.350   3.963  11.575 -0.6736 -0.1879  0.4898
  582MOL0     H76773   2.109   4.017  11.550 -0.3903  0.8290 -0.5706
  582MOL0     H76774   2.192   4.097  11.691 -0.9933  1.0655  0.0579
  582MOL0     H76775   2.103   4.216  11.415  1.7489 -1.7429  0.2070
  582MOL0     H76776   2.212   4.299  11.533 -0.2907  0.1337 -0.1387
  582MOL0     H76777   1.882   4.084  11.611 -0.2379  0.3359  1.4149
  582MOL0     H76778   1.683   4.191  11.792  0.5305  0.2697  0.9210
  582MOL0     H76779   1.626   4.160  11.634  2.2500  0.2416 -2.5220
  582MOL0     H76780   1.604   4.416  11.787  1.5973 -0.4342 -0.5150
  582MOL0     H76781   1.475   4.291  11.735  0.4545 -0.3176 -0.1863
  582MOL0     H76782   1.626   4.514  11.601 -0.8073  1.0574 -2.6855
  582MOL0     H76783   1.547   4.383  11.504 -4.4266 -0.5408 -1.0934
  582MOL0     H76784   1.425   4.586  11.515 -1.6845 -0.3466 -1.5248
  582MOL0     H76785   1.402   4.568  11.694  3.0285 -1.4445  1.4366
  582MOL0     H76786   1.236   4.691  11.569  0.0848 -0.8936 -2.0047
  582MOL0     H76787   0.992   4.775  11.592 -2.6985 -0.2747 -2.5933
  582MOL0     H76788   0.521   4.610  11.753 -1.1507  0.3920 -0.2647
  582MOL0     H76789   0.282   4.672  11.724  0.0698  1.1884  0.1511
  582MOL0     H76790   0.123   4.607  11.308  1.7236 -0.6625  0.3186
  582MOL0     H76791   0.112   4.785  11.316 -1.8511 -0.2477 -1.2772
  582MOL0     H76792  -0.080   4.576  11.435  0.0246 -1.1249 -4.6906
  582MOL0     H76793  -0.112   4.670  11.311  0.5089 -1.3612 -0.3272
  582MOL0     H76794  -0.063   4.773  11.596  1.2298 -2.6525  0.6586
  582MOL0     H76795  -0.219   4.757  11.509  1.1714 -0.8831 -0.9254
  582MOL0     H76796  -0.137   5.000  11.498  2.0589  2.3621 -2.0721
  582MOL0     H76797   0.008   4.932  11.407 -0.4144  3.4151 -3.2395
  582MOL0     H76798  -0.119   4.863  11.231 -0.9012 -0.5608 -0.5166
  582MOL0     H76799  -0.127   5.040  11.279 -0.7232  0.3425  0.6514
  582MOL0     H76800  -0.349   4.994  11.375  3.0057  1.6004 -1.0085
  582MOL0     H76801  -0.345   4.837  11.308  1.0121  0.6607  1.1383
  582MOL0     H76802  -0.347   5.104  11.164 -3.6670  0.5071 -2.8110
  582MOL0     H76803  -0.325   4.956  11.076 -0.4095  0.7417 -0.7888
  582MOL0     H76804  -0.555   5.022  11.264  0.8125 -0.7363  0.9096
  582MOL0     H76805  -0.543   4.880  11.149 -1.2107  0.0931  0.7084
  582MOL0     H76806   0.332   4.576  11.292  1.8525 -1.6182 -1.2253
  582MOL0     H76807   0.562   4.509  11.339  1.3178  1.0350  1.7739
  582MOL0     H76808   0.873   4.356  11.603  0.4647  0.5399  1.5174
  582MOL0     H76809   1.099   4.294  11.608 -0.7337 -0.4184  1.2349
  582MOL0     H76810   3.069   3.619  11.466 -0.5860 -0.4910 -0.0751
  582MOL0     H76811   3.260   3.586  11.310 -0.9944  1.0655  2.8483
  582MOL0     H76812   3.485   3.482  11.016  0.5808  1.5558 -0.0947
  582MOL0     H76813   3.690   3.441  10.904  0.4513  1.7553  1.6655
  582MOL0     H76814   3.807   3.340  10.708 -0.3786  1.2444  0.9739
  582MOL0     H76815   3.886   3.381  10.566  1.3184  5.8920  2.7891
  582MOL0     H76816   3.669   3.354  10.431 -3.3849 -1.8628  0.7459
  582MOL0     H76817   3.745   3.208  10.496  0.4249 -0.2653  1.5818
  582MOL0     H76818   3.490   3.345  10.592  1.0924  1.2483  0.1594
  582MOL0     H76819   3.587   3.271  10.706  2.6692 -0.7834 -0.4201
  582MOL0     H76820   3.389   3.157  10.558 -0.1860 -0.3338 -0.0807
  582MOL0     H76821   3.513   3.120  10.440  2.0157 -0.3695  1.0276
  582MOL0     H76822   3.569   2.838  10.739 -0.1578 -1.0049 -1.3672
  582MOL0     H76823   3.527   3.654  10.549  1.0353  1.2183 -0.2220
  582MOL0     H76824   3.332   3.728  10.709 -0.7019  0.7480  2.8793
  583MOL0     O76825  10.818   3.948   9.242 -0.6989 -0.4288 -0.5409
  583MOL0     C76826  10.791   4.069   9.243  0.7513 -0.0963 -0.3454
  583MOL0     O76827  10.659   4.109   9.226 -0.5253  0.2741 -0.4130
  583MOL0     C76828  10.549   4.041   9.280  0.0292 -0.4310 -0.0170
  583MOL0     C76829  10.559   3.948   9.391  0.5038 -0.1129  0.3822
  583MOL0     C76830  10.441   3.887   9.433 -0.4234 -0.5993 -0.0584
  583MOL0     C76831  10.318   3.909   9.366  0.2785  0.2353  0.8534
  583MOL0     O76832  10.200   3.844   9.397 -0.0966 -0.2246  0.1205
  583MOL0     C76833  10.180   3.788   9.527  0.0694 -0.4207 -0.0483
  583MOL0     C76834  10.029   3.773   9.543 -0.4991 -0.7789  0.2415
  583MOL0     C76835   9.933   3.899   9.541 -1.3514 -0.1565  0.0294
  583MOL0     C76836   9.798   3.846   9.526  0.3081 -1.1179 -0.2537
  583MOL0     C76837   9.690   3.961   9.556 -0.6952 -0.1020  0.4292
  583MOL0     C76838   9.691   4.079   9.457 -0.1606 -0.0626  0.6110
  583MOL0     C76839   9.596   4.184   9.500 -0.0695 -0.7452  0.0636
  583MOL0     C76840   9.596   4.309   9.397  0.3709  0.0131  0.3513
  583MOL0     N76841   9.597   4.270   9.253  0.5665  0.2661 -0.1920
  583MOL0     C76842   9.633   4.363   9.151 -0.0234  0.1756  0.0664
  583MOL0     C76843   9.613   4.307   9.039 -0.7197  1.1393  0.2689
  583MOL0     C76844   9.652   4.365   8.908 -0.0118 -0.3286  0.0448
  583MOL0     C76845   9.804   4.351   8.886  0.5484  0.4480 -0.4661
  583MOL0     C76846   9.836   4.414   8.750 -0.1844 -0.1921  0.9119
  583MOL0     C76847   9.989   4.428   8.733  0.3871  0.5200 -0.1537
  583MOL0     O76848  10.020   4.478   8.607  0.8924  0.6770  0.2396
  583MOL0     C76849  10.144   4.524   8.579  0.6150 -0.8850 -0.3061
  583MOL0     C76850  10.248   4.505   8.665 -0.0932 -0.3100 -0.5094
  583MOL0     C76851  10.379   4.537   8.634 -0.2882 -0.2017  0.1619
  583MOL0     C76852  10.410   4.602   8.502 -0.4640  0.5421  0.1466
  583MOL0     C76853  10.549   4.637   8.472  0.0976 -0.1626 -0.4131
  583MOL0     O76854  10.572   4.656   8.340 -0.1449 -1.2404  0.2298
  583MOL0     C76855  10.698   4.687   8.292  0.4565  0.4256 -0.2913
  583MOL0     C76856  10.738   4.819   8.272  1.0226  0.1028  0.3708
  583MOL0     C76857  10.870   4.845   8.229 -0.8903  0.1681 -0.2018
  583MOL0     C76858  10.963   4.733   8.226 -0.2946  0.9578 -0.2434
  583MOL0     O76859  11.097   4.748   8.208  0.2214  0.3668  0.6497
  583MOL0     C76860  11.127   4.779   8.072 -0.4191 -0.4104  0.4886
  583MOL0     C76861  11.275   4.837   8.072 -0.0378  0.4188 -0.2175
  583MOL0     C76862  11.360   4.718   8.115 -0.0695  0.1528 -0.9373
  583MOL0     C76863  11.513   4.736   8.110  0.1355  1.4836  0.5252
  583MOL0     C76864  11.584   4.598   8.116  0.2302 -0.1840  0.2497
  583MOL0     C76865  11.738   4.606   8.109 -0.2782  0.1562 -0.8696
  583MOL0     C76866  11.808   4.735   8.151  0.3104  1.0467  0.2646
  583MOL0     C76867  11.962   4.730   8.125 -0.1904 -0.3664  0.5914
  583MOL0    Cl76868  12.046   4.618   8.239  0.2954  0.1047 -0.2015
  583MOL0     C76869  10.926   4.606   8.248 -0.4151 -0.1664 -0.3398
  583MOL0     C76870  10.788   4.588   8.287  0.0834 -0.0910 -0.4067
  583MOL0     O76871  10.629   4.652   8.562  0.3232  0.0505  0.0277
  583MOL0     C76872  10.307   4.611   8.406 -0.2183 -0.4602 -0.5814
  583MOL0     C76873  10.175   4.583   8.455  1.1757  0.3817  0.9141
  583MOL0     N76874   9.562   4.177   9.060 -1.0987  0.6449  0.3301
  583MOL0     N76875   9.530   4.170   9.185  0.8843  0.1427  0.8506
  583MOL0     C76876  10.312   3.995   9.260 -0.4563  0.5952  0.1492
  583MOL0     C76877  10.430   4.061   9.221 -1.0559 -0.5885 -0.1006
  583MOL0     C76878  10.898   4.162   9.244  0.2650 -0.5869  0.3577
  583MOL0     C76879  11.027   4.128   9.279  0.1791 -0.1652  0.2625
  583MOL0     C76880  11.124   4.217   9.286 -0.7771  0.5862 -0.1798
  583MOL0     C76881  11.106   4.347   9.240 -0.5967 -0.3990 -0.8440
  583MOL0     O76882  11.202   4.448   9.233 -0.3603  0.5374 -0.0087
  583MOL0     C76883  11.334   4.410   9.197  0.1415  0.1522 -0.0022
  583MOL0     C76884  11.418   4.531   9.159 -0.0172  0.4684 -0.8533
  583MOL0     C76885  11.563   4.499   9.132 -0.2987  0.4038 -0.3459
  583MOL0     C76886  11.587   4.404   9.019  0.7084  0.2715 -0.4855
  583MOL0     C76887  11.730   4.380   9.017 -0.0833  0.2241  0.5812
  583MOL0     C76888  11.847   4.333   9.024 -0.4077  0.5806  0.8282
  583MOL0     C76889  10.982   4.387   9.206  0.4493  0.4901 -0.0241
  583MOL0     C76890  10.881   4.293   9.197 -0.3326  0.7463  0.2213
  583MOL0     H76891  10.653   3.929   9.444  0.3907  0.0178  0.6338
  583MOL0     H76892  10.435   3.803   9.501  2.2662  0.0373  1.1009
  583MOL0     H76893  10.215   3.857   9.604 -6.0492  3.0003  0.3310
  583MOL0     H76894  10.240   3.697   9.533  3.0993  1.2924 -2.0644
  583MOL0     H76895  10.005   3.716   9.633  0.0827 -1.3399  0.0451
  583MOL0     H76896   9.998   3.699   9.468 -2.9195  0.5468 -0.1855
  583MOL0     H76897   9.958   3.951   9.448  0.6467  0.9503  1.1165
  583MOL0     H76898   9.950   3.948   9.637 -0.1092 -0.8745  0.2004
  583MOL0     H76899   9.777   3.792   9.433 -1.7282 -0.3622 -0.2943
  583MOL0     H76900   9.779   3.773   9.605  1.1721  0.3319  1.3489
  583MOL0     H76901   9.711   3.995   9.658 -0.4158 -1.1994  0.7468
  583MOL0     H76902   9.589   3.920   9.544  0.3744 -2.3191 -2.0820
  583MOL0     H76903   9.652   4.045   9.361  4.7595  2.8501 -2.8928
  583MOL0     H76904   9.793   4.109   9.433 -0.6422 -0.0532 -1.6092
  583MOL0     H76905   9.500   4.133   9.510  0.1421 -0.9986  0.9389
  583MOL0     H76906   9.630   4.204   9.603  0.3973 -0.6114 -0.1144
  583MOL0     H76907   9.697   4.348   9.412  0.7955 -1.2353  0.8286
  583MOL0     H76908   9.520   4.384   9.420 -0.2903 -0.9971  1.5834
  583MOL0     H76909   9.668   4.466   9.151 -3.3738  1.4969 -2.7749
  583MOL0     H76910   9.618   4.469   8.899 -2.0946 -1.1238 -2.6534
  583MOL0     H76911   9.597   4.311   8.830  1.7134  2.7145 -3.6204
  583MOL0     H76912   9.826   4.245   8.873  1.2899  0.6931 -1.3125
  583MOL0     H76913   9.868   4.403   8.958  1.7665 -0.2027 -1.0495
  583MOL0     H76914   9.794   4.367   8.661  1.3280  1.3064 -0.6776
  583MOL0     H76915   9.795   4.516   8.756  1.9031  0.6809  1.3234
  583MOL0     H76916  10.033   4.328   8.738  1.7679  1.0378 -1.2036
  583MOL0     H76917  10.030   4.492   8.812  3.5736  2.4081 -3.0395
  583MOL0     H76918  10.226   4.468   8.764 -0.1226 -1.7222 -1.0187
  583MOL0     H76919  10.462   4.547   8.704  1.0877  1.1109 -1.5729
  583MOL0     H76920  10.665   4.898   8.282 -1.5030 -1.6815 -2.3377
  583MOL0     H76921  10.910   4.943   8.207 -0.9606 -0.2923 -2.6983
  583MOL0     H76922  11.072   4.861   8.026  0.2647 -0.4094 -0.3455
  583MOL0     H76923  11.124   4.689   8.011  0.0655 -0.2769  0.2632
  583MOL0     H76924  11.281   4.916   8.148 -2.2626  1.6003 -1.1543
  583MOL0     H76925  11.307   4.867   7.972 -0.0450  0.5078 -0.1929
  583MOL0     H76926  11.334   4.643   8.039  0.5764 -2.1638  1.0155
  583MOL0     H76927  11.351   4.665   8.210 -0.0354 -0.0394 -1.0403
  583MOL0     H76928  11.551   4.798   8.028 -2.1544  0.3936 -1.4873
  583MOL0     H76929  11.539   4.790   8.202  1.0681  1.0115  0.5616
  583MOL0     H76930  11.553   4.529   8.036 -1.4033 -0.7611  1.3186
  583MOL0     H76931  11.557   4.534   8.201  3.3895 -2.3623 -0.1866
  583MOL0     H76932  11.755   4.584   8.003 -0.9823 -1.6485 -0.6373
  583MOL0     H76933  11.783   4.521   8.160  1.0547  0.7998 -0.9201
  583MOL0     H76934  11.771   4.817   8.088 -1.2773  0.8182  0.8419
  583MOL0     H76935  11.793   4.756   8.257 -1.0040 -1.9929  0.7766
  583MOL0     H76936  11.999   4.832   8.134  0.3979 -0.1168 -3.1717
  583MOL0     H76937  11.995   4.709   8.023  2.4168 -0.6687  1.4383
  583MOL0     H76938  10.998   4.525   8.260  0.7589  1.0553  1.3835
  583MOL0     H76939  10.761   4.486   8.311  0.7132 -0.8652 -2.7110
  583MOL0     H76940  10.320   4.641   8.303  1.1454 -1.4231 -0.7121
  583MOL0     H76941  10.083   4.583   8.398 -0.7116 -1.5974  3.7303
  583MOL0     H76942  10.211   4.003   9.221 -0.3343 -0.5233 -0.4328
  583MOL0     H76943  10.423   4.125   9.134 -1.4078  0.3377  0.5966
  583MOL0     H76944  11.046   4.024   9.304  0.2084 -0.0856  0.5678
  583MOL0     H76945  11.223   4.182   9.316 -2.2484 -1.3723  3.0185
  583MOL0     H76946  11.339   4.337   9.115  0.6928 -0.7035  0.7785
  583MOL0     H76947  11.380   4.368   9.286  0.2222  0.1302 -0.0545
  583MOL0     H76948  11.382   4.566   9.062  0.5615 -2.7418 -2.3646
  583MOL0     H76949  11.410   4.596   9.246 -0.3390  1.1047 -1.3533
  583MOL0     H76950  11.602   4.450   9.221 -0.3842  1.5320  0.3424
  583MOL0     H76951  11.612   4.597   9.121  1.1277 -0.2960 -0.4189
  583MOL0     H76952  11.520   4.317   9.019 -0.8942  1.4633 -0.0909
  583MOL0     H76953  11.552   4.449   8.925 -1.4553 -0.6657 -0.1786
  583MOL0     H76954  11.944   4.288   9.025 -1.4835 -2.1690 -1.9959
  583MOL0     H76955  10.962   4.492   9.190  1.8571  0.6625 -0.8280
  583MOL0     H76956  10.781   4.316   9.162 -0.5017 -0.6009 -0.2660
  584MOL0     O76957   3.242   3.974   8.448 -0.3463  0.6729  0.3106
  584MOL0     C76958   3.260   3.997   8.561  0.1275 -0.5913 -1.2002
  584MOL0     O76959   3.173   4.065   8.647  0.1524 -0.6811  0.0878
  584MOL0     C76960   3.057   4.120   8.592  0.2418  0.2350  0.2546
  584MOL0     C76961   2.926   4.056   8.596 -0.1820 -0.0455  0.4452
  584MOL0     C76962   2.821   4.115   8.529 -0.0879  0.9011  0.3798
  584MOL0     C76963   2.835   4.236   8.459 -0.2884  0.0914  0.3807
  584MOL0     O76964   2.726   4.303   8.413 -0.5292  0.2615 -0.0383
  584MOL0     C76965   2.607   4.218   8.385  0.1646 -0.5455 -0.1286
  584MOL0     C76966   2.510   4.298   8.286 -0.6092 -0.3959 -0.5794
  584MOL0     C76967   2.387   4.219   8.258  0.1355 -0.3674  0.5148
  584MOL0     C76968   2.287   4.323   8.194  0.3478  0.2060 -0.4354
  584MOL0     C76969   2.149   4.255   8.160 -0.3416  0.4636  0.5573
  584MOL0     C76970   2.046   4.340   8.084 -0.5651 -1.4176  0.8296
  584MOL0     C76971   1.916   4.259   8.070  0.3002 -0.1784  0.4656
  584MOL0     C76972   1.831   4.324   7.960 -0.3108  0.3292  0.5829
  584MOL0     N76973   1.693   4.257   7.960  0.8550 -0.0572  0.0478
  584MOL0     C76974   1.652   4.126   7.923  0.6674  0.2385  0.0116
  584MOL0     C76975   1.512   4.132   7.930  0.0497 -1.0062  0.6328
  584MOL0     C76976   1.421   4.017   7.901 -0.6282  0.7039 -0.1242
  584MOL0     C76977   1.323   4.056   7.788 -0.0753 -0.2465  0.0165
  584MOL0     C76978   1.248   3.932   7.734  0.4669  0.1637 -0.3100
  584MOL0     C76979   1.128   3.976   7.654 -0.2052 -0.1696 -0.5471
  584MOL0     O76980   1.047   3.861   7.612 -0.1950  0.6354 -0.4389
  584MOL0     C76981   0.927   3.892   7.559  1.1669  0.0951  0.4148
  584MOL0     C76982   0.898   4.013   7.489 -0.1799  0.3089  0.2291
  584MOL0     C76983   0.769   4.040   7.451 -0.0598  0.2355 -0.2679
  584MOL0     C76984   0.662   3.948   7.474 -0.3497  0.6752 -0.0471
  584MOL0     C76985   0.529   3.969   7.420 -0.7951 -0.3275 -0.5485
  584MOL0     O76986   0.432   3.883   7.467  0.2347  0.1018 -0.5822
  584MOL0     C76987   0.308   3.903   7.416  0.1425 -0.1411  0.1321
  584MOL0     C76988   0.270   3.812   7.319 -1.0196  0.0463  0.0027
  584MOL0     C76989   0.135   3.816   7.273 -0.9972  1.1740  0.5593
  584MOL0     C76990   0.042   3.903   7.333 -0.6511  0.8604 -0.2887
  584MOL0     O76991  -0.089   3.917   7.295  0.1451  0.1898 -0.6569
  584MOL0     C76992  -0.142   3.837   7.192  0.2783  0.2635  0.5959
  584MOL0     C76993  -0.283   3.876   7.160 -0.0733 -0.1778 -0.8366
  584MOL0     C76994  -0.302   4.007   7.083 -0.2331  0.1814  0.0939
  584MOL0     C76995  -0.452   4.039   7.061  0.1671  0.2640  1.0442
  584MOL0     C76996  -0.473   4.154   6.959 -0.1476  0.1814 -0.2039
  584MOL0     C76997  -0.626   4.171   6.948 -1.0489 -0.3457 -0.1078
  584MOL0     C76998  -0.663   4.289   6.851  0.0500 -0.8818 -0.4271
  584MOL0     C76999  -0.802   4.282   6.791 -0.9899  0.3176  0.2301
  584MOL0    Cl77000  -0.931   4.302   6.913 -0.0087 -0.3827 -0.1746
  584MOL0     C77001   0.086   3.992   7.436  0.1707 -0.1342 -0.6963
  584MOL0     C77002   0.222   3.993   7.478  0.5744 -0.2239  0.6817
  584MOL0     O77003   0.509   4.078   7.357 -0.7216 -0.4555 -0.2840
  584MOL0     C77004   0.696   3.818   7.521  0.2084 -0.6145 -0.1005
  584MOL0     C77005   0.817   3.802   7.577  0.3076  0.0132 -0.7676
  584MOL0     N77006   1.470   4.262   7.959  0.3961 -0.3608  0.0723
  584MOL0     N77007   1.578   4.329   7.979 -0.6915 -0.3222  0.1463
  584MOL0     C77008   2.961   4.294   8.463  0.6337 -0.7641  0.4565
  584MOL0     C77009   3.070   4.245   8.524  0.6252  0.3631 -1.0403
  584MOL0     C77010   3.388   3.957   8.619 -0.6641 -0.3276 -0.3395
  584MOL0     C77011   3.471   3.860   8.554 -0.3670  0.3023 -0.4876
  584MOL0     C77012   3.588   3.811   8.623 -0.5808 -0.2636 -0.0476
  584MOL0     C77013   3.621   3.858   8.751  0.0653  0.5632 -1.0895
  584MOL0     O77014   3.715   3.780   8.823 -0.3790  0.2277  0.6919
  584MOL0     C77015   3.722   3.783   8.966  0.0146 -0.7154 -0.0068
  584MOL0     C77016   3.871   3.780   8.995 -0.4590  0.7344 -0.1766
  584MOL0     C77017   3.917   3.636   8.977 -0.4985 -0.4649  0.4714
  584MOL0     C77018   4.052   3.622   9.051 -0.0080  0.6259  0.4383
  584MOL0     C77019   4.154   3.712   8.993  0.5781  0.0955  0.5320
  584MOL0     C77020   4.239   3.762   8.918 -0.2762 -0.4345 -0.3804
  584MOL0     C77021   3.552   3.967   8.806 -0.4538  0.1018  0.2130
  584MOL0     C77022   3.439   4.020   8.737  0.6875 -0.4838  0.0755
  584MOL0     H77023   2.917   3.966   8.657 -2.1342  0.7515  1.4065
  584MOL0     H77024   2.729   4.058   8.539  1.2148 -1.8191 -1.7857
  584MOL0     H77025   2.561   4.189   8.480  1.5413 -6.6920 -0.8943
  584MOL0     H77026   2.648   4.129   8.337  0.3735 -1.2326  1.2521
  584MOL0     H77027   2.567   4.316   8.194 -0.0080  0.8685  0.0103
  584MOL0     H77028   2.489   4.396   8.331 -2.9527 -0.3304 -1.6672
  584MOL0     H77029   2.340   4.182   8.350 -1.3905  1.3946  0.5238
  584MOL0     H77030   2.405   4.138   8.187 -0.2355  0.0210 -0.0322
  584MOL0     H77031   2.261   4.394   8.273 -1.9153  1.4447 -2.2088
  584MOL0     H77032   2.341   4.365   8.108 -0.2634 -1.1543 -1.5179
  584MOL0     H77033   2.103   4.207   8.247 -1.1695 -1.7449 -1.0195
  584MOL0     H77034   2.157   4.167   8.096 -3.0278 -0.8312  1.8146
  584MOL0     H77035   2.094   4.368   7.990 -1.0509 -1.6177  0.5154
  584MOL0     H77036   2.034   4.431   8.142  0.8604  0.1834 -1.2540
  584MOL0     H77037   1.939   4.157   8.037  2.7558  0.5652 -0.3298
  584MOL0     H77038   1.855   4.261   8.161  0.1693  1.9012  0.3675
  584MOL0     H77039   1.879   4.334   7.862 -1.7375 -0.6109 -0.2557
  584MOL0     H77040   1.820   4.432   7.972  2.1746  0.8637 -1.2642
  584MOL0     H77041   1.714   4.041   7.897 -1.9825 -1.2642 -1.8311
  584MOL0     H77042   1.364   3.985   7.989 -1.6127 -1.3794 -1.4455
  584MOL0     H77043   1.480   3.928   7.877  0.2261  0.9449  0.9862
  584MOL0     H77044   1.380   4.101   7.705  0.0944 -1.0222 -0.2997
  584MOL0     H77045   1.243   4.122   7.821  2.3902  2.4804  0.9297
  584MOL0     H77046   1.322   3.885   7.668 -0.2155 -1.2511 -0.1044
  584MOL0     H77047   1.219   3.854   7.805 -1.8879  0.6229 -0.6824
  584MOL0     H77048   1.157   4.042   7.572  0.3105 -1.4923 -1.4689
  584MOL0     H77049   1.070   4.034   7.726  0.7812  1.6988 -1.1772
  584MOL0     H77050   0.976   4.084   7.466 -1.4118  1.0995 -1.8549
  584MOL0     H77051   0.740   4.132   7.401 -2.0011 -0.6125 -0.7862
  584MOL0     H77052   0.341   3.752   7.263 -1.8839 -1.1050  0.1071
  584MOL0     H77053   0.118   3.745   7.193 -2.4397  0.1335  1.7298
  584MOL0     H77054  -0.139   3.729   7.210  0.0660 -0.0384 -1.0037
  584MOL0     H77055  -0.076   3.851   7.106 -0.1287  0.0577  0.2460
  584MOL0     H77056  -0.350   3.892   7.245 -1.9764 -0.7619 -2.1609
  584MOL0     H77057  -0.315   3.791   7.099 -0.8802 -0.7135  0.2958
  584MOL0     H77058  -0.245   4.016   6.990 -1.5513  1.4353 -0.6256
  584MOL0     H77059  -0.265   4.093   7.139 -3.4258  0.7358  1.5602
  584MOL0     H77060  -0.499   3.945   7.027 -0.4281 -0.3594  3.3970
  584MOL0     H77061  -0.503   4.062   7.155 -1.1054  0.2663  0.3863
  584MOL0     H77062  -0.430   4.122   6.864 -0.1735  0.3278 -0.2651
  584MOL0     H77063  -0.430   4.250   6.986 -0.4444  1.0019 -2.4431
  584MOL0     H77064  -0.666   4.195   7.046  0.4142  1.7796  0.0208
  584MOL0     H77065  -0.664   4.073   6.917 -0.8218  0.0766 -1.8171
  584MOL0     H77066  -0.658   4.386   6.901 -0.6299  0.5925 -3.0088
  584MOL0     H77067  -0.585   4.296   6.774  0.3901 -0.5186 -0.0538
  584MOL0     H77068  -0.816   4.187   6.738 -5.7461  0.5613  0.5876
  584MOL0     H77069  -0.806   4.354   6.708  1.5577  1.1864  0.7651
  584MOL0     H77070   0.017   4.049   7.498  1.4055  0.0524  0.5648
  584MOL0     H77071   0.244   4.062   7.560 -1.7379 -0.2287  1.3574
  584MOL0     H77072   0.619   3.742   7.530  0.4293 -0.6608  1.6491
  584MOL0     H77073   0.835   3.713   7.636  0.1881  1.4426  1.5591
  584MOL0     H77074   2.969   4.394   8.420  0.1735  0.5917  3.2854
  584MOL0     H77075   3.175   4.273   8.525  2.1175 -3.6253  4.6972
  584MOL0     H77076   3.450   3.803   8.464  1.3528 -1.3929  0.0953
  584MOL0     H77077   3.652   3.731   8.586 -1.2379  0.0975 -2.0654
  584MOL0     H77078   3.677   3.691   9.005  1.6813 -1.3534  0.4878
  584MOL0     H77079   3.676   3.869   9.016 -1.6731 -1.0422 -0.9281
  584MOL0     H77080   3.925   3.848   8.929 -1.1762  1.9217  0.4208
  584MOL0     H77081   3.899   3.811   9.097  1.9186  2.3698 -1.2448
  584MOL0     H77082   3.929   3.613   8.870 -0.5372  0.1289  0.3364
  584MOL0     H77083   3.840   3.569   9.015  1.1597 -3.0484 -0.4746
  584MOL0     H77084   4.036   3.652   9.155 -3.2456  0.4138  0.1032
  584MOL0     H77085   4.081   3.517   9.040 -3.0076 -0.1477 -1.3015
  584MOL0     H77086   4.306   3.814   8.853 -1.2319 -0.5868 -1.5066
  584MOL0     H77087   3.585   4.004   8.902 -0.6619  1.8066 -0.3329
  584MOL0     H77088   3.390   4.101   8.790  1.1384 -0.6110  0.6967
  585MOL0     O77089   8.221   9.385   0.474 -0.0958  0.2377  0.0181
  585MOL0     C77090   8.304   9.291   0.492  0.5450  0.6299  0.3101
  585MOL0     O77091   8.266   9.149   0.492 -0.3068 -0.5808 -0.3715
  585MOL0     C77092   8.131   9.127   0.487 -0.2949  0.3901 -0.1471
  585MOL0     C77093   8.077   9.072   0.598  0.2931  0.1553  0.0398
  585MOL0     C77094   7.951   9.015   0.589 -0.0337  0.1615 -0.5858
  585MOL0     C77095   7.871   9.022   0.476  0.3331 -0.3415 -0.5505
  585MOL0     O77096   7.739   8.980   0.475 -0.0705 -0.5199  0.0905
  585MOL0     C77097   7.642   9.049   0.395  0.1166 -0.0760  0.8318
  585MOL0     C77098   7.497   9.024   0.446 -0.1620  0.3787 -1.2464
  585MOL0     C77099   7.394   9.031   0.340  0.3294 -0.4679 -0.2477
  585MOL0     C77100   7.268   8.961   0.394  0.3505 -0.1489 -0.3137
  585MOL0     C77101   7.157   8.963   0.291 -0.9859  0.3007  0.2608
  585MOL0     C77102   7.028   9.007   0.357 -0.6037  0.7815  0.4227
  585MOL0     C77103   7.039   9.150   0.397 -0.3311 -0.0111 -0.2230
  585MOL0     C77104   6.928   9.192   0.491 -0.3275  0.0668  1.4516
  585MOL0     N77105   6.945   9.137   0.623  0.6682 -0.0441  0.0458
  585MOL0     C77106   6.994   9.201   0.730  0.5644  0.0628 -0.2426
  585MOL0     C77107   6.951   9.123   0.838  0.1543 -0.1065  0.4878
  585MOL0     C77108   6.971   9.152   0.987 -0.1810  0.8852  0.2835
  585MOL0     C77109   7.026   9.039   1.077 -0.2300 -0.0119  0.5653
  585MOL0     C77110   7.072   9.085   1.208  0.3810  0.3336 -0.6957
  585MOL0     C77111   6.959   9.154   1.288  0.8134 -0.1161 -1.1119
  585MOL0     O77112   6.833   9.077   1.304 -0.1954 -0.1379  0.2989
  585MOL0     C77113   6.742   9.145   1.375 -0.1327  0.2489 -0.6089
  585MOL0     C77114   6.615   9.189   1.328 -0.8732  0.8924  0.2920
  585MOL0     C77115   6.525   9.264   1.401 -0.2694  0.4771 -0.6587
  585MOL0     C77116   6.543   9.273   1.540 -0.0362  0.3347  0.2692
  585MOL0     C77117   6.434   9.323   1.624  0.1110  0.5777  0.0026
  585MOL0     O77118   6.329   9.385   1.563 -0.4168 -0.2395  0.1066
  585MOL0     C77119   6.219   9.413   1.630  0.0130 -0.0009 -0.5216
  585MOL0     C77120   6.142   9.513   1.581 -0.2655  0.6268  0.5954
  585MOL0     C77121   6.024   9.549   1.637  0.2610 -0.0159  0.5520
  585MOL0     C77122   5.964   9.466   1.737  0.5333 -0.7233 -0.0443
  585MOL0     O77123   5.842   9.511   1.785 -0.2504  0.7172  0.7216
  585MOL0     C77124   5.747   9.401   1.810 -0.2051 -0.0531 -0.6071
  585MOL0     C77125   5.638   9.467   1.882  0.3600  0.4271 -0.0469
  585MOL0     C77126   5.548   9.562   1.793 -0.3937 -0.3846  0.7825
  585MOL0     C77127   5.425   9.623   1.864 -0.5231  0.1829 -0.3374
  585MOL0     C77128   5.336   9.697   1.764  0.4222 -0.5475  0.6211
  585MOL0     C77129   5.226   9.768   1.852 -0.3710 -0.3778 -0.4189
  585MOL0     C77130   5.131   9.856   1.773 -0.0800  0.1630  0.9407
  585MOL0     C77131   5.063   9.788   1.652  0.4550  0.6670 -0.7014
  585MOL0    Cl77132   4.949   9.669   1.722 -0.1717 -0.5823 -0.0902
  585MOL0     C77133   6.039   9.363   1.793  0.0069 -0.0431  0.1800
  585MOL0     C77134   6.168   9.334   1.740 -0.5965 -0.2267  0.6159
  585MOL0     O77135   6.443   9.300   1.742 -0.2332 -0.1691 -0.2342
  585MOL0     C77136   6.671   9.234   1.587  0.3048  0.1627 -0.2710
  585MOL0     C77137   6.779   9.184   1.506  0.8889 -0.7120 -0.0129
  585MOL0     N77138   6.889   9.017   0.783  0.0559  1.1513 -0.6179
  585MOL0     N77139   6.889   9.019   0.659  0.3209 -0.3670 -0.5202
  585MOL0     C77140   7.924   9.081   0.366  0.1154  0.9307  0.5046
  585MOL0     C77141   8.059   9.132   0.366  0.3817  0.7472  0.4731
  585MOL0     C77142   8.443   9.327   0.504  0.1949  0.1807 -0.5591
  585MOL0     C77143   8.537   9.218   0.526 -0.0959 -0.2999 -0.2019
  585MOL0     C77144   8.673   9.248   0.527  0.7576 -0.6429 -0.4907
  585MOL0     C77145   8.714   9.380   0.524 -0.1209 -0.2061 -0.1408
  585MOL0     O77146   8.854   9.393   0.530  0.6509  0.7234 -0.3302
  585MOL0     C77147   8.927   9.513   0.522  0.7877 -0.5789 -0.0461
  585MOL0     C77148   8.947   9.564   0.385  0.7753  1.0681  0.1459
  585MOL0     C77149   9.026   9.472   0.292  0.2631  0.4541  0.6923
  585MOL0     C77150   9.177   9.502   0.292 -0.6778 -0.4309 -0.0121
  585MOL0     C77151   9.251   9.405   0.220 -0.3255  0.5681 -0.3547
  585MOL0     C77152   9.316   9.315   0.167  0.5001  0.6983 -0.2514
  585MOL0     C77153   8.631   9.490   0.502  0.1401 -0.4539  0.0601
  585MOL0     C77154   8.492   9.460   0.493  0.3590  0.5922 -1.1491
  585MOL0     H77155   8.140   9.065   0.686 -0.1380 -0.8985  0.2836
  585MOL0     H77156   7.913   8.967   0.678  0.2188  3.7694  1.6674
  585MOL0     H77157   7.652   9.003   0.296  1.5070 -0.0859  0.9686
  585MOL0     H77158   7.650   9.157   0.376 -2.1624  0.3914  2.1465
  585MOL0     H77159   7.464   9.092   0.524  0.5035 -0.0618 -0.5655
  585MOL0     H77160   7.486   8.921   0.481  2.4392 -0.0820 -1.5410
  585MOL0     H77161   7.425   8.978   0.250 -0.1677 -0.1742 -0.5971
  585MOL0     H77162   7.384   9.134   0.306  1.5249 -1.2004 -3.1117
  585MOL0     H77163   7.280   8.856   0.420 -2.9310 -0.4963  0.3139
  585MOL0     H77164   7.229   8.999   0.489 -2.2151  0.3316 -1.4491
  585MOL0     H77165   7.151   8.867   0.240  1.9775 -0.1936  0.6735
  585MOL0     H77166   7.190   9.034   0.213  2.2947 -1.7177 -0.4016
  585MOL0     H77167   7.017   8.933   0.436  2.2211  2.2898  2.3930
  585MOL0     H77168   6.951   8.997   0.279  0.4834 -0.1915 -0.5652
  585MOL0     H77169   7.135   9.170   0.446 -0.1196  0.2794 -0.7429
  585MOL0     H77170   7.037   9.206   0.303  1.8090 -2.4876 -1.8768
  585MOL0     H77171   6.828   9.172   0.452  0.1244  2.1370 -1.0109
  585MOL0     H77172   6.947   9.299   0.506  1.6026 -0.3477  2.2787
  585MOL0     H77173   7.045   9.296   0.734  1.1543 -0.2731  0.3246
  585MOL0     H77174   6.876   9.195   1.021 -2.0068 -1.0110 -2.0421
  585MOL0     H77175   7.039   9.234   1.012  0.1753  0.0954  1.9937
  585MOL0     H77176   7.113   8.988   1.033  0.7156 -1.1490  3.5046
  585MOL0     H77177   6.945   8.967   1.090 -0.1493 -0.0624  0.7841
  585MOL0     H77178   7.101   8.987   1.247  0.0506 -0.9836 -3.4796
  585MOL0     H77179   7.158   9.151   1.197 -0.8636  2.2275  0.4882
  585MOL0     H77180   6.934   9.251   1.243  3.7892 -0.0672 -2.8686
  585MOL0     H77181   7.001   9.171   1.388 -1.5274 -2.9807  0.5343
  585MOL0     H77182   6.589   9.157   1.228  1.6662  3.5690 -1.3717
  585MOL0     H77183   6.437   9.307   1.354 -0.7165  0.0292 -0.2458
  585MOL0     H77184   6.167   9.559   1.486 -0.2546  0.8641  0.7131
  585MOL0     H77185   5.970   9.631   1.592  1.2568  0.3284 -0.0426
  585MOL0     H77186   5.783   9.329   1.884  0.8587  0.5099 -0.5486
  585MOL0     H77187   5.717   9.351   1.718 -1.0578  0.6282 -0.7110
  585MOL0     H77188   5.678   9.523   1.967 -1.5821 -2.3291  2.9429
  585MOL0     H77189   5.572   9.393   1.929 -0.0848  0.7667 -0.1230
  585MOL0     H77190   5.519   9.512   1.701  3.0359 -1.7002  0.2592
  585MOL0     H77191   5.621   9.640   1.769 -0.3939 -0.5412  0.2693
  585MOL0     H77192   5.366   9.545   1.913  1.6142  0.3281  2.8035
  585MOL0     H77193   5.456   9.690   1.945  0.9292 -1.0525  0.1721
  585MOL0     H77194   5.299   9.636   1.681  2.0980  1.3700 -1.6865
  585MOL0     H77195   5.397   9.770   1.710 -2.3555  1.1992 -0.3589
  585MOL0     H77196   5.266   9.827   1.934  1.2873 -1.5836 -0.3007
  585MOL0     H77197   5.159   9.695   1.899 -0.4003  0.5940  1.0844
  585MOL0     H77198   5.043   9.895   1.826 -1.4232 -0.4300 -0.7650
  585MOL0     H77199   5.177   9.951   1.743  1.6749 -1.0195 -0.2744
  585MOL0     H77200   5.141   9.739   1.592  0.0623  1.2354 -1.6922
  585MOL0     H77201   5.011   9.869   1.600  0.5318  1.2276  0.0803
  585MOL0     H77202   5.997   9.310   1.878 -1.8008  1.0416  0.0271
  585MOL0     H77203   6.224   9.254   1.788 -0.9963 -0.3652  0.8568
  585MOL0     H77204   6.691   9.242   1.693  1.6880  0.2590 -0.5162
  585MOL0     H77205   6.873   9.148   1.548  1.3371 -0.5294 -0.8510
  585MOL0     H77206   7.868   9.094   0.274  0.2744  0.9759  0.4141
  585MOL0     H77207   8.108   9.176   0.280 -0.0667  0.6319  0.1556
  585MOL0     H77208   8.497   9.117   0.524 -2.5063  0.6009 -0.6491
  585MOL0     H77209   8.740   9.164   0.544  1.3659  0.3009  2.3404
  585MOL0     H77210   9.031   9.493   0.548  1.7797  1.2659 -2.2832
  585MOL0     H77211   8.887   9.580   0.598  1.3092 -1.3216  0.9151
  585MOL0     H77212   8.844   9.565   0.348  0.0780  2.5913  1.9522
  585MOL0     H77213   8.990   9.665   0.383  2.3415  0.4668 -2.9885
  585MOL0     H77214   8.997   9.476   0.186  0.9878 -0.4170  0.4552
  585MOL0     H77215   9.013   9.368   0.325  1.4806 -0.3906 -1.3459
  585MOL0     H77216   9.180   9.603   0.251 -0.2894  0.9492  3.1625
  585MOL0     H77217   9.225   9.503   0.390  6.1631 -4.7666 -2.5183
  585MOL0     H77218   9.362   9.229   0.122 -0.2732 -0.0650  0.3635
  585MOL0     H77219   8.673   9.590   0.509 -0.7972 -0.0256 -0.2239
  585MOL0     H77220   8.417   9.538   0.486 -0.9044 -0.7062 -2.9787
  586MOL0     O77221   5.736   9.825   4.683 -0.4582 -0.2023  0.0936
  586MOL0     C77222   5.761   9.901   4.777  0.2304 -0.1577  0.7344
  586MOL0     O77223   5.668   9.928   4.869  0.4465  0.9242 -0.2322
  586MOL0     C77224   5.532   9.900   4.863 -1.2186 -0.2542 -0.4138
  586MOL0     C77225   5.457   9.868   4.745  0.4647  0.4068  0.3377
  586MOL0     C77226   5.317   9.855   4.755  0.6640  0.0748 -0.1170
  586MOL0     C77227   5.251   9.869   4.873 -0.5317 -1.0160 -0.2842
  586MOL0     O77228   5.114   9.867   4.885 -0.0872  0.1129 -0.6174
  586MOL0     C77229   5.043   9.818   4.770  0.9671  0.7303 -0.2307
  586MOL0     C77230   4.903   9.870   4.770  0.8627 -0.1039  0.6696
  586MOL0     C77231   4.835   9.839   4.635 -0.4323 -0.7856 -1.2852
  586MOL0     C77232   4.679   9.857   4.662 -0.0500  0.3774  0.3718
  586MOL0     C77233   4.596   9.797   4.547  0.4432 -0.2749  0.2544
  586MOL0     C77234   4.451   9.782   4.574  0.5682  0.0013  0.3262
  586MOL0     C77235   4.408   9.671   4.668  0.7450  0.5432 -0.4712
  586MOL0     C77236   4.261   9.675   4.700  0.2608  0.1233  0.0208
  586MOL0     N77237   4.205   9.551   4.756  0.4442  0.0208 -0.0472
  586MOL0     C77238   4.133   9.459   4.678  0.6305 -1.0049 -0.8096
  586MOL0     C77239   4.096   9.361   4.760 -0.7286  0.1766  0.3682
  586MOL0     C77240   4.024   9.235   4.731 -0.1480 -0.4123  0.5961
  586MOL0     C77241   3.871   9.246   4.702 -0.3191 -0.1701 -0.2871
  586MOL0     C77242   3.784   9.183   4.815  0.7937 -0.7458  0.2529
  586MOL0     C77243   3.654   9.258   4.847  0.3248  0.3545  0.6844
  586MOL0     O77244   3.542   9.190   4.794  0.0082 -0.6982  0.3393
  586MOL0     C77245   3.419   9.225   4.839 -0.0481  0.3537 -0.3624
  586MOL0     C77246   3.399   9.324   4.930  0.0588  0.3983  0.3485
  586MOL0     C77247   3.261   9.360   4.960 -0.8787  0.4748 -0.0924
  586MOL0     C77248   3.154   9.287   4.900  0.3536 -0.2686 -0.7670
  586MOL0     C77249   3.017   9.319   4.939  0.1379  0.1953 -0.5634
  586MOL0     O77250   2.998   9.389   5.056  0.2273 -1.2696  0.3153
  586MOL0     C77251   2.868   9.418   5.099  0.1117 -0.8437 -0.4619
  586MOL0     C77252   2.855   9.428   5.235  0.1127  0.0954 -0.7237
  586MOL0     C77253   2.729   9.449   5.290 -1.2828 -1.0562  0.1720
  586MOL0     C77254   2.608   9.455   5.209 -0.3296  0.1640 -0.3952
  586MOL0     O77255   2.484   9.469   5.263 -0.3906  0.2448 -0.1371
  586MOL0     C77256   2.371   9.500   5.175  0.1733 -0.2081  0.9704
  586MOL0     C77257   2.247   9.498   5.268 -0.0099  0.2282  1.3177
  586MOL0     C77258   2.120   9.499   5.177  0.0735  0.4587  0.4306
  586MOL0     C77259   1.989   9.476   5.259 -0.3899  0.0548  0.1942
  586MOL0     C77260   1.972   9.336   5.322 -0.0065  0.3827  0.0945
  586MOL0     C77261   1.824   9.329   5.368  0.1932  0.0693 -0.5324
  586MOL0     C77262   1.774   9.214   5.462 -0.3208 -0.2403 -0.2087
  586MOL0     C77263   1.624   9.225   5.507  0.9882 -0.7592 -0.1498
  586MOL0    Cl77264   1.519   9.155   5.392 -0.2861  0.3370 -0.0115
  586MOL0     C77265   2.628   9.451   5.064 -1.2231  0.2809 -0.3500
  586MOL0     C77266   2.759   9.433   5.016  0.4592 -0.5539 -0.0795
  586MOL0     O77267   2.929   9.256   4.878  0.4839 -0.4921 -0.2170
  586MOL0     C77268   3.188   9.182   4.815  0.3731  0.3350  0.0555
  586MOL0     C77269   3.313   9.159   4.777 -0.3130  0.7175  0.0953
  586MOL0     N77270   4.172   9.382   4.874 -0.3092 -0.0808  0.0176
  586MOL0     N77271   4.230   9.497   4.880  0.2947  0.2010  0.2794
  586MOL0     C77272   5.323   9.904   4.987  0.0433  0.0773  0.0970
  586MOL0     C77273   5.460   9.926   4.977 -0.0704  0.1415 -0.7379
  586MOL0     C77274   5.905   9.943   4.800 -0.6960  0.1393 -0.4737
  586MOL0     C77275   6.015   9.910   4.713  0.2897 -0.3689 -0.1121
  586MOL0     C77276   6.145   9.962   4.726 -0.1214  0.1334  0.1597
  586MOL0     C77277   6.166  10.050   4.838 -1.1922  0.0178 -0.5939
  586MOL0     O77278   6.296  10.111   4.874  0.7261 -0.5426 -0.2928
  586MOL0     C77279   6.398  10.106   4.775  0.8015 -0.0158  0.1459
  586MOL0     C77280   6.489  10.224   4.791 -0.1469  0.0632 -0.7304
  586MOL0     C77281   6.615  10.206   4.702  1.0130  0.5773 -0.8278
  586MOL0     C77282   6.681  10.071   4.717 -0.3531 -0.0725 -0.5049
  586MOL0     C77283   6.727  10.051   4.857 -0.5462 -0.2361  0.4769
  586MOL0     C77284   6.772  10.006   4.967 -0.0149  0.6178 -0.7007
  586MOL0     C77285   6.064  10.083   4.921  1.3548  0.1025  1.0341
  586MOL0     C77286   5.937  10.032   4.904  0.3031 -0.2905 -0.0225
  586MOL0     H77287   5.502   9.859   4.647 -0.9293 -0.4303 -0.2486
  586MOL0     H77288   5.281   9.819   4.659  0.3483  2.2103 -0.8419
  586MOL0     H77289   5.059   9.710   4.766  0.1061  0.6280 -1.3093
  586MOL0     H77290   5.085   9.859   4.678 -0.9124 -0.5562 -1.7210
  586MOL0     H77291   4.914   9.976   4.795 -3.3976  0.4524  0.9752
  586MOL0     H77292   4.848   9.830   4.856 -2.8944  3.7311  0.3617
  586MOL0     H77293   4.854   9.734   4.615 -0.9528 -0.9891 -0.7283
  586MOL0     H77294   4.874   9.888   4.545 -1.2522  0.0902 -1.1819
  586MOL0     H77295   4.652   9.809   4.757  0.7238  1.5223  1.2025
  586MOL0     H77296   4.660   9.965   4.660 -0.7268  0.3343  2.2576
  586MOL0     H77297   4.628   9.694   4.526  0.0586 -0.4099  0.3213
  586MOL0     H77298   4.610   9.864   4.462 -0.3538 -0.3075  0.0915
  586MOL0     H77299   4.400   9.758   4.480 -0.7685 -2.5394  1.6073
  586MOL0     H77300   4.414   9.879   4.609 -1.2373 -0.5644  0.1283
  586MOL0     H77301   4.437   9.572   4.631 -0.3182  0.6828 -1.7442
  586MOL0     H77302   4.458   9.686   4.765  0.4074  0.0018 -0.2045
  586MOL0     H77303   4.202   9.703   4.613 -0.4671 -1.2870  0.0456
  586MOL0     H77304   4.237   9.749   4.777 -2.3683 -2.2442  1.6643
  586MOL0     H77305   4.090   9.467   4.579 -0.3353 -0.4485 -0.3528
  586MOL0     H77306   4.039   9.165   4.814 -0.8845  0.0921  1.1656
  586MOL0     H77307   4.068   9.188   4.643  1.7683  1.2593  0.5980
  586MOL0     H77308   3.846   9.199   4.606  3.3023  0.4057 -1.7002
  586MOL0     H77309   3.847   9.353   4.697 -4.3087 -0.8440  1.2908
  586MOL0     H77310   3.761   9.077   4.801 -2.7641  0.0615 -1.0109
  586MOL0     H77311   3.847   9.203   4.902  1.4023 -1.2697 -0.0511
  586MOL0     H77312   3.654   9.360   4.809 -3.6558 -0.2430 -1.4511
  586MOL0     H77313   3.644   9.269   4.956  0.1000  2.7378  0.4745
  586MOL0     H77314   3.473   9.383   4.983  1.4688 -0.5739 -0.4802
  586MOL0     H77315   3.235   9.445   5.023 -0.6141  2.6245 -2.6590
  586MOL0     H77316   2.939   9.433   5.304  0.5863 -0.3332 -1.2616
  586MOL0     H77317   2.724   9.459   5.398  0.8778 -0.9208  0.2936
  586MOL0     H77318   2.356   9.415   5.107  1.7229  1.0927 -1.1050
  586MOL0     H77319   2.388   9.598   5.130 -1.1544  0.4211  1.7929
  586MOL0     H77320   2.259   9.586   5.332  2.6694  1.8709 -1.1957
  586MOL0     H77321   2.248   9.408   5.330  1.8790 -0.4568  0.3923
  586MOL0     H77322   2.125   9.422   5.099  2.0098  1.1259 -0.1578
  586MOL0     H77323   2.115   9.589   5.116  0.6880 -2.5022 -4.5304
  586MOL0     H77324   1.979   9.553   5.336  2.9138  2.0455 -1.1402
  586MOL0     H77325   1.909   9.496   5.186  0.2607 -1.2744 -0.9189
  586MOL0     H77326   2.028   9.337   5.416 -0.7927 -2.9954  0.7130
  586MOL0     H77327   2.000   9.253   5.256  0.7255  0.6265  0.0829
  586MOL0     H77328   1.770   9.316   5.274 -3.8810 -1.7767  1.8014
  586MOL0     H77329   1.793   9.428   5.403 -2.2472 -1.5100  2.2157
  586MOL0     H77330   1.786   9.119   5.410 -0.0706 -0.2085 -0.2120
  586MOL0     H77331   1.840   9.220   5.550  0.8535  0.4915 -1.1046
  586MOL0     H77332   1.597   9.330   5.518 -0.6759 -1.3771  2.8490
  586MOL0     H77333   1.604   9.161   5.594 -0.3735 -0.6830 -0.3918
  586MOL0     H77334   2.551   9.451   4.987  0.4846 -0.4639 -2.1492
  586MOL0     H77335   2.763   9.407   4.911  2.3572 -3.8055  0.6886
  586MOL0     H77336   3.111   9.121   4.768 -0.6017  1.2821  0.3566
  586MOL0     H77337   3.324   9.090   4.694 -4.8062  1.2960 -1.2014
  586MOL0     H77338   5.272   9.943   5.074 -0.1409  2.7329 -1.1057
  586MOL0     H77339   5.516   9.953   5.066 -1.6790 -2.2979  1.1851
  586MOL0     H77340   6.005   9.840   4.630  0.1364 -2.6154  1.6790
  586MOL0     H77341   6.232   9.933   4.668  0.3135 -2.3940  1.8821
  586MOL0     H77342   6.345  10.113   4.680 -0.0289  1.8592  0.7003
  586MOL0     H77343   6.448  10.008   4.780 -0.2372 -0.8418 -3.1113
  586MOL0     H77344   6.439  10.310   4.745  0.4817  0.9959  0.2900
  586MOL0     H77345   6.533  10.238   4.890  0.4232 -1.4972 -0.7374
  586MOL0     H77346   6.691  10.282   4.724  1.0932  0.1659  0.3691
  586MOL0     H77347   6.581  10.220   4.599  1.2694 -0.8530 -1.1281
  586MOL0     H77348   6.624   9.981   4.693  3.1752 -2.7044  0.1678
  586MOL0     H77349   6.768  10.070   4.650  0.3785  1.1066  0.3820
  586MOL0     H77350   6.804   9.959   5.058  0.8958  3.0227  0.3323
  586MOL0     H77351   6.091  10.149   5.002 -0.4722  1.0444  0.9333
  586MOL0     H77352   5.858  10.057   4.974  0.4354 -0.0693  0.0483
  587MOL0     O77353   9.194   5.660  10.836 -0.3284  0.6295  0.2412
  587MOL0     C77354   9.209   5.627  10.950  0.8956 -0.0455  0.4513
  587MOL0     O77355   9.110   5.588  11.043 -0.0404  0.4187  0.2570
  587MOL0     C77356   8.985   5.549  11.012 -0.0329  0.8618  0.7546
  587MOL0     C77357   8.902   5.532  11.119 -0.7536  0.8956 -0.9514
  587MOL0     C77358   8.768   5.493  11.094  0.6359 -0.2039 -1.2012
  587MOL0     C77359   8.713   5.478  10.968  0.0050  0.2451 -1.0377
  587MOL0     O77360   8.585   5.444  10.951 -0.7403  0.5788 -0.2097
  587MOL0     C77361   8.536   5.368  10.834  0.2793  0.4664  0.2550
  587MOL0     C77362   8.478   5.235  10.878  0.8369 -0.0396  0.1456
  587MOL0     C77363   8.340   5.236  10.945 -0.0786  0.4977 -1.0455
  587MOL0     C77364   8.356   5.246  11.093  0.5227 -0.8269 -0.0556
  587MOL0     C77365   8.205   5.275  11.148  0.4365 -0.1811  0.1332
  587MOL0     C77366   8.126   5.149  11.167 -0.0878 -0.2543 -0.5721
  587MOL0     C77367   7.989   5.180  11.224  0.8308 -0.2881  0.7241
  587MOL0     C77368   7.918   5.044  11.243  0.3593 -0.1401  0.8882
  587MOL0     N77369   7.779   5.080  11.275 -0.4446 -0.6114 -0.6761
  587MOL0     C77370   7.715   5.029  11.384  0.2957 -0.1145 -1.0190
  587MOL0     C77371   7.592   5.090  11.385 -0.1804 -0.0483  0.1208
  587MOL0     C77372   7.482   5.052  11.472 -0.1261 -0.2787  0.4716
  587MOL0     C77373   7.350   5.019  11.399  0.1636 -0.5434  0.5524
  587MOL0     C77374   7.226   5.030  11.494 -0.3602  0.4365 -0.4623
  587MOL0     C77375   7.099   5.009  11.410 -0.9047 -0.8786  1.1767
  587MOL0     O77376   6.981   5.049  11.477 -0.4354 -0.0474  0.0524
  587MOL0     C77377   6.860   5.025  11.420 -0.2024 -0.9857  0.0762
  587MOL0     C77378   6.748   5.034  11.505  0.2348  0.4927 -0.3635
  587MOL0     C77379   6.626   5.023  11.455  0.0391 -0.0751  0.5104
  587MOL0     C77380   6.606   5.022  11.316  0.1552 -0.1616  0.0051
  587MOL0     C77381   6.470   5.030  11.255  0.6780 -0.1216 -0.3388
  587MOL0     O77382   6.368   5.063  11.338 -0.1355 -0.1399 -0.0061
  587MOL0     C77383   6.230   5.048  11.314  0.7825  0.4801  0.6294
  587MOL0     C77384   6.164   5.070  11.201  0.4685  0.0208  0.9384
  587MOL0     C77385   6.026   5.081  11.187  0.1373  0.5193  0.7593
  587MOL0     C77386   5.944   5.034  11.298 -0.0812  0.1077 -0.6457
  587MOL0     O77387   5.806   5.025  11.299  0.3007  0.2900 -0.2090
  587MOL0     C77388   5.740   5.053  11.175 -0.5949  1.1402  0.7812
  587MOL0     C77389   5.595   5.038  11.204 -0.3184 -0.1700  0.3367
  587MOL0     C77390   5.537   4.897  11.215 -0.0267 -0.0335 -0.1189
  587MOL0     C77391   5.395   4.893  11.271 -0.5105  0.6256  0.4410
  587MOL0     C77392   5.335   4.762  11.205  0.0398  0.6621  0.0147
  587MOL0     C77393   5.213   4.711  11.276 -0.6150 -0.6321  0.3551
  587MOL0     C77394   5.128   4.608  11.207  0.3444  0.4802  0.3023
  587MOL0     C77395   5.064   4.643  11.069  0.1567 -0.3956  0.0986
  587MOL0    Cl77396   4.956   4.517  11.018 -0.2328 -0.5914 -0.5181
  587MOL0     C77397   6.012   4.997  11.419 -0.4152  0.4346  0.3745
  587MOL0     C77398   6.148   5.010  11.427 -0.2451 -0.0037  0.2427
  587MOL0     O77399   6.451   4.991  11.137  0.0070  0.1435  0.0940
  587MOL0     C77400   6.711   5.006  11.228 -0.2381  0.2183  0.3159
  587MOL0     C77401   6.837   5.005  11.278  0.2723  0.0576 -0.0414
  587MOL0     N77402   7.576   5.166  11.270  0.2639 -0.9738  0.2748
  587MOL0     N77403   7.686   5.153  11.209 -0.5192  0.2434  0.0062
  587MOL0     C77404   8.800   5.495  10.864 -0.5675  0.6120  0.0737
  587MOL0     C77405   8.935   5.519  10.879 -0.1464  0.5228  0.2983
  587MOL0     C77406   9.342   5.640  10.999 -0.3013 -0.2345  0.5361
  587MOL0     C77407   9.437   5.735  10.939  0.3383  0.0652 -0.3511
  587MOL0     C77408   9.565   5.743  10.995  0.3038 -1.5726  0.0631
  587MOL0     C77409   9.603   5.664  11.098 -0.4174 -0.2511 -0.5487
  587MOL0     O77410   9.719   5.697  11.153  0.7519  0.4291  0.3781
  587MOL0     C77411   9.829   5.679  11.070 -0.4184  0.6138 -0.2813
  587MOL0     C77412   9.956   5.761  11.107 -0.1000 -0.1206  0.2699
  587MOL0     C77413  10.079   5.708  11.023  0.0103  0.5883  0.1994
  587MOL0     C77414  10.205   5.740  11.088 -0.6660  0.2158  0.5042
  587MOL0     C77415  10.227   5.887  11.090 -1.2798  0.5415 -0.3414
  587MOL0     C77416  10.257   5.999  11.112  0.0111  0.3803 -0.2872
  587MOL0     C77417   9.510   5.580  11.161  0.2088 -0.4357  1.2438
  587MOL0     C77418   9.382   5.568  11.113  1.0549  1.2103 -0.3235
  587MOL0     H77419   8.937   5.534  11.221 -0.5219 -1.9194 -0.8820
  587MOL0     H77420   8.696   5.487  11.175 -0.9691 -1.6944 -2.6550
  587MOL0     H77421   8.617   5.350  10.763  0.1647  2.1744 -0.3391
  587MOL0     H77422   8.459   5.418  10.775  0.0644 -4.0147 -3.8984
  587MOL0     H77423   8.547   5.163  10.924  1.1816  0.0678 -0.1959
  587MOL0     H77424   8.464   5.174  10.788  0.3610 -1.2326  1.0017
  587MOL0     H77425   8.284   5.144  10.928 -2.2224  1.5333 -0.0213
  587MOL0     H77426   8.275   5.316  10.908 -1.2000 -0.2382 -0.7189
  587MOL0     H77427   8.398   5.151  11.126 -0.0798 -1.1709 -0.2498
  587MOL0     H77428   8.420   5.331  11.116  0.6973 -0.2218 -2.5572
  587MOL0     H77429   8.145   5.338  11.083 -1.1445 -0.1181  1.5674
  587MOL0     H77430   8.213   5.328  11.243  0.4338 -1.9588  1.1703
  587MOL0     H77431   8.184   5.069  11.214  0.3483 -0.2924 -1.1598
  587MOL0     H77432   8.116   5.088  11.076  0.7069 -0.4213 -0.5545
  587MOL0     H77433   7.987   5.239  11.316 -1.0318  1.0508 -0.0974
  587MOL0     H77434   7.932   5.244  11.155 -0.1506 -2.3071 -0.4165
  587MOL0     H77435   7.975   4.979  11.310  1.7666 -0.7928 -0.8564
  587MOL0     H77436   7.925   5.002  11.142 -3.0362  1.6431 -0.2713
  587MOL0     H77437   7.754   4.958  11.456 -0.0622  1.3051  0.6540
  587MOL0     H77438   7.462   5.148  11.520 -1.4513  1.5441 -3.3257
  587MOL0     H77439   7.505   4.972  11.543 -1.8545 -0.6813  0.6355
  587MOL0     H77440   7.358   4.918  11.356 -1.2349 -1.2075  1.7919
  587MOL0     H77441   7.331   5.089  11.317  1.1317 -0.6093  0.2477
  587MOL0     H77442   7.222   4.966  11.584  0.6899 -2.6913 -2.4667
  587MOL0     H77443   7.229   5.128  11.542  1.2042  0.7112 -1.0727
  587MOL0     H77444   7.094   4.904  11.383  3.2896 -0.5442 -1.9647
  587MOL0     H77445   7.123   5.078  11.328 -2.5070  1.2291  2.3505
  587MOL0     H77446   6.761   5.060  11.610  0.4063  2.0855 -0.7668
  587MOL0     H77447   6.542   5.021  11.524 -0.9761 -1.7994 -0.7100
  587MOL0     H77448   6.211   5.113  11.113 -1.4291  0.3141 -0.0031
  587MOL0     H77449   5.982   5.108  11.092 -0.3197 -0.4990  0.6719
  587MOL0     H77450   5.765   4.979  11.099  1.7981 -0.8596  3.3005
  587MOL0     H77451   5.747   5.161  11.157  0.3483  1.3410  2.1291
  587MOL0     H77452   5.535   5.087  11.127 -0.4591  0.5138  0.8663
  587MOL0     H77453   5.569   5.094  11.295  0.4897 -1.5548  1.4728
  587MOL0     H77454   5.602   4.838  11.280 -1.0674 -0.9400  0.1160
  587MOL0     H77455   5.550   4.858  11.114 -0.0772  0.2328 -0.2299
  587MOL0     H77456   5.407   4.881  11.380 -0.3632 -1.1103  0.2682
  587MOL0     H77457   5.329   4.976  11.249  1.6859  2.1807 -0.6158
  587MOL0     H77458   5.416   4.689  11.211  2.3523  3.0822 -0.1632
  587MOL0     H77459   5.320   4.775  11.098 -1.6045 -2.0982 -0.1859
  587MOL0     H77460   5.149   4.799  11.271  1.0324  0.5939 -0.2824
  587MOL0     H77461   5.241   4.703  11.381 -0.3352  1.3288  0.4573
  587MOL0     H77462   5.188   4.516  11.197  0.3728  0.4844  0.4243
  587MOL0     H77463   5.051   4.586  11.281  0.8112  1.0878  0.9837
  587MOL0     H77464   5.142   4.656  10.993 -0.6868 -0.0844 -0.7328
  587MOL0     H77465   5.007   4.737  11.072  0.1598 -0.0842 -3.6541
  587MOL0     H77466   5.952   4.981  11.508  0.4292 -1.6947  0.6158
  587MOL0     H77467   6.182   5.000  11.530 -2.1541  0.2790  0.9334
  587MOL0     H77468   6.693   4.991  11.122 -1.1466  0.2360  0.4568
  587MOL0     H77469   6.924   5.004  11.214 -0.6696  2.2041 -1.4914
  587MOL0     H77470   8.781   5.478  10.758  0.6511  0.4244 -0.1306
  587MOL0     H77471   9.000   5.517  10.793  0.9010  0.2339  1.0797
  587MOL0     H77472   9.409   5.790  10.850 -1.7738  0.7177  0.6613
  587MOL0     H77473   9.628   5.810  10.938  1.2444 -2.5569 -0.0964
  587MOL0     H77474   9.803   5.689  10.964  3.1741 -0.9551 -1.4620
  587MOL0     H77475   9.855   5.573  11.077  3.8240  1.5479  1.0861
  587MOL0     H77476   9.939   5.868  11.096  2.0482  0.1985 -0.4041
  587MOL0     H77477   9.982   5.731  11.209  1.6390 -2.0420 -0.6703
  587MOL0     H77478  10.075   5.765  10.929  0.2585 -0.7087 -0.6155
  587MOL0     H77479  10.070   5.601  11.004 -2.2158  0.4967  1.4629
  587MOL0     H77480  10.200   5.697  11.188 -0.9835 -1.0864 -0.0547
  587MOL0     H77481  10.293   5.693  11.043 -1.5799 -1.8705  0.8090
  587MOL0     H77482  10.283   6.099  11.143  3.0874  0.0926 -1.6486
  587MOL0     H77483   9.532   5.520  11.249 -1.8196 -2.4368  0.4904
  587MOL0     H77484   9.308   5.504  11.160  0.3321 -0.0937 -2.9973
  588MOL0     O77485   7.416   3.869   4.907  0.4353  0.6463 -0.4050
  588MOL0     C77486   7.463   3.868   4.796  0.9707  0.0040 -0.0800
  588MOL0     O77487   7.383   3.872   4.680  0.0194  0.0300 -0.3421
  588MOL0     C77488   7.245   3.867   4.696  0.3020 -0.2894  0.3044
  588MOL0     C77489   7.175   3.774   4.625  0.1501  0.4394 -0.1113
  588MOL0     C77490   7.041   3.758   4.647 -0.0294  0.3531  0.0749
  588MOL0     C77491   6.962   3.849   4.721 -0.9612 -0.4920  0.2042
  588MOL0     O77492   6.824   3.828   4.741  0.4801 -0.1224  0.1542
  588MOL0     C77493   6.734   3.915   4.665 -0.3266 -0.7377  0.7328
  588MOL0     C77494   6.592   3.865   4.689 -0.0001  0.5689  1.3181
  588MOL0     C77495   6.493   3.978   4.647 -1.5054  0.0385 -0.3700
  588MOL0     C77496   6.355   3.935   4.679  0.1200  1.0257  0.5912
  588MOL0     C77497   6.257   4.024   4.598 -0.1397  0.0640  0.4457
  588MOL0     C77498   6.117   4.023   4.664 -0.1628 -0.1278 -0.6511
  588MOL0     C77499   6.012   4.129   4.619 -0.0943  0.4590 -1.4930
  588MOL0     C77500   5.914   4.073   4.509  0.3067  0.1344  0.1581
  588MOL0     N77501   5.804   4.162   4.467  0.7427  0.5656 -0.3348
  588MOL0     C77502   5.679   4.122   4.436 -1.0387 -0.1948 -1.0271
  588MOL0     C77503   5.605   4.238   4.428  0.3212 -0.2887  0.6212
  588MOL0     C77504   5.459   4.237   4.420 -0.6961  0.7362  0.4741
  588MOL0     C77505   5.378   4.241   4.545 -0.2065  0.4990 -0.0567
  588MOL0     C77506   5.392   4.366   4.620  0.6779  0.2173 -0.1913
  588MOL0     C77507   5.267   4.419   4.702 -0.4241  0.5492  0.5662
  588MOL0     O77508   5.210   4.313   4.786  0.7126 -1.0413 -1.0116
  588MOL0     C77509   5.290   4.258   4.887  0.8198  0.5619 -0.5926
  588MOL0     C77510   5.250   4.133   4.939 -0.8064  0.0238 -0.1400
  588MOL0     C77511   5.294   4.080   5.060 -0.9314 -0.3364  0.4655
  588MOL0     C77512   5.406   4.140   5.128 -0.0691 -0.4553  0.3839
  588MOL0     C77513   5.472   4.071   5.244  0.3602 -0.5809 -0.0163
  588MOL0     O77514   5.546   4.143   5.334  0.0810 -0.0636 -0.0552
  588MOL0     C77515   5.614   4.089   5.436 -0.5624  0.1885 -1.1068
  588MOL0     C77516   5.748   4.135   5.445 -0.4962 -0.0903  0.4281
  588MOL0     C77517   5.830   4.078   5.547 -0.6596 -0.7408 -0.0086
  588MOL0     C77518   5.787   3.987   5.633 -0.1609  0.8038  0.0132
  588MOL0     O77519   5.874   3.924   5.720 -1.0626 -0.0982  0.0617
  588MOL0     C77520   5.856   3.946   5.864 -0.3681  0.5563  0.2229
  588MOL0     C77521   5.983   3.923   5.937 -0.5979  0.4544  0.3812
  588MOL0     C77522   6.093   4.034   5.931  0.1043  0.2906 -0.1310
  588MOL0     C77523   6.061   4.161   6.010  0.0742  0.2175 -0.8570
  588MOL0     C77524   6.130   4.284   5.939  0.4777  0.0201  0.1559
  588MOL0     C77525   6.042   4.409   5.969 -0.0427 -0.3598 -0.0939
  588MOL0     C77526   5.926   4.430   5.867  0.8555  0.1934  1.0413
  588MOL0     C77527   5.974   4.464   5.719 -0.3201 -0.0268  0.0250
  588MOL0    Cl77528   5.850   4.422   5.592 -0.2456 -0.4525  0.0378
  588MOL0     C77529   5.653   3.950   5.632 -0.3862 -0.0279 -0.2180
  588MOL0     C77530   5.567   3.988   5.527 -0.0663  0.9730  0.1583
  588MOL0     O77531   5.463   3.949   5.240  0.3582 -0.3403  0.5135
  588MOL0     C77532   5.449   4.267   5.073 -0.2097  0.4507 -0.8086
  588MOL0     C77533   5.392   4.320   4.957  0.3164 -0.1691 -0.1482
  588MOL0     N77534   5.694   4.346   4.438  0.4842 -0.1810  1.0235
  588MOL0     N77535   5.813   4.299   4.459  0.9222 -0.2636 -0.1516
  588MOL0     C77536   7.036   3.963   4.768  0.6010  0.4822 -0.4686
  588MOL0     C77537   7.178   3.969   4.756 -0.4313  1.2485 -0.0846
  588MOL0     C77538   7.606   3.845   4.775  0.0099  0.0969 -0.3134
  588MOL0     C77539   7.686   3.810   4.886  0.0650  0.3418 -0.4722
  588MOL0     C77540   7.824   3.786   4.873 -0.1623 -0.8077 -0.1455
  588MOL0     C77541   7.885   3.798   4.753 -0.7091 -0.0627  0.4153
  588MOL0     O77542   8.022   3.776   4.746  0.0782  0.4482 -0.5169
  588MOL0     C77543   8.114   3.865   4.674 -0.0153 -0.9477 -1.0046
  588MOL0     C77544   8.199   3.926   4.783  0.1268 -0.4653  0.7764
  588MOL0     C77545   8.273   3.823   4.878  0.4900  0.8547  0.4367
  588MOL0     C77546   8.395   3.782   4.795 -0.2450 -0.9554  0.2190
  588MOL0     C77547   8.499   3.706   4.875 -0.8562 -0.6729  0.2169
  588MOL0     C77548   8.584   3.647   4.938  0.5103  0.0150 -0.8363
  588MOL0     C77549   7.809   3.834   4.639  0.5077  0.4387 -0.4884
  588MOL0     C77550   7.667   3.850   4.654 -0.6128 -0.0184 -0.4789
  588MOL0     H77551   7.234   3.707   4.563  0.4642  1.5106 -1.0141
  588MOL0     H77552   7.007   3.663   4.608  0.7388  0.6343 -1.3685
  588MOL0     H77553   6.767   3.900   4.561  1.9547  3.4037  0.6649
  588MOL0     H77554   6.739   4.023   4.682 -2.1089  0.1100 -3.0339
  588MOL0     H77555   6.586   3.829   4.792  2.3953 -2.9371  0.4089
  588MOL0     H77556   6.581   3.777   4.624  2.6100  1.0963  0.0177
  588MOL0     H77557   6.516   3.984   4.540  0.6531 -1.6434 -0.0680
  588MOL0     H77558   6.523   4.077   4.681 -0.1361 -0.4278 -0.1501
  588MOL0     H77559   6.339   3.828   4.659  2.0110  0.1375  3.1796
  588MOL0     H77560   6.338   3.947   4.786  0.2960 -2.6775  1.1967
  588MOL0     H77561   6.243   4.001   4.492  0.5363 -0.3149  0.4352
  588MOL0     H77562   6.293   4.127   4.602 -0.8485  0.3643 -0.5254
  588MOL0     H77563   6.134   4.021   4.772  2.0031 -3.3733 -0.8953
  588MOL0     H77564   6.082   3.920   4.649  1.3481 -0.7900  0.0891
  588MOL0     H77565   5.952   4.128   4.711  1.1697 -2.6765 -0.5525
  588MOL0     H77566   6.067   4.220   4.595 -2.2462  1.7533 -1.8247
  588MOL0     H77567   5.868   3.980   4.542 -0.7455  0.3971 -0.5460
  588MOL0     H77568   5.974   4.064   4.418 -1.0077 -2.3874 -0.5283
  588MOL0     H77569   5.637   4.023   4.446 -3.2066  0.7344 -0.4271
  588MOL0     H77570   5.433   4.146   4.366  0.5957 -0.0051  1.0498
  588MOL0     H77571   5.430   4.310   4.344 -1.8929 -0.7317 -0.5369
  588MOL0     H77572   5.421   4.167   4.614  1.8939  0.1678 -1.6148
  588MOL0     H77573   5.273   4.224   4.521  0.1255  2.2163 -3.1506
  588MOL0     H77574   5.474   4.363   4.693  1.1348  2.7169 -0.5252
  588MOL0     H77575   5.421   4.431   4.537 -1.3523 -1.3027 -2.2118
  588MOL0     H77576   5.191   4.441   4.627  1.1683  1.2680 -0.9009
  588MOL0     H77577   5.295   4.509   4.756 -0.7684  0.6854  0.5177
  588MOL0     H77578   5.158   4.086   4.908  0.0519 -0.6506 -1.7607
  588MOL0     H77579   5.256   3.987   5.100 -1.2673 -0.1696  0.5376
  588MOL0     H77580   5.779   4.217   5.381 -0.7181 -1.4693 -1.5300
  588MOL0     H77581   5.938   4.095   5.549  0.1178 -3.3397 -4.7001
  588MOL0     H77582   5.779   3.883   5.911 -0.9180  0.3941 -0.8639
  588MOL0     H77583   5.805   4.040   5.886 -1.5702 -0.2782  1.2021
  588MOL0     H77584   6.028   3.833   5.894 -1.2750  0.5831 -0.6139
  588MOL0     H77585   5.965   3.894   6.041  0.8277 -0.8062  0.3071
  588MOL0     H77586   6.098   4.063   5.826  2.3724 -0.8554 -0.4147
  588MOL0     H77587   6.189   3.997   5.967  1.1122  2.1286 -0.7887
  588MOL0     H77588   5.953   4.178   6.017  0.4542  2.1693  3.1175
  588MOL0     H77589   6.091   4.162   6.115 -0.6192  1.8335 -0.6468
  588MOL0     H77590   6.147   4.272   5.832 -2.2961  0.3407 -0.3859
  588MOL0     H77591   6.229   4.297   5.985  1.2182 -0.5216 -1.2406
  588MOL0     H77592   6.102   4.500   5.972 -1.0556  0.3662 -1.2573
  588MOL0     H77593   6.005   4.402   6.072 -0.8779  3.1777 -0.0247
  588MOL0     H77594   5.870   4.336   5.865  0.6796  0.0464 -5.0784
  588MOL0     H77595   5.862   4.510   5.905 -0.3815 -0.6811  0.8498
  588MOL0     H77596   6.060   4.402   5.691 -0.7228  0.3543 -2.1985
  588MOL0     H77597   6.010   4.567   5.709 -0.4761 -0.0119 -0.3931
  588MOL0     H77598   5.610   3.867   5.688 -2.0365  0.0773 -1.2648
  588MOL0     H77599   5.467   3.947   5.527 -0.0958  1.0454  0.3365
  588MOL0     H77600   5.534   4.311   5.125  2.7676 -4.0484 -1.2773
  588MOL0     H77601   5.419   4.423   4.937 -2.4984  0.6729 -0.1082
  588MOL0     H77602   6.980   4.046   4.811  0.6911  1.4208 -2.0679
  588MOL0     H77603   7.242   4.050   4.790  1.8915 -0.3127 -0.4919
  588MOL0     H77604   7.642   3.810   4.986  0.7895  2.4900 -0.0987
  588MOL0     H77605   7.891   3.760   4.954 -0.6705 -2.9780 -0.3583
  588MOL0     H77606   8.065   3.945   4.619  0.4984  2.2071  2.6538
  588MOL0     H77607   8.183   3.807   4.612  1.1826 -0.3050 -0.3279
  588MOL0     H77608   8.265   3.996   4.732  0.4532 -0.0197  1.7813
  588MOL0     H77609   8.125   3.980   4.843  0.1304 -0.7430  1.0325
  588MOL0     H77610   8.215   3.732   4.894  0.8757  0.4265 -0.4999
  588MOL0     H77611   8.300   3.870   4.973  1.3850  0.5024  0.3669
  588MOL0     H77612   8.376   3.720   4.707  1.0879 -1.5789  0.3420
  588MOL0     H77613   8.453   3.871   4.768  0.6083 -1.1240  1.3905
  588MOL0     H77614   8.664   3.601   4.992  1.1586 -0.6330 -2.2947
  588MOL0     H77615   7.869   3.849   4.550 -0.4509 -1.4626 -1.5085
  588MOL0     H77616   7.629   3.879   4.556 -0.8032  0.1565 -0.3540
  589MOL0     O77617   0.354   5.048   2.344 -0.7415 -0.1043 -0.8618
  589MOL0     C77618   0.328   5.164   2.357  0.0942 -0.0518 -0.4849
  589MOL0     O77619   0.424   5.264   2.370 -0.6710  0.3784  0.2237
  589MOL0     C77620   0.554   5.234   2.391  0.1794  0.3496 -0.6667
  589MOL0     C77621   0.610   5.118   2.449  0.2661  0.0501 -0.1241
  589MOL0     C77622   0.740   5.099   2.478  0.3889  0.4199  0.3134
  589MOL0     C77623   0.832   5.199   2.454 -1.0766 -0.0835  0.2352
  589MOL0     O77624   0.962   5.172   2.490 -0.8647  0.3101  0.9532
  589MOL0     C77625   1.063   5.258   2.442  0.2156  0.8333  0.1424
  589MOL0     C77626   1.200   5.198   2.472  1.0403  0.0326 -0.2833
  589MOL0     C77627   1.246   5.088   2.374  0.2591  0.4530 -0.4225
  589MOL0     C77628   1.276   5.126   2.227  0.4240  0.3962 -0.1120
  589MOL0     C77629   1.329   5.009   2.144  0.6983  0.9259  0.3269
  589MOL0     C77630   1.386   5.062   2.017  0.3675 -0.3639 -0.9593
  589MOL0     C77631   1.422   4.942   1.924  0.3866  0.3959 -0.0747
  589MOL0     C77632   1.505   4.995   1.807  0.7741 -0.4810 -0.1743
  589MOL0     N77633   1.423   5.084   1.718 -0.0599  0.3692 -0.2079
  589MOL0     C77634   1.387   5.215   1.742 -0.9498 -0.3895 -0.1365
  589MOL0     C77635   1.292   5.239   1.654  0.1148  0.0663  0.0486
  589MOL0     C77636   1.232   5.371   1.658  0.3687  0.8293 -0.3911
  589MOL0     C77637   1.079   5.367   1.668  0.3331  0.2452  0.3594
  589MOL0     C77638   1.020   5.506   1.704  0.7892  0.4213  1.1849
  589MOL0     C77639   0.870   5.495   1.753  0.1205  0.9469 -0.0577
  589MOL0     O77640   0.792   5.612   1.719 -0.9296 -0.6396  0.2913
  589MOL0     C77641   0.654   5.601   1.735  1.0196  0.0826 -0.6231
  589MOL0     C77642   0.582   5.487   1.767 -0.6182  0.4878  0.1768
  589MOL0     C77643   0.451   5.491   1.784 -0.3420  0.7087 -0.4658
  589MOL0     C77644   0.370   5.601   1.752  0.1077 -0.5664  0.6033
  589MOL0     C77645   0.227   5.590   1.733 -0.1255  0.0238 -0.2915
  589MOL0     O77646   0.160   5.693   1.673 -0.7555 -0.3674  0.4299
  589MOL0     C77647   0.026   5.686   1.670  0.2569  0.0411  0.5895
  589MOL0     C77648  -0.042   5.587   1.597  0.0986 -0.3411 -0.7534
  589MOL0     C77649  -0.180   5.603   1.577 -0.4803  0.3975 -0.6019
  589MOL0     C77650  -0.247   5.714   1.629 -0.3709 -0.8741 -0.7293
  589MOL0     O77651  -0.388   5.733   1.617 -0.4118 -0.6493 -0.0739
  589MOL0     C77652  -0.472   5.658   1.526 -0.1549 -0.4983  0.2611
  589MOL0     C77653  -0.618   5.691   1.572 -0.4427  0.1842  0.8899
  589MOL0     C77654  -0.639   5.847   1.577 -0.1497 -0.3760  0.3924
  589MOL0     C77655  -0.795   5.880   1.581 -0.3605 -0.0040 -0.4592
  589MOL0     C77656  -0.832   6.029   1.596  0.2394 -0.0152 -0.0703
  589MOL0     C77657  -0.825   6.092   1.460  0.1968 -0.0172  1.4853
  589MOL0     C77658  -0.858   6.240   1.456  0.0933 -1.2239  0.0903
  589MOL0     C77659  -0.758   6.322   1.351  0.5165 -0.2287 -0.6500
  589MOL0    Cl77660  -0.798   6.489   1.313  0.3806 -0.5416 -0.2258
  589MOL0     C77661  -0.184   5.806   1.711 -0.1922  0.0378  0.7940
  589MOL0     C77662  -0.045   5.793   1.729  0.1102 -0.5111 -0.0875
  589MOL0     O77663   0.174   5.492   1.785  0.0797 -0.1398 -0.1045
  589MOL0     C77664   0.441   5.721   1.713  0.1715  0.8106 -0.0797
  589MOL0     C77665   0.583   5.722   1.710  0.3375  0.4064 -1.3059
  589MOL0     N77666   1.253   5.125   1.587  0.5220 -0.5367  0.5344
  589MOL0     N77667   1.340   5.034   1.620  0.3006 -0.0300  0.6044
  589MOL0     C77668   0.783   5.320   2.407  0.0549  0.4217  0.9316
  589MOL0     C77669   0.643   5.330   2.375  0.1773 -0.0400  0.4735
  589MOL0     C77670   0.186   5.203   2.352 -0.0062 -0.4184 -0.2554
  589MOL0     C77671   0.088   5.108   2.308  0.3306  0.3548  0.3670
  589MOL0     C77672  -0.051   5.145   2.304 -0.0124 -0.6909 -0.1721
  589MOL0     C77673  -0.087   5.275   2.348  0.2070 -0.4846 -0.3478
  589MOL0     O77674  -0.224   5.314   2.353 -0.5710  0.2613  0.8908
  589MOL0     C77675  -0.302   5.283   2.237  0.4756 -0.6970  0.0457
  589MOL0     C77676  -0.446   5.336   2.264 -0.2230 -0.2418 -0.1017
  589MOL0     C77677  -0.447   5.480   2.251 -0.6991  0.9752 -0.3064
  589MOL0     C77678  -0.588   5.554   2.242  0.4927  0.6334 -0.4236
  589MOL0     C77679  -0.654   5.553   2.377 -0.7900 -0.0865  0.1811
  589MOL0     C77680  -0.700   5.548   2.487  0.1750 -0.3895  0.1771
  589MOL0     C77681   0.007   5.371   2.385  0.2959 -0.0324  0.3500
  589MOL0     C77682   0.141   5.330   2.388 -0.3196  0.5400  0.2889
  589MOL0     H77683   0.550   5.031   2.472 -0.9864  0.7356 -0.6788
  589MOL0     H77684   0.784   5.006   2.512  0.6036 -0.6980 -2.7033
  589MOL0     H77685   1.050   5.361   2.478 -0.3827  0.5263  0.8266
  589MOL0     H77686   1.052   5.268   2.333 -3.6858  0.6946  0.3796
  589MOL0     H77687   1.208   5.158   2.573  1.7131  1.2726  0.1768
  589MOL0     H77688   1.264   5.286   2.461  0.4474  0.6551  1.1113
  589MOL0     H77689   1.170   5.009   2.377  0.8309 -0.1430 -1.3543
  589MOL0     H77690   1.343   5.055   2.413 -0.2002  0.7232  1.0337
  589MOL0     H77691   1.181   5.161   2.185  0.3504 -0.2361 -0.4733
  589MOL0     H77692   1.352   5.205   2.227  0.6843  0.1726  1.2729
  589MOL0     H77693   1.253   4.933   2.124  0.4616  1.2855 -0.1528
  589MOL0     H77694   1.404   4.948   2.196  1.0399  0.7484 -0.3612
  589MOL0     H77695   1.476   5.122   2.027 -0.5420  2.0317 -4.8568
  589MOL0     H77696   1.311   5.122   1.965 -0.4002 -1.8033 -1.5687
  589MOL0     H77697   1.496   4.883   1.979 -0.4546 -0.3499  0.2657
  589MOL0     H77698   1.334   4.885   1.894 -0.7204  1.7585  0.4723
  589MOL0     H77699   1.552   4.916   1.748  1.6231  1.3960 -2.1396
  589MOL0     H77700   1.592   5.048   1.847  0.8108 -0.4658 -0.2730
  589MOL0     H77701   1.423   5.275   1.825  0.4922  1.2140 -1.8172
  589MOL0     H77702   1.263   5.421   1.566  1.4723 -2.0870 -1.7009
  589MOL0     H77703   1.273   5.431   1.740  0.0897 -1.3328  1.4214
  589MOL0     H77704   1.057   5.297   1.749  3.1318 -0.9293  0.2344
  589MOL0     H77705   1.039   5.332   1.573 -0.8241 -1.9685  1.5960
  589MOL0     H77706   1.074   5.544   1.792 -1.5228  2.5388  1.8027
  589MOL0     H77707   1.032   5.581   1.625 -2.4357 -1.3985 -1.2940
  589MOL0     H77708   0.858   5.472   1.860 -1.3716  0.8787 -0.2082
  589MOL0     H77709   0.827   5.410   1.700  0.4000  0.7159  0.0851
  589MOL0     H77710   0.615   5.387   1.795 -0.5808  0.2817 -0.5854
  589MOL0     H77711   0.411   5.402   1.832  0.9324  0.7960  0.8355
  589MOL0     H77712   0.011   5.501   1.558  1.0535 -0.0903 -0.0438
  589MOL0     H77713  -0.237   5.539   1.510 -0.1256 -0.7122  0.1204
  589MOL0     H77714  -0.455   5.550   1.526  2.0271 -0.2785 -2.5232
  589MOL0     H77715  -0.454   5.703   1.428  3.1132 -1.5712  0.2524
  589MOL0     H77716  -0.648   5.649   1.668  0.6518 -1.2103  0.6516
  589MOL0     H77717  -0.681   5.645   1.495  0.9629  0.5546 -0.5215
  589MOL0     H77718  -0.585   5.902   1.500 -1.1852  1.3515  0.8446
  589MOL0     H77719  -0.604   5.888   1.673  0.4881 -1.2955  0.5597
  589MOL0     H77720  -0.846   5.839   1.493 -1.4144  2.6951 -1.1891
  589MOL0     H77721  -0.832   5.825   1.668  0.7700  0.3917  0.2995
  589MOL0     H77722  -0.763   6.069   1.671 -1.1058 -0.5326  1.5051
  589MOL0     H77723  -0.930   6.052   1.639  0.4002 -0.6337  0.6600
  589MOL0     H77724  -0.899   6.042   1.398  0.3907  3.0219 -1.4773
  589MOL0     H77725  -0.723   6.081   1.421 -0.4740 -0.7981 -0.0965
  589MOL0     H77726  -0.960   6.265   1.425  0.0866 -1.2310  0.1062
  589MOL0     H77727  -0.844   6.285   1.555 -2.5756 -0.5952  0.2697
  589MOL0     H77728  -0.761   6.269   1.255 -1.0938 -2.0590  0.3415
  589MOL0     H77729  -0.660   6.307   1.397 -0.9413 -1.0318  2.4767
  589MOL0     H77730  -0.252   5.878   1.755 -0.4356  1.6191 -1.9459
  589MOL0     H77731   0.016   5.850   1.798  1.0907 -0.9598 -0.5565
  589MOL0     H77732   0.377   5.805   1.686 -1.3554  0.7165  2.8627
  589MOL0     H77733   0.644   5.807   1.680  4.5330 -2.5314 -2.0283
  589MOL0     H77734   0.848   5.401   2.378 -2.4085  1.6231 -1.7462
  589MOL0     H77735   0.598   5.424   2.344 -2.3861  1.3899  6.8919
  589MOL0     H77736   0.125   5.011   2.277  2.2290  2.2936 -4.3882
  589MOL0     H77737  -0.121   5.072   2.264 -0.7869 -0.4155  0.6519
  589MOL0     H77738  -0.303   5.181   2.198 -0.5849 -0.6048 -0.2014
  589MOL0     H77739  -0.269   5.348   2.156  0.8648 -1.2359 -0.2317
  589MOL0     H77740  -0.511   5.298   2.184 -1.5469 -0.6344  1.1183
  589MOL0     H77741  -0.471   5.299   2.363  1.8268 -1.2100  0.1054
  589MOL0     H77742  -0.399   5.509   2.158  1.4847 -3.3364 -0.7361
  589MOL0     H77743  -0.388   5.537   2.323 -0.1803  2.1557 -1.6250
  589MOL0     H77744  -0.568   5.656   2.209  1.5588  0.7346  0.4554
  589MOL0     H77745  -0.653   5.506   2.169  2.5123  0.3303 -2.1276
  589MOL0     H77746  -0.748   5.543   2.582  1.0503  0.1262  0.6597
  589MOL0     H77747  -0.010   5.476   2.406  0.1716  0.3458 -1.4441
  589MOL0     H77748   0.219   5.403   2.408  1.0435 -0.0798 -2.3641
  590MOL0     O77749   7.146   6.495   7.914 -0.8001 -0.4863 -0.7088
  590MOL0     C77750   7.144   6.499   8.035 -0.1697 -1.5328  0.7451
  590MOL0     O77751   7.257   6.515   8.114  0.3025 -0.3582  0.3174
  590MOL0     C77752   7.380   6.512   8.060  0.2346 -0.6455 -0.7184
  590MOL0     C77753   7.416   6.595   7.957 -0.9810  0.1633  0.0721
  590MOL0     C77754   7.551   6.585   7.905  0.2767  0.0605  0.6924
  590MOL0     C77755   7.649   6.507   7.964  0.4296  0.5491 -0.0979
  590MOL0     O77756   7.776   6.497   7.924 -0.3467  0.3515 -0.0274
  590MOL0     C77757   7.826   6.572   7.809  0.3844  0.4482 -0.3618
  590MOL0     C77758   7.970   6.522   7.772 -0.1981 -0.6615  0.2412
  590MOL0     C77759   7.987   6.379   7.743 -0.8489  0.1079  0.9476
  590MOL0     C77760   7.961   6.351   7.595  0.7872 -0.8478 -0.0107
  590MOL0     C77761   7.948   6.196   7.576  0.1181 -0.3014 -1.2793
  590MOL0     C77762   7.925   6.156   7.423 -0.1232 -0.4704 -0.3231
  590MOL0     C77763   7.772   6.159   7.389 -0.3090 -0.1284 -0.1814
  590MOL0     C77764   7.752   6.125   7.240 -0.6440 -0.1131 -0.2093
  590MOL0     N77765   7.636   6.043   7.199  0.1388  0.2550  0.2574
  590MOL0     C77766   7.512   6.047   7.260  0.5605 -0.1235 -0.6088
  590MOL0     C77767   7.452   5.942   7.194  0.8315  0.1180  0.1240
  590MOL0     C77768   7.320   5.881   7.223  1.3979 -0.2370  0.2432
  590MOL0     C77769   7.218   5.910   7.117 -0.0649  0.9327  0.1978
  590MOL0     C77770   7.073   5.868   7.168 -0.8289  1.5195  0.2757
  590MOL0     C77771   6.956   5.900   7.078  0.1843 -0.0597  0.7013
  590MOL0     O77772   6.842   5.815   7.119 -0.1923  0.3721 -0.0047
  590MOL0     C77773   6.710   5.851   7.097  0.0990 -0.3455  0.0010
  590MOL0     C77774   6.676   5.941   7.000  0.2225  0.4330 -0.4201
  590MOL0     C77775   6.549   5.998   6.976  0.5246  0.6431 -0.0389
  590MOL0     C77776   6.444   5.961   7.066  0.3674  0.2046 -0.2180
  590MOL0     C77777   6.305   6.002   7.069  1.0137 -0.9605 -0.1559
  590MOL0     O77778   6.292   6.139   7.039  0.3114 -0.4046  0.1731
  590MOL0     C77779   6.164   6.189   7.072  0.5006  0.3782 -0.3709
  590MOL0     C77780   6.132   6.251   7.189  0.1003  0.4832 -0.3549
  590MOL0     C77781   6.010   6.306   7.216 -0.3978 -0.2417 -0.1618
  590MOL0     C77782   5.912   6.305   7.118  0.7229  0.3874  0.2686
  590MOL0     O77783   5.789   6.363   7.139 -0.4136  0.6110 -0.5801
  590MOL0     C77784   5.701   6.287   7.219  0.4728 -0.4894  0.1621
  590MOL0     C77785   5.568   6.304   7.145 -1.1849 -0.0323 -0.8982
  590MOL0     C77786   5.456   6.212   7.199 -0.0023  0.2533 -0.5115
  590MOL0     C77787   5.330   6.239   7.117  0.4327 -0.4324  0.2753
  590MOL0     C77788   5.243   6.124   7.145  0.1764 -0.0810 -0.1014
  590MOL0     C77789   5.124   6.137   7.050 -0.5699 -0.3781  0.1136
  590MOL0     C77790   5.010   6.057   7.107 -0.0816 -0.1890 -0.7165
  590MOL0     C77791   4.923   6.021   6.993  1.0675  0.4211  0.0525
  590MOL0    Cl77792   4.796   5.912   7.072 -0.1408 -0.0393 -0.2340
  590MOL0     C77793   5.935   6.242   6.995 -0.1361 -0.0427  0.1324
  590MOL0     C77794   6.057   6.181   6.977  0.0575 -0.4589  0.1462
  590MOL0     O77795   6.211   5.930   7.114  0.2991  0.1794  0.0241
  590MOL0     C77796   6.477   5.858   7.162  0.5821 -0.1616 -0.2912
  590MOL0     C77797   6.604   5.811   7.185 -0.8989 -0.1365 -0.0143
  590MOL0     N77798   7.525   5.892   7.091 -0.0343  0.3382 -0.3130
  590MOL0     N77799   7.639   5.950   7.099  0.1462  0.1202  0.2698
  590MOL0     C77800   7.607   6.421   8.069 -0.7849  0.1409  0.3949
  590MOL0     C77801   7.472   6.428   8.120 -0.9131  0.3743  0.5989
  590MOL0     C77802   7.015   6.491   8.101  0.4299 -0.1786  1.0724
  590MOL0     C77803   7.010   6.521   8.240 -0.3940  0.1350 -0.5483
  590MOL0     C77804   6.887   6.513   8.311 -0.1796  0.2298 -0.8498
  590MOL0     C77805   6.763   6.479   8.238  0.2209 -0.8095 -1.5576
  590MOL0     O77806   6.658   6.460   8.318  0.0236 -0.6587  0.6558
  590MOL0     C77807   6.537   6.417   8.244  0.3882 -0.0201 -0.9245
  590MOL0     C77808   6.421   6.396   8.337  0.0767  0.2262  0.0587
  590MOL0     C77809   6.298   6.349   8.253  0.8647  0.4312 -0.2263
  590MOL0     C77810   6.165   6.337   8.323 -0.0157 -0.5065  0.0699
  590MOL0     C77811   6.190   6.255   8.441 -0.6027  0.1275  0.3595
  590MOL0     C77812   6.196   6.175   8.535  0.8296 -0.5809  0.1905
  590MOL0     C77813   6.771   6.458   8.098 -0.6704 -0.1103  0.7394
  590MOL0     C77814   6.898   6.455   8.029 -0.2460 -1.2420 -0.5229
  590MOL0     H77815   7.350   6.672   7.920 -1.2119 -0.4957 -0.9556
  590MOL0     H77816   7.596   6.651   7.832 -0.3795 -0.2861 -0.0384
  590MOL0     H77817   7.833   6.676   7.841  1.3295  1.1560 -2.6478
  590MOL0     H77818   7.756   6.578   7.725 -1.8365 -3.1185  1.0071
  590MOL0     H77819   8.036   6.549   7.855  2.5188 -0.0694 -1.9605
  590MOL0     H77820   8.014   6.576   7.688  2.6342 -1.1554  1.3063
  590MOL0     H77821   7.918   6.324   7.808  0.3248 -1.6032  0.8315
  590MOL0     H77822   8.086   6.339   7.767 -0.3545 -0.0584 -1.1124
  590MOL0     H77823   7.867   6.394   7.561  2.1147  3.8445  1.4804
  590MOL0     H77824   8.041   6.394   7.534  1.8365 -0.7674  1.3568
  590MOL0     H77825   7.869   6.161   7.643 -0.2958  2.1437 -0.3699
  590MOL0     H77826   8.040   6.161   7.623 -0.0958  2.1021  1.1859
  590MOL0     H77827   7.954   6.055   7.395  0.6836  0.6393 -4.0353
  590MOL0     H77828   7.979   6.224   7.355 -0.7515 -1.1126 -1.4958
  590MOL0     H77829   7.715   6.096   7.457  0.7153  1.7797  2.6017
  590MOL0     H77830   7.730   6.256   7.417  0.6922 -0.1903  1.7101
  590MOL0     H77831   7.847   6.079   7.213 -1.1756 -1.3021 -0.1184
  590MOL0     H77832   7.747   6.224   7.193 -0.4794  0.6829  1.3682
  590MOL0     H77833   7.472   6.117   7.333 -0.5713  0.1919 -1.4882
  590MOL0     H77834   7.278   5.933   7.310  2.1820 -0.0221  0.5065
  590MOL0     H77835   7.329   5.773   7.237  1.5318 -0.1558  0.8338
  590MOL0     H77836   7.242   5.870   7.018 -0.1395  2.9464 -0.6847
  590MOL0     H77837   7.219   6.018   7.097 -0.8949  0.5722 -2.0865
  590MOL0     H77838   7.073   5.761   7.187  2.8720  1.5324  1.0702
  590MOL0     H77839   7.062   5.917   7.266 -1.7894  1.7424  0.0588
  590MOL0     H77840   6.974   5.880   6.972  1.2542 -0.0671  0.8754
  590MOL0     H77841   6.936   6.006   7.096 -0.9229 -0.3524  1.3124
  590MOL0     H77842   6.742   5.947   6.914 -2.7665 -2.4493 -3.2202
  590MOL0     H77843   6.533   6.060   6.888 -1.9353  3.8757  2.4327
  590MOL0     H77844   6.209   6.246   7.266  0.7207 -1.3711 -1.0369
  590MOL0     H77845   5.989   6.339   7.318  0.1801 -0.2776 -0.0283
  590MOL0     H77846   5.691   6.327   7.320  0.7111  1.4525 -0.5477
  590MOL0     H77847   5.730   6.181   7.214 -2.8448 -1.4458 -1.2790
  590MOL0     H77848   5.591   6.284   7.039  2.4920 -1.7729  0.0417
  590MOL0     H77849   5.546   6.411   7.147  1.0076  0.4560  1.2629
  590MOL0     H77850   5.435   6.218   7.306 -2.5911 -0.0382 -0.9279
  590MOL0     H77851   5.497   6.114   7.173 -0.5412 -0.0633 -0.1931
  590MOL0     H77852   5.283   6.334   7.145  2.0012  0.2818  0.5530
  590MOL0     H77853   5.351   6.248   7.010  0.1552  1.3605  0.3465
  590MOL0     H77854   5.213   6.114   7.250  2.1370 -0.4139  0.4578
  590MOL0     H77855   5.296   6.033   7.116 -1.6204 -2.1470  2.5137
  590MOL0     H77856   5.151   6.092   6.954 -1.2993  0.3151 -0.4293
  590MOL0     H77857   5.103   6.241   7.023  1.8468  0.4047  0.9644
  590MOL0     H77858   5.047   5.963   7.149 -0.1601  0.5990  1.2307
  590MOL0     H77859   4.952   6.103   7.188  2.6878 -0.8234  1.8291
  590MOL0     H77860   4.964   5.956   6.915  0.6235 -2.5996  2.1418
  590MOL0     H77861   4.878   6.113   6.954  4.1484  1.9374 -0.1896
  590MOL0     H77862   5.870   6.237   6.908  2.3734 -0.2248 -1.8502
  590MOL0     H77863   6.069   6.126   6.884 -1.2827 -0.4812 -0.0335
  590MOL0     H77864   6.399   5.824   7.230  0.0671  1.0719 -0.2209
  590MOL0     H77865   6.631   5.732   7.255 -0.1316 -1.4801 -1.7475
  590MOL0     H77866   7.676   6.362   8.128  2.2934  2.6137 -0.4452
  590MOL0     H77867   7.448   6.366   8.206  1.9868  0.7949  1.8547
  590MOL0     H77868   7.107   6.551   8.280 -0.4431 -0.4657  0.0417
  590MOL0     H77869   6.894   6.529   8.418  1.2559  0.6705 -0.9855
  590MOL0     H77870   6.562   6.322   8.196  0.4520  0.4675 -1.8737
  590MOL0     H77871   6.506   6.484   8.164  2.8353 -0.1356 -2.0583
  590MOL0     H77872   6.455   6.322   8.411 -1.6674  0.9484  1.6592
  590MOL0     H77873   6.399   6.482   8.401 -0.8778 -0.5852  0.8624
  590MOL0     H77874   6.325   6.263   8.192  0.4520  0.5817 -0.6289
  590MOL0     H77875   6.299   6.424   8.174 -0.6043  0.7438  0.0145
  590MOL0     H77876   6.116   6.430   8.352 -1.1394 -0.6017 -1.4083
  590MOL0     H77877   6.091   6.286   8.261  0.2712 -1.2001  0.2848
  590MOL0     H77878   6.172   6.096   8.604 -1.1993 -3.1033 -3.1114
  590MOL0     H77879   6.686   6.430   8.037 -0.1149 -2.9303  1.1285
  590MOL0     H77880   6.903   6.440   7.922  0.2505  1.0616 -0.8779
  591MOL0     O77881   3.330   8.018   2.085 -0.4079  0.4767  0.2527
  591MOL0     C77882   3.288   8.063   1.980 -0.2817 -1.1432  0.3790
  591MOL0     O77883   3.351   8.165   1.912  0.2865 -0.3421  0.7598
  591MOL0     C77884   3.481   8.179   1.896  0.9847 -0.6045 -0.7557
  591MOL0     C77885   3.571   8.075   1.892  0.3691 -0.4267  0.2744
  591MOL0     C77886   3.712   8.098   1.882 -0.1051  0.5307 -1.5702
  591MOL0     C77887   3.761   8.223   1.874 -0.6617 -0.4063  0.4496
  591MOL0     O77888   3.900   8.244   1.874 -0.3587  0.1464 -0.5701
  591MOL0     C77889   4.001   8.141   1.906  0.3664 -0.0465 -0.4241
  591MOL0     C77890   4.059   8.083   1.777  0.4029  1.0173  0.0311
  591MOL0     C77891   4.102   8.184   1.673 -1.1501  0.1454 -0.0055
  591MOL0     C77892   4.194   8.125   1.567  0.0214 -0.0610 -0.3491
  591MOL0     C77893   4.116   8.100   1.441  0.1560 -0.4726 -0.1882
  591MOL0     C77894   4.212   8.061   1.330  1.0049 -0.3013  0.4527
  591MOL0     C77895   4.135   8.062   1.186 -0.3677  0.2403 -0.6383
  591MOL0     C77896   4.086   7.926   1.138 -0.3699  0.5884 -1.2839
  591MOL0     N77897   4.029   7.924   1.007  0.3128 -0.6106  0.5307
  591MOL0     C77898   3.920   8.000   0.968 -1.2948  0.4345  0.5817
  591MOL0     C77899   3.916   7.989   0.832 -0.7279 -1.1313 -0.1400
  591MOL0     C77900   3.830   8.078   0.740  1.0026  0.6967  0.5202
  591MOL0     C77901   3.671   8.057   0.753 -0.2885 -0.1627  0.2352
  591MOL0     C77902   3.616   7.925   0.699 -0.6628 -0.2243  0.0848
  591MOL0     C77903   3.656   7.810   0.793  0.6573  0.2882 -0.5216
  591MOL0     O77904   3.615   7.839   0.929  0.7010  0.7229 -0.2543
  591MOL0     C77905   3.492   7.794   0.970  0.0746 -0.1407  0.0727
  591MOL0     C77906   3.390   7.759   0.882 -0.7463  0.0701  0.8682
  591MOL0     C77907   3.268   7.710   0.924  0.2127  1.1739  0.6780
  591MOL0     C77908   3.249   7.684   1.062  0.4064 -0.8194  0.3406
  591MOL0     C77909   3.126   7.623   1.102 -0.0238 -0.0869 -1.0215
  591MOL0     O77910   3.027   7.633   1.008 -0.7799 -0.4225  0.7101
  591MOL0     C77911   2.890   7.616   1.045  0.1174 -0.3744 -0.2063
  591MOL0     C77912   2.791   7.709   1.021  0.4738 -0.9159 -0.2307
  591MOL0     C77913   2.663   7.685   1.073 -0.2724  0.4600 -0.3938
  591MOL0     C77914   2.629   7.559   1.122  0.8614 -0.8926  0.2252
  591MOL0     O77915   2.504   7.529   1.170 -1.0128 -0.3275  0.5566
  591MOL0     C77916   2.392   7.624   1.143 -0.0700 -0.1358  0.9277
  591MOL0     C77917   2.278   7.587   1.230  0.1198  0.6106  0.9081
  591MOL0     C77918   2.175   7.510   1.138 -0.3733 -0.0300 -0.6419
  591MOL0     C77919   2.208   7.358   1.134  0.1066 -0.0101 -0.4921
  591MOL0     C77920   2.127   7.274   1.026  0.1262  0.4376 -0.0784
  591MOL0     C77921   1.971   7.292   1.035 -0.6939  0.4263 -0.1796
  591MOL0     C77922   1.894   7.243   0.909 -0.4189 -0.0857 -0.1984
  591MOL0     C77923   1.754   7.305   0.903  0.6989  0.2106 -0.6876
  591MOL0    Cl77924   1.686   7.294   0.736 -0.0490 -0.1626 -0.2556
  591MOL0     C77925   2.722   7.458   1.127  0.3208 -0.2654  0.8393
  591MOL0     C77926   2.848   7.490   1.087 -0.3853 -0.3067 -0.0382
  591MOL0     O77927   3.114   7.585   1.218 -1.0312  0.0224 -0.7015
  591MOL0     C77928   3.353   7.726   1.147  0.7161 -0.7854  0.3679
  591MOL0     C77929   3.466   7.787   1.106 -0.0744  0.2876  0.9093
  591MOL0     N77930   4.017   7.906   0.785  0.3997  0.4461  0.0033
  591MOL0     N77931   4.084   7.881   0.890  0.3964  0.6805 -0.5396
  591MOL0     C77932   3.671   8.327   1.864  0.1872 -0.3517  1.0164
  591MOL0     C77933   3.532   8.314   1.880 -0.0370 -0.3906 -0.3274
  591MOL0     C77934   3.160   8.024   1.917 -0.2249 -0.4759 -0.1833
  591MOL0     C77935   3.061   7.966   1.998  1.0552  0.1326  0.6075
  591MOL0     C77936   2.930   7.947   1.946 -0.7310  0.2752  0.2175
  591MOL0     C77937   2.898   7.983   1.815  0.4212  0.0395 -0.4092
  591MOL0     O77938   2.770   7.953   1.771  0.6756 -0.2604 -0.3110
  591MOL0     C77939   2.712   8.049   1.678  0.6781 -0.2156  0.2555
  591MOL0     C77940   2.645   8.180   1.736 -0.0157 -0.0634  0.8117
  591MOL0     C77941   2.630   8.282   1.630  0.3066 -0.1912  0.0590
  591MOL0     C77942   2.510   8.256   1.543  0.1042 -0.6564 -0.1417
  591MOL0     C77943   2.484   8.373   1.459  0.3067  0.5825  0.8807
  591MOL0     C77944   2.482   8.480   1.390  0.6209  0.3995  0.1478
  591MOL0     C77945   3.004   8.035   1.734  0.0451  0.3583  1.1741
  591MOL0     C77946   3.137   8.054   1.785 -0.1863 -0.3558  0.0232
  591MOL0     H77947   3.531   7.975   1.895 -1.1065  0.1707  1.6486
  591MOL0     H77948   3.782   8.015   1.881  0.8209  1.0290  2.5203
  591MOL0     H77949   3.961   8.063   1.971 -0.0294  0.9652  0.5751
  591MOL0     H77950   4.081   8.189   1.963  0.5864 -1.1530  0.2398
  591MOL0     H77951   3.990   8.011   1.732  0.2535  2.4863 -2.2173
  591MOL0     H77952   4.143   8.021   1.812 -0.6194  0.3609  1.3906
  591MOL0     H77953   4.157   8.267   1.718  1.2825 -2.3650  2.0115
  591MOL0     H77954   4.013   8.225   1.623 -1.8417 -2.1019 -0.7387
  591MOL0     H77955   4.278   8.193   1.547  0.6509 -1.1645 -1.6001
  591MOL0     H77956   4.243   8.033   1.599  1.6519  1.5393  2.1013
  591MOL0     H77957   4.058   8.187   1.409  1.5542  1.2413  1.6809
  591MOL0     H77958   4.044   8.021   1.466 -1.2203  0.3780 -1.2771
  591MOL0     H77959   4.247   7.958   1.347  1.2292 -0.0002  1.9663
  591MOL0     H77960   4.303   8.115   1.305 -0.2352  1.0538 -1.4326
  591MOL0     H77961   4.047   8.127   1.195 -2.0618 -1.9774 -0.2277
  591MOL0     H77962   4.201   8.096   1.105  1.8632 -1.9898  0.0948
  591MOL0     H77963   4.015   7.895   1.216  2.3052 -1.8227  0.3886
  591MOL0     H77964   4.164   7.849   1.136 -1.1731 -0.2770 -0.4644
  591MOL0     H77965   3.853   8.051   1.036 -1.0464  1.5334  0.0244
  591MOL0     H77966   3.863   8.051   0.639  1.5927 -0.8070  1.0881
  591MOL0     H77967   3.846   8.185   0.749 -1.5527  1.0917  1.2622
  591MOL0     H77968   3.615   8.138   0.706 -1.9609 -2.0956 -1.2703
  591MOL0     H77969   3.655   8.067   0.861  0.7043  0.2663  0.3532
  591MOL0     H77970   3.508   7.933   0.680 -0.9684 -0.7525  1.4648
  591MOL0     H77971   3.662   7.904   0.602 -0.3118  1.8060 -0.2472
  591MOL0     H77972   3.765   7.794   0.796  0.3160 -2.4476  1.3391
  591MOL0     H77973   3.616   7.718   0.750  2.2224 -0.3477 -0.7065
  591MOL0     H77974   3.401   7.787   0.778  0.0940  1.2552  1.2458
  591MOL0     H77975   3.193   7.691   0.847  0.4481  3.5321 -0.2218
  591MOL0     H77976   2.817   7.808   0.986 -0.7785  0.9624  3.5919
  591MOL0     H77977   2.599   7.772   1.063  0.9189  1.4091 -0.0554
  591MOL0     H77978   2.364   7.630   1.037 -0.4031  5.8278  1.0216
  591MOL0     H77979   2.432   7.724   1.158 -0.2233  0.4262 -1.9153
  591MOL0     H77980   2.230   7.678   1.266 -0.7651  0.2528  0.6613
  591MOL0     H77981   2.299   7.526   1.318 -0.2955 -1.6024 -0.4416
  591MOL0     H77982   2.167   7.556   1.039  0.7103  1.7331  0.0598
  591MOL0     H77983   2.078   7.526   1.186  0.4381  0.6795  0.8067
  591MOL0     H77984   2.315   7.346   1.114  0.5355  2.7557 -0.2331
  591MOL0     H77985   2.188   7.319   1.235  1.4968 -1.8572 -0.8727
  591MOL0     H77986   2.145   7.166   1.022 -0.8713  0.2483  0.2306
  591MOL0     H77987   2.153   7.315   0.928 -2.5923  1.7414 -0.3636
  591MOL0     H77988   1.948   7.399   1.029 -0.5780  0.4678  0.0754
  591MOL0     H77989   1.932   7.241   1.124 -3.0122  1.4816 -0.5301
  591MOL0     H77990   1.949   7.280   0.822  0.8152  2.0405  1.3756
  591MOL0     H77991   1.886   7.134   0.898  1.7242 -0.2222 -0.7615
  591MOL0     H77992   1.752   7.411   0.931 -0.6291  0.2843 -0.9921
  591MOL0     H77993   1.692   7.252   0.976  0.4896 -0.4772 -1.3552
  591MOL0     H77994   2.699   7.362   1.172  0.0526 -1.2410 -1.2703
  591MOL0     H77995   2.928   7.420   1.110  0.9174  1.0395 -0.3415
  591MOL0     H77996   3.322   7.726   1.251  1.3785 -1.2384  0.5729
  591MOL0     H77997   3.532   7.832   1.180 -1.7296  0.7730  2.1558
  591MOL0     H77998   3.714   8.426   1.864  0.3300 -0.3791 -0.6906
  591MOL0     H77999   3.460   8.395   1.884  2.1777  1.7358 -1.0827
  591MOL0     H78000   3.060   7.943   2.104 -1.4425 -1.2033  0.3618
  591MOL0     H78001   2.850   7.905   2.007 -0.8814 -1.1708 -0.9203
  591MOL0     H78002   2.629   7.997   1.630  1.0801 -1.6644  1.0984
  591MOL0     H78003   2.789   8.077   1.605 -1.3970  0.3058 -1.8354
  591MOL0     H78004   2.554   8.139   1.781  1.9282 -2.5000  2.8419
  591MOL0     H78005   2.707   8.215   1.820 -2.5918  0.0858  2.7669
  591MOL0     H78006   2.724   8.290   1.575  0.6283  1.9433  0.8319
  591MOL0     H78007   2.605   8.376   1.679  0.7695 -0.3705  0.6521
  591MOL0     H78008   2.522   8.166   1.482 -0.8922  0.2076 -1.6994
  591MOL0     H78009   2.427   8.233   1.610 -0.9078  1.6956 -0.5011
  591MOL0     H78010   2.488   8.569   1.331 -4.5850  0.1923 -1.2245
  591MOL0     H78011   2.983   8.078   1.636  0.0515 -1.2964  0.4150
  591MOL0     H78012   3.218   8.095   1.726  1.9730 -1.3285  2.1251
  592MOL0     O78013  10.342   7.226   6.966 -0.3138  0.1427 -0.2634
  592MOL0     C78014  10.294   7.223   7.081 -0.1789  0.3616  0.0311
  592MOL0     O78015  10.368   7.207   7.189  0.5039 -0.0744 -0.5293
  592MOL0     C78016  10.501   7.228   7.208 -0.5920 -0.1558 -0.4214
  592MOL0     C78017  10.581   7.335   7.166 -0.9777  0.5252 -0.5683
  592MOL0     C78018  10.721   7.341   7.190 -0.3244 -0.4785  0.1501
  592MOL0     C78019  10.778   7.238   7.273  0.0840 -0.2699  0.3335
  592MOL0     O78020  10.907   7.250   7.320 -0.5492 -0.0205 -0.8727
  592MOL0     C78021  11.007   7.328   7.246 -0.0675 -0.0513 -0.3888
  592MOL0     C78022  11.138   7.269   7.291 -0.2278  0.4265  0.0917
  592MOL0     C78023  11.263   7.322   7.225 -0.0482 -0.3320  0.7684
  592MOL0     C78024  11.392   7.264   7.283  0.0080  0.5090 -0.2834
  592MOL0     C78025  11.517   7.315   7.218 -0.4931  0.0152 -0.1681
  592MOL0     C78026  11.636   7.236   7.272  0.2040  0.2579 -0.3590
  592MOL0     C78027  11.767   7.270   7.207  0.6299 -0.5515 -0.7097
  592MOL0     C78028  11.835   7.390   7.275 -0.2391 -0.8661  0.4410
  592MOL0     N78029  11.958   7.436   7.201  0.3348 -0.1959  0.5073
  592MOL0     C78030  12.087   7.400   7.227  0.2772 -0.2892  0.2360
  592MOL0     C78031  12.162   7.430   7.116  0.1657  0.3775  0.9443
  592MOL0     C78032  12.310   7.401   7.080 -0.7476  0.4883  0.7054
  592MOL0     C78033  12.345   7.256   7.081 -0.5082 -0.5691  0.2231
  592MOL0     C78034  12.268   7.165   6.979 -0.3341  0.1840  0.2572
  592MOL0     C78035  12.155   7.086   7.049  0.6419  0.2395  0.5400
  592MOL0     O78036  12.207   6.987   7.143  0.0244 -0.5703  0.4826
  592MOL0     C78037  12.110   6.910   7.207 -0.0154 -0.6153 -0.7585
  592MOL0     C78038  11.975   6.912   7.183  0.2131 -0.6392 -0.4706
  592MOL0     C78039  11.891   6.842   7.268  0.3312 -0.4414 -0.3313
  592MOL0     C78040  11.939   6.760   7.373  0.2482 -1.1400 -0.3069
  592MOL0     C78041  11.847   6.680   7.454 -0.2243  0.1125  0.8520
  592MOL0     O78042  11.705   6.685   7.429 -0.2695 -1.0349 -0.4518
  592MOL0     C78043  11.619   6.643   7.526 -0.2496 -0.6958  0.1671
  592MOL0     C78044  11.549   6.524   7.510 -0.2769  0.1973 -0.3897
  592MOL0     C78045  11.457   6.491   7.602 -0.3209 -0.1974  0.0829
  592MOL0     C78046  11.421   6.560   7.711 -0.0341  0.1650  0.4207
  592MOL0     O78047  11.306   6.520   7.779  0.0598 -0.7071  0.1422
  592MOL0     C78048  11.255   6.614   7.881  0.6938  0.4260  0.1764
  592MOL0     C78049  11.157   6.548   7.972  0.8646  0.6247 -0.6855
  592MOL0     C78050  11.050   6.481   7.881  0.5351  0.7073  0.0852
  592MOL0     C78051  10.936   6.433   7.967  1.3107  0.2337  0.1080
  592MOL0     C78052  10.985   6.305   8.041  1.0131 -0.2409  0.2425
  592MOL0     C78053  10.863   6.236   8.110 -0.0761 -0.3472  0.9302
  592MOL0     C78054  10.801   6.325   8.217 -0.4173  0.1881 -0.1767
  592MOL0     C78055  10.750   6.237   8.332  0.0841 -0.4291  0.8878
  592MOL0    Cl78056  10.629   6.132   8.261  0.3306 -0.3431 -0.4345
  592MOL0     C78057  11.497   6.679   7.733  1.4088  0.4587  0.1514
  592MOL0     C78058  11.596   6.719   7.643 -0.5474 -1.2332 -0.7222
  592MOL0     O78059  11.895   6.615   7.546 -0.0970  0.2029  0.5517
  592MOL0     C78060  12.079   6.757   7.396  0.5850 -0.1998  0.3262
  592MOL0     C78061  12.161   6.825   7.305  0.3554 -0.9516  0.8939
  592MOL0     N78062  12.068   7.485   7.022  0.1610 -0.6287 -0.6700
  592MOL0     N78063  11.953   7.494   7.082  0.1830  0.2984  0.1246
  592MOL0     C78064  10.699   7.135   7.327  1.1660  0.5609 -0.5957
  592MOL0     C78065  10.564   7.135   7.295 -0.4290  0.0063  0.4405
  592MOL0     C78066  10.148   7.226   7.092  0.0422  0.0536 -0.1636
  592MOL0     C78067  10.092   7.244   7.214 -0.3860 -0.7002 -0.0558
  592MOL0     C78068   9.954   7.251   7.231  0.8823  0.2267 -0.8280
  592MOL0     C78069   9.872   7.249   7.115  1.3297 -0.6856 -0.1894
  592MOL0     O78070   9.739   7.263   7.107  0.5689 -0.2784  0.5381
  592MOL0     C78071   9.673   7.254   7.239  0.0044 -0.2579 -0.1396
  592MOL0     C78072   9.522   7.271   7.234 -0.3353  0.1201  0.0477
  592MOL0     C78073   9.484   7.412   7.191 -0.5908 -1.2320 -0.1217
  592MOL0     C78074   9.483   7.516   7.300  0.0005 -0.4326  0.0270
  592MOL0     C78075   9.391   7.483   7.412  0.3304 -0.5718  0.0786
  592MOL0     C78076   9.317   7.452   7.513  0.5792  0.1009 -0.4153
  592MOL0     C78077   9.933   7.216   6.995  0.5557 -0.6951  0.2576
  592MOL0     C78078  10.065   7.208   6.983 -0.3296 -0.7716  0.5847
  592MOL0     H78079  10.553   7.414   7.097 -2.2341  1.6887  1.1778
  592MOL0     H78080  10.772   7.437   7.175  0.1397 -0.4363  1.7943
  592MOL0     H78081  10.997   7.435   7.264  0.3579  0.1370 -1.1956
  592MOL0     H78082  10.983   7.317   7.139 -4.2559  0.0100  0.3838
  592MOL0     H78083  11.137   7.165   7.256 -1.2777  0.7225 -0.8393
  592MOL0     H78084  11.158   7.271   7.398  1.1477 -0.0472 -0.1288
  592MOL0     H78085  11.273   7.429   7.241  1.4658 -0.3223 -0.0101
  592MOL0     H78086  11.262   7.309   7.116 -2.2794  0.8606  0.5960
  592MOL0     H78087  11.395   7.295   7.387 -0.1441 -0.7865  0.1279
  592MOL0     H78088  11.383   7.155   7.286 -0.2956  0.5554  2.1567
  592MOL0     H78089  11.523   7.422   7.243 -1.9036 -0.0664  0.6480
  592MOL0     H78090  11.516   7.295   7.111 -0.4340 -2.0871  0.1832
  592MOL0     H78091  11.622   7.128   7.267  0.8740  0.1613 -0.2545
  592MOL0     H78092  11.651   7.249   7.379  1.5171  2.3759 -0.7283
  592MOL0     H78093  11.834   7.185   7.220  1.4513  0.4691  2.9343
  592MOL0     H78094  11.746   7.284   7.101 -0.0682 -3.9298 -1.1185
  592MOL0     H78095  11.858   7.375   7.381 -3.6322 -0.2336  1.3989
  592MOL0     H78096  11.762   7.471   7.287 -0.2411 -0.9927  1.4161
  592MOL0     H78097  12.143   7.353   7.308  1.4718 -0.9788 -0.9378
  592MOL0     H78098  12.370   7.451   7.157 -0.5818 -1.8218  2.1989
  592MOL0     H78099  12.336   7.440   6.981 -1.1615 -1.8971 -0.4159
  592MOL0     H78100  12.337   7.215   7.182 -3.1226  2.8210  1.5929
  592MOL0     H78101  12.451   7.265   7.055 -1.2718  0.8589 -2.9922
  592MOL0     H78102  12.217   7.224   6.901  0.3532  0.2830 -0.1230
  592MOL0     H78103  12.345   7.102   6.934  0.2450  0.2437  1.1394
  592MOL0     H78104  12.100   7.027   6.975 -0.3728 -1.1687  2.3273
  592MOL0     H78105  12.086   7.156   7.097 -1.3570 -0.6328 -0.9206
  592MOL0     H78106  11.933   6.972   7.103 -0.7154  0.1763  0.5819
  592MOL0     H78107  11.785   6.863   7.261  0.3539 -0.0054  0.5493
  592MOL0     H78108  11.557   6.479   7.411  0.1557  0.4294 -0.4625
  592MOL0     H78109  11.397   6.409   7.563 -0.3454  0.7913 -2.0707
  592MOL0     H78110  11.221   6.701   7.824  3.1412  0.1329 -1.8862
  592MOL0     H78111  11.335   6.648   7.946  0.8359 -0.5485  0.5302
  592MOL0     H78112  11.113   6.620   8.042  0.0451 -1.8244  1.4753
  592MOL0     H78113  11.209   6.469   8.027 -0.8700 -1.1495 -1.4620
  592MOL0     H78114  11.092   6.391   7.836 -2.4455 -0.3516 -0.8479
  592MOL0     H78115  11.022   6.549   7.799  3.6604 -0.4928 -2.1433
  592MOL0     H78116  10.894   6.507   8.036  1.7018 -1.2139  2.0130
  592MOL0     H78117  10.856   6.403   7.899  1.5580  2.3069 -1.1877
  592MOL0     H78118  11.065   6.321   8.114 -0.8952  0.6918  2.2474
  592MOL0     H78119  11.022   6.235   7.966 -0.4624 -0.6150 -0.1619
  592MOL0     H78120  10.890   6.135   8.144  0.6748 -0.4799  0.0126
  592MOL0     H78121  10.787   6.210   8.036  0.4399  2.8232 -0.8749
  592MOL0     H78122  10.875   6.394   8.258 -1.0790  0.9933 -0.3319
  592MOL0     H78123  10.718   6.385   8.181 -0.1151 -0.0257 -1.2603
  592MOL0     H78124  10.695   6.297   8.405 -0.2313 -1.5471  1.5930
  592MOL0     H78125  10.822   6.180   8.391 -1.5136 -1.4865  1.8692
  592MOL0     H78126  11.476   6.739   7.822  1.7913 -1.2461  1.4364
  592MOL0     H78127  11.650   6.811   7.661 -1.6385 -0.2614 -2.2007
  592MOL0     H78128  12.139   6.712   7.475  0.4171  2.2909  1.9908
  592MOL0     H78129  12.268   6.810   7.300  0.3580 -1.1912  1.4959
  592MOL0     H78130  10.746   7.071   7.401 -0.3770  0.8877  0.7206
  592MOL0     H78131  10.489   7.071   7.340 -0.9633  0.2824 -0.0558
  592MOL0     H78132  10.156   7.264   7.300 -1.6465  0.9369  0.5714
  592MOL0     H78133   9.927   7.265   7.336  0.7166 -1.4790 -0.6116
  592MOL0     H78134   9.714   7.337   7.298  1.6616 -0.2887 -1.1866
  592MOL0     H78135   9.699   7.156   7.280  1.0595 -0.6443 -1.6358
  592MOL0     H78136   9.493   7.205   7.152 -2.2526 -0.4702  1.1113
  592MOL0     H78137   9.476   7.241   7.329  0.5482  0.2115  0.5134
  592MOL0     H78138   9.386   7.397   7.145 -1.2790 -0.7582  1.1404
  592MOL0     H78139   9.549   7.441   7.108 -3.8830 -3.0108 -3.6614
  592MOL0     H78140   9.585   7.532   7.337  1.2281 -1.5721 -2.6079
  592MOL0     H78141   9.444   7.611   7.261  3.4671  1.5230  0.8934
  592MOL0     H78142   9.252   7.424   7.593 -0.8534  0.0955 -1.5495
  592MOL0     H78143   9.863   7.192   6.916  1.8475 -0.7346 -0.9024
  592MOL0     H78144  10.100   7.192   6.882 -1.4305 -0.4249  0.1351
  593MOL0     O78145   3.815   2.863   1.683  0.3998  0.6463  0.2724
  593MOL0     C78146   3.852   2.941   1.766  0.5323  0.1314 -1.2545
  593MOL0     O78147   3.769   3.021   1.846 -0.5469  0.7132  0.3656
  593MOL0     C78148   3.641   2.987   1.857  0.3250  0.6146  0.7981
  593MOL0     C78149   3.548   3.084   1.816 -1.2969  0.1246 -0.0706
  593MOL0     C78150   3.413   3.058   1.809 -0.3442  0.1998  0.4974
  593MOL0     C78151   3.365   2.938   1.854 -0.2692  0.2869 -0.4887
  593MOL0     O78152   3.229   2.922   1.844  0.0559 -0.5861  0.0673
  593MOL0     C78153   3.161   2.821   1.929  0.5188 -0.1782 -0.6209
  593MOL0     C78154   3.016   2.851   1.916  0.4961  0.2236 -0.2523
  593MOL0     C78155   2.929   2.787   2.020  0.5697  0.2804 -0.0584
  593MOL0     C78156   2.778   2.797   1.987 -0.2657  0.4998 -0.8130
  593MOL0     C78157   2.713   2.672   2.047  0.8419 -0.0062 -0.6048
  593MOL0     C78158   2.558   2.692   2.070  0.0350 -0.0723  0.2280
  593MOL0     C78159   2.505   2.556   2.113 -0.1512 -0.0673 -0.4130
  593MOL0     C78160   2.361   2.558   2.154 -0.6767 -0.1815 -0.0349
  593MOL0     N78161   2.274   2.570   2.046  0.3254  0.0714  0.0657
  593MOL0     C78162   2.230   2.689   1.997  0.8391  0.1918 -0.0721
  593MOL0     C78163   2.153   2.660   1.888 -0.0250 -0.3057 -0.8507
  593MOL0     C78164   2.080   2.759   1.798  0.3812  0.0206  0.3655
  593MOL0     C78165   1.942   2.806   1.846 -0.9532 -0.3670  0.1267
  593MOL0     C78166   1.954   2.894   1.964 -0.2747  0.0759 -0.2779
  593MOL0     C78167   1.819   2.921   2.033  0.2757 -0.6351 -0.3755
  593MOL0     O78168   1.734   2.808   2.025  0.1512 -0.1820  0.4495
  593MOL0     C78169   1.606   2.833   2.058  1.1675  0.3399  0.2926
  593MOL0     C78170   1.499   2.756   2.001 -0.5660  0.3174 -0.8986
  593MOL0     C78171   1.366   2.782   2.035 -0.4773  0.5435  0.3267
  593MOL0     C78172   1.327   2.884   2.118 -0.0388 -1.0163  0.1956
  593MOL0     C78173   1.189   2.928   2.133 -0.0038 -0.1635 -0.1471
  593MOL0     O78174   1.172   3.019   2.233 -0.2357 -0.6221 -0.3600
  593MOL0     C78175   1.045   3.055   2.261  0.5559  0.6147  0.4685
  593MOL0     C78176   0.984   3.043   2.381 -0.0002 -0.0688  0.0548
  593MOL0     C78177   0.853   3.090   2.408 -0.1673  0.3692  0.6869
  593MOL0     C78178   0.780   3.154   2.311 -0.2089 -0.1504  0.3209
  593MOL0     O78179   0.662   3.209   2.342  0.3379  0.6283 -0.8445
  593MOL0     C78180   0.583   3.284   2.249  0.1234  0.0059 -0.0515
  593MOL0     C78181   0.432   3.263   2.273  0.1762 -0.0176 -0.8669
  593MOL0     C78182   0.385   3.308   2.415  0.9424  0.3148  0.3544
  593MOL0     C78183   0.248   3.370   2.407 -0.6584 -0.7112  1.2011
  593MOL0     C78184   0.188   3.392   2.551  0.1097 -0.1932  0.5213
  593MOL0     C78185   0.098   3.519   2.545 -0.8117 -0.3116 -0.3584
  593MOL0     C78186   0.165   3.654   2.505  0.4866  0.6549  0.0679
  593MOL0     C78187   0.306   3.675   2.557  0.5741  0.2865 -0.1472
  593MOL0    Cl78188   0.354   3.824   2.477 -0.0920 -0.1309 -0.1807
  593MOL0     C78189   0.842   3.162   2.184  0.9096 -0.0167  0.2326
  593MOL0     C78190   0.969   3.113   2.160  0.2378 -0.5971 -1.0971
  593MOL0     O78191   1.105   2.878   2.058  0.4312 -0.8854  0.7221
  593MOL0     C78192   1.436   2.959   2.178  0.7892 -0.3313 -0.3592
  593MOL0     C78193   1.568   2.934   2.154 -0.5487 -0.1320  0.0939
  593MOL0     N78194   2.150   2.519   1.874 -0.1384  0.1368  0.3673
  593MOL0     N78195   2.228   2.465   1.966  0.5532  0.0126  0.1090
  593MOL0     C78196   3.452   2.846   1.917 -0.6453  1.1690  0.0734
  593MOL0     C78197   3.589   2.867   1.911 -0.8680  0.3100 -0.2416
  593MOL0     C78198   3.993   2.932   1.803  0.0785  0.4382 -0.0702
  593MOL0     C78199   4.066   2.821   1.764  0.5547  0.1625 -0.1044
  593MOL0     C78200   4.201   2.806   1.804  0.4720 -0.2838 -0.2908
  593MOL0     C78201   4.258   2.906   1.882 -0.1868  0.5744 -0.8911
  593MOL0     O78202   4.395   2.897   1.904  0.4702  0.2680 -0.0653
  593MOL0     C78203   4.453   2.981   2.007  0.0546  0.2714  0.0765
  593MOL0     C78204   4.449   2.891   2.137 -0.6382  0.4080 -0.5021
  593MOL0     C78205   4.469   2.975   2.265  0.3483 -0.7386  0.2549
  593MOL0     C78206   4.368   2.941   2.374  0.3567 -0.4610  0.5423
  593MOL0     C78207   4.244   3.012   2.343 -0.8687  0.6643  0.0335
  593MOL0     C78208   4.141   3.073   2.326 -0.6733  0.2527 -0.8831
  593MOL0     C78209   4.181   3.014   1.933  0.9579  0.5194 -0.5273
  593MOL0     C78210   4.046   3.024   1.893  0.1320 -0.7149  0.2123
  593MOL0     H78211   3.596   3.175   1.781 -0.7599  0.5194  1.5747
  593MOL0     H78212   3.350   3.135   1.765 -0.8270  0.0625  0.9528
  593MOL0     H78213   3.193   2.829   2.033 -0.9411 -3.5253  0.2170
  593MOL0     H78214   3.189   2.718   1.905  0.1587 -1.0688  2.4109
  593MOL0     H78215   2.979   2.823   1.817  0.6473  0.7576 -0.4677
  593MOL0     H78216   2.990   2.956   1.934 -1.2936 -0.4540  1.4610
  593MOL0     H78217   2.956   2.822   2.120  1.2207  0.8038 -0.4068
  593MOL0     H78218   2.960   2.683   2.004 -1.3526 -0.2458 -0.6544
  593MOL0     H78219   2.736   2.891   2.026  2.2592  1.4385 -0.2054
  593MOL0     H78220   2.762   2.794   1.878  2.0370  2.3987 -1.2836
  593MOL0     H78221   2.748   2.668   2.151 -0.3203  2.7418 -0.0276
  593MOL0     H78222   2.738   2.578   1.996 -0.8355 -0.6940 -0.2439
  593MOL0     H78223   2.517   2.729   1.976 -0.6907  0.6452  0.8108
  593MOL0     H78224   2.547   2.768   2.149 -2.4657  0.8022 -0.8555
  593MOL0     H78225   2.525   2.484   2.033  0.7387  2.1863 -2.3120
  593MOL0     H78226   2.559   2.531   2.206  1.0107  0.2460 -0.9843
  593MOL0     H78227   2.353   2.649   2.215  2.6261  0.5128 -0.4511
  593MOL0     H78228   2.337   2.468   2.211 -0.2387  0.1601  0.7137
  593MOL0     H78229   2.256   2.788   2.034 -0.1730  0.3280  0.2934
  593MOL0     H78230   2.058   2.713   1.701 -2.1165 -1.0908  1.3742
  593MOL0     H78231   2.138   2.850   1.780 -0.2379  0.6166  1.3222
  593MOL0     H78232   1.883   2.717   1.867  1.7906 -3.3587 -3.5155
  593MOL0     H78233   1.880   2.856   1.770  0.4686  1.5325  0.1289
  593MOL0     H78234   2.024   2.850   2.036  0.5980  0.3960 -0.9166
  593MOL0     H78235   1.998   2.991   1.943  0.3363 -0.2197 -0.3848
  593MOL0     H78236   1.770   2.990   1.964 -1.2281 -0.4097  0.8830
  593MOL0     H78237   1.840   2.948   2.137 -1.2070 -1.9646  0.2999
  593MOL0     H78238   1.508   2.674   1.929 -2.1876  1.5510 -2.6214
  593MOL0     H78239   1.300   2.706   1.994  3.2576 -2.3051 -0.9426
  593MOL0     H78240   1.054   3.011   2.458  0.7120  0.1190 -0.4996
  593MOL0     H78241   0.814   3.082   2.509  2.3307 -3.4633  1.5746
  593MOL0     H78242   0.594   3.240   2.150 -0.5810 -1.5356  0.5245
  593MOL0     H78243   0.605   3.390   2.261 -4.3590  1.1650 -0.1709
  593MOL0     H78244   0.409   3.156   2.270 -1.1876  0.1501  1.2098
  593MOL0     H78245   0.377   3.325   2.201 -1.1719  1.9081  1.6577
  593MOL0     H78246   0.456   3.385   2.446  0.4585 -0.3813  3.5816
  593MOL0     H78247   0.397   3.224   2.483  1.1519 -0.1531 -0.2539
  593MOL0     H78248   0.260   3.465   2.353  1.5525 -0.8078  1.4334
  593MOL0     H78249   0.174   3.316   2.347 -0.3214  0.0257  0.0744
  593MOL0     H78250   0.273   3.408   2.618  1.6170  1.1116 -1.5624
  593MOL0     H78251   0.125   3.306   2.575 -1.0037  0.4802  0.1043
  593MOL0     H78252   0.065   3.542   2.647  0.0618  1.4246 -0.4400
  593MOL0     H78253   0.009   3.490   2.487 -0.1758 -2.4432 -0.3580
  593MOL0     H78254   0.162   3.658   2.395  0.2464 -0.1577  0.0393
  593MOL0     H78255   0.096   3.733   2.536  2.8586  2.5606  0.8518
  593MOL0     H78256   0.376   3.595   2.527 -0.1988  0.3404 -2.2350
  593MOL0     H78257   0.306   3.687   2.665 -2.2028  1.7913 -0.2403
  593MOL0     H78258   0.799   3.201   2.093 -1.5380 -0.8049  0.9771
  593MOL0     H78259   1.022   3.135   2.068  0.3652  3.8079 -0.1785
  593MOL0     H78260   1.409   3.046   2.236 -2.2364 -0.5950 -1.2126
  593MOL0     H78261   1.642   2.999   2.200 -1.5521  2.5145 -1.7646
  593MOL0     H78262   3.429   2.742   1.937  4.0061  0.2154  1.6968
  593MOL0     H78263   3.650   2.786   1.952 -2.6488  0.3291  2.7099
  593MOL0     H78264   4.024   2.749   1.694  0.5819 -1.4594  1.4692
  593MOL0     H78265   4.267   2.725   1.776 -0.0114 -0.7695 -0.0481
  593MOL0     H78266   4.406   3.078   2.026 -0.9615 -0.4805  1.6296
  593MOL0     H78267   4.553   3.013   1.976  1.0078  0.4071  2.9936
  593MOL0     H78268   4.358   2.832   2.152 -0.9962  1.2354  0.7122
  593MOL0     H78269   4.528   2.814   2.141 -0.9693  0.1370  2.2471
  593MOL0     H78270   4.463   3.082   2.243 -2.4348 -0.6765  0.9301
  593MOL0     H78271   4.567   2.941   2.301  0.5590  0.1423  0.5508
  593MOL0     H78272   4.346   2.834   2.365 -2.1794  0.0407 -0.0381
  593MOL0     H78273   4.395   2.960   2.479 -0.5628 -0.2296  0.7481
  593MOL0     H78274   4.058   3.136   2.297 -0.4529  1.4374  0.9196
  593MOL0     H78275   4.220   3.092   1.998 -2.5791 -0.6310  3.3387
  593MOL0     H78276   3.978   3.104   1.921  0.0648 -0.3301 -0.9937
  594MOL0     O78277   8.989   7.996   9.561  0.7940 -0.1672 -0.2653
  594MOL0     C78278   9.020   8.056   9.663  0.4313  0.3318 -0.4721
  594MOL0     O78279   9.137   8.131   9.689 -0.2647 -0.0462  0.0409
  594MOL0     C78280   9.258   8.107   9.628 -0.6781  0.8434 -0.5354
  594MOL0     C78281   9.352   8.211   9.653  0.1576  0.1792  0.0955
  594MOL0     C78282   9.486   8.184   9.614  0.1953  0.8828  0.5371
  594MOL0     C78283   9.516   8.073   9.539  0.9501 -0.0231  0.3506
  594MOL0     O78284   9.641   8.064   9.498 -0.6812  0.5284  0.5539
  594MOL0     C78285   9.696   7.933   9.459 -0.0014 -0.1311 -0.2868
  594MOL0     C78286   9.850   7.959   9.437  0.2798 -0.9883 -0.4502
  594MOL0     C78287   9.936   7.977   9.562  0.6086 -0.2163 -0.2655
  594MOL0     C78288  10.085   7.968   9.533 -0.3933 -0.0584 -0.5861
  594MOL0     C78289  10.178   7.995   9.654 -0.9969  0.3196 -0.5565
  594MOL0     C78290  10.323   7.944   9.618 -0.8187  0.4731  0.0616
  594MOL0     C78291  10.424   8.052   9.550  0.1039  0.2799 -0.0462
  594MOL0     C78292  10.487   8.146   9.656 -0.1239 -0.2286 -0.7820
  594MOL0     N78293  10.566   8.088   9.756 -0.1700 -0.1185 -0.4833
  594MOL0     C78294  10.628   7.966   9.757  0.3084  0.1417  0.0910
  594MOL0     C78295  10.672   7.954   9.879 -0.3668  0.2501 -0.9660
  594MOL0     C78296  10.758   7.834   9.923  0.3427  1.2837 -0.2922
  594MOL0     C78297  10.894   7.893   9.970 -0.0379 -0.2310 -0.0354
  594MOL0     C78298  10.945   7.987   9.854 -0.0776  0.0367 -0.2279
  594MOL0     C78299  11.096   7.995   9.875  0.0672 -0.0662 -0.5533
  594MOL0     O78300  11.142   7.858   9.862 -0.5778 -0.9212 -0.1733
  594MOL0     C78301  11.276   7.838   9.881  0.1366 -0.6299  0.9817
  594MOL0     C78302  11.375   7.906   9.814  0.5060 -0.5882  0.4402
  594MOL0     C78303  11.512   7.882   9.840 -0.5115 -0.4136 -0.1939
  594MOL0     C78304  11.558   7.785   9.927  0.6671  0.3007 -0.8571
  594MOL0     C78305  11.700   7.760   9.961  0.6403  0.1400 -0.2308
  594MOL0     O78306  11.791   7.843   9.896 -0.2734 -0.0874  0.4813
  594MOL0     C78307  11.918   7.808   9.921  0.6072  0.1422 -0.5447
  594MOL0     C78308  11.995   7.735   9.834  0.9926 -0.3881 -0.1570
  594MOL0     C78309  12.125   7.701   9.856 -0.1176  0.0844 -0.0008
  594MOL0     C78310  12.192   7.742   9.970  0.2396  0.3609  0.1826
  594MOL0     O78311  12.313   7.682   9.982 -0.8243  0.0955 -0.0567
  594MOL0     C78312  12.397   7.701  10.100 -1.1880 -0.0637 -0.3907
  594MOL0     C78313  12.545   7.674  10.059  0.1493  0.3295 -0.1316
  594MOL0     C78314  12.649   7.692  10.168 -0.5063 -0.2897 -0.5512
  594MOL0     C78315  12.790   7.652  10.126  0.2795  0.0297 -0.0676
  594MOL0     C78316  12.898   7.724  10.210  0.9185 -0.5293  0.0189
  594MOL0     C78317  13.048   7.658  10.205  0.4817 -0.0716 -0.4660
  594MOL0     C78318  13.092   7.641  10.058  0.5559  0.4626  0.5090
  594MOL0     C78319  13.231   7.596  10.051 -0.3273  0.3950  0.3576
  594MOL0    Cl78320  13.317   7.658   9.904  0.0815  0.1137  0.3194
  594MOL0     C78321  12.113   7.820  10.061  0.0807 -0.6513  0.2792
  594MOL0     C78322  11.980   7.855  10.036  0.4068 -0.3604 -0.1806
  594MOL0     O78323  11.729   7.668  10.042  0.3981  0.0151  0.5430
  594MOL0     C78324  11.454   7.721   9.998  0.3866 -0.1992  0.2242
  594MOL0     C78325  11.318   7.738   9.973 -0.2340 -0.0971 -0.2110
  594MOL0     N78326  10.633   8.060   9.958 -0.7149 -0.2019 -0.8018
  594MOL0     N78327  10.576   8.144   9.878 -0.3075  0.5935  0.4494
  594MOL0     C78328   9.419   7.969   9.510 -0.1889  0.5300 -0.4680
  594MOL0     C78329   9.287   7.990   9.552  0.1095  1.3559 -0.3961
  594MOL0     C78330   8.913   8.064   9.764  0.4791  0.3313 -0.1662
  594MOL0     C78331   8.795   7.990   9.753 -0.4058 -0.1966 -0.7584
  594MOL0     C78332   8.706   7.986   9.857  0.2145 -0.4194 -0.3529
  594MOL0     C78333   8.725   8.058   9.972  0.4407 -0.9237  0.4677
  594MOL0     O78334   8.638   8.077  10.083 -0.6289  0.3095  0.6735
  594MOL0     C78335   8.506   8.009  10.078  0.3125 -0.1279  0.7505
  594MOL0     C78336   8.416   8.012  10.191 -0.2168  0.2880 -0.2004
  594MOL0     C78337   8.309   7.899  10.188  0.6939 -0.7264 -0.1296
  594MOL0     C78338   8.194   7.932  10.285  0.8879 -0.2408  0.4671
  594MOL0     C78339   8.080   7.839  10.274 -0.8335  0.1637  0.9872
  594MOL0     C78340   7.989   7.759  10.249 -0.9433  0.3324  0.1544
  594MOL0     C78341   8.837   8.140   9.977  0.1556 -0.1268  0.3786
  594MOL0     C78342   8.931   8.146   9.875 -0.0084  0.4980  0.6214
  594MOL0     H78343   9.333   8.297   9.716  0.5471  0.4307 -0.1247
  594MOL0     H78344   9.568   8.253   9.632  0.0716  1.3111 -0.4793
  594MOL0     H78345   9.642   7.885   9.377  0.4763 -0.0875 -0.6268
  594MOL0     H78346   9.693   7.870   9.548 -0.3906  0.6011  0.2378
  594MOL0     H78347   9.863   8.051   9.379  1.4875 -0.9669 -0.1894
  594MOL0     H78348   9.884   7.876   9.373  0.3347 -0.8083 -0.6566
  594MOL0     H78349   9.919   7.893   9.631 -0.7258 -0.0480 -0.3719
  594MOL0     H78350   9.912   8.063   9.626  1.2838  1.2709 -1.9405
  594MOL0     H78351  10.106   7.867   9.497  0.5031 -0.5170  1.0942
  594MOL0     H78352  10.108   8.038   9.452  0.5853 -1.2780 -1.3978
  594MOL0     H78353  10.140   7.941   9.742 -0.3619  0.3323 -0.2730
  594MOL0     H78354  10.191   8.099   9.683  1.9489 -0.0986 -0.1054
  594MOL0     H78355  10.328   7.857   9.552 -0.8038  0.7687 -0.3272
  594MOL0     H78356  10.365   7.903   9.710 -0.7046 -0.0659 -0.2263
  594MOL0     H78357  10.508   8.007   9.496 -0.8327  0.6440 -1.8869
  594MOL0     H78358  10.372   8.109   9.472 -0.8003 -0.4886 -0.0165
  594MOL0     H78359  10.409   8.206   9.703 -0.0457  1.3705 -2.5607
  594MOL0     H78360  10.546   8.218   9.598  0.3073 -1.3261 -1.7637
  594MOL0     H78361  10.625   7.894   9.676 -2.1287 -1.2649  1.3068
  594MOL0     H78362  10.766   7.753   9.850 -0.0624 -0.0257  1.0718
  594MOL0     H78363  10.708   7.784  10.006 -2.4770  1.1212 -1.9858
  594MOL0     H78364  10.957   7.808   9.997 -2.4632 -1.2394  3.1118
  594MOL0     H78365  10.882   7.962  10.054  2.3295  0.7655 -0.4526
  594MOL0     H78366  10.932   7.940   9.756  3.5424 -0.1784 -0.7528
  594MOL0     H78367  10.902   8.088   9.847 -0.0742  0.0381 -0.2327
  594MOL0     H78368  11.112   8.038   9.975  0.1915  1.5510 -1.2422
  594MOL0     H78369  11.141   8.072   9.813 -0.9219  1.3820  0.4670
  594MOL0     H78370  11.345   7.977   9.737  1.3827  1.3971  1.8354
  594MOL0     H78371  11.587   7.943   9.792 -0.7951  0.2783  0.2253
  594MOL0     H78372  11.939   7.703   9.746  0.1511 -0.1368  0.2683
  594MOL0     H78373  12.165   7.641   9.775 -0.9652  1.7255 -1.7052
  594MOL0     H78374  12.370   7.635  10.183  1.9290 -1.2410 -0.1906
  594MOL0     H78375  12.380   7.804  10.133 -0.4871 -0.5474  1.6448
  594MOL0     H78376  12.564   7.752   9.985  1.5577 -0.4242 -0.6011
  594MOL0     H78377  12.556   7.578  10.007  1.5914  0.3566  0.0908
  594MOL0     H78378  12.615   7.653  10.265  0.6167 -0.0371 -0.0289
  594MOL0     H78379  12.655   7.801  10.180  0.3524 -0.5631  2.3700
  594MOL0     H78380  12.796   7.545  10.150  1.7637  0.3068  0.9257
  594MOL0     H78381  12.810   7.648  10.019  0.6225  1.4691 -0.0721
  594MOL0     H78382  12.868   7.727  10.315 -2.1234  2.6510 -0.7586
  594MOL0     H78383  12.901   7.830  10.180 -0.2944 -0.7203 -0.8583
  594MOL0     H78384  13.037   7.561  10.254 -1.0884  0.3779  0.1474
  594MOL0     H78385  13.107   7.732  10.259 -1.2833  0.6442  0.5804
  594MOL0     H78386  13.029   7.569  10.007 -1.5359  1.0876  2.0622
  594MOL0     H78387  13.073   7.738  10.012 -3.8442  1.0418  3.0190
  594MOL0     H78388  13.242   7.488  10.062 -1.0183  0.1600 -1.0304
  594MOL0     H78389  13.286   7.644  10.133 -0.7468  1.8623 -0.1851
  594MOL0     H78390  12.158   7.871  10.145 -0.9258  2.8041 -1.1047
  594MOL0     H78391  11.928   7.917  10.109 -0.1459  0.0187 -0.8832
  594MOL0     H78392  11.488   7.647  10.070  1.8525  0.4717  0.2468
  594MOL0     H78393  11.243   7.684  10.030  0.2608 -2.1146 -1.3693
  594MOL0     H78394   9.451   7.881   9.455  4.3617  2.8438 -2.0957
  594MOL0     H78395   9.213   7.915   9.524  0.2299  0.1604  2.2431
  594MOL0     H78396   8.775   7.936   9.661 -0.8718  1.1401 -1.4724
  594MOL0     H78397   8.616   7.926   9.844  0.2904 -0.5712 -0.1868
  594MOL0     H78398   8.531   7.906  10.053  0.2754  0.1433 -0.4504
  594MOL0     H78399   8.460   8.049   9.987  2.6570 -2.0178 -1.4446
  594MOL0     H78400   8.458   8.018  10.292 -0.8324  1.2048  0.0143
  594MOL0     H78401   8.353   8.101  10.184 -1.0193 -0.1494  1.0550
  594MOL0     H78402   8.351   7.799  10.205 -1.7399 -1.8798 -0.4823
  594MOL0     H78403   8.273   7.903  10.085  0.1267 -0.1794  0.0847
  594MOL0     H78404   8.232   7.955  10.384 -1.2593 -0.4703  1.3978
  594MOL0     H78405   8.159   8.029  10.248  2.0852 -0.3843 -1.1326
  594MOL0     H78406   7.918   7.684  10.222 -0.7394  0.8731 -2.0601
  594MOL0     H78407   8.834   8.205  10.064  0.0466  1.0380 -0.4791
  594MOL0     H78408   9.014   8.216   9.872  1.5204 -1.2007  1.5735
  595MOL0     O78409   6.450   6.962  10.175 -0.0119 -0.1897 -0.3426
  595MOL0     C78410   6.426   7.056  10.253  0.1786 -0.2737 -0.7977
  595MOL0     O78411   6.314   7.125  10.260 -0.2318 -0.1366 -0.0252
  595MOL0     C78412   6.190   7.074  10.225 -0.1273 -0.4279  0.6908
  595MOL0     C78413   6.149   6.939  10.238  0.0666  0.2991  0.0420
  595MOL0     C78414   6.018   6.902  10.199 -0.8189  0.8834  0.3774
  595MOL0     C78415   5.930   6.987  10.135 -0.7107 -0.3419 -0.6846
  595MOL0     O78416   5.814   6.936  10.091  0.7554  0.0938 -0.4527
  595MOL0     C78417   5.705   7.025  10.095  0.8718 -0.2900  0.0022
  595MOL0     C78418   5.575   6.959  10.078  0.1879  0.4170  0.7155
  595MOL0     C78419   5.486   7.037   9.979 -0.2699 -0.2129 -0.5191
  595MOL0     C78420   5.359   6.969   9.955 -0.6064  0.1721  0.5015
  595MOL0     C78421   5.256   7.059   9.881  0.5100 -0.1370  0.0864
  595MOL0     C78422   5.139   6.980   9.827 -0.4025 -1.0167 -0.3822
  595MOL0     C78423   5.050   6.915   9.941 -0.8838 -0.0788 -0.4823
  595MOL0     C78424   4.912   6.878   9.890 -0.4801  0.3335  0.0241
  595MOL0     N78425   4.824   6.826  10.002 -0.5996  0.1794 -0.0148
  595MOL0     C78426   4.866   6.789  10.130  0.9134  0.7792 -0.0956
  595MOL0     C78427   4.751   6.764  10.192 -0.2235  0.0909 -0.1180
  595MOL0     C78428   4.733   6.699  10.333 -0.1266 -0.6279 -0.4256
  595MOL0     C78429   4.765   6.813  10.440 -0.3478  0.3581  0.9665
  595MOL0     C78430   4.791   6.759  10.582 -0.3311  0.2130  0.7877
  595MOL0     C78431   4.662   6.694  10.639  0.7852 -0.2056  0.2132
  595MOL0     O78432   4.554   6.785  10.644  0.4121 -0.5316  0.1033
  595MOL0     C78433   4.429   6.724  10.667 -0.2286  0.5846  0.4915
  595MOL0     C78434   4.410   6.627  10.760 -0.0037  1.2220 -0.8240
  595MOL0     C78435   4.287   6.575  10.791  0.5673  0.8743  0.2927
  595MOL0     C78436   4.170   6.624  10.722 -0.5332  0.1825  0.7887
  595MOL0     C78437   4.040   6.559  10.748  0.9377  0.1069 -0.0681
  595MOL0     O78438   3.937   6.586  10.658 -0.1717 -0.5440 -0.1203
  595MOL0     C78439   3.814   6.543  10.690 -0.4555  0.1839  0.7742
  595MOL0     C78440   3.762   6.462  10.589  0.5344  0.8810  0.2805
  595MOL0     C78441   3.640   6.395  10.609 -0.3627  0.1054 -0.4096
  595MOL0     C78442   3.560   6.425  10.724 -0.6362 -0.0122 -0.6770
  595MOL0     O78443   3.437   6.362  10.735 -0.3658 -0.3096  0.3070
  595MOL0     C78444   3.330   6.435  10.787 -0.4938  0.2042  0.4770
  595MOL0     C78445   3.202   6.371  10.746  0.0182  0.2879  0.3096
  595MOL0     C78446   3.077   6.414  10.828 -0.8586 -0.2775 -0.5964
  595MOL0     C78447   2.958   6.360  10.761 -0.1655  1.2258 -0.4380
  595MOL0     C78448   2.836   6.371  10.854  0.0241 -0.2253 -0.2425
  595MOL0     C78449   2.714   6.320  10.782  0.0300 -1.2258  0.5226
  595MOL0     C78450   2.693   6.158  10.776 -0.6327 -0.2346  0.3497
  595MOL0     C78451   2.635   6.092  10.897  0.0458 -0.7847 -0.3825
  595MOL0    Cl78452   2.463   6.126  10.889 -0.4779  0.4426 -0.0309
  595MOL0     C78453   3.618   6.506  10.822  0.1282  0.6637 -0.4730
  595MOL0     C78454   3.736   6.574  10.798 -0.3036  0.2143  0.2802
  595MOL0     O78455   4.027   6.492  10.851 -0.0180  0.3490 -0.7286
  595MOL0     C78456   4.193   6.719  10.621 -0.0910 -0.6054 -0.6388
  595MOL0     C78457   4.321   6.776  10.604  0.2238 -0.0307  0.0945
  595MOL0     N78458   4.650   6.791  10.109 -0.0280  0.3703 -0.1423
  595MOL0     N78459   4.690   6.836   9.998  0.7834  0.5850  0.2626
  595MOL0     C78460   5.977   7.125  10.124 -0.0893  0.7118  0.6487
  595MOL0     C78461   6.103   7.162  10.163 -0.3593  0.1769  0.4790
  595MOL0     C78462   6.531   7.114  10.340  0.1857  0.3456  0.1242
  595MOL0     C78463   6.669   7.093  10.305  0.2943  0.2435  0.7887
  595MOL0     C78464   6.769   7.136  10.390 -0.1800 -0.3907 -0.5969
  595MOL0     C78465   6.735   7.189  10.515  0.1398 -0.4202  0.1832
  595MOL0     O78466   6.823   7.226  10.614 -0.0069 -0.1776 -0.5457
  595MOL0     C78467   6.954   7.176  10.612  0.0128 -0.2950 -0.5902
  595MOL0     C78468   7.027   7.210  10.744 -0.4807 -0.2379  0.4480
  595MOL0     C78469   7.164   7.138  10.741 -0.0978  0.4545  0.2980
  595MOL0     C78470   7.227   7.156  10.879 -0.1054  0.2154  0.6085
  595MOL0     C78471   7.363   7.109  10.883 -0.0647  0.0209 -0.1039
  595MOL0     C78472   7.479   7.083  10.885  1.0713  0.1571 -0.5851
  595MOL0     C78473   6.604   7.208  10.549  0.7666  0.3104 -0.6877
  595MOL0     C78474   6.503   7.170  10.465  0.4534  0.1985  0.5635
  595MOL0     H78475   6.223   6.872  10.280  1.3163 -0.3053 -2.8684
  595MOL0     H78476   5.987   6.798  10.204 -0.8948  0.9115  0.5137
  595MOL0     H78477   5.715   7.096  10.012 -0.7242  1.9586  1.6060
  595MOL0     H78478   5.692   7.093  10.180 -2.4096 -0.4734 -0.2304
  595MOL0     H78479   5.542   6.928  10.177  1.4142 -0.4430  0.8888
  595MOL0     H78480   5.591   6.871  10.015 -4.4316 -1.3679  1.6675
  595MOL0     H78481   5.535   7.052   9.882  1.9049  0.6047  0.6414
  595MOL0     H78482   5.479   7.135  10.026  1.0628 -1.3044  2.1989
  595MOL0     H78483   5.382   6.880   9.897 -2.1832 -1.6059  2.4590
  595MOL0     H78484   5.325   6.922  10.048  1.6461  0.6089  1.6143
  595MOL0     H78485   5.312   7.109   9.801 -0.6759  2.7969  0.9807
  595MOL0     H78486   5.217   7.130   9.954  1.0193 -1.6234  1.8564
  595MOL0     H78487   5.179   6.909   9.754 -0.6122 -0.3424 -1.1737
  595MOL0     H78488   5.085   7.054   9.767  0.1494 -2.4722 -2.7799
  595MOL0     H78489   5.105   6.828   9.980 -1.0478 -0.0130 -0.0996
  595MOL0     H78490   5.040   6.978  10.030  0.8227 -0.7297  0.2230
  595MOL0     H78491   4.909   6.804   9.809  0.7314 -0.5296  0.7276
  595MOL0     H78492   4.873   6.971   9.848 -1.3712 -0.1642 -0.2762
  595MOL0     H78493   4.960   6.781  10.184  2.5761  1.3020 -2.7095
  595MOL0     H78494   4.804   6.617  10.340  0.0684 -0.4091  0.2486
  595MOL0     H78495   4.635   6.650  10.341 -0.9264  0.9187 -0.2531
  595MOL0     H78496   4.679   6.880  10.434 -0.8386 -0.3993 -1.2954
  595MOL0     H78497   4.858   6.864  10.414 -0.8213  0.1076 -1.4135
  595MOL0     H78498   4.869   6.682  10.582  0.3617  0.7432 -2.9704
  595MOL0     H78499   4.830   6.844  10.638  2.7857 -1.8539  2.0688
  595MOL0     H78500   4.676   6.666  10.744  1.4952 -1.8001 -0.2645
  595MOL0     H78501   4.634   6.612  10.572  0.4687  0.5115 -0.5321
  595MOL0     H78502   4.489   6.587  10.823 -0.8956  1.0565  0.2236
  595MOL0     H78503   4.272   6.489  10.855 -1.4175  0.1270 -1.0679
  595MOL0     H78504   3.815   6.451  10.495 -0.2186  0.2704 -0.0813
  595MOL0     H78505   3.595   6.339  10.528 -0.0326 -0.5076 -0.1765
  595MOL0     H78506   3.346   6.537  10.750 -0.4993 -0.9269 -3.0330
  595MOL0     H78507   3.329   6.425  10.896 -1.8386 -2.1314  0.3162
  595MOL0     H78508   3.198   6.264  10.765  1.5198 -0.0828 -1.2108
  595MOL0     H78509   3.181   6.392  10.640 -2.0189 -2.2389  0.1290
  595MOL0     H78510   3.070   6.522  10.846  1.0137 -0.1991 -0.0936
  595MOL0     H78511   3.097   6.364  10.924  3.2276  1.3198 -0.4079
  595MOL0     H78512   2.952   6.426  10.674  2.0317  0.3328 -1.3727
  595MOL0     H78513   2.971   6.254  10.734  3.8988  1.6687 -0.8620
  595MOL0     H78514   2.823   6.477  10.878  3.0940 -0.0392  0.9910
  595MOL0     H78515   2.851   6.314  10.946 -3.4582 -2.7534 -1.0334
  595MOL0     H78516   2.737   6.350  10.679 -0.1603 -0.6113  0.6538
  595MOL0     H78517   2.623   6.370  10.818 -0.7634 -2.2982  0.0768
  595MOL0     H78518   2.639   6.128  10.685 -2.1423 -2.1833  1.7859
  595MOL0     H78519   2.791   6.110  10.767 -1.4037 -1.5728 -1.8829
  595MOL0     H78520   2.692   6.128  10.983 -3.0774  1.5218  0.9189
  595MOL0     H78521   2.654   5.984  10.893 -0.3322 -0.8298 -4.3027
  595MOL0     H78522   3.567   6.534  10.914  0.4734  0.2823 -0.1610
  595MOL0     H78523   3.768   6.644  10.875  1.2143 -0.4887  0.3325
  595MOL0     H78524   4.106   6.753  10.566 -3.0674 -1.4243  3.0786
  595MOL0     H78525   4.316   6.856  10.530 -0.4059 -0.0900  0.0680
  595MOL0     H78526   5.908   7.192  10.072  0.7744  0.7487 -0.5001
  595MOL0     H78527   6.139   7.265  10.155  1.8943 -0.4188  1.9720
  595MOL0     H78528   6.709   7.059  10.211  0.7463  1.3684  0.5588
  595MOL0     H78529   6.875   7.119  10.371  0.1978 -0.1331  1.0966
  595MOL0     H78530   7.013   7.230  10.538  2.2602 -0.2610  1.1017
  595MOL0     H78531   6.961   7.067  10.600  0.0363 -0.6101  1.8059
  595MOL0     H78532   7.031   7.316  10.770 -3.3029 -0.4313  2.1855
  595MOL0     H78533   6.970   7.161  10.824  1.1015 -3.3581 -0.1848
  595MOL0     H78534   7.234   7.177  10.668  1.6156 -0.4005  1.4055
  595MOL0     H78535   7.134   7.037  10.712  0.6187  0.8375 -1.9136
  595MOL0     H78536   7.227   7.262  10.904 -0.1065 -0.1567  2.2822
  595MOL0     H78537   7.162   7.108  10.953 -1.5761  1.5491  0.2319
  595MOL0     H78538   7.581   7.051  10.891  0.9193 -0.0796  1.7768
  595MOL0     H78539   6.580   7.239  10.650 -1.0462  0.8928 -1.2626
  595MOL0     H78540   6.400   7.174  10.498  0.8767 -1.3996  2.2285
  596MOL0     O78541  10.080  10.886   6.474 -0.5634 -0.3381 -0.2533
  596MOL0     C78542  10.106  10.786   6.531  0.9712  0.3891 -0.4154
  596MOL0     O78543  10.016  10.727   6.614  0.2102  0.8417  0.1057
  596MOL0     C78544   9.882  10.767   6.633  0.0743 -1.3506  0.2733
  596MOL0     C78545   9.776  10.742   6.542 -0.6563 -0.4147 -0.1694
  596MOL0     C78546   9.648  10.779   6.567 -0.7499 -0.2176  0.3396
  596MOL0     C78547   9.608  10.839   6.689 -0.0065  1.0820  1.0097
  596MOL0     O78548   9.476  10.871   6.711 -0.5079 -0.1082 -0.4959
  596MOL0     C78549   9.379  10.785   6.644  0.2350 -0.8001 -0.4418
  596MOL0     C78550   9.235  10.812   6.693  0.0230  0.9876  0.4563
  596MOL0     C78551   9.132  10.722   6.629 -0.2145 -0.1595 -0.1259
  596MOL0     C78552   9.121  10.736   6.473 -0.3199 -0.7395 -0.3297
  596MOL0     C78553   8.969  10.718   6.443 -0.1567 -0.1712  0.1556
  596MOL0     C78554   8.947  10.728   6.292 -0.2996 -0.6397 -0.2673
  596MOL0     C78555   8.796  10.743   6.256 -0.0250 -0.2954 -0.0643
  596MOL0     C78556   8.708  10.628   6.298 -0.4527 -0.3423 -0.1789
  596MOL0     N78557   8.579  10.633   6.229  0.0278  0.6988 -0.3043
  596MOL0     C78558   8.544  10.547   6.129 -0.1829  0.3784  0.5018
  596MOL0     C78559   8.412  10.558   6.115 -0.1858 -0.1011  0.7568
  596MOL0     C78560   8.321  10.496   6.012  0.1089  0.6478  0.0565
  596MOL0     C78561   8.162  10.525   6.015 -0.7038  0.5879  0.3482
  596MOL0     C78562   8.102  10.671   6.012  0.2170  0.0188  0.3433
  596MOL0     C78563   7.962  10.664   5.990 -0.1193  0.1436  0.2296
  596MOL0     O78564   7.941  10.679   5.852 -0.0527 -0.8845  0.0923
  596MOL0     C78565   7.817  10.729   5.807  0.1665  0.2730 -0.7468
  596MOL0     C78566   7.697  10.728   5.887 -0.1885  0.0355  0.3566
  596MOL0     C78567   7.575  10.782   5.838 -0.3445  0.1794  0.1179
  596MOL0     C78568   7.559  10.832   5.708  0.4709 -0.2643  0.4656
  596MOL0     C78569   7.432  10.898   5.665  0.4986 -0.0102 -0.6911
  596MOL0     O78570   7.321  10.871   5.748 -0.2336  0.1370 -0.0436
  596MOL0     C78571   7.204  10.929   5.718  0.0029 -0.3498  0.9615
  596MOL0     C78572   7.099  10.838   5.704  0.4953  0.4847 -0.3043
  596MOL0     C78573   6.980  10.884   5.666  0.5434  0.3977  0.3868
  596MOL0     C78574   6.951  11.023   5.671  0.3006 -0.3574 -0.2121
  596MOL0     O78575   6.824  11.064   5.692  0.0330 -0.0513 -0.6411
  596MOL0     C78576   6.714  10.974   5.665 -0.4529 -0.2856  0.4929
  596MOL0     C78577   6.596  11.037   5.737  1.2708 -0.5753  0.5125
  596MOL0     C78578   6.469  10.968   5.701 -0.5941  0.0968  0.5892
  596MOL0     C78579   6.346  11.032   5.755  1.1228 -0.2712 -0.4216
  596MOL0     C78580   6.223  10.998   5.670 -0.4726  0.4142  0.6222
  596MOL0     C78581   6.109  11.081   5.715  0.4456  0.0843 -0.5218
  596MOL0     C78582   5.980  11.040   5.647 -0.0254  0.8956 -0.9536
  596MOL0     C78583   5.921  11.127   5.544  0.2487 -0.0671  0.5729
  596MOL0    Cl78584   6.050  11.179   5.433  0.2488  0.3703 -0.4047
  596MOL0     C78585   7.050  11.114   5.679 -0.2313 -0.7532  0.5980
  596MOL0     C78586   7.182  11.066   5.718 -0.2880 -0.4493  0.6686
  596MOL0     O78587   7.423  10.944   5.557 -0.0070 -0.0266  0.1542
  596MOL0     C78588   7.672  10.821   5.620  0.3108 -0.7702 -0.2635
  596MOL0     C78589   7.801  10.764   5.674  1.0603  0.2916  0.1737
  596MOL0     N78590   8.367  10.619   6.228 -0.1238  0.9672 -0.2721
  596MOL0     N78591   8.469  10.666   6.301 -0.2045  0.1348  1.3440
  596MOL0     C78592   9.707  10.856   6.790  1.2380 -0.0552 -0.3185
  596MOL0     C78593   9.841  10.824   6.762 -0.3629  0.0942 -0.1554
  596MOL0     C78594  10.242  10.738   6.534 -0.2450  0.0782  0.5383
  596MOL0     C78595  10.267  10.609   6.591 -0.5746 -0.2949 -0.5842
  596MOL0     C78596  10.401  10.567   6.612  0.6817 -0.9969 -0.0172
  596MOL0     C78597  10.507  10.647   6.569 -2.0334 -0.5372 -0.3487
  596MOL0     O78598  10.632  10.589   6.588 -0.1087  0.6827 -0.3696
  596MOL0     C78599  10.753  10.654   6.539  0.2373  0.2650  0.2267
  596MOL0     C78600  10.814  10.755   6.635 -0.5142 -0.0221 -0.7256
  596MOL0     C78601  10.945  10.812   6.574  0.0006  0.1872 -0.9344
  596MOL0     C78602  11.015  10.889   6.687 -0.3595 -0.4156 -0.2839
  596MOL0     C78603  11.151  10.899   6.639  0.1472 -0.1081  0.0645
  596MOL0     C78604  11.270  10.884   6.623  0.0875  0.4427  0.2192
  596MOL0     C78605  10.483  10.772   6.512 -0.0711 -0.3337  0.4894
  596MOL0     C78606  10.348  10.812   6.483  0.0170  0.7355  0.5020
  596MOL0     H78607   9.785  10.688   6.448  1.0865  1.0991 -0.9404
  596MOL0     H78608   9.580  10.773   6.482 -2.4889  1.8462  1.4685
  596MOL0     H78609   9.410  10.685   6.674  2.3257 -0.3669 -0.9752
  596MOL0     H78610   9.383  10.779   6.535 -0.4059 -1.3966 -0.4386
  596MOL0     H78611   9.189  10.908   6.668  1.3076  1.4525 -0.1756
  596MOL0     H78612   9.242  10.809   6.802  0.3208  1.5898  0.4522
  596MOL0     H78613   9.045  10.759   6.683  1.5863  1.7742  1.6733
  596MOL0     H78614   9.143  10.617   6.655  0.1490 -0.2234 -0.5226
  596MOL0     H78615   9.145  10.838   6.441  2.9263 -0.6800  1.8646
  596MOL0     H78616   9.191  10.671   6.420 -2.0460 -1.6786 -1.5532
  596MOL0     H78617   8.908  10.796   6.489  0.2760 -0.2487  0.8854
  596MOL0     H78618   8.926  10.625   6.482 -0.3194 -0.1656 -0.0149
  596MOL0     H78619   8.989  10.633   6.256  1.9216 -0.5318  1.7829
  596MOL0     H78620   9.009  10.809   6.251 -1.4106  1.7270  2.4228
  596MOL0     H78621   8.770  10.834   6.310  0.7013  0.0286 -0.2541
  596MOL0     H78622   8.784  10.766   6.150  0.8576 -0.0783 -0.1267
  596MOL0     H78623   8.695  10.617   6.406  1.1411  0.4525  0.1235
  596MOL0     H78624   8.753  10.537   6.259 -2.0660 -0.3998 -2.0764
  596MOL0     H78625   8.603  10.478   6.070 -2.7537 -4.6931  3.1925
  596MOL0     H78626   8.322  10.389   6.031 -1.9241  0.4446 -0.7331
  596MOL0     H78627   8.354  10.507   5.908 -0.6768 -1.5780 -0.4779
  596MOL0     H78628   8.125  10.488   6.111 -3.2919 -0.7133 -1.0467
  596MOL0     H78629   8.109  10.461   5.943  0.4402 -1.1106  0.9486
  596MOL0     H78630   8.121  10.731   6.102  1.9517  1.1809 -0.7286
  596MOL0     H78631   8.147  10.730   5.932 -0.1001 -1.2271 -0.7951
  596MOL0     H78632   7.921  10.748   6.046  0.5683 -2.0392  4.4094
  596MOL0     H78633   7.908  10.571   6.009 -3.1622  1.5464 -1.0203
  596MOL0     H78634   7.709  10.708   5.993  1.2419  2.2365  0.6808
  596MOL0     H78635   7.492  10.797   5.906 -0.5710  4.4758 -0.8333
  596MOL0     H78636   7.108  10.732   5.721 -1.6364  0.2772 -0.1301
  596MOL0     H78637   6.909  10.803   5.667 -0.6758  1.3988 -1.0860
  596MOL0     H78638   6.718  10.871   5.702 -0.2237  0.0428  1.4123
  596MOL0     H78639   6.708  10.977   5.556 -1.1599  0.9095  0.5534
  596MOL0     H78640   6.570  11.142   5.720 -1.2348 -1.2536 -0.2504
  596MOL0     H78641   6.610  11.033   5.845  1.2843  1.4170  0.6254
  596MOL0     H78642   6.478  10.861   5.723 -1.2585 -0.4714 -1.6299
  596MOL0     H78643   6.469  10.973   5.592  3.7706  1.2182  0.4675
  596MOL0     H78644   6.332  11.004   5.860 -1.2671  0.0994 -0.5867
  596MOL0     H78645   6.358  11.140   5.760 -3.0383  0.3101  0.4193
  596MOL0     H78646   6.191  10.895   5.688 -0.3641  0.2003 -0.3531
  596MOL0     H78647   6.247  11.013   5.564 -0.1955  2.4704  0.9453
  596MOL0     H78648   6.132  11.188   5.702 -0.6009  0.3069 -0.6090
  596MOL0     H78649   6.101  11.076   5.824 -0.5043  0.1960 -0.5765
  596MOL0     H78650   5.992  10.941   5.601  1.2482  1.1454 -1.1918
  596MOL0     H78651   5.903  11.030   5.724 -0.4243  0.9979 -1.3366
  596MOL0     H78652   5.879  11.214   5.597 -0.9811  0.5865 -1.3799
  596MOL0     H78653   5.829  11.091   5.497  0.0605 -1.0682  1.6600
  596MOL0     H78654   7.030  11.221   5.679 -0.8452 -0.8465 -0.9052
  596MOL0     H78655   7.262  11.138   5.722 -1.5360  1.3389 -2.5758
  596MOL0     H78656   7.663  10.861   5.520 -0.1890  2.1122  0.8097
  596MOL0     H78657   7.886  10.751   5.608  0.3395  1.0662 -0.9326
  596MOL0     H78658   9.690  10.906   6.884 -3.9439 -1.4281 -0.2403
  596MOL0     H78659   9.910  10.839   6.844  2.1414 -0.2748 -2.0772
  596MOL0     H78660  10.188  10.541   6.619  0.1838 -0.8807  0.1768
  596MOL0     H78661  10.429  10.472   6.656  3.2926 -1.1068 -1.6296
  596MOL0     H78662  10.736  10.678   6.434 -1.1788 -2.3616 -0.2249
  596MOL0     H78663  10.825  10.573   6.531  1.4201  1.1385  1.4238
  596MOL0     H78664  10.739  10.832   6.651 -1.8544 -0.5310 -3.7655
  596MOL0     H78665  10.834  10.713   6.734  1.5020  2.4545  0.0447
  596MOL0     H78666  10.919  10.887   6.498  0.4903  1.0711 -0.2389
  596MOL0     H78667  11.010  10.733   6.536  1.3162  1.1572 -0.7384
  596MOL0     H78668  10.981  10.993   6.692  0.0616 -0.2710 -0.3684
  596MOL0     H78669  11.003  10.837   6.782 -2.0029 -0.4771 -0.5025
  596MOL0     H78670  11.361  10.839   6.591 -1.4862 -1.5105 -1.7908
  596MOL0     H78671  10.572  10.827   6.484  1.2812 -2.7438 -0.3017
  596MOL0     H78672  10.338  10.899   6.420  0.0508  0.3322 -0.0729
  597MOL0     O78673   4.973   4.451   1.774  0.2324  1.0092 -0.5556
  597MOL0     C78674   5.038   4.546   1.737 -0.0693  0.2734  0.6544
  597MOL0     O78675   4.995   4.625   1.630  0.2584  0.2767 -0.1809
  597MOL0     C78676   4.881   4.592   1.561  0.4867  0.2434 -0.4864
  597MOL0     C78677   4.876   4.509   1.454  0.0482 -0.2104  0.3830
  597MOL0     C78678   4.761   4.495   1.378  0.1274 -0.5364  0.6282
  597MOL0     C78679   4.646   4.564   1.406  0.0530  0.3803  0.2716
  597MOL0     O78680   4.536   4.539   1.327 -0.5074 -0.3636 -0.5258
  597MOL0     C78681   4.406   4.545   1.393 -0.0628 -0.0746  0.7422
  597MOL0     C78682   4.289   4.515   1.306  0.2581  0.5879 -0.0793
  597MOL0     C78683   4.154   4.518   1.377 -0.0020  0.1034  0.1121
  597MOL0     C78684   4.063   4.465   1.268  0.4284 -0.8057 -0.6353
  597MOL0     C78685   3.921   4.442   1.318 -0.0216  1.1536  0.2546
  597MOL0     C78686   3.832   4.412   1.191  0.8954  0.3326 -0.6221
  597MOL0     C78687   3.693   4.359   1.246 -0.3707  0.1716 -0.0604
  597MOL0     C78688   3.603   4.326   1.125 -0.5318 -0.5370 -0.1207
  597MOL0     N78689   3.481   4.258   1.170  0.4801 -0.3857  0.0829
  597MOL0     C78690   3.390   4.289   1.270 -0.1443 -0.6547  0.0063
  597MOL0     C78691   3.310   4.177   1.285 -0.6527 -0.5989  0.5749
  597MOL0     C78692   3.186   4.150   1.375  0.5659 -0.8958 -0.8881
  597MOL0     C78693   3.057   4.210   1.307  0.0842  0.5605 -0.3297
  597MOL0     C78694   2.936   4.212   1.404  0.1113  0.1525 -0.6602
  597MOL0     C78695   2.807   4.259   1.345  0.6618  0.1055  0.3283
  597MOL0     O78696   2.714   4.263   1.454  0.3582  0.4899  0.3845
  597MOL0     C78697   2.597   4.340   1.435  0.1414 -0.2921  0.4884
  597MOL0     C78698   2.570   4.415   1.318 -0.4823 -0.5273 -1.1028
  597MOL0     C78699   2.452   4.488   1.302  0.2300 -0.2569  0.2138
  597MOL0     C78700   2.350   4.489   1.400  0.1470  0.0124 -0.2683
  597MOL0     C78701   2.220   4.556   1.376  0.0228  0.4614  0.9899
  597MOL0     O78702   2.122   4.525   1.463  0.0850  0.6228  1.2482
  597MOL0     C78703   1.999   4.574   1.433  0.3638  0.5539  0.3129
  597MOL0     C78704   1.892   4.476   1.404 -0.1176 -0.6302 -0.7855
  597MOL0     C78705   1.760   4.519   1.389  0.3107  0.0681 -0.0273
  597MOL0     C78706   1.725   4.660   1.399 -0.1013  0.9208  0.1868
  597MOL0     O78707   1.601   4.713   1.398 -0.2597 -0.2380 -0.3017
  597MOL0     C78708   1.499   4.643   1.322 -0.3459  0.7280 -1.3473
  597MOL0     C78709   1.410   4.740   1.253  0.4725 -0.0064  0.0196
  597MOL0     C78710   1.278   4.683   1.205 -0.7120 -0.2399 -0.4393
  597MOL0     C78711   1.210   4.791   1.121 -0.7402  0.4879 -0.3776
  597MOL0     C78712   1.079   4.753   1.072 -1.1140  0.0559 -0.4063
  597MOL0     C78713   1.028   4.879   0.996 -0.6272  0.4632 -0.9950
  597MOL0     C78714   0.878   4.863   0.967 -1.1683 -0.0179  0.1570
  597MOL0     C78715   0.805   5.000   0.987  0.0855  0.6576  0.3239
  597MOL0    Cl78716   0.835   5.113   0.852 -0.0881 -0.0147 -0.0465
  597MOL0     C78717   1.828   4.749   1.423 -0.2481  0.6674 -0.0467
  597MOL0     C78718   1.959   4.706   1.434  0.2175 -0.3583  0.1468
  597MOL0     O78719   2.216   4.651   1.298  0.0921  0.6122 -0.3242
  597MOL0     C78720   2.378   4.421   1.521  0.8249 -0.4923  0.3630
  597MOL0     C78721   2.497   4.351   1.540 -0.0849  0.2139 -0.0331
  597MOL0     N78722   3.359   4.082   1.196 -0.7153 -0.3279 -0.7457
  597MOL0     N78723   3.459   4.135   1.130  0.2993  0.5266  0.3782
  597MOL0     C78724   4.659   4.671   1.502  0.2498  0.3000 -0.3233
  597MOL0     C78725   4.771   4.676   1.583 -0.0872 -1.0519  0.0283
  597MOL0     C78726   5.177   4.575   1.796 -0.6422 -0.2373 -0.2676
  597MOL0     C78727   5.251   4.686   1.743  0.3510 -0.2455 -0.0681
  597MOL0     C78728   5.382   4.712   1.795 -0.7113 -0.2539  0.5221
  597MOL0     C78729   5.437   4.637   1.899 -0.1664  0.9983 -0.1832
  597MOL0     O78730   5.558   4.670   1.954 -0.6289  0.0375 -1.0633
  597MOL0     C78731   5.670   4.711   1.874 -0.5528  0.0065 -0.4431
  597MOL0     C78732   5.810   4.695   1.934  0.0553 -0.7231  0.2358
  597MOL0     C78733   5.867   4.553   1.952  0.3858 -0.5549 -0.6404
  597MOL0     C78734   5.797   4.483   2.069 -1.3233  0.0245 -0.3191
  597MOL0     C78735   5.870   4.365   2.112  1.2645  0.0827  1.1019
  597MOL0     C78736   5.947   4.275   2.142 -0.0999 -0.6117 -0.5030
  597MOL0     C78737   5.358   4.539   1.947  0.2567 -0.4202 -0.7905
  597MOL0     C78738   5.235   4.503   1.895 -0.5283 -0.3501  0.4640
  597MOL0     H78739   4.954   4.441   1.422 -0.7539 -1.9295  1.8771
  597MOL0     H78740   4.744   4.421   1.301 -0.7359 -0.6049  0.8703
  597MOL0     H78741   4.387   4.632   1.456 -0.3229 -0.0921  0.6888
  597MOL0     H78742   4.410   4.459   1.461  1.8589 -0.0210  0.7647
  597MOL0     H78743   4.309   4.423   1.249  2.9586  0.3916  1.0127
  597MOL0     H78744   4.282   4.602   1.241  0.8759  1.4469  0.9755
  597MOL0     H78745   4.126   4.615   1.418 -0.7543 -0.7507  1.7006
  597MOL0     H78746   4.154   4.451   1.464  1.7450 -2.4666 -1.6821
  597MOL0     H78747   4.066   4.543   1.191 -2.0785  0.7090  0.6722
  597MOL0     H78748   4.098   4.372   1.222  1.5143 -0.4032 -0.6404
  597MOL0     H78749   3.880   4.531   1.367 -0.3091  1.9272 -1.3145
  597MOL0     H78750   3.907   4.363   1.392 -0.1716  1.2730  0.3539
  597MOL0     H78751   3.885   4.340   1.127  1.1242 -1.6573  1.6755
  597MOL0     H78752   3.818   4.497   1.124 -0.0200  0.5609 -0.1587
  597MOL0     H78753   3.714   4.267   1.301  2.6497 -0.2315 -1.6847
  597MOL0     H78754   3.641   4.428   1.313 -1.6686 -1.0561  0.2442
  597MOL0     H78755   3.649   4.260   1.051  0.7785 -0.0393  0.2316
  597MOL0     H78756   3.576   4.415   1.068  0.9010 -0.1724 -0.2605
  597MOL0     H78757   3.377   4.390   1.306  2.1094  0.0249 -0.9184
  597MOL0     H78758   3.220   4.202   1.466  0.4879  2.7167 -2.7237
  597MOL0     H78759   3.173   4.043   1.392  0.4106 -0.8651 -0.8042
  597MOL0     H78760   3.031   4.151   1.219  0.5379  0.0125 -0.0964
  597MOL0     H78761   3.078   4.314   1.279 -1.3786  1.1102  0.4673
  597MOL0     H78762   2.912   4.111   1.440 -0.9820  0.5845 -0.1310
  597MOL0     H78763   2.971   4.265   1.493  0.4719  0.9161 -1.2443
  597MOL0     H78764   2.766   4.190   1.270  1.4060 -0.8189  0.7495
  597MOL0     H78765   2.823   4.351   1.288 -0.1651 -0.5241 -0.9822
  597MOL0     H78766   2.642   4.421   1.236  2.3599 -1.6204  1.1373
  597MOL0     H78767   2.433   4.537   1.207 -2.2097 -2.3254 -0.5002
  597MOL0     H78768   1.926   4.374   1.416  1.0502 -0.1452  0.2234
  597MOL0     H78769   1.684   4.442   1.381  0.6311 -0.2786  0.1995
  597MOL0     H78770   1.437   4.580   1.387 -0.6798 -0.1759 -2.4978
  597MOL0     H78771   1.546   4.569   1.256 -1.6338 -4.0133  2.4749
  597MOL0     H78772   1.463   4.780   1.166 -0.7835 -0.2896 -0.9175
  597MOL0     H78773   1.387   4.829   1.311 -0.9253  1.0402 -1.9938
  597MOL0     H78774   1.215   4.665   1.293  0.5988  2.0257  1.0942
  597MOL0     H78775   1.291   4.591   1.148 -1.7042  1.0059 -2.7935
  597MOL0     H78776   1.208   4.869   1.197  1.1951  1.0041 -0.8147
  597MOL0     H78777   1.277   4.816   1.039  0.5163 -1.5805 -0.0627
  597MOL0     H78778   1.011   4.734   1.156 -0.7631  2.0555  0.3666
  597MOL0     H78779   1.073   4.663   1.009 -2.3087 -1.3101  1.5357
  597MOL0     H78780   1.081   4.901   0.902 -0.2587  4.3268 -0.0657
  597MOL0     H78781   1.043   4.957   1.071 -0.8489 -2.6153  2.5581
  597MOL0     H78782   0.860   4.817   0.869 -3.1234  0.5661  0.2003
  597MOL0     H78783   0.835   4.799   1.046 -0.6118  0.4064  0.8098
  597MOL0     H78784   0.836   5.046   1.081 -0.8956 -0.7431  1.3773
  597MOL0     H78785   0.697   4.981   0.986  0.2949 -0.6539  0.2676
  597MOL0     H78786   1.823   4.857   1.432  3.0068  0.9518 -0.3340
  597MOL0     H78787   2.029   4.785   1.460 -1.2953  0.7211  1.1139
  597MOL0     H78788   2.299   4.415   1.595  0.3675 -0.1067 -0.0877
  597MOL0     H78789   2.529   4.313   1.636  2.5039  0.1998 -0.8311
  597MOL0     H78790   4.564   4.720   1.519 -0.6758 -1.2618 -0.7635
  597MOL0     H78791   4.771   4.740   1.671  0.5892 -1.5337  0.3896
  597MOL0     H78792   5.205   4.752   1.669  0.1468 -1.3296 -0.9439
  597MOL0     H78793   5.436   4.790   1.742 -1.3344  0.1648  0.4995
  597MOL0     H78794   5.659   4.818   1.852  1.1535  0.3787  0.3455
  597MOL0     H78795   5.665   4.665   1.775 -0.2104  1.3914 -1.1421
  597MOL0     H78796   5.880   4.754   1.874 -1.8751  0.0948 -1.3030
  597MOL0     H78797   5.815   4.731   2.038  1.3759 -2.9448  1.0188
  597MOL0     H78798   5.974   4.562   1.976  0.6530 -0.6052 -1.7761
  597MOL0     H78799   5.857   4.494   1.861 -3.5164  0.4392 -1.0223
  597MOL0     H78800   5.807   4.548   2.155  0.2957  0.0902 -0.5383
  597MOL0     H78801   5.692   4.465   2.042 -2.8187  2.8833  2.9270
  597MOL0     H78802   6.039   4.220   2.141  0.7215  0.6737 -2.9828
  597MOL0     H78803   5.393   4.495   2.040  0.2840  2.3803  0.6392
  597MOL0     H78804   5.191   4.412   1.935 -0.7141 -0.8769 -0.8737
  598MOL0     O78805   1.111   6.304   6.989  0.8288 -0.0909 -0.5105
  598MOL0     C78806   1.143   6.214   6.915  0.0603 -0.7535 -0.4828
  598MOL0     O78807   1.148   6.087   6.950  0.4376  0.3138 -0.1308
  598MOL0     C78808   1.083   6.052   7.068  0.4605  0.2265  0.2566
  598MOL0     C78809   1.142   6.069   7.189 -0.5168  0.0149 -0.2934
  598MOL0     C78810   1.077   6.039   7.304  0.0295  0.6216  0.5316
  598MOL0     C78811   0.961   5.960   7.300 -0.0757 -0.2845  0.4797
  598MOL0     O78812   0.900   5.911   7.408 -0.5776 -0.4470  0.3229
  598MOL0     C78813   0.971   5.904   7.538  0.2554  0.1357  0.2004
  598MOL0     C78814   0.870   5.875   7.648  0.5209 -0.0245  0.1386
  598MOL0     C78815   0.769   5.989   7.675 -0.0892 -0.1236 -0.1871
  598MOL0     C78816   0.824   6.089   7.771  0.1965  0.6395 -1.0626
  598MOL0     C78817   0.715   6.136   7.865  0.6407 -0.6907  0.0105
  598MOL0     C78818   0.601   6.208   7.780 -0.0363  0.4365 -0.2507
  598MOL0     C78819   0.508   6.279   7.879 -0.4536  0.7483  0.7452
  598MOL0     C78820   0.399   6.352   7.811  0.0642  0.2004 -0.3370
  598MOL0     N78821   0.283   6.345   7.894  0.1370  0.1998 -0.2319
  598MOL0     C78822   0.206   6.228   7.918 -0.5742  0.1428 -0.3285
  598MOL0     C78823   0.150   6.247   8.041  0.3193  0.0208 -1.0684
  598MOL0     C78824   0.062   6.151   8.120  0.7001 -0.3895 -0.4054
  598MOL0     C78825   0.159   6.048   8.189  0.0720  0.1674 -0.7029
  598MOL0     C78826   0.101   5.981   8.309 -0.0265  0.7266  0.3923
  598MOL0     C78827   0.200   5.869   8.350 -0.3149 -1.0423 -0.0241
  598MOL0     O78828   0.169   5.846   8.493  0.1917  0.3037 -0.1495
  598MOL0     C78829   0.061   5.768   8.531 -0.2160  0.4766 -0.0668
  598MOL0     C78830  -0.029   5.705   8.444  0.0439  0.5942  0.5994
  598MOL0     C78831  -0.140   5.642   8.493 -0.5354 -1.4579  0.8252
  598MOL0     C78832  -0.178   5.631   8.625  0.9775 -0.6310 -0.2763
  598MOL0     C78833  -0.298   5.561   8.664  0.3144 -0.1123  0.3385
  598MOL0     O78834  -0.381   5.493   8.570  0.5577  0.3720 -0.6050
  598MOL0     C78835  -0.509   5.435   8.602 -0.4861  0.0271  0.1352
  598MOL0     C78836  -0.551   5.355   8.497  0.1749  0.4549 -0.5444
  598MOL0     C78837  -0.682   5.314   8.509 -0.2339 -0.0805 -0.5602
  598MOL0     C78838  -0.773   5.353   8.605 -0.0150  0.3027 -0.3805
  598MOL0     O78839  -0.904   5.323   8.604 -0.2145 -0.9434 -0.6141
  598MOL0     C78840  -0.997   5.428   8.580 -0.6140 -0.8214  1.1061
  598MOL0     C78841  -1.117   5.403   8.651 -0.1879  0.9165 -0.6991
  598MOL0     C78842  -1.096   5.360   8.804  0.8336  0.9317 -0.4800
  598MOL0     C78843  -1.221   5.295   8.857 -0.5540 -0.1555 -0.4449
  598MOL0     C78844  -1.263   5.333   8.997  0.8874  0.2544 -0.3647
  598MOL0     C78845  -1.291   5.479   9.003 -0.7776 -0.1808 -0.4900
  598MOL0     C78846  -1.365   5.510   9.130  0.6591 -1.3797 -0.1321
  598MOL0     C78847  -1.346   5.655   9.192  0.9825  0.9096  0.6117
  598MOL0    Cl78848  -1.178   5.661   9.241 -0.3772 -0.1575 -0.1780
  598MOL0     C78849  -0.725   5.435   8.702  0.5544 -0.1806  0.1497
  598MOL0     C78850  -0.594   5.477   8.703 -0.0019 -0.6226  0.0946
  598MOL0     O78851  -0.314   5.562   8.784  0.0615  0.0678  0.4330
  598MOL0     C78852  -0.096   5.695   8.719  1.1366  0.3466 -0.5196
  598MOL0     C78853   0.024   5.763   8.673  0.5572 -0.1157  0.1927
  598MOL0     N78854   0.183   6.369   8.085 -0.0156  0.6305  0.0008
  598MOL0     N78855   0.253   6.430   7.997  0.5382  0.7352 -0.6558
  598MOL0     C78856   0.899   5.951   7.179  0.2905  0.5578  0.7858
  598MOL0     C78857   0.959   5.989   7.057  0.2449  0.4237 -0.5549
  598MOL0     C78858   1.169   6.262   6.778  0.0663  0.9334  0.5649
  598MOL0     C78859   1.180   6.174   6.667 -0.5910 -0.5285 -0.0571
  598MOL0     C78860   1.180   6.220   6.537  0.3504 -1.0162  0.1360
  598MOL0     C78861   1.193   6.359   6.505  0.1622  0.4373 -0.4696
  598MOL0     O78862   1.201   6.383   6.371  0.2648 -0.8924 -0.4635
  598MOL0     C78863   1.183   6.518   6.326 -0.6818  0.2720 -0.0379
  598MOL0     C78864   1.180   6.550   6.177 -0.0533  0.7351 -0.1957
  598MOL0     C78865   1.158   6.688   6.150 -0.4564 -0.0319  0.1804
  598MOL0     C78866   1.007   6.716   6.159  0.1051  0.2965 -0.2227
  598MOL0     C78867   0.973   6.843   6.105  0.6180 -0.3304 -0.2804
  598MOL0     C78868   0.943   6.956   6.050 -1.3913  0.2375 -0.6697
  598MOL0     C78869   1.206   6.448   6.616  0.1687  0.5351  0.2523
  598MOL0     C78870   1.192   6.403   6.748  0.2591 -0.0284 -0.3599
  598MOL0     H78871   1.238   6.119   7.200 -0.1693 -0.8833  0.9200
  598MOL0     H78872   1.139   6.066   7.390 -0.1854 -0.9841  1.2181
  598MOL0     H78873   1.008   6.003   7.566 -2.6051  1.4907 -0.4109
  598MOL0     H78874   1.056   5.835   7.538  1.9750  2.0937  2.3020
  598MOL0     H78875   0.921   5.861   7.744 -1.6171  0.9178  1.4917
  598MOL0     H78876   0.820   5.781   7.622  2.5137 -0.3738 -2.8631
  598MOL0     H78877   0.674   5.946   7.709 -0.5224  0.9381 -0.0022
  598MOL0     H78878   0.741   6.043   7.584 -0.5551 -3.7575 -2.3813
  598MOL0     H78879   0.895   6.049   7.844 -0.6255  2.1625  0.6576
  598MOL0     H78880   0.869   6.174   7.720 -0.4939  2.2462  0.8736
  598MOL0     H78881   0.761   6.198   7.943 -0.2678 -0.8273  0.6578
  598MOL0     H78882   0.667   6.054   7.918 -1.9962  1.0364  0.4994
  598MOL0     H78883   0.555   6.122   7.732  0.8818  0.0743 -0.4976
  598MOL0     H78884   0.641   6.286   7.715 -1.1072 -0.0349 -1.5205
  598MOL0     H78885   0.471   6.215   7.960 -2.4128  0.5364 -0.2491
  598MOL0     H78886   0.561   6.356   7.936  2.1847  0.8913 -1.6651
  598MOL0     H78887   0.371   6.303   7.717 -0.2885 -1.5007  0.6166
  598MOL0     H78888   0.432   6.456   7.803  2.6779 -0.6008 -0.7517
  598MOL0     H78889   0.204   6.136   7.860  0.2664 -0.1404  0.0659
  598MOL0     H78890  -0.013   6.110   8.052 -0.7373 -1.3122  1.6534
  598MOL0     H78891   0.012   6.218   8.190  2.0576 -0.3663  0.5997
  598MOL0     H78892   0.249   6.104   8.219  0.1881  0.4050 -1.4617
  598MOL0     H78893   0.189   5.975   8.113  0.7570  0.3171 -0.5897
  598MOL0     H78894   0.105   6.051   8.393 -1.2499  0.2460  0.8729
  598MOL0     H78895  -0.002   5.946   8.294  0.5462 -0.9937  0.1547
  598MOL0     H78896   0.304   5.903   8.353 -0.6038 -0.1891  0.6139
  598MOL0     H78897   0.204   5.779   8.288 -4.6742 -1.2623 -0.3069
  598MOL0     H78898  -0.015   5.704   8.336 -1.0745 -0.0398  0.4467
  598MOL0     H78899  -0.214   5.610   8.420 -1.7689  2.3404  0.1982
  598MOL0     H78900  -0.488   5.325   8.414  0.9684  0.7188 -0.0559
  598MOL0     H78901  -0.727   5.256   8.429  1.1879  1.7646 -2.8319
  598MOL0     H78902  -1.009   5.432   8.472 -1.9302  0.9663  1.2717
  598MOL0     H78903  -0.961   5.529   8.599  0.3798 -0.9615  0.0499
  598MOL0     H78904  -1.165   5.318   8.601 -0.4787  0.0905  0.9126
  598MOL0     H78905  -1.175   5.495   8.639 -0.9671  0.3627 -1.2394
  598MOL0     H78906  -1.056   5.444   8.862  1.4636  0.0293  0.4355
  598MOL0     H78907  -1.022   5.280   8.811  1.2856  1.2445 -1.4801
  598MOL0     H78908  -1.301   5.309   8.784 -1.7350  4.2333  1.3424
  598MOL0     H78909  -1.197   5.188   8.858  1.0312  0.1415  2.0713
  598MOL0     H78910  -1.193   5.299   9.073  1.0157 -0.6673 -0.8735
  598MOL0     H78911  -1.357   5.280   9.018  1.2751 -0.1957  0.2352
  598MOL0     H78912  -1.353   5.522   8.924 -2.0273  2.4755  1.7738
  598MOL0     H78913  -1.190   5.519   9.016 -1.1384  0.9540 -1.0551
  598MOL0     H78914  -1.474   5.506   9.114  0.7005 -1.3309 -0.4442
  598MOL0     H78915  -1.347   5.442   9.213  0.2568  1.9473  2.9213
  598MOL0     H78916  -1.402   5.662   9.286  1.8224 -2.1711  1.4591
  598MOL0     H78917  -1.383   5.734   9.126  0.1592  0.2947  0.3231
  598MOL0     H78918  -0.789   5.455   8.787 -0.5907 -0.1592 -0.6818
  598MOL0     H78919  -0.579   5.542   8.789 -1.6010 -2.5005  1.9195
  598MOL0     H78920  -0.113   5.685   8.826 -2.1728 -0.8408 -1.0145
  598MOL0     H78921   0.089   5.817   8.741  0.4021  1.8367 -1.1079
  598MOL0     H78922   0.800   5.906   7.179  0.2416  0.6329 -0.3457
  598MOL0     H78923   0.900   5.971   6.968  1.1778 -2.1512 -0.7353
  598MOL0     H78924   1.152   6.072   6.688  0.0003 -0.1801  2.7803
  598MOL0     H78925   1.158   6.137   6.471  0.3375  1.4699 -3.2001
  598MOL0     H78926   1.266   6.571   6.375  0.6063 -1.3263 -0.4174
  598MOL0     H78927   1.089   6.543   6.377 -0.8049 -1.8333  0.8756
  598MOL0     H78928   1.275   6.515   6.137 -1.2407 -1.8724 -1.0121
  598MOL0     H78929   1.100   6.486   6.137  0.5166 -0.2478  0.2248
  598MOL0     H78930   1.194   6.712   6.049 -0.0844 -2.6304 -0.3801
  598MOL0     H78931   1.214   6.750   6.221  1.1633  0.0686 -1.1277
  598MOL0     H78932   0.957   6.640   6.098  1.5274 -1.0455  0.2204
  598MOL0     H78933   0.995   6.707   6.267  2.9018  0.8163  0.2073
  598MOL0     H78934   0.936   7.045   5.991 -1.1436  1.5893  1.2404
  598MOL0     H78935   1.220   6.554   6.597  2.4498  0.6598  2.0687
  598MOL0     H78936   1.187   6.480   6.824  2.4661 -1.0105  0.8673
  599MOL0     O78937   5.234   9.842   4.352  0.8669  0.8175  0.1122
  599MOL0     C78938   5.266   9.919   4.275 -0.0672  0.1584  0.2588
  599MOL0     O78939   5.184   9.984   4.189  0.7385 -0.5172  0.2645
  599MOL0     C78940   5.044   9.974   4.183  0.5071 -0.3706 -0.1477
  599MOL0     C78941   4.997  10.040   4.073  0.6692 -0.3408 -0.6363
  599MOL0     C78942   4.855  10.053   4.054  0.2922  0.2814 -0.4497
  599MOL0     C78943   4.764   9.982   4.132  0.7709  0.1720 -0.5526
  599MOL0     O78944   4.628  10.007   4.119  0.3292  0.3390  0.1469
  599MOL0     C78945   4.582  10.148   4.132  0.1350  0.7756 -0.1542
  599MOL0     C78946   4.438  10.165   4.074 -0.3499 -0.1761 -0.4909
  599MOL0     C78947   4.335  10.076   4.130 -0.2863  0.5227 -0.9756
  599MOL0     C78948   4.194  10.092   4.067  0.1354  0.5385 -1.1399
  599MOL0     C78949   4.092   9.989   4.119  0.1672  0.9208 -0.4681
  599MOL0     C78950   4.077   9.999   4.277 -0.6840 -0.8918  0.8298
  599MOL0     C78951   3.968   9.892   4.317 -0.0438  0.2116  0.2413
  599MOL0     C78952   3.918   9.929   4.465 -0.3696  0.2013 -0.2804
  599MOL0     N78953   3.869   9.801   4.521  0.4090  0.5269  0.2028
  599MOL0     C78954   3.747   9.746   4.510 -0.5732  0.2533  0.7919
  599MOL0     C78955   3.738   9.636   4.589 -0.1025 -0.6515 -0.9075
  599MOL0     C78956   3.627   9.536   4.612 -0.4887 -0.6617  0.3743
  599MOL0     C78957   3.509   9.566   4.519  0.9443 -0.2172  0.0099
  599MOL0     C78958   3.404   9.460   4.561 -0.2413  1.3359 -1.3492
  599MOL0     C78959   3.300   9.464   4.451  0.5682 -0.1352  0.3296
  599MOL0     O78960   3.227   9.588   4.455  0.0354  0.8324  0.0007
  599MOL0     C78961   3.100   9.582   4.493 -0.6088  0.4902  0.7297
  599MOL0     C78962   3.042   9.493   4.583 -0.4317 -0.7517 -0.3391
  599MOL0     C78963   2.903   9.506   4.629 -0.1758 -0.2158 -0.1553
  599MOL0     C78964   2.825   9.605   4.570 -0.6479 -0.4759  0.0444
  599MOL0     C78965   2.688   9.622   4.598  0.2420  0.1981 -0.3699
  599MOL0     O78966   2.636   9.531   4.692 -0.0351 -0.1445 -0.2724
  599MOL0     C78967   2.508   9.535   4.739  1.2890 -1.5123  0.0728
  599MOL0     C78968   2.455   9.638   4.824  0.0990 -0.6370  0.4069
  599MOL0     C78969   2.320   9.649   4.841  0.0490 -0.1458 -0.5334
  599MOL0     C78970   2.228   9.559   4.780  0.1870  0.0397 -0.2381
  599MOL0     O78971   2.087   9.554   4.788 -0.1370 -0.6533 -0.5426
  599MOL0     C78972   2.025   9.681   4.809  0.0622 -0.1779 -0.4210
  599MOL0     C78973   1.872   9.661   4.776 -0.4602 -0.3998  0.1505
  599MOL0     C78974   1.803   9.546   4.851 -0.0291  0.5137 -0.3397
  599MOL0     C78975   1.647   9.546   4.826  0.1613  0.2538  0.3405
  599MOL0     C78976   1.561   9.562   4.958 -1.0184 -0.1448  1.3744
  599MOL0     C78977   1.589   9.452   5.066  0.5786 -1.1788 -1.1282
  599MOL0     C78978   1.488   9.464   5.186  0.0610  0.7136  0.1842
  599MOL0     C78979   1.524   9.580   5.276  0.5693  0.0551 -0.7724
  599MOL0    Cl78980   1.395   9.578   5.396 -0.3176  0.1766  0.4560
  599MOL0     C78981   2.284   9.453   4.697  0.6191 -1.0693 -0.3377
  599MOL0     C78982   2.422   9.437   4.683 -0.5362  0.2809 -0.3360
  599MOL0     O78983   2.624   9.706   4.546 -1.3696 -0.5011 -0.3358
  599MOL0     C78984   2.886   9.693   4.475 -0.1174  0.8097 -0.9119
  599MOL0     C78985   3.018   9.680   4.437 -0.0789 -0.2853 -0.5829
  599MOL0     N78986   3.865   9.624   4.651 -0.3695 -0.7469  0.0480
  599MOL0     N78987   3.943   9.724   4.608 -0.0875  0.5490  0.1589
  599MOL0     C78988   4.825   9.903   4.234 -0.4842  0.2796 -0.3109
  599MOL0     C78989   4.959   9.903   4.268 -0.1497 -0.1332 -0.5521
  599MOL0     C78990   5.418   9.935   4.263  0.5920 -0.1269  0.1259
  599MOL0     C78991   5.466  10.024   4.161  0.1901 -0.5424  0.8480
  599MOL0     C78992   5.606  10.061   4.155  0.5382 -0.9869 -0.2680
  599MOL0     C78993   5.697   9.988   4.245  0.1904 -0.5082 -0.1932
  599MOL0     O78994   5.835   9.996   4.240 -0.2359  0.6368  0.2800
  599MOL0     C78995   5.886  10.121   4.206  0.6465  0.7888 -0.1397
  599MOL0     C78996   6.005  10.142   4.300  0.5189 -0.0468 -0.0761
  599MOL0     C78997   6.139  10.074   4.259 -0.3786 -0.2815  0.2238
  599MOL0     C78998   6.239  10.101   4.372  0.2311  0.5520 -0.2699
  599MOL0     C78999   6.381  10.123   4.323  0.0672  0.1721  0.2255
  599MOL0     C79000   6.497  10.116   4.289 -0.8050 -0.3390  0.5590
  599MOL0     C79001   5.646   9.897   4.341  0.3003  0.2626  0.2296
  599MOL0     C79002   5.505   9.873   4.353 -0.2318 -0.3525 -0.2622
  599MOL0     H79003   5.075  10.087   4.013  0.4109 -1.1939 -1.6621
  599MOL0     H79004   4.825  10.116   3.971 -1.3081 -0.4081 -0.4111
  599MOL0     H79005   4.653  10.211   4.078  1.5321 -0.8366 -0.2969
  599MOL0     H79006   4.589  10.178   4.237  0.4972 -0.3042  0.1476
  599MOL0     H79007   4.435  10.156   3.965  2.0566 -0.0154 -0.6238
  599MOL0     H79008   4.403  10.265   4.102  0.8368  0.0506  0.2551
  599MOL0     H79009   4.335  10.102   4.237  1.7667 -3.2207  0.1391
  599MOL0     H79010   4.369   9.972   4.119 -0.1283  0.5057 -0.3692
  599MOL0     H79011   4.174  10.198   4.082  3.3880  1.0637  0.3165
  599MOL0     H79012   4.202  10.078   3.958 -3.3977 -1.2861 -1.3149
  599MOL0     H79013   4.126   9.891   4.084 -1.4571 -0.0142  0.4497
  599MOL0     H79014   3.995  10.011   4.074 -0.8972  0.8485  1.6667
  599MOL0     H79015   4.052  10.102   4.304  0.0289  0.0537 -1.8092
  599MOL0     H79016   4.174   9.970   4.316  1.1452  1.3039 -1.6795
  599MOL0     H79017   3.882   9.902   4.250 -0.3856  4.2717  1.0046
  599MOL0     H79018   4.003   9.789   4.305 -3.1326 -1.3614  3.1501
  599MOL0     H79019   3.840  10.006   4.453  1.0081  1.5532 -0.9563
  599MOL0     H79020   3.997   9.983   4.517 -0.3766  1.1868 -1.2390
  599MOL0     H79021   3.667   9.790   4.452  1.9812  2.2878 -1.4907
  599MOL0     H79022   3.588   9.544   4.714  0.2732  1.0033  0.5697
  599MOL0     H79023   3.660   9.434   4.590  1.2326  0.4392 -2.7986
  599MOL0     H79024   3.542   9.549   4.416  2.6282 -0.1843  0.5045
  599MOL0     H79025   3.473   9.668   4.528  2.4515  0.4161 -0.6900
  599MOL0     H79026   3.451   9.362   4.568  1.7277  2.3653  1.5727
  599MOL0     H79027   3.365   9.479   4.661 -1.4904  2.6759 -2.0439
  599MOL0     H79028   3.231   9.379   4.446 -0.3982  0.6124  0.7074
  599MOL0     H79029   3.352   9.450   4.356 -0.9190  2.9676 -1.0726
  599MOL0     H79030   3.091   9.408   4.628 -2.5697 -1.1456  1.4133
  599MOL0     H79031   2.870   9.431   4.699  1.4251 -0.1975  0.6552
  599MOL0     H79032   2.509   9.722   4.867 -0.3940 -1.2023  2.2596
  599MOL0     H79033   2.280   9.726   4.906 -2.7396 -1.7164 -0.2269
  599MOL0     H79034   2.074   9.756   4.747  2.0345  1.0641  2.4174
  599MOL0     H79035   2.039   9.711   4.913  1.1222 -1.5357 -0.1420
  599MOL0     H79036   1.870   9.643   4.668  0.6402  1.8770 -0.3163
  599MOL0     H79037   1.822   9.756   4.799  0.3096  1.8658 -5.8203
  599MOL0     H79038   1.822   9.540   4.958 -1.8795  0.3206  0.0175
  599MOL0     H79039   1.836   9.454   4.802 -2.9899 -0.4033 -0.8393
  599MOL0     H79040   1.625   9.628   4.758  2.6956  2.2228  1.7169
  599MOL0     H79041   1.617   9.453   4.776  0.7746 -0.6706  1.6291
  599MOL0     H79042   1.456   9.554   4.928 -0.2663  2.5921 -2.8198
  599MOL0     H79043   1.594   9.659   4.999  0.9036 -1.7902  4.0493
  599MOL0     H79044   1.689   9.451   5.110  0.9810 -1.2655 -2.0244
  599MOL0     H79045   1.578   9.352   5.022 -0.6436 -1.4642 -0.2418
  599MOL0     H79046   1.383   9.473   5.158  0.5349  1.3999 -1.5160
  599MOL0     H79047   1.490   9.364   5.229 -1.8079  0.6272  0.1178
  599MOL0     H79048   1.520   9.679   5.229 -1.5976 -0.0427 -0.9064
  599MOL0     H79049   1.621   9.562   5.323 -0.1102  0.4959  0.8588
  599MOL0     H79050   2.208   9.390   4.651 -2.2930  0.7392  1.6180
  599MOL0     H79051   2.467   9.359   4.622  1.7026  0.9432  0.3984
  599MOL0     H79052   2.832   9.773   4.425 -0.8161  0.5564 -0.5648
  599MOL0     H79053   3.063   9.749   4.366  1.7483 -0.5228  0.2792
  599MOL0     H79054   4.750   9.853   4.295  1.3372  0.6557  2.4000
  599MOL0     H79055   4.988   9.853   4.360  0.6464  2.6724  0.8266
  599MOL0     H79056   5.401  10.065   4.084  0.8103 -2.0558 -0.5401
  599MOL0     H79057   5.648  10.131   4.084  0.6873 -1.8102 -1.0045
  599MOL0     H79058   5.822  10.202   4.243  2.1610  1.3710  1.3542
  599MOL0     H79059   5.916  10.131   4.101 -2.3790  1.2260 -1.0606
  599MOL0     H79060   6.023  10.249   4.315  0.3788 -0.1508  0.9696
  599MOL0     H79061   5.982  10.109   4.402 -1.5965  1.0198 -0.1532
  599MOL0     H79062   6.169  10.126   4.168 -0.7974  1.1585  0.8689
  599MOL0     H79063   6.119   9.968   4.243  0.6085 -0.3261 -0.7643
  599MOL0     H79064   6.214  10.195   4.423 -1.0487  0.4791 -0.7113
  599MOL0     H79065   6.252  10.022   4.447 -4.6692 -0.4912 -0.1862
  599MOL0     H79066   6.600  10.111   4.262 -0.3698 -4.9998  2.2034
  599MOL0     H79067   5.718   9.838   4.396 -1.2196 -2.2422 -0.3104
  599MOL0     H79068   5.473   9.813   4.437 -2.0575  0.3190 -0.4501
  600MOL0     O79069   8.307   0.243   8.682  1.0861 -0.2734  0.4244
  600MOL0     C79070   8.355   0.170   8.600 -0.1719  0.2821 -0.1608
  600MOL0     O79071   8.290   0.133   8.485  0.4096 -0.0598 -0.3236
  600MOL0     C79072   8.148   0.136   8.468 -0.6496 -0.2121  0.2150
  600MOL0     C79073   8.064   0.095   8.576 -0.3288 -0.0350 -0.5156
  600MOL0     C79074   7.922   0.105   8.549  0.0172  1.2385  0.3737
  600MOL0     C79075   7.875   0.153   8.429 -0.0648  0.2626 -0.2486
  600MOL0     O79076   7.745   0.185   8.412 -0.0844  0.0483  0.3037
  600MOL0     C79077   7.657   0.069   8.403 -0.4448  0.2027  0.4388
  600MOL0     C79078   7.508   0.108   8.370 -0.2694 -1.0626 -0.3687
  600MOL0     C79079   7.430  -0.016   8.335 -0.4287 -0.7705  0.2084
  600MOL0     C79080   7.283   0.029   8.316 -0.3571 -0.3981  0.0043
  600MOL0     C79081   7.189  -0.086   8.286  0.1571  0.3132 -0.0755
  600MOL0     C79082   7.042  -0.039   8.316 -0.0741 -0.2406 -0.0395
  600MOL0     C79083   6.933  -0.139   8.284  1.1791 -0.0787  0.1224
  600MOL0     C79084   6.799  -0.068   8.321 -0.2641 -0.5137 -0.0421
  600MOL0     N79085   6.678  -0.149   8.303 -1.0265  0.2336 -0.1628
  600MOL0     C79086   6.559  -0.114   8.358 -0.3063  0.6897 -0.4974
  600MOL0     C79087   6.476  -0.214   8.326  0.3426 -0.7911 -0.5288
  600MOL0     C79088   6.329  -0.244   8.373 -0.6765 -0.9817 -0.5801
  600MOL0     C79089   6.229  -0.176   8.283  0.6652 -0.6610  0.0844
  600MOL0     C79090   6.082  -0.199   8.310 -0.6725 -0.0643 -0.6808
  600MOL0     C79091   6.029  -0.134   8.445 -0.9369 -0.7139  0.0064
  600MOL0     O79092   5.891  -0.123   8.438  0.2020  0.2141 -0.2269
  600MOL0     C79093   5.817  -0.083   8.547  0.3212 -0.1431  0.3209
  600MOL0     C79094   5.676  -0.080   8.525 -0.2100  0.2848 -0.0561
  600MOL0     C79095   5.588  -0.031   8.626 -0.1739 -0.1390 -0.3645
  600MOL0     C79096   5.643  -0.001   8.754 -0.3042 -0.4854  0.7675
  600MOL0     C79097   5.560   0.058   8.855  0.0550 -0.0329  0.7957
  600MOL0     O79098   5.435   0.002   8.858 -0.0192 -0.2436 -0.2819
  600MOL0     C79099   5.332   0.047   8.937 -1.0940  0.2331 -0.5849
  600MOL0     C79100   5.330   0.157   9.020 -0.3897  0.2643 -0.0479
  600MOL0     C79101   5.212   0.215   9.067 -0.0799 -0.1167 -0.1543
  600MOL0     C79102   5.086   0.153   9.046  0.2692 -0.7792 -0.3233
  600MOL0     O79103   4.963   0.198   9.100  0.2262 -0.1504 -0.3904
  600MOL0     C79104   4.973   0.291   9.206  0.1458 -0.0413  1.0451
  600MOL0     C79105   4.837   0.357   9.207 -0.1861  0.7368  1.1436
  600MOL0     C79106   4.840   0.492   9.280  0.6066  0.9477  0.4919
  600MOL0     C79107   4.696   0.535   9.310  1.1020  1.1068 -0.0139
  600MOL0     C79108   4.688   0.680   9.348 -0.6442  0.6584  0.0492
  600MOL0     C79109   4.749   0.695   9.488  0.4155 -0.1359  0.9974
  600MOL0     C79110   4.702   0.815   9.552 -0.2391 -0.8599 -1.1736
  600MOL0     C79111   4.775   0.841   9.686 -0.4255  0.9260 -0.8482
  600MOL0    Cl79112   4.946   0.904   9.663  0.2472  0.0545  0.4143
  600MOL0     C79113   5.088   0.032   8.970  0.4895  0.4223 -0.0343
  600MOL0     C79114   5.207  -0.015   8.911 -0.1178  0.5231 -0.5270
  600MOL0     O79115   5.608   0.136   8.938 -0.7327  0.3335 -0.2327
  600MOL0     C79116   5.780  -0.001   8.767 -0.1569  0.4204  0.7174
  600MOL0     C79117   5.865  -0.042   8.674  0.1114  0.3899  0.0601
  600MOL0     N79118   6.543  -0.303   8.249 -0.9163 -0.1905  0.0199
  600MOL0     N79119   6.670  -0.263   8.234  1.2154  0.0106 -0.4663
  600MOL0     C79120   7.959   0.192   8.327  0.4660  0.4623  0.2429
  600MOL0     C79121   8.096   0.177   8.345  0.0027  0.5275  0.6916
  600MOL0     C79122   8.483   0.116   8.628  0.4369 -0.2228  0.5968
  600MOL0     C79123   8.550   0.038   8.530 -0.6555 -0.4090 -0.4129
  600MOL0     C79124   8.671  -0.027   8.563 -0.1798 -0.8806 -0.2971
  600MOL0     C79125   8.731  -0.016   8.693  0.1967  0.4924 -0.3045
  600MOL0     O79126   8.852  -0.076   8.718 -0.0418 -0.1189 -0.1158
  600MOL0     C79127   8.911  -0.059   8.850 -0.0003  0.3900  0.0993
  600MOL0     C79128   9.034  -0.159   8.856  0.4436  0.1083  1.1487
  600MOL0     C79129   9.139  -0.144   8.965  0.3722 -0.1919  0.7621
  600MOL0     C79130   9.264  -0.063   8.922 -0.3437 -0.8941 -0.6044
  600MOL0     C79131   9.349  -0.066   9.035  0.1308  0.0809  0.2421
  600MOL0     C79132   9.420  -0.054   9.140 -0.5822  0.5671 -0.1749
  600MOL0     C79133   8.662   0.067   8.785 -0.1371 -0.2519  0.0102
  600MOL0     C79134   8.542   0.135   8.755 -0.6434 -0.4450 -0.2072
  600MOL0     H79135   8.094   0.044   8.667 -0.7332 -1.2014 -1.0196
  600MOL0     H79136   7.849   0.082   8.626 -1.2095  3.1373 -0.1591
  600MOL0     H79137   7.666   0.012   8.496  1.5283  1.9077  1.3739
  600MOL0     H79138   7.692   0.014   8.315 -1.0411  0.4414  0.0452
  600MOL0     H79139   7.510   0.179   8.286  1.4126 -1.4008 -0.6512
  600MOL0     H79140   7.462   0.165   8.452  1.3435  1.9025 -1.3465
  600MOL0     H79141   7.425  -0.091   8.414 -3.1776 -0.8890  0.0236
  600MOL0     H79142   7.472  -0.059   8.244  0.6812  2.0743 -0.7394
  600MOL0     H79143   7.255   0.069   8.415 -1.7033 -0.7081 -0.2267
  600MOL0     H79144   7.268   0.104   8.238  0.9592  2.5387  2.3884
  600MOL0     H79145   7.210  -0.169   8.355  2.4984  1.3210  0.5199
  600MOL0     H79146   7.212  -0.122   8.186  0.2424  0.1901 -0.0120
  600MOL0     H79147   7.022   0.052   8.258  1.4379 -0.2688 -0.6517
  600MOL0     H79148   7.026  -0.011   8.421  1.4027  1.3942 -0.1847
  600MOL0     H79149   6.922  -0.172   8.180 -1.2551  0.7848  0.0427
  600MOL0     H79150   6.955  -0.230   8.342 -0.1842  0.7933  2.1255
  600MOL0     H79151   6.776   0.024   8.265 -2.5098  0.6224  2.4940
  600MOL0     H79152   6.810  -0.034   8.424  3.7260 -0.0170 -0.4944
  600MOL0     H79153   6.524  -0.033   8.422 -2.5249 -1.5767  1.3593
  600MOL0     H79154   6.321  -0.216   8.478  1.3031 -1.2617 -0.3199
  600MOL0     H79155   6.306  -0.350   8.367  1.7962 -1.5508 -1.4214
  600MOL0     H79156   6.261  -0.201   8.181 -2.2893 -0.4612 -0.9808
  600MOL0     H79157   6.247  -0.069   8.296 -2.5297  0.5338 -3.4520
  600MOL0     H79158   6.014  -0.160   8.233 -1.1566 -2.0590 -1.3270
  600MOL0     H79159   6.067  -0.307   8.317 -1.1422 -0.0173 -0.8595
  600MOL0     H79160   6.075  -0.036   8.462 -1.3229 -0.0555 -2.3838
  600MOL0     H79161   6.064  -0.203   8.523  2.7951 -0.1827 -1.0182
  600MOL0     H79162   5.645  -0.095   8.422 -1.9124  1.6414  0.2148
  600MOL0     H79163   5.483  -0.007   8.622 -0.2973  0.8098  3.7814
  600MOL0     H79164   5.427   0.197   9.048  0.8703  0.0094 -3.5384
  600MOL0     H79165   5.230   0.306   9.124  0.4594  0.5116 -1.3031
  600MOL0     H79166   5.048   0.366   9.177 -0.4267  0.3831  0.6331
  600MOL0     H79167   5.010   0.231   9.289  0.0667 -3.5297 -1.2252
  600MOL0     H79168   4.768   0.284   9.252  1.1701 -1.7274 -0.4966
  600MOL0     H79169   4.805   0.370   9.103 -1.7646 -0.0823  1.4855
  600MOL0     H79170   4.878   0.572   9.215 -0.8875 -0.5685 -2.4602
  600MOL0     H79171   4.894   0.476   9.374 -0.0241 -0.5003  0.6317
  600MOL0     H79172   4.632   0.521   9.222 -2.6475 -2.0662  2.8805
  600MOL0     H79173   4.644   0.482   9.390 -1.3517  3.9223  0.4472
  600MOL0     H79174   4.586   0.719   9.349 -0.7802  0.3004  0.0893
  600MOL0     H79175   4.738   0.749   9.279 -1.3600  1.0252 -0.1099
  600MOL0     H79176   4.856   0.705   9.469  0.0955 -0.5654 -1.3720
  600MOL0     H79177   4.731   0.602   9.543 -1.1280 -0.7976 -0.5359
  600MOL0     H79178   4.732   0.899   9.488  1.8071  0.2927  1.1526
  600MOL0     H79179   4.595   0.805   9.573  0.1170 -1.3665  0.5007
  600MOL0     H79180   4.781   0.757   9.755 -1.2557  1.5984  0.0694
  600MOL0     H79181   4.723   0.915   9.748 -0.6730  0.2399 -0.2344
  600MOL0     H79182   5.006  -0.036   8.949  1.0289 -0.8321  1.7160
  600MOL0     H79183   5.210  -0.102   8.847  0.7056  0.5327 -0.5127
  600MOL0     H79184   5.817   0.024   8.866  2.1092 -0.1907  0.0887
  600MOL0     H79185   5.972  -0.053   8.689  0.4643 -0.4332 -2.6367
  600MOL0     H79186   7.906   0.227   8.239 -2.0327 -1.7431  0.7293
  600MOL0     H79187   8.166   0.204   8.268 -0.3423  1.4497  0.6889
  600MOL0     H79188   8.511   0.010   8.433 -1.5554  1.6150 -0.6805
  600MOL0     H79189   8.716  -0.098   8.494  2.3606 -0.7187  1.0694
  600MOL0     H79190   8.840  -0.081   8.930 -2.1031 -2.8819 -2.4300
  600MOL0     H79191   8.947   0.044   8.855 -1.9906  1.1551 -0.2496
  600MOL0     H79192   8.991  -0.259   8.865  1.0545 -0.2997 -0.2023
  600MOL0     H79193   9.083  -0.145   8.759  0.5727 -0.7013  1.0865
  600MOL0     H79194   9.173  -0.243   8.998 -1.1317  0.2417  4.0207
  600MOL0     H79195   9.089  -0.090   9.046 -3.3041 -1.8524 -0.1730
  600MOL0     H79196   9.306  -0.101   8.829  1.3210 -0.9091  0.1206
  600MOL0     H79197   9.244   0.045   8.915  3.0894 -0.0274  0.7593
  600MOL0     H79198   9.500  -0.058   9.211 -0.7695 -2.1817 -0.0045
  600MOL0     H79199   8.705   0.085   8.883  0.8739 -2.6609  0.0582
  600MOL0     H79200   8.493   0.192   8.833 -0.9059  1.4901 -1.7112
  601MOL0     O79201  10.252   0.979   0.217 -0.1393  0.0033 -0.3556
  601MOL0     C79202  10.248   1.047   0.115  0.2863 -0.3491 -0.1295
  601MOL0     O79203  10.139   1.110   0.059 -0.2925 -0.2409 -0.6927
  601MOL0     C79204  10.021   1.109   0.121 -0.7493  0.1620  0.3046
  601MOL0     C79205   9.953   0.992   0.172 -0.3743 -0.5316 -0.1797
  601MOL0     C79206   9.824   0.994   0.228  0.3254  0.1671 -0.3365
  601MOL0     C79207   9.765   1.114   0.246 -0.7155 -0.6705 -0.4221
  601MOL0     O79208   9.655   1.127   0.323 -0.1462  0.1389  1.0551
  601MOL0     C79209   9.569   1.008   0.353 -0.3915 -0.2100  0.7790
  601MOL0     C79210   9.476   0.990   0.221  0.0246  0.2604 -0.6707
  601MOL0     C79211   9.366   1.090   0.215 -0.2897 -0.9670  0.1130
  601MOL0     C79212   9.270   1.086   0.340 -0.1911 -0.8766 -0.1909
  601MOL0     C79213   9.258   1.218   0.419 -1.1054  0.6617  0.3449
  601MOL0     C79214   9.172   1.217   0.542  0.1627  0.1968 -0.3739
  601MOL0     C79215   9.146   1.353   0.604 -0.7105 -0.0521 -0.4619
  601MOL0     C79216   9.263   1.391   0.701 -0.6803  0.0493 -0.5274
  601MOL0     N79217   9.364   1.469   0.626  0.0669  0.5545  0.1307
  601MOL0     C79218   9.479   1.408   0.581  0.2602  0.3566  0.1515
  601MOL0     C79219   9.538   1.497   0.502 -0.3352  0.5793 -0.0839
  601MOL0     C79220   9.676   1.473   0.442  1.9660 -0.0242  0.4111
  601MOL0     C79221   9.783   1.502   0.552 -0.2388  1.0227  0.3092
  601MOL0     C79222   9.922   1.485   0.489  1.2088  0.0276  0.2708
  601MOL0     C79223   9.944   1.561   0.360 -0.5886 -0.4604  0.7363
  601MOL0     O79224  10.085   1.574   0.335  0.3746 -0.0666  0.3392
  601MOL0     C79225  10.136   1.569   0.210 -0.0941  0.0582  0.0210
  601MOL0     C79226  10.255   1.494   0.183 -0.0945 -0.3362 -0.4262
  601MOL0     C79227  10.312   1.491   0.058 -0.3819 -0.5017  0.2403
  601MOL0     C79228  10.255   1.565  -0.048 -0.2248  0.2727 -1.5528
  601MOL0     C79229  10.309   1.544  -0.184 -0.0308 -1.1095  0.6093
  601MOL0     O79230  10.239   1.613  -0.282  0.1302  0.9538  0.3371
  601MOL0     C79231  10.313   1.665  -0.388 -0.7413 -0.3669 -0.5604
  601MOL0     C79232  10.445   1.711  -0.377  0.3532  0.3177  0.0632
  601MOL0     C79233  10.498   1.766  -0.487 -0.2436 -0.2292 -1.4269
  601MOL0     C79234  10.430   1.778  -0.609 -0.2651  0.4576 -0.1628
  601MOL0     O79235  10.489   1.832  -0.723  0.5583 -0.3408  0.2391
  601MOL0     C79236  10.603   1.920  -0.707 -0.2868 -0.9496 -0.2971
  601MOL0     C79237  10.608   2.019  -0.826 -1.4152  0.2487 -0.1313
  601MOL0     C79238  10.755   2.084  -0.809  0.2421  0.8917 -0.0580
  601MOL0     C79239  10.796   2.190  -0.907 -0.9485  0.9201 -0.1780
  601MOL0     C79240  10.952   2.210  -0.928 -0.2607  0.1404  0.5240
  601MOL0     C79241  11.024   2.248  -0.798  0.2713  0.0265 -0.1378
  601MOL0     C79242  11.173   2.219  -0.825 -0.3542 -0.0361 -0.0574
  601MOL0     C79243  11.243   2.215  -0.694 -0.2280 -0.6851 -1.1476
  601MOL0    Cl79244  11.195   2.078  -0.582  0.0758  0.2777 -0.3411
  601MOL0     C79245  10.301   1.727  -0.615  0.3172  0.0280  0.6827
  601MOL0     C79246  10.240   1.667  -0.505  0.1609  0.2030  0.3289
  601MOL0     O79247  10.395   1.468  -0.198 -0.3384  0.0848 -0.0708
  601MOL0     C79248  10.142   1.641  -0.019  0.5925 -0.3173 -0.9401
  601MOL0     C79249  10.080   1.640   0.105 -0.5315  1.1131 -0.1455
  601MOL0     N79250   9.453   1.608   0.488 -0.0388  0.4557  0.0873
  601MOL0     N79251   9.347   1.587   0.561 -0.3661 -0.9316  0.2108
  601MOL0     C79252   9.826   1.233   0.191 -0.7248 -0.1204  0.0489
  601MOL0     C79253   9.946   1.225   0.122 -0.0066  0.2317  0.4252
  601MOL0     C79254  10.373   1.067   0.041 -0.4117  0.4765 -0.1999
  601MOL0     C79255  10.374   1.167  -0.060 -0.4923 -0.1831 -0.6631
  601MOL0     C79256  10.493   1.195  -0.126 -0.0656 -0.4720 -0.0809
  601MOL0     C79257  10.612   1.127  -0.085  0.3347 -0.8353  0.4219
  601MOL0     O79258  10.728   1.141  -0.153 -0.1285  0.1153  0.2940
  601MOL0     C79259  10.785   1.271  -0.157 -0.4220 -0.4877 -1.0130
  601MOL0     C79260  10.921   1.266  -0.216  0.3239  0.2558  0.4585
  601MOL0     C79261  10.926   1.206  -0.353 -0.1873 -0.4925 -0.4736
  601MOL0     C79262  10.948   1.311  -0.466 -0.1504  0.6723 -0.7736
  601MOL0     C79263  10.823   1.385  -0.491 -0.6669  1.0181  0.3297
  601MOL0     C79264  10.727   1.447  -0.518  0.1283  0.0019 -0.8006
  601MOL0     C79265  10.610   1.029   0.019  0.6855 -0.3804  0.9017
  601MOL0     C79266  10.491   0.999   0.084  0.5168  0.1922  0.1136
  601MOL0     H79267  10.004   0.896   0.166 -1.1102 -0.9244 -0.2924
  601MOL0     H79268   9.800   0.897   0.272 -1.0758  0.7937  0.3338
  601MOL0     H79269   9.518   1.022   0.449  0.4589  1.2871  1.0350
  601MOL0     H79270   9.626   0.916   0.367  0.1831 -0.2732 -1.6481
  601MOL0     H79271   9.428   0.892   0.218  2.3731 -0.9615 -0.7152
  601MOL0     H79272   9.534   0.990   0.128 -0.5877  3.4611 -1.1900
  601MOL0     H79273   9.303   1.071   0.127  1.2535  2.8238 -2.0355
  601MOL0     H79274   9.413   1.187   0.200 -0.4052 -0.8683  0.3909
  601MOL0     H79275   9.175   1.041   0.311 -0.8461  0.0389  0.4723
  601MOL0     H79276   9.312   1.016   0.414 -0.3567 -0.3126  0.4443
  601MOL0     H79277   9.215   1.283   0.342 -1.8618 -1.0858 -0.7751
  601MOL0     H79278   9.361   1.252   0.436 -0.3138 -1.0263 -0.9247
  601MOL0     H79279   9.204   1.142   0.615  0.2481  0.9131  0.3489
  601MOL0     H79280   9.079   1.182   0.497  1.3538 -1.9848 -1.2555
  601MOL0     H79281   9.121   1.425   0.527  3.0032  0.6542 -1.2191
  601MOL0     H79282   9.055   1.331   0.661 -1.1357  1.4317 -0.5509
  601MOL0     H79283   9.310   1.311   0.759 -0.9211  0.3938  0.1590
  601MOL0     H79284   9.219   1.453   0.780  1.9801 -1.6226  2.5335
  601MOL0     H79285   9.506   1.306   0.610 -2.9318 -0.8667 -0.7584
  601MOL0     H79286   9.680   1.533   0.351  0.1401 -1.5231 -0.7358
  601MOL0     H79287   9.680   1.368   0.413  0.0042 -0.0936  0.2297
  601MOL0     H79288   9.774   1.430   0.634 -3.3639  0.0868 -0.7050
  601MOL0     H79289   9.766   1.599   0.598  0.7302  1.4768 -0.2451
  601MOL0     H79290  10.004   1.518   0.554  4.0352  0.7052 -3.2670
  601MOL0     H79291   9.938   1.385   0.449  3.0408  1.2071 -2.2509
  601MOL0     H79292   9.895   1.659   0.354  0.6635  0.0894 -2.0427
  601MOL0     H79293   9.898   1.505   0.277 -0.1139  1.1427 -0.6637
  601MOL0     H79294  10.305   1.450   0.268  2.9845  3.6291  0.1174
  601MOL0     H79295  10.395   1.426   0.035 -0.2947  0.0879 -1.1890
  601MOL0     H79296  10.513   1.703  -0.293  2.1774 -0.4781 -1.3992
  601MOL0     H79297  10.598   1.807  -0.472  0.6815 -2.0775 -2.3052
  601MOL0     H79298  10.694   1.860  -0.702  0.3249  0.0602  1.7630
  601MOL0     H79299  10.594   1.971  -0.610  1.7259  0.3454 -0.7449
  601MOL0     H79300  10.527   2.091  -0.818 -3.9939 -2.5421  0.4579
  601MOL0     H79301  10.605   1.955  -0.915  0.6807 -0.7229  0.4324
  601MOL0     H79302  10.832   2.007  -0.808 -1.4924 -0.9657 -1.4461
  601MOL0     H79303  10.755   2.144  -0.718 -1.8626  3.8462 -1.8005
  601MOL0     H79304  10.751   2.173  -1.005  1.9184  0.1011 -1.4474
  601MOL0     H79305  10.752   2.285  -0.874 -0.2856  0.6875  1.4362
  601MOL0     H79306  10.974   2.279  -1.010  0.7664 -1.3913 -0.5574
  601MOL0     H79307  10.989   2.114  -0.967  1.3003  0.9547 -0.0644
  601MOL0     H79308  10.985   2.185  -0.717  0.5866  1.8010  1.4444
  601MOL0     H79309  10.997   2.351  -0.774  1.4150 -0.1005  1.9552
  601MOL0     H79310  11.182   2.123  -0.877 -0.1676  0.3116 -0.6837
  601MOL0     H79311  11.205   2.296  -0.896  1.3653 -1.0767 -0.4812
  601MOL0     H79312  11.213   2.308  -0.646  3.9122 -0.0902  0.7771
  601MOL0     H79313  11.352   2.214  -0.706 -0.2352  0.3909 -1.3742
  601MOL0     H79314  10.243   1.731  -0.706  0.0048  1.1064  0.9202
  601MOL0     H79315  10.143   1.620  -0.513  0.1511 -0.0821  1.9111
  601MOL0     H79316  10.117   1.705  -0.103 -0.2442 -1.9715 -2.0135
  601MOL0     H79317   9.994   1.705   0.117 -0.9365  0.4942  0.3136
  601MOL0     H79318   9.772   1.326   0.209 -2.4527 -1.0779  0.0421
  601MOL0     H79319   9.968   1.320   0.074 -0.2593 -0.3988 -1.0004
  601MOL0     H79320  10.282   1.208  -0.101 -1.4045 -2.4384 -0.9799
  601MOL0     H79321  10.488   1.259  -0.213  2.4970  2.4102  1.7097
  601MOL0     H79322  10.780   1.309  -0.055 -0.5120  0.6295 -1.4245
  601MOL0     H79323  10.725   1.337  -0.220 -1.3350  0.5207  0.8399
  601MOL0     H79324  10.959   1.368  -0.226  0.4227  0.3356  1.5166
  601MOL0     H79325  10.993   1.214  -0.152 -1.5772 -4.0892 -0.6219
  601MOL0     H79326  10.846   1.139  -0.385 -0.7130  0.4956 -1.2935
  601MOL0     H79327  11.025   1.160  -0.347 -0.4143 -0.8131  2.1995
  601MOL0     H79328  11.032   1.380  -0.450 -0.1739  0.9080 -1.6163
  601MOL0     H79329  10.973   1.259  -0.559 -1.7618 -2.3993  0.3810
  601MOL0     H79330  10.636   1.493  -0.553  0.0835  1.3033  0.9386
  601MOL0     H79331  10.710   1.000   0.049 -0.5303 -3.5730  2.2808
  601MOL0     H79332  10.483   0.917   0.154 -0.6323  2.7482  3.2344
  602MOL0     O79333  11.252   1.972   1.140 -0.1980  0.1252 -0.4483
  602MOL0     C79334  11.309   2.068   1.180 -0.2732  0.2863 -0.1684
  602MOL0     O79335  11.255   2.183   1.213  0.8105 -0.4749  0.2458
  602MOL0     C79336  11.116   2.201   1.201 -0.3963  0.7884  0.0211
  602MOL0     C79337  11.029   2.153   1.298 -0.2198  1.1400 -0.5069
  602MOL0     C79338  10.894   2.204   1.287 -0.0984  0.8494  0.9791
  602MOL0     C79339  10.847   2.279   1.179  0.8771  0.2486 -0.4260
  602MOL0     O79340  10.714   2.313   1.184  0.0171 -0.6875  0.0711
  602MOL0     C79341  10.651   2.379   1.071  0.7603  0.0616 -0.3998
  602MOL0     C79342  10.505   2.409   1.107  0.2812 -0.0511 -0.2351
  602MOL0     C79343  10.413   2.381   0.991  1.0236 -0.5251  0.6888
  602MOL0     C79344  10.260   2.410   1.017 -0.1391  0.3585  0.4172
  602MOL0     C79345  10.181   2.363   0.897  0.2071  0.9982  0.3569
  602MOL0     C79346  10.029   2.368   0.917 -0.5191 -0.6086  0.4456
  602MOL0     C79347   9.950   2.271   0.817  0.1631 -0.1145 -0.2346
  602MOL0     C79348   9.800   2.286   0.814  0.2619  0.0851 -0.0186
  602MOL0     N79349   9.779   2.412   0.728 -0.4931  0.6527 -0.6104
  602MOL0     C79350   9.767   2.543   0.774  0.6139 -0.0824  0.0523
  602MOL0     C79351   9.782   2.613   0.655 -0.3151 -0.7516 -0.1794
  602MOL0     C79352   9.761   2.761   0.671  0.1696  0.0666  0.4710
  602MOL0     C79353   9.706   2.824   0.543 -0.0450 -0.6851 -0.7052
  602MOL0     C79354   9.654   2.960   0.586  0.7744 -0.1827  0.6724
  602MOL0     C79355   9.669   3.056   0.462  0.0508 -1.1755  0.0040
  602MOL0     O79356   9.598   3.013   0.342 -0.5784 -0.1126 -0.0047
  602MOL0     C79357   9.464   3.017   0.340  0.5869 -0.0348  0.3199
  602MOL0     C79358   9.375   3.067   0.437  0.0427 -0.7993  0.1233
  602MOL0     C79359   9.232   3.042   0.421 -0.0114  0.4982  0.2835
  602MOL0     C79360   9.183   2.981   0.306  0.3089  0.1103  0.9279
  602MOL0     C79361   9.034   2.960   0.280  0.0565 -0.3818  0.2069
  602MOL0     O79362   9.004   2.972   0.143  0.1391  0.6802  0.0928
  602MOL0     C79363   8.876   2.950   0.104 -0.2413 -0.9274  0.6047
  602MOL0     C79364   8.833   2.844   0.024  0.4090  0.1411 -0.5236
  602MOL0     C79365   8.697   2.847  -0.034 -0.6094  0.3493 -0.1090
  602MOL0     C79366   8.614   2.955  -0.013  0.2715  0.4915  0.0923
  602MOL0     O79367   8.491   2.964  -0.074  0.4166  0.5594  0.7422
  602MOL0     C79368   8.395   2.859  -0.069  0.5729 -0.2691 -0.0968
  602MOL0     C79369   8.263   2.888  -0.139 -0.3790  0.2518 -0.3626
  602MOL0     C79370   8.175   2.783  -0.104  0.4894 -0.2158 -0.0982
  602MOL0     C79371   8.040   2.790  -0.181 -0.1974 -0.9011  0.6872
  602MOL0     C79372   7.931   2.682  -0.144 -0.2157 -0.2601 -0.0587
  602MOL0     C79373   7.803   2.706  -0.222  1.2104  0.4769 -0.1829
  602MOL0     C79374   7.703   2.593  -0.206  0.2323  0.2641  0.6085
  602MOL0     C79375   7.674   2.555  -0.061  1.2532 -0.4085  0.6397
  602MOL0    Cl79376   7.516   2.465  -0.030  0.2296  0.1749 -0.0082
  602MOL0     C79377   8.654   3.051   0.081  0.6462  0.3421  0.1829
  602MOL0     C79378   8.783   3.043   0.135 -0.3639 -0.9771 -1.4012
  602MOL0     O79379   8.957   2.941   0.371 -0.0451  0.3251 -0.1277
  602MOL0     C79380   9.275   2.949   0.205 -0.4732 -0.0973  0.1780
  602MOL0     C79381   9.407   2.968   0.225 -0.2626 -1.0475  0.4150
  602MOL0     N79382   9.799   2.530   0.546 -0.7281 -0.2912 -0.2384
  602MOL0     N79383   9.793   2.409   0.589  0.5483  0.2245  0.2566
  602MOL0     C79384  10.939   2.309   1.079 -0.8090 -0.3830 -0.2982
  602MOL0     C79385  11.075   2.274   1.092  1.0380 -0.8284  1.7348
  602MOL0     C79386  11.454   2.055   1.180 -0.8829  0.4625  0.3166
  602MOL0     C79387  11.516   1.927   1.166 -0.9137 -0.6129 -0.4704
  602MOL0     C79388  11.654   1.919   1.195 -0.1603 -0.1658 -0.6604
  602MOL0     C79389  11.726   2.027   1.245 -0.3841 -0.3550  0.6106
  602MOL0     O79390  11.851   2.003   1.290  0.6511  0.3177 -0.2056
  602MOL0     C79391  11.959   2.012   1.194  0.2593 -0.4649 -0.8386
  602MOL0     C79392  12.073   2.070   1.273  0.4971  0.8338 -0.0419
  602MOL0     C79393  12.054   2.222   1.300 -0.5818 -0.0160  0.3175
  602MOL0     C79394  12.145   2.275   1.405  0.4171 -0.3827  0.4567
  602MOL0     C79395  12.280   2.280   1.352 -0.1920 -0.0735 -0.1143
  602MOL0     C79396  12.389   2.278   1.310 -0.2682  0.3594  0.5265
  602MOL0     C79397  11.666   2.150   1.267 -0.6850 -0.2980  0.1119
  602MOL0     C79398  11.527   2.158   1.237 -0.2259 -0.8246  0.3808
  602MOL0     H79399  11.059   2.088   1.380 -2.2407  1.5338  0.6052
  602MOL0     H79400  10.817   2.172   1.356 -1.1214 -1.9448 -1.2284
  602MOL0     H79401  10.669   2.309   0.989  2.8551  0.9137 -0.7199
  602MOL0     H79402  10.693   2.473   1.035  0.7674  0.4006  0.4645
  602MOL0     H79403  10.501   2.511   1.148 -2.3527 -1.0307  2.2596
  602MOL0     H79404  10.482   2.344   1.192 -0.4508 -1.8374 -1.7430
  602MOL0     H79405  10.441   2.276   0.975  0.8549 -1.0119  3.1920
  602MOL0     H79406  10.447   2.443   0.908 -0.5088  0.1244  0.5308
  602MOL0     H79407  10.230   2.361   1.111  0.8370  0.0396  0.5793
  602MOL0     H79408  10.249   2.518   1.023  0.1184  0.4331 -0.3772
  602MOL0     H79409  10.213   2.261   0.876 -2.2205  0.3614 -0.5831
  602MOL0     H79410  10.208   2.416   0.805 -1.8554 -1.0433 -1.5570
  602MOL0     H79411  10.008   2.476   0.916  0.8359 -0.2647  2.6644
  602MOL0     H79412  10.012   2.324   1.015  3.4940 -2.5676  0.4620
  602MOL0     H79413   9.988   2.277   0.715 -1.7390 -0.3595 -0.9965
  602MOL0     H79414   9.970   2.169   0.850  1.0253 -0.7431 -2.4839
  602MOL0     H79415   9.749   2.302   0.910 -1.4816  2.8461 -1.2827
  602MOL0     H79416   9.764   2.200   0.757  3.3204  0.1669 -2.3545
  602MOL0     H79417   9.734   2.577   0.872 -1.7389  0.7767 -0.9579
  602MOL0     H79418   9.860   2.789   0.708  0.1206 -1.4544  1.8543
  602MOL0     H79419   9.691   2.778   0.753  1.3479 -0.1126  1.5344
  602MOL0     H79420   9.636   2.756   0.494  2.3115 -4.3619  0.5809
  602MOL0     H79421   9.795   2.838   0.480  1.2164 -1.4429  0.8308
  602MOL0     H79422   9.548   2.956   0.615 -0.1050 -0.9915 -2.2269
  602MOL0     H79423   9.721   3.002   0.661  2.4850  0.0438 -0.9249
  602MOL0     H79424   9.776   3.055   0.439  0.4492  0.9952  1.3974
  602MOL0     H79425   9.652   3.156   0.503 -1.5164 -1.8540  1.0985
  602MOL0     H79426   9.396   3.122   0.528 -0.8047  1.0376 -0.7351
  602MOL0     H79427   9.170   3.076   0.504 -0.8047 -0.8834  0.2911
  602MOL0     H79428   8.891   2.756  -0.001 -3.0677 -3.5118  2.8035
  602MOL0     H79429   8.685   2.765  -0.105  0.1899 -1.4430  1.7394
  602MOL0     H79430   8.375   2.820   0.032  1.8436 -0.6460  0.0217
  602MOL0     H79431   8.435   2.776  -0.127  2.5391  1.1968 -0.9243
  602MOL0     H79432   8.291   2.881  -0.244  0.9681  0.2505 -0.0206
  602MOL0     H79433   8.229   2.991  -0.123 -4.0211 -0.8707 -0.0668
  602MOL0     H79434   8.148   2.788   0.002 -1.1399 -1.2360 -0.4460
  602MOL0     H79435   8.216   2.686  -0.131 -0.8536 -0.8546  0.1000
  602MOL0     H79436   7.996   2.887  -0.158 -1.4096 -0.5917 -2.5008
  602MOL0     H79437   8.068   2.771  -0.285  2.8394 -0.4605  1.3323
  602MOL0     H79438   7.907   2.686  -0.037  0.7331  1.4330  0.1213
  602MOL0     H79439   7.966   2.581  -0.168 -2.1762 -1.0051  0.0372
  602MOL0     H79440   7.818   2.714  -0.330  1.2329  1.8869 -0.0931
  602MOL0     H79441   7.751   2.795  -0.187  0.9748 -0.0626  0.8901
  602MOL0     H79442   7.605   2.618  -0.248  0.1671  1.7279  1.5552
  602MOL0     H79443   7.739   2.513  -0.271 -0.7761 -0.1998  0.6098
  602MOL0     H79444   7.664   2.653  -0.013  0.3741  0.0862 -0.4984
  602MOL0     H79445   7.760   2.502  -0.019  0.2700 -0.8825  2.1567
  602MOL0     H79446   8.581   3.117   0.127 -1.0865 -0.3045 -1.5113
  602MOL0     H79447   8.807   3.131   0.194  0.6979 -2.3532  0.3438
  602MOL0     H79448   9.248   2.897   0.113  0.4300 -1.3597  0.5904
  602MOL0     H79449   9.477   2.927   0.154  2.3875  3.3172  0.1080
  602MOL0     H79450  10.907   2.368   0.993 -2.5773 -0.9087 -0.0344
  602MOL0     H79451  11.126   2.318   1.007 -2.3412  1.3310  0.6127
  602MOL0     H79452  11.462   1.848   1.115 -0.1311  0.1654 -2.6197
  602MOL0     H79453  11.711   1.830   1.171  0.5544 -0.2648  1.2059
  602MOL0     H79454  11.926   2.076   1.111  0.4974 -1.0281 -1.3768
  602MOL0     H79455  11.981   1.909   1.162 -0.9757 -0.6672 -1.0899
  602MOL0     H79456  12.079   2.014   1.367  1.4915  0.4881 -0.3052
  602MOL0     H79457  12.164   2.047   1.219 -1.1604 -1.8945 -1.9400
  602MOL0     H79458  11.955   2.259   1.329 -0.3141 -0.3264  1.6747
  602MOL0     H79459  12.071   2.276   1.206  2.9826  0.3486  1.0252
  602MOL0     H79460  12.101   2.368   1.441 -1.2540  0.2942 -2.8878
  602MOL0     H79461  12.156   2.208   1.490  2.6860 -1.1031 -0.3282
  602MOL0     H79462  12.492   2.291   1.281  0.7380 -2.0645  2.6141
  602MOL0     H79463  11.721   2.230   1.316  0.2180  0.5012 -2.1014
  602MOL0     H79464  11.473   2.252   1.250 -6.1670 -3.0471 -3.8558
  603MOL0     O79465   8.125   6.627   3.401 -0.6240  0.1533  0.7570
  603MOL0     C79466   8.177   6.705   3.313 -0.6403  1.1365  0.1927
  603MOL0     O79467   8.116   6.799   3.250 -0.5275  0.1900 -0.3180
  603MOL0     C79468   7.985   6.822   3.249  0.3894  0.2058  0.0219
  603MOL0     C79469   7.951   6.951   3.202  0.5841  0.4540  0.1705
  603MOL0     C79470   7.808   6.980   3.182 -1.1030 -0.1012  0.0912
  603MOL0     C79471   7.709   6.892   3.222  0.6230 -0.0847 -0.1434
  603MOL0     O79472   7.578   6.932   3.191 -0.2084 -0.6616 -0.3255
  603MOL0     C79473   7.470   6.874   3.262 -0.5899  0.5933 -0.4000
  603MOL0     C79474   7.336   6.943   3.236 -0.9421 -0.3174  0.7471
  603MOL0     C79475   7.218   6.871   3.295 -0.5468 -0.1161  0.0712
  603MOL0     C79476   7.095   6.961   3.322  1.1861 -1.0762 -0.0627
  603MOL0     C79477   6.962   6.891   3.282  0.4274 -0.5581 -0.3173
  603MOL0     C79478   6.920   6.936   3.145 -0.4211  0.4935  0.0995
  603MOL0     C79479   6.766   6.908   3.117 -0.2388 -0.5716 -0.2594
  603MOL0     C79480   6.663   7.003   3.177  0.2510 -0.3719  1.0568
  603MOL0     N79481   6.523   6.956   3.175 -0.2307  0.3775 -0.1640
  603MOL0     C79482   6.424   6.971   3.275  0.6031 -0.4626  0.4591
  603MOL0     C79483   6.318   6.940   3.203 -0.7033 -0.1257 -0.3467
  603MOL0     C79484   6.169   6.962   3.227 -0.4638 -0.2323  0.3212
  603MOL0     C79485   6.114   7.087   3.168 -0.2036 -1.0930  0.1930
  603MOL0     C79486   5.965   7.124   3.206 -0.1592 -0.4431 -0.3060
  603MOL0     C79487   5.965   7.208   3.331 -0.4139  0.1626 -1.3101
  603MOL0     O79488   5.827   7.247   3.364  0.2056  0.3303 -0.2745
  603MOL0     C79489   5.748   7.164   3.442 -0.3593 -0.2330  0.4361
  603MOL0     C79490   5.642   7.221   3.510  0.1736  0.5669 -0.8260
  603MOL0     C79491   5.558   7.147   3.594 -0.1064 -1.0521  0.0388
  603MOL0     C79492   5.590   7.005   3.620  0.7842 -0.7468 -0.7149
  603MOL0     C79493   5.510   6.919   3.710  0.4971  0.6977 -0.1339
  603MOL0     O79494   5.385   6.962   3.737 -0.0581 -0.1341  0.3817
  603MOL0     C79495   5.285   6.868   3.770  0.7561 -1.0888 -0.5211
  603MOL0     C79496   5.180   6.916   3.861  0.2024 -0.4166  1.3724
  603MOL0     C79497   5.063   6.845   3.878 -0.5300 -0.6135 -0.0653
  603MOL0     C79498   5.048   6.718   3.814  0.4857 -0.7066 -0.8470
  603MOL0     O79499   4.930   6.646   3.832 -0.5357  0.8618 -0.5983
  603MOL0     C79500   4.933   6.567   3.952 -0.1732 -0.0134  0.4299
  603MOL0     C79501   4.814   6.470   3.957 -0.0588 -0.6697 -0.7236
  603MOL0     C79502   4.691   6.548   4.013 -0.2076  0.5736 -0.1798
  603MOL0     C79503   4.554   6.471   4.008  0.2072 -0.3452 -0.3133
  603MOL0     C79504   4.449   6.527   4.104  0.4330 -0.5521 -0.7128
  603MOL0     C79505   4.304   6.470   4.081 -0.6304 -0.1911  0.4584
  603MOL0     C79506   4.206   6.519   4.180  0.8146 -0.4976 -0.5795
  603MOL0     C79507   4.211   6.465   4.325 -0.1430  0.1988  0.1950
  603MOL0    Cl79508   4.141   6.294   4.320  0.1125 -0.5411  0.0549
  603MOL0     C79509   5.155   6.671   3.733  0.2653 -0.6254  0.1506
  603MOL0     C79510   5.271   6.743   3.712 -0.0401  0.7347 -0.2130
  603MOL0     O79511   5.554   6.807   3.752 -0.8994  0.6987 -0.1609
  603MOL0     C79512   5.704   6.950   3.555  0.5287 -0.5640  0.3602
  603MOL0     C79513   5.772   7.028   3.464  0.3201 -0.2246 -0.3952
  603MOL0     N79514   6.347   6.880   3.086  0.5451 -0.1162  0.2950
  603MOL0     N79515   6.475   6.898   3.066 -0.5809 -0.2207 -0.5783
  603MOL0     C79516   7.747   6.761   3.261  0.6049  0.6732  0.1860
  603MOL0     C79517   7.885   6.731   3.275  0.4883 -0.3271 -0.6634
  603MOL0     C79518   8.328   6.700   3.301 -0.0415 -0.0763 -0.3682
  603MOL0     C79519   8.402   6.595   3.359  0.9953 -0.1204 -0.3695
  603MOL0     C79520   8.537   6.583   3.353  0.9177 -0.4278  0.1530
  603MOL0     C79521   8.618   6.680   3.285 -0.2351 -0.5121 -0.7782
  603MOL0     O79522   8.753   6.659   3.298 -0.4277 -0.6014 -0.4843
  603MOL0     C79523   8.847   6.745   3.237 -0.4601 -0.0278  0.5171
  603MOL0     C79524   8.911   6.689   3.107 -0.1085  0.6550 -1.2612
  603MOL0     C79525   8.965   6.536   3.119 -0.9104 -0.7463 -0.3424
  603MOL0     C79526   9.070   6.483   3.019 -0.7866 -0.0396  0.4676
  603MOL0     C79527   9.185   6.579   3.022 -0.8587  1.1134 -0.4249
  603MOL0     C79528   9.261   6.674   3.028 -0.2700 -0.3600 -0.1125
  603MOL0     C79529   8.548   6.782   3.210  0.6123 -0.5426 -0.7375
  603MOL0     C79530   8.409   6.792   3.230  0.7319  0.8248  0.9624
  603MOL0     H79531   8.027   7.021   3.170  0.1426  1.0952  0.5096
  603MOL0     H79532   7.790   7.082   3.149  2.7906  0.7168 -0.0105
  603MOL0     H79533   7.491   6.883   3.369  1.1102  0.6782 -0.7087
  603MOL0     H79534   7.457   6.772   3.224 -2.4338  1.6862 -2.9538
  603MOL0     H79535   7.323   6.964   3.129  0.4989 -1.0068  0.4084
  603MOL0     H79536   7.335   7.037   3.291  0.3589  0.3698 -0.3564
  603MOL0     H79537   7.258   6.832   3.389 -1.3372 -2.7034 -0.5592
  603MOL0     H79538   7.187   6.781   3.240 -1.7110  0.1675  0.2245
  603MOL0     H79539   7.088   6.982   3.429 -1.4048 -0.3974 -0.2859
  603MOL0     H79540   7.107   7.057   3.270  1.2170  0.6140  2.8789
  603MOL0     H79541   6.881   6.934   3.342 -0.6834 -0.9669 -1.4978
  603MOL0     H79542   6.951   6.784   3.299 -0.1683  0.0778  4.7270
  603MOL0     H79543   6.978   6.886   3.067 -0.9705  0.8017 -0.5162
  603MOL0     H79544   6.944   7.041   3.125 -0.0552  0.0492 -2.1019
  603MOL0     H79545   6.757   6.942   3.014  0.2465  4.9420  1.2190
  603MOL0     H79546   6.740   6.803   3.131 -0.9635 -0.2352  1.1378
  603MOL0     H79547   6.656   7.097   3.121  0.8941 -1.3387 -0.7336
  603MOL0     H79548   6.689   7.022   3.281 -1.1040 -0.0935  1.3678
  603MOL0     H79549   6.410   7.028   3.366 -4.1164 -0.8325  0.2288
  603MOL0     H79550   6.138   6.960   3.332 -0.9202  1.3898  0.2481
  603MOL0     H79551   6.112   6.881   3.180 -1.6459  0.3865  0.6427
  603MOL0     H79552   6.114   7.070   3.060 -0.8254 -0.3805  0.0632
  603MOL0     H79553   6.175   7.175   3.190 -1.1093 -0.7948  1.6597
  603MOL0     H79554   5.930   7.194   3.129 -0.4371 -0.2029  0.0347
  603MOL0     H79555   5.902   7.035   3.203 -2.7386  1.2220  0.5410
  603MOL0     H79556   6.022   7.300   3.317 -1.1217  0.6816 -0.8737
  603MOL0     H79557   6.008   7.144   3.409 -1.5991  0.6771 -0.1903
  603MOL0     H79558   5.611   7.323   3.486  1.0172  0.3649 -2.9852
  603MOL0     H79559   5.464   7.188   3.627  0.4451  1.7700 -1.5679
  603MOL0     H79560   5.202   7.015   3.900 -1.2662  1.3867 -1.9329
  603MOL0     H79561   4.975   6.895   3.918 -0.2915  0.6149 -1.0254
  603MOL0     H79562   4.936   6.632   4.040  0.8047 -0.2532  0.5873
  603MOL0     H79563   5.025   6.508   3.950 -0.7612 -1.0287 -2.5394
  603MOL0     H79564   4.836   6.380   4.015  0.1589  0.4520  1.0114
  603MOL0     H79565   4.793   6.416   3.865  0.5928 -2.5554  0.1781
  603MOL0     H79566   4.669   6.635   3.950 -2.0590  0.3908  0.1490
  603MOL0     H79567   4.719   6.580   4.113 -1.8778 -0.6633  0.7466
  603MOL0     H79568   4.519   6.487   3.906 -0.9415  0.1818  0.1489
  603MOL0     H79569   4.568   6.365   4.032 -0.1654 -0.2371  0.4055
  603MOL0     H79570   4.447   6.635   4.087  2.3891 -0.1339  1.2508
  603MOL0     H79571   4.479   6.519   4.209 -0.2341  0.7529 -0.3932
  603MOL0     H79572   4.295   6.362   4.089  0.8324 -0.2313  2.1858
  603MOL0     H79573   4.263   6.499   3.984 -1.4810 -0.6155  0.6866
  603MOL0     H79574   4.221   6.627   4.180 -0.1423 -0.3582 -0.5508
  603MOL0     H79575   4.104   6.514   4.143  0.3776 -1.6370  0.6877
  603MOL0     H79576   4.135   6.517   4.384 -0.8640 -1.5411  0.8658
  603MOL0     H79577   4.308   6.475   4.375 -0.5262  1.4748  0.7195
  603MOL0     H79578   5.138   6.575   3.685  0.7026 -0.0153 -1.2826
  603MOL0     H79579   5.342   6.692   3.648 -0.4942  0.6557 -0.6603
  603MOL0     H79580   5.733   6.847   3.574  0.5378 -0.8127 -0.9441
  603MOL0     H79581   5.844   6.969   3.408 -0.7191 -1.4072 -0.5492
  603MOL0     H79582   7.681   6.677   3.279  1.2134  0.3861  1.1450
  603MOL0     H79583   7.916   6.633   3.310 -1.3257 -1.9410 -3.2254
  603MOL0     H79584   8.353   6.511   3.407 -0.2387  2.1163  2.5654
  603MOL0     H79585   8.583   6.492   3.390 -0.1063 -1.1257 -0.2559
  603MOL0     H79586   8.931   6.757   3.306 -0.9330 -1.3500  1.3658
  603MOL0     H79587   8.793   6.837   3.213 -0.9912 -0.0944  1.4290
  603MOL0     H79588   8.829   6.671   3.037  0.0255  1.0451 -1.5215
  603MOL0     H79589   8.982   6.766   3.073  1.0175  1.4081  2.3304
  603MOL0     H79590   8.874   6.478   3.103 -0.9176 -0.3443 -1.8601
  603MOL0     H79591   8.992   6.514   3.223 -1.0839 -0.3933 -0.2198
  603MOL0     H79592   9.113   6.383   3.031  0.5010  0.6400  1.8439
  603MOL0     H79593   9.035   6.496   2.916  1.7494  1.6209 -0.2958
  603MOL0     H79594   9.330   6.756   3.026  0.0727 -0.4581  3.0161
  603MOL0     H79595   8.596   6.853   3.144 -0.0134 -0.5065 -1.1592
  603MOL0     H79596   8.350   6.864   3.175  1.5869 -0.5274 -1.9061
  604MOL0     O79597   6.094   3.675   0.963  0.4611  0.6167 -0.7072
  604MOL0     C79598   6.162   3.728   0.874  0.1627 -0.0209 -0.6694
  604MOL0     O79599   6.125   3.740   0.747  0.0456  0.0160  1.0261
  604MOL0     C79600   5.998   3.706   0.719  0.5276  0.1917  0.1201
  604MOL0     C79601   5.901   3.804   0.681 -0.1946 -0.2136 -0.5254
  604MOL0     C79602   5.772   3.764   0.635 -0.8894 -0.1057  0.3850
  604MOL0     C79603   5.738   3.630   0.623 -0.3158  0.3258  1.4310
  604MOL0     O79604   5.626   3.604   0.542 -0.1914 -0.3073 -0.1923
  604MOL0     C79605   5.549   3.488   0.581  0.6997 -0.8771  0.1494
  604MOL0     C79606   5.402   3.524   0.555  0.2288  0.2261  0.3790
  604MOL0     C79607   5.327   3.391   0.570 -0.3562  0.1726  0.7964
  604MOL0     C79608   5.178   3.408   0.544 -0.5444  0.1705 -0.3156
  604MOL0     C79609   5.121   3.268   0.531 -0.7042 -0.0996  0.9276
  604MOL0     C79610   4.976   3.287   0.519  0.1635 -0.6773  0.9566
  604MOL0     C79611   4.890   3.160   0.508  0.4683 -0.0594 -0.3478
  604MOL0     C79612   4.821   3.168   0.369 -0.1990  0.3964  0.1244
  604MOL0     N79613   4.692   3.235   0.361  0.4913 -0.3669 -0.0564
  604MOL0     C79614   4.642   3.276   0.244  0.1033  0.0579  0.8316
  604MOL0     C79615   4.509   3.298   0.268  0.1857  0.0610  0.4013
  604MOL0     C79616   4.413   3.326   0.154  0.3477  0.5782  0.1803
  604MOL0     C79617   4.431   3.474   0.114 -0.0511  1.1437  0.9185
  604MOL0     C79618   4.360   3.518  -0.014 -0.2163 -0.0896  0.1264
  604MOL0     C79619   4.210   3.493  -0.005  0.4795  0.4517 -0.4868
  604MOL0     O79620   4.159   3.566   0.109  0.5445 -0.0689 -0.4132
  604MOL0     C79621   4.016   3.571   0.116 -0.5724 -0.6668 -0.0666
  604MOL0     C79622   3.915   3.511   0.034  0.2228  0.0148 -0.5105
  604MOL0     C79623   3.779   3.532   0.053  1.0041  0.1238 -1.0219
  604MOL0     C79624   3.737   3.618   0.158  0.4071  0.4474 -0.8047
  604MOL0     C79625   3.591   3.664   0.173  0.3337  1.5676 -0.2861
  604MOL0     O79626   3.579   3.785   0.232  0.2525 -0.4060 -0.0738
  604MOL0     C79627   3.464   3.849   0.230  0.3902  0.1674 -0.4698
  604MOL0     C79628   3.365   3.850   0.121 -0.0335  1.3391 -0.3587
  604MOL0     C79629   3.238   3.912   0.131  0.3468  0.4850  0.0687
  604MOL0     C79630   3.198   3.966   0.254  0.1440  0.5987 -0.7414
  604MOL0     O79631   3.070   4.014   0.266  0.0050  0.6897 -0.3015
  604MOL0     C79632   3.006   4.025   0.391 -0.6032  0.4400 -0.5634
  604MOL0     C79633   2.854   4.057   0.390 -0.1715 -1.1181 -0.0042
  604MOL0     C79634   2.811   4.185   0.319  0.2177  0.1435  0.1981
  604MOL0     C79635   2.881   4.319   0.365  0.6070  0.6858 -0.0119
  604MOL0     C79636   2.831   4.444   0.290  0.3647  0.3569 -0.4368
  604MOL0     C79637   2.870   4.439   0.147 -0.3741  0.7375 -0.1928
  604MOL0     C79638   2.860   4.573   0.078  0.7056 -0.1019 -1.0174
  604MOL0     C79639   2.920   4.573  -0.061  0.4674 -0.6712  0.0233
  604MOL0    Cl79640   2.836   4.462  -0.172  0.0223 -0.1977  0.2149
  604MOL0     C79641   3.303   3.975   0.352  0.2414 -0.3886  0.6867
  604MOL0     C79642   3.425   3.922   0.343 -0.1027 -0.0121  0.2985
  604MOL0     O79643   3.503   3.599   0.117  0.4542 -0.0204 -0.3791
  604MOL0     C79644   3.841   3.687   0.237  0.2073  0.9228  0.7413
  604MOL0     C79645   3.971   3.660   0.210  0.1112  0.0497 -1.0410
  604MOL0     N79646   4.490   3.289   0.400  0.5316  0.2210 -0.5963
  604MOL0     N79647   4.597   3.256   0.458 -0.5412  0.9221 -0.0819
  604MOL0     C79648   5.831   3.534   0.659  0.5266 -0.1236  0.5850
  604MOL0     C79649   5.957   3.568   0.711 -1.4055 -0.1666  0.9251
  604MOL0     C79650   6.292   3.786   0.908 -0.3865  0.6500 -0.4546
  604MOL0     C79651   6.365   3.756   1.026  0.0062  0.0146 -0.3607
  604MOL0     C79652   6.486   3.810   1.063 -0.3579 -0.1242  0.7834
  604MOL0     C79653   6.537   3.908   0.975  0.4097 -0.2224  0.7218
  604MOL0     O79654   6.655   3.983   0.992  0.2318  0.7437  0.3511
  604MOL0     C79655   6.745   3.941   1.103 -0.4749  0.0397  0.0904
  604MOL0     C79656   6.749   4.026   1.230 -0.8495  0.7058  0.7637
  604MOL0     C79657   6.767   4.173   1.192 -0.0461 -0.2671  0.5959
  604MOL0     C79658   6.835   4.252   1.301  0.0554 -0.3449  0.2577
  604MOL0     C79659   6.984   4.237   1.296  0.2795 -0.4107  0.1699
  604MOL0     C79660   7.100   4.242   1.279  0.0869  0.6880  0.1456
  604MOL0     C79661   6.471   3.932   0.854  0.1088 -0.0906 -0.3352
  604MOL0     C79662   6.348   3.873   0.823  1.3170  0.5219  0.8394
  604MOL0     H79663   5.925   3.910   0.683 -4.2382  0.9032  2.4222
  604MOL0     H79664   5.706   3.838   0.590  1.5247  3.3801  2.1522
  604MOL0     H79665   5.562   3.455   0.685  1.7464  0.0080  0.3214
  604MOL0     H79666   5.567   3.404   0.514 -1.3386 -0.2486 -1.2555
  604MOL0     H79667   5.371   3.551   0.453  0.5432 -1.6602 -0.2675
  604MOL0     H79668   5.367   3.593   0.632  0.2746  1.6221 -0.8119
  604MOL0     H79669   5.344   3.342   0.667  0.4268  1.0106  1.0910
  604MOL0     H79670   5.359   3.324   0.490 -0.5584  0.6076  0.3488
  604MOL0     H79671   5.135   3.454   0.633 -0.1526 -0.0923  0.0134
  604MOL0     H79672   5.159   3.470   0.455  2.7010  0.0306 -1.2472
  604MOL0     H79673   5.146   3.201   0.614  1.5087 -2.2143 -1.3042
  604MOL0     H79674   5.158   3.233   0.434  0.4787  1.3438  0.8232
  604MOL0     H79675   4.957   3.352   0.432 -0.6294 -0.0615  1.5691
  604MOL0     H79676   4.952   3.349   0.607  2.9721 -1.1020  2.1056
  604MOL0     H79677   4.953   3.072   0.520  1.8914  1.3047  4.5469
  604MOL0     H79678   4.817   3.163   0.589  0.6544  0.2290 -0.1915
  604MOL0     H79679   4.805   3.063   0.342 -0.7959 -0.4219  3.2693
  604MOL0     H79680   4.885   3.215   0.294  1.0569 -1.7567 -0.2141
  604MOL0     H79681   4.684   3.293   0.145  0.3323  0.1547  0.9438
  604MOL0     H79682   4.313   3.302   0.189  0.6081 -3.7618 -1.4462
  604MOL0     H79683   4.431   3.252   0.075 -0.8926  0.3635  0.0821
  604MOL0     H79684   4.537   3.494   0.096 -0.3179  1.8485  0.0480
  604MOL0     H79685   4.390   3.531   0.198 -1.6040  3.4857 -1.2826
  604MOL0     H79686   4.374   3.625  -0.031 -0.7945  0.4911  2.8012
  604MOL0     H79687   4.387   3.462  -0.104 -0.7937 -1.0560  0.5345
  604MOL0     H79688   4.186   3.387  -0.011 -0.1438  0.1198  4.1286
  604MOL0     H79689   4.161   3.536  -0.092 -1.6267  2.5174  1.5746
  604MOL0     H79690   3.948   3.451  -0.050  1.3557  1.5814 -1.2406
  604MOL0     H79691   3.710   3.484  -0.015  1.6907 -5.0005  1.3835
  604MOL0     H79692   3.395   3.809   0.025 -0.9471  1.4933 -0.7255
  604MOL0     H79693   3.163   3.919   0.053  0.0746  0.7187  0.3440
  604MOL0     H79694   3.062   4.099   0.449  0.5584 -1.5017  0.8962
  604MOL0     H79695   3.013   3.925   0.434  0.2302  0.7263 -0.0078
  604MOL0     H79696   2.815   4.075   0.490 -0.2691 -1.9034  0.1079
  604MOL0     H79697   2.795   3.972   0.355 -1.2221  0.0728 -1.2707
  604MOL0     H79698   2.703   4.204   0.321  0.1398  0.4237 -2.3847
  604MOL0     H79699   2.821   4.175   0.210  0.6993  1.8749  0.0414
  604MOL0     H79700   2.849   4.325   0.470 -2.2371 -0.3257 -0.7251
  604MOL0     H79701   2.990   4.311   0.361  0.7030 -1.0675  2.7386
  604MOL0     H79702   2.879   4.528   0.341  0.0027  0.3736 -0.1169
  604MOL0     H79703   2.722   4.457   0.296  0.4608  0.6627  1.0177
  604MOL0     H79704   2.810   4.365   0.093 -1.8371  2.0508 -0.4315
  604MOL0     H79705   2.973   4.404   0.140  0.0291  1.5737  1.1196
  604MOL0     H79706   2.755   4.597   0.060  0.8032  0.9215 -0.3159
  604MOL0     H79707   2.910   4.649   0.139  0.4466 -1.5934  1.1803
  604MOL0     H79708   3.025   4.543  -0.057 -0.5468 -4.7886  0.8911
  604MOL0     H79709   2.910   4.669  -0.113 -4.3106  1.0712  3.4864
  604MOL0     H79710   3.275   4.014   0.449  2.1129 -1.2756  1.6292
  604MOL0     H79711   3.500   3.937   0.420  0.9295 -0.6243 -0.5646
  604MOL0     H79712   3.813   3.755   0.317  1.5832  0.7724  1.3792
  604MOL0     H79713   4.044   3.717   0.267  0.1224  1.0625 -2.0204
  604MOL0     H79714   5.810   3.428   0.647 -0.7534  0.3896 -2.5523
  604MOL0     H79715   6.020   3.491   0.754  1.0471 -0.2163 -2.3820
  604MOL0     H79716   6.313   3.691   1.095 -1.1784  1.2914 -0.0060
  604MOL0     H79717   6.534   3.775   1.154  0.4279 -1.0613  0.0365
  604MOL0     H79718   6.845   3.921   1.063 -0.8234 -0.4475 -0.5455
  604MOL0     H79719   6.724   3.841   1.141 -0.3545  0.4220  1.2120
  604MOL0     H79720   6.651   4.018   1.279 -0.2290  1.0779  2.1035
  604MOL0     H79721   6.824   3.992   1.302 -1.4814  2.0707  2.1247
  604MOL0     H79722   6.667   4.213   1.177 -0.5883 -2.0334 -0.8541
  604MOL0     H79723   6.819   4.190   1.097  3.2407 -4.2265  1.3817
  604MOL0     H79724   6.813   4.354   1.270 -2.8378 -0.9856 -0.0928
  604MOL0     H79725   6.797   4.232   1.401 -1.9521  0.0286 -0.3923
  604MOL0     H79726   7.206   4.234   1.259  0.2570  0.4779  1.1069
  604MOL0     H79727   6.515   3.999   0.780  0.2066 -0.0756 -0.2634
  604MOL0     H79728   6.307   3.900   0.726  1.8249  1.0017  0.7515
  605MOL0     O79729   3.162   4.800   3.428 -0.7860 -0.5265  0.5153
  605MOL0     C79730   3.213   4.766   3.324 -0.2902 -0.5426  0.5853
  605MOL0     O79731   3.150   4.707   3.216  0.3927  0.0247  0.2812
  605MOL0     C79732   3.013   4.673   3.233 -0.1741 -0.0879 -0.3798
  605MOL0     C79733   2.971   4.547   3.194  0.2577 -0.5002  0.7158
  605MOL0     C79734   2.835   4.515   3.191  1.1279  0.5529 -0.1617
  605MOL0     C79735   2.737   4.610   3.222  0.3775 -0.4508  0.1360
  605MOL0     O79736   2.603   4.596   3.225  0.0729 -0.1659 -0.6601
  605MOL0     C79737   2.540   4.483   3.164  0.8160 -0.5330 -0.2119
  605MOL0     C79738   2.383   4.485   3.182 -0.9107 -0.3168  0.5394
  605MOL0     C79739   2.326   4.594   3.097 -0.2345  0.1925  0.0486
  605MOL0     C79740   2.184   4.643   3.156 -0.3696 -0.0367 -0.0594
  605MOL0     C79741   2.083   4.528   3.170 -0.3886 -0.6482  0.4075
  605MOL0     C79742   2.021   4.500   3.038 -0.6206  0.0845 -0.4293
  605MOL0     C79743   1.947   4.362   3.038  0.0065 -0.4479  0.2227
  605MOL0     C79744   1.812   4.363   3.119  0.3957 -0.7155 -0.4379
  605MOL0     N79745   1.710   4.456   3.052 -0.1638  0.2827 -0.2324
  605MOL0     C79746   1.615   4.421   2.959  0.0469 -0.1891 -1.4830
  605MOL0     C79747   1.551   4.544   2.934  0.5075  0.1564 -0.2366
  605MOL0     C79748   1.433   4.561   2.846 -0.3593  0.3171 -0.3831
  605MOL0     C79749   1.323   4.474   2.918 -0.6564  0.5581  0.3378
  605MOL0     C79750   1.195   4.473   2.844  0.5112 -0.3799  0.1862
  605MOL0     C79751   1.075   4.436   2.924  0.9786 -0.6538 -0.1743
  605MOL0     O79752   1.095   4.301   2.962  0.3399  0.3022  0.3929
  605MOL0     C79753   1.023   4.261   3.066 -1.3860  0.7924 -0.4553
  605MOL0     C79754   0.898   4.217   3.047 -0.0252 -0.1805  0.0924
  605MOL0     C79755   0.827   4.181   3.159 -0.1750  0.0586 -1.0018
  605MOL0     C79756   0.870   4.191   3.287 -0.4324  0.1397  0.2478
  605MOL0     C79757   0.783   4.158   3.398  0.5832 -1.0120  0.4616
  605MOL0     O79758   0.815   4.201   3.522  0.0369 -0.1145  0.2651
  605MOL0     C79759   0.720   4.185   3.612 -0.1342  0.4580  0.1433
  605MOL0     C79760   0.730   4.099   3.714 -0.4317  0.2812  0.3413
  605MOL0     C79761   0.627   4.078   3.809 -0.3582 -0.3000  0.4350
  605MOL0     C79762   0.505   4.158   3.807 -0.9123 -0.0722  0.3270
  605MOL0     O79763   0.397   4.164   3.889  0.0515  0.5794  1.0862
  605MOL0     C79764   0.395   4.071   4.005  0.8093 -0.7053  0.8610
  605MOL0     C79765   0.455   4.135   4.133 -0.0925 -0.4644 -0.1763
  605MOL0     C79766   0.589   4.207   4.118 -0.2551 -0.8471  0.3166
  605MOL0     C79767   0.638   4.246   4.255 -0.3359  0.0904 -0.1731
  605MOL0     C79768   0.791   4.279   4.252 -0.6037 -0.4148  0.2496
  605MOL0     C79769   0.823   4.387   4.360  0.7616 -0.0128 -0.2629
  605MOL0     C79770   0.971   4.397   4.381 -0.0622  0.2953  0.8888
  605MOL0     C79771   1.005   4.480   4.512 -0.4348  0.6884 -0.5549
  605MOL0    Cl79772   0.972   4.398   4.662 -0.0718 -0.1802 -0.2872
  605MOL0     C79773   0.500   4.244   3.701 -0.8373 -0.4877  0.1913
  605MOL0     C79774   0.605   4.264   3.602  0.0446 -1.0762  0.4060
  605MOL0     O79775   0.692   4.079   3.373  1.0525  0.2553  0.1922
  605MOL0     C79776   0.999   4.236   3.302  0.2817 -0.6651 -0.8029
  605MOL0     C79777   1.075   4.267   3.190 -0.3440  0.3283  0.0622
  605MOL0     N79778   1.610   4.645   3.012 -0.0874  0.0289  0.4959
  605MOL0     N79779   1.705   4.586   3.080  0.6302  0.2610  0.0481
  605MOL0     C79780   2.782   4.735   3.274 -0.4036  0.2536  0.1912
  605MOL0     C79781   2.923   4.767   3.274 -0.1352 -1.1894  1.1938
  605MOL0     C79782   3.355   4.806   3.302  0.3884 -0.5988  0.8310
  605MOL0     C79783   3.415   4.788   3.175  0.4645 -0.4108  0.0768
  605MOL0     C79784   3.550   4.830   3.157 -0.3838  0.4219  0.0844
  605MOL0     C79785   3.621   4.886   3.263  0.6406 -0.1182  0.3704
  605MOL0     O79786   3.748   4.918   3.251 -0.1586 -0.3136  0.1789
  605MOL0     C79787   3.849   4.825   3.216  0.0167  0.0293  0.9350
  605MOL0     C79788   3.956   4.892   3.140  0.2469 -0.2812 -0.2226
  605MOL0     C79789   4.060   4.788   3.112  0.6534 -1.3470  0.9570
  605MOL0     C79790   4.133   4.836   2.984  0.1352  0.1396  0.5406
  605MOL0     C79791   4.226   4.734   2.956 -0.7248 -0.0040  0.1623
  605MOL0     C79792   4.311   4.655   2.924  0.4301  0.0548  0.0507
  605MOL0     C79793   3.564   4.901   3.395  0.9802  0.5371 -0.1475
  605MOL0     C79794   3.432   4.856   3.415  0.5006  1.5921  0.2453
  605MOL0     H79795   3.042   4.488   3.136  0.3685  1.3748 -1.1655
  605MOL0     H79796   2.805   4.416   3.156  0.1805  0.0998  1.8033
  605MOL0     H79797   2.572   4.397   3.223  1.3342 -0.6278 -0.6233
  605MOL0     H79798   2.574   4.465   3.061 -0.2598 -1.8977 -0.3578
  605MOL0     H79799   2.372   4.501   3.290  0.2227  2.9041  0.2934
  605MOL0     H79800   2.343   4.390   3.147  1.2536 -0.4556 -1.8348
  605MOL0     H79801   2.316   4.557   2.994  0.9097 -0.8850  0.2970
  605MOL0     H79802   2.396   4.678   3.100  2.8289 -2.2037  0.7973
  605MOL0     H79803   2.207   4.683   3.256  1.6151  0.1719 -0.5579
  605MOL0     H79804   2.149   4.721   3.089  1.6128 -0.1399 -1.2697
  605MOL0     H79805   2.002   4.557   3.237 -0.2848  2.2568 -0.6023
  605MOL0     H79806   2.134   4.444   3.219 -1.7477 -0.3068  2.5457
  605MOL0     H79807   2.098   4.500   2.961 -0.2242 -0.0216 -0.0348
  605MOL0     H79808   1.948   4.575   3.004 -0.9435 -0.6239 -1.3423
  605MOL0     H79809   1.922   4.329   2.937 -0.4579 -0.2423  0.2653
  605MOL0     H79810   2.014   4.286   3.078 -1.8497 -1.3454  1.8098
  605MOL0     H79811   1.829   4.392   3.223 -3.3070  0.6879 -0.0448
  605MOL0     H79812   1.785   4.257   3.119  0.9108 -1.0110  3.7005
  605MOL0     H79813   1.605   4.322   2.916  4.1466 -0.3258 -2.5730
  605MOL0     H79814   1.460   4.522   2.747 -1.9467 -0.7582 -0.4339
  605MOL0     H79815   1.398   4.664   2.842 -3.4808 -0.6401 -0.4131
  605MOL0     H79816   1.302   4.501   3.021  2.1267  1.5116  0.7487
  605MOL0     H79817   1.358   4.370   2.921 -1.2551  0.3874  2.2415
  605MOL0     H79818   1.175   4.568   2.794 -2.0229  1.3366  4.0152
  605MOL0     H79819   1.198   4.397   2.764  2.2590  1.2718 -1.4256
  605MOL0     H79820   0.983   4.437   2.865  2.1451  3.1557 -2.3420
  605MOL0     H79821   1.056   4.507   3.005  0.2477  1.8241 -2.3720
  605MOL0     H79822   0.833   4.228   2.960 -0.7722 -0.2813  0.6232
  605MOL0     H79823   0.727   4.144   3.140  0.2307 -2.2525  0.7851
  605MOL0     H79824   0.818   4.042   3.743 -0.0750  1.5798  1.9846
  605MOL0     H79825   0.634   4.002   3.885 -1.0929 -0.6628  0.1539
  605MOL0     H79826   0.449   3.982   3.971  0.9813  0.2081 -1.4024
  605MOL0     H79827   0.291   4.039   4.022 -1.0808  2.3612 -3.1867
  605MOL0     H79828   0.461   4.054   4.207  0.1767 -0.7701 -0.5290
  605MOL0     H79829   0.380   4.201   4.178 -0.6700  0.1369 -1.9369
  605MOL0     H79830   0.587   4.304   4.067  0.9707  0.3459  2.3641
  605MOL0     H79831   0.658   4.135   4.074  0.3421 -1.8081  2.6433
  605MOL0     H79832   0.576   4.328   4.293 -0.9109 -1.2997  2.1325
  605MOL0     H79833   0.616   4.174   4.335  0.4816 -0.4560 -0.4279
  605MOL0     H79834   0.829   4.317   4.157  3.3219 -0.0960  1.7588
  605MOL0     H79835   0.848   4.190   4.279 -1.0646 -0.3861  1.3813
  605MOL0     H79836   0.767   4.349   4.446 -2.7030 -3.3390 -3.5763
  605MOL0     H79837   0.789   4.487   4.332  1.0367  1.0968  2.9446
  605MOL0     H79838   1.017   4.298   4.391  0.7142  0.7434  1.9694
  605MOL0     H79839   1.011   4.446   4.292 -0.2184  1.5911  1.5060
  605MOL0     H79840   0.953   4.575   4.518  0.4557  1.1782 -0.4175
  605MOL0     H79841   1.112   4.502   4.518 -0.6076  1.3449  0.3257
  605MOL0     H79842   0.416   4.312   3.692 -1.2093 -1.0221 -0.5369
  605MOL0     H79843   0.600   4.344   3.529 -1.5829 -1.4639  0.0498
  605MOL0     H79844   1.038   4.238   3.403  2.7112  1.3418 -1.6790
  605MOL0     H79845   1.170   4.319   3.197 -1.2541  1.9581  0.8301
  605MOL0     H79846   2.713   4.805   3.319 -0.3889 -0.9806  2.2717
  605MOL0     H79847   2.954   4.867   3.300  1.8850 -1.9496  1.8664
  605MOL0     H79848   3.363   4.735   3.096  0.6202  3.3052 -2.8176
  605MOL0     H79849   3.598   4.798   3.065 -2.0835  0.3162 -0.8002
  605MOL0     H79850   3.811   4.749   3.147  2.6316 -0.8096  0.3143
  605MOL0     H79851   3.879   4.773   3.308 -1.7433 -1.3538  0.7852
  605MOL0     H79852   3.924   4.927   3.041  1.4016 -3.5071 -1.8931
  605MOL0     H79853   3.995   4.975   3.199 -2.5376  1.5231 -0.7344
  605MOL0     H79854   4.021   4.688   3.093  0.4497 -0.8156 -1.8045
  605MOL0     H79855   4.132   4.780   3.194  2.0801  0.3924 -0.0419
  605MOL0     H79856   4.071   4.847   2.894  1.2890 -0.2962 -0.3388
  605MOL0     H79857   4.190   4.928   2.998 -0.1157  0.5273 -0.8388
  605MOL0     H79858   4.377   4.575   2.895 -1.8237 -2.6341  1.9039
  605MOL0     H79859   3.611   4.950   3.479 -2.5805  1.4051  1.5412
  605MOL0     H79860   3.393   4.866   3.516  1.8884  0.0982  0.9710
  606MOL0     O79861   8.600   2.427  11.081  0.0416 -0.3569 -0.3423
  606MOL0     C79862   8.602   2.440  11.206 -0.0828  0.1330  0.8858
  606MOL0     O79863   8.494   2.404  11.290 -1.2702  0.3465  0.2642
  606MOL0     C79864   8.375   2.353  11.250 -0.5365  0.2560  0.6585
  606MOL0     C79865   8.297   2.285  11.347 -0.0520  0.4858  0.4932
  606MOL0     C79866   8.170   2.223  11.318 -0.2479  0.4912 -1.1149
  606MOL0     C79867   8.108   2.241  11.199 -0.1368 -0.2957 -0.1663
  606MOL0     O79868   7.983   2.195  11.167 -0.3408  0.0653 -0.3376
  606MOL0     C79869   7.878   2.192  11.271  0.6233  0.3813 -0.3569
  606MOL0     C79870   7.744   2.159  11.200 -0.3532  0.3326 -0.0467
  606MOL0     C79871   7.630   2.125  11.302 -0.6169 -0.4808 -0.8294
  606MOL0     C79872   7.491   2.111  11.235 -0.8233 -0.0986 -0.1761
  606MOL0     C79873   7.381   2.070  11.340 -0.3328  0.0962  0.0782
  606MOL0     C79874   7.266   2.168  11.314 -0.8112  0.4676 -0.3566
  606MOL0     C79875   7.152   2.138  11.413 -0.0336 -0.1552  0.3128
  606MOL0     C79876   7.048   2.248  11.409  0.2660  0.1642  0.1559
  606MOL0     N79877   6.926   2.200  11.486 -0.2557  0.3058  0.1166
  606MOL0     C79878   6.825   2.117  11.441 -0.0652 -0.2779  0.0742
  606MOL0     C79879   6.756   2.074  11.551 -0.2157 -0.1786 -0.3515
  606MOL0     C79880   6.630   2.000  11.542  1.0078  0.7962 -0.1430
  606MOL0     C79881   6.522   2.045  11.445  0.4583 -0.0484  0.5854
  606MOL0     C79882   6.458   2.174  11.494 -0.3373  0.0479  0.0359
  606MOL0     C79883   6.335   2.214  11.409  0.2064 -1.1651  0.3177
  606MOL0     O79884   6.277   2.347  11.440  0.1432  0.0341  0.8276
  606MOL0     C79885   6.151   2.372  11.396  0.2904  0.6097 -0.7738
  606MOL0     C79886   6.093   2.481  11.467 -0.0151  0.1990  0.2940
  606MOL0     C79887   5.966   2.519  11.444  0.1162  0.9191 -0.1399
  606MOL0     C79888   5.890   2.450  11.344  0.6048 -0.5425  0.1291
  606MOL0     C79889   5.745   2.482  11.328  0.4192 -0.4162 -0.8258
  606MOL0     O79890   5.666   2.389  11.269 -0.4983 -0.1990 -0.3069
  606MOL0     C79891   5.534   2.411  11.253  0.6045 -0.9625 -0.3764
  606MOL0     C79892   5.454   2.405  11.370  0.1275 -0.8340  0.8654
  606MOL0     C79893   5.314   2.422  11.361 -0.4321 -0.2621  0.1922
  606MOL0     C79894   5.256   2.459  11.240  0.2112  0.2622 -0.3240
  606MOL0     O79895   5.127   2.494  11.253 -0.1442 -0.5830 -0.2175
  606MOL0     C79896   5.056   2.537  11.137 -0.3663 -0.0258 -0.7043
  606MOL0     C79897   4.914   2.588  11.173  0.2696  0.4978  0.6276
  606MOL0     C79898   4.832   2.627  11.041  0.3605 -0.0684 -0.4963
  606MOL0     C79899   4.697   2.679  11.090 -0.8426  0.1303 -0.4448
  606MOL0     C79900   4.585   2.687  10.985  0.1816  0.2681  0.1168
  606MOL0     C79901   4.621   2.787  10.882 -0.4669 -0.6534  0.4861
  606MOL0     C79902   4.507   2.785  10.778  0.4619  0.1733  0.1063
  606MOL0     C79903   4.391   2.858  10.839  0.0804 -0.8552  0.2503
  606MOL0    Cl79904   4.276   2.917  10.704 -0.3420  0.4804 -0.0742
  606MOL0     C79905   5.334   2.486  11.128  0.9179  0.1615 -1.0970
  606MOL0     C79906   5.476   2.450  11.129  1.0372  0.6046 -0.6023
  606MOL0     O79907   5.709   2.593  11.368  0.4422 -0.1652 -0.8822
  606MOL0     C79908   5.952   2.336  11.280 -0.4789 -0.7454  0.3645
  606MOL0     C79909   6.080   2.301  11.302 -0.1432 -0.0685 -0.3764
  606MOL0     N79910   6.825   2.113  11.663  0.7947  0.4658  0.4134
  606MOL0     N79911   6.921   2.196  11.626 -0.0750  0.3140  0.7652
  606MOL0     C79912   8.182   2.307  11.102 -0.2079 -1.0926  0.3819
  606MOL0     C79913   8.312   2.370  11.131  0.1016  0.8130  0.2711
  606MOL0     C79914   8.729   2.461  11.269 -0.2589  0.4124  0.6873
  606MOL0     C79915   8.743   2.489  11.404 -0.2746 -0.3225 -0.2471
  606MOL0     C79916   8.860   2.509  11.475  0.1220  0.7981 -0.7416
  606MOL0     C79917   8.979   2.501  11.403  0.7532  0.2479  0.8560
  606MOL0     O79918   9.094   2.513  11.469  0.3521  0.3806 -0.4008
  606MOL0     C79919   9.223   2.555  11.409  0.6282 -0.4480  0.9097
  606MOL0     C79920   9.330   2.598  11.512 -0.2914 -0.5855 -0.1665
  606MOL0     C79921   9.449   2.622  11.429 -0.1021 -0.0923 -0.2477
  606MOL0     C79922   9.582   2.658  11.499 -0.1470 -0.1872 -0.5616
  606MOL0     C79923   9.693   2.703  11.404  0.3485  0.0172 -0.6547
  606MOL0     C79924   9.766   2.746  11.320 -0.3327  0.4750  0.0296
  606MOL0     C79925   8.970   2.475  11.262 -0.3583  0.8649 -0.3475
  606MOL0     C79926   8.848   2.453  11.205  0.3223  0.2861  0.4978
  606MOL0     H79927   8.347   2.266  11.441  1.5159  0.5622 -0.3057
  606MOL0     H79928   8.116   2.172  11.397 -0.3114 -0.1196 -1.5500
  606MOL0     H79929   7.868   2.289  11.322 -2.1201  1.0179 -1.8854
  606MOL0     H79930   7.900   2.123  11.353 -0.6331  0.8500  0.4111
  606MOL0     H79931   7.769   2.066  11.148 -1.0244  0.2327 -0.1935
  606MOL0     H79932   7.717   2.239  11.131 -1.3969  0.5809  0.6333
  606MOL0     H79933   7.622   2.213  11.367 -2.1964  0.3689 -2.1006
  606MOL0     H79934   7.661   2.043  11.367  0.2686  1.4821  1.3823
  606MOL0     H79935   7.473   2.198  11.173  0.1121  0.5651  0.4595
  606MOL0     H79936   7.492   2.023  11.170  1.9056 -1.0386  1.0063
  606MOL0     H79937   7.439   2.077  11.432 -1.7612 -1.5404  1.1607
  606MOL0     H79938   7.346   1.966  11.332  0.4357 -0.1310 -0.4382
  606MOL0     H79939   7.220   2.157  11.215  1.1760 -0.1280 -1.2580
  606MOL0     H79940   7.303   2.271  11.324 -1.3913  0.6660 -0.2270
  606MOL0     H79941   7.109   2.042  11.384  0.5986 -0.7142  1.1938
  606MOL0     H79942   7.187   2.130  11.516 -1.5183 -1.1881  0.7592
  606MOL0     H79943   7.007   2.269  11.309 -1.8891  0.8384  1.1279
  606MOL0     H79944   7.080   2.347  11.443 -1.5403 -0.1200  3.0088
  606MOL0     H79945   6.796   2.093  11.339  0.0931 -2.2902  0.4460
  606MOL0     H79946   6.586   1.988  11.642 -0.6346  0.1785 -0.9157
  606MOL0     H79947   6.660   1.898  11.519  1.2067  1.1114 -1.3250
  606MOL0     H79948   6.444   1.969  11.438  0.2235  0.0800  1.6892
  606MOL0     H79949   6.568   2.063  11.347 -0.5130  0.8934  0.2845
  606MOL0     H79950   6.442   2.168  11.602  0.7134 -1.0147  0.1479
  606MOL0     H79951   6.538   2.248  11.485  1.5273 -1.3016  3.5505
  606MOL0     H79952   6.263   2.131  11.411  1.1464 -1.9915  0.5375
  606MOL0     H79953   6.377   2.220  11.309  0.8599 -2.3153  0.4994
  606MOL0     H79954   6.141   2.541  11.544 -3.1479  3.3564  0.0523
  606MOL0     H79955   5.923   2.600  11.501  0.0303 -0.3355  1.6618
  606MOL0     H79956   5.500   2.403  11.468  2.8006  3.3601 -0.0624
  606MOL0     H79957   5.252   2.415  11.450  0.2386  1.8178  0.8602
  606MOL0     H79958   5.051   2.448  11.074 -1.3922  0.3726 -1.2188
  606MOL0     H79959   5.111   2.622  11.096  1.6040 -0.0465  1.6997
  606MOL0     H79960   4.919   2.676  11.238  2.4788 -0.9428  2.5435
  606MOL0     H79961   4.857   2.509  11.224 -1.3461  1.1869 -0.0421
  606MOL0     H79962   4.812   2.534  10.989 -1.0467  0.4532 -0.9366
  606MOL0     H79963   4.892   2.692  10.976  0.6462  1.6360  1.3748
  606MOL0     H79964   4.664   2.613  11.171  3.8433 -2.3071 -0.1747
  606MOL0     H79965   4.719   2.778  11.130 -0.0779 -1.1777  2.5989
  606MOL0     H79966   4.491   2.718  11.031 -0.2136 -0.7891  0.0362
  606MOL0     H79967   4.565   2.589  10.941  0.8188  0.1127  0.1573
  606MOL0     H79968   4.704   2.739  10.831 -1.4205 -0.2569 -1.5298
  606MOL0     H79969   4.647   2.884  10.926  1.8964 -1.9261  2.1147
  606MOL0     H79970   4.540   2.823  10.680 -3.1531  2.4107 -0.4576
  606MOL0     H79971   4.467   2.685  10.759  1.2826  0.1540 -1.8319
  606MOL0     H79972   4.429   2.948  10.888  0.2356  0.6064 -2.3885
  606MOL0     H79973   4.332   2.783  10.894  1.5326 -1.5068  0.9710
  606MOL0     H79974   5.296   2.527  11.034 -1.1219 -0.4503 -0.5757
  606MOL0     H79975   5.534   2.485  11.044  0.4306  4.2045  0.3188
  606MOL0     H79976   5.899   2.275  11.207 -1.4163  0.1137  0.3087
  606MOL0     H79977   6.115   2.215  11.245  0.8097 -0.0201  0.1228
  606MOL0     H79978   8.128   2.339  11.014  0.0814  0.3725  0.7141
  606MOL0     H79979   8.356   2.429  11.052 -2.1009  1.8881 -0.2368
  606MOL0     H79980   8.646   2.506  11.449 -1.1367  0.3451 -2.2494
  606MOL0     H79981   8.857   2.521  11.583 -0.6762 -1.7025 -0.4153
  606MOL0     H79982   9.208   2.629  11.330 -0.9555  0.0977  1.6941
  606MOL0     H79983   9.263   2.466  11.360  1.3420 -0.3635  1.3177
  606MOL0     H79984   9.290   2.684  11.566 -0.5281 -0.3285 -0.7364
  606MOL0     H79985   9.342   2.512  11.579 -4.0600 -2.5179 -1.6512
  606MOL0     H79986   9.421   2.699  11.356  0.9301 -1.3370 -2.0451
  606MOL0     H79987   9.472   2.531  11.373  0.2715 -0.0372 -0.1858
  606MOL0     H79988   9.560   2.746  11.560 -1.3945  0.0825 -1.3669
  606MOL0     H79989   9.602   2.567  11.557 -2.7131 -0.4625  0.0307
  606MOL0     H79990   9.835   2.791  11.250 -2.1319 -1.8813 -3.5422
  606MOL0     H79991   9.057   2.458  11.201 -0.9415 -2.4389 -0.4253
  606MOL0     H79992   8.850   2.419  11.102  3.9729 -0.0049  0.5354
  607MOL0     O79993   1.101  10.283  11.014  0.1296 -0.0210  0.3273
  607MOL0     C79994   1.095  10.226  11.124  0.5975 -0.5369 -0.0847
  607MOL0     O79995   0.983  10.179  11.190 -0.3228 -0.6648 -0.5737
  607MOL0     C79996   0.857  10.197  11.130 -0.3390 -0.6540  0.7533
  607MOL0     C79997   0.756  10.207  11.226  0.7286  0.4627 -0.3442
  607MOL0     C79998   0.621  10.195  11.180 -0.3764 -0.4059  1.3830
  607MOL0     C79999   0.587  10.207  11.045  0.4771  0.5898  0.0610
  607MOL0     O80000   0.453  10.225  11.010  0.0684 -0.4087  0.4312
  607MOL0     C80001   0.410  10.114  10.931  0.0474 -0.7264 -0.5725
  607MOL0     C80002   0.270  10.092  10.950 -0.9064  0.7197 -0.5487
  607MOL0     C80003   0.178  10.199  10.882 -0.3933  0.2051  0.2922
  607MOL0     C80004   0.031  10.156  10.875 -0.7571  0.7959 -0.8447
  607MOL0     C80005  -0.055  10.271  10.827 -0.0856  0.0017 -0.5500
  607MOL0     C80006  -0.203  10.223  10.806  0.5219  0.2316  0.7626
  607MOL0     C80007  -0.298  10.343  10.801  0.1700 -0.2977  0.7876
  607MOL0     C80008  -0.449  10.318  10.798  0.3277  1.2436 -0.6201
  607MOL0     N80009  -0.530  10.423  10.855 -0.1604 -0.0616  0.0738
  607MOL0     C80010  -0.629  10.415  10.951 -0.4408  0.0722  0.7405
  607MOL0     C80011  -0.657  10.542  10.987  0.2347 -1.0674  0.0136
  607MOL0     C80012  -0.783  10.595  11.047 -0.8637  1.2259 -0.4693
  607MOL0     C80013  -0.887  10.584  10.943  0.7506  0.5287  0.4172
  607MOL0     C80014  -0.947  10.453  10.919 -0.1633 -0.2925 -0.3560
  607MOL0     C80015  -1.074  10.449  10.835 -0.2005 -0.4918 -0.1756
  607MOL0     O80016  -1.175  10.512  10.904  0.2188 -0.4245 -0.0392
  607MOL0     C80017  -1.304  10.530  10.853  0.0992  0.1886  0.6883
  607MOL0     C80018  -1.365  10.443  10.762 -0.1771 -0.4951  0.0697
  607MOL0     C80019  -1.502  10.459  10.744 -0.7522  0.1770  0.3776
  607MOL0     C80020  -1.579  10.552  10.799 -0.0087 -1.1664  0.1084
  607MOL0     C80021  -1.721  10.556  10.775 -0.8341 -0.5153  0.0406
  607MOL0     O80022  -1.792  10.606  10.877  0.4798 -0.4514  0.1093
  607MOL0     C80023  -1.928  10.606  10.877  0.1597 -0.1036 -0.0301
  607MOL0     C80024  -1.983  10.719  10.950  0.6761  0.7854 -0.4988
  607MOL0     C80025  -2.118  10.734  10.962  0.8328  0.1503 -0.3703
  607MOL0     C80026  -2.201  10.641  10.904 -0.4202 -0.3691  0.8215
  607MOL0     O80027  -2.328  10.684  10.885  0.0761 -0.0772  0.2347
  607MOL0     C80028  -2.424  10.633  10.982 -0.1930  0.3873  0.3845
  607MOL0     C80029  -2.568  10.681  10.952 -1.0599  0.3837  0.3512
  607MOL0     C80030  -2.667  10.607  11.038 -0.0917 -0.2598  0.2597
  607MOL0     C80031  -2.808  10.653  11.001 -0.1067 -0.2868 -0.8288
  607MOL0     C80032  -2.908  10.607  11.114 -0.1445 -0.9921  0.0038
  607MOL0     C80033  -3.038  10.564  11.057 -0.6104 -0.0092 -1.3967
  607MOL0     C80034  -3.152  10.533  11.157  0.2141 -0.1242 -0.5291
  607MOL0     C80035  -3.192  10.651  11.252  0.8733  0.0747  0.2465
  607MOL0    Cl80036  -3.362  10.623  11.316  0.2139 -0.3687  0.0685
  607MOL0     C80037  -2.147  10.527  10.830 -0.2776 -0.0988  0.4671
  607MOL0     C80038  -2.007  10.508  10.813 -0.0125 -1.0672 -0.0123
  607MOL0     O80039  -1.770  10.511  10.667  0.2302  0.0782  0.6758
  607MOL0     C80040  -1.515  10.639  10.888  0.1367 -0.3682 -0.4485
  607MOL0     C80041  -1.383  10.632  10.911  0.0494  0.2639 -0.8422
  607MOL0     N80042  -0.570  10.628  10.922  0.2439  0.2685  0.6703
  607MOL0     N80043  -0.501  10.552  10.838 -0.4761  0.6424  0.4157
  607MOL0     C80044   0.688  10.195  10.951  0.1590  0.1680 -0.0850
  607MOL0     C80045   0.825  10.194  10.997 -0.4122  0.7294 -0.1326
  607MOL0     C80046   1.219  10.217  11.201 -0.0807 -0.5264  0.4083
  607MOL0     C80047   1.224  10.125  11.313 -0.2746 -0.2796 -0.6167
  607MOL0     C80048   1.342  10.117  11.390 -0.5092 -0.1245 -0.9468
  607MOL0     C80049   1.464  10.183  11.356  0.4595 -1.1107 -0.6429
  607MOL0     O80050   1.561  10.155  11.445  0.8586  0.8351 -0.0371
  607MOL0     C80051   1.700  10.177  11.408 -0.1466 -0.2666  0.3648
  607MOL0     C80052   1.801  10.096  11.493 -0.6820  0.3200 -0.2813
  607MOL0     C80053   1.934  10.090  11.421 -0.6098 -0.0840  0.2791
  607MOL0     C80054   2.051  10.022  11.492 -0.0758 -0.2264  0.1000
  607MOL0     C80055   2.036   9.881  11.491 -0.0258  0.5390  0.0258
  607MOL0     C80056   2.003   9.765  11.488 -0.5800  0.0159 -0.1457
  607MOL0     C80057   1.465  10.263  11.238 -0.0680 -0.5969 -0.5199
  607MOL0     C80058   1.341  10.284  11.164  0.4942 -0.0013  1.5477
  607MOL0     H80059   0.779  10.211  11.332  0.3362  0.9642 -0.2727
  607MOL0     H80060   0.549  10.205  11.261  1.3029 -0.7017  2.9921
  607MOL0     H80061   0.461  10.020  10.957 -1.8957 -1.4029  1.0556
  607MOL0     H80062   0.436  10.138  10.827 -1.4869  0.0002 -0.8201
  607MOL0     H80063   0.263  10.084  11.059  1.0172  0.0085 -0.4532
  607MOL0     H80064   0.240   9.995  10.908  0.5373  0.4928 -1.1043
  607MOL0     H80065   0.198  10.212  10.775 -1.9701 -3.4827 -0.6089
  607MOL0     H80066   0.192  10.288  10.944  0.3980  0.6048 -0.4346
  607MOL0     H80067   0.011  10.066  10.816  0.6319  0.1085 -0.3112
  607MOL0     H80068  -0.008  10.130  10.974  2.7200 -0.1317  0.4373
  607MOL0     H80069  -0.020  10.310  10.731  3.5971  2.7562  1.6032
  607MOL0     H80070  -0.055  10.342  10.910 -1.4922 -2.5561  1.8163
  607MOL0     H80071  -0.233  10.147  10.879  0.0237  0.3853  0.7231
  607MOL0     H80072  -0.199  10.177  10.707  0.5052  1.5664  0.1229
  607MOL0     H80073  -0.284  10.403  10.891 -5.3397 -0.4719  2.1140
  607MOL0     H80074  -0.274  10.394  10.707 -0.2554 -3.3232 -1.0911
  607MOL0     H80075  -0.453  10.238  10.872  1.5161  1.7218 -0.0225
  607MOL0     H80076  -0.491  10.274  10.707 -0.1347  2.4952 -1.0382
  607MOL0     H80077  -0.669  10.318  10.979  3.6169 -2.3286 -0.7637
  607MOL0     H80078  -0.775  10.695  11.090 -2.0876  0.0670  2.8290
  607MOL0     H80079  -0.807  10.532  11.134 -0.8161 -0.0176 -1.3344
  607MOL0     H80080  -0.844  10.621  10.850  0.8491  1.7326  0.9130
  607MOL0     H80081  -0.967  10.651  10.976  0.7285  0.2190  1.0082
  607MOL0     H80082  -0.877  10.386  10.868  2.8907  1.6898  0.9615
  607MOL0     H80083  -0.986  10.408  11.011 -3.4871  1.0184 -0.9441
  607MOL0     H80084  -1.111  10.347  10.821  0.4408 -0.4435 -2.8063
  607MOL0     H80085  -1.060  10.498  10.738 -0.5574 -0.3766 -0.1696
  607MOL0     H80086  -1.309  10.369  10.707  0.2935 -0.1811  0.1179
  607MOL0     H80087  -1.540  10.372  10.690  1.5765 -0.2621 -0.6612
  607MOL0     H80088  -1.899  10.776  10.988  1.3621 -0.8093  0.5211
  607MOL0     H80089  -2.165  10.823  11.001  1.1019  1.5668 -3.0963
  607MOL0     H80090  -2.405  10.661  11.086 -0.2789 -0.0362  0.5158
  607MOL0     H80091  -2.423  10.524  10.977  1.0370  0.3405  1.2647
  607MOL0     H80092  -2.583  10.642  10.851 -0.4488 -2.1286  1.1444
  607MOL0     H80093  -2.573  10.790  10.950 -0.0113  0.4855  1.6187
  607MOL0     H80094  -2.641  10.626  11.142  2.2282 -3.1042  0.3136
  607MOL0     H80095  -2.661  10.497  11.038 -0.8979 -0.3205 -0.7674
  607MOL0     H80096  -2.809  10.760  10.980  0.3546  0.2733  1.6743
  607MOL0     H80097  -2.839  10.608  10.906 -2.0903 -1.3074  0.2499
  607MOL0     H80098  -2.923  10.689  11.185  1.4754 -2.5500  2.2518
  607MOL0     H80099  -2.872  10.516  11.162  1.9314 -1.9508 -3.0539
  607MOL0     H80100  -3.011  10.477  10.995  1.0408 -2.4610  2.3825
  607MOL0     H80101  -3.079  10.644  10.995  1.7146  0.5561 -2.3232
  607MOL0     H80102  -3.246  10.519  11.102 -2.6692  4.1402  2.5916
  607MOL0     H80103  -3.139  10.436  11.207 -2.3536 -0.5505 -0.5280
  607MOL0     H80104  -3.186  10.742  11.192 -1.1033  1.5192  2.1057
  607MOL0     H80105  -3.126  10.667  11.337  1.2954  2.5863 -0.4717
  607MOL0     H80106  -2.211  10.447  10.794 -0.3875 -0.3509  1.2081
  607MOL0     H80107  -1.971  10.413  10.775  1.2286 -0.2045 -1.0817
  607MOL0     H80108  -1.576  10.706  10.947  0.6651  1.0115 -1.4191
  607MOL0     H80109  -1.340  10.711  10.973 -1.2346  0.0258  0.3983
  607MOL0     H80110   0.664  10.213  10.846  2.0277  0.4464 -0.4930
  607MOL0     H80111   0.909  10.171  10.932 -1.2906 -2.3881 -0.2812
  607MOL0     H80112   1.137  10.070  11.347  0.4820 -2.7616 -2.4257
  607MOL0     H80113   1.340  10.076  11.490  3.9913  0.8451 -0.2488
  607MOL0     H80114   1.731  10.281  11.428 -2.8716  0.4822  1.1527
  607MOL0     H80115   1.721  10.160  11.302 -0.1952 -0.3218  0.3641
  607MOL0     H80116   1.802  10.143  11.592  1.3107  0.0896 -0.1580
  607MOL0     H80117   1.765   9.995  11.508 -0.8691  0.0550 -2.1869
  607MOL0     H80118   1.972  10.193  11.417  2.1007 -0.9346  1.9179
  607MOL0     H80119   1.915  10.054  11.319 -1.4186 -1.0444  0.7594
  607MOL0     H80120   2.148  10.039  11.444  1.9989 -1.7101  3.4365
  607MOL0     H80121   2.046  10.051  11.597 -1.8383 -1.1969  0.3234
  607MOL0     H80122   1.981   9.661  11.480 -1.4247  0.3022 -2.6148
  607MOL0     H80123   1.563  10.302  11.212 -0.0618 -0.6050 -0.5087
  607MOL0     H80124   1.343  10.354  11.082 -4.4150 -2.3170 -0.9234
  608MOL0     O80125   0.498   3.442   7.326 -0.1023 -0.1593 -0.2973
  608MOL0     C80126   0.508   3.411   7.443  0.1664 -0.8217 -0.5670
  608MOL0     O80127   0.401   3.362   7.515 -0.0015  0.4054 -0.2846
  608MOL0     C80128   0.281   3.319   7.460 -0.2554  0.3410 -0.0447
  608MOL0     C80129   0.189   3.419   7.415 -0.2249  0.3629 -0.3781
  608MOL0     C80130   0.065   3.378   7.367  0.4500  0.7731  0.0832
  608MOL0     C80131   0.017   3.245   7.379 -0.0724 -0.0182 -0.0291
  608MOL0     O80132  -0.101   3.221   7.316 -0.4490  0.2477 -0.6449
  608MOL0     C80133  -0.156   3.085   7.323  0.3580 -0.4632 -0.1593
  608MOL0     C80134  -0.287   3.071   7.246  0.0472  0.5635  0.6524
  608MOL0     C80135  -0.415   3.126   7.322  0.2376 -0.4407 -0.2615
  608MOL0     C80136  -0.542   3.077   7.249 -0.2256  0.1759 -0.0200
  608MOL0     C80137  -0.678   3.125   7.313  0.0261  0.2320  0.2455
  608MOL0     C80138  -0.692   3.054   7.445 -0.6564  0.4549  0.3804
  608MOL0     C80139  -0.819   3.076   7.520  0.2224 -1.0565  0.7553
  608MOL0     C80140  -0.822   3.008   7.657  0.3853 -0.4906 -0.0409
  608MOL0     N80141  -0.947   3.033   7.728  0.3626  0.6212  0.0015
  608MOL0     C80142  -0.975   3.135   7.821 -0.2217 -0.5152  0.0523
  608MOL0     C80143  -1.072   3.085   7.901  0.5698 -0.2966  0.2214
  608MOL0     C80144  -1.144   3.151   8.021 -0.5615 -0.3798  0.2331
  608MOL0     C80145  -1.251   3.245   7.972  0.3214 -0.5248  0.5054
  608MOL0     C80146  -1.380   3.175   7.924 -0.0315 -0.1440 -0.1928
  608MOL0     C80147  -1.386   3.086   7.803 -0.4032 -0.0195  0.7668
  608MOL0     O80148  -1.516   3.062   7.750 -0.2507  0.1491 -0.1275
  608MOL0     C80149  -1.530   3.003   7.623 -0.7770 -1.4334 -0.0101
  608MOL0     C80150  -1.418   2.948   7.548 -0.0504  0.1539 -0.7488
  608MOL0     C80151  -1.444   2.891   7.425 -0.3016  0.4258 -0.2087
  608MOL0     C80152  -1.574   2.900   7.368  0.4552  0.6642  0.6427
  608MOL0     C80153  -1.598   2.846   7.238 -1.0906 -0.1039  0.6219
  608MOL0     O80154  -1.718   2.867   7.172 -0.2088 -0.2107 -0.6640
  608MOL0     C80155  -1.723   2.826   7.038  0.5943 -0.0343 -0.2104
  608MOL0     C80156  -1.755   2.914   6.933 -0.2590  0.1391 -0.4231
  608MOL0     C80157  -1.783   2.859   6.803 -0.4210 -0.4826  0.0227
  608MOL0     C80158  -1.771   2.720   6.775 -0.7291 -0.2623  1.2274
  608MOL0     O80159  -1.811   2.691   6.651 -0.1922 -0.2777  0.1770
  608MOL0     C80160  -1.796   2.560   6.594  0.6250 -0.2188  0.6140
  608MOL0     C80161  -1.827   2.565   6.446 -0.1097 -0.1835  0.2495
  608MOL0     C80162  -1.969   2.616   6.414 -1.0284 -0.1858  0.3105
  608MOL0     C80163  -2.068   2.501   6.390 -0.3376 -0.4893  1.0558
  608MOL0     C80164  -2.215   2.544   6.393  0.2585 -0.8437  0.1952
  608MOL0     C80165  -2.272   2.550   6.538  0.4751  0.2759  0.3407
  608MOL0     C80166  -2.428   2.530   6.545 -0.7354  0.0060 -0.7050
  608MOL0     C80167  -2.486   2.572   6.675  0.1419 -0.2624 -0.2964
  608MOL0    Cl80168  -2.473   2.749   6.693 -0.0808  0.2122  0.5730
  608MOL0     C80169  -1.734   2.637   6.873  0.7633  0.7027 -0.2221
  608MOL0     C80170  -1.703   2.694   6.998 -0.6384 -0.5571  0.0430
  608MOL0     O80171  -1.493   2.802   7.187  0.3982 -0.2636  0.4657
  608MOL0     C80172  -1.680   2.954   7.445 -0.2389  0.6938 -0.1466
  608MOL0     C80173  -1.655   3.002   7.571 -0.6063  0.3650  0.5865
  608MOL0     N80174  -1.101   2.962   7.850  0.8627 -0.1643 -0.2648
  608MOL0     N80175  -1.034   2.927   7.748  0.3288 -0.4816 -0.0670
  608MOL0     C80176   0.108   3.152   7.433 -0.2458  0.3250  0.1481
  608MOL0     C80177   0.236   3.182   7.468  0.0425 -0.7655 -0.8415
  608MOL0     C80178   0.633   3.436   7.510 -0.5742 -0.2143 -1.0986
  608MOL0     C80179   0.757   3.457   7.441 -0.1262 -0.0228 -0.1733
  608MOL0     C80180   0.883   3.456   7.501 -0.7380 -0.5350 -0.0390
  608MOL0     C80181   0.889   3.457   7.643  0.0407 -0.7543  0.0513
  608MOL0     O80182   1.005   3.474   7.713 -0.6353 -0.6773  0.2878
  608MOL0     C80183   1.120   3.510   7.638  0.2057  0.5213 -0.3597
  608MOL0     C80184   1.246   3.530   7.718 -0.6962  0.1075  0.1036
  608MOL0     C80185   1.316   3.395   7.744 -0.7359  0.0162  0.1767
  608MOL0     C80186   1.453   3.425   7.799 -0.9446 -0.0481 -0.3423
  608MOL0     C80187   1.526   3.302   7.765  0.2814 -0.0243 -0.2808
  608MOL0     C80188   1.588   3.206   7.746  0.5511  0.0723  0.3513
  608MOL0     C80189   0.771   3.439   7.714 -0.4333  0.3133  0.5731
  608MOL0     C80190   0.644   3.426   7.650  0.1655 -0.7663  0.5435
  608MOL0     H80191   0.211   3.525   7.420 -1.9366  0.7070  2.9130
  608MOL0     H80192  -0.014   3.450   7.349 -1.1948 -1.3182 -1.5038
  608MOL0     H80193  -0.162   3.059   7.429  0.8359  1.6516  0.4387
  608MOL0     H80194  -0.090   3.012   7.276 -0.7478 -2.0972  0.7372
  608MOL0     H80195  -0.303   2.964   7.232  1.5729  0.2476  1.0825
  608MOL0     H80196  -0.270   3.119   7.149  0.2704 -2.2080 -0.7705
  608MOL0     H80197  -0.410   3.234   7.335 -0.8856 -0.1349 -2.0887
  608MOL0     H80198  -0.395   3.079   7.419 -2.3445 -3.9484 -1.2126
  608MOL0     H80199  -0.542   3.130   7.154 -4.4885 -0.3160 -0.5164
  608MOL0     H80200  -0.545   2.970   7.229 -1.7318  0.3149 -0.6305
  608MOL0     H80201  -0.760   3.098   7.246  0.6852  0.2703 -0.5967
  608MOL0     H80202  -0.678   3.233   7.331  1.1555  0.0346  1.5657
  608MOL0     H80203  -0.615   3.089   7.514 -1.0753  1.7450  0.2299
  608MOL0     H80204  -0.698   2.947   7.424  0.1459  0.5724 -0.5056
  608MOL0     H80205  -0.834   3.183   7.538  0.9124 -0.4319 -1.9341
  608MOL0     H80206  -0.899   3.034   7.458  1.4578  1.3745 -2.8168
  608MOL0     H80207  -0.742   3.057   7.714  0.1450  1.2853 -1.1353
  608MOL0     H80208  -0.797   2.902   7.660  2.3320 -0.0878 -0.5256
  608MOL0     H80209  -0.918   3.226   7.832  2.4910 -2.2531  1.5742
  608MOL0     H80210  -1.073   3.204   8.085  1.4571 -0.1146 -2.0570
  608MOL0     H80211  -1.184   3.076   8.089 -0.0061  1.2067  2.4301
  608MOL0     H80212  -1.204   3.307   7.895  1.4519 -1.7839  0.1471
  608MOL0     H80213  -1.283   3.313   8.052 -0.7449  2.2388 -2.0907
  608MOL0     H80214  -1.434   3.126   8.005  2.2528 -1.3843  0.6865
  608MOL0     H80215  -1.442   3.259   7.891 -0.7395 -1.8489 -3.6601
  608MOL0     H80216  -1.351   2.987   7.833 -2.1793 -1.0811 -0.4773
  608MOL0     H80217  -1.323   3.131   7.725 -0.6308 -0.4327  0.3352
  608MOL0     H80218  -1.322   2.937   7.597 -0.2601  1.9653  0.1166
  608MOL0     H80219  -1.364   2.836   7.377  1.5901  2.5160  0.3610
  608MOL0     H80220  -1.781   3.018   6.951  1.5272  0.5603 -0.1482
  608MOL0     H80221  -1.812   2.920   6.718  3.4439  1.6569  0.0026
  608MOL0     H80222  -1.866   2.490   6.642  0.8245  0.8004  2.4832
  608MOL0     H80223  -1.695   2.520   6.609  0.2662 -1.6164 -0.4504
  608MOL0     H80224  -1.810   2.464   6.408 -0.4317 -0.4697  0.8400
  608MOL0     H80225  -1.746   2.620   6.397  1.7553 -0.3397  2.8870
  608MOL0     H80226  -1.958   2.684   6.330  1.0532  0.8938  1.3810
  608MOL0     H80227  -2.015   2.664   6.501 -0.5571  0.2927  0.2960
  608MOL0     H80228  -2.060   2.467   6.287 -1.4580  1.1092  0.3981
  608MOL0     H80229  -2.058   2.421   6.464  1.9454 -0.3940  0.9260
  608MOL0     H80230  -2.271   2.474   6.330 -0.4503  0.8721 -1.1672
  608MOL0     H80231  -2.220   2.646   6.354  0.6573  0.9405  4.2434
  608MOL0     H80232  -2.257   2.647   6.586  0.5771  0.1769  0.5076
  608MOL0     H80233  -2.211   2.484   6.599  0.5837  0.0775  0.0214
  608MOL0     H80234  -2.472   2.596   6.470  2.8213  1.1069 -2.0503
  608MOL0     H80235  -2.462   2.426   6.540 -2.0204  0.3027  1.0405
  608MOL0     H80236  -2.449   2.514   6.760 -2.3712 -0.5744  0.6753
  608MOL0     H80237  -2.593   2.552   6.671 -0.1537  0.9789  0.7040
  608MOL0     H80238  -1.726   2.530   6.855  0.0896  0.7074 -0.5848
  608MOL0     H80239  -1.666   2.629   7.077  2.3940 -2.6037 -2.7525
  608MOL0     H80240  -1.780   2.959   7.405 -1.4142  3.3941  2.7045
  608MOL0     H80241  -1.748   3.040   7.613 -0.5621  0.3793  0.6692
  608MOL0     H80242   0.072   3.050   7.444  0.1117 -0.1903 -2.7467
  608MOL0     H80243   0.304   3.114   7.518  1.3614  1.9185  1.2026
  608MOL0     H80244   0.755   3.462   7.333 -0.7812  0.4994 -0.1437
  608MOL0     H80245   0.972   3.451   7.439 -1.0168  2.9785 -0.9743
  608MOL0     H80246   1.089   3.603   7.589 -2.3447  0.2716  0.6183
  608MOL0     H80247   1.140   3.431   7.566 -0.4030  0.1953 -0.1814
  608MOL0     H80248   1.302   3.599   7.655  0.1775  0.1277  0.8883
  608MOL0     H80249   1.215   3.573   7.814 -1.6836 -0.0484 -0.1334
  608MOL0     H80250   1.316   3.325   7.660 -2.7303 -0.0299  0.1700
  608MOL0     H80251   1.269   3.324   7.814  1.3959 -1.7953 -0.1105
  608MOL0     H80252   1.493   3.509   7.741 -1.5766  0.4288 -0.0947
  608MOL0     H80253   1.449   3.433   7.908  3.8991 -1.0560  0.1603
  608MOL0     H80254   1.653   3.121   7.739 -0.6330 -0.9096  0.8898
  608MOL0     H80255   0.802   3.427   7.817  2.2801 -3.2664 -0.4511
  608MOL0     H80256   0.551   3.412   7.706 -0.2329  0.9917  0.3825
  609MOL0     O80257   8.285   8.679   7.431 -0.7678 -0.1437 -0.6229
  609MOL0     C80258   8.330   8.797   7.439 -0.3560 -0.3440 -0.4051
  609MOL0     O80259   8.258   8.909   7.426 -0.1641 -0.1395  0.0925
  609MOL0     C80260   8.146   8.915   7.354 -0.0784 -0.4075 -0.8998
  609MOL0     C80261   8.083   8.816   7.262 -0.6066  0.5667 -0.3872
  609MOL0     C80262   7.963   8.840   7.188  0.1208 -0.3234  0.2419
  609MOL0     C80263   7.898   8.961   7.207 -0.3367 -0.4392 -0.2703
  609MOL0     O80264   7.777   8.979   7.138 -0.4479 -0.1163  0.0470
  609MOL0     C80265   7.695   9.083   7.186 -0.1634 -0.2862  0.2056
  609MOL0     C80266   7.641   9.063   7.331  0.0063  0.5535  0.8433
  609MOL0     C80267   7.489   9.037   7.337 -0.9990 -0.4754 -0.8693
  609MOL0     C80268   7.433   8.992   7.475 -0.6664 -0.0003  0.1100
  609MOL0     C80269   7.301   8.931   7.481  1.0225  0.6302  0.4330
  609MOL0     C80270   7.272   8.899   7.626  0.1938  0.4358  0.1646
  609MOL0     C80271   7.247   9.024   7.714 -0.2076  0.2027  0.1615
  609MOL0     C80272   7.200   8.971   7.855 -0.6421  0.1261 -0.1668
  609MOL0     N80273   7.084   8.873   7.859 -0.6159 -0.6810 -0.4246
  609MOL0     C80274   6.952   8.908   7.887 -0.0435  0.6108 -1.0921
  609MOL0     C80275   6.895   8.783   7.890  0.5106 -0.1377 -0.0293
  609MOL0     C80276   6.749   8.750   7.895  0.5015  0.4122 -1.2534
  609MOL0     C80277   6.681   8.734   7.760  0.5210 -0.1705 -0.2847
  609MOL0     C80278   6.681   8.861   7.675 -0.4762 -0.1792  0.1799
  609MOL0     C80279   6.651   8.821   7.528 -0.4397  0.5606  0.3797
  609MOL0     O80280   6.541   8.725   7.497 -0.3446  0.6825  0.4595
  609MOL0     C80281   6.411   8.767   7.499 -0.4586  0.3255 -0.1688
  609MOL0     C80282   6.325   8.674   7.560 -0.0886 -0.1399  0.0580
  609MOL0     C80283   6.187   8.709   7.585 -0.6611  0.1404 -0.1520
  609MOL0     C80284   6.132   8.830   7.539 -0.3077 -0.0534 -0.1163
  609MOL0     C80285   5.994   8.868   7.528 -0.7076  0.7849 -0.3771
  609MOL0     O80286   5.954   8.996   7.505 -0.4637 -0.0093  0.0709
  609MOL0     C80287   5.823   9.027   7.532 -0.2660 -0.2570  0.3212
  609MOL0     C80288   5.730   9.032   7.436 -0.2825 -0.1339 -0.0210
  609MOL0     C80289   5.601   9.067   7.458 -0.1118 -0.0122 -0.4291
  609MOL0     C80290   5.549   9.081   7.584 -0.4355  0.0062 -0.4756
  609MOL0     O80291   5.417   9.102   7.605 -0.2331 -0.4256  0.1624
  609MOL0     C80292   5.348   8.977   7.635  0.0523 -0.0696  0.7860
  609MOL0     C80293   5.210   9.017   7.699 -0.1994  0.6107  0.1680
  609MOL0     C80294   5.103   9.061   7.605  0.7466 -0.5107  0.4129
  609MOL0     C80295   4.964   9.095   7.671 -0.0280  0.0912 -0.7903
  609MOL0     C80296   4.868   9.150   7.559  0.5102  0.1310 -0.1868
  609MOL0     C80297   4.730   9.187   7.596  0.7859 -0.3439  0.0031
  609MOL0     C80298   4.651   9.244   7.481  0.0501 -0.4471 -0.5772
  609MOL0     C80299   4.504   9.280   7.512  0.1272  0.2451  0.3407
  609MOL0    Cl80300   4.410   9.136   7.575  0.3492 -0.5773  0.5543
  609MOL0     C80301   5.640   9.074   7.689  0.8354  0.3372 -0.6771
  609MOL0     C80302   5.774   9.045   7.668 -0.7982  0.5623  0.0698
  609MOL0     O80303   5.913   8.774   7.544 -0.0658  0.0475  0.0483
  609MOL0     C80304   6.224   8.916   7.476 -0.1580  0.3636  0.4009
  609MOL0     C80305   6.364   8.891   7.474  0.0791 -1.1059  0.0841
  609MOL0     N80306   6.993   8.683   7.882  0.0811  0.2257  1.0629
  609MOL0     N80307   7.112   8.736   7.874 -0.0691 -1.1963  0.5693
  609MOL0     C80308   7.954   9.051   7.303  0.2594  0.6942  0.0493
  609MOL0     C80309   8.077   9.037   7.366 -0.9994  0.6326 -0.3196
  609MOL0     C80310   8.474   8.808   7.462  1.0248 -0.4665  0.9282
  609MOL0     C80311   8.540   8.927   7.443 -0.5973  0.5930  0.1652
  609MOL0     C80312   8.677   8.932   7.493 -0.6778 -0.9432  0.0436
  609MOL0     C80313   8.754   8.827   7.533  0.1652  0.4369 -0.3422
  609MOL0     O80314   8.889   8.835   7.573  0.0431 -0.4653 -0.3342
  609MOL0     C80315   8.942   8.958   7.620  1.9955  0.2398  0.4536
  609MOL0     C80316   9.036   9.038   7.536 -0.3978 -0.4411  0.0182
  609MOL0     C80317   9.163   8.955   7.498  0.7241 -0.7400  0.1321
  609MOL0     C80318   9.251   9.031   7.399 -0.3996 -0.9000 -1.3317
  609MOL0     C80319   9.190   9.031   7.271  0.5141 -0.3016  0.4977
  609MOL0     C80320   9.148   9.007   7.160 -0.9217 -0.0943 -0.8182
  609MOL0     C80321   8.687   8.696   7.540 -0.1759  0.0003  0.7646
  609MOL0     C80322   8.551   8.692   7.501  0.1089  0.5072  0.6863
  609MOL0     H80323   8.115   8.713   7.251 -3.5146 -0.5836  1.0062
  609MOL0     H80324   7.912   8.758   7.137  0.4904 -1.5267  1.7493
  609MOL0     H80325   7.613   9.077   7.113  1.6067 -4.7844 -1.7861
  609MOL0     H80326   7.742   9.179   7.163  2.3786 -0.7997  2.6700
  609MOL0     H80327   7.669   9.148   7.394 -2.2197  1.6747  0.3981
  609MOL0     H80328   7.706   8.986   7.376  2.5538  0.9511 -1.8262
  609MOL0     H80329   7.451   8.969   7.260 -1.0016  0.4207 -1.6770
  609MOL0     H80330   7.441   9.132   7.314 -4.9708 -2.1771 -0.3955
  609MOL0     H80331   7.510   8.923   7.512  1.6900  2.0056 -0.8196
  609MOL0     H80332   7.441   9.077   7.542  2.1542 -2.7616  3.7258
  609MOL0     H80333   7.293   8.838   7.424  4.3356 -0.0170  0.8191
  609MOL0     H80334   7.223   8.996   7.441 -1.8982 -1.2092  2.7374
  609MOL0     H80335   7.357   8.846   7.671  0.6618  1.3514  0.3719
  609MOL0     H80336   7.184   8.833   7.627 -0.4244  1.2340 -0.4540
  609MOL0     H80337   7.345   9.070   7.730  1.1036 -1.8516 -1.4622
  609MOL0     H80338   7.183   9.099   7.667  0.4039  1.5613  1.4334
  609MOL0     H80339   7.175   9.057   7.918 -0.7518 -1.3216  1.8554
  609MOL0     H80340   7.280   8.918   7.908 -0.8033  1.9348  2.0595
  609MOL0     H80341   6.903   9.004   7.900 -0.9944 -0.0352  0.3470
  609MOL0     H80342   6.683   8.829   7.934  0.1680 -0.3498 -0.2283
  609MOL0     H80343   6.729   8.666   7.963 -2.5070  3.1816  1.6657
  609MOL0     H80344   6.579   8.706   7.786  0.1466  1.8913  0.7093
  609MOL0     H80345   6.732   8.660   7.698  2.6461  2.5223 -2.0257
  609MOL0     H80346   6.617   8.947   7.699  0.2710  0.8095 -1.2545
  609MOL0     H80347   6.777   8.913   7.674 -1.3933  1.6348  0.1724
  609MOL0     H80348   6.740   8.773   7.488 -0.7135 -0.1374  0.5859
  609MOL0     H80349   6.635   8.910   7.467  0.3318  0.3291 -0.1672
  609MOL0     H80350   6.366   8.573   7.565 -0.5358 -0.5485 -2.7199
  609MOL0     H80351   6.129   8.626   7.625  3.4041 -1.6022  2.8139
  609MOL0     H80352   5.775   9.031   7.337  1.1747  1.8479  0.5540
  609MOL0     H80353   5.527   9.085   7.381  1.7132  0.5898 -2.1094
  609MOL0     H80354   5.420   8.932   7.704  0.6620 -0.3555 -0.0184
  609MOL0     H80355   5.339   8.908   7.550  2.0209  2.0084 -1.2600
  609MOL0     H80356   5.220   9.099   7.769 -1.6275  0.3466  0.7227
  609MOL0     H80357   5.167   8.930   7.750  0.7218  0.4618  0.7009
  609MOL0     H80358   5.081   8.980   7.534  1.8030 -0.1447 -0.3491
  609MOL0     H80359   5.146   9.149   7.558 -1.4265  0.0749 -0.5993
  609MOL0     H80360   4.906   9.009   7.705 -1.4338  1.6508  0.9449
  609MOL0     H80361   4.984   9.165   7.753 -1.2418 -0.3714 -0.0758
  609MOL0     H80362   4.861   9.088   7.470  4.0926  1.0273 -1.2764
  609MOL0     H80363   4.913   9.242   7.519  1.1922 -0.2401 -0.2828
  609MOL0     H80364   4.733   9.261   7.676 -1.7332  0.6406 -0.7362
  609MOL0     H80365   4.673   9.103   7.636 -1.8074  1.0804 -0.4763
  609MOL0     H80366   4.695   9.339   7.447 -3.3316  1.1552 -0.9101
  609MOL0     H80367   4.664   9.170   7.401 -0.4396  1.0102 -2.0859
  609MOL0     H80368   4.458   9.313   7.418 -1.1634 -3.4940 -0.5278
  609MOL0     H80369   4.510   9.364   7.581 -1.9809  1.1058 -0.4209
  609MOL0     H80370   5.607   9.074   7.793  2.2769 -2.0585 -0.1316
  609MOL0     H80371   5.843   9.047   7.752 -0.4809 -0.8131 -0.1280
  609MOL0     H80372   6.189   9.008   7.430  0.2044  1.0655  1.4913
  609MOL0     H80373   6.425   8.961   7.418 -1.3297  0.4888  0.4628
  609MOL0     H80374   7.906   9.148   7.311 -1.5790 -0.2685  2.0740
  609MOL0     H80375   8.134   9.118   7.410  2.6915 -1.0451 -1.5846
  609MOL0     H80376   8.498   9.019   7.404  1.4104  1.6409  0.3649
  609MOL0     H80377   8.714   9.032   7.473 -3.0126 -0.3022 -1.5617
  609MOL0     H80378   8.998   8.943   7.713  0.8811 -2.0471  0.8416
  609MOL0     H80379   8.856   9.011   7.663 -0.4237 -2.4198 -0.7151
  609MOL0     H80380   8.984   9.078   7.448  2.1798 -1.4397 -2.0771
  609MOL0     H80381   9.065   9.131   7.586  0.8674 -0.5905 -0.4073
  609MOL0     H80382   9.141   8.858   7.453 -0.9773 -0.2886 -0.0850
  609MOL0     H80383   9.215   8.928   7.591 -1.1644 -0.2225  1.3983
  609MOL0     H80384   9.268   9.137   7.423  2.0703 -1.4839 -0.1126
  609MOL0     H80385   9.353   8.991   7.406 -0.1936 -0.1031  1.1997
  609MOL0     H80386   9.104   8.968   7.070 -0.8249 -1.2569 -0.3826
  609MOL0     H80387   8.745   8.608   7.567  4.5995  3.0284  1.7226
  609MOL0     H80388   8.518   8.589   7.493 -3.3187  1.5970 -2.4589
  610MOL0     O80389   6.033   0.709   6.271  0.2984 -0.1608  0.5570
  610MOL0     C80390   6.123   0.679   6.190  0.1106 -0.3878 -0.1201
  610MOL0     O80391   6.095   0.630   6.063  0.0696  0.3314  0.3151
  610MOL0     C80392   5.968   0.598   6.023  0.6197  0.1372  0.5399
  610MOL0     C80393   5.929   0.653   5.906 -0.4337 -0.2691  0.6181
  610MOL0     C80394   5.793   0.636   5.856 -0.3534  0.2868 -0.0930
  610MOL0     C80395   5.705   0.544   5.920  0.1760 -0.2943 -0.0064
  610MOL0     O80396   5.568   0.543   5.881  0.2590  0.7916  0.0111
  610MOL0     C80397   5.470   0.564   5.980 -0.0225  1.2422 -0.2967
  610MOL0     C80398   5.328   0.583   5.924 -0.5917 -0.0246  0.2588
  610MOL0     C80399   5.229   0.622   6.031 -0.3485  0.4906  0.9252
  610MOL0     C80400   5.093   0.620   5.957 -0.2209 -0.9571 -0.5628
  610MOL0     C80401   4.970   0.642   6.047  0.2429 -0.2630 -0.4195
  610MOL0     C80402   4.944   0.797   6.077 -0.6707  0.0696 -0.2140
  610MOL0     C80403   4.845   0.841   6.189 -0.1614 -0.2268 -0.9362
  610MOL0     C80404   4.712   0.873   6.129 -0.1148  0.7262  0.5027
  610MOL0     N80405   4.724   1.005   6.050  0.3700  0.6974  0.1125
  610MOL0     C80406   4.709   1.134   6.088 -0.5860  0.3403 -0.6940
  610MOL0     C80407   4.685   1.207   5.974 -0.1455 -0.2587 -0.2709
  610MOL0     C80408   4.662   1.354   5.967  0.1046  0.0057 -0.2403
  610MOL0     C80409   4.526   1.396   5.901  0.6588  0.5974  0.1611
  610MOL0     C80410   4.413   1.350   5.991 -0.6767 -0.5087  0.1608
  610MOL0     C80411   4.286   1.343   5.915 -0.1191 -0.0741  0.2983
  610MOL0     O80412   4.177   1.292   5.995 -0.6200  0.0596  0.3217
  610MOL0     C80413   4.050   1.312   5.952  0.3410  0.1586 -0.6570
  610MOL0     C80414   4.010   1.395   5.844  0.4128 -0.0316 -0.4091
  610MOL0     C80415   3.870   1.433   5.824 -0.8982  0.5866  0.4106
  610MOL0     C80416   3.776   1.391   5.917 -0.2316  0.0725 -0.1782
  610MOL0     C80417   3.651   1.458   5.912 -0.7484  0.0200  0.1735
  610MOL0     O80418   3.609   1.525   5.800 -0.0069 -0.7192 -0.6351
  610MOL0     C80419   3.484   1.575   5.811  0.0579  0.0268  0.5183
  610MOL0     C80420   3.376   1.512   5.743 -0.2151  0.2851  0.1006
  610MOL0     C80421   3.246   1.559   5.763  0.4248  0.5011  0.4738
  610MOL0     C80422   3.212   1.677   5.836  0.3480 -0.0253  0.1936
  610MOL0     O80423   3.081   1.722   5.862  0.4538  0.2667 -0.3514
  610MOL0     C80424   2.969   1.637   5.801  0.7682 -0.2069  0.1200
  610MOL0     C80425   2.924   1.674   5.656 -0.8165 -0.4547 -0.0630
  610MOL0     C80426   2.782   1.619   5.626  0.1319 -0.1836  0.5621
  610MOL0     C80427   2.712   1.712   5.524 -0.1037 -0.3928 -0.1973
  610MOL0     C80428   2.579   1.645   5.493  1.0433  1.0881  0.4068
  610MOL0     C80429   2.477   1.748   5.431 -0.0747  0.0886 -0.0507
  610MOL0     C80430   2.344   1.670   5.401  0.6645  0.6479  0.0584
  610MOL0     C80431   2.351   1.590   5.275  0.2126 -0.4023  0.4385
  610MOL0    Cl80432   2.291   1.699   5.145  0.2481  0.2829 -0.1351
  610MOL0     C80433   3.317   1.727   5.905  0.1629  0.5643 -0.0730
  610MOL0     C80434   3.451   1.685   5.888 -0.5696 -0.0065  0.7067
  610MOL0     O80435   3.589   1.445   6.015 -0.2474 -0.2326  0.1721
  610MOL0     C80436   3.816   1.287   6.012 -0.2064  0.5998 -0.0471
  610MOL0     C80437   3.948   1.264   6.032 -0.0545 -0.5828  0.2238
  610MOL0     N80438   4.702   1.117   5.873 -0.0608 -0.4662  0.6482
  610MOL0     N80439   4.727   1.001   5.922 -0.1352 -0.4175  0.5166
  610MOL0     C80440   5.752   0.488   6.042 -0.2772  0.3349  0.1230
  610MOL0     C80441   5.880   0.508   6.097 -1.5130  0.5667  0.5343
  610MOL0     C80442   6.259   0.730   6.221 -0.3059 -0.9300 -0.0207
  610MOL0     C80443   6.356   0.720   6.112 -0.9373  0.4597 -0.5280
  610MOL0     C80444   6.485   0.771   6.141 -0.0440 -0.8068  0.0167
  610MOL0     C80445   6.517   0.826   6.265  0.3030  0.8891  0.1729
  610MOL0     O80446   6.635   0.888   6.276 -0.1139 -0.4381  0.2798
  610MOL0     C80447   6.630   1.030   6.273 -0.0794  0.9087  0.3146
  610MOL0     C80448   6.770   1.087   6.280 -0.2855  0.1411 -0.7058
  610MOL0     C80449   6.870   1.009   6.368 -0.3604 -0.4547 -0.2130
  610MOL0     C80450   7.011   1.057   6.359  0.0386  0.0339  0.0050
  610MOL0     C80451   7.014   1.201   6.381 -0.1064  0.2545  0.0164
  610MOL0     C80452   7.046   1.317   6.395  0.8265  1.0667 -0.4647
  610MOL0     C80453   6.420   0.833   6.367 -0.0591  0.7311 -0.7602
  610MOL0     C80454   6.292   0.792   6.348  1.2099  0.0671  0.5410
  610MOL0     H80455   5.992   0.732   5.867 -0.0080 -2.0230 -2.5841
  610MOL0     H80456   5.754   0.697   5.776 -0.6921 -1.3036 -1.1857
  610MOL0     H80457   5.496   0.651   6.042  1.0681  0.0938  0.8983
  610MOL0     H80458   5.462   0.480   6.049  0.5222  3.0678  2.1461
  610MOL0     H80459   5.293   0.491   5.876 -0.7509  0.7511 -1.1889
  610MOL0     H80460   5.328   0.663   5.849 -0.1868 -2.0055 -2.0045
  610MOL0     H80461   5.247   0.725   6.061 -5.6091  1.2556  2.5669
  610MOL0     H80462   5.230   0.560   6.122  0.2414 -0.7612  0.0842
  610MOL0     H80463   5.092   0.698   5.880 -3.1387 -0.5653 -0.2548
  610MOL0     H80464   5.081   0.521   5.912  0.7945 -2.4486  2.2280
  610MOL0     H80465   4.989   0.582   6.136  4.4003  3.4606  1.6010
  610MOL0     H80466   4.883   0.601   5.994 -1.7382  0.7364  1.8971
  610MOL0     H80467   4.931   0.846   5.979 -0.9602 -0.1853 -0.3038
  610MOL0     H80468   5.044   0.833   6.105 -0.6867  1.0633 -1.3109
  610MOL0     H80469   4.825   0.760   6.261 -0.7565  1.3339  0.7166
  610MOL0     H80470   4.882   0.929   6.242 -2.3633  0.4854 -0.4816
  610MOL0     H80471   4.622   0.881   6.191 -0.8349 -3.4341  0.2987
  610MOL0     H80472   4.683   0.788   6.067  1.0765 -1.8436  3.1950
  610MOL0     H80473   4.701   1.165   6.192 -2.4988 -1.5746 -0.1988
  610MOL0     H80474   4.737   1.414   5.915 -0.0881  2.1372  1.7296
  610MOL0     H80475   4.667   1.375   6.075 -1.4866 -3.2160  0.5594
  610MOL0     H80476   4.508   1.348   5.805 -3.2037  2.1971 -0.1291
  610MOL0     H80477   4.511   1.504   5.887  0.0633  1.0915  3.5586
  610MOL0     H80478   4.432   1.257   6.046 -0.8544 -0.6684 -0.0487
  610MOL0     H80479   4.402   1.433   6.061 -1.0636  1.2124 -1.8568
  610MOL0     H80480   4.299   1.270   5.835  1.8490  0.2997  0.2215
  610MOL0     H80481   4.244   1.439   5.882 -2.6126 -1.7155 -1.6761
  610MOL0     H80482   4.080   1.435   5.772  2.7983 -2.6206  0.2994
  610MOL0     H80483   3.842   1.493   5.738 -0.8962  0.3590  0.2469
  610MOL0     H80484   3.390   1.417   5.692  2.7181  0.9872 -0.5600
  610MOL0     H80485   3.169   1.498   5.718  0.7519 -1.8072  2.8299
  610MOL0     H80486   2.883   1.657   5.866 -0.1081 -3.1319 -0.0027
  610MOL0     H80487   2.990   1.530   5.810 -0.4671 -0.5069 -0.4321
  610MOL0     H80488   2.990   1.627   5.584 -1.0834 -1.1708  0.1556
  610MOL0     H80489   2.935   1.783   5.647  1.4861 -0.7153 -0.9274
  610MOL0     H80490   2.721   1.626   5.717 -2.5973  0.7991 -1.2158
  610MOL0     H80491   2.787   1.514   5.596  2.6473  0.3530 -1.2759
  610MOL0     H80492   2.694   1.811   5.566 -1.3678 -0.2938 -0.9264
  610MOL0     H80493   2.771   1.732   5.434  0.4524 -0.0189  0.2436
  610MOL0     H80494   2.530   1.606   5.582  0.0695  1.6154  0.1220
  610MOL0     H80495   2.607   1.560   5.430  0.0829  1.1643 -0.1491
  610MOL0     H80496   2.521   1.798   5.344  1.0594 -1.4292 -0.3867
  610MOL0     H80497   2.462   1.821   5.511 -1.5412 -0.8946  0.6017
  610MOL0     H80498   2.310   1.607   5.484  0.7487  3.4097  2.3320
  610MOL0     H80499   2.259   1.735   5.381 -0.7580 -2.2079 -4.8618
  610MOL0     H80500   2.286   1.502   5.274  0.4441 -0.6751 -2.9787
  610MOL0     H80501   2.454   1.556   5.261 -0.3612 -2.2223  0.3633
  610MOL0     H80502   3.291   1.822   5.949 -2.5684  1.5369 -3.3770
  610MOL0     H80503   3.526   1.745   5.940  0.3875  0.0054 -0.6505
  610MOL0     H80504   3.744   1.244   6.081  0.3689 -0.6740 -0.2022
  610MOL0     H80505   3.962   1.201   6.120  1.0875  0.6074  0.9278
  610MOL0     H80506   5.693   0.415   6.097 -1.8438 -0.6999 -2.7164
  610MOL0     H80507   5.925   0.454   6.180  2.1978 -1.6451 -2.5680
  610MOL0     H80508   6.341   0.682   6.011  1.1175 -2.1362  0.0504
  610MOL0     H80509   6.554   0.775   6.057  0.3298  0.1849  0.3642
  610MOL0     H80510   6.588   1.070   6.366  1.5453 -2.4855  2.6915
  610MOL0     H80511   6.578   1.084   6.193  1.7598  0.3831 -1.3283
  610MOL0     H80512   6.800   1.089   6.175 -0.4491  1.9649 -0.7503
  610MOL0     H80513   6.758   1.191   6.310 -0.3081  0.3056 -1.2896
  610MOL0     H80514   6.871   0.901   6.350 -2.6299 -0.5865  0.1586
  610MOL0     H80515   6.839   1.018   6.472 -1.5150  2.4235 -0.7233
  610MOL0     H80516   7.068   1.014   6.442 -1.6949 -0.2723  1.0991
  610MOL0     H80517   7.061   1.030   6.266  2.2849  1.1832  0.8050
  610MOL0     H80518   7.069   1.420   6.415  1.0719  1.0356 -0.5737
  610MOL0     H80519   6.458   0.865   6.464  1.2192  0.4243 -1.1397
  610MOL0     H80520   6.217   0.798   6.426 -0.2588 -2.9831 -0.4938
  611MOL0     O80521   5.945   1.028   7.243  0.2592 -0.1317 -0.0278
  611MOL0     C80522   6.000   0.998   7.138 -0.3597  0.1224 -0.2306
  611MOL0     O80523   5.928   0.943   7.025 -1.0508 -0.0803 -0.4742
  611MOL0     C80524   5.802   0.891   7.058 -0.4509 -0.1373 -1.0305
  611MOL0     C80525   5.773   0.795   7.160  0.5570 -0.2628 -0.6341
  611MOL0     C80526   5.643   0.734   7.172 -0.1462  0.4004 -0.2418
  611MOL0     C80527   5.543   0.766   7.089  0.2364 -0.3792 -0.3210
  611MOL0     O80528   5.417   0.709   7.106 -0.8970 -1.0908  1.0521
  611MOL0     C80529   5.313   0.746   7.012 -0.5854  0.2084  0.3284
  611MOL0     C80530   5.194   0.659   7.011 -0.2508 -0.2787  0.0541
  611MOL0     C80531   5.058   0.722   6.969 -0.2416 -0.3734  0.0106
  611MOL0     C80532   4.932   0.652   7.020  0.4845 -0.4203 -0.0307
  611MOL0     C80533   4.796   0.703   6.983  0.7295 -0.2853 -0.5600
  611MOL0     C80534   4.678   0.622   7.018  0.2456 -0.0850  0.5313
  611MOL0     C80535   4.544   0.697   6.978 -0.0068  0.0565  0.8174
  611MOL0     C80536   4.431   0.591   6.948 -0.7615  0.2040 -0.1952
  611MOL0     N80537   4.309   0.664   6.896 -0.7625 -0.4342  0.5618
  611MOL0     C80538   4.245   0.761   6.966  0.7873  0.4910 -0.4921
  611MOL0     C80539   4.155   0.805   6.872 -0.5644  0.0859  0.0280
  611MOL0     C80540   4.055   0.913   6.888 -0.0592  1.1747 -0.2479
  611MOL0     C80541   4.093   1.010   6.790 -0.8061 -0.8061  0.0108
  611MOL0     C80542   4.015   1.150   6.801  0.0062  0.1758  0.9476
  611MOL0     C80543   3.869   1.147   6.756  0.7077  0.3162 -0.5560
  611MOL0     O80544   3.790   1.077   6.862  0.0051  0.2261 -0.1582
  611MOL0     C80545   3.664   1.073   6.831  0.7587  0.4580 -0.4797
  611MOL0     C80546   3.579   0.990   6.913  0.1517 -0.1963 -0.3820
  611MOL0     C80547   3.443   0.966   6.886 -0.5142  0.7649  0.2256
  611MOL0     C80548   3.376   1.042   6.788 -0.0531  0.3506 -0.0632
  611MOL0     C80549   3.243   0.997   6.759 -0.0084  0.1075  0.3287
  611MOL0     O80550   3.181   0.901   6.834 -0.5315  0.4477  0.4101
  611MOL0     C80551   3.068   0.842   6.778 -1.2123 -0.2454  0.4432
  611MOL0     C80552   3.083   0.783   6.652  0.7736 -1.0590  0.3789
  611MOL0     C80553   2.978   0.716   6.597 -0.1711  0.0438 -0.1172
  611MOL0     C80554   2.859   0.698   6.669 -1.0297 -0.1941 -0.6569
  611MOL0     O80555   2.761   0.634   6.605 -0.8598 -0.5130 -0.2853
  611MOL0     C80556   2.645   0.613   6.686 -0.0950 -0.2792 -0.1001
  611MOL0     C80557   2.547   0.552   6.593  0.7614  1.0215  0.0562
  611MOL0     C80558   2.413   0.525   6.652  0.6163 -1.1598  0.5819
  611MOL0     C80559   2.323   0.475   6.541  0.7531 -0.2665 -0.2724
  611MOL0     C80560   2.173   0.444   6.582 -0.7008 -0.6552 -0.6352
  611MOL0     C80561   2.091   0.395   6.465  0.1165  0.1669 -0.4078
  611MOL0     C80562   1.939   0.379   6.492 -0.0973 -0.1395  0.1089
  611MOL0     C80563   1.916   0.246   6.568 -0.3624  0.0868 -0.7918
  611MOL0    Cl80564   1.740   0.217   6.551  0.1617  0.1813  0.1051
  611MOL0     C80565   2.847   0.760   6.801  0.0302  0.0030  0.0399
  611MOL0     C80566   2.948   0.833   6.848  0.7539 -0.0052 -0.4441
  611MOL0     O80567   3.199   1.056   6.663  0.0201 -0.0254  0.1715
  611MOL0     C80568   3.448   1.134   6.714 -0.4354  0.3742  0.2909
  611MOL0     C80569   3.590   1.147   6.736 -1.0206 -0.5077 -0.4396
  611MOL0     N80570   4.166   0.732   6.753  0.1742  0.0732  0.3717
  611MOL0     N80571   4.258   0.648   6.765  0.9466  0.6053 -0.8472
  611MOL0     C80572   5.571   0.856   6.985 -0.8914  0.3877 -0.5177
  611MOL0     C80573   5.698   0.919   6.975 -0.1434  0.0612 -0.6377
  611MOL0     C80574   6.139   1.054   7.116  0.7462  0.9536  0.1423
  611MOL0     C80575   6.199   1.146   7.204 -0.4352 -0.5387 -0.1750
  611MOL0     C80576   6.336   1.171   7.198  0.0185 -0.3982  0.6552
  611MOL0     C80577   6.417   1.127   7.094  0.4150  0.2950 -0.7222
  611MOL0     O80578   6.541   1.170   7.102  0.2015  0.5355  0.5187
  611MOL0     C80579   6.638   1.085   7.045 -0.3583 -0.1797 -0.6048
  611MOL0     C80580   6.763   1.122   7.126 -0.2484 -0.0023  0.0409
  611MOL0     C80581   6.807   1.266   7.101  1.2528  0.2516 -0.8097
  611MOL0     C80582   6.961   1.289   7.114  0.7482 -0.4470 -0.3872
  611MOL0     C80583   7.055   1.184   7.062 -0.1174  0.0599 -0.4364
  611MOL0     C80584   7.140   1.099   7.018 -0.5361  0.1883  0.2405
  611MOL0     C80585   6.355   1.042   7.000  1.2647  0.0252 -0.2190
  611MOL0     C80586   6.216   1.011   7.006  0.1036  0.0251  0.0006
  611MOL0     H80587   5.849   0.761   7.228 -0.6945 -2.1815 -0.1074
  611MOL0     H80588   5.636   0.665   7.254 -0.9557  0.7291 -0.0243
  611MOL0     H80589   5.347   0.755   6.909 -0.9313  3.1900  0.3891
  611MOL0     H80590   5.272   0.846   7.031  0.8061  0.9516 -0.4301
  611MOL0     H80591   5.173   0.618   7.110  0.1443 -0.5246  0.0352
  611MOL0     H80592   5.216   0.573   6.948  1.1845 -0.6415  1.0242
  611MOL0     H80593   5.058   0.733   6.860 -0.8928  1.0945  0.1456
  611MOL0     H80594   5.052   0.818   7.021  1.2660  0.4585 -1.2368
  611MOL0     H80595   4.937   0.546   6.992  2.5583 -0.7818  1.4286
  611MOL0     H80596   4.945   0.642   7.128  1.9903  2.3897  0.1482
  611MOL0     H80597   4.793   0.719   6.875 -0.1733  1.5042 -0.3070
  611MOL0     H80598   4.785   0.798   7.037  0.8826 -0.2313 -0.6213
  611MOL0     H80599   4.678   0.595   7.124  1.6703  2.1041  1.1629
  611MOL0     H80600   4.689   0.530   6.959 -2.0258 -2.1563  3.0717
  611MOL0     H80601   4.516   0.770   7.055 -3.8762  1.4971 -1.6841
  611MOL0     H80602   4.559   0.748   6.883  2.1454 -3.2327 -0.8012
  611MOL0     H80603   4.400   0.555   7.046 -3.0312  2.7267  0.1039
  611MOL0     H80604   4.463   0.505   6.889 -0.2381  0.0612  0.2838
  611MOL0     H80605   4.258   0.801   7.066  2.7110 -2.2237  0.4464
  611MOL0     H80606   4.061   0.942   6.993  1.8579 -4.0227  1.4060
  611MOL0     H80607   3.951   0.881   6.880 -0.4330  1.7431  1.7824
  611MOL0     H80608   4.080   0.968   6.690  0.7425 -0.6938 -0.2732
  611MOL0     H80609   4.201   1.026   6.794 -0.7452 -0.3939 -2.1124
  611MOL0     H80610   4.031   1.183   6.904 -3.4748  0.9166  1.3804
  611MOL0     H80611   4.061   1.218   6.730  0.0233  1.3863  2.0896
  611MOL0     H80612   3.856   1.094   6.661 -2.8584  1.8869 -1.1164
  611MOL0     H80613   3.840   1.252   6.749  0.2544  0.2254 -0.1007
  611MOL0     H80614   3.626   0.930   6.990  1.2946 -0.9256 -1.6103
  611MOL0     H80615   3.386   0.908   6.957 -3.4121  3.8144  0.6326
  611MOL0     H80616   3.179   0.794   6.603  0.0608  1.2897 -0.6132
  611MOL0     H80617   2.984   0.667   6.500 -0.5924  2.2461 -1.3132
  611MOL0     H80618   2.611   0.709   6.725  1.1259 -0.8581  2.6890
  611MOL0     H80619   2.660   0.549   6.774 -0.4256 -2.0220 -1.2704
  611MOL0     H80620   2.586   0.459   6.552  1.4234  0.8670  0.9888
  611MOL0     H80621   2.527   0.624   6.513 -1.1676 -0.4396 -0.8626
  611MOL0     H80622   2.370   0.623   6.676  2.4950  0.1334 -0.9660
  611MOL0     H80623   2.405   0.452   6.733  0.6169  0.8602  2.5062
  611MOL0     H80624   2.328   0.541   6.454  1.4793  2.0366  1.4095
  611MOL0     H80625   2.370   0.383   6.507  0.5409 -0.6671  0.5044
  611MOL0     H80626   2.132   0.531   6.634 -0.3229  0.1511 -1.6394
  611MOL0     H80627   2.174   0.363   6.655  1.3705  0.4507  0.6539
  611MOL0     H80628   2.127   0.305   6.414 -3.8069 -0.3345 -2.7368
  611MOL0     H80629   2.109   0.472   6.390 -0.4983  1.9939  1.2430
  611MOL0     H80630   1.883   0.463   6.536 -0.7682  0.7359 -2.2335
  611MOL0     H80631   1.897   0.374   6.391 -0.6799 -0.2726  0.3549
  611MOL0     H80632   1.940   0.259   6.674 -1.6095  0.3247 -0.5131
  611MOL0     H80633   1.976   0.158   6.544 -2.3322 -3.1947  4.3876
  611MOL0     H80634   2.755   0.767   6.858  0.7084  1.1608  1.0315
  611MOL0     H80635   2.942   0.882   6.944 -1.1922 -0.3488 -0.3543
  611MOL0     H80636   3.406   1.195   6.634  0.1511  1.3650  0.7245
  611MOL0     H80637   3.641   1.215   6.669 -2.8304  0.2437 -1.0811
  611MOL0     H80638   5.487   0.881   6.920 -1.5405  2.6582  1.0606
  611MOL0     H80639   5.720   0.988   6.894 -0.9310  2.3650  0.9865
  611MOL0     H80640   6.145   1.184   7.290  0.5392  0.6883 -0.0698
  611MOL0     H80641   6.383   1.236   7.271 -0.4084 -1.6647  2.1389
  611MOL0     H80642   6.659   1.104   6.939  1.5912  1.4089 -0.0081
  611MOL0     H80643   6.623   0.980   7.071  1.8182  0.0014  1.8363
  611MOL0     H80644   6.737   1.097   7.230 -0.9530  2.3350  0.4698
  611MOL0     H80645   6.839   1.056   7.084 -0.2472 -0.3893  0.6237
  611MOL0     H80646   6.744   1.327   7.167 -0.0180 -0.6173 -1.1763
  611MOL0     H80647   6.781   1.301   7.000  0.0002  3.0771  0.3652
  611MOL0     H80648   6.987   1.390   7.079 -1.3262  0.2309 -0.1174
  611MOL0     H80649   6.983   1.291   7.221  1.3791  0.1402 -0.5150
  611MOL0     H80650   7.225   1.038   6.999  0.8874  1.2791  2.6072
  611MOL0     H80651   6.406   0.999   6.915  1.8332  0.0999  0.0819
  611MOL0     H80652   6.180   0.947   6.926  2.5020 -0.7357 -0.5596
  612MOL0     O80653   3.694   7.113   4.385  0.9630 -0.0691  0.8868
  612MOL0     C80654   3.769   7.076   4.477 -0.5097 -0.6278 -0.4195
  612MOL0     O80655   3.736   6.977   4.564 -0.8302 -0.9787 -0.1381
  612MOL0     C80656   3.636   6.893   4.535 -0.6210 -0.2147  0.9750
  612MOL0     C80657   3.666   6.779   4.464  0.5668  0.3236 -0.7073
  612MOL0     C80658   3.566   6.679   4.435  0.0570 -0.6939 -0.0258
  612MOL0     C80659   3.435   6.702   4.479 -0.1999  0.1791  0.1738
  612MOL0     O80660   3.334   6.620   4.459  0.1497  0.1089 -0.5499
  612MOL0     C80661   3.288   6.544   4.572 -0.1055 -0.5665 -0.4705
  612MOL0     C80662   3.175   6.450   4.520  0.4717 -0.6126 -0.5761
  612MOL0     C80663   3.140   6.366   4.644  0.2916  0.0276 -0.2849
  612MOL0     C80664   3.034   6.264   4.598  0.4995 -0.0682 -0.6670
  612MOL0     C80665   3.067   6.172   4.486  0.3192 -0.5965 -0.5260
  612MOL0     C80666   3.206   6.112   4.497  0.1716  0.1347  0.4413
  612MOL0     C80667   3.236   6.027   4.374 -0.3976  0.7160 -0.7994
  612MOL0     C80668   3.375   5.965   4.369  0.2765 -0.5924  0.2180
  612MOL0     N80669   3.397   5.897   4.502  0.7589  0.1490 -0.3972
  612MOL0     C80670   3.313   5.801   4.562 -0.6654 -0.0527 -1.3002
  612MOL0     C80671   3.377   5.752   4.671 -0.0363 -0.5284 -0.3875
  612MOL0     C80672   3.341   5.662   4.775 -0.3388  0.5703 -0.0287
  612MOL0     C80673   3.267   5.737   4.884  1.2880  0.3570  0.4714
  612MOL0     C80674   3.220   5.652   4.998 -0.0861 -0.2454 -0.0672
  612MOL0     C80675   3.100   5.559   4.963  0.0941 -0.1482  0.7173
  612MOL0     O80676   3.063   5.454   5.051  0.0442 -0.3115  0.1769
  612MOL0     C80677   2.955   5.380   5.018  0.1012  0.0615  0.2613
  612MOL0     C80678   2.893   5.294   5.112  0.4086  0.1691  0.5767
  612MOL0     C80679   2.771   5.219   5.074  0.2514  0.6548  0.5062
  612MOL0     C80680   2.715   5.230   4.952 -0.3973  0.2794  0.8427
  612MOL0     C80681   2.594   5.149   4.912 -1.1834  0.5360 -0.0714
  612MOL0     O80682   2.561   5.144   4.778 -0.5217 -0.3357  0.2223
  612MOL0     C80683   2.450   5.081   4.744  0.1376 -0.6691 -0.3681
  612MOL0     C80684   2.325   5.151   4.746 -0.1116 -0.5377 -0.8832
  612MOL0     C80685   2.215   5.098   4.671  0.3094  0.5242 -0.2105
  612MOL0     C80686   2.235   4.970   4.606 -0.3096  0.5373 -0.0415
  612MOL0     O80687   2.129   4.914   4.534 -0.2509 -0.3938  0.8462
  612MOL0     C80688   2.134   4.805   4.439 -0.3584  0.0578  0.5578
  612MOL0     C80689   2.058   4.689   4.507 -0.7219  0.0188  0.4929
  612MOL0     C80690   2.150   4.600   4.580  0.4300  0.1498 -0.2054
  612MOL0     C80691   2.083   4.472   4.632 -0.1160 -0.3648  0.6367
  612MOL0     C80692   2.170   4.420   4.750  0.0520 -0.1465 -0.9373
  612MOL0     C80693   2.097   4.309   4.831  0.5659 -0.0862  0.3375
  612MOL0     C80694   2.186   4.213   4.905  0.0659 -0.2193  0.2295
  612MOL0     C80695   2.107   4.145   5.016  0.4103  0.9665  0.4028
  612MOL0    Cl80696   2.220   4.052   5.118  0.0506 -0.1916 -0.5069
  612MOL0     C80697   2.357   4.903   4.615 -0.3917  0.0596  0.5357
  612MOL0     C80698   2.462   4.961   4.681 -0.4194 -0.1261 -0.3618
  612MOL0     O80699   2.526   5.098   5.004 -0.0348 -0.4016 -0.3308
  612MOL0     C80700   2.782   5.313   4.858  0.5673  0.5054 -0.0049
  612MOL0     C80701   2.895   5.384   4.891  0.4779 -0.4074  0.4627
  612MOL0     N80702   3.499   5.822   4.687 -0.3863  0.1762  0.0973
  612MOL0     N80703   3.498   5.914   4.593 -0.5684 -0.0292 -0.3828
  612MOL0     C80704   3.406   6.823   4.541  0.5292  0.3145 -0.2930
  612MOL0     C80705   3.503   6.913   4.582  0.2699 -0.7021  0.0788
  612MOL0     C80706   3.887   7.161   4.502 -0.1772 -0.1859  0.1970
  612MOL0     C80707   3.905   7.283   4.427  0.8425 -0.1954  0.0512
  612MOL0     C80708   4.021   7.366   4.452  0.1062  0.2635 -0.6787
  612MOL0     C80709   4.123   7.328   4.539  0.0712  1.1580 -0.5100
  612MOL0     O80710   4.234   7.406   4.571 -0.3353 -0.2401  0.1820
  612MOL0     C80711   4.287   7.511   4.479 -0.0242 -0.0834 -0.3207
  612MOL0     C80712   4.432   7.541   4.522  0.1806  0.6839  0.3294
  612MOL0     C80713   4.538   7.443   4.470  0.1794  0.6803  0.2433
  612MOL0     C80714   4.606   7.514   4.354 -0.3158  0.3098 -0.6469
  612MOL0     C80715   4.734   7.448   4.325 -0.3384 -0.3847  0.0792
  612MOL0     C80716   4.843   7.401   4.298  0.2834  0.5660  0.1686
  612MOL0     C80717   4.105   7.205   4.613  0.1497 -0.5403 -0.9893
  612MOL0     C80718   3.990   7.131   4.593 -0.3454 -0.0747 -0.4358
  612MOL0     H80719   3.769   6.745   4.461  1.7859  3.4092  1.5882
  612MOL0     H80720   3.595   6.592   4.377  0.1511 -1.4966  1.1825
  612MOL0     H80721   3.263   6.619   4.648 -1.8361  0.6502 -2.1428
  612MOL0     H80722   3.374   6.483   4.601  0.8467  0.7184 -0.5180
  612MOL0     H80723   3.207   6.386   4.438  1.0292 -0.6982 -0.2984
  612MOL0     H80724   3.089   6.513   4.496 -0.2093  0.2147  3.2951
  612MOL0     H80725   3.094   6.429   4.720 -0.2498  0.4615 -0.9645
  612MOL0     H80726   3.228   6.320   4.690  0.3819 -1.0125 -1.4203
  612MOL0     H80727   3.008   6.196   4.680 -3.0718  2.1460  0.2923
  612MOL0     H80728   2.941   6.316   4.576  0.6834  3.2174  4.6648
  612MOL0     H80729   3.070   6.234   4.395 -0.5371 -0.1178 -0.2372
  612MOL0     H80730   2.993   6.094   4.463  0.5351 -0.6114 -1.2206
  612MOL0     H80731   3.210   6.054   4.590  0.1736  0.8536  0.8982
  612MOL0     H80732   3.282   6.190   4.509 -0.3761  0.3242  4.0318
  612MOL0     H80733   3.163   5.946   4.377  2.5919 -2.1180  0.2591
  612MOL0     H80734   3.220   6.088   4.284 -1.0520  1.0860 -0.4395
  612MOL0     H80735   3.453   6.040   4.349 -0.3565  0.0625  0.1833
  612MOL0     H80736   3.368   5.895   4.286  3.6848 -2.2195  1.1194
  612MOL0     H80737   3.218   5.757   4.535  0.4594 -3.3925 -0.2904
  612MOL0     H80738   3.439   5.627   4.809 -0.1311  0.4793 -0.7099
  612MOL0     H80739   3.276   5.582   4.740 -0.7732  0.3964  1.1227
  612MOL0     H80740   3.178   5.783   4.839  2.5198 -1.0441 -3.8926
  612MOL0     H80741   3.335   5.815   4.920  2.8186  0.1516 -1.7899
  612MOL0     H80742   3.306   5.597   5.038  1.8620  1.3928 -1.7589
  612MOL0     H80743   3.183   5.715   5.079 -0.9521 -1.9603  0.9386
  612MOL0     H80744   3.128   5.507   4.871 -2.3921  0.8609 -0.7355
  612MOL0     H80745   3.011   5.620   4.945  0.3010  0.2767  1.1158
  612MOL0     H80746   2.944   5.293   5.208  0.2153 -0.1703  0.6744
  612MOL0     H80747   2.725   5.175   5.161  0.3382 -1.6527 -0.5418
  612MOL0     H80748   2.329   5.254   4.782  0.1499  0.3991 -3.3967
  612MOL0     H80749   2.128   5.162   4.662 -0.7029 -0.3261  2.3588
  612MOL0     H80750   2.238   4.783   4.413 -0.5898  0.1351 -0.4768
  612MOL0     H80751   2.085   4.822   4.342 -0.1176  0.3109  0.4806
  612MOL0     H80752   2.010   4.621   4.436  0.4520  0.0456 -0.3431
  612MOL0     H80753   1.986   4.742   4.570  1.7065  0.6116  2.9689
  612MOL0     H80754   2.196   4.658   4.661  1.9200 -0.0019 -0.9104
  612MOL0     H80755   2.238   4.573   4.521 -0.3815 -4.3742  0.3081
  612MOL0     H80756   1.979   4.497   4.655 -0.8360 -1.8568 -0.8343
  612MOL0     H80757   2.071   4.391   4.560 -0.5543 -0.1819  0.4994
  612MOL0     H80758   2.210   4.490   4.824 -0.1709 -0.9952  0.0133
  612MOL0     H80759   2.263   4.380   4.706  1.9365  0.6019  2.0828
  612MOL0     H80760   2.033   4.249   4.765  0.3895  0.7173 -0.2441
  612MOL0     H80761   2.027   4.364   4.895  1.1304 -0.5141  1.3340
  612MOL0     H80762   2.232   4.136   4.843  2.4028 -1.3465  3.1566
  612MOL0     H80763   2.265   4.273   4.951  0.7461 -3.0841  3.0925
  612MOL0     H80764   2.031   4.077   4.977  0.7048  0.4464  0.7270
  612MOL0     H80765   2.049   4.216   5.076 -0.3033  0.6480  0.1007
  612MOL0     H80766   2.388   4.812   4.566 -1.1324 -0.7966  1.6105
  612MOL0     H80767   2.563   4.922   4.668 -0.3617  0.1275 -0.6814
  612MOL0     H80768   2.749   5.321   4.755 -2.3450  1.6584  0.9275
  612MOL0     H80769   2.927   5.449   4.810  0.2365 -0.3243  0.4331
  612MOL0     H80770   3.301   6.847   4.554  1.1298  3.5664 -0.6150
  612MOL0     H80771   3.475   7.015   4.606 -2.6536 -1.6668  1.1602
  612MOL0     H80772   3.816   7.314   4.373  2.0713  3.0483 -0.3383
  612MOL0     H80773   4.037   7.456   4.392  0.4388  0.7120  0.0667
  612MOL0     H80774   4.243   7.606   4.510  1.9343  0.1275  2.1145
  612MOL0     H80775   4.273   7.487   4.373 -0.5090  2.2825 -0.8437
  612MOL0     H80776   4.455   7.643   4.489 -0.7307  0.9748  0.5686
  612MOL0     H80777   4.435   7.537   4.631 -0.5068 -2.2477  0.3093
  612MOL0     H80778   4.494   7.346   4.445 -0.8816  0.3199  3.1533
  612MOL0     H80779   4.610   7.414   4.547 -1.2062 -1.4196  0.8063
  612MOL0     H80780   4.549   7.497   4.262  2.6637 -1.9944 -2.2638
  612MOL0     H80781   4.628   7.620   4.366  0.0122  0.1732  0.0190
  612MOL0     H80782   4.933   7.356   4.261  1.8260  2.0195  1.9245
  612MOL0     H80783   4.175   7.179   4.692  0.0117 -0.2793 -0.7798
  612MOL0     H80784   3.990   7.041   4.653  0.0675 -0.8849 -1.5943
  613MOL0     O80785   3.876   0.998  10.127 -0.3191 -0.2863  0.0164
  613MOL0     C80786   3.874   0.880  10.107 -0.1341 -0.2135  0.0272
  613MOL0     O80787   3.772   0.818  10.053 -1.0490 -0.1714  0.3317
  613MOL0     C80788   3.650   0.872  10.036 -0.8397  0.0115  0.0588
  613MOL0     C80789   3.610   0.902   9.895 -0.8490 -0.7758 -0.8115
  613MOL0     C80790   3.483   0.951   9.866 -0.1933 -0.1594  0.7116
  613MOL0     C80791   3.379   0.949   9.963 -0.0699  0.2332  0.5486
  613MOL0     O80792   3.243   0.981   9.948  0.7282  0.5585  0.4900
  613MOL0     C80793   3.189   1.002   9.819 -0.6153 -0.4118  0.2216
  613MOL0     C80794   3.217   1.139   9.760 -0.2481  0.0821  0.6389
  613MOL0     C80795   3.187   1.142   9.607 -0.1813 -0.2839  0.0881
  613MOL0     C80796   3.187   1.286   9.547  0.1161  0.2409  0.4508
  613MOL0     C80797   3.041   1.339   9.544 -0.1791  0.3494 -0.7056
  613MOL0     C80798   3.039   1.472   9.465 -0.1494  0.2107  0.3267
  613MOL0     C80799   2.893   1.518   9.464  0.3929 -0.1403  0.8389
  613MOL0     C80800   2.871   1.647   9.398  0.7977 -0.5366  0.1149
  613MOL0     N80801   2.736   1.698   9.391  0.1130 -0.4243 -0.4294
  613MOL0     C80802   2.645   1.731   9.497 -0.2252 -0.5116  0.6678
  613MOL0     C80803   2.523   1.748   9.435 -0.7496 -0.5319  0.1245
  613MOL0     C80804   2.392   1.793   9.495  0.1803  0.1162  0.1509
  613MOL0     C80805   2.364   1.712   9.617 -0.7068  0.0476  0.8546
  613MOL0     C80806   2.237   1.748   9.699 -0.6905 -0.2169  0.5187
  613MOL0     C80807   2.099   1.701   9.657 -0.5319 -0.2912 -0.0623
  613MOL0     O80808   2.059   1.743   9.533 -0.0107  0.1449  0.1121
  613MOL0     C80809   1.931   1.723   9.495  0.2198 -0.7928  0.7349
  613MOL0     C80810   1.874   1.810   9.397  0.6389  0.5184 -0.9410
  613MOL0     C80811   1.734   1.806   9.356 -0.6465 -1.2578  0.0699
  613MOL0     C80812   1.653   1.703   9.407 -0.0456  0.5830 -0.1330
  613MOL0     C80813   1.511   1.695   9.375  0.4770 -0.6336 -0.7419
  613MOL0     O80814   1.444   1.580   9.402  0.0947  0.2677 -0.8060
  613MOL0     C80815   1.311   1.563   9.373 -0.1839  0.7995  0.0180
  613MOL0     C80816   1.210   1.667   9.363 -0.4389  0.1025 -0.7575
  613MOL0     C80817   1.081   1.627   9.331  0.2459  0.2220  0.6690
  613MOL0     C80818   1.046   1.492   9.307  0.8583  0.4245  0.3414
  613MOL0     O80819   0.909   1.472   9.280 -0.1212 -0.4713 -0.0384
  613MOL0     C80820   0.854   1.343   9.284 -0.8410  0.4978 -0.0675
  613MOL0     C80821   0.702   1.354   9.273  0.0916 -0.4195 -0.3202
  613MOL0     C80822   0.642   1.419   9.400 -0.0740 -0.7900  0.0877
  613MOL0     C80823   0.496   1.456   9.374  0.1797  0.4952 -0.0929
  613MOL0     C80824   0.409   1.516   9.484  0.0680  0.3578  0.0868
  613MOL0     C80825   0.277   1.441   9.502  0.0566  0.0577  0.6344
  613MOL0     C80826   0.172   1.514   9.592  0.8486  0.2066 -0.4490
  613MOL0     C80827   0.210   1.515   9.741 -0.7326 -0.3230  0.4413
  613MOL0    Cl80828   0.073   1.587   9.832  0.6740  0.4577 -0.2027
  613MOL0     C80829   1.139   1.391   9.331 -0.3177  0.2676  0.9813
  613MOL0     C80830   1.276   1.430   9.363 -0.4100 -0.2235  0.0747
  613MOL0     O80831   1.474   1.788   9.304  0.2098  0.2677  0.2884
  613MOL0     C80832   1.720   1.605   9.488 -0.8361 -0.8759  0.1667
  613MOL0     C80833   1.851   1.621   9.533  0.7568  0.2300 -1.2572
  613MOL0     N80834   2.540   1.724   9.299 -0.1797 -0.1225  0.2582
  613MOL0     N80835   2.663   1.694   9.276  0.1681  0.1946  0.2940
  613MOL0     C80836   3.408   0.903  10.096  0.4195  0.0831 -0.5627
  613MOL0     C80837   3.538   0.872  10.125 -0.1505  0.5450 -0.4938
  613MOL0     C80838   4.000   0.808  10.122  0.4797 -0.6687  0.6628
  613MOL0     C80839   4.027   0.693  10.038  0.8992  0.0224 -0.1241
  613MOL0     C80840   4.148   0.630  10.061 -0.8454  0.2915 -0.3922
  613MOL0     C80841   4.246   0.669  10.145  0.4723 -0.1391 -0.2716
  613MOL0     O80842   4.358   0.602  10.175  0.2447 -0.1930  0.6201
  613MOL0     C80843   4.473   0.674  10.229  0.3137 -0.7185  0.3300
  613MOL0     C80844   4.616   0.614  10.190 -0.1420 -0.0997  0.3914
  613MOL0     C80845   4.715   0.688  10.280 -0.4877  0.4505  0.1380
  613MOL0     C80846   4.861   0.639  10.235 -0.7404 -0.7515 -0.4378
  613MOL0     C80847   4.913   0.699  10.112  0.4348  0.1028 -0.3110
  613MOL0     C80848   4.966   0.730  10.007 -0.3944  0.1793 -0.7326
  613MOL0     C80849   4.220   0.787  10.218  0.4777  0.0932 -0.2344
  613MOL0     C80850   4.099   0.848  10.211  0.2340  0.4019  0.4795
  613MOL0     H80851   3.685   0.909   9.817 -1.2797 -1.2413 -1.2793
  613MOL0     H80852   3.475   0.993   9.766 -0.4366 -2.5690 -0.3486
  613MOL0     H80853   3.080   0.996   9.808 -0.7129  0.3990  0.6807
  613MOL0     H80854   3.216   0.928   9.743  0.2067  0.1121 -0.0002
  613MOL0     H80855   3.321   1.169   9.775 -0.4727  1.5571 -0.5709
  613MOL0     H80856   3.150   1.201   9.820 -1.1585 -0.8043  0.5814
  613MOL0     H80857   3.099   1.081   9.587 -2.0122  2.0543  0.5728
  613MOL0     H80858   3.268   1.101   9.545 -1.7213  2.0241 -3.7838
  613MOL0     H80859   3.248   1.362   9.597  0.6534  1.8588 -2.4493
  613MOL0     H80860   3.230   1.267   9.449 -1.5398 -0.9326 -0.0876
  613MOL0     H80861   2.986   1.342   9.639 -1.1064  0.1914 -1.2240
  613MOL0     H80862   2.979   1.261   9.499 -0.4862 -0.7371  1.4707
  613MOL0     H80863   3.085   1.452   9.367  2.1285  0.7655  1.2043
  613MOL0     H80864   3.107   1.546   9.510 -1.4828  1.9106 -0.3295
  613MOL0     H80865   2.824   1.453   9.411 -1.2671  2.4265 -0.3063
  613MOL0     H80866   2.854   1.524   9.566 -1.7530 -3.6331  0.3766
  613MOL0     H80867   2.896   1.630   9.293 -1.0330  1.1446 -0.6458
  613MOL0     H80868   2.941   1.723   9.435  2.4090 -2.3370  0.9172
  613MOL0     H80869   2.662   1.740   9.604 -0.8413 -0.8943  0.7998
  613MOL0     H80870   2.307   1.785   9.426  1.6756  0.5667 -1.8370
  613MOL0     H80871   2.401   1.899   9.519  2.2388  0.4202 -1.6031
  613MOL0     H80872   2.453   1.731   9.678 -0.4896  3.1468 -0.2431
  613MOL0     H80873   2.350   1.607   9.590  2.9693 -0.1531 -0.8633
  613MOL0     H80874   2.251   1.707   9.799  0.9455 -0.9979  0.0187
  613MOL0     H80875   2.227   1.856   9.708  3.5337  0.2967  1.0184
  613MOL0     H80876   2.023   1.734   9.729 -0.1649  0.6088 -0.0633
  613MOL0     H80877   2.111   1.593   9.666  3.7500 -0.1849 -2.1479
  613MOL0     H80878   1.937   1.890   9.359 -2.8024  1.7872 -4.7136
  613MOL0     H80879   1.701   1.886   9.291  0.7535 -0.8431 -0.1582
  613MOL0     H80880   1.236   1.771   9.378  0.5758 -0.5399  3.0735
  613MOL0     H80881   1.007   1.706   9.320  0.5739  0.7015  1.7831
  613MOL0     H80882   0.898   1.290   9.370  1.3120 -0.0963 -1.4516
  613MOL0     H80883   0.895   1.292   9.196  0.9973  4.8303 -1.9881
  613MOL0     H80884   0.659   1.254   9.261 -0.1584 -0.2199 -1.1448
  613MOL0     H80885   0.676   1.406   9.181 -2.2855  1.4969  1.3336
  613MOL0     H80886   0.689   1.517   9.413  0.8232 -1.3693  1.4421
  613MOL0     H80887   0.656   1.357   9.490 -0.2100  1.7352  1.9545
  613MOL0     H80888   0.497   1.529   9.293  2.8589 -0.4918 -1.0656
  613MOL0     H80889   0.442   1.371   9.331 -0.7599  1.3910 -0.7229
  613MOL0     H80890   0.406   1.625   9.488  1.2914  0.3732  1.3810
  613MOL0     H80891   0.463   1.503   9.578 -3.6991  0.2581  2.4325
  613MOL0     H80892   0.292   1.352   9.563  3.0201  0.3228  0.4235
  613MOL0     H80893   0.224   1.425   9.408 -2.8058 -0.3353  2.1960
  613MOL0     H80894   0.155   1.619   9.567  0.5929  0.6141  1.3280
  613MOL0     H80895   0.080   1.457   9.581  0.9572  0.0010 -0.3099
  613MOL0     H80896   0.297   1.580   9.751 -0.4332 -0.2775 -1.9320
  613MOL0     H80897   0.224   1.411   9.770  2.3725  0.1719  0.9908
  613MOL0     H80898   1.101   1.289   9.330 -3.6847  1.3475 -1.6281
  613MOL0     H80899   1.349   1.353   9.385  0.5197  1.0143  1.4278
  613MOL0     H80900   1.665   1.514   9.511 -1.5714 -0.3418  0.5335
  613MOL0     H80901   1.895   1.546   9.598 -0.3488  1.5076  1.1304
  613MOL0     H80902   3.334   0.910  10.175  2.1962 -0.5420  1.2406
  613MOL0     H80903   3.558   0.843  10.228  0.2082 -1.5737 -1.1120
  613MOL0     H80904   3.954   0.673   9.960  2.5491 -0.3187 -1.6248
  613MOL0     H80905   4.176   0.534  10.020 -0.9919 -0.4024  1.0455
  613MOL0     H80906   4.477   0.674  10.338 -1.3773  1.4105  0.4460
  613MOL0     H80907   4.478   0.776  10.191  1.5599 -2.2680 -4.4437
  613MOL0     H80908   4.621   0.506  10.209 -1.5031 -0.7734 -2.4808
  613MOL0     H80909   4.636   0.640  10.086  3.3348  1.3075  1.2871
  613MOL0     H80910   4.699   0.659  10.385 -1.1693  1.6952  0.3973
  613MOL0     H80911   4.695   0.795  10.266 -4.8217 -0.3291 -0.7706
  613MOL0     H80912   4.919   0.693  10.310 -1.2697 -0.3365 -0.3198
  613MOL0     H80913   4.887   0.535  10.255 -0.7048 -0.4596  1.1416
  613MOL0     H80914   5.026   0.782   9.935  0.9665  2.6156  1.9875
  613MOL0     H80915   4.294   0.840  10.277  1.4575  0.9528 -2.1539
  613MOL0     H80916   4.087   0.926  10.284 -0.7031 -0.2276  1.0196
  614MOL0     O80917   2.444   8.954   8.815  0.5414  0.5313 -0.2052
  614MOL0     C80918   2.431   8.880   8.913  0.1787 -0.7673  1.0439
  614MOL0     O80919   2.388   8.753   8.912 -0.7712 -0.0789  0.0850
  614MOL0     C80920   2.365   8.707   8.787  0.0172 -0.5697 -0.3470
  614MOL0     C80921   2.437   8.591   8.751  1.4378  0.5076  1.0357
  614MOL0     C80922   2.400   8.526   8.636  0.8206 -0.6279  0.0103
  614MOL0     C80923   2.302   8.580   8.547 -0.0832  0.9007 -0.2013
  614MOL0     O80924   2.261   8.523   8.432 -0.7898  0.3600  0.1970
  614MOL0     C80925   2.267   8.376   8.431  1.2731 -0.5472  0.5964
  614MOL0     C80926   2.150   8.321   8.355  0.0904  0.8265  0.0105
  614MOL0     C80927   2.016   8.362   8.411  0.6403 -0.2443 -0.5312
  614MOL0     C80928   1.893   8.341   8.324 -0.1156 -0.2522 -0.1321
  614MOL0     C80929   1.771   8.411   8.389 -0.3531 -1.2177  0.5346
  614MOL0     C80930   1.649   8.441   8.297  0.0463 -0.2212 -0.2165
  614MOL0     C80931   1.693   8.503   8.164  0.2894 -0.5413  0.4988
  614MOL0     C80932   1.584   8.547   8.065  0.6906  0.0989  0.4960
  614MOL0     N80933   1.642   8.636   7.969  0.1644 -0.2287 -0.2403
  614MOL0     C80934   1.675   8.767   7.993  0.5180  0.5091  0.1654
  614MOL0     C80935   1.772   8.803   7.911 -0.1564 -1.4030  0.4280
  614MOL0     C80936   1.835   8.935   7.893 -0.1424 -1.0353  0.0787
  614MOL0     C80937   1.991   8.915   7.922 -0.8779 -0.7596 -0.2104
  614MOL0     C80938   2.061   9.041   7.968  0.9935  0.2560 -0.3987
  614MOL0     C80939   2.059   9.136   7.849 -0.4009  0.6420 -0.1276
  614MOL0     O80940   2.101   9.271   7.897 -0.0499  0.2674 -0.2578
  614MOL0     C80941   2.237   9.302   7.895 -0.5816  0.1715 -0.1230
  614MOL0     C80942   2.340   9.210   7.859 -0.2197 -0.2319  0.0116
  614MOL0     C80943   2.477   9.247   7.863 -0.0809  0.1622 -0.6501
  614MOL0     C80944   2.522   9.375   7.899 -0.0080 -0.0498  0.6371
  614MOL0     C80945   2.660   9.416   7.894  0.9357  0.1302  0.6837
  614MOL0     O80946   2.741   9.327   7.829  0.1576  0.1537 -0.2051
  614MOL0     C80947   2.868   9.361   7.791 -0.4832 -0.3375  0.5535
  614MOL0     C80948   2.947   9.257   7.741 -0.5749  0.0358  0.2976
  614MOL0     C80949   3.080   9.276   7.691 -0.1344  0.4561  0.5977
  614MOL0     C80950   3.131   9.410   7.675  0.0611 -0.9624 -0.3868
  614MOL0     O80951   3.268   9.423   7.635  0.1566  0.6361  0.7817
  614MOL0     C80952   3.313   9.545   7.583 -0.3319 -0.7915 -0.8071
  614MOL0     C80953   3.462   9.538   7.534 -0.9441  1.3599 -1.0682
  614MOL0     C80954   3.503   9.662   7.452  0.0555  1.1554 -0.3418
  614MOL0     C80955   3.646   9.655   7.423 -0.8463  0.8255  0.2937
  614MOL0     C80956   3.696   9.774   7.337  0.3925  0.1234  0.5093
  614MOL0     C80957   3.827   9.733   7.268 -0.5028 -0.3054  0.1403
  614MOL0     C80958   3.896   9.833   7.173  0.4675 -1.1556  0.0401
  614MOL0     C80959   3.961   9.772   7.047  0.3380  0.0357  0.6632
  614MOL0    Cl80960   4.073   9.875   6.951  0.0578  0.5499 -0.0581
  614MOL0     C80961   3.040   9.516   7.713  0.3771 -0.3917 -0.7518
  614MOL0     C80962   2.909   9.492   7.767  0.4232 -0.4369 -0.4731
  614MOL0     O80963   2.701   9.504   7.960 -0.0347  0.3527  0.1876
  614MOL0     C80964   2.425   9.472   7.931  0.3746  0.0392  0.3141
  614MOL0     C80965   2.279   9.433   7.929  0.1920  0.6105 -1.1023
  614MOL0     N80966   1.792   8.705   7.824  0.0006  0.1299 -0.0202
  614MOL0     N80967   1.724   8.602   7.866 -0.1866 -0.5370  0.5804
  614MOL0     C80968   2.239   8.695   8.576 -0.3178 -0.1212  0.3437
  614MOL0     C80969   2.267   8.761   8.694  0.0623 -0.5597 -0.5503
  614MOL0     C80970   2.446   8.940   9.048 -0.2453  0.4211 -1.0100
  614MOL0     C80971   2.445   8.857   9.166 -0.2974 -0.2180  0.4789
  614MOL0     C80972   2.460   8.926   9.282 -0.0441 -0.7943 -0.0053
  614MOL0     C80973   2.475   9.063   9.293  0.0901  0.0261  0.8338
  614MOL0     O80974   2.516   9.109   9.418  0.6547 -0.1938  0.2671
  614MOL0     C80975   2.473   9.237   9.457 -0.3440  0.2266  0.1435
  614MOL0     C80976   2.482   9.255   9.603  0.1652  0.1155  0.2788
  614MOL0     C80977   2.451   9.398   9.639 -0.1376  0.6981  0.0425
  614MOL0     C80978   2.448   9.420   9.794  0.6102  0.3467  0.2484
  614MOL0     C80979   2.321   9.386   9.855  0.1831  0.2370 -0.5523
  614MOL0     C80980   2.212   9.355   9.883 -0.6097 -0.0973 -1.1544
  614MOL0     C80981   2.467   9.142   9.173  0.3568  0.3081 -0.4226
  614MOL0     C80982   2.457   9.078   9.056  0.5168  0.3875  0.3665
  614MOL0     H80983   2.517   8.547   8.809  1.7735 -2.5937 -1.5020
  614MOL0     H80984   2.461   8.445   8.596  3.3476  0.8747  0.6079
  614MOL0     H80985   2.248   8.346   8.534 -1.6102 -0.2358  0.2443
  614MOL0     H80986   2.355   8.335   8.381  1.2060  1.7601 -1.6251
  614MOL0     H80987   2.151   8.212   8.357  3.6938  0.7030 -1.6135
  614MOL0     H80988   2.165   8.342   8.249  2.7751  0.7748  0.3121
  614MOL0     H80989   2.025   8.471   8.414  2.4782 -0.3823  0.4834
  614MOL0     H80990   1.999   8.325   8.513  0.2747  0.7153 -0.2320
  614MOL0     H80991   1.913   8.379   8.223  1.6245  2.0791  1.0024
  614MOL0     H80992   1.877   8.232   8.325 -1.8098 -0.0371 -0.3405
  614MOL0     H80993   1.800   8.498   8.448 -2.0754 -1.3663  1.6752
  614MOL0     H80994   1.739   8.337   8.462 -0.6356 -3.8856 -2.0811
  614MOL0     H80995   1.578   8.505   8.351 -1.3230 -0.5351 -1.5921
  614MOL0     H80996   1.607   8.341   8.281  0.0641 -0.5927  1.7844
  614MOL0     H80997   1.756   8.590   8.185  0.6574 -1.1874  2.2477
  614MOL0     H80998   1.748   8.426   8.111 -1.6798 -2.0793  0.5805
  614MOL0     H80999   1.505   8.604   8.115 -0.1934  0.2466 -1.0110
  614MOL0     H81000   1.545   8.454   8.025  0.8909  0.5535 -0.7988
  614MOL0     H81001   1.634   8.834   8.068 -2.7901  2.2693 -2.8929
  614MOL0     H81002   1.796   8.997   7.974 -0.8918 -4.9262  2.9737
  614MOL0     H81003   1.803   8.981   7.799  2.2837 -0.2551 -0.4416
  614MOL0     H81004   2.036   8.868   7.834  0.9585  2.6654 -1.2910
  614MOL0     H81005   1.989   8.844   8.005 -1.7792  2.0332  2.3219
  614MOL0     H81006   2.007   9.098   8.045  0.2210  2.7400 -2.6044
  614MOL0     H81007   2.166   9.023   7.990  0.6608  0.8470  1.9575
  614MOL0     H81008   1.959   9.164   7.815  0.0060  1.7494 -0.4804
  614MOL0     H81009   2.113   9.097   7.762  1.4918  1.7215  0.4927
  614MOL0     H81010   2.318   9.108   7.829 -0.5796 -0.2262  0.2517
  614MOL0     H81011   2.550   9.171   7.837 -0.6113  0.8707 -4.8731
  614MOL0     H81012   2.900   9.160   7.759  3.0921 -1.6835  1.4423
  614MOL0     H81013   3.145   9.198   7.652 -0.0185 -0.5854  2.7424
  614MOL0     H81014   3.301   9.615   7.666 -1.1180 -4.2223  2.2439
  614MOL0     H81015   3.271   9.590   7.493  3.1674  1.3412 -1.5634
  614MOL0     H81016   3.482   9.440   7.491 -3.3559 -1.5348  3.5814
  614MOL0     H81017   3.523   9.548   7.625  1.6035  1.2649 -2.6747
  614MOL0     H81018   3.482   9.756   7.505 -5.0622 -0.2752  0.7220
  614MOL0     H81019   3.452   9.667   7.356  2.5288  2.7438 -1.6911
  614MOL0     H81020   3.711   9.652   7.511  1.1168 -1.3545 -1.0983
  614MOL0     H81021   3.673   9.566   7.365 -1.0568  0.4657  0.7393
  614MOL0     H81022   3.713   9.869   7.388 -0.1881 -0.6936  2.2917
  614MOL0     H81023   3.627   9.782   7.253  1.0277 -0.4914 -0.0957
  614MOL0     H81024   3.804   9.656   7.193  2.4352  0.8016 -2.1064
  614MOL0     H81025   3.902   9.680   7.326  0.1235  0.2695 -0.1330
  614MOL0     H81026   3.819   9.905   7.145  3.2025  1.3985 -1.4429
  614MOL0     H81027   3.978   9.886   7.224 -1.5040  0.1774  1.9984
  614MOL0     H81028   3.870   9.755   6.987  1.1707  0.9770 -0.9533
  614MOL0     H81029   4.005   9.674   7.066 -2.8434 -1.7607 -0.3852
  614MOL0     H81030   3.074   9.617   7.690  0.3755  0.1925  1.5406
  614MOL0     H81031   2.852   9.580   7.798  1.0253 -0.3959  0.5542
  614MOL0     H81032   2.442   9.572   7.968 -3.1050 -0.3233  3.5463
  614MOL0     H81033   2.195   9.494   7.963 -1.3936 -2.4592  0.9169
  614MOL0     H81034   2.172   8.737   8.503  3.5260  2.5005 -2.0381
  614MOL0     H81035   2.196   8.844   8.696 -0.4386 -0.9895  1.0053
  614MOL0     H81036   2.427   8.751   9.173 -1.9325  0.1324  2.3815
  614MOL0     H81037   2.475   8.881   9.380  0.5679  3.1918  1.9549
  614MOL0     H81038   2.370   9.240   9.418  0.7586 -0.2239 -3.1019
  614MOL0     H81039   2.530   9.310   9.399 -0.3062 -1.5833 -2.2736
  614MOL0     H81040   2.409   9.191   9.653 -1.1479  1.7490  0.5358
  614MOL0     H81041   2.582   9.230   9.640  0.4613  2.6471  1.4103
  614MOL0     H81042   2.361   9.438   9.591 -1.1195  0.8695  1.9206
  614MOL0     H81043   2.535   9.457   9.601 -0.4753  1.6463  0.7233
  614MOL0     H81044   2.530   9.362   9.837  0.7038  1.5283  1.7264
  614MOL0     H81045   2.459   9.529   9.802 -0.9095  0.7353 -2.1377
  614MOL0     H81046   2.112   9.320   9.899 -1.6990  1.7870 -3.3147
  614MOL0     H81047   2.483   9.250   9.176 -2.5388  0.7871  1.4399
  614MOL0     H81048   2.439   9.146   8.974 -0.7476 -0.7737 -0.3740
  615MOL0     O81049   4.662   4.360   3.049 -0.8355  0.7347  0.3371
  615MOL0     C81050   4.703   4.313   3.154  0.2906  0.8286 -0.3748
  615MOL0     O81051   4.630   4.232   3.239  0.2232  0.4726 -0.4613
  615MOL0     C81052   4.496   4.194   3.215  0.7659 -0.3761  0.2934
  615MOL0     C81053   4.407   4.280   3.151  0.3377 -0.4756  0.0636
  615MOL0     C81054   4.279   4.240   3.110  0.0355  1.1295  1.2960
  615MOL0     C81055   4.232   4.110   3.133  0.1578 -0.5929  0.2419
  615MOL0     O81056   4.106   4.072   3.091 -0.9554  0.1363  0.2298
  615MOL0     C81057   4.088   3.937   3.042 -0.2550  0.4777 -0.1458
  615MOL0     C81058   3.979   3.935   2.937  0.1430  0.2165 -1.2678
  615MOL0     C81059   3.843   3.976   2.989 -0.6583  0.3811  0.4713
  615MOL0     C81060   3.743   3.956   2.885  0.1185 -0.1895  0.4444
  615MOL0     C81061   3.598   3.998   2.933 -0.1732 -0.0238  0.0752
  615MOL0     C81062   3.490   4.015   2.822 -0.2187 -0.2752 -0.2478
  615MOL0     C81063   3.487   3.881   2.738  0.3239 -0.0140  0.2154
  615MOL0     C81064   3.378   3.894   2.631  0.6760 -0.1483 -0.3381
  615MOL0     N81065   3.243   3.926   2.667 -0.2760  0.1062 -0.2499
  615MOL0     C81066   3.159   3.844   2.725 -0.1854 -0.1435  0.7895
  615MOL0     C81067   3.046   3.910   2.748 -0.0244 -0.6500 -0.4812
  615MOL0     C81068   2.927   3.866   2.830 -0.3100  0.1784  0.5525
  615MOL0     C81069   2.834   3.774   2.758 -0.4616 -0.3489  0.2573
  615MOL0     C81070   2.738   3.713   2.854 -0.1879  0.2244 -0.0763
  615MOL0     C81071   2.615   3.636   2.793 -0.6848 -0.5176  0.2179
  615MOL0     O81072   2.513   3.618   2.885  0.9663 -0.1564 -0.2104
  615MOL0     C81073   2.385   3.576   2.834 -0.4071  0.3823  0.2607
  615MOL0     C81074   2.272   3.608   2.906 -0.8006 -1.0141 -0.5783
  615MOL0     C81075   2.140   3.586   2.855  0.1992 -0.1534  0.3258
  615MOL0     C81076   2.122   3.520   2.734 -0.3996 -0.7247 -0.4185
  615MOL0     C81077   1.984   3.504   2.685 -0.3125  0.0525  0.1324
  615MOL0     O81078   1.883   3.545   2.763 -0.2299  0.0321 -0.0183
  615MOL0     C81079   1.756   3.510   2.723 -0.6401 -0.6859 -0.5033
  615MOL0     C81080   1.689   3.426   2.805  0.0541  0.1470 -0.8414
  615MOL0     C81081   1.557   3.399   2.774 -0.2369  0.3484  0.1073
  615MOL0     C81082   1.500   3.457   2.661  0.3339  0.3672  0.9651
  615MOL0     O81083   1.372   3.437   2.614  0.2165 -0.0074 -0.7109
  615MOL0     C81084   1.272   3.420   2.712 -0.5793 -0.4023 -0.0836
  615MOL0     C81085   1.142   3.373   2.649  0.0496 -0.0995  0.2513
  615MOL0     C81086   1.020   3.367   2.744  0.1021  0.2018 -0.3183
  615MOL0     C81087   0.886   3.375   2.670  0.2229 -0.6448 -0.2594
  615MOL0     C81088   0.773   3.359   2.763 -0.4661  0.0324 -0.1858
  615MOL0     C81089   0.635   3.370   2.683  0.3328  0.3901  0.2677
  615MOL0     C81090   0.532   3.351   2.789  0.0708 -0.8218 -0.5093
  615MOL0     C81091   0.506   3.202   2.823  1.0934 -0.9020 -0.7629
  615MOL0    Cl81092   0.366   3.173   2.934 -0.0793 -0.0958  0.4716
  615MOL0     C81093   1.567   3.547   2.581 -0.1477  0.6353  0.6223
  615MOL0     C81094   1.699   3.577   2.612 -0.2597 -0.0687 -0.4536
  615MOL0     O81095   1.964   3.426   2.594 -0.9389  0.6258  0.1661
  615MOL0     C81096   2.238   3.481   2.663  0.3891 -0.0274 -0.2119
  615MOL0     C81097   2.370   3.509   2.713  0.4321 -0.3590 -0.8849
  615MOL0     N81098   3.072   4.046   2.718  0.0031 -0.3602  0.2083
  615MOL0     N81099   3.193   4.051   2.661  0.3362  0.3804  0.0291
  615MOL0     C81100   4.333   4.023   3.187 -1.1662 -0.4545 -0.4108
  615MOL0     C81101   4.461   4.064   3.218  0.4624 -0.2542  0.1696
  615MOL0     C81102   4.851   4.327   3.183  0.1713  0.7538  0.5156
  615MOL0     C81103   4.940   4.378   3.085 -1.0146 -0.0855  0.5929
  615MOL0     C81104   5.072   4.410   3.115  0.7228  0.4380 -0.3828
  615MOL0     C81105   5.122   4.394   3.246  1.3253  0.4174 -0.0372
  615MOL0     O81106   5.252   4.438   3.266 -0.0936  0.3826  0.2081
  615MOL0     C81107   5.332   4.387   3.377  0.5439  0.0867  0.0616
  615MOL0     C81108   5.453   4.466   3.400 -0.8881  0.1653  0.3368
  615MOL0     C81109   5.569   4.454   3.300  0.1035 -0.0275 -0.2824
  615MOL0     C81110   5.682   4.568   3.327 -0.2890 -0.3596  0.0249
  615MOL0     C81111   5.814   4.517   3.362  0.6760  0.4671 -0.1967
  615MOL0     C81112   5.924   4.501   3.405 -0.5641 -0.5839 -0.3430
  615MOL0     C81113   5.041   4.322   3.337 -0.0655 -0.3800 -0.5064
  615MOL0     C81114   4.911   4.291   3.303  1.5245 -0.0808  0.3663
  615MOL0     H81115   4.436   4.383   3.129  0.1013 -0.1365  1.2546
  615MOL0     H81116   4.202   4.305   3.069  0.5318 -1.1229 -4.0594
  615MOL0     H81117   4.074   3.861   3.120  1.1450 -1.9279 -2.0946
  615MOL0     H81118   4.181   3.907   2.994 -0.8510  0.9978 -1.7092
  615MOL0     H81119   3.969   3.827   2.919 -0.3157 -0.6877  3.2880
  615MOL0     H81120   4.016   3.996   2.854  1.9111  1.0261  0.0512
  615MOL0     H81121   3.828   4.072   3.040 -4.0788 -0.5814  1.5385
  615MOL0     H81122   3.818   3.909   3.072 -1.7671  0.9882  0.6578
  615MOL0     H81123   3.766   4.017   2.797 -0.9941 -0.3962 -0.0011
  615MOL0     H81124   3.741   3.853   2.850 -2.6806 -0.3856  0.9268
  615MOL0     H81125   3.604   4.092   2.989  1.6687  0.8132 -1.4199
  615MOL0     H81126   3.571   3.916   3.000 -0.4523 -1.5826 -1.8897
  615MOL0     H81127   3.521   4.099   2.760 -3.1103  0.9975 -0.1138
  615MOL0     H81128   3.390   4.047   2.850  1.3512  2.7132  2.6397
  615MOL0     H81129   3.579   3.856   2.686 -0.4836  1.3606 -2.0047
  615MOL0     H81130   3.463   3.795   2.802 -1.8000  1.6578  1.8224
  615MOL0     H81131   3.382   3.810   2.561 -0.4159 -0.0336 -0.5609
  615MOL0     H81132   3.406   3.969   2.556 -0.0572  0.7139  0.2344
  615MOL0     H81133   3.194   3.748   2.763  1.2078  0.0077 -0.0512
  615MOL0     H81134   2.878   3.963   2.843 -1.3627 -0.1711 -0.5819
  615MOL0     H81135   2.966   3.822   2.922 -0.1049 -1.4579 -0.2756
  615MOL0     H81136   2.897   3.700   2.707 -0.8234  1.5169 -3.1656
  615MOL0     H81137   2.794   3.817   2.667 -0.2970 -2.2428 -0.7594
  615MOL0     H81138   2.788   3.638   2.916 -0.8433 -0.1244  0.0347
  615MOL0     H81139   2.693   3.788   2.919 -1.2093  1.9311 -2.5923
  615MOL0     H81140   2.655   3.542   2.755  1.4964  0.1163  0.7787
  615MOL0     H81141   2.577   3.696   2.709 -0.1083  0.3515  0.5575
  615MOL0     H81142   2.269   3.665   2.999  2.1548 -0.5583 -0.6576
  615MOL0     H81143   2.058   3.623   2.916 -1.7707  0.5725 -2.5452
  615MOL0     H81144   1.733   3.380   2.892 -0.1462 -0.9012 -1.2877
  615MOL0     H81145   1.509   3.326   2.839 -0.0970 -0.7096 -0.9329
  615MOL0     H81146   1.261   3.517   2.760  2.3162  0.7332 -1.4741
  615MOL0     H81147   1.293   3.339   2.783 -1.4999  0.5597  1.3137
  615MOL0     H81148   1.152   3.279   2.595  1.5643  0.9595 -1.4247
  615MOL0     H81149   1.109   3.446   2.575  0.2084 -0.2310  0.0500
  615MOL0     H81150   1.030   3.451   2.813  1.7135 -1.0466  1.0670
  615MOL0     H81151   1.039   3.273   2.797  0.0379  1.5361  2.2300
  615MOL0     H81152   0.871   3.472   2.620 -1.5119 -0.7310  0.0655
  615MOL0     H81153   0.890   3.307   2.585 -0.1442  0.8616 -1.5358
  615MOL0     H81154   0.772   3.422   2.852 -0.6642  0.3966 -0.4416
  615MOL0     H81155   0.774   3.253   2.790  2.1648 -0.8294 -3.0451
  615MOL0     H81156   0.625   3.289   2.610 -1.7920 -0.9837  1.9654
  615MOL0     H81157   0.617   3.466   2.634  0.6200 -0.5907 -1.8816
  615MOL0     H81158   0.550   3.411   2.879 -0.9545  2.3393 -2.2395
  615MOL0     H81159   0.439   3.392   2.746 -0.2573 -1.9481 -0.8949
  615MOL0     H81160   0.603   3.168   2.860  0.9033  0.8227  1.5684
  615MOL0     H81161   0.477   3.156   2.729 -1.5549  1.9572 -1.5113
  615MOL0     H81162   1.529   3.593   2.490 -2.4092 -1.2399  0.5343
  615MOL0     H81163   1.746   3.651   2.548 -1.8084  1.0799 -0.3264
  615MOL0     H81164   2.239   3.443   2.562 -3.9094  1.6386 -1.0787
  615MOL0     H81165   2.460   3.470   2.667  0.7038 -0.6727 -0.1064
  615MOL0     H81166   4.318   3.916   3.194 -0.8809 -0.5091 -0.5850
  615MOL0     H81167   4.543   3.998   3.243  1.2551  0.0040 -1.6092
  615MOL0     H81168   4.904   4.404   2.986  0.4843 -2.9664 -0.8282
  615MOL0     H81169   5.141   4.461   3.049  2.0438  0.6488  1.1153
  615MOL0     H81170   5.360   4.284   3.354 -0.1448 -1.0956  3.7972
  615MOL0     H81171   5.266   4.386   3.465  1.0535  1.5451  0.4893
  615MOL0     H81172   5.422   4.570   3.413 -0.0948  0.4605 -0.0659
  615MOL0     H81173   5.499   4.439   3.496  3.2038  1.4879 -1.0658
  615MOL0     H81174   5.533   4.477   3.200 -0.7594 -2.7187 -0.6672
  615MOL0     H81175   5.615   4.358   3.326 -0.7889 -0.2385  0.5775
  615MOL0     H81176   5.699   4.627   3.237 -3.3595  2.2808  0.9698
  615MOL0     H81177   5.643   4.632   3.407 -0.6305  0.4979 -0.8035
  615MOL0     H81178   6.022   4.485   3.444 -1.6060 -1.2477  2.2230
  615MOL0     H81179   5.071   4.298   3.438  0.5345  1.1570 -0.2871
  615MOL0     H81180   4.857   4.233   3.377  0.3731  0.5862  0.0686
  616MOL0     O81181   8.555   1.056   1.463 -0.0694  0.1222  0.5674
  616MOL0     C81182   8.510   0.943   1.462 -0.2334 -0.4394 -0.3941
  616MOL0     O81183   8.578   0.825   1.500  0.4052  0.6522 -0.1320
  616MOL0     C81184   8.699   0.831   1.554 -0.0351  0.1504 -0.2106
  616MOL0     C81185   8.743   0.931   1.647 -0.2760  0.4405  0.3127
  616MOL0     C81186   8.870   0.927   1.699  0.4921  0.0142  0.4230
  616MOL0     C81187   8.962   0.841   1.655  0.4992  0.1077  0.7211
  616MOL0     O81188   9.090   0.866   1.708 -0.2639  1.0168 -0.1541
  616MOL0     C81189   9.196   0.786   1.654 -0.3658  0.0321  0.3062
  616MOL0     C81190   9.335   0.807   1.714  0.2795 -0.0279  0.2953
  616MOL0     C81191   9.455   0.718   1.667  0.2143  0.1846  0.5273
  616MOL0     C81192   9.581   0.761   1.744 -0.4191  0.0051 -0.0132
  616MOL0     C81193   9.694   0.657   1.734  0.2385  0.7259  0.0046
  616MOL0     C81194   9.807   0.698   1.816 -1.0468  1.1423  0.0118
  616MOL0     C81195   9.941   0.616   1.806  0.4721  0.1697 -0.2774
  616MOL0     C81196   9.914   0.468   1.829  0.3043 -0.8703 -0.5349
  616MOL0     N81197  10.031   0.382   1.825  0.0789 -0.6384 -0.7533
  616MOL0     C81198  10.031   0.252   1.773 -0.4507 -1.1552 -0.5264
  616MOL0     C81199  10.152   0.205   1.804 -0.0308 -0.3771  0.4985
  616MOL0     C81200  10.211   0.076   1.761  0.8139  0.1555 -0.2703
  616MOL0     C81201  10.266   0.092   1.618  0.2776 -0.3731 -0.0357
  616MOL0     C81202  10.311  -0.044   1.560  0.2982 -0.1291 -0.1919
  616MOL0     C81203  10.358  -0.034   1.419 -0.1990  0.1953  0.3036
  616MOL0     O81204  10.476   0.040   1.411 -0.7481  0.8192  0.0016
  616MOL0     C81205  10.597  -0.028   1.420  0.0243  0.5595 -0.8886
  616MOL0     C81206  10.625  -0.158   1.463  0.5501  0.4614  0.2467
  616MOL0     C81207  10.750  -0.212   1.460 -0.2691  0.6253 -0.2032
  616MOL0     C81208  10.864  -0.134   1.422  0.8801 -0.1133 -0.1585
  616MOL0     C81209  11.003  -0.196   1.418  0.5922  0.7824  0.6329
  616MOL0     O81210  11.016  -0.332   1.428 -0.1214 -0.3606 -0.1142
  616MOL0     C81211  11.146  -0.366   1.439  0.0012  0.0930  0.4516
  616MOL0     C81212  11.217  -0.403   1.326  0.1195  0.0270 -0.1599
  616MOL0     C81213  11.351  -0.427   1.338 -0.8506  0.0704  0.3871
  616MOL0     C81214  11.419  -0.424   1.461  0.2411  0.3789  0.2495
  616MOL0     O81215  11.563  -0.421   1.458  0.0100  0.1751  0.5684
  616MOL0     C81216  11.630  -0.347   1.561 -0.1196 -0.7455  0.0748
  616MOL0     C81217  11.768  -0.303   1.522 -0.4037  0.9641  0.4639
  616MOL0     C81218  11.837  -0.254   1.644 -0.0683  0.1205  0.1963
  616MOL0     C81219  11.972  -0.189   1.591 -0.5540 -0.0361  0.3940
  616MOL0     C81220  12.056  -0.139   1.710  1.1069 -0.9907  0.0376
  616MOL0     C81221  12.180  -0.067   1.675  0.5237 -0.9573 -0.4144
  616MOL0     C81222  12.290  -0.076   1.780 -1.1368  0.1091 -1.0032
  616MOL0     C81223  12.399   0.034   1.755  1.0384 -0.1018  1.3210
  616MOL0    Cl81224  12.511   0.035   1.882 -0.2680 -0.4294 -0.5253
  616MOL0     C81225  11.337  -0.401   1.572 -0.8202 -0.4414 -0.1859
  616MOL0     C81226  11.209  -0.360   1.567  0.8814  0.2048  0.2727
  616MOL0     O81227  11.096  -0.114   1.403 -0.5958  0.3241  0.6246
  616MOL0     C81228  10.840  -0.009   1.361  0.5138  0.7972 -0.1449
  616MOL0     C81229  10.708   0.035   1.367 -0.5458 -0.6095  0.2403
  616MOL0     N81230  10.223   0.302   1.870 -0.2665  0.3557  0.5261
  616MOL0     N81231  10.160   0.410   1.883  0.3544 -0.6897 -0.2034
  616MOL0     C81232   8.926   0.739   1.555  0.9762 -1.2800 -0.8055
  616MOL0     C81233   8.794   0.735   1.514 -0.5616  0.4517  0.0029
  616MOL0     C81234   8.366   0.928   1.440  0.2529  0.4805 -0.4335
  616MOL0     C81235   8.305   0.807   1.385  0.2116 -0.7260 -0.2074
  616MOL0     C81236   8.167   0.799   1.360 -0.6050  0.3498  0.4322
  616MOL0     C81237   8.083   0.899   1.398 -0.5279 -0.1730  0.1943
  616MOL0     O81238   7.949   0.895   1.399 -0.0152 -0.0735 -0.0001
  616MOL0     C81239   7.883   0.766   1.372 -0.5087 -0.2854 -0.5399
  616MOL0     C81240   7.732   0.783   1.404  0.4266 -0.6311  0.1135
  616MOL0     C81241   7.668   0.904   1.333  0.2330  0.1840  0.2319
  616MOL0     C81242   7.516   0.896   1.319 -0.2025 -0.0740 -0.3788
  616MOL0     C81243   7.452   0.910   1.454  0.8615 -0.5851 -0.7849
  616MOL0     C81244   7.406   0.926   1.565  0.0355  0.9407 -0.5352
  616MOL0     C81245   8.131   1.013   1.452  0.0496  0.9872  0.1607
  616MOL0     C81246   8.271   1.031   1.476  0.2260 -0.0537 -0.1751
  616MOL0     H81247   8.679   1.013   1.678  1.1586  1.6615  0.1418
  616MOL0     H81248   8.895   0.996   1.778  3.6265 -0.0923 -0.3657
  616MOL0     H81249   9.197   0.795   1.545 -2.7069 -2.1892  0.0080
  616MOL0     H81250   9.173   0.683   1.682 -2.4458  0.3798  0.0269
  616MOL0     H81251   9.328   0.784   1.821 -1.8097 -3.1438 -0.3634
  616MOL0     H81252   9.361   0.912   1.698  0.4499  0.1839  1.7626
  616MOL0     H81253   9.481   0.724   1.561  4.6438 -3.0853  1.1226
  616MOL0     H81254   9.431   0.613   1.685 -0.6800  0.2647 -0.1170
  616MOL0     H81255   9.622   0.854   1.706  1.2282 -0.8844 -0.4921
  616MOL0     H81256   9.553   0.777   1.848  0.9200 -0.0780  0.3674
  616MOL0     H81257   9.736   0.649   1.634  1.8402 -0.1079  0.7119
  616MOL0     H81258   9.657   0.559   1.767  2.0836  0.4628  1.4881
  616MOL0     H81259   9.779   0.695   1.921  0.7425 -0.5331  0.4989
  616MOL0     H81260   9.842   0.799   1.795 -0.1617  1.5243  2.9131
  616MOL0     H81261   9.986   0.639   1.710 -0.7504  0.7984 -0.7212
  616MOL0     H81262  10.005   0.648   1.888  0.1894  0.3855 -0.1369
  616MOL0     H81263   9.843   0.428   1.756  1.4265 -2.5847 -0.7231
  616MOL0     H81264   9.860   0.462   1.924  1.5201  2.1322  0.4938
  616MOL0     H81265   9.966   0.192   1.709 -0.6326 -0.6121 -0.8527
  616MOL0     H81266  10.144  -0.009   1.751 -1.8658  2.2887 -1.9309
  616MOL0     H81267  10.292   0.047   1.829 -0.7521 -3.3526  0.3009
  616MOL0     H81268  10.349   0.164   1.619 -1.1328  1.3398 -1.3019
  616MOL0     H81269  10.187   0.134   1.557 -0.1281  1.1273  1.4234
  616MOL0     H81270  10.386  -0.089   1.625 -1.9694 -3.2683  0.5200
  616MOL0     H81271  10.224  -0.111   1.560  0.4882 -0.4098  1.3302
  616MOL0     H81272  10.285   0.014   1.353 -0.0564  2.2775  1.5670
  616MOL0     H81273  10.361  -0.138   1.384 -0.2219  0.8605 -1.8600
  616MOL0     H81274  10.544  -0.226   1.489 -0.3628  1.0790 -0.8741
  616MOL0     H81275  10.767  -0.310   1.503  0.9633 -0.0813 -2.1717
  616MOL0     H81276  11.160  -0.421   1.236  0.2464 -1.1105 -0.0336
  616MOL0     H81277  11.417  -0.443   1.253  1.3518  2.4458  1.5037
  616MOL0     H81278  11.641  -0.416   1.645  0.9647 -0.8440 -0.1257
  616MOL0     H81279  11.573  -0.255   1.577  0.7821  0.0170 -0.9998
  616MOL0     H81280  11.775  -0.232   1.439  2.2350  0.7424  0.3990
  616MOL0     H81281  11.828  -0.389   1.489 -0.5643  1.0317 -0.0072
  616MOL0     H81282  11.849  -0.337   1.714 -1.9442 -0.2259  0.1639
  616MOL0     H81283  11.777  -0.180   1.698  2.7658  2.1112  0.8418
  616MOL0     H81284  12.028  -0.257   1.527 -0.4687 -0.0484  0.4803
  616MOL0     H81285  11.956  -0.103   1.526  0.3298 -1.3879 -1.7033
  616MOL0     H81286  12.083  -0.225   1.772  0.7209 -0.9170  0.3059
  616MOL0     H81287  12.001  -0.064   1.766  0.6553  0.2944 -2.0045
  616MOL0     H81288  12.146   0.037   1.668  0.7241 -0.5815  2.8503
  616MOL0     H81289  12.211  -0.101   1.575  1.0841 -1.2707 -0.1395
  616MOL0     H81290  12.251  -0.056   1.880  1.4350  0.1844  0.0545
  616MOL0     H81291  12.336  -0.173   1.759  0.2975  0.9272 -1.8051
  616MOL0     H81292  12.359   0.135   1.746  1.5208 -0.0700 -0.8398
  616MOL0     H81293  12.448   0.020   1.659 -0.0634  1.4953  0.4765
  616MOL0     H81294  11.386  -0.384   1.668 -3.4079  1.6861  0.9050
  616MOL0     H81295  11.152  -0.322   1.651  2.2812  0.0445  1.3497
  616MOL0     H81296  10.919   0.057   1.325  0.4555 -0.1266 -2.0814
  616MOL0     H81297  10.697   0.133   1.322  0.6838 -0.2254  0.7325
  616MOL0     H81298   8.988   0.662   1.511 -0.7868 -2.6063 -1.0715
  616MOL0     H81299   8.773   0.658   1.440 -2.3144  0.1071  0.8071
  616MOL0     H81300   8.378   0.734   1.351  0.8328  0.2496 -1.0194
  616MOL0     H81301   8.136   0.703   1.320  1.6370 -1.4174  2.6651
  616MOL0     H81302   7.920   0.679   1.428  0.0031 -0.0832 -0.5602
  616MOL0     H81303   7.904   0.737   1.268  0.8729 -1.6582  0.0785
  616MOL0     H81304   7.681   0.690   1.378  2.4112 -1.3358 -1.4325
  616MOL0     H81305   7.725   0.802   1.512 -0.0969  2.3608 -0.3634
  616MOL0     H81306   7.709   0.920   1.233 -1.4860  3.3380 -0.1144
  616MOL0     H81307   7.696   0.996   1.386  2.1293 -0.0130 -0.3329
  616MOL0     H81308   7.491   0.981   1.255 -0.8477  0.8811  1.0793
  616MOL0     H81309   7.487   0.795   1.286  2.5972 -1.7614  1.8681
  616MOL0     H81310   7.360   0.938   1.661  0.3533  0.6288 -0.3386
  616MOL0     H81311   8.059   1.090   1.476  0.9059  1.9916 -0.4289
  616MOL0     H81312   8.312   1.123   1.517  0.9632 -0.6611  0.4891
  617MOL0     O81313  10.716   3.920   0.667  0.1755 -0.5664 -1.0274
  617MOL0     C81314  10.703   4.015   0.591  0.4327  0.7281  0.2569
  617MOL0     O81315  10.809   4.062   0.515 -0.6015  0.0409  0.4305
  617MOL0     C81316  10.914   3.978   0.497 -0.2639  0.0284  0.4637
  617MOL0     C81317  10.898   3.851   0.438  0.0457 -0.2454 -0.0167
  617MOL0     C81318  11.006   3.765   0.425  0.0137  0.7591  0.3162
  617MOL0     C81319  11.132   3.806   0.456  0.6091  0.1787 -0.9209
  617MOL0     O81320  11.234   3.713   0.423 -0.0848  0.0299 -0.3243
  617MOL0     C81321  11.360   3.704   0.483 -0.2303 -0.6664 -0.1041
  617MOL0     C81322  11.336   3.670   0.631  0.1467 -0.7300 -0.2588
  617MOL0     C81323  11.476   3.653   0.698 -0.0820  0.6889  0.5134
  617MOL0     C81324  11.456   3.624   0.844  0.2678  0.4234  0.1571
  617MOL0     C81325  11.587   3.616   0.915  0.2627  0.3783 -0.4234
  617MOL0     C81326  11.566   3.603   1.070 -0.0464  0.6182  0.3460
  617MOL0     C81327  11.696   3.603   1.150  0.8961 -0.7215  0.2276
  617MOL0     C81328  11.683   3.554   1.290 -0.0616  0.0640 -0.1189
  617MOL0     N81329  11.580   3.617   1.367 -0.7408 -0.2138  0.0695
  617MOL0     C81330  11.451   3.576   1.374 -0.2882 -0.7001 -0.3522
  617MOL0     C81331  11.396   3.659   1.473 -0.2273  0.4098  0.3142
  617MOL0     C81332  11.249   3.662   1.522 -0.1931 -0.4035  0.5731
  617MOL0     C81333  11.246   3.664   1.675  0.8687 -0.1845 -0.0835
  617MOL0     C81334  11.240   3.528   1.747  0.4164  0.1448  0.4204
  617MOL0     C81335  11.096   3.480   1.789 -0.6239  0.0861  0.5838
  617MOL0     O81336  11.007   3.483   1.673  0.5576  0.5962  0.8916
  617MOL0     C81337  10.875   3.508   1.689  0.1554  0.2744 -0.4296
  617MOL0     C81338  10.824   3.612   1.617 -0.1711  0.2691 -0.1293
  617MOL0     C81339  10.690   3.649   1.632  0.6499  0.5191 -0.3975
  617MOL0     C81340  10.602   3.583   1.726 -0.5715 -0.1362  0.4823
  617MOL0     C81341  10.461   3.630   1.747 -0.3381 -0.3126  0.4359
  617MOL0     O81342  10.383   3.565   1.832 -0.3271  0.3640  0.1020
  617MOL0     C81343  10.263   3.621   1.857  0.5829 -0.2926  0.4520
  617MOL0     C81344  10.161   3.530   1.880  0.0326 -0.1171  0.1246
  617MOL0     C81345  10.039   3.564   1.935 -0.4436 -0.0007  1.1077
  617MOL0     C81346  10.013   3.693   1.970 -0.4523  0.5433  0.0513
  617MOL0     O81347   9.890   3.731   2.028 -0.6694 -0.4276  0.9583
  617MOL0     C81348   9.787   3.712   1.934  0.4194  0.4992  0.2400
  617MOL0     C81349   9.653   3.728   2.008 -0.4124  0.3725  0.2897
  617MOL0     C81350   9.576   3.592   2.007  0.2361  0.1682 -0.0225
  617MOL0     C81351   9.456   3.595   2.100 -0.5060  0.2162 -1.3441
  617MOL0     C81352   9.498   3.566   2.247 -0.5597  0.3842  0.7216
  617MOL0     C81353   9.391   3.619   2.349 -0.4442 -0.0961 -0.1402
  617MOL0     C81354   9.392   3.528   2.482 -0.0978 -0.3139  0.5730
  617MOL0     C81355   9.247   3.527   2.550 -0.0920 -0.1750  0.1611
  617MOL0    Cl81356   9.115   3.458   2.446 -0.5370  0.0218 -0.1012
  617MOL0     C81357  10.119   3.783   1.949 -0.6582 -0.2537 -0.1027
  617MOL0     C81358  10.239   3.753   1.894  0.0318  0.0984  0.6104
  617MOL0     O81359  10.433   3.734   1.687 -0.0805 -0.4745 -0.3592
  617MOL0     C81360  10.654   3.475   1.791 -0.9060  0.1340  0.8250
  617MOL0     C81361  10.793   3.431   1.777 -0.1443 -0.1979 -0.4985
  617MOL0     N81362  11.500   3.735   1.532  0.5420  0.8348  0.4314
  617MOL0     N81363  11.603   3.708   1.464  0.4058  1.2082 -0.6654
  617MOL0     C81364  11.157   3.938   0.499  0.7843 -0.5866 -0.1657
  617MOL0     C81365  11.044   4.020   0.516  0.5765 -0.7078  0.0100
  617MOL0     C81366  10.585   4.091   0.585 -0.1763  0.5243  0.0366
  617MOL0     C81367  10.597   4.231   0.559  0.6065 -0.6530 -0.5339
  617MOL0     C81368  10.484   4.318   0.562 -0.0345  0.6992 -0.0622
  617MOL0     C81369  10.357   4.266   0.591 -1.0608 -1.1163 -0.5776
  617MOL0     O81370  10.250   4.352   0.587  0.2736  0.1694  0.0358
  617MOL0     C81371  10.119   4.301   0.592  0.9637 -0.3256 -0.1430
  617MOL0     C81372  10.014   4.409   0.604  0.0185  1.0300  0.0568
  617MOL0     C81373   9.876   4.354   0.561  0.2305 -0.6547  0.4514
  617MOL0     C81374   9.831   4.228   0.635 -0.5261 -0.1488  0.7632
  617MOL0     C81375   9.704   4.197   0.583 -0.1957  0.5488 -0.9476
  617MOL0     C81376   9.593   4.178   0.541  1.2014 -0.0048 -0.4972
  617MOL0     C81377  10.347   4.123   0.605  0.9556 -0.9663  0.2579
  617MOL0     C81378  10.458   4.044   0.615  0.3755 -0.1821 -0.3659
  617MOL0     H81379  10.798   3.812   0.420  1.1076 -2.3495 -1.9008
  617MOL0     H81380  10.985   3.664   0.391  3.0952  0.2217 -0.2640
  617MOL0     H81381  11.416   3.798   0.472  1.0058 -1.4581 -0.7683
  617MOL0     H81382  11.427   3.627   0.444 -0.1318 -1.4172  1.4584
  617MOL0     H81383  11.275   3.580   0.641  0.4425 -0.9641 -0.5228
  617MOL0     H81384  11.291   3.760   0.673  1.1116  0.0553 -0.8534
  617MOL0     H81385  11.537   3.742   0.680 -0.9504  0.9803 -1.1743
  617MOL0     H81386  11.522   3.560   0.665  1.7272  0.9405  2.1375
  617MOL0     H81387  11.396   3.703   0.891  0.2825  2.0513 -2.3721
  617MOL0     H81388  11.403   3.529   0.851 -0.8763  1.0895  1.0765
  617MOL0     H81389  11.639   3.712   0.902 -0.9465  1.5329  2.5233
  617MOL0     H81390  11.645   3.534   0.871  0.5706  1.0564 -1.3289
  617MOL0     H81391  11.518   3.505   1.084 -1.8471  1.5552  1.0170
  617MOL0     H81392  11.503   3.685   1.105 -1.0446 -0.2276  0.5877
  617MOL0     H81393  11.773   3.531   1.118  1.8630 -0.6532  2.2338
  617MOL0     H81394  11.744   3.701   1.141  1.1806 -0.3746  3.9011
  617MOL0     H81395  11.780   3.570   1.337  0.8639 -1.3925 -1.4346
  617MOL0     H81396  11.672   3.445   1.289 -0.7152  0.1311 -1.2285
  617MOL0     H81397  11.402   3.513   1.300  0.1773  1.4551 -2.6287
  617MOL0     H81398  11.209   3.569   1.481 -0.9036  0.3125 -0.4174
  617MOL0     H81399  11.197   3.749   1.479 -0.1539 -1.1387 -1.0397
  617MOL0     H81400  11.167   3.730   1.713  1.1999  0.6300 -0.7612
  617MOL0     H81401  11.344   3.700   1.706  1.6252 -1.2199 -1.1690
  617MOL0     H81402  11.281   3.440   1.697  2.0736  0.4076  1.2736
  617MOL0     H81403  11.302   3.527   1.837  0.6154 -1.6058  0.2878
  617MOL0     H81404  11.065   3.552   1.865 -1.3415 -0.7121  1.0532
  617MOL0     H81405  11.099   3.381   1.834 -3.1547  0.6645  2.2904
  617MOL0     H81406  10.888   3.671   1.552  0.5581 -0.9420 -0.5382
  617MOL0     H81407  10.655   3.730   1.568  2.4662  3.2055  1.7447
  617MOL0     H81408  10.166   3.425   1.854 -3.6095 -0.4154  0.0967
  617MOL0     H81409   9.967   3.484   1.949 -1.2841  0.3102 -1.1373
  617MOL0     H81410   9.798   3.613   1.889  1.5622  0.7922 -0.1755
  617MOL0     H81411   9.804   3.790   1.859  0.4964 -0.4107 -0.7198
  617MOL0     H81412   9.602   3.812   1.959 -2.3946 -0.1513  1.3544
  617MOL0     H81413   9.672   3.758   2.111  3.8002  3.9004 -1.1677
  617MOL0     H81414   9.642   3.513   2.045 -1.2659 -0.3466  1.6573
  617MOL0     H81415   9.550   3.574   1.902 -0.8664  0.5333  0.1777
  617MOL0     H81416   9.414   3.695   2.093  1.1356  1.0160 -0.4689
  617MOL0     H81417   9.394   3.511   2.067 -2.6540  1.6702 -1.1354
  617MOL0     H81418   9.597   3.607   2.269  0.3181 -0.8320 -0.7756
  617MOL0     H81419   9.507   3.458   2.258  1.1738  0.0216 -2.8692
  617MOL0     H81420   9.291   3.614   2.304  0.1603  0.7853 -1.6902
  617MOL0     H81421   9.413   3.723   2.373 -0.6565  0.2761 -1.4726
  617MOL0     H81422   9.429   3.426   2.465  0.4259  0.1595 -1.3312
  617MOL0     H81423   9.457   3.580   2.553 -1.0939  1.8755 -0.0479
  617MOL0     H81424   9.226   3.632   2.574 -0.8416 -0.4201  0.6174
  617MOL0     H81425   9.258   3.458   2.634  1.7118 -1.0394 -0.7225
  617MOL0     H81426  10.110   3.883   1.990 -2.4280  0.4221 -1.9288
  617MOL0     H81427  10.318   3.827   1.888  2.5581 -2.5303 -2.6007
  617MOL0     H81428  10.598   3.408   1.856  0.1558 -1.3497  0.2809
  617MOL0     H81429  10.840   3.357   1.840  2.6615 -0.4180 -2.6801
  617MOL0     H81430  11.256   3.974   0.525 -0.0246  1.6511  0.1046
  617MOL0     H81431  11.058   4.123   0.549  1.5299 -1.3616  1.7957
  617MOL0     H81432  10.690   4.281   0.535 -1.2141  2.6496 -1.3143
  617MOL0     H81433  10.502   4.417   0.522  1.5208 -0.2398 -1.8342
  617MOL0     H81434  10.119   4.245   0.686 -0.5944 -0.2604 -0.0776
  617MOL0     H81435  10.097   4.238   0.506 -0.8841 -1.1870  0.9001
  617MOL0     H81436  10.018   4.443   0.708  1.3756  3.8637 -0.8171
  617MOL0     H81437  10.044   4.488   0.534 -0.4644  0.5935 -0.6630
  617MOL0     H81438   9.873   4.336   0.454 -1.5478 -0.0488  0.3647
  617MOL0     H81439   9.822   4.445   0.589 -2.4329 -2.1436  0.5173
  617MOL0     H81440   9.893   4.138   0.638  0.0966  0.2736  0.7303
  617MOL0     H81441   9.816   4.264   0.737  1.7887  2.9140  0.1688
  617MOL0     H81442   9.495   4.180   0.496 -1.1768 -0.1251  4.0668
  617MOL0     H81443  10.254   4.071   0.627  1.4446 -1.0279  2.4614
  617MOL0     H81444  10.450   3.939   0.641  1.2246  0.5060  3.3298
  618MOL0     O81445   6.816   1.282   3.702 -0.1678  0.4343  0.4111
  618MOL0     C81446   6.827   1.179   3.768  0.7982  1.4760  1.0072
  618MOL0     O81447   6.723   1.082   3.786  0.0360 -0.8962 -0.7918
  618MOL0     C81448   6.605   1.085   3.714 -0.3044  0.2244  0.5574
  618MOL0     C81449   6.597   1.112   3.575  0.4097  0.0930 -0.6300
  618MOL0     C81450   6.471   1.094   3.511 -0.3874  0.5381 -0.1508
  618MOL0     C81451   6.352   1.060   3.581  0.0955 -1.1463 -0.3502
  618MOL0     O81452   6.231   1.055   3.516 -0.6333  0.2784 -0.0773
  618MOL0     C81453   6.115   0.993   3.574  0.3048 -0.5302  0.2873
  618MOL0     C81454   6.014   0.967   3.460  0.7997 -0.1575  0.4809
  618MOL0     C81455   5.877   0.910   3.524 -0.4023  0.3010  0.4884
  618MOL0     C81456   5.809   1.011   3.613 -0.1445  0.4310 -0.1686
  618MOL0     C81457   5.661   1.023   3.582  0.3667 -0.4557 -0.2463
  618MOL0     C81458   5.572   0.893   3.586 -0.0117  0.1601 -0.4903
  618MOL0     C81459   5.561   0.835   3.728  0.4035  0.2394  0.6469
  618MOL0     C81460   5.491   0.922   3.830 -0.5315 -0.2351 -0.8067
  618MOL0     N81461   5.350   0.960   3.809  0.3843  0.5243  0.3440
  618MOL0     C81462   5.302   1.072   3.742 -0.0873  0.1034  0.4521
  618MOL0     C81463   5.172   1.070   3.755 -0.5798 -0.6188 -0.6137
  618MOL0     C81464   5.068   1.159   3.693  0.4787 -0.1856  0.4463
  618MOL0     C81465   5.056   1.144   3.535  0.0924 -0.3205 -0.1802
  618MOL0     C81466   5.031   1.007   3.480  0.5523  0.7825 -0.9326
  618MOL0     C81467   4.893   0.951   3.517 -0.0944  0.4255 -0.5250
  618MOL0     O81468   4.793   1.049   3.513  0.0555  0.1689 -0.0215
  618MOL0     C81469   4.662   1.009   3.543  0.2472 -0.7962 -0.1520
  618MOL0     C81470   4.577   1.121   3.582 -0.5714  0.2278 -0.2670
  618MOL0     C81471   4.455   1.084   3.638  0.1969 -0.1993  0.1095
  618MOL0     C81472   4.397   0.957   3.625  0.5673 -0.8469 -0.5606
  618MOL0     C81473   4.257   0.928   3.672  0.0360 -0.1131 -0.8793
  618MOL0     O81474   4.193   1.009   3.755 -0.2244  0.1267  0.5696
  618MOL0     C81475   4.054   1.012   3.756  0.3165 -1.7929 -0.0813
  618MOL0     C81476   3.971   0.973   3.648  0.4765 -0.0107 -0.8593
  618MOL0     C81477   3.837   0.997   3.660 -0.1017 -0.0429 -0.2315
  618MOL0     C81478   3.784   1.062   3.770  0.4009 -0.0734  0.2812
  618MOL0     O81479   3.649   1.101   3.767 -0.6192  0.3007 -0.3619
  618MOL0     C81480   3.575   1.129   3.890 -0.1053 -1.3394  0.7598
  618MOL0     C81481   3.434   1.153   3.851 -0.4123  0.2379 -0.4805
  618MOL0     C81482   3.359   1.021   3.830  0.3465  0.1759 -0.2657
  618MOL0     C81483   3.208   1.035   3.802 -0.1541 -0.3643  0.3291
  618MOL0     C81484   3.137   0.920   3.854  0.5000  0.5696 -0.0612
  618MOL0     C81485   3.001   0.897   3.784 -0.7401 -0.0818  0.5331
  618MOL0     C81486   2.887   0.989   3.817 -0.6454 -0.3245  0.9403
  618MOL0     C81487   2.751   0.911   3.818 -0.3848  0.4455 -0.2836
  618MOL0    Cl81488   2.610   1.014   3.848  0.4127  0.1229 -0.3579
  618MOL0     C81489   3.866   1.101   3.873  0.2633 -1.4019 -0.6262
  618MOL0     C81490   3.998   1.087   3.864  0.3862  0.0127 -0.7536
  618MOL0     O81491   4.214   0.823   3.629 -0.0323  0.1603  0.5115
  618MOL0     C81492   4.477   0.853   3.580  0.2548 -0.1044 -0.0414
  618MOL0     C81493   4.613   0.882   3.545  0.6793  0.5446 -0.2497
  618MOL0     N81494   5.137   0.960   3.825  0.1586 -0.0285 -0.5169
  618MOL0     N81495   5.246   0.894   3.856  0.1021  0.5582  0.1503
  618MOL0     C81496   6.367   1.042   3.717 -0.0978 -0.1443 -0.1076
  618MOL0     C81497   6.484   1.045   3.781  0.7855 -0.2428  0.1468
  618MOL0     C81498   6.971   1.152   3.814  1.0507  0.0759  0.4271
  618MOL0     C81499   7.075   1.233   3.769  0.4477  0.2693  0.0908
  618MOL0     C81500   7.206   1.198   3.797 -0.0960 -0.5134 -0.7703
  618MOL0     C81501   7.241   1.075   3.849 -0.1278 -0.0056 -0.9643
  618MOL0     O81502   7.372   1.040   3.877  0.2489  0.3766 -0.2241
  618MOL0     C81503   7.394   0.923   3.938 -0.3759 -0.2172  0.0660
  618MOL0     C81504   7.545   0.901   3.955  0.2217 -0.2998  0.2350
  618MOL0     C81505   7.595   1.000   4.059  0.7304  0.2040 -1.8606
  618MOL0     C81506   7.710   0.940   4.147  0.5035 -0.0289 -0.8759
  618MOL0     C81507   7.792   1.042   4.214  1.2341  0.1645 -0.3039
  618MOL0     C81508   7.858   1.125   4.262 -1.1272  0.4684  0.3187
  618MOL0     C81509   7.133   0.982   3.884  0.4584  0.4659 -0.6321
  618MOL0     C81510   6.996   1.020   3.863  0.0634 -0.1613 -0.6251
  618MOL0     H81511   6.677   1.132   3.505 -2.0974 -0.0809 -3.8310
  618MOL0     H81512   6.471   1.095   3.402 -1.3646 -1.6643 -0.2096
  618MOL0     H81513   6.079   1.056   3.656 -2.0471 -0.6031 -0.6162
  618MOL0     H81514   6.150   0.897   3.613 -2.8481 -2.1491 -0.5839
  618MOL0     H81515   6.052   0.901   3.381 -0.2711  0.0872 -0.2708
  618MOL0     H81516   5.983   1.056   3.404 -0.2785 -1.5486 -1.2409
  618MOL0     H81517   5.899   0.813   3.568 -0.2892  1.9064  4.4323
  618MOL0     H81518   5.812   0.881   3.441  0.0697 -0.4418  0.3752
  618MOL0     H81519   5.826   0.988   3.719  1.3775  1.1139 -0.2326
  618MOL0     H81520   5.847   1.113   3.599 -1.2844  1.4138  2.9615
  618MOL0     H81521   5.659   1.051   3.476 -1.7190  1.4251  0.2219
  618MOL0     H81522   5.615   1.106   3.636  0.6236 -0.4636 -0.0145
  618MOL0     H81523   5.602   0.818   3.512  1.0026  0.4070 -0.3364
  618MOL0     H81524   5.469   0.911   3.552 -0.8389 -0.4318  1.5270
  618MOL0     H81525   5.498   0.746   3.721  1.2152 -0.2368 -1.1207
  618MOL0     H81526   5.651   0.798   3.777  1.2907  0.6030 -0.6853
  618MOL0     H81527   5.548   1.015   3.834 -0.2316 -0.2370 -3.3896
  618MOL0     H81528   5.489   0.870   3.926  3.5623 -2.3152 -1.6332
  618MOL0     H81529   5.367   1.137   3.684  1.6883 -2.3055 -0.4480
  618MOL0     H81530   5.076   1.264   3.721  0.0013  0.2889 -1.0834
  618MOL0     H81531   4.979   1.115   3.740 -0.5774 -0.7864 -1.8981
  618MOL0     H81532   5.151   1.177   3.491 -0.9757 -0.0162 -2.3555
  618MOL0     H81533   4.978   1.201   3.484  0.4578  0.9317  0.6140
  618MOL0     H81534   5.042   1.013   3.371  0.9300 -2.8442 -1.2019
  618MOL0     H81535   5.113   0.942   3.512 -2.7530 -2.8349  1.0165
  618MOL0     H81536   4.904   0.914   3.620  0.8240  1.6023 -0.1851
  618MOL0     H81537   4.867   0.864   3.456 -1.9596  0.5993 -0.0551
  618MOL0     H81538   4.616   1.220   3.599  4.8547 -1.2844 -1.8092
  618MOL0     H81539   4.401   1.160   3.693 -0.2935  0.6191 -1.4499
  618MOL0     H81540   4.007   0.920   3.561  1.8166 -1.2125  0.3784
  618MOL0     H81541   3.768   0.964   3.583 -0.7217 -1.4883  0.9035
  618MOL0     H81542   3.606   1.227   3.926  1.5113 -0.8265 -1.7752
  618MOL0     H81543   3.573   1.060   3.975 -1.3295  0.2942  2.1303
  618MOL0     H81544   3.443   1.210   3.758  2.2439  0.9369  0.1235
  618MOL0     H81545   3.386   1.225   3.919 -0.4530  1.2489 -1.5537
  618MOL0     H81546   3.383   0.957   3.915  1.9696 -0.2756 -1.0202
  618MOL0     H81547   3.408   0.962   3.752  0.2078 -3.7328  2.3365
  618MOL0     H81548   3.185   1.127   3.857  2.9585  1.8770 -1.8120
  618MOL0     H81549   3.207   1.049   3.693 -1.0090  2.9111  0.6671
  618MOL0     H81550   3.111   0.941   3.959  0.5975 -0.9148  0.2830
  618MOL0     H81551   3.202   0.833   3.843 -0.3627 -0.0026 -0.7744
  618MOL0     H81552   2.971   0.796   3.816 -0.9557  0.3860  1.9093
  618MOL0     H81553   3.025   0.890   3.678  0.2530 -0.2427  0.7641
  618MOL0     H81554   2.893   1.035   3.916 -3.1971 -0.5701  1.2639
  618MOL0     H81555   2.877   1.064   3.739  0.7493 -1.3608 -0.3031
  618MOL0     H81556   2.747   0.834   3.896  2.7786  1.8558  1.4563
  618MOL0     H81557   2.742   0.858   3.723  0.2242  0.2033 -0.2057
  618MOL0     H81558   3.821   1.164   3.949  0.6862 -1.5065 -0.2832
  618MOL0     H81559   4.067   1.133   3.933 -0.2091  1.3463 -1.0237
  618MOL0     H81560   4.423   0.759   3.584  0.4140 -0.2567 -1.1889
  618MOL0     H81561   4.666   0.792   3.518  0.2423 -0.0880  0.9362
  618MOL0     H81562   6.288   1.018   3.788 -0.4851 -1.7456 -1.0265
  618MOL0     H81563   6.493   1.030   3.888  1.7755 -2.2619 -0.1761
  618MOL0     H81564   7.067   1.332   3.726 -2.0050  0.7800  1.5069
  618MOL0     H81565   7.282   1.274   3.785 -1.6923  1.1221 -1.0593
  618MOL0     H81566   7.355   0.846   3.871 -1.1268 -0.0544  0.3042
  618MOL0     H81567   7.349   0.924   4.038  1.7468  0.5069  1.0899
  618MOL0     H81568   7.566   0.795   3.972 -0.5566 -0.5282 -0.1646
  618MOL0     H81569   7.599   0.930   3.865 -0.4915 -0.6997 -0.3362
  618MOL0     H81570   7.510   1.030   4.122  0.5966 -2.1057 -0.8317
  618MOL0     H81571   7.619   1.097   4.016 -1.3550  0.3529 -2.8480
  618MOL0     H81572   7.673   0.880   4.231  1.0830  1.7097  0.6863
  618MOL0     H81573   7.785   0.882   4.092  1.7047  3.6273 -3.4634
  618MOL0     H81574   7.933   1.191   4.298 -1.0268  1.6939 -1.9835
  618MOL0     H81575   7.144   0.881   3.923 -1.2352  0.9830  1.3545
  618MOL0     H81576   6.925   0.940   3.883  1.5611 -1.6317 -0.9802
  619MOL0     O81577   3.589   5.157   0.813  0.0342 -0.0774  0.0660
  619MOL0     C81578   3.579   5.193   0.698 -1.0336 -0.1737  0.5724
  619MOL0     O81579   3.480   5.263   0.640  0.2296  0.8031 -0.0911
  619MOL0     C81580   3.395   5.339   0.714  0.3138  0.7315  0.1308
  619MOL0     C81581   3.285   5.381   0.642  0.8400 -0.0293  0.6376
  619MOL0     C81582   3.193   5.482   0.689 -0.3637 -0.4218 -0.3168
  619MOL0     C81583   3.210   5.526   0.827 -0.5190 -0.4601  0.3397
  619MOL0     O81584   3.125   5.608   0.887 -0.7444 -0.4687 -0.2333
  619MOL0     C81585   3.017   5.680   0.820  0.0942 -0.2886  0.7071
  619MOL0     C81586   2.887   5.593   0.795 -0.1191  0.1018  0.5817
  619MOL0     C81587   2.813   5.570   0.925  0.3667 -0.3276 -0.5025
  619MOL0     C81588   2.684   5.493   0.904 -0.0817  0.4272  0.9069
  619MOL0     C81589   2.565   5.562   0.986  0.1634 -0.7439  0.5762
  619MOL0     C81590   2.427   5.492   0.996  0.3258 -0.6122  0.6728
  619MOL0     C81591   2.317   5.577   1.053  0.1061  0.0590 -0.2146
  619MOL0     C81592   2.336   5.625   1.202  0.2587 -0.0096 -0.5094
  619MOL0     N81593   2.207   5.687   1.247  0.4119 -0.1765 -0.0509
  619MOL0     C81594   2.121   5.620   1.329  0.4339  0.3494  0.0544
  619MOL0     C81595   2.010   5.697   1.339  0.2175  0.6684  0.0705
  619MOL0     C81596   1.880   5.654   1.398 -0.0420  0.1355 -0.2332
  619MOL0     C81597   1.878   5.662   1.555  0.0072  0.1017  0.3155
  619MOL0     C81598   1.743   5.645   1.633  0.0719 -0.8813 -0.2966
  619MOL0     C81599   1.629   5.738   1.586 -0.1056 -0.4869 -0.3630
  619MOL0     O81600   1.511   5.710   1.659  0.3325 -0.0874  0.1684
  619MOL0     C81601   1.402   5.786   1.620 -0.0109 -0.4293 -0.6124
  619MOL0     C81602   1.282   5.760   1.690 -0.8080 -0.1183  1.2919
  619MOL0     C81603   1.164   5.825   1.662  0.3891 -0.3473  0.1886
  619MOL0     C81604   1.163   5.927   1.567  0.0235 -0.0788  0.6071
  619MOL0     C81605   1.048   6.010   1.556  0.2915 -0.1127  0.2419
  619MOL0     O81606   0.943   5.988   1.649 -0.3924  0.7379 -0.0819
  619MOL0     C81607   0.815   6.022   1.620 -0.1386 -0.1015  0.1302
  619MOL0     C81608   0.763   6.009   1.493  0.3527 -0.3613  0.6750
  619MOL0     C81609   0.630   6.036   1.460  1.1121  0.2688  0.3198
  619MOL0     C81610   0.544   6.076   1.558  0.3561  0.7656 -0.1483
  619MOL0     O81611   0.406   6.079   1.532 -0.4449 -0.2293  0.2660
  619MOL0     C81612   0.351   5.994   1.439  0.9158 -0.0572 -0.8059
  619MOL0     C81613   0.201   5.966   1.479  0.2837  0.7259  0.2447
  619MOL0     C81614   0.106   6.066   1.414  0.8616  0.2184 -0.0092
  619MOL0     C81615  -0.042   6.033   1.462 -0.6436 -0.4771  0.1596
  619MOL0     C81616  -0.150   6.145   1.452  2.2899 -0.0356 -0.1552
  619MOL0     C81617  -0.297   6.093   1.432 -0.0419 -0.2272  0.0870
  619MOL0     C81618  -0.400   6.202   1.409 -0.1801  0.3863  0.0918
  619MOL0     C81619  -0.419   6.248   1.259 -0.3283  0.5601 -1.0272
  619MOL0    Cl81620  -0.483   6.130   1.137 -0.3325  0.4073  0.0664
  619MOL0     C81621   0.597   6.092   1.690  0.5641  1.2419  0.0853
  619MOL0     C81622   0.732   6.062   1.719  0.1831 -0.5897 -0.4073
  619MOL0     O81623   1.042   6.095   1.471 -0.8429 -0.8862 -0.3899
  619MOL0     C81624   1.280   5.949   1.495  0.0394 -0.5079 -0.2491
  619MOL0     C81625   1.399   5.878   1.518 -0.0205  0.5709  0.0506
  619MOL0     N81626   2.030   5.811   1.269 -0.0608 -0.4596  0.5818
  619MOL0     N81627   2.149   5.807   1.210  1.2554  0.6911  0.5182
  619MOL0     C81628   3.327   5.490   0.889 -0.0250  0.1561  0.3290
  619MOL0     C81629   3.412   5.389   0.842  0.0531  0.7014  0.1017
  619MOL0     C81630   3.679   5.149   0.594 -1.2951 -0.6015  0.2976
  619MOL0     C81631   3.659   5.161   0.455  0.1945  0.2085 -0.5446
  619MOL0     C81632   3.741   5.119   0.362 -1.2468 -0.2027 -0.6753
  619MOL0     C81633   3.867   5.061   0.399 -0.3049  0.4543 -0.1467
  619MOL0     O81634   3.955   5.017   0.300  0.4147  0.0619  0.2422
  619MOL0     C81635   4.093   4.999   0.339 -0.3823 -0.8519 -0.2047
  619MOL0     C81636   4.199   5.030   0.233 -0.2089  0.3880 -0.1047
  619MOL0     C81637   4.199   4.923   0.115 -0.5963  0.0320 -0.5408
  619MOL0     C81638   4.087   4.950   0.009 -0.6391 -0.1255 -0.6193
  619MOL0     C81639   4.076   4.835  -0.081 -0.5138 -0.0596  0.6822
  619MOL0     C81640   4.086   4.744  -0.159 -0.1013  0.2216 -0.0154
  619MOL0     C81641   3.898   5.052   0.537  0.6953  0.3198  0.0590
  619MOL0     C81642   3.802   5.096   0.627  0.2190 -0.5588 -1.0299
  619MOL0     H81643   3.285   5.331   0.545 -0.6982  1.5632 -0.2207
  619MOL0     H81644   3.104   5.496   0.630 -2.4176 -0.7224  2.4976
  619MOL0     H81645   3.055   5.724   0.728  3.3600 -0.0503  2.0193
  619MOL0     H81646   2.997   5.763   0.889  0.2176  0.6231 -0.3251
  619MOL0     H81647   2.918   5.500   0.746  0.1538  0.5685 -0.1502
  619MOL0     H81648   2.809   5.635   0.733  0.2752  0.5607  0.3922
  619MOL0     H81649   2.803   5.668   0.973  1.7200 -0.2935 -0.2298
  619MOL0     H81650   2.863   5.507   1.000 -2.6215 -1.4296  0.7083
  619MOL0     H81651   2.645   5.488   0.802 -0.8974 -0.5575  1.2559
  619MOL0     H81652   2.702   5.387   0.924  0.7251 -0.3781 -3.2303
  619MOL0     H81653   2.538   5.661   0.949  1.0500 -0.9723 -0.7308
  619MOL0     H81654   2.599   5.580   1.089 -0.8840  3.1067  0.4082
  619MOL0     H81655   2.440   5.404   1.060 -0.9744 -0.8181  0.6946
  619MOL0     H81656   2.386   5.460   0.899 -0.3616  1.0812  0.3540
  619MOL0     H81657   2.314   5.659   0.981  1.0203 -0.3249 -0.7113
  619MOL0     H81658   2.220   5.528   1.039  1.1816 -1.5553 -2.8244
  619MOL0     H81659   2.413   5.702   1.216  2.1412 -2.0044  0.7234
  619MOL0     H81660   2.360   5.537   1.261  2.7585  0.0384 -1.3468
  619MOL0     H81661   2.124   5.519   1.369 -5.2012  0.2234  1.0984
  619MOL0     H81662   1.869   5.548   1.374  3.0035 -0.9376  2.3432
  619MOL0     H81663   1.795   5.711   1.358  1.7025  2.2379 -1.1527
  619MOL0     H81664   1.925   5.755   1.587 -0.0410  0.1925  0.1244
  619MOL0     H81665   1.946   5.585   1.593 -1.1000  0.2069  2.6851
  619MOL0     H81666   1.689   5.551   1.617 -2.2316  0.5230 -1.2067
  619MOL0     H81667   1.771   5.658   1.738 -1.7089  2.7222 -0.1219
  619MOL0     H81668   1.612   5.727   1.479 -1.3259  0.3159 -0.2821
  619MOL0     H81669   1.656   5.843   1.601  1.5662 -0.8269 -0.7980
  619MOL0     H81670   1.272   5.688   1.771 -1.0055  0.2703  1.6252
  619MOL0     H81671   1.076   5.795   1.719 -0.2048 -1.6543 -1.3297
  619MOL0     H81672   0.816   5.975   1.404 -3.3874  0.8929 -2.2924
  619MOL0     H81673   0.600   6.030   1.355  0.0991  1.8240  0.4779
  619MOL0     H81674   0.418   5.907   1.435 -0.3081 -1.0488 -0.1753
  619MOL0     H81675   0.364   6.053   1.347  2.5321  0.2017 -0.4444
  619MOL0     H81676   0.186   5.961   1.587  0.2060 -0.6943  0.1873
  619MOL0     H81677   0.182   5.864   1.444  1.9704  0.5649 -0.3039
  619MOL0     H81678   0.104   6.071   1.305 -0.2599 -1.6871 -0.1227
  619MOL0     H81679   0.135   6.164   1.453  1.6491 -0.2170  0.5261
  619MOL0     H81680  -0.073   5.946   1.402  0.2415 -0.1949 -0.7395
  619MOL0     H81681  -0.035   6.013   1.569 -0.1837  1.5659  0.5638
  619MOL0     H81682  -0.132   6.204   1.362 -0.5998 -1.4493 -1.7998
  619MOL0     H81683  -0.153   6.218   1.534  0.3669  2.6703 -2.4376
  619MOL0     H81684  -0.310   6.069   1.538  1.3197 -0.7498  0.1517
  619MOL0     H81685  -0.314   6.005   1.370 -3.9721  0.1219  0.4057
  619MOL0     H81686  -0.493   6.175   1.461  1.8507 -2.3755  2.6173
  619MOL0     H81687  -0.354   6.285   1.463  1.2530 -0.0708 -0.3883
  619MOL0     H81688  -0.325   6.293   1.227 -0.4002  1.5269  0.0479
  619MOL0     H81689  -0.492   6.330   1.259  1.3182  2.1330 -2.6700
  619MOL0     H81690   0.522   6.113   1.766  0.8483 -2.2046  1.4715
  619MOL0     H81691   0.785   6.086   1.810 -1.5678  3.5221 -0.2684
  619MOL0     H81692   1.280   6.033   1.426 -2.7188 -0.7438 -0.6334
  619MOL0     H81693   1.489   5.899   1.462 -0.2840 -1.3394 -1.1936
  619MOL0     H81694   3.351   5.533   0.986 -0.2003  0.7348  0.1175
  619MOL0     H81695   3.497   5.357   0.900 -0.0494 -0.3536 -0.3033
  619MOL0     H81696   3.567   5.204   0.416  0.4868  1.0960 -0.2841
  619MOL0     H81697   3.706   5.125   0.259  0.9129  0.4070 -1.4409
  619MOL0     H81698   4.104   4.897   0.377 -0.0216 -0.8099 -0.1959
  619MOL0     H81699   4.113   5.073   0.418 -2.7996  1.8882 -1.9247
  619MOL0     H81700   4.193   5.131   0.190  2.8278  1.1303  1.0022
  619MOL0     H81701   4.298   5.026   0.278  0.9701 -1.9179 -2.5960
  619MOL0     H81702   4.188   4.818   0.147 -1.3467 -0.7779 -3.1630
  619MOL0     H81703   4.293   4.931   0.060 -1.8046  1.1722 -2.5650
  619MOL0     H81704   3.988   4.956   0.056 -0.6686  1.4121 -0.8123
  619MOL0     H81705   4.110   5.038  -0.052 -1.1701  0.6775  0.3057
  619MOL0     H81706   4.082   4.655  -0.218  1.3093  1.2047 -1.6816
  619MOL0     H81707   3.991   5.005   0.566  1.2755  0.7777 -1.0258
  619MOL0     H81708   3.840   5.082   0.728  2.3017 -0.5419 -1.7587
  620MOL0     O81709  10.488   3.385   2.726 -0.1539  0.4992 -0.3261
  620MOL0     C81710  10.525   3.451   2.824 -0.1286  0.5483 -0.1293
  620MOL0     O81711  10.459   3.458   2.936  0.6291  0.0379 -1.0107
  620MOL0     C81712  10.342   3.383   2.955  0.4412 -0.0230  0.4612
  620MOL0     C81713  10.205   3.426   2.940 -0.2327 -0.3598  0.1841
  620MOL0     C81714  10.105   3.342   2.996  0.4106 -1.1614  0.5817
  620MOL0     C81715  10.140   3.225   3.065  0.2910  0.2374 -0.1758
  620MOL0     O81716  10.029   3.166   3.117  0.5351  0.6369  0.2941
  620MOL0     C81717   9.993   3.028   3.096  1.5719  0.2716 -0.9502
  620MOL0     C81718   9.914   3.008   2.964 -0.3713 -0.2792 -0.5855
  620MOL0     C81719   9.897   2.857   2.955  0.3253  0.1828 -0.0095
  620MOL0     C81720   9.815   2.828   2.829 -0.2329  1.2143  0.8308
  620MOL0     C81721   9.811   2.694   2.771  0.0249  0.2403 -0.1957
  620MOL0     C81722   9.672   2.660   2.709  0.4973  0.0959 -0.6387
  620MOL0     C81723   9.669   2.519   2.629 -0.1224 -0.1230  0.5490
  620MOL0     C81724   9.661   2.398   2.723 -0.3847 -0.6899 -0.1196
  620MOL0     N81725   9.523   2.390   2.776 -0.3489  0.8083  0.0295
  620MOL0     C81726   9.410   2.456   2.738  0.3015 -0.1577  0.9430
  620MOL0     C81727   9.312   2.422   2.837 -0.0908 -0.7742 -0.1515
  620MOL0     C81728   9.166   2.472   2.830  0.4728 -0.2044 -0.0171
  620MOL0     C81729   9.061   2.362   2.778 -0.2357 -0.9128  0.8440
  620MOL0     C81730   9.038   2.254   2.876 -0.3049 -0.6294 -0.2501
  620MOL0     C81731   8.902   2.275   2.958  0.1670  0.3322 -0.3363
  620MOL0     O81732   8.916   2.398   3.039  0.7412  0.2987  0.1599
  620MOL0     C81733   8.802   2.466   3.090 -0.0934  0.4496  0.4020
  620MOL0     C81734   8.676   2.416   3.080  0.5400  0.8123  0.2536
  620MOL0     C81735   8.561   2.478   3.137 -0.5282  0.4620  0.1068
  620MOL0     C81736   8.584   2.602   3.190 -0.1772 -0.6963  0.1707
  620MOL0     C81737   8.460   2.667   3.237  0.2071  0.0591 -0.4054
  620MOL0     O81738   8.479   2.779   3.307 -0.3762  0.3705  0.7119
  620MOL0     C81739   8.354   2.843   3.339 -0.2929 -0.1627 -0.2906
  620MOL0     C81740   8.297   2.950   3.268 -0.5931  0.1352  0.0779
  620MOL0     C81741   8.174   3.016   3.307  0.4210  0.9021  0.7903
  620MOL0     C81742   8.102   2.966   3.416  0.1147  0.6825 -0.1995
  620MOL0     O81743   7.979   3.007   3.457 -0.0774  0.5377  0.6262
  620MOL0     C81744   7.903   3.092   3.368 -0.0766  0.2971 -0.4473
  620MOL0     C81745   7.768   3.117   3.448  0.7185  0.6916  0.0953
  620MOL0     C81746   7.651   3.165   3.358  0.1791 -0.1746  0.9333
  620MOL0     C81747   7.692   3.301   3.294 -0.2739 -0.7094  0.6716
  620MOL0     C81748   7.572   3.378   3.233  1.0989  0.3463  0.5597
  620MOL0     C81749   7.481   3.445   3.341  0.3403  0.4123 -0.4575
  620MOL0     C81750   7.381   3.545   3.279  1.3994  0.0797  0.2779
  620MOL0     C81751   7.252   3.545   3.359 -0.2442  0.1070  0.0408
  620MOL0    Cl81752   7.285   3.594   3.526  0.5474 -0.3445 -0.2618
  620MOL0     C81753   8.157   2.849   3.484 -0.0862  0.1143 -0.6769
  620MOL0     C81754   8.281   2.795   3.446 -0.9293  0.4457 -0.3882
  620MOL0     O81755   8.347   2.625   3.210  0.5996  0.3915 -0.5346
  620MOL0     C81756   8.708   2.657   3.200 -0.1391  0.0025  0.8304
  620MOL0     C81757   8.820   2.592   3.149  0.5551 -0.9615 -0.4768
  620MOL0     N81758   9.368   2.344   2.928  0.2887 -0.4826 -0.5532
  620MOL0     N81759   9.497   2.338   2.902 -0.2917  0.2828  0.2762
  620MOL0     C81760  10.270   3.180   3.057  0.2748  0.0068 -0.5164
  620MOL0     C81761  10.373   3.258   3.012 -0.8635 -0.2733 -0.2756
  620MOL0     C81762  10.668   3.496   2.825 -0.2419 -0.6748 -0.6698
  620MOL0     C81763  10.706   3.598   2.916  0.4479 -0.1331  0.8953
  620MOL0     C81764  10.835   3.641   2.921  0.1017  0.1058  0.1861
  620MOL0     C81765  10.931   3.583   2.835 -1.4670 -0.4370  0.4732
  620MOL0     O81766  11.066   3.619   2.834 -0.0277  0.5969 -0.2824
  620MOL0     C81767  11.140   3.653   2.956  1.0034  0.1652  0.1216
  620MOL0     C81768  11.178   3.799   2.958  1.0137  0.3578  0.5135
  620MOL0     C81769  11.230   3.852   2.824 -0.4902 -0.5698 -0.9183
  620MOL0     C81770  11.255   4.002   2.828 -0.3350  0.7316  0.2461
  620MOL0     C81771  11.355   4.047   2.726  0.4858 -0.6253  0.0970
  620MOL0     C81772  11.432   4.097   2.653 -0.2588 -0.1364  0.3484
  620MOL0     C81773  10.893   3.494   2.740  0.2678  0.4320 -0.0204
  620MOL0     C81774  10.760   3.448   2.730 -0.1043 -0.2033  0.2414
  620MOL0     H81775  10.179   3.522   2.896 -0.8934 -1.1002 -1.0809
  620MOL0     H81776  10.001   3.367   2.979  0.9983  0.4901 -0.8085
  620MOL0     H81777   9.921   3.000   3.173  1.3707  1.1513 -0.8034
  620MOL0     H81778  10.082   2.965   3.095  2.3200  1.2257  0.6337
  620MOL0     H81779   9.961   3.050   2.875 -1.0484 -3.2693 -2.4774
  620MOL0     H81780   9.815   3.053   2.975 -0.3907 -0.6966  1.5112
  620MOL0     H81781   9.847   2.822   3.046  0.1118  0.2423 -0.1024
  620MOL0     H81782   9.992   2.802   2.949 -0.4873 -1.1317 -2.3598
  620MOL0     H81783   9.712   2.861   2.845 -1.3980  0.6470 -4.0074
  620MOL0     H81784   9.849   2.890   2.745 -1.9825 -1.3181 -1.9553
  620MOL0     H81785   9.828   2.612   2.842 -1.0608  0.7209  0.6489
  620MOL0     H81786   9.894   2.679   2.701 -0.0316 -4.4649  0.3708
  620MOL0     H81787   9.642   2.733   2.632 -5.3821  0.5683  1.5835
  620MOL0     H81788   9.600   2.667   2.791 -1.0421  0.5654 -1.9500
  620MOL0     H81789   9.593   2.540   2.554  1.6126  2.5280 -0.6400
  620MOL0     H81790   9.761   2.514   2.569 -1.2023 -2.0191 -1.0320
  620MOL0     H81791   9.728   2.394   2.809 -0.8028 -2.7230  0.1769
  620MOL0     H81792   9.680   2.308   2.663  0.3084 -0.0806 -0.8461
  620MOL0     H81793   9.390   2.511   2.647 -2.1810  3.3746  3.3372
  620MOL0     H81794   9.172   2.566   2.774 -2.0334  3.0464  4.4345
  620MOL0     H81795   9.121   2.505   2.924  2.6146 -1.1983  1.4277
  620MOL0     H81796   9.087   2.323   2.680 -1.0318 -0.2030  0.3288
  620MOL0     H81797   8.961   2.405   2.768 -0.3529 -1.3337  0.1431
  620MOL0     H81798   9.019   2.161   2.821 -1.6222  0.7306 -2.2367
  620MOL0     H81799   9.119   2.248   2.950 -0.1427  1.9464 -0.1426
  620MOL0     H81800   8.874   2.190   3.020  1.5569  1.5648  2.1444
  620MOL0     H81801   8.826   2.268   2.879 -0.7903 -1.4386  0.6955
  620MOL0     H81802   8.657   2.323   3.028 -0.0334  0.6869  0.6819
  620MOL0     H81803   8.462   2.433   3.134 -1.7037  2.8687  0.3576
  620MOL0     H81804   8.343   2.977   3.174 -0.9321  0.5658  0.0344
  620MOL0     H81805   8.146   3.103   3.250  0.8021  1.2595  1.1336
  620MOL0     H81806   7.886   3.035   3.276 -0.0268  0.8717 -0.8140
  620MOL0     H81807   7.960   3.184   3.354 -1.0841  0.9783 -0.2007
  620MOL0     H81808   7.783   3.185   3.533 -1.9209  0.1440  1.0986
  620MOL0     H81809   7.741   3.022   3.496  1.4374  0.2240 -0.4006
  620MOL0     H81810   7.554   3.181   3.407 -1.0793 -1.1351 -1.1181
  620MOL0     H81811   7.637   3.088   3.281 -1.1376  1.2902 -0.3766
  620MOL0     H81812   7.736   3.361   3.375  0.3448  0.6178 -0.6001
  620MOL0     H81813   7.764   3.290   3.213 -2.3922  0.7601 -1.5494
  620MOL0     H81814   7.522   3.302   3.173  1.7601 -0.4887  1.0417
  620MOL0     H81815   7.618   3.450   3.164  1.0118 -1.0481 -1.0154
  620MOL0     H81816   7.538   3.493   3.421  0.9990  1.2320 -1.3859
  620MOL0     H81817   7.416   3.368   3.383 -2.1157  2.3782 -0.4104
  620MOL0     H81818   7.406   3.652   3.274 -1.7684  0.9737  1.5532
  620MOL0     H81819   7.351   3.504   3.182 -0.1665 -3.6208  2.1339
  620MOL0     H81820   7.223   3.440   3.358  0.3482 -0.0883 -1.7408
  620MOL0     H81821   7.173   3.611   3.321  1.6273  3.7041  1.9037
  620MOL0     H81822   8.101   2.797   3.562  1.3218 -1.5106 -0.6822
  620MOL0     H81823   8.324   2.716   3.508 -1.6668  0.2530 -0.1097
  620MOL0     H81824   8.722   2.750   3.253  0.6212 -0.3254  1.2296
  620MOL0     H81825   8.916   2.640   3.168  0.5862 -1.5669  1.0285
  620MOL0     H81826  10.285   3.082   3.103  0.2636  1.3664  2.6437
  620MOL0     H81827  10.474   3.220   3.018 -0.2942  1.3560  2.1473
  620MOL0     H81828  10.626   3.618   2.987  2.6590  0.1302  3.4582
  620MOL0     H81829  10.865   3.707   3.002  2.0583 -1.8570  1.1913
  620MOL0     H81830  11.236   3.602   2.971 -0.1308 -1.7138  1.3130
  620MOL0     H81831  11.089   3.631   3.050  0.5479 -2.0421 -0.5831
  620MOL0     H81832  11.100   3.866   2.994  1.1602  3.2114 -3.7158
  620MOL0     H81833  11.263   3.811   3.027 -0.2720  0.6582  2.1096
  620MOL0     H81834  11.164   3.832   2.739  1.9644 -1.5013 -2.7315
  620MOL0     H81835  11.332   3.814   2.813 -0.4850 -0.0138 -3.2108
  620MOL0     H81836  11.163   4.058   2.811 -0.0709  0.5722 -2.1813
  620MOL0     H81837  11.299   4.033   2.923  2.3017  1.7976 -1.1916
  620MOL0     H81838  11.488   4.155   2.582 -0.8677  2.2509  1.7156
  620MOL0     H81839  10.961   3.459   2.663 -0.4441 -0.4437 -0.2726
  620MOL0     H81840  10.735   3.383   2.648 -1.4681 -1.3987  1.5471
  621MOL0     O81841   9.358   2.190   9.248 -0.1603  0.3101  0.4305
  621MOL0     C81842   9.447   2.131   9.193  0.0886  0.9906  0.1170
  621MOL0     O81843   9.431   2.011   9.122  0.3920  0.0273 -0.3608
  621MOL0     C81844   9.311   1.934   9.138  0.2365 -0.0780 -0.1910
  621MOL0     C81845   9.304   1.860   9.264 -0.5098 -0.9394  0.3733
  621MOL0     C81846   9.179   1.797   9.287 -0.0392  0.5208 -0.3543
  621MOL0     C81847   9.076   1.792   9.188  0.4071  0.3339 -0.2615
  621MOL0     O81848   8.962   1.716   9.192 -0.5201 -0.1205 -0.1772
  621MOL0     C81849   8.958   1.588   9.260 -0.1808  0.1015 -0.6087
  621MOL0     C81850   8.822   1.522   9.249  0.4514 -0.6753  0.3479
  621MOL0     C81851   8.792   1.473   9.108 -0.3281  0.2072  0.2786
  621MOL0     C81852   8.660   1.397   9.093 -0.4432  0.1673 -0.4303
  621MOL0     C81853   8.663   1.336   8.948 -0.5748 -0.3143  0.0454
  621MOL0     C81854   8.557   1.226   8.926 -0.0044 -0.6786 -0.6983
  621MOL0     C81855   8.407   1.265   8.938  0.6531  0.0221 -0.3299
  621MOL0     C81856   8.380   1.383   8.845  0.5616 -0.3736 -0.3625
  621MOL0     N81857   8.235   1.391   8.826 -0.0107  0.3428 -0.7882
  621MOL0     C81858   8.142   1.419   8.925  0.5926 -0.1631  1.2966
  621MOL0     C81859   8.028   1.374   8.878  0.8393  0.4347 -0.8562
  621MOL0     C81860   7.890   1.389   8.929  0.1068  0.4316 -0.7796
  621MOL0     C81861   7.876   1.349   9.080 -0.0105 -0.0675  1.0169
  621MOL0     C81862   7.744   1.373   9.137  0.7810  0.8290 -0.9914
  621MOL0     C81863   7.626   1.296   9.067  0.2023  0.2779 -0.6318
  621MOL0     O81864   7.514   1.342   9.143  0.3945  0.1565 -0.5354
  621MOL0     C81865   7.385   1.318   9.095  0.3603  0.6339 -0.4838
  621MOL0     C81866   7.366   1.258   8.963 -0.1830  0.1702  0.4993
  621MOL0     C81867   7.239   1.236   8.917 -0.6375 -0.0364  0.7467
  621MOL0     C81868   7.126   1.264   8.996  0.9129  0.2766  0.8075
  621MOL0     C81869   6.980   1.256   8.952 -0.4318  0.6215  0.6837
  621MOL0     O81870   6.883   1.256   9.042 -0.1414  0.2006 -0.1305
  621MOL0     C81871   6.759   1.191   9.017 -0.0917  1.0181 -0.9913
  621MOL0     C81872   6.648   1.239   9.093  0.4766  0.4022 -0.2975
  621MOL0     C81873   6.513   1.177   9.087  0.1906  0.7891 -0.1538
  621MOL0     C81874   6.499   1.062   9.007  0.8566  0.0855 -0.9546
  621MOL0     O81875   6.365   1.024   8.993  0.1356  0.4005 -0.2733
  621MOL0     C81876   6.343   0.890   8.942 -0.1134 -0.3950  0.4882
  621MOL0     C81877   6.223   0.821   8.993  0.0565  1.2197 -0.1030
  621MOL0     C81878   6.207   0.673   8.973  0.9523 -0.4298  0.0183
  621MOL0     C81879   6.314   0.602   9.060  0.2482  0.6146 -0.0890
  621MOL0     C81880   6.315   0.454   9.043  1.1204  0.8866 -0.0781
  621MOL0     C81881   6.444   0.388   9.080 -0.2306  0.0286 -0.3376
  621MOL0     C81882   6.505   0.416   9.214 -0.1252 -0.3234  0.5857
  621MOL0     C81883   6.612   0.323   9.252 -0.2181  0.7681  0.6686
  621MOL0    Cl81884   6.745   0.334   9.133  0.4118  0.1061 -0.3290
  621MOL0     C81885   6.612   1.011   8.929  0.2863  0.0477 -0.8066
  621MOL0     C81886   6.736   1.080   8.941 -0.1594 -0.2008  0.4866
  621MOL0     O81887   6.962   1.223   8.832 -0.5037 -0.6668 -0.8652
  621MOL0     C81888   7.146   1.300   9.129 -0.2101 -0.7662 -0.2089
  621MOL0     C81889   7.271   1.325   9.176 -0.6023 -0.7401  0.2197
  621MOL0     N81890   8.040   1.313   8.756  0.3554  1.2390 -0.1333
  621MOL0     N81891   8.166   1.302   8.735 -0.0625 -0.2847 -0.7835
  621MOL0     C81892   9.088   1.863   9.076 -0.3961  0.3123 -0.3475
  621MOL0     C81893   9.202   1.937   9.047  0.1672  0.3830 -0.2359
  621MOL0     C81894   9.581   2.196   9.197  1.0767 -0.5660 -0.3267
  621MOL0     C81895   9.597   2.313   9.272 -0.2319  0.0455 -0.0394
  621MOL0     C81896   9.721   2.383   9.275  0.1094  0.1829  0.0094
  621MOL0     C81897   9.831   2.323   9.201 -0.3268 -0.4502 -0.6665
  621MOL0     O81898   9.959   2.375   9.193  1.0878 -1.0758  0.2451
  621MOL0     C81899   9.989   2.482   9.289 -0.6475  0.7641  0.3561
  621MOL0     C81900   9.980   2.609   9.208 -0.4361 -0.1554  0.1247
  621MOL0     C81901   9.959   2.722   9.313 -0.2087 -0.4308 -0.6354
  621MOL0     C81902   9.984   2.868   9.249  0.6847 -0.0235 -0.4809
  621MOL0     C81903   9.952   2.966   9.359 -0.2206  0.7787  1.0825
  621MOL0     C81904   9.948   3.066   9.434 -0.2713  0.0856  0.4550
  621MOL0     C81905   9.811   2.195   9.142 -0.1497  0.7872  0.3413
  621MOL0     C81906   9.684   2.130   9.138 -0.4931 -0.5300 -0.7102
  621MOL0     H81907   9.383   1.850   9.338  0.0664  1.8063  0.2656
  621MOL0     H81908   9.165   1.732   9.372 -1.4092  0.9368 -0.2394
  621MOL0     H81909   8.970   1.585   9.369  0.0471 -4.2063 -0.5585
  621MOL0     H81910   9.040   1.530   9.216 -1.3903 -0.0567 -2.8047
  621MOL0     H81911   8.745   1.586   9.293 -0.9909 -1.3648 -1.0436
  621MOL0     H81912   8.833   1.435   9.315  0.6378  1.0464  2.6973
  621MOL0     H81913   8.870   1.405   9.073  0.1067 -1.1452  3.4811
  621MOL0     H81914   8.795   1.556   9.037 -2.3964  0.4234  0.3614
  621MOL0     H81915   8.647   1.318   9.167 -1.2218  0.4071 -0.2920
  621MOL0     H81916   8.575   1.462   9.116 -1.5554 -1.5202  0.4272
  621MOL0     H81917   8.752   1.271   8.946 -2.7587 -3.5975  0.8835
  621MOL0     H81918   8.652   1.409   8.868  0.1442  0.9665  1.0708
  621MOL0     H81919   8.557   1.153   9.007 -2.3918 -1.4864 -1.3378
  621MOL0     H81920   8.572   1.173   8.831  0.9639  0.5055 -1.2356
  621MOL0     H81921   8.348   1.177   8.912 -1.6178  1.0798  0.9651
  621MOL0     H81922   8.373   1.285   9.040  3.1372 -2.3592  1.0850
  621MOL0     H81923   8.433   1.386   8.749  1.4629  1.8673  0.1355
  621MOL0     H81924   8.413   1.472   8.900 -3.3267  1.5974 -0.9110
  621MOL0     H81925   8.166   1.467   9.019  3.8897 -2.0760  1.5835
  621MOL0     H81926   7.822   1.320   8.878 -0.3978 -0.6638  1.2636
  621MOL0     H81927   7.858   1.492   8.913  0.1530  0.7594  1.0083
  621MOL0     H81928   7.947   1.399   9.145 -1.7810  0.1236  2.9021
  621MOL0     H81929   7.894   1.241   9.084  0.1212 -0.0145  1.9210
  621MOL0     H81930   7.736   1.341   9.241 -1.2479  0.7246 -1.1351
  621MOL0     H81931   7.738   1.482   9.134  2.0241  0.9019 -1.3352
  621MOL0     H81932   7.628   1.186   9.071 -1.7214  0.2085 -0.7205
  621MOL0     H81933   7.619   1.332   8.964  2.7828  0.0593 -0.9630
  621MOL0     H81934   7.450   1.222   8.905 -0.8898 -2.0339  0.7540
  621MOL0     H81935   7.225   1.201   8.815 -0.7436  1.4609  0.2293
  621MOL0     H81936   6.648   1.329   9.153  0.1928  0.6309 -0.6300
  621MOL0     H81937   6.431   1.208   9.151 -1.2188 -2.6686 -0.0757
  621MOL0     H81938   6.426   0.823   8.966 -0.6963 -1.2519  0.1263
  621MOL0     H81939   6.353   0.898   8.834  1.9114  0.1431  0.6581
  621MOL0     H81940   6.148   0.877   8.936  1.3271  1.4721 -1.6057
  621MOL0     H81941   6.198   0.843   9.097 -3.0742  0.4244 -0.5837
  621MOL0     H81942   6.208   0.647   8.867 -3.3354 -0.8059 -0.1041
  621MOL0     H81943   6.106   0.643   9.002  2.4211 -3.0709  3.0600
  621MOL0     H81944   6.414   0.643   9.041  2.0903 -1.6071  3.6540
  621MOL0     H81945   6.298   0.621   9.166 -0.0964  0.0679 -0.0418
  621MOL0     H81946   6.290   0.431   8.939 -0.9512  0.9101  0.3539
  621MOL0     H81947   6.234   0.409   9.102 -1.6178 -0.1524 -4.1827
  621MOL0     H81948   6.518   0.408   9.002 -0.5790  0.5659 -0.5334
  621MOL0     H81949   6.424   0.280   9.084 -1.6714  0.3085  2.0661
  621MOL0     H81950   6.540   0.520   9.214 -1.5648  0.2238 -0.8414
  621MOL0     H81951   6.428   0.420   9.292  1.2571  1.7402  1.9637
  621MOL0     H81952   6.571   0.222   9.251  0.7951  0.3324 -0.7484
  621MOL0     H81953   6.647   0.350   9.352  1.7797  0.0428  0.2226
  621MOL0     H81954   6.597   0.928   8.860 -1.4433  0.4271 -0.9341
  621MOL0     H81955   6.820   1.027   8.897  0.0216 -0.1119  0.7237
  621MOL0     H81956   7.057   1.326   9.186 -1.3874  2.7951 -3.2738
  621MOL0     H81957   7.271   1.350   9.282 -0.0915 -0.2021  0.0981
  621MOL0     H81958   9.008   1.875   9.004 -1.7871 -0.0712  1.0834
  621MOL0     H81959   9.207   1.995   8.955  0.2131 -0.7651 -0.9879
  621MOL0     H81960   9.510   2.358   9.318 -2.2970 -0.0643 -3.5152
  621MOL0     H81961   9.734   2.475   9.332  2.0740 -0.2873  0.3864
  621MOL0     H81962  10.086   2.456   9.332 -0.4135 -0.4218 -0.8333
  621MOL0     H81963   9.919   2.482   9.373 -0.3448 -2.6047  0.7411
  621MOL0     H81964  10.075   2.627   9.157 -2.3300  3.5316 -2.6197
  621MOL0     H81965   9.904   2.597   9.131  0.9246  2.1218 -1.7335
  621MOL0     H81966  10.030   2.691   9.390  1.2274  1.7349 -0.9796
  621MOL0     H81967   9.859   2.717   9.356  0.1278  4.9659  1.5423
  621MOL0     H81968  10.089   2.883   9.222  0.1565  2.5137 -1.3625
  621MOL0     H81969   9.924   2.881   9.158  1.7311  0.7870 -1.0773
  621MOL0     H81970   9.960   3.150   9.499  3.2719 -0.7552  1.0729
  621MOL0     H81971   9.893   2.145   9.091 -1.1382 -0.2593 -0.2789
  621MOL0     H81972   9.671   2.031   9.096  0.0882 -0.0020 -2.2020
  622MOL0     O81973   8.191   0.619   6.799 -0.3743  0.4692 -0.0268
  622MOL0     C81974   8.275   0.550   6.742 -0.2678 -0.0297  0.7846
  622MOL0     O81975   8.261   0.492   6.619  0.0411  0.5065 -0.2844
  622MOL0     C81976   8.144   0.500   6.549 -0.0010 -0.3843  0.7851
  622MOL0     C81977   8.149   0.548   6.416  0.9079 -0.2744  0.1501
  622MOL0     C81978   8.027   0.570   6.343 -0.3989  0.6949 -0.5812
  622MOL0     C81979   7.910   0.553   6.415 -0.1733 -0.8575  0.6019
  622MOL0     O81980   7.785   0.570   6.356  0.1604 -0.0123  0.2996
  622MOL0     C81981   7.731   0.701   6.357 -0.0751 -0.1364  0.0804
  622MOL0     C81982   7.586   0.686   6.336  0.4152 -0.7705  0.7773
  622MOL0     C81983   7.513   0.820   6.361  0.0604 -0.2789  0.1851
  622MOL0     C81984   7.531   0.912   6.251  0.3419 -0.7290  0.4355
  622MOL0     C81985   7.463   1.052   6.276 -0.2371 -0.1623  0.1933
  622MOL0     C81986   7.480   1.138   6.140  0.2267  0.6180 -0.2605
  622MOL0     C81987   7.409   1.277   6.152  0.1702 -0.4380  0.0365
  622MOL0     C81988   7.465   1.391   6.065 -0.4866 -0.4303 -0.1230
  622MOL0     N81989   7.383   1.411   5.940 -0.8835  0.0066  0.8083
  622MOL0     C81990   7.435   1.378   5.810 -0.3865 -0.6154 -0.1771
  622MOL0     C81991   7.341   1.422   5.721  0.0573  0.1664  0.9611
  622MOL0     C81992   7.359   1.392   5.578 -0.0991 -0.8077 -0.2738
  622MOL0     C81993   7.218   1.380   5.504  0.6692 -0.2047 -1.0544
  622MOL0     C81994   7.243   1.287   5.391  0.0800  0.4284 -0.8076
  622MOL0     C81995   7.112   1.245   5.321 -0.6741 -0.4415  0.7533
  622MOL0     O81996   7.019   1.186   5.413  0.5005  0.9092  0.0685
  622MOL0     C81997   6.881   1.210   5.415 -1.0678 -0.3232  0.8252
  622MOL0     C81998   6.828   1.165   5.533  1.1430 -0.6052  0.0523
  622MOL0     C81999   6.688   1.179   5.555 -0.3837 -1.1719  0.5913
  622MOL0     C82000   6.611   1.231   5.450  0.2735  0.2071  0.1567
  622MOL0     C82001   6.463   1.230   5.452 -1.4674  0.5397 -0.3117
  622MOL0     O82002   6.391   1.271   5.346 -0.4422  0.1111 -0.0941
  622MOL0     C82003   6.253   1.290   5.331 -0.4100 -0.0934  0.8270
  622MOL0     C82004   6.166   1.181   5.314 -0.2192 -0.0649 -0.6303
  622MOL0     C82005   6.029   1.197   5.296  0.7663  0.4785  1.3552
  622MOL0     C82006   5.974   1.332   5.307 -0.9510 -0.2839 -0.2017
  622MOL0     O82007   5.837   1.347   5.279 -0.3182 -0.1967  0.2632
  622MOL0     C82008   5.788   1.475   5.250  0.8911 -1.1083 -0.2142
  622MOL0     C82009   5.639   1.479   5.225 -0.7941  0.2125 -1.1328
  622MOL0     C82010   5.599   1.620   5.192 -0.1407 -0.0385  0.5215
  622MOL0     C82011   5.448   1.610   5.171 -0.0785 -0.3390  0.4069
  622MOL0     C82012   5.388   1.739   5.132  0.4509 -0.1592  1.3148
  622MOL0     C82013   5.241   1.742   5.083 -0.3785 -1.1021  0.0172
  622MOL0     C82014   5.145   1.713   5.194 -0.6304  0.5385 -0.4519
  622MOL0     C82015   5.025   1.642   5.137  1.0969  1.4116 -1.1130
  622MOL0    Cl82016   4.961   1.753   5.004 -0.1084 -0.0356  0.4701
  622MOL0     C82017   6.065   1.432   5.324  0.1423 -0.7339  0.2711
  622MOL0     C82018   6.201   1.418   5.333 -0.5744 -0.5351 -0.0767
  622MOL0     O82019   6.414   1.211   5.560 -0.2817 -0.3552  0.6737
  622MOL0     C82020   6.672   1.284   5.328  0.2013  0.1920  0.0138
  622MOL0     C82021   6.808   1.268   5.314  0.9212 -0.0953 -0.0591
  622MOL0     N82022   7.240   1.485   5.794 -0.0603  0.0485  0.1012
  622MOL0     N82023   7.274   1.488   5.919  0.1260  0.0996 -0.5011
  622MOL0     C82024   7.904   0.509   6.549 -0.8496  0.0246 -0.0552
  622MOL0     C82025   8.024   0.470   6.609  0.7001 -0.7566 -0.0516
  622MOL0     C82026   8.396   0.512   6.817 -0.2503 -0.2882 -0.8468
  622MOL0     C82027   8.493   0.432   6.767  0.6908 -0.1435 -0.7554
  622MOL0     C82028   8.614   0.406   6.827  0.0399  0.5830 -0.5969
  622MOL0     C82029   8.634   0.458   6.960  0.0761  0.8825 -0.1599
  622MOL0     O82030   8.759   0.456   7.019  0.2064  0.5387  0.2966
  622MOL0     C82031   8.817   0.327   7.050  0.4121 -0.0493  0.8272
  622MOL0     C82032   8.964   0.353   7.100 -0.8936 -0.0648  0.9989
  622MOL0     C82033   9.033   0.227   7.115  0.1007  0.2464 -0.2986
  622MOL0     C82034   9.182   0.228   7.115 -0.4982 -0.6889  0.4250
  622MOL0     C82035   9.240   0.310   7.217  0.6640 -0.1495 -1.0933
  622MOL0     C82036   9.279   0.384   7.314 -0.2662  0.3868  0.2897
  622MOL0     C82037   8.543   0.545   7.015  0.4922 -0.0930  0.2353
  622MOL0     C82038   8.424   0.576   6.942  0.0864 -0.2675 -1.0855
  622MOL0     H82039   8.243   0.568   6.367 -0.0089  2.2523 -0.7362
  622MOL0     H82040   8.018   0.600   6.239 -3.1276  4.9153  0.5957
  622MOL0     H82041   7.774   0.752   6.271 -0.2491 -1.5057 -0.8515
  622MOL0     H82042   7.746   0.763   6.446  0.1020  0.9679 -0.6983
  622MOL0     H82043   7.551   0.611   6.407 -0.9202 -0.0593  0.9144
  622MOL0     H82044   7.575   0.642   6.237 -3.1963  0.3286  0.5564
  622MOL0     H82045   7.542   0.868   6.455 -1.4011 -0.9490  1.0018
  622MOL0     H82046   7.406   0.799   6.365 -0.2437  0.5838 -1.9408
  622MOL0     H82047   7.640   0.925   6.244  0.0823  1.5723 -0.0060
  622MOL0     H82048   7.492   0.880   6.154  3.6650  1.7578 -1.9554
  622MOL0     H82049   7.510   1.102   6.361  1.2955 -2.7991  1.0096
  622MOL0     H82050   7.358   1.038   6.302 -0.0363 -0.7001  0.7545
  622MOL0     H82051   7.452   1.077   6.054 -0.5664 -1.8396  1.6040
  622MOL0     H82052   7.585   1.151   6.115  0.4381 -2.0939 -1.0773
  622MOL0     H82053   7.304   1.259   6.129 -0.2178 -2.2039  2.7733
  622MOL0     H82054   7.416   1.323   6.251  1.4285  1.9446 -1.0558
  622MOL0     H82055   7.567   1.364   6.038 -0.8800 -1.4719 -0.5971
  622MOL0     H82056   7.460   1.481   6.127 -1.9259 -1.3327  1.1462
  622MOL0     H82057   7.524   1.329   5.773 -0.4230 -0.6797 -0.1813
  622MOL0     H82058   7.406   1.294   5.569  1.1983 -0.0924 -1.8690
  622MOL0     H82059   7.429   1.460   5.528 -0.1344  0.0239  0.7586
  622MOL0     H82060   7.171   1.475   5.476  0.9629  1.0882  2.3769
  622MOL0     H82061   7.148   1.342   5.579 -0.7279  1.4595 -1.4538
  622MOL0     H82062   7.298   1.331   5.307  0.8790 -1.7951 -1.5187
  622MOL0     H82063   7.297   1.200   5.429 -0.4732  0.1844 -0.5571
  622MOL0     H82064   7.129   1.176   5.238  2.4510 -0.5799  1.3639
  622MOL0     H82065   7.077   1.342   5.285 -0.1290 -1.4214 -2.8284
  622MOL0     H82066   6.897   1.127   5.608  1.6562 -2.2875 -1.2268
  622MOL0     H82067   6.644   1.143   5.648 -0.0341 -0.8029  0.9038
  622MOL0     H82068   6.211   1.082   5.310 -2.7148 -1.2937 -0.4410
  622MOL0     H82069   5.963   1.113   5.277 -0.5632  1.8090 -0.3619
  622MOL0     H82070   5.836   1.526   5.166 -0.6643  0.5072 -0.1810
  622MOL0     H82071   5.794   1.540   5.338 -3.9338  2.1087 -1.8208
  622MOL0     H82072   5.582   1.441   5.310 -0.4021 -3.5336 -2.3221
  622MOL0     H82073   5.615   1.409   5.144 -1.3373 -1.7297  0.6171
  622MOL0     H82074   5.659   1.666   5.113  2.5509 -0.3536  2.2546
  622MOL0     H82075   5.627   1.680   5.279  1.7405 -0.0751 -0.0084
  622MOL0     H82076   5.427   1.539   5.091  3.6037 -1.5093  0.2796
  622MOL0     H82077   5.402   1.565   5.260 -1.7293  2.5801  1.1447
  622MOL0     H82078   5.458   1.789   5.064  0.6466 -0.4973  1.2628
  622MOL0     H82079   5.390   1.813   5.212  0.8151  2.3740 -0.8811
  622MOL0     H82080   5.240   1.668   5.002 -1.3634 -1.0540 -0.0207
  622MOL0     H82081   5.218   1.834   5.030 -0.4682 -1.9621 -1.5017
  622MOL0     H82082   5.189   1.650   5.273  0.2937  1.9078  0.1561
  622MOL0     H82083   5.135   1.807   5.249 -2.3737 -1.3657  2.8023
  622MOL0     H82084   4.957   1.632   5.222  5.2835  2.2337  2.7266
  622MOL0     H82085   5.061   1.548   5.094  3.2539  1.5656  0.2241
  622MOL0     H82086   6.026   1.533   5.320  3.4088  0.7381  1.9104
  622MOL0     H82087   6.258   1.508   5.352 -0.7664  0.0953 -2.1743
  622MOL0     H82088   6.618   1.329   5.246 -0.7798 -0.0209  0.5369
  622MOL0     H82089   6.840   1.300   5.216  1.1001  0.4254  0.1672
  622MOL0     H82090   7.805   0.515   6.592 -2.0674  0.0617 -2.6280
  622MOL0     H82091   8.035   0.439   6.712  1.8837 -1.6479 -0.4116
  622MOL0     H82092   8.478   0.377   6.675  0.2554 -2.8829  0.8219
  622MOL0     H82093   8.693   0.351   6.778  2.0024  0.7413  2.1259
  622MOL0     H82094   8.827   0.272   6.957  0.8691 -1.2376  1.5552
  622MOL0     H82095   8.761   0.269   7.124 -0.0109  0.3935  0.8551
  622MOL0     H82096   9.015   0.407   7.019  0.9614 -0.7383  1.6670
  622MOL0     H82097   8.969   0.413   7.191 -2.8133 -0.8424  1.6578
  622MOL0     H82098   9.000   0.160   7.035  2.1301  1.2524 -2.0742
  622MOL0     H82099   9.002   0.183   7.210  1.0263  1.1224  0.4190
  622MOL0     H82100   9.219   0.125   7.126  0.8253 -0.4186 -1.0383
  622MOL0     H82101   9.227   0.269   7.024  1.6142  0.1524  1.7687
  622MOL0     H82102   9.321   0.435   7.398  0.6538 -0.6915  0.5030
  622MOL0     H82103   8.567   0.588   7.112  0.5207  0.5275 -0.0472
  622MOL0     H82104   8.366   0.653   6.993 -0.3158 -0.8794 -0.5911
  623MOL0     O82105   7.719   2.309   1.316 -0.2132  0.5099 -0.4912
  623MOL0     C82106   7.720   2.204   1.246 -0.2605 -0.0603 -0.4223
  623MOL0     O82107   7.611   2.131   1.234  0.0644  0.2809  0.0409
  623MOL0     C82108   7.495   2.170   1.290  0.5009  0.1562 -0.0847
  623MOL0     C82109   7.461   2.158   1.423 -0.9640  0.3744 -1.1949
  623MOL0     C82110   7.333   2.191   1.469 -0.1303  0.1402 -0.3948
  623MOL0     C82111   7.237   2.240   1.381 -0.3146  0.1765  0.0120
  623MOL0     O82112   7.108   2.275   1.416 -0.0553  0.3104  0.2029
  623MOL0     C82113   7.079   2.293   1.558 -1.1302  0.5556  0.7491
  623MOL0     C82114   6.953   2.372   1.568  0.1385 -0.7119 -0.7806
  623MOL0     C82115   6.825   2.301   1.525 -0.0394 -0.4529  0.9262
  623MOL0     C82116   6.695   2.366   1.589 -0.4343  0.3213  0.3458
  623MOL0     C82117   6.583   2.265   1.582  0.9034  0.1291 -0.2541
  623MOL0     C82118   6.453   2.323   1.624  0.1119  0.3458 -0.6503
  623MOL0     C82119   6.339   2.220   1.649  0.0351 -0.0560 -0.4557
  623MOL0     C82120   6.212   2.293   1.694 -0.2225 -0.0019  0.0274
  623MOL0     N82121   6.100   2.201   1.698 -0.0873 -0.4103 -0.1146
  623MOL0     C82122   6.034   2.146   1.585  0.1117  0.1916  1.0522
  623MOL0     C82123   5.921   2.086   1.636  0.1110  0.3288 -0.0193
  623MOL0     C82124   5.814   2.010   1.558 -0.6032  0.2587  1.3902
  623MOL0     C82125   5.714   2.115   1.507  0.2971 -0.1336 -0.2113
  623MOL0     C82126   5.613   2.055   1.400  0.4905  0.8237  0.0321
  623MOL0     C82127   5.538   1.921   1.433  0.3225 -0.7638 -0.5388
  623MOL0     O82128   5.424   1.887   1.339 -0.0747  0.4614  0.2319
  623MOL0     C82129   5.301   1.952   1.359 -0.5897  0.7633  0.2503
  623MOL0     C82130   5.210   1.896   1.449 -0.1703 -0.2490 -0.1173
  623MOL0     C82131   5.086   1.954   1.458  0.5080 -0.3107 -0.5600
  623MOL0     C82132   5.049   2.067   1.381  0.6336  0.5232 -0.3259
  623MOL0     C82133   4.917   2.123   1.384 -0.1972 -1.4033  0.2538
  623MOL0     O82134   4.889   2.208   1.287  0.7700  0.3597 -0.6060
  623MOL0     C82135   4.758   2.252   1.276 -0.7540 -0.0878  0.8349
  623MOL0     C82136   4.731   2.386   1.302  0.6894 -0.6652 -0.1550
  623MOL0     C82137   4.597   2.438   1.294 -0.6654  0.0582 -0.4368
  623MOL0     C82138   4.491   2.356   1.257 -0.5872  0.0526 -0.6177
  623MOL0     O82139   4.364   2.408   1.257  0.0520 -0.6094  0.6038
  623MOL0     C82140   4.262   2.331   1.196  0.2768  0.1818 -0.1136
  623MOL0     C82141   4.125   2.389   1.196  0.8391  0.1483 -0.6909
  623MOL0     C82142   4.016   2.304   1.117  0.6815  0.3708 -0.4039
  623MOL0     C82143   4.015   2.341   0.970  0.1059  0.5545  0.1966
  623MOL0     C82144   3.929   2.247   0.890 -0.2651 -0.0790  0.8271
  623MOL0     C82145   3.924   2.308   0.749 -0.4178  0.1626  0.2422
  623MOL0     C82146   3.861   2.223   0.641  0.4237 -0.8023 -0.4295
  623MOL0     C82147   3.846   2.291   0.502 -0.0272  0.6087 -0.1496
  623MOL0    Cl82148   3.723   2.416   0.502 -0.5659 -0.1003 -0.3336
  623MOL0     C82149   4.526   2.219   1.220 -0.4864 -0.3089 -0.2278
  623MOL0     C82150   4.657   2.168   1.245 -0.1741  0.0047  0.1902
  623MOL0     O82151   4.848   2.091   1.477  0.3860  0.8811  0.3683
  623MOL0     C82152   5.141   2.109   1.276  0.2623 -0.0102 -0.6030
  623MOL0     C82153   5.267   2.045   1.267  0.1648 -0.3542  0.0822
  623MOL0     N82154   5.917   2.107   1.770  0.3405 -0.0757  0.0724
  623MOL0     N82155   6.022   2.173   1.802  0.4309  0.6459 -0.6387
  623MOL0     C82156   7.264   2.242   1.242 -0.3514  0.4365 -0.3096
  623MOL0     C82157   7.389   2.202   1.189 -0.4020 -0.5192  0.2359
  623MOL0     C82158   7.854   2.149   1.213 -0.1593 -1.6159  0.3948
  623MOL0     C82159   7.874   2.015   1.166 -0.2630  0.4827 -0.2481
  623MOL0     C82160   8.001   1.975   1.135  0.3863 -0.2449  0.1636
  623MOL0     C82161   8.116   2.060   1.160  0.3952 -0.1885  0.8575
  623MOL0     O82162   8.238   2.004   1.133 -0.1928  0.6098 -0.0904
  623MOL0     C82163   8.353   2.040   1.205 -0.2482  0.1462  0.1626
  623MOL0     C82164   8.459   1.954   1.144 -0.0236 -0.3633  0.1271
  623MOL0     C82165   8.592   1.985   1.221  0.3421 -0.0799 -1.2737
  623MOL0     C82166   8.701   1.878   1.189  0.5862 -0.4766  0.3102
  623MOL0     C82167   8.698   1.791   1.305 -0.7983  0.5159 -0.7900
  623MOL0     C82168   8.692   1.721   1.404  0.2816 -0.4927  0.2322
  623MOL0     C82169   8.088   2.187   1.200 -0.6013  0.0606  0.8459
  623MOL0     C82170   7.963   2.237   1.214 -0.1719 -0.6264 -0.1643
  623MOL0     H82171   7.533   2.111   1.489 -3.0962 -0.1673  0.9068
  623MOL0     H82172   7.319   2.173   1.575  2.0672 -1.4622 -0.2939
  623MOL0     H82173   7.151   2.358   1.609  2.4817 -1.4327 -1.3945
  623MOL0     H82174   7.078   2.197   1.610 -0.3260 -0.5157 -1.1153
  623MOL0     H82175   6.970   2.470   1.523 -1.7720  0.9812  1.9227
  623MOL0     H82176   6.946   2.407   1.671  1.1275 -0.3792 -0.8090
  623MOL0     H82177   6.836   2.193   1.542 -0.0587 -0.8090 -1.0188
  623MOL0     H82178   6.820   2.310   1.416  2.8155  1.8950  0.8688
  623MOL0     H82179   6.714   2.386   1.695 -3.1148 -0.3477  1.0289
  623MOL0     H82180   6.673   2.460   1.539  0.1051 -0.2054 -0.9174
  623MOL0     H82181   6.606   2.182   1.649 -2.9944  0.8400  2.2853
  623MOL0     H82182   6.588   2.222   1.481  2.1533 -0.3183 -0.0114
  623MOL0     H82183   6.421   2.401   1.554  1.6017  0.9883 -0.6632
  623MOL0     H82184   6.475   2.377   1.716 -2.9236  1.6228 -0.5568
  623MOL0     H82185   6.309   2.183   1.551 -1.0000 -0.0746 -0.1480
  623MOL0     H82186   6.373   2.145   1.721 -3.7992 -2.1019 -0.5063
  623MOL0     H82187   6.184   2.379   1.634 -1.6336 -1.4342 -1.4657
  623MOL0     H82188   6.224   2.335   1.794 -1.8023  1.4706 -0.3544
  623MOL0     H82189   6.055   2.145   1.479  0.8320  0.4910  1.1872
  623MOL0     H82190   5.766   1.933   1.620 -0.2359 -0.8005  0.3902
  623MOL0     H82191   5.861   1.962   1.472 -1.8219 -0.1269  0.9087
  623MOL0     H82192   5.771   2.195   1.458 -0.8870  0.7861 -0.1395
  623MOL0     H82193   5.646   2.154   1.583 -1.6159  0.5522 -2.1648
  623MOL0     H82194   5.545   2.138   1.380  2.8848  2.8528 -0.2300
  623MOL0     H82195   5.676   2.038   1.312  2.9602 -0.1930  1.8544
  623MOL0     H82196   5.496   1.941   1.532  4.4432  0.5564  1.1279
  623MOL0     H82197   5.612   1.842   1.443  2.7731  1.4519 -0.2378
  623MOL0     H82198   5.249   1.812   1.505  1.1693  2.5090  3.4782
  623MOL0     H82199   5.030   1.910   1.540  2.9909 -0.9117  0.9599
  623MOL0     H82200   4.804   2.454   1.343 -0.4147  1.6854 -1.8283
  623MOL0     H82201   4.581   2.543   1.319  0.0879  0.1984 -0.5370
  623MOL0     H82202   4.251   2.232   1.242 -1.5928 -0.2293 -1.3788
  623MOL0     H82203   4.297   2.325   1.093  2.4550  0.0321  0.5835
  623MOL0     H82204   4.126   2.496   1.174  2.5009  0.6142  1.4171
  623MOL0     H82205   4.089   2.389   1.299 -0.4425 -2.3972 -1.0643
  623MOL0     H82206   3.916   2.322   1.157 -0.0662  1.1343 -2.4644
  623MOL0     H82207   4.043   2.199   1.130 -2.1864 -0.7480 -2.4868
  623MOL0     H82208   3.976   2.443   0.959  0.4226  0.7754  1.0750
  623MOL0     H82209   4.118   2.325   0.936 -0.4563  2.2918 -2.6086
  623MOL0     H82210   3.831   2.248   0.939 -1.0775  0.6764 -0.7216
  623MOL0     H82211   3.965   2.145   0.872  0.5284  0.6246 -2.0396
  623MOL0     H82212   4.025   2.327   0.713 -0.6492 -1.5638 -1.4831
  623MOL0     H82213   3.870   2.403   0.757 -1.2420 -0.2913  0.2159
  623MOL0     H82214   3.922   2.133   0.635  0.1175 -1.1327  0.9844
  623MOL0     H82215   3.756   2.197   0.662  0.5039 -0.3119  0.6721
  623MOL0     H82216   3.813   2.217   0.429 -2.9460  1.4262  0.2162
  623MOL0     H82217   3.945   2.334   0.482 -0.4066  2.8626  2.2632
  623MOL0     H82218   4.438   2.166   1.186 -0.3757  0.1481 -1.2809
  623MOL0     H82219   4.666   2.062   1.224  1.0198  0.1706 -0.2180
  623MOL0     H82220   5.100   2.182   1.208 -2.7858 -0.6064  0.4120
  623MOL0     H82221   5.332   2.075   1.186 -0.5161  2.2323  0.4008
  623MOL0     H82222   7.199   2.289   1.168  0.0315 -0.0850 -0.9854
  623MOL0     H82223   7.411   2.220   1.084  2.1315  3.0159  1.2296
  623MOL0     H82224   7.785   1.954   1.151 -1.5885  1.4417  2.7850
  623MOL0     H82225   8.019   1.872   1.105  0.2994 -0.5913  1.2543
  623MOL0     H82226   8.342   2.022   1.312  1.4534  1.6838  0.6553
  623MOL0     H82227   8.380   2.143   1.179 -0.3574  0.0205 -0.4852
  623MOL0     H82228   8.433   1.850   1.164 -2.1757  0.4546  2.0552
  623MOL0     H82229   8.471   1.967   1.036  2.4205  0.8069  0.4767
  623MOL0     H82230   8.581   1.985   1.330  0.7325 -0.2038 -1.2325
  623MOL0     H82231   8.632   2.083   1.193 -0.6904  1.1228  1.1331
  623MOL0     H82232   8.674   1.839   1.090 -0.1659  0.0488  0.3004
  623MOL0     H82233   8.803   1.917   1.190  0.3844  0.0592  0.4796
  623MOL0     H82234   8.690   1.636   1.469  0.9783  0.6130  1.7304
  623MOL0     H82235   8.177   2.248   1.210  0.5780 -1.4990  0.3131
  623MOL0     H82236   7.951   2.342   1.241  0.7202 -0.9361  1.5762
  624MOL0     O82237   0.448   2.957   0.134  0.0365  0.1519  0.5627
  624MOL0     C82238   0.502   3.060   0.110  0.3591 -0.4958  0.3420
  624MOL0     O82239   0.429   3.172   0.078 -0.8215  0.3993  0.3480
  624MOL0     C82240   0.289   3.164   0.067  0.1229  0.3165 -0.0711
  624MOL0     C82241   0.223   3.264   0.120 -1.2007 -0.1449  0.4123
  624MOL0     C82242   0.083   3.267   0.101  0.7287  0.2354  0.1712
  624MOL0     C82243   0.010   3.167   0.036 -0.0928  0.2903 -0.6969
  624MOL0     O82244  -0.130   3.159   0.035  0.0691 -0.0532  1.1408
  624MOL0     C82245  -0.208   3.273   0.080 -0.0747  0.5763 -0.8093
  624MOL0     C82246  -0.354   3.227   0.077 -0.0264  0.9971  0.3954
  624MOL0     C82247  -0.451   3.349   0.092 -0.4757  0.3296  0.0655
  624MOL0     C82248  -0.462   3.392   0.238 -0.7484 -0.3884  0.2993
  624MOL0     C82249  -0.562   3.505   0.253 -0.0439 -0.4665  0.1091
  624MOL0     C82250  -0.592   3.534   0.399 -0.2704  0.4384 -1.3759
  624MOL0     C82251  -0.719   3.629   0.413  0.3291 -0.7773 -0.0696
  624MOL0     C82252  -0.862   3.575   0.418  0.0671 -0.1542 -0.5562
  624MOL0     N82253  -0.955   3.672   0.481  0.7933  0.2755 -0.1259
  624MOL0     C82254  -1.054   3.735   0.411  0.3478  0.1482 -0.1106
  624MOL0     C82255  -1.144   3.767   0.508 -0.2494  0.4774  0.8289
  624MOL0     C82256  -1.260   3.865   0.485  0.1811  0.9882 -0.1271
  624MOL0     C82257  -1.387   3.782   0.474 -0.1951  0.4558  0.7911
  624MOL0     C82258  -1.508   3.855   0.402 -0.2682 -1.0879 -0.4395
  624MOL0     C82259  -1.636   3.768   0.414  0.5622  0.0001  0.1686
  624MOL0     O82260  -1.604   3.632   0.359 -0.3746 -0.0165 -0.2397
  624MOL0     C82261  -1.696   3.591   0.263  0.2787  0.1680 -0.7647
  624MOL0     C82262  -1.750   3.457   0.286 -0.0996 -0.2234 -0.3497
  624MOL0     C82263  -1.847   3.399   0.205  0.1408 -0.2744 -0.2798
  624MOL0     C82264  -1.885   3.482   0.094 -0.1546 -0.6495 -0.1319
  624MOL0     C82265  -1.974   3.424  -0.004  0.2787 -0.1104  0.4733
  624MOL0     O82266  -1.975   3.288  -0.020  0.1782  0.0995  0.0127
  624MOL0     C82267  -2.058   3.252  -0.130 -0.1513  0.4839  0.2309
  624MOL0     C82268  -2.200   3.231  -0.101  0.4150 -0.2857 -0.7199
  624MOL0     C82269  -2.279   3.178  -0.200  0.0322 -0.5987  0.0146
  624MOL0     C82270  -2.232   3.171  -0.338  0.0453  0.2386  0.5316
  624MOL0     O82271  -2.316   3.142  -0.443  0.1639 -0.9128  0.6534
  624MOL0     C82272  -2.456   3.119  -0.426 -0.1532 -0.0957  0.0269
  624MOL0     C82273  -2.537   3.108  -0.547  0.6601  0.1170  0.2431
  624MOL0     C82274  -2.679   3.077  -0.508 -0.0903 -0.0960 -0.3750
  624MOL0     C82275  -2.777   3.069  -0.625 -0.1345 -0.5346 -0.1702
  624MOL0     C82276  -2.918   3.032  -0.571 -0.3333  0.0253 -0.7434
  624MOL0     C82277  -3.022   3.046  -0.675 -0.3646  0.2400  0.8037
  624MOL0     C82278  -3.161   3.015  -0.626 -1.0354  0.0563  0.6338
  624MOL0     C82279  -3.258   3.032  -0.742 -0.1787  0.3252 -0.5394
  624MOL0    Cl82280  -3.421   3.029  -0.673 -0.2354  0.0044  0.0613
  624MOL0     C82281  -2.095   3.201  -0.359  0.6942  0.0045 -0.1264
  624MOL0     C82282  -2.011   3.242  -0.260  0.8810  0.1124 -1.0920
  624MOL0     O82283  -2.044   3.503  -0.074 -0.0747 -0.1742  0.2317
  624MOL0     C82284  -1.831   3.612   0.071 -0.1990  0.6513  0.0397
  624MOL0     C82285  -1.735   3.670   0.154 -0.1920 -0.0351 -0.0610
  624MOL0     N82286  -1.107   3.698   0.617  0.4379  0.3078 -0.4531
  624MOL0     N82287  -0.997   3.647   0.611  0.2882  0.2402 -0.2985
  624MOL0     C82288   0.081   3.051   0.002  0.6376 -0.2525 -0.3941
  624MOL0     C82289   0.221   3.054   0.010  0.1745  0.3497 -0.2560
  624MOL0     C82290   0.642   3.054   0.087  0.3028  0.5645  1.0583
  624MOL0     C82291   0.718   2.938   0.108 -0.0006 -0.5576 -0.3182
  624MOL0     C82292   0.864   2.947   0.089  0.2456  0.3288  1.0998
  624MOL0     C82293   0.921   3.071   0.049 -0.1340  0.2910 -0.7501
  624MOL0     O82294   1.057   3.081   0.054  0.6765 -0.2863 -0.4402
  624MOL0     C82295   1.122   3.200   0.028 -1.3493  0.4370  0.0277
  624MOL0     C82296   1.274   3.181   0.026  0.2987  0.3003  0.0105
  624MOL0     C82297   1.308   3.089  -0.095  1.3427  0.8870 -0.8356
  624MOL0     C82298   1.457   3.088  -0.095  0.0282 -0.9987  0.4277
  624MOL0     C82299   1.505   2.983  -0.182 -0.5931 -1.3957  0.9861
  624MOL0     C82300   1.550   2.895  -0.252 -0.3587 -1.2708 -0.5186
  624MOL0     C82301   0.838   3.174   0.013  0.1541  0.7668  0.1092
  624MOL0     C82302   0.705   3.166   0.029  0.4820 -0.3414  0.1769
  624MOL0     H82303   0.275   3.340   0.178  3.5543 -1.8491 -1.1569
  624MOL0     H82304   0.031   3.352   0.144 -0.9899 -0.5609 -0.2872
  624MOL0     H82305  -0.196   3.360   0.015  0.2629 -0.6929 -2.5173
  624MOL0     H82306  -0.180   3.306   0.181  0.4118  1.8340 -1.3408
  624MOL0     H82307  -0.372   3.155   0.157  0.4844 -0.6610 -0.9108
  624MOL0     H82308  -0.375   3.160  -0.007 -1.5417  0.8714  0.8487
  624MOL0     H82309  -0.551   3.328   0.053 -0.7983  1.7529  0.0523
  624MOL0     H82310  -0.416   3.436   0.035 -0.5366  0.6957  0.5787
  624MOL0     H82311  -0.475   3.299   0.294  0.8136 -1.5826 -1.1908
  624MOL0     H82312  -0.366   3.437   0.264 -1.0437  0.6792 -0.3667
  624MOL0     H82313  -0.659   3.476   0.210 -0.8277 -0.5829  1.8847
  624MOL0     H82314  -0.525   3.595   0.201 -1.3862  0.5722  0.8871
  624MOL0     H82315  -0.503   3.575   0.447 -1.6028  0.2110  1.4513
  624MOL0     H82316  -0.617   3.437   0.443 -1.3183  1.5330  0.5818
  624MOL0     H82317  -0.704   3.695   0.499  2.5637  0.3946 -1.2567
  624MOL0     H82318  -0.715   3.705   0.335 -2.8664 -0.6589 -0.2448
  624MOL0     H82319  -0.864   3.482   0.476 -3.1241 -0.3104 -0.7567
  624MOL0     H82320  -0.871   3.555   0.311  1.0857  2.9303 -1.3259
  624MOL0     H82321  -1.056   3.762   0.305 -1.5211  1.5169  0.2329
  624MOL0     H82322  -1.240   3.917   0.391  0.3124  0.2538 -0.5166
  624MOL0     H82323  -1.254   3.937   0.567  0.7286 -1.2836  1.9752
  624MOL0     H82324  -1.425   3.760   0.574 -3.0934  1.1682 -0.0572
  624MOL0     H82325  -1.365   3.690   0.419  1.2721  0.5652  1.1503
  624MOL0     H82326  -1.528   3.953   0.446  1.2664 -0.7177 -0.5113
  624MOL0     H82327  -1.475   3.857   0.298  0.1270 -0.7752 -0.3122
  624MOL0     H82328  -1.728   3.803   0.366 -0.7799 -2.8247  0.4508
  624MOL0     H82329  -1.672   3.762   0.517 -1.5758 -1.3426 -0.5897
  624MOL0     H82330  -1.708   3.392   0.362 -2.5173 -1.2277  0.2101
  624MOL0     H82331  -1.882   3.298   0.224  1.8629 -1.3523 -2.4140
  624MOL0     H82332  -2.229   3.261  -0.001  3.4568 -1.8297  0.7844
  624MOL0     H82333  -2.384   3.172  -0.175  0.1998 -0.2247  0.8547
  624MOL0     H82334  -2.495   3.208  -0.376 -0.9712 -0.2536 -0.3144
  624MOL0     H82335  -2.468   3.031  -0.362  0.7413  1.5642  2.6247
  624MOL0     H82336  -2.509   3.033  -0.621  1.3468  0.3950  0.2162
  624MOL0     H82337  -2.545   3.203  -0.602 -0.1797  0.7370  1.3982
  624MOL0     H82338  -2.721   3.154  -0.443 -4.1954  0.2893 -3.0747
  624MOL0     H82339  -2.679   2.989  -0.443 -1.2764  0.8050  0.9239
  624MOL0     H82340  -2.792   3.164  -0.678 -1.8274  1.7891  4.0123
  624MOL0     H82341  -2.740   2.992  -0.694  1.9991  1.0041 -0.8721
  624MOL0     H82342  -2.950   3.093  -0.486  0.3933 -2.8069  1.7143
  624MOL0     H82343  -2.924   2.928  -0.540 -1.3946  0.1729 -0.4292
  624MOL0     H82344  -2.991   2.980  -0.757  1.1073  1.7393  0.0615
  624MOL0     H82345  -3.015   3.148  -0.716 -1.6677 -0.5037 -1.4820
  624MOL0     H82346  -3.168   2.915  -0.583  2.6421  0.5753  2.8509
  624MOL0     H82347  -3.173   3.089  -0.546  1.3747  2.3131 -0.9418
  624MOL0     H82348  -3.241   2.951  -0.813 -1.4447 -0.6450  0.2158
  624MOL0     H82349  -3.236   3.129  -0.787 -0.8880  2.6385  3.5902
  624MOL0     H82350  -2.051   3.202  -0.458  0.5704 -2.6203 -0.2920
  624MOL0     H82351  -1.909   3.272  -0.282  0.3270  2.4256 -0.7539
  624MOL0     H82352  -1.868   3.670  -0.013 -2.1522 -1.6262 -0.8160
  624MOL0     H82353  -1.694   3.768   0.132  2.6190 -1.3922 -1.5451
  624MOL0     H82354   0.029   2.960  -0.026  1.6360 -1.6064  1.8784
  624MOL0     H82355   0.274   2.973  -0.038 -1.1412 -0.2792 -0.7018
  624MOL0     H82356   0.683   2.841   0.144  0.8378 -0.7071  0.1395
  624MOL0     H82357   0.909   2.852   0.119 -3.8806 -1.7800  1.3369
  624MOL0     H82358   1.105   3.290   0.088 -0.2545  0.4608  0.3246
  624MOL0     H82359   1.099   3.230  -0.075 -3.5361  0.1879  0.3893
  624MOL0     H82360   1.323   3.278   0.015 -0.6065  0.5680 -2.2888
  624MOL0     H82361   1.302   3.132   0.119  2.3805  3.2405  1.0962
  624MOL0     H82362   1.264   3.126  -0.188  1.3992  0.8773 -0.8663
  624MOL0     H82363   1.280   2.986  -0.073  4.9938  0.0819  0.7594
  624MOL0     H82364   1.485   3.183  -0.142  0.5310 -0.7540  1.2090
  624MOL0     H82365   1.506   3.103   0.001 -1.2224  2.7850  0.6737
  624MOL0     H82366   1.596   2.815  -0.305 -0.3368 -0.7014 -1.3721
  624MOL0     H82367   0.880   3.271  -0.009  0.5317  0.3845 -0.9308
  624MOL0     H82368   0.643   3.255   0.024  0.2697 -0.3247  2.1795
  625MOL0     O82369   7.484   6.612   6.435 -0.0232  0.4099  0.1017
  625MOL0     C82370   7.564   6.636   6.530  0.3213 -0.1494 -0.2710
  625MOL0     O82371   7.533   6.704   6.645 -0.9079  0.6578  0.0656
  625MOL0     C82372   7.403   6.732   6.673  0.5212  0.3445  0.4470
  625MOL0     C82373   7.329   6.805   6.580  1.0754 -0.3608 -0.6453
  625MOL0     C82374   7.201   6.854   6.609 -0.2945  0.0414 -0.4333
  625MOL0     C82375   7.145   6.831   6.736  0.1931  0.6222 -0.3752
  625MOL0     O82376   7.031   6.898   6.765 -0.8103  0.2251 -0.6224
  625MOL0     C82377   6.938   6.814   6.825 -1.0958  0.0334  0.3977
  625MOL0     C82378   6.806   6.895   6.847  0.8854 -0.7331  0.0848
  625MOL0     C82379   6.719   6.907   6.719  0.0959  0.4891  0.4601
  625MOL0     C82380   6.586   6.967   6.753  0.8979  0.3142 -0.8777
  625MOL0     C82381   6.477   6.897   6.663 -0.9057 -1.0869 -0.7741
  625MOL0     C82382   6.346   6.941   6.714  0.5215 -0.3036 -0.0701
  625MOL0     C82383   6.233   6.900   6.623  0.3135 -0.1324 -0.4238
  625MOL0     C82384   6.105   6.979   6.657 -0.3251  0.3579  0.9026
  625MOL0     N82385   5.993   6.962   6.562  0.2718  0.1428  0.4329
  625MOL0     C82386   5.873   7.030   6.578 -0.5409  0.3258  0.0358
  625MOL0     C82387   5.812   7.019   6.458 -1.1584 -0.2084  0.2630
  625MOL0     C82388   5.684   7.060   6.394  0.6494 -0.0403  0.4009
  625MOL0     C82389   5.554   7.012   6.460  0.1130  0.3978  0.0430
  625MOL0     C82390   5.549   6.860   6.474 -0.1064  0.7441 -0.1615
  625MOL0     C82391   5.425   6.833   6.567 -0.7260  0.2653  0.5045
  625MOL0     O82392   5.310   6.845   6.486 -0.5334  0.5032 -0.1974
  625MOL0     C82393   5.186   6.840   6.547 -0.5876 -0.8129 -0.2681
  625MOL0     C82394   5.077   6.882   6.470  0.5630 -0.4377 -0.0159
  625MOL0     C82395   4.940   6.868   6.512 -0.4084 -0.1553  0.1690
  625MOL0     C82396   4.914   6.816   6.640  0.1491  0.0907 -0.1226
  625MOL0     C82397   4.776   6.809   6.703 -0.3611  0.6749 -0.6971
  625MOL0     O82398   4.759   6.765   6.839 -0.1483 -0.1700  0.4482
  625MOL0     C82399   4.633   6.737   6.884 -0.4551 -0.4145  1.1410
  625MOL0     C82400   4.598   6.613   6.940  0.2104 -0.2380 -0.1838
  625MOL0     C82401   4.469   6.589   6.993 -0.2815  0.1709  1.3497
  625MOL0     C82402   4.373   6.687   6.989 -0.5904  0.1571 -0.5258
  625MOL0     O82403   4.255   6.656   7.043  0.2535  0.3045 -0.8421
  625MOL0     C82404   4.140   6.731   7.009  0.0582  0.1250 -0.5910
  625MOL0     C82405   4.005   6.668   7.037  0.0495  0.4639  0.4387
  625MOL0     C82406   4.000   6.601   7.172  0.5693 -0.0785 -0.3778
  625MOL0     C82407   3.873   6.528   7.211  0.9050 -0.1146 -0.1324
  625MOL0     C82408   3.880   6.377   7.187  0.1212 -0.0632 -0.5498
  625MOL0     C82409   3.735   6.320   7.210 -0.7276 -0.5395  0.7228
  625MOL0     C82410   3.720   6.187   7.135 -0.2165 -1.1777 -0.0984
  625MOL0     C82411   3.608   6.109   7.198  0.0161 -0.6157 -0.3121
  625MOL0    Cl82412   3.653   6.034   7.349 -0.2834  0.5093 -0.3681
  625MOL0     C82413   4.410   6.814   6.949  0.7357 -0.4551  0.1709
  625MOL0     C82414   4.542   6.849   6.889  0.8135  0.0355 -0.5618
  625MOL0     O82415   4.684   6.827   6.630  0.1186 -0.1477  0.2863
  625MOL0     C82416   5.022   6.773   6.712  0.2413 -0.8515 -0.1290
  625MOL0     C82417   5.161   6.794   6.675  0.1292  0.0306  1.0360
  625MOL0     N82418   5.891   6.933   6.382 -0.3675  0.1229 -0.2446
  625MOL0     N82419   5.993   6.891   6.445  0.3393 -0.0206 -0.3554
  625MOL0     C82420   7.218   6.750   6.827 -0.5366 -1.0420  1.1802
  625MOL0     C82421   7.342   6.700   6.798  0.3398  0.0431  0.6241
  625MOL0     C82422   7.704   6.593   6.503 -0.3538  0.4823 -0.1597
  625MOL0     C82423   7.740   6.519   6.399 -0.8198  1.6835  0.0900
  625MOL0     C82424   7.880   6.498   6.366 -0.2704 -0.1232 -0.6870
  625MOL0     C82425   7.980   6.547   6.453  0.4242  0.6197 -0.4334
  625MOL0     O82426   8.116   6.540   6.443 -0.2245 -0.2980  0.5638
  625MOL0     C82427   8.183   6.451   6.361 -0.6098 -0.2314  0.1854
  625MOL0     C82428   8.237   6.522   6.233  0.2280  0.4082 -0.3992
  625MOL0     C82429   8.312   6.648   6.259 -0.7329  0.1415 -0.1498
  625MOL0     C82430   8.460   6.628   6.264 -0.9170  0.5951  0.5607
  625MOL0     C82431   8.516   6.605   6.396 -0.3427 -0.0810  0.4853
  625MOL0     C82432   8.544   6.602   6.514 -0.4150  0.9107 -0.2257
  625MOL0     C82433   7.933   6.619   6.563  0.2522 -0.7828  0.7958
  625MOL0     C82434   7.797   6.632   6.590 -0.1910  0.2710 -0.0979
  625MOL0     H82435   7.372   6.828   6.483  0.8389  2.2223 -0.2065
  625MOL0     H82436   7.141   6.896   6.529 -1.8642 -2.0403 -0.4490
  625MOL0     H82437   6.971   6.783   6.924 -2.2042  0.1361  0.8205
  625MOL0     H82438   6.921   6.728   6.759 -0.6518 -1.1657  1.7890
  625MOL0     H82439   6.832   6.998   6.870  2.3851 -1.1038  0.2050
  625MOL0     H82440   6.747   6.866   6.934 -0.7600  0.4106 -0.6025
  625MOL0     H82441   6.716   6.809   6.669  0.3661  0.2383  0.9322
  625MOL0     H82442   6.766   6.974   6.646  1.4997  0.0429  0.9180
  625MOL0     H82443   6.563   6.960   6.860  0.8467  0.8938 -0.8468
  625MOL0     H82444   6.585   7.076   6.736 -1.0821  0.3787 -0.5451
  625MOL0     H82445   6.482   6.789   6.671  0.4242 -1.0302 -0.7160
  625MOL0     H82446   6.487   6.918   6.556  1.7526 -3.0701 -1.0066
  625MOL0     H82447   6.343   7.049   6.726 -2.4548 -0.5548  2.9270
  625MOL0     H82448   6.324   6.906   6.815 -1.8754 -0.7775 -0.6891
  625MOL0     H82449   6.264   6.921   6.520  2.7408 -1.5772 -0.0589
  625MOL0     H82450   6.215   6.794   6.640 -1.0862  0.0497 -0.6462
  625MOL0     H82451   6.129   7.085   6.669  2.8802 -0.3581  1.9447
  625MOL0     H82452   6.072   6.938   6.753 -1.9661  3.3216  1.7063
  625MOL0     H82453   5.848   7.097   6.659 -1.6989 -2.8946  2.5556
  625MOL0     H82454   5.680   7.028   6.290 -3.3938 -2.5750  1.1316
  625MOL0     H82455   5.676   7.169   6.398 -4.7761 -0.0939 -1.4535
  625MOL0     H82456   5.469   7.040   6.397 -0.5976 -1.3732  0.1627
  625MOL0     H82457   5.541   7.055   6.560 -2.7456  0.9184 -0.4796
  625MOL0     H82458   5.542   6.801   6.383  3.5031 -2.6572  1.5103
  625MOL0     H82459   5.643   6.829   6.520  0.2779  0.7484 -0.9261
  625MOL0     H82460   5.415   6.884   6.663 -2.7325  4.8374 -1.8308
  625MOL0     H82461   5.420   6.724   6.580 -1.9536  0.4469  1.7518
  625MOL0     H82462   5.093   6.904   6.365  0.9068 -2.2946 -0.3834
  625MOL0     H82463   4.848   6.907   6.470 -0.9556 -0.7510  0.8002
  625MOL0     H82464   4.674   6.536   6.950 -0.5808 -0.9210  0.9822
  625MOL0     H82465   4.451   6.492   7.037  0.9742 -1.0663 -0.7155
  625MOL0     H82466   4.144   6.764   6.904  2.0529 -1.8140 -1.2099
  625MOL0     H82467   4.142   6.825   7.065 -2.0227  0.0745 -0.3603
  625MOL0     H82468   3.996   6.591   6.959  2.0221  0.6257 -0.0103
  625MOL0     H82469   3.921   6.737   7.027 -1.1375 -1.1518 -1.9006
  625MOL0     H82470   4.022   6.683   7.241  2.1198 -1.7821  1.2601
  625MOL0     H82471   4.080   6.530   7.193  1.9340  1.5194 -0.0177
  625MOL0     H82472   3.852   6.546   7.316 -2.7246 -0.4245 -0.6660
  625MOL0     H82473   3.793   6.567   7.146 -0.3438 -2.2859 -0.0054
  625MOL0     H82474   3.955   6.324   7.246 -1.3246 -1.1831  0.3544
  625MOL0     H82475   3.912   6.363   7.083  1.4326  1.6013 -0.4022
  625MOL0     H82476   3.663   6.397   7.182  2.1055  2.2062  0.5170
  625MOL0     H82477   3.719   6.306   7.317  3.1665 -2.7865  1.2139
  625MOL0     H82478   3.698   6.214   7.031  0.9783 -0.3728 -0.1709
  625MOL0     H82479   3.814   6.131   7.142  0.4068 -0.0974  0.6196
  625MOL0     H82480   3.590   6.022   7.134  1.4622 -2.4764  1.6551
  625MOL0     H82481   3.512   6.160   7.211 -0.7914 -1.8756 -1.0893
  625MOL0     H82482   4.330   6.887   6.937 -0.3319 -0.7204  4.0328
  625MOL0     H82483   4.560   6.945   6.842  2.0317 -0.0386 -0.3016
  625MOL0     H82484   4.999   6.737   6.812 -1.4291  2.3842  0.7921
  625MOL0     H82485   5.237   6.754   6.742  0.6368 -1.9011 -0.5968
  625MOL0     H82486   7.181   6.731   6.928  0.7777 -1.0222  1.6836
  625MOL0     H82487   7.405   6.645   6.867  2.4661  0.6834 -0.7087
  625MOL0     H82488   7.657   6.468   6.351  0.3339  0.1721 -0.3668
  625MOL0     H82489   7.911   6.444   6.277 -0.7115 -0.6861 -0.5074
  625MOL0     H82490   8.116   6.371   6.327 -2.3795  1.6158 -0.8785
  625MOL0     H82491   8.266   6.401   6.410 -0.1923 -0.0757 -0.3535
  625MOL0     H82492   8.296   6.457   6.167 -0.9091  0.1611 -1.2100
  625MOL0     H82493   8.149   6.543   6.173  0.4873 -2.2646 -1.8681
  625MOL0     H82494   8.274   6.699   6.348  0.3306 -1.6917  1.4384
  625MOL0     H82495   8.285   6.714   6.175  3.7698  0.2061 -1.8393
  625MOL0     H82496   8.498   6.549   6.199 -1.2702  0.9842 -0.1310
  625MOL0     H82497   8.505   6.722   6.231  2.9891 -1.3023 -0.0459
  625MOL0     H82498   8.588   6.598   6.612  2.1974 -0.8002 -1.3502
  625MOL0     H82499   7.999   6.678   6.625 -0.9641  1.6587 -0.0873
  625MOL0     H82500   7.775   6.695   6.676  0.9773 -0.7660  1.0145
  626MOL0     O82501   3.925   4.054   1.877  0.1328  0.3123  0.7572
  626MOL0     C82502   3.899   4.168   1.852 -0.7737 -0.6245 -0.1620
  626MOL0     O82503   3.779   4.220   1.817  0.8243  0.6942 -0.7280
  626MOL0     C82504   3.671   4.130   1.794 -0.8650 -0.4373 -0.0012
  626MOL0     C82505   3.626   4.024   1.882  0.3579 -0.5148  0.1133
  626MOL0     C82506   3.504   3.957   1.860  0.3925  0.1555 -0.2331
  626MOL0     C82507   3.429   3.983   1.744  0.3753  1.0318  0.4234
  626MOL0     O82508   3.312   3.917   1.729  0.5423  0.3006  0.3295
  626MOL0     C82509   3.194   3.993   1.710 -0.2633  0.2514 -1.0889
  626MOL0     C82510   3.148   4.007   1.852 -0.2740 -0.2861 -0.1181
  626MOL0     C82511   3.020   4.095   1.847  0.0315 -0.0379 -0.5901
  626MOL0     C82512   2.913   4.036   1.759  0.4214 -0.3684 -0.3892
  626MOL0     C82513   2.774   4.113   1.773  0.0202 -0.0920 -0.3447
  626MOL0     C82514   2.695   4.082   1.898 -0.0300 -0.4833 -1.1542
  626MOL0     C82515   2.549   4.124   1.874 -0.2967 -0.0862  0.3016
  626MOL0     C82516   2.459   4.093   1.988 -0.1099 -0.0708  0.0713
  626MOL0     N82517   2.324   4.146   1.964 -0.3968  0.1969 -0.4142
  626MOL0     C82518   2.283   4.274   1.937 -0.1114  0.0929  0.5336
  626MOL0     C82519   2.158   4.271   1.963  0.4859  0.5646 -0.1377
  626MOL0     C82520   2.060   4.387   1.953  0.0585 -0.0751 -0.2225
  626MOL0     C82521   2.007   4.399   1.813  0.1919  0.5285  0.5591
  626MOL0     C82522   1.913   4.511   1.799  0.7305 -0.7594 -0.2991
  626MOL0     C82523   1.786   4.505   1.885  0.7045 -1.1260 -0.4744
  626MOL0     O82524   1.702   4.616   1.836 -0.8198 -0.1427 -0.0824
  626MOL0     C82525   1.567   4.595   1.841  0.0076 -0.7610  0.2772
  626MOL0     C82526   1.482   4.635   1.733 -0.9433 -0.5264  0.0570
  626MOL0     C82527   1.350   4.620   1.748  0.4892 -0.0361  0.2827
  626MOL0     C82528   1.287   4.566   1.863  0.0922 -0.3950  0.3231
  626MOL0     C82529   1.140   4.551   1.872  0.8717  0.3360 -0.0453
  626MOL0     O82530   1.063   4.581   1.763  0.0530 -0.9206 -0.3127
  626MOL0     C82531   0.929   4.580   1.771  0.5163  0.3453  0.4414
  626MOL0     C82532   0.854   4.471   1.721  0.1371  0.3582 -0.4912
  626MOL0     C82533   0.716   4.486   1.726 -0.7003  0.2670 -0.1289
  626MOL0     C82534   0.654   4.600   1.768 -0.8926  0.2824 -0.5518
  626MOL0     O82535   0.516   4.608   1.768 -0.3971 -0.0719  0.1657
  626MOL0     C82536   0.455   4.673   1.882  0.0247 -0.2155 -0.2556
  626MOL0     C82537   0.307   4.686   1.877 -0.0698  0.6256  0.3681
  626MOL0     C82538   0.249   4.708   2.013  0.3533 -0.5322 -0.7701
  626MOL0     C82539   0.099   4.732   2.013  0.9579 -0.6573  0.2976
  626MOL0     C82540   0.033   4.701   2.150 -0.3308 -0.5958  0.7838
  626MOL0     C82541  -0.117   4.705   2.134 -0.9870  0.0863 -0.2988
  626MOL0     C82542  -0.197   4.657   2.256 -1.0768  0.1619 -1.5919
  626MOL0     C82543  -0.338   4.730   2.264 -1.1537 -0.4035  0.9981
  626MOL0    Cl82544  -0.317   4.906   2.266 -0.5056  0.3031 -0.1521
  626MOL0     C82545   0.734   4.718   1.809  0.6469  0.4861 -0.7233
  626MOL0     C82546   0.871   4.703   1.810 -0.7312  0.4093  0.1526
  626MOL0     O82547   1.093   4.497   1.974 -0.3299  0.2836  0.3256
  626MOL0     C82548   1.380   4.505   1.959  0.1424  0.6110  0.0732
  626MOL0     C82549   1.516   4.520   1.951 -0.1327  0.0019  0.0717
  626MOL0     N82550   2.111   4.144   1.993 -0.0474  0.7129  0.5019
  626MOL0     N82551   2.215   4.070   1.987 -0.0140  0.1571  0.1624
  626MOL0     C82552   3.476   4.076   1.655 -0.1498 -0.2552  0.4748
  626MOL0     C82553   3.585   4.157   1.682  0.1719 -0.8828  0.0101
  626MOL0     C82554   4.010   4.269   1.865  0.2161  1.1060 -0.2871
  626MOL0     C82555   3.978   4.401   1.819 -0.2330  0.9651 -0.0254
  626MOL0     C82556   4.085   4.486   1.797  0.2922 -0.3073  0.4054
  626MOL0     C82557   4.217   4.445   1.815  0.7102  0.5922 -0.2784
  626MOL0     O82558   4.308   4.539   1.779 -0.6310 -0.6984  0.3598
  626MOL0     C82559   4.452   4.516   1.791  0.0493 -0.4019 -0.6089
  626MOL0     C82560   4.504   4.521   1.936 -0.2385  0.6483  0.4374
  626MOL0     C82561   4.649   4.478   1.931 -0.1326  0.3634  0.3177
  626MOL0     C82562   4.689   4.451   2.078 -0.5534 -0.0234  0.2338
  626MOL0     C82563   4.838   4.440   2.090  0.2092 -0.1721 -0.2470
  626MOL0     C82564   4.952   4.460   2.124  0.2650 -0.3448  0.1490
  626MOL0     C82565   4.247   4.324   1.863 -0.1271  0.8019  0.3629
  626MOL0     C82566   4.139   4.230   1.893 -0.6302 -0.3792 -0.0115
  626MOL0     H82567   3.695   4.001   1.963  1.9489 -0.0362 -1.0474
  626MOL0     H82568   3.471   3.881   1.929  1.3666 -0.8046 -0.8005
  626MOL0     H82569   3.126   3.933   1.648 -0.2059  1.3926 -2.2976
  626MOL0     H82570   3.208   4.090   1.661 -0.4585  0.5730 -0.5128
  626MOL0     H82571   3.234   4.049   1.905  0.0110  0.2482 -0.9755
  626MOL0     H82572   3.128   3.913   1.904 -1.5927 -1.6248 -2.8515
  626MOL0     H82573   3.047   4.187   1.795 -0.4721  1.0055  0.9191
  626MOL0     H82574   2.978   4.127   1.943  0.4094 -2.3919  0.4381
  626MOL0     H82575   2.952   4.047   1.658  1.6887 -1.0667  0.0062
  626MOL0     H82576   2.889   3.930   1.765 -0.0396 -0.2334  0.3333
  626MOL0     H82577   2.707   4.081   1.693 -0.2194  1.7410 -0.9169
  626MOL0     H82578   2.784   4.221   1.758  1.5635 -0.1549  0.0443
  626MOL0     H82579   2.750   4.139   1.973  0.4594 -1.8142 -0.4733
  626MOL0     H82580   2.705   3.978   1.930  1.6795 -0.4071 -1.3343
  626MOL0     H82581   2.551   4.225   1.834  1.2292 -1.2192 -2.7585
  626MOL0     H82582   2.505   4.068   1.791 -0.7551  0.1160  0.4066
  626MOL0     H82583   2.500   4.133   2.081  0.4302 -0.8855  0.1956
  626MOL0     H82584   2.444   3.986   2.007 -0.1204  0.2034  1.7573
  626MOL0     H82585   2.348   4.360   1.924  0.3647 -0.2934  0.3052
  626MOL0     H82586   2.109   4.479   1.987  1.8684  0.0640 -2.8988
  626MOL0     H82587   1.978   4.364   2.021 -1.1099  0.8374 -1.2788
  626MOL0     H82588   1.964   4.304   1.783 -1.2890  1.1638  0.6064
  626MOL0     H82589   2.085   4.416   1.737 -0.7744 -0.1844 -0.6228
  626MOL0     H82590   1.962   4.606   1.824 -1.4313  0.3808 -0.1322
  626MOL0     H82591   1.875   4.529   1.698 -0.2471  1.8401  0.4394
  626MOL0     H82592   1.805   4.519   1.992  0.5108 -0.3323 -0.5391
  626MOL0     H82593   1.748   4.402   1.884  0.2739 -0.9894  0.8416
  626MOL0     H82594   1.530   4.678   1.646 -0.7411  0.2464  0.5390
  626MOL0     H82595   1.293   4.658   1.664 -0.6449  2.2236  1.9852
  626MOL0     H82596   0.892   4.372   1.701 -1.9756 -0.8404  1.0230
  626MOL0     H82597   0.664   4.403   1.678  0.0329 -1.2168  1.5542
  626MOL0     H82598   0.501   4.771   1.894  0.2080 -0.3447  0.1493
  626MOL0     H82599   0.485   4.620   1.974 -0.1836 -1.2494 -0.7687
  626MOL0     H82600   0.269   4.587   1.852 -2.6095  1.3038  1.1676
  626MOL0     H82601   0.278   4.760   1.802  2.0035  1.8375  0.6913
  626MOL0     H82602   0.295   4.796   2.057  1.0709 -0.9123 -0.7544
  626MOL0     H82603   0.262   4.622   2.080 -1.8152 -0.8293 -0.6306
  626MOL0     H82604   0.084   4.833   1.971  0.1298 -0.2717  1.4614
  626MOL0     H82605   0.061   4.662   1.938 -0.7677  2.0774 -1.5870
  626MOL0     H82606   0.068   4.768   2.229  0.9346  0.5083 -0.6487
  626MOL0     H82607   0.072   4.604   2.182  1.4992  0.7389  2.9855
  626MOL0     H82608  -0.150   4.644   2.049 -2.8155 -0.3944  0.6968
  626MOL0     H82609  -0.147   4.808   2.115  0.1667  0.3653 -0.7305
  626MOL0     H82610  -0.211   4.549   2.259  4.2185 -0.7901 -1.8252
  626MOL0     H82611  -0.134   4.687   2.340  3.3576  1.5397 -5.0289
  626MOL0     H82612  -0.400   4.709   2.352 -4.9356 -1.5011 -1.6707
  626MOL0     H82613  -0.398   4.707   2.176  0.5963  2.7783 -1.2262
  626MOL0     H82614   0.685   4.815   1.816 -3.1449 -1.2471 -0.8863
  626MOL0     H82615   0.941   4.784   1.826  0.1726 -0.0077 -1.5082
  626MOL0     H82616   1.335   4.440   2.033  0.8619 -1.2238 -1.0065
  626MOL0     H82617   1.574   4.464   2.024 -0.0898  1.2683  1.0465
  626MOL0     H82618   3.434   4.097   1.557  3.7799  1.2288 -1.0987
  626MOL0     H82619   3.593   4.246   1.621 -0.0548  0.1867  1.5013
  626MOL0     H82620   3.878   4.431   1.788 -0.4659 -0.6769 -0.9611
  626MOL0     H82621   4.068   4.583   1.752  0.4176 -0.3247  0.3175
  626MOL0     H82622   4.512   4.582   1.727 -1.4753 -0.8754 -2.6697
  626MOL0     H82623   4.466   4.418   1.744  1.9736 -1.0402  1.1770
  626MOL0     H82624   4.493   4.621   1.979 -2.9663  1.0031 -0.8738
  626MOL0     H82625   4.447   4.447   1.995 -0.8349  0.1391 -0.7426
  626MOL0     H82626   4.712   4.554   1.885  0.4993  1.0387  2.2183
  626MOL0     H82627   4.656   4.383   1.876 -0.8020  1.7887 -2.3933
  626MOL0     H82628   4.672   4.542   2.137  1.7975  1.4077 -1.1504
  626MOL0     H82629   4.639   4.359   2.111  0.6203 -0.1797  1.6760
  626MOL0     H82630   5.053   4.481   2.153  1.3354 -3.1046 -1.1712
  626MOL0     H82631   4.347   4.290   1.891 -0.4296  1.5845  2.6149
  626MOL0     H82632   4.170   4.131   1.925  3.1770  1.1514  1.6402
  627MOL0     O82633   2.290   8.245   3.225 -0.3785  0.3213 -0.9766
  627MOL0     C82634   2.360   8.345   3.212 -0.3565 -0.3434  0.5090
  627MOL0     O82635   2.332   8.455   3.130  0.2036  0.4816 -0.3549
  627MOL0     C82636   2.215   8.465   3.057  0.0546 -0.0796 -0.0777
  627MOL0     C82637   2.191   8.373   2.948 -0.3040  0.0922 -0.3399
  627MOL0     C82638   2.089   8.398   2.862  0.1494 -1.8007  0.4436
  627MOL0     C82639   1.993   8.502   2.883 -0.3186  0.3348 -0.0489
  627MOL0     O82640   1.889   8.499   2.798  0.3503  0.2079 -0.3555
  627MOL0     C82641   1.798   8.612   2.805 -0.6392 -0.1577  0.7388
  627MOL0     C82642   1.679   8.592   2.709 -0.7181 -0.4489  0.3774
  627MOL0     C82643   1.596   8.722   2.707 -1.2338  1.0937 -0.7930
  627MOL0     C82644   1.471   8.704   2.619  0.3843 -0.2583  0.4217
  627MOL0     C82645   1.362   8.631   2.705  0.1176 -0.9966  0.1570
  627MOL0     C82646   1.243   8.627   2.613 -0.4970  0.9044 -0.3633
  627MOL0     C82647   1.149   8.746   2.618  0.8621 -0.2872  0.2486
  627MOL0     C82648   1.067   8.727   2.748  0.0829 -0.8370 -0.3409
  627MOL0     N82649   0.950   8.820   2.748  0.2332  0.6997 -0.0728
  627MOL0     C82650   0.827   8.799   2.700  0.2266 -0.4698 -0.4230
  627MOL0     C82651   0.772   8.926   2.692 -0.1487 -0.0158 -0.0947
  627MOL0     C82652   0.641   8.969   2.632 -1.0322  0.6959 -0.0392
  627MOL0     C82653   0.538   9.016   2.740 -0.5440 -0.0187  0.3147
  627MOL0     C82654   0.413   9.089   2.675 -0.3584  0.7373  0.2338
  627MOL0     C82655   0.285   9.091   2.757  0.6787  1.2212  0.5264
  627MOL0     O82656   0.221   8.958   2.752  0.4346  0.2323 -0.2124
  627MOL0     C82657   0.090   8.941   2.724  0.3853  0.5966  0.0137
  627MOL0     C82658  -0.014   9.041   2.690 -0.7785  0.4549  1.1977
  627MOL0     C82659  -0.147   9.007   2.661 -0.2189 -0.1506  0.1128
  627MOL0     C82660  -0.191   8.876   2.667  0.0664 -0.2882 -0.2658
  627MOL0     C82661  -0.327   8.840   2.644  0.1009 -0.3042  0.2974
  627MOL0     O82662  -0.360   8.707   2.642 -0.4842 -0.0334  0.1717
  627MOL0     C82663  -0.485   8.667   2.661  0.1423  0.0415 -0.6976
  627MOL0     C82664  -0.581   8.745   2.716 -0.0103 -0.1775  0.6297
  627MOL0     C82665  -0.707   8.698   2.740  0.1066 -0.8146  0.2865
  627MOL0     C82666  -0.730   8.559   2.718  0.5794  1.1758 -1.2419
  627MOL0     O82667  -0.858   8.510   2.735 -0.3984 -0.4277  0.1471
  627MOL0     C82668  -0.903   8.476   2.863 -0.3445  0.4384 -0.5706
  627MOL0     C82669  -1.042   8.535   2.901  0.1299 -0.6972  0.1285
  627MOL0     C82670  -1.090   8.474   3.028  0.2415 -0.9886  0.2454
  627MOL0     C82671  -1.234   8.522   3.060 -0.2516 -0.2912  0.9290
  627MOL0     C82672  -1.276   8.447   3.189 -0.5091  0.1652 -0.6892
  627MOL0     C82673  -1.403   8.502   3.246  0.3678  0.4916  1.2692
  627MOL0     C82674  -1.382   8.631   3.318  0.6113 -0.0151  0.1789
  627MOL0     C82675  -1.494   8.689   3.398 -0.3457 -0.7420 -0.4614
  627MOL0    Cl82676  -1.639   8.700   3.287  0.1064  0.0469 -0.4489
  627MOL0     C82677  -0.628   8.476   2.669  0.8079 -0.4911 -0.3517
  627MOL0     C82678  -0.506   8.538   2.641 -0.1942  0.0853  0.0495
  627MOL0     O82679  -0.404   8.935   2.616 -0.0365 -0.0705 -0.0102
  627MOL0     C82680  -0.096   8.784   2.701 -1.0864  0.1430  0.3043
  627MOL0     C82681   0.038   8.804   2.729 -0.6295 -0.6508  0.2206
  627MOL0     N82682   0.867   9.016   2.744  0.6428 -0.9623 -0.0270
  627MOL0     N82683   0.973   8.953   2.767  0.5401  0.1938 -0.0201
  627MOL0     C82684   2.015   8.590   2.992 -1.2858 -0.6767 -0.4638
  627MOL0     C82685   2.131   8.570   3.073  0.3355 -0.5345  0.6751
  627MOL0     C82686   2.493   8.362   3.278  0.7358  0.0399  0.3014
  627MOL0     C82687   2.531   8.295   3.400 -0.2737  0.2145 -0.2435
  627MOL0     C82688   2.647   8.305   3.466 -0.4771  0.0298  0.2443
  627MOL0     C82689   2.743   8.391   3.405 -0.4733 -0.0970  0.3249
  627MOL0     O82690   2.865   8.409   3.455 -0.8569 -0.4232 -1.0405
  627MOL0     C82691   2.898   8.383   3.603  0.1890 -0.5680 -0.0607
  627MOL0     C82692   3.053   8.402   3.615 -0.0635  0.2886  0.8466
  627MOL0     C82693   3.099   8.485   3.731  0.6914  0.0513 -0.1657
  627MOL0     C82694   3.242   8.451   3.772 -0.0477  1.7293 -0.0494
  627MOL0     C82695   3.261   8.313   3.830 -0.5377 -0.3923  0.9949
  627MOL0     C82696   3.258   8.200   3.883  0.0776  0.1315  0.3755
  627MOL0     C82697   2.718   8.459   3.284 -0.4166 -0.4365  0.2788
  627MOL0     C82698   2.591   8.446   3.224  0.0920 -0.1265  0.8960
  627MOL0     H82699   2.262   8.292   2.946 -0.3238  0.0850 -1.6716
  627MOL0     H82700   2.074   8.335   2.775 -1.5610 -2.2190  1.0037
  627MOL0     H82701   1.836   8.710   2.774 -0.5250  0.2755  2.1682
  627MOL0     H82702   1.753   8.604   2.904 -0.4974  0.0765  0.8213
  627MOL0     H82703   1.618   8.506   2.737 -1.3199 -0.2707 -0.3547
  627MOL0     H82704   1.719   8.569   2.609 -1.8399 -3.2550  0.4914
  627MOL0     H82705   1.659   8.803   2.668 -2.3913  2.0678 -0.7031
  627MOL0     H82706   1.553   8.750   2.803 -1.0298  1.3341 -0.7710
  627MOL0     H82707   1.439   8.803   2.583  1.9818  0.1112 -0.0758
  627MOL0     H82708   1.503   8.642   2.534  4.2642  1.2562  0.5881
  627MOL0     H82709   1.326   8.680   2.796  1.8837  1.1373 -0.2065
  627MOL0     H82710   1.400   8.533   2.734  2.5207  0.1934  1.3114
  627MOL0     H82711   1.196   8.531   2.637  0.6567 -0.4449 -3.1045
  627MOL0     H82712   1.259   8.613   2.505 -3.1104  2.0428 -0.9924
  627MOL0     H82713   1.194   8.845   2.606  0.7728 -0.1216  1.1991
  627MOL0     H82714   1.080   8.736   2.534  1.2295 -2.3079  0.1558
  627MOL0     H82715   1.120   8.757   2.839  2.0680  1.2722 -2.0459
  627MOL0     H82716   1.027   8.626   2.744 -3.0932  0.0506  3.3621
  627MOL0     H82717   0.777   8.708   2.671 -2.3380  0.7261  0.0051
  627MOL0     H82718   0.594   8.888   2.575  3.3394 -1.8538 -0.4650
  627MOL0     H82719   0.666   9.048   2.561  2.0105 -0.4331 -0.3315
  627MOL0     H82720   0.576   9.076   2.823 -1.7004  0.4746  0.5081
  627MOL0     H82721   0.499   8.921   2.777  2.2967 -0.8125  1.5243
  627MOL0     H82722   0.453   9.190   2.661  2.1965 -0.1532  0.5542
  627MOL0     H82723   0.389   9.048   2.577  1.3724  0.3185 -0.0473
  627MOL0     H82724   0.223   9.168   2.710 -0.7108  0.3313  0.8206
  627MOL0     H82725   0.302   9.122   2.860 -0.8471  2.9724  0.3054
  627MOL0     H82726   0.019   9.144   2.694 -0.4553  0.6360 -2.4095
  627MOL0     H82727  -0.213   9.091   2.642 -0.9664 -0.8553 -0.5089
  627MOL0     H82728  -0.566   8.848   2.747 -3.0827  0.7344 -0.4619
  627MOL0     H82729  -0.789   8.757   2.777  0.0931  0.7632 -2.0562
  627MOL0     H82730  -0.831   8.523   2.931  1.8094  1.9737 -3.6755
  627MOL0     H82731  -0.915   8.368   2.876  0.5043  0.2136 -1.5484
  627MOL0     H82732  -1.104   8.505   2.817 -0.8290  0.4280  0.4035
  627MOL0     H82733  -1.044   8.644   2.915 -1.4873 -0.7557  0.5272
  627MOL0     H82734  -1.036   8.499   3.119  3.7241 -1.3229 -1.5488
  627MOL0     H82735  -1.084   8.365   3.030  2.2651 -0.9901 -1.7474
  627MOL0     H82736  -1.231   8.629   3.084  0.8267  0.5596 -2.4746
  627MOL0     H82737  -1.296   8.499   2.972  1.0648 -1.4555  0.2694
  627MOL0     H82738  -1.205   8.442   3.273 -1.1078 -0.1775 -0.1990
  627MOL0     H82739  -1.283   8.342   3.160  0.1228 -0.2061  0.4128
  627MOL0     H82740  -1.455   8.429   3.308  2.4354 -1.1592  1.1614
  627MOL0     H82741  -1.475   8.534   3.170 -1.2589  2.6068  3.5538
  627MOL0     H82742  -1.299   8.622   3.387 -0.0458 -0.2339  0.9556
  627MOL0     H82743  -1.357   8.706   3.241  0.2416 -2.5299 -2.5635
  627MOL0     H82744  -1.457   8.785   3.435  1.7881 -2.0095  0.9360
  627MOL0     H82745  -1.516   8.622   3.482  1.0953 -1.6878 -0.7969
  627MOL0     H82746  -0.651   8.374   2.640  2.0153 -0.8120 -0.2448
  627MOL0     H82747  -0.426   8.476   2.604  1.3807  0.8366  2.0201
  627MOL0     H82748  -0.139   8.685   2.715  2.1922 -1.2221  1.6656
  627MOL0     H82749   0.109   8.725   2.747  2.3488  1.3734 -1.7433
  627MOL0     H82750   1.964   8.683   3.014  2.3149  1.2370  0.6638
  627MOL0     H82751   2.156   8.635   3.156  2.6373 -1.1402  0.5244
  627MOL0     H82752   2.456   8.228   3.438 -0.2076  1.9349  3.3409
  627MOL0     H82753   2.666   8.240   3.551 -0.0841 -1.8697 -1.2410
  627MOL0     H82754   2.872   8.279   3.624 -3.1895  0.8600  4.4483
  627MOL0     H82755   2.841   8.449   3.670  1.1662 -1.0272  1.2469
  627MOL0     H82756   3.093   8.301   3.618 -1.7493 -0.5125 -1.2630
  627MOL0     H82757   3.087   8.446   3.521 -1.3401  2.0276  1.1336
  627MOL0     H82758   3.029   8.468   3.813 -1.0217  1.9094 -1.1510
  627MOL0     H82759   3.088   8.594   3.720 -0.2240  0.3542  2.9239
  627MOL0     H82760   3.297   8.448   3.677 -1.1566 -0.8836 -0.6979
  627MOL0     H82761   3.297   8.524   3.832  2.4626 -0.5355  0.5656
  627MOL0     H82762   3.245   8.110   3.940  2.2475  0.7305  1.9272
  627MOL0     H82763   2.790   8.526   3.240  2.2863 -0.3468  4.3010
  627MOL0     H82764   2.585   8.491   3.125 -1.8945  3.6676  2.5543
  628MOL0     O82765   9.411   7.589   4.634  0.3257 -0.3243  0.3145
  628MOL0     C82766   9.449   7.674   4.709 -0.2326 -0.8971 -1.0531
  628MOL0     O82767   9.378   7.729   4.817  0.0974 -0.4831  0.1109
  628MOL0     C82768   9.243   7.710   4.842 -0.4340 -0.0413  0.2393
  628MOL0     C82769   9.203   7.788   4.951  1.4104 -0.1346 -0.5510
  628MOL0     C82770   9.064   7.789   4.992  0.5463  0.1035 -0.1732
  628MOL0     C82771   8.977   7.692   4.938  0.7228  0.4044 -0.8081
  628MOL0     O82772   8.840   7.686   4.974  0.1670 -0.0412 -0.4698
  628MOL0     C82773   8.754   7.786   4.913  0.0515 -0.2413 -0.5525
  628MOL0     C82774   8.610   7.728   4.889  0.0164 -0.0997  0.6338
  628MOL0     C82775   8.519   7.732   5.016  0.7187  0.4177  0.1342
  628MOL0     C82776   8.362   7.718   4.984  0.3152  0.3378 -0.9682
  628MOL0     C82777   8.284   7.722   5.122  0.2504  0.5390  0.3600
  628MOL0     C82778   8.136   7.701   5.101  0.0525  0.1545  0.2349
  628MOL0     C82779   8.062   7.709   5.234  0.6979 -0.0561  0.2603
  628MOL0     C82780   7.914   7.697   5.197  0.5094 -0.4905  0.1504
  628MOL0     N82781   7.829   7.745   5.306  0.6716 -0.2563 -0.2505
  628MOL0     C82782   7.824   7.878   5.359  0.1551  0.2335 -0.0167
  628MOL0     C82783   7.712   7.872   5.445 -0.7667  0.1466  0.7505
  628MOL0     C82784   7.655   7.981   5.532  0.6600 -0.2254 -0.3591
  628MOL0     C82785   7.683   8.124   5.479  0.4499  0.7717 -0.5063
  628MOL0     C82786   7.586   8.235   5.547  0.0147  0.1732 -0.0628
  628MOL0     C82787   7.447   8.244   5.495  0.3839  0.6517 -0.0909
  628MOL0     O82788   7.453   8.262   5.359  0.3571  0.6041  0.1847
  628MOL0     C82789   7.340   8.287   5.282  0.1520 -0.0589 -0.1057
  628MOL0     C82790   7.210   8.289   5.342  0.3044 -0.4903  0.0982
  628MOL0     C82791   7.097   8.331   5.266 -0.3383 -0.2425 -0.1573
  628MOL0     C82792   7.108   8.365   5.129  0.7865 -0.4767 -0.9545
  628MOL0     C82793   6.995   8.426   5.048 -0.2100 -0.1641  0.3520
  628MOL0     O82794   6.875   8.456   5.101  0.0914  0.1268 -0.5487
  628MOL0     C82795   6.776   8.499   5.014 -0.9727  1.0183  0.6209
  628MOL0     C82796   6.693   8.605   5.045  0.2331 -0.1274 -0.1570
  628MOL0     C82797   6.590   8.651   4.969  0.1006  0.0472 -0.7241
  628MOL0     C82798   6.555   8.580   4.853  0.6348 -0.9326  0.3820
  628MOL0     O82799   6.444   8.621   4.786 -1.3444  0.2396  0.2456
  628MOL0     C82800   6.357   8.731   4.828 -0.3467 -0.0583  0.6597
  628MOL0     C82801   6.255   8.740   4.719 -0.1900 -0.3156  0.4691
  628MOL0     C82802   6.140   8.834   4.752 -1.3445  1.0312  0.0539
  628MOL0     C82803   6.025   8.834   4.652 -0.2867 -0.9448  0.3901
  628MOL0     C82804   5.895   8.899   4.697 -0.0430 -0.0377  0.3235
  628MOL0     C82805   5.786   8.920   4.589 -0.0468  0.0024 -0.4194
  628MOL0     C82806   5.675   9.021   4.630 -0.3215 -0.3595  0.9182
  628MOL0     C82807   5.597   9.059   4.504  0.4747 -0.0093 -0.8916
  628MOL0    Cl82808   5.433   9.102   4.561  0.0178  0.0033 -0.3411
  628MOL0     C82809   6.636   8.469   4.814  0.7455  0.2555  0.0575
  628MOL0     C82810   6.747   8.432   4.890  0.4140  0.9398  0.0378
  628MOL0     O82811   7.026   8.452   4.931 -0.6010 -0.8036  0.8307
  628MOL0     C82812   7.236   8.363   5.071 -0.3493 -0.9310 -0.5545
  628MOL0     C82813   7.346   8.323   5.148 -0.3292 -0.3166  0.2495
  628MOL0     N82814   7.678   7.739   5.463  0.8182  0.7839  0.6928
  628MOL0     N82815   7.751   7.666   5.379 -0.9097 -0.3852 -0.2657
  628MOL0     C82816   9.026   7.602   4.849 -0.0510  0.4138 -0.1122
  628MOL0     C82817   9.161   7.611   4.802  0.5463  0.1474  0.0782
  628MOL0     C82818   9.587   7.712   4.678 -0.4422  0.7347 -1.1236
  628MOL0     C82819   9.646   7.812   4.755  0.2919 -0.1636  0.6029
  628MOL0     C82820   9.770   7.862   4.725  0.0097  0.1937  0.2554
  628MOL0     C82821   9.850   7.801   4.623  0.5120 -0.1119  0.3177
  628MOL0     O82822   9.979   7.825   4.581 -0.0893 -0.2031 -1.0187
  628MOL0     C82823  10.049   7.929   4.644  0.6152  0.7266  0.5461
  628MOL0     C82824  10.176   7.972   4.566  0.1946  0.3931  0.1142
  628MOL0     C82825  10.278   7.866   4.527 -0.1663 -1.4957 -0.7476
  628MOL0     C82826  10.304   7.759   4.635 -0.0937 -0.5174  0.6115
  628MOL0     C82827  10.354   7.826   4.759 -0.6499 -0.0589  0.2478
  628MOL0     C82828  10.398   7.882   4.858 -0.3657 -0.1092 -0.0994
  628MOL0     C82829   9.796   7.690   4.558 -0.6886  0.8414  0.5010
  628MOL0     C82830   9.667   7.638   4.583  0.4254 -0.7702 -0.2652
  628MOL0     H82831   9.273   7.858   4.996  0.6960  0.8964 -0.9953
  628MOL0     H82832   9.031   7.852   5.075 -0.1410 -2.9139  2.0518
  628MOL0     H82833   8.784   7.815   4.812 -0.4138  0.2965 -0.5431
  628MOL0     H82834   8.756   7.872   4.980  1.3379 -1.4912  1.0888
  628MOL0     H82835   8.615   7.622   4.864  2.0901 -0.2503  1.5314
  628MOL0     H82836   8.573   7.785   4.803  2.0949 -1.4649 -1.2898
  628MOL0     H82837   8.528   7.826   5.070 -2.4331  1.5032 -0.9997
  628MOL0     H82838   8.535   7.645   5.080 -1.2752 -0.8887 -0.9974
  628MOL0     H82839   8.320   7.781   4.905 -0.5454 -0.8618 -1.4940
  628MOL0     H82840   8.357   7.623   4.929 -1.4345  1.1543 -2.3165
  628MOL0     H82841   8.277   7.824   5.161  1.6229  1.0912 -0.7660
  628MOL0     H82842   8.322   7.650   5.195  1.4370  1.5945  0.8319
  628MOL0     H82843   8.114   7.610   5.045 -0.8672 -0.1128  1.0031
  628MOL0     H82844   8.091   7.784   5.046 -0.5013 -0.1823  0.1782
  628MOL0     H82845   8.100   7.631   5.301  0.4003 -0.4362 -0.0121
  628MOL0     H82846   8.075   7.805   5.286 -2.1510  2.2585 -2.9228
  628MOL0     H82847   7.873   7.599   5.172  0.3730 -0.4678  0.2806
  628MOL0     H82848   7.896   7.758   5.108  0.1960 -2.4990 -1.2265
  628MOL0     H82849   7.876   7.966   5.323 -1.8021  1.9173  1.0188
  628MOL0     H82850   7.695   7.975   5.634  1.1507  2.0002 -0.3677
  628MOL0     H82851   7.548   7.962   5.542 -0.0518  3.5949  0.7575
  628MOL0     H82852   7.664   8.115   5.372 -0.6226 -2.1934 -0.1699
  628MOL0     H82853   7.789   8.145   5.498 -0.2429  1.1418  4.2671
  628MOL0     H82854   7.586   8.208   5.653 -1.9968 -2.0051 -0.5405
  628MOL0     H82855   7.626   8.336   5.531 -1.9689  0.8673 -0.8895
  628MOL0     H82856   7.406   8.330   5.549  0.8420 -1.0575  3.2539
  628MOL0     H82857   7.382   8.162   5.525 -0.5184  1.0250 -0.9777
  628MOL0     H82858   7.181   8.259   5.442 -1.4721  2.2370  0.5087
  628MOL0     H82859   7.000   8.324   5.314  0.3378 -0.1254  1.2871
  628MOL0     H82860   6.729   8.656   5.134  1.9015 -1.2898 -0.1230
  628MOL0     H82861   6.528   8.734   5.003 -2.2379 -1.1383 -1.8810
  628MOL0     H82862   6.409   8.827   4.836 -1.8927  0.7203  1.9827
  628MOL0     H82863   6.313   8.721   4.928  0.1066 -2.2100  0.6908
  628MOL0     H82864   6.209   8.642   4.708 -0.5530 -0.0245 -0.9075
  628MOL0     H82865   6.317   8.776   4.636  1.7944 -0.6652  1.7327
  628MOL0     H82866   6.184   8.934   4.752 -1.3494  1.0504  1.4489
  628MOL0     H82867   6.097   8.824   4.853 -1.9812 -1.1753 -0.3705
  628MOL0     H82868   6.067   8.902   4.577 -2.1612  2.2160  2.0259
  628MOL0     H82869   6.008   8.736   4.605  1.6009 -1.1237 -0.0098
  628MOL0     H82870   5.926   8.997   4.734 -0.9691 -0.6682  2.9854
  628MOL0     H82871   5.856   8.839   4.780  0.8376 -0.8489  0.1597
  628MOL0     H82872   5.732   8.825   4.587 -0.5039 -0.0273  4.0826
  628MOL0     H82873   5.826   8.950   4.492  1.1733  2.7341  0.8300
  628MOL0     H82874   5.619   8.964   4.704 -0.0462 -2.7706 -0.6242
  628MOL0     H82875   5.703   9.119   4.669 -2.0458 -0.0074  1.3226
  628MOL0     H82876   5.565   8.967   4.455 -5.3150  1.0350  0.2696
  628MOL0     H82877   5.643   9.127   4.432  1.0549 -1.2218 -1.6962
  628MOL0     H82878   6.621   8.411   4.723  2.3365 -0.6561  0.3401
  628MOL0     H82879   6.807   8.345   4.866  0.9653  1.4277 -0.3874
  628MOL0     H82880   7.260   8.388   4.968  0.9748 -1.1783 -0.3180
  628MOL0     H82881   7.435   8.322   5.086  0.5537 -0.7686  1.4833
  628MOL0     H82882   8.968   7.519   4.811 -1.5310  1.1277  0.4895
  628MOL0     H82883   9.179   7.526   4.736 -2.1501  0.9254 -1.8550
  628MOL0     H82884   9.597   7.875   4.828 -1.8355 -0.1153 -0.7926
  628MOL0     H82885   9.815   7.947   4.776 -0.4337 -0.2838  1.4652
  628MOL0     H82886  10.078   7.902   4.746  0.8591 -1.1174  0.0219
  628MOL0     H82887   9.988   8.020   4.643 -0.9434 -0.2032 -3.1612
  628MOL0     H82888  10.150   8.025   4.473  3.4338 -0.7499 -1.5945
  628MOL0     H82889  10.222   8.056   4.619 -2.5183  1.8825  0.3079
  628MOL0     H82890  10.370   7.918   4.501 -0.0356 -2.3986 -2.2232
  628MOL0     H82891  10.253   7.811   4.435 -2.6719  0.3415 -1.2808
  628MOL0     H82892  10.214   7.701   4.659  0.1245 -0.2955  2.0982
  628MOL0     H82893  10.377   7.685   4.602  0.8663 -0.7481  3.0337
  628MOL0     H82894  10.438   7.912   4.953 -0.5827 -1.1267  0.3253
  628MOL0     H82895   9.854   7.651   4.475 -0.8087  1.9366 -0.1220
  628MOL0     H82896   9.621   7.564   4.518  0.3039 -1.2006  0.2972
  629MOL0     O82897   7.986   2.134   0.444  0.2837  0.0296 -0.3439
  629MOL0     C82898   7.979   2.027   0.385  0.4919  0.0667  0.0399
  629MOL0     O82899   8.086   1.960   0.323 -0.1006 -0.4084  0.2148
  629MOL0     C82900   8.218   2.002   0.342  0.0590  0.2593  0.0577
  629MOL0     C82901   8.306   1.939   0.255  0.1830 -0.0848 -0.2033
  629MOL0     C82902   8.440   1.977   0.247  0.0946  0.3610 -0.1408
  629MOL0     C82903   8.491   2.067   0.334 -0.2668 -0.7851  0.2670
  629MOL0     O82904   8.627   2.081   0.338  0.2648  0.1150  0.1908
  629MOL0     C82905   8.669   2.219   0.330 -1.3298 -0.0979  0.1946
  629MOL0     C82906   8.771   2.240   0.440 -0.4118 -0.0645 -1.1742
  629MOL0     C82907   8.908   2.206   0.391  0.0221 -0.5117  0.6875
  629MOL0     C82908   9.022   2.247   0.479 -0.2487 -0.2796 -0.2664
  629MOL0     C82909   9.155   2.211   0.416  0.3869  0.0493  0.3080
  629MOL0     C82910   9.268   2.298   0.478 -0.0460  0.2049 -1.2093
  629MOL0     C82911   9.298   2.270   0.621 -0.1191  0.6843 -0.3900
  629MOL0     C82912   9.437   2.322   0.670 -0.1109  0.5147 -0.1049
  629MOL0     N82913   9.416   2.458   0.735 -0.4897  0.3521  0.6614
  629MOL0     C82914   9.387   2.576   0.671 -0.2899  0.0288 -0.2853
  629MOL0     C82915   9.339   2.650   0.774  0.1842  0.1640 -0.4967
  629MOL0     C82916   9.276   2.779   0.765 -0.1316  0.3142 -0.2278
  629MOL0     C82917   9.157   2.790   0.663  0.0615  0.6021 -0.1232
  629MOL0     C82918   9.040   2.691   0.695 -0.2416 -0.1534  0.6015
  629MOL0     C82919   8.934   2.709   0.595 -0.5853  0.2909 -0.3905
  629MOL0     O82920   8.828   2.617   0.635 -1.4452  0.6840  0.3048
  629MOL0     C82921   8.709   2.616   0.567  0.1278  0.3131 -0.2343
  629MOL0     C82922   8.607   2.528   0.610  0.0201 -0.1987  0.3214
  629MOL0     C82923   8.481   2.534   0.546  0.4552  0.4668  0.3544
  629MOL0     C82924   8.457   2.608   0.436 -0.2785 -0.3685 -0.0121
  629MOL0     C82925   8.328   2.590   0.366  0.3120  0.1570 -0.9344
  629MOL0     O82926   8.236   2.526   0.433 -0.1395 -0.0405  0.5801
  629MOL0     C82927   8.112   2.493   0.384 -0.3996 -0.9308  0.5492
  629MOL0     C82928   8.019   2.466   0.488 -0.0585 -0.8417 -0.7895
  629MOL0     C82929   7.879   2.456   0.464 -0.0660 -0.4398 -0.8910
  629MOL0     C82930   7.834   2.463   0.334  0.1189  0.0536 -0.6659
  629MOL0     O82931   7.706   2.426   0.297 -0.5864 -0.3580 -0.0371
  629MOL0     C82932   7.594   2.436   0.386  1.0845 -0.0944 -0.3662
  629MOL0     C82933   7.462   2.427   0.300  0.0021 -0.1377  0.1967
  629MOL0     C82934   7.335   2.408   0.392 -0.8594 -0.0375 -0.0668
  629MOL0     C82935   7.334   2.534   0.492  0.0120  0.6794 -0.0605
  629MOL0     C82936   7.195   2.547   0.560 -0.4336 -0.2105 -0.7397
  629MOL0     C82937   7.078   2.566   0.466 -0.2906  0.6242  0.1476
  629MOL0     C82938   6.956   2.614   0.536  0.1149  0.2749  0.4090
  629MOL0     C82939   6.842   2.531   0.479 -0.4821  0.2649 -0.2178
  629MOL0    Cl82940   6.813   2.528   0.306 -0.4516 -0.2171  0.0022
  629MOL0     C82941   7.923   2.495   0.230  0.0743  0.0356  0.1807
  629MOL0     C82942   8.066   2.507   0.254  1.0327  0.4647  0.0762
  629MOL0     O82943   8.313   2.640   0.260  0.3801  0.8580  0.5256
  629MOL0     C82944   8.562   2.686   0.376  0.3685  0.1098  0.3957
  629MOL0     C82945   8.686   2.682   0.445 -0.2443  0.1740 -0.0783
  629MOL0     N82946   9.354   2.584   0.898 -0.5965  0.6259 -0.5811
  629MOL0     N82947   9.401   2.472   0.873 -0.1984  0.2311  0.9308
  629MOL0     C82948   8.411   2.122   0.440 -0.4441  0.4526  0.5908
  629MOL0     C82949   8.270   2.090   0.439 -0.5472  0.0412 -0.5195
  629MOL0     C82950   7.839   1.983   0.383 -0.0781  0.2547  0.7772
  629MOL0     C82951   7.814   1.852   0.353 -1.0600  0.3340  0.7211
  629MOL0     C82952   7.691   1.801   0.364  0.5538 -0.5787  0.1772
  629MOL0     C82953   7.579   1.881   0.396 -0.2671 -0.9141 -0.6108
  629MOL0     O82954   7.459   1.822   0.403 -0.1681 -0.9497  0.5234
  629MOL0     C82955   7.350   1.892   0.452  0.1352  0.1837  0.2847
  629MOL0     C82956   7.238   1.781   0.486  0.1629 -0.2562  0.4432
  629MOL0     C82957   7.171   1.746   0.353  0.4312 -0.1409 -0.6891
  629MOL0     C82958   7.028   1.804   0.346 -0.7151 -0.7498  0.1107
  629MOL0     C82959   6.927   1.728   0.424 -0.3801 -0.5924  0.2216
  629MOL0     C82960   6.855   1.661   0.491 -0.2689  0.0694  0.3855
  629MOL0     C82961   7.595   2.020   0.420  0.4439  0.1483 -0.1123
  629MOL0     C82962   7.729   2.063   0.425  0.0718  0.0465 -0.1757
  629MOL0     H82963   8.265   1.866   0.185  0.7078 -0.8475  0.2793
  629MOL0     H82964   8.501   1.943   0.163 -0.5656 -3.9086  0.8753
  629MOL0     H82965   8.589   2.291   0.348 -1.6207 -0.8462  2.2415
  629MOL0     H82966   8.715   2.235   0.233 -0.6958  1.9889  0.8005
  629MOL0     H82967   8.745   2.188   0.533  0.6075  1.3402 -0.0733
  629MOL0     H82968   8.763   2.347   0.462 -3.4764  0.1330 -2.6645
  629MOL0     H82969   8.914   2.254   0.293 -1.9903 -0.1801  0.6823
  629MOL0     H82970   8.912   2.098   0.373 -1.7333 -0.5116  0.1296
  629MOL0     H82971   9.015   2.352   0.508  0.5360 -0.1322 -0.5799
  629MOL0     H82972   9.005   2.191   0.572 -3.2064  1.7126  0.5400
  629MOL0     H82973   9.158   2.236   0.309 -0.5335 -1.6236 -0.1667
  629MOL0     H82974   9.182   2.105   0.416  1.8631  0.4081  0.1146
  629MOL0     H82975   9.244   2.405   0.473 -1.0057  0.1827  1.2940
  629MOL0     H82976   9.352   2.280   0.411 -0.7529 -0.6564 -1.8934
  629MOL0     H82977   9.219   2.302   0.689 -0.1700  0.4757 -0.3494
  629MOL0     H82978   9.295   2.161   0.621 -1.7689  0.5894 -3.9432
  629MOL0     H82979   9.512   2.336   0.592 -1.0522  0.2431 -1.0934
  629MOL0     H82980   9.483   2.258   0.745  1.2424 -0.6317 -1.8324
  629MOL0     H82981   9.381   2.595   0.565 -0.5237  1.4383 -0.0412
  629MOL0     H82982   9.347   2.852   0.724  2.7507 -3.3930 -2.5850
  629MOL0     H82983   9.248   2.810   0.866  2.2687 -0.2571  0.6814
  629MOL0     H82984   9.199   2.771   0.563 -0.9128  0.3256 -0.4922
  629MOL0     H82985   9.118   2.892   0.671 -3.3440 -0.5307 -0.4530
  629MOL0     H82986   9.069   2.585   0.691  1.5193  0.2672  1.2332
  629MOL0     H82987   9.001   2.714   0.794  1.4003  2.4240  0.7250
  629MOL0     H82988   8.979   2.684   0.498  0.3707 -2.2786  0.6449
  629MOL0     H82989   8.908   2.816   0.597 -0.5258  0.3627  3.0287
  629MOL0     H82990   8.620   2.469   0.700  0.2665  2.0143  1.8000
  629MOL0     H82991   8.402   2.483   0.599  1.3053 -0.7853  0.4651
  629MOL0     H82992   8.055   2.467   0.590  1.9131 -0.4721 -1.4461
  629MOL0     H82993   7.816   2.429   0.548 -1.4769  3.8914 -0.3051
  629MOL0     H82994   7.598   2.535   0.430 -0.8601  1.2791 -2.9785
  629MOL0     H82995   7.597   2.358   0.462  1.4551  0.3214  0.0482
  629MOL0     H82996   7.467   2.340   0.235  2.2640  0.2986 -0.2940
  629MOL0     H82997   7.451   2.514   0.234 -0.1294  0.6223  1.1905
  629MOL0     H82998   7.344   2.318   0.454  0.7116  0.1427  0.0061
  629MOL0     H82999   7.250   2.404   0.324 -1.0537 -3.1656  0.2177
  629MOL0     H83000   7.411   2.524   0.569  2.6705  3.8498 -2.0210
  629MOL0     H83001   7.349   2.630   0.443 -1.2696  1.5736  1.2270
  629MOL0     H83002   7.213   2.638   0.618  3.1813  0.4135 -2.5437
  629MOL0     H83003   7.184   2.467   0.634  2.5543 -0.2670 -0.2109
  629MOL0     H83004   7.065   2.473   0.410  0.8405 -0.4867  1.6332
  629MOL0     H83005   7.104   2.642   0.392  2.5990  0.2171  0.6154
  629MOL0     H83006   6.960   2.584   0.641  2.0046  0.8115  0.5283
  629MOL0     H83007   6.941   2.722   0.526  1.8069  0.5077  0.0704
  629MOL0     H83008   6.748   2.575   0.513  0.1691 -0.4903  2.8194
  629MOL0     H83009   6.846   2.430   0.519 -0.2030 -0.1199 -1.1796
  629MOL0     H83010   7.885   2.511   0.129  2.7288  0.7122 -0.7987
  629MOL0     H83011   8.137   2.530   0.176  0.6452 -0.1584 -0.4782
  629MOL0     H83012   8.552   2.733   0.279  1.9578  0.4647  0.3903
  629MOL0     H83013   8.761   2.753   0.412 -0.1003 -1.1708 -2.9764
  629MOL0     H83014   8.453   2.190   0.513 -0.7342  0.8777  0.3665
  629MOL0     H83015   8.207   2.147   0.507 -0.2471 -0.1261 -0.0947
  629MOL0     H83016   7.891   1.787   0.312 -1.2906  0.7232 -0.3496
  629MOL0     H83017   7.674   1.695   0.349 -0.9972 -0.3124 -0.0225
  629MOL0     H83018   7.313   1.974   0.390 -0.8637  0.7035  1.5198
  629MOL0     H83019   7.380   1.928   0.550 -0.7700  2.2991 -0.1642
  629MOL0     H83020   7.271   1.694   0.543 -2.2424 -0.0629  2.3245
  629MOL0     H83021   7.180   1.835   0.561  0.1479  1.8063 -0.9546
  629MOL0     H83022   7.155   1.637   0.355  0.5828 -0.1799  1.5056
  629MOL0     H83023   7.235   1.784   0.273 -1.9804  1.3586 -2.0439
  629MOL0     H83024   7.039   1.909   0.375  3.1633 -0.7049 -0.9302
  629MOL0     H83025   6.986   1.818   0.246 -1.1928  1.8923  0.6096
  629MOL0     H83026   6.786   1.604   0.550 -0.2661  0.1290  0.4462
  629MOL0     H83027   7.511   2.086   0.441  2.0777  1.1431  4.6527
  629MOL0     H83028   7.744   2.170   0.437  0.2491 -0.0394  0.3858
  630MOL0     O83029   8.338   9.216   0.829 -0.8680 -0.5620 -0.1819
  630MOL0     C83030   8.390   9.167   0.926  0.0572  0.7111 -0.2158
  630MOL0     O83031   8.321   9.097   1.026  0.0453 -0.0941  0.5512
  630MOL0     C83032   8.192   9.056   1.015 -1.0878  0.1851  0.0778
  630MOL0     C83033   8.162   8.938   1.077 -0.1504 -0.1573  0.4419
  630MOL0     C83034   8.032   8.893   1.094 -0.0303 -0.2306  0.6001
  630MOL0     C83035   7.925   8.956   1.025  0.2229 -0.2135  0.1130
  630MOL0     O83036   7.790   8.921   1.040 -0.1247 -0.5353 -0.3873
  630MOL0     C83037   7.713   8.928   0.919 -0.2140  0.3364 -0.3217
  630MOL0     C83038   7.587   8.837   0.930 -0.1608 -0.1377  0.6370
  630MOL0     C83039   7.512   8.820   0.791  1.1450 -0.1164 -0.4576
  630MOL0     C83040   7.365   8.781   0.833  0.7430  0.4641  0.3823
  630MOL0     C83041   7.275   8.759   0.714  0.4666  0.9631  0.0050
  630MOL0     C83042   7.134   8.711   0.758 -0.5508 -0.1194 -0.5308
  630MOL0     C83043   7.055   8.659   0.644  0.1761  0.8677  1.2569
  630MOL0     C83044   7.068   8.502   0.616 -0.0163 -0.0621 -0.8787
  630MOL0     N83045   7.013   8.411   0.724  1.5515 -0.9316 -0.4728
  630MOL0     C83046   6.883   8.383   0.760  0.2225 -0.0068 -0.3818
  630MOL0     C83047   6.883   8.299   0.870 -0.6067 -0.7202 -0.4797
  630MOL0     C83048   6.761   8.229   0.935  0.0049 -0.1259 -0.3569
  630MOL0     C83049   6.699   8.312   1.056  0.6390 -0.4644  0.3781
  630MOL0     C83050   6.641   8.445   1.003  0.0570  0.1940 -0.5151
  630MOL0     C83051   6.524   8.409   0.901 -0.2683  0.0306  0.2780
  630MOL0     O83052   6.579   8.452   0.773 -0.2938 -0.0951  0.3158
  630MOL0     C83053   6.494   8.461   0.663 -0.0675 -0.6485  0.3531
  630MOL0     C83054   6.355   8.440   0.678 -0.0530 -0.2687  0.5248
  630MOL0     C83055   6.279   8.424   0.566 -0.2501 -0.3042 -0.3045
  630MOL0     C83056   6.316   8.458   0.439 -0.7358 -0.2445  0.2437
  630MOL0     C83057   6.219   8.463   0.330 -0.1184  0.3712 -0.0968
  630MOL0     O83058   6.263   8.438   0.199 -0.3682 -0.4207 -0.1107
  630MOL0     C83059   6.174   8.459   0.096 -0.1888 -0.0862 -0.2697
  630MOL0     C83060   6.145   8.344   0.012  0.7184  0.9340  0.0901
  630MOL0     C83061   6.041   8.348  -0.076  0.4325 -0.3960 -0.2761
  630MOL0     C83062   5.974   8.468  -0.098  1.1443 -0.3740  0.2894
  630MOL0     O83063   5.884   8.464  -0.197  0.2021  0.2650 -0.2233
  630MOL0     C83064   5.775   8.550  -0.182 -0.2562  0.8627  0.0402
  630MOL0     C83065   5.691   8.524  -0.312  0.3385 -0.9943  0.4495
  630MOL0     C83066   5.564   8.600  -0.312 -0.6178  0.1385  0.0841
  630MOL0     C83067   5.497   8.587  -0.449 -0.6296  0.3037 -0.2340
  630MOL0     C83068   5.349   8.639  -0.454  0.6585 -0.0374  0.0945
  630MOL0     C83069   5.290   8.607  -0.599 -0.4181 -0.0702 -0.0383
  630MOL0     C83070   5.157   8.667  -0.628 -1.1860  0.1492 -0.0831
  630MOL0     C83071   5.088   8.642  -0.757 -0.4455  1.0288 -0.0923
  630MOL0    Cl83072   4.923   8.704  -0.754  0.3490  0.1737 -0.4490
  630MOL0     C83073   6.009   8.586  -0.026 -0.1593  0.4486 -0.1531
  630MOL0     C83074   6.100   8.576   0.073 -0.1021  0.0154 -0.0320
  630MOL0     O83075   6.101   8.485   0.355  0.1805 -0.0208  0.1261
  630MOL0     C83076   6.452   8.481   0.424 -0.1199  0.5938  0.1323
  630MOL0     C83077   6.538   8.485   0.533 -0.4030 -0.4407 -0.1133
  630MOL0     N83078   7.019   8.297   0.919  0.4568  0.6775  0.8586
  630MOL0     N83079   7.089   8.357   0.829  0.2665  0.4772 -0.8087
  630MOL0     C83080   7.954   9.085   0.975 -0.3694  0.0738 -0.1421
  630MOL0     C83081   8.081   9.122   0.956 -0.6951  0.2835 -0.1875
  630MOL0     C83082   8.530   9.190   0.951  0.2945 -1.2767 -0.2618
  630MOL0     C83083   8.593   9.289   0.873 -0.9427  0.7746 -0.2185
  630MOL0     C83084   8.729   9.322   0.903 -0.0598  0.1427  0.2760
  630MOL0     C83085   8.797   9.257   1.007  0.3425 -0.1351  0.1748
  630MOL0     O83086   8.931   9.274   1.014  0.1539 -0.1654 -0.1482
  630MOL0     C83087   9.001   9.150   1.020 -0.2728  0.6141 -0.0734
  630MOL0     C83088   9.132   9.185   0.942  1.2748  0.4084  0.2492
  630MOL0     C83089   9.216   9.286   1.017  0.4957  0.2006  0.4421
  630MOL0     C83090   9.348   9.330   0.946 -0.5566  1.0239  0.0196
  630MOL0     C83091   9.321   9.404   0.826 -0.6743 -0.0421  0.2971
  630MOL0     C83092   9.302   9.467   0.720 -0.5760  0.7731  0.1190
  630MOL0     C83093   8.731   9.165   1.086  0.2423 -0.0187  0.4851
  630MOL0     C83094   8.595   9.129   1.064  0.0017 -1.0133  0.4643
  630MOL0     H83095   8.235   8.873   1.124 -1.6231 -2.3139 -0.1439
  630MOL0     H83096   7.998   8.802   1.141 -2.7888 -2.2816 -4.6358
  630MOL0     H83097   7.776   8.899   0.835 -1.8670 -1.6362 -0.9622
  630MOL0     H83098   7.675   9.028   0.897  2.9887  1.7312 -0.0566
  630MOL0     H83099   7.521   8.869   1.011 -0.1112  1.7755 -0.0337
  630MOL0     H83100   7.634   8.746   0.968 -2.0081 -0.0316  3.4969
  630MOL0     H83101   7.556   8.744   0.725 -0.4756 -1.0097 -0.5397
  630MOL0     H83102   7.514   8.918   0.742 -1.4042 -0.7275 -1.9693
  630MOL0     H83103   7.371   8.688   0.891  0.6772 -0.0415 -0.4065
  630MOL0     H83104   7.318   8.861   0.891 -0.3062 -0.1732  0.4362
  630MOL0     H83105   7.318   8.687   0.643  0.1094 -1.9098  2.4551
  630MOL0     H83106   7.259   8.852   0.660 -0.8211  0.8608  0.1862
  630MOL0     H83107   7.083   8.798   0.800  0.0665  0.0701 -0.1567
  630MOL0     H83108   7.139   8.637   0.839 -0.0457  2.7840  2.3259
  630MOL0     H83109   6.952   8.692   0.662 -0.0515 -0.0259  1.6619
  630MOL0     H83110   7.089   8.702   0.550 -0.8474 -0.6723  0.1262
  630MOL0     H83111   7.169   8.468   0.594  1.6383 -0.2013  5.2600
  630MOL0     H83112   7.007   8.485   0.527 -0.1872 -2.4614 -0.3489
  630MOL0     H83113   6.788   8.398   0.710  0.1261 -0.3383 -0.3023
  630MOL0     H83114   6.807   8.133   0.962 -1.4952 -0.7797 -0.0141
  630MOL0     H83115   6.677   8.210   0.868  0.7649 -1.2381 -1.0271
  630MOL0     H83116   6.779   8.329   1.128 -0.1545 -0.8319  1.3718
  630MOL0     H83117   6.627   8.247   1.107 -0.3090 -2.0379 -2.7317
  630MOL0     H83118   6.602   8.502   1.087  1.2240 -1.1749  1.0171
  630MOL0     H83119   6.718   8.512   0.964  0.7712 -0.1720  0.2429
  630MOL0     H83120   6.442   8.478   0.924  0.4872  0.4637  1.7545
  630MOL0     H83121   6.486   8.307   0.910  1.0663 -0.6400 -1.2378
  630MOL0     H83122   6.310   8.429   0.777 -1.4450  0.6919  0.0297
  630MOL0     H83123   6.175   8.395   0.580 -0.2469 -0.0439  0.3072
  630MOL0     H83124   6.197   8.251   0.037 -3.1341 -1.9438 -1.6417
  630MOL0     H83125   6.029   8.254  -0.129  0.8165 -2.3515  2.8035
  630MOL0     H83126   5.797   8.657  -0.179  6.7555 -0.1429  0.2568
  630MOL0     H83127   5.728   8.513  -0.090  1.2950  1.9992  1.3544
  630MOL0     H83128   5.681   8.415  -0.318  0.3171 -0.9010 -3.1036
  630MOL0     H83129   5.755   8.552  -0.397 -0.7491  1.0755  0.2521
  630MOL0     H83130   5.584   8.705  -0.292 -2.0719  0.2010  1.4832
  630MOL0     H83131   5.495   8.562  -0.236  0.5095 -1.6563  0.2748
  630MOL0     H83132   5.567   8.635  -0.517 -0.0411  0.6253  0.5805
  630MOL0     H83133   5.495   8.481  -0.475  0.4005  0.0479  0.6561
  630MOL0     H83134   5.344   8.745  -0.427  0.5842  0.3698 -1.4482
  630MOL0     H83135   5.294   8.585  -0.376  1.2670 -0.7867  0.0253
  630MOL0     H83136   5.263   8.501  -0.596 -4.4303  0.6152 -2.5908
  630MOL0     H83137   5.374   8.633  -0.664  0.1558  0.4740  0.9149
  630MOL0     H83138   5.092   8.647  -0.542 -1.2170 -0.4627 -0.2413
  630MOL0     H83139   5.182   8.773  -0.624  0.6998 -0.2009 -1.4501
  630MOL0     H83140   5.077   8.534  -0.770  2.2578  0.9175 -2.2955
  630MOL0     H83141   5.143   8.690  -0.838  1.1114  0.6821  0.7165
  630MOL0     H83142   5.949   8.675  -0.043  0.7068  0.7564 -1.8462
  630MOL0     H83143   6.122   8.670   0.123 -1.0202  0.5303 -0.5733
  630MOL0     H83144   6.496   8.492   0.326  2.3524  0.5814  1.1652
  630MOL0     H83145   6.645   8.499   0.529 -0.4299  0.1971  0.8833
  630MOL0     H83146   7.868   9.146   0.950 -1.5279 -1.0054  1.0403
  630MOL0     H83147   8.094   9.213   0.898 -0.2210  0.6877  0.5396
  630MOL0     H83148   8.538   9.336   0.791 -3.5684 -2.3792 -0.4804
  630MOL0     H83149   8.769   9.406   0.847 -2.0442  0.8230 -0.1899
  630MOL0     H83150   8.943   9.068   0.977  0.2371  0.2978 -0.1674
  630MOL0     H83151   9.020   9.129   1.126  0.3706 -1.1259 -0.5031
  630MOL0     H83152   9.187   9.092   0.926  1.2266  0.0849  1.8132
  630MOL0     H83153   9.110   9.241   0.850  0.5412  2.0710  1.3858
  630MOL0     H83154   9.243   9.234   1.110  0.7996 -1.3320 -0.4587
  630MOL0     H83155   9.152   9.373   1.028 -0.4150 -0.1051 -1.8341
  630MOL0     H83156   9.396   9.398   1.017 -3.4572  1.8275  1.3930
  630MOL0     H83157   9.417   9.247   0.927  3.9386  2.6903  5.9288
  630MOL0     H83158   9.288   9.499   0.619 -0.7396  1.0463  0.2279
  630MOL0     H83159   8.788   9.114   1.162  1.5189  4.8967  3.2406
  630MOL0     H83160   8.549   9.053   1.126  0.2598 -0.9733  0.7025
  631MOL0     O83161   2.460   1.526  10.255  0.4057 -0.2762  0.3228
  631MOL0     C83162   2.490   1.618  10.337 -0.0526 -1.5457 -0.0276
  631MOL0     O83163   2.404   1.680  10.422  0.4390  0.4165  0.4554
  631MOL0     C83164   2.286   1.625  10.431  1.0749 -0.2622  0.2036
  631MOL0     C83165   2.171   1.702  10.387 -0.3055 -0.0214 -0.1639
  631MOL0     C83166   2.047   1.645  10.403  0.2646 -0.7471  0.4231
  631MOL0     C83167   2.030   1.523  10.473  0.5382  0.1283 -0.1329
  631MOL0     O83168   1.902   1.500  10.526 -1.0519 -0.3684  0.1251
  631MOL0     C83169   1.876   1.370  10.582 -0.5207 -0.7854 -0.5508
  631MOL0     C83170   1.732   1.325  10.554 -0.0096  0.2556  0.0995
  631MOL0     C83171   1.625   1.393  10.630 -0.3683 -0.4292  0.7050
  631MOL0     C83172   1.480   1.342  10.583  0.5353 -0.3173 -0.8410
  631MOL0     C83173   1.375   1.432  10.651  0.3672 -1.3313 -0.9109
  631MOL0     C83174   1.233   1.377  10.635 -0.0567 -0.3890  0.2911
  631MOL0     C83175   1.117   1.485  10.678 -0.9101 -0.8962  0.1243
  631MOL0     C83176   1.107   1.503  10.839 -0.4569 -0.1955 -0.3964
  631MOL0     N83177   0.994   1.588  10.890  0.1528 -0.5571 -0.0920
  631MOL0     C83178   0.960   1.706  10.836  1.4280 -0.1715  0.0878
  631MOL0     C83179   0.830   1.721  10.869  0.0823 -0.9816  0.4578
  631MOL0     C83180   0.747   1.851  10.862 -0.3797  0.3888 -0.0287
  631MOL0     C83181   0.735   1.901  10.721 -0.5298  0.0544 -0.0408
  631MOL0     C83182   0.678   2.043  10.711 -0.0738 -0.9814  0.4437
  631MOL0     C83183   0.555   2.073  10.789  0.9994  0.4017  0.0551
  631MOL0     O83184   0.538   2.216  10.787 -0.6251 -0.1094  0.3022
  631MOL0     C83185   0.412   2.253  10.833 -0.2826 -0.1257  0.8154
  631MOL0     C83186   0.331   2.186  10.931  0.4254 -0.4508 -0.0906
  631MOL0     C83187   0.204   2.228  10.958 -0.0291 -0.5596  0.2565
  631MOL0     C83188   0.152   2.343  10.904  0.4190  0.1924 -0.1570
  631MOL0     C83189   0.025   2.406  10.954  0.9584  0.7061 -0.1898
  631MOL0     O83190  -0.018   2.521  10.891  0.5685  0.8025  0.3216
  631MOL0     C83191  -0.121   2.596  10.939  0.1238 -0.7350 -0.7264
  631MOL0     C83192  -0.189   2.665  10.843  0.0419 -0.4572  0.0275
  631MOL0     C83193  -0.290   2.756  10.868 -0.2270  0.4846  1.0317
  631MOL0     C83194  -0.338   2.775  11.002  0.1370 -0.4627 -0.0678
  631MOL0     O83195  -0.443   2.861  11.025  0.0526 -0.1172 -0.1971
  631MOL0     C83196  -0.501   2.891  11.160  0.3588 -0.3737 -0.2084
  631MOL0     C83197  -0.648   2.943  11.150 -0.0197  0.1611  0.7674
  631MOL0     C83198  -0.655   3.078  11.071 -0.0963  0.6395 -1.0268
  631MOL0     C83199  -0.786   3.133  11.020 -0.5331  0.5188 -0.1148
  631MOL0     C83200  -0.876   3.153  11.139 -0.3482  0.4860 -0.2739
  631MOL0     C83201  -1.009   3.222  11.102  0.1991  0.2979 -0.2301
  631MOL0     C83202  -1.099   3.137  11.016  0.1923 -0.1927  0.1473
  631MOL0     C83203  -1.131   3.206  10.886 -0.2968 -0.2884  0.8878
  631MOL0    Cl83204  -1.256   3.109  10.805 -0.2007  0.2455  0.2273
  631MOL0     C83205  -0.280   2.691  11.100 -0.3752  0.2457  0.7783
  631MOL0     C83206  -0.168   2.613  11.071  0.2136  0.0483 -0.1575
  631MOL0     O83207  -0.032   2.355  11.050 -0.5201 -0.2618  0.2135
  631MOL0     C83208   0.228   2.416  10.822  0.0795 -0.0557 -0.3795
  631MOL0     C83209   0.356   2.374  10.778 -1.0126  0.8117 -0.1482
  631MOL0     N83210   0.779   1.614  10.929 -0.2004  0.8868 -1.0663
  631MOL0     N83211   0.881   1.534  10.942 -0.4601 -1.2508  0.1893
  631MOL0     C83212   2.142   1.444  10.498  0.0011 -0.3232 -0.2257
  631MOL0     C83213   2.264   1.489  10.472 -0.6261 -0.2110 -0.2387
  631MOL0     C83214   2.630   1.672  10.327  0.7110  0.0600 -0.2276
  631MOL0     C83215   2.660   1.797  10.380 -0.1347 -0.2887  0.2193
  631MOL0     C83216   2.784   1.845  10.378 -0.2315  0.5443  0.4174
  631MOL0     C83217   2.893   1.776  10.314  0.5335  0.0986  0.3977
  631MOL0     O83218   3.030   1.812  10.300 -0.2079  0.4846 -0.0554
  631MOL0     C83219   3.076   1.920  10.382  0.1057  0.6306  0.5611
  631MOL0     C83220   3.225   1.941  10.353  0.2916 -0.7307 -0.1191
  631MOL0     C83221   3.267   2.087  10.400 -0.3680 -0.2841  0.1710
  631MOL0     C83222   3.266   2.107  10.553 -0.7103 -0.1895 -0.4940
  631MOL0     C83223   3.367   2.029  10.633 -0.4038  0.0306 -0.1345
  631MOL0     C83224   3.454   1.972  10.697  0.1624 -0.3173 -0.4399
  631MOL0     C83225   2.856   1.660  10.253 -0.4535  0.0006 -0.5184
  631MOL0     C83226   2.729   1.606  10.266 -0.4972 -0.0087 -0.3535
  631MOL0     H83227   2.177   1.802  10.346 -1.4171  0.2736  0.3633
  631MOL0     H83228   1.956   1.703  10.391 -0.1433 -1.3049  0.7668
  631MOL0     H83229   1.887   1.373  10.691  1.8563 -0.3270 -0.7393
  631MOL0     H83230   1.940   1.290  10.542  0.1178 -1.5664  1.8367
  631MOL0     H83231   1.722   1.218  10.578  1.2418  0.1745  0.3058
  631MOL0     H83232   1.717   1.327  10.446  5.3833 -3.0371 -1.1139
  631MOL0     H83233   1.634   1.500  10.609  3.2996 -0.9082 -0.9452
  631MOL0     H83234   1.634   1.377  10.737  2.1859  3.2005  1.2039
  631MOL0     H83235   1.476   1.348  10.474 -0.9687 -0.7018 -0.8230
  631MOL0     H83236   1.458   1.238  10.610  0.0327 -0.5565 -2.1087
  631MOL0     H83237   1.374   1.530  10.603  2.7557  0.0134  1.5277
  631MOL0     H83238   1.387   1.446  10.759  0.4041 -2.7645 -0.7081
  631MOL0     H83239   1.214   1.287  10.694  2.2482 -0.4245  1.0671
  631MOL0     H83240   1.214   1.347  10.531  1.2891 -0.9571  0.1817
  631MOL0     H83241   1.145   1.582  10.637  0.7010  0.4037  3.8341
  631MOL0     H83242   1.018   1.461  10.638 -1.4013  2.4904 -0.9675
  631MOL0     H83243   1.202   1.537  10.882 -0.7265 -1.5673  1.4202
  631MOL0     H83244   1.092   1.404  10.883 -0.9006 -1.1805 -2.5861
  631MOL0     H83245   1.023   1.766  10.771 -1.6070  2.7617 -0.4762
  631MOL0     H83246   0.785   1.923  10.934  1.9209  0.6927 -1.4531
  631MOL0     H83247   0.648   1.830  10.903 -0.5070  0.7169 -0.1663
  631MOL0     H83248   0.670   1.833  10.664  0.1069 -0.7101  0.1320
  631MOL0     H83249   0.826   1.891  10.661 -2.8044  1.4388 -4.1693
  631MOL0     H83250   0.755   2.111  10.749 -0.1264 -1.1897  0.9332
  631MOL0     H83251   0.663   2.045  10.603  2.9081 -1.4855 -0.0517
  631MOL0     H83252   0.565   2.028  10.888 -4.5396 -2.0912 -0.1659
  631MOL0     H83253   0.470   2.034  10.733  0.7343 -3.7573  2.9305
  631MOL0     H83254   0.376   2.110  10.994  1.8296  0.0517 -0.4420
  631MOL0     H83255   0.141   2.190  11.038  0.4102 -2.9527 -0.4606
  631MOL0     H83256  -0.178   2.645  10.737 -4.9780  0.5664 -0.9377
  631MOL0     H83257  -0.326   2.820  10.789 -0.4278  0.0898  0.8000
  631MOL0     H83258  -0.444   2.961  11.222  1.8992 -0.4650 -1.4431
  631MOL0     H83259  -0.512   2.794  11.209 -0.6030 -0.7627 -1.1430
  631MOL0     H83260  -0.689   2.954  11.251 -0.7573  1.1124  0.3856
  631MOL0     H83261  -0.717   2.870  11.107 -3.3202  3.3945  0.0321
  631MOL0     H83262  -0.588   3.060  10.986  0.0337 -2.7020 -0.3524
  631MOL0     H83263  -0.609   3.148  11.140  1.6191 -1.1636 -0.2513
  631MOL0     H83264  -0.770   3.231  10.972  2.1566 -0.9054 -2.4863
  631MOL0     H83265  -0.821   3.074  10.935 -0.3549  3.4034 -2.3464
  631MOL0     H83266  -0.831   3.211  11.220 -0.7134 -0.9501  0.9981
  631MOL0     H83267  -0.889   3.056  11.188  1.0582  0.3488 -0.1183
  631MOL0     H83268  -0.987   3.320  11.058  2.8837 -0.8233 -1.6064
  631MOL0     H83269  -1.054   3.251  11.197  4.0302 -1.4183  2.3541
  631MOL0     H83270  -1.061   3.038  10.989 -0.7984 -0.2584 -1.1063
  631MOL0     H83271  -1.194   3.127  11.069 -0.4218 -0.0049 -0.8896
  631MOL0     H83272  -1.037   3.215  10.830 -1.1105 -1.0339 -0.6511
  631MOL0     H83273  -1.173   3.307  10.895 -1.1281 -0.4454 -0.8504
  631MOL0     H83274  -0.313   2.702  11.203  4.0940  0.7251  2.3690
  631MOL0     H83275  -0.118   2.574  11.159 -1.8287 -0.1263  0.9901
  631MOL0     H83276   0.188   2.513  10.794 -0.9915  0.2669  2.0525
  631MOL0     H83277   0.408   2.434  10.704 -1.0102 -2.8751 -3.4130
  631MOL0     H83278   2.137   1.361  10.569 -0.0126 -0.5398 -0.4768
  631MOL0     H83279   2.348   1.430  10.506 -1.0788 -0.8599 -0.2325
  631MOL0     H83280   2.590   1.871  10.417 -0.0772 -0.2422  0.2349
  631MOL0     H83281   2.797   1.952  10.393  1.2173  0.1553  2.4350
  631MOL0     H83282   3.072   1.904  10.490  1.2498  0.5487  0.6083
  631MOL0     H83283   3.018   2.008  10.352 -0.9591  0.4846  2.1231
  631MOL0     H83284   3.276   1.861  10.408  0.1327 -0.7227  0.0426
  631MOL0     H83285   3.253   1.921  10.249 -1.3685 -2.6155 -0.2589
  631MOL0     H83286   3.195   2.153  10.350 -1.6067 -0.5467  1.5234
  631MOL0     H83287   3.367   2.120  10.372 -0.0868  0.7013  2.1404
  631MOL0     H83288   3.274   2.215  10.570  1.7650  0.2226 -3.4107
  631MOL0     H83289   3.173   2.087  10.606  0.7351 -0.9461  1.9053
  631MOL0     H83290   3.524   1.915  10.755  0.7786 -0.5965 -1.4284
  631MOL0     H83291   2.932   1.601  10.203  0.0061 -0.5984  0.8476
  631MOL0     H83292   2.716   1.508  10.221 -2.0726  0.8301 -1.8540
  632MOL0     O83293   0.231   9.205   3.098  0.4794  0.3929  0.0394
  632MOL0     C83294   0.306   9.269   3.175  0.8205  0.0646  1.1882
  632MOL0     O83295   0.262   9.344   3.284  0.2823  0.2629  0.5513
  632MOL0     C83296   0.137   9.385   3.272 -0.2986  0.6941 -1.0656
  632MOL0     C83297   0.026   9.303   3.274 -0.2497 -0.8077  0.4565
  632MOL0     C83298  -0.103   9.364   3.270  0.5449  0.1447  0.5429
  632MOL0     C83299  -0.114   9.502   3.273 -0.3382  0.7085  0.4435
  632MOL0     O83300  -0.237   9.561   3.277  0.5392 -0.3177 -0.6665
  632MOL0     C83301  -0.258   9.615   3.410 -0.0203  0.5151  0.1568
  632MOL0     C83302  -0.413   9.662   3.412 -0.7698  0.0741 -0.6079
  632MOL0     C83303  -0.440   9.742   3.536  0.0798 -0.0665  0.5619
  632MOL0     C83304  -0.583   9.723   3.595 -0.4798  0.2892  0.4002
  632MOL0     C83305  -0.615   9.835   3.696 -0.0317 -0.3979 -0.6019
  632MOL0     C83306  -0.719   9.795   3.797  0.0705 -0.1077 -0.5663
  632MOL0     C83307  -0.735   9.881   3.924 -0.7879 -0.4419 -1.0359
  632MOL0     C83308  -0.818   9.820   4.030  0.5463 -0.5974 -0.0221
  632MOL0     N83309  -0.968   9.810   4.002 -0.4584  0.0433  0.3286
  632MOL0     C83310  -1.061   9.894   4.042 -0.2531 -0.4189  0.3765
  632MOL0     C83311  -1.179   9.835   4.023  0.1303 -0.0668 -0.7211
  632MOL0     C83312  -1.315   9.889   4.065 -0.2585  0.0116  0.2971
  632MOL0     C83313  -1.413   9.876   3.942  0.4263 -0.5267  0.4033
  632MOL0     C83314  -1.474   9.725   3.938 -1.2523 -0.0440 -0.4309
  632MOL0     C83315  -1.607   9.731   3.856 -0.1901  0.1723  0.1465
  632MOL0     O83316  -1.713   9.806   3.924 -0.5309 -0.0347 -0.7041
  632MOL0     C83317  -1.831   9.833   3.858  1.0631 -0.6090  0.1469
  632MOL0     C83318  -1.879   9.756   3.751  0.1253  0.1995  0.2497
  632MOL0     C83319  -2.001   9.792   3.687 -0.1674  0.7319 -0.1305
  632MOL0     C83320  -2.075   9.905   3.741 -0.0654  0.1319  0.0328
  632MOL0     C83321  -2.199   9.942   3.671 -0.7659  0.2832  0.3133
  632MOL0     O83322  -2.257  10.040   3.741  0.8063  0.4699  0.4478
  632MOL0     C83323  -2.382  10.095   3.713 -0.1324  0.2274  0.0867
  632MOL0     C83324  -2.499  10.023   3.677 -1.0542 -0.4131  0.0091
  632MOL0     C83325  -2.618  10.087   3.649 -0.0704  0.0995 -0.0194
  632MOL0     C83326  -2.623  10.222   3.672 -0.3825  0.0551  0.2094
  632MOL0     O83327  -2.738  10.300   3.658  0.6668  0.2349  0.3845
  632MOL0     C83328  -2.845  10.251   3.572  0.0863 -0.4376 -0.3758
  632MOL0     C83329  -2.928  10.380   3.533  0.4670 -0.6991  0.1136
  632MOL0     C83330  -2.859  10.469   3.431 -1.0403  0.5594  0.8826
  632MOL0     C83331  -2.883  10.625   3.461  1.1222 -0.2904  0.2171
  632MOL0     C83332  -3.029  10.669   3.431  0.0644 -0.2283  0.0972
  632MOL0     C83333  -3.047  10.822   3.420  0.4797  0.7097 -0.3120
  632MOL0     C83334  -2.971  10.898   3.315  0.4813 -0.1644 -0.0658
  632MOL0     C83335  -3.015  10.858   3.171  0.5447 -0.5651  0.6609
  632MOL0    Cl83336  -3.195  10.849   3.133  0.5968 -0.1750 -0.2415
  632MOL0     C83337  -2.515  10.286   3.733  0.6322  0.0327  0.8390
  632MOL0     C83338  -2.389  10.230   3.738 -0.1360 -0.1945 -0.3635
  632MOL0     O83339  -2.236   9.899   3.557 -0.4000 -0.4870  0.2055
  632MOL0     C83340  -2.027   9.976   3.850  0.8104  0.0019 -0.4036
  632MOL0     C83341  -1.899   9.939   3.906  0.0953 -0.1948  0.1062
  632MOL0     N83342  -1.153   9.715   3.953 -0.0220  0.4546 -0.7171
  632MOL0     N83343  -1.023   9.701   3.951 -0.0683 -0.2238 -0.6078
  632MOL0     C83344   0.002   9.575   3.277  0.0138 -0.2338  0.7688
  632MOL0     C83345   0.128   9.520   3.273  0.0356 -0.7489 -0.1145
  632MOL0     C83346   0.453   9.256   3.158  0.0930 -0.0023 -0.2919
  632MOL0     C83347   0.517   9.156   3.088 -0.3064 -1.0611 -0.9320
  632MOL0     C83348   0.658   9.158   3.089  0.6223  0.2414 -0.1416
  632MOL0     C83349   0.740   9.249   3.148  0.0343 -0.5603  0.1626
  632MOL0     O83350   0.872   9.263   3.149 -1.0344  0.7265 -0.0040
  632MOL0     C83351   0.952   9.182   3.056 -0.0844 -0.1472 -0.7198
  632MOL0     C83352   1.099   9.214   3.072  0.0298  0.3883 -0.1616
  632MOL0     C83353   1.182   9.139   2.968  0.8900  0.7485  0.2778
  632MOL0     C83354   1.311   9.204   2.951 -0.6128  0.3108 -0.4022
  632MOL0     C83355   1.385   9.148   2.835  0.3249  0.9134  0.8382
  632MOL0     C83356   1.457   9.122   2.746  0.2212 -0.0877 -0.5542
  632MOL0     C83357   0.680   9.351   3.219 -0.6889  0.2388 -0.7693
  632MOL0     C83358   0.535   9.352   3.231 -0.3742  0.1290  0.0423
  632MOL0     H83359   0.041   9.197   3.287 -3.3960 -1.4406 -0.4626
  632MOL0     H83360  -0.188   9.298   3.276  1.1785 -0.7874 -0.4478
  632MOL0     H83361  -0.199   9.703   3.437 -1.0243  1.5884 -1.0003
  632MOL0     H83362  -0.240   9.544   3.492 -3.0315 -1.8237 -1.0116
  632MOL0     H83363  -0.486   9.582   3.404 -1.4969  0.4665  1.4284
  632MOL0     H83364  -0.438   9.721   3.323 -1.9497  0.4727 -0.0294
  632MOL0     H83365  -0.428   9.848   3.512  1.2584 -0.1337  0.8132
  632MOL0     H83366  -0.364   9.727   3.613 -0.5847 -0.0997  1.2194
  632MOL0     H83367  -0.646   9.730   3.506  1.0591 -2.6987 -1.0609
  632MOL0     H83368  -0.596   9.626   3.643 -0.4439  0.1133  0.0595
  632MOL0     H83369  -0.642   9.928   3.645  4.8709  1.1133 -0.9158
  632MOL0     H83370  -0.524   9.866   3.748 -0.5044 -1.2308  0.7804
  632MOL0     H83371  -0.692   9.694   3.830  0.0443 -0.1988 -0.8224
  632MOL0     H83372  -0.818   9.797   3.751 -0.1185  2.3651 -0.1655
  632MOL0     H83373  -0.636   9.888   3.971  0.0552 -2.8589 -2.2865
  632MOL0     H83374  -0.766   9.984   3.903 -0.1535  0.2557  1.2010
  632MOL0     H83375  -0.810   9.879   4.122 -1.0861  1.0618 -0.8644
  632MOL0     H83376  -0.770   9.725   4.054 -0.5986 -1.6313 -1.6098
  632MOL0     H83377  -1.043   9.990   4.091 -1.4172  1.8123 -3.2124
  632MOL0     H83378  -1.308   9.998   4.074 -1.3973  0.0888  0.3643
  632MOL0     H83379  -1.367   9.839   4.147 -1.0099 -2.1044 -1.3927
  632MOL0     H83380  -1.365   9.899   3.847  1.1999  1.8510  1.2947
  632MOL0     H83381  -1.494   9.949   3.955 -1.3238 -1.4118 -3.9113
  632MOL0     H83382  -1.409   9.648   3.896  1.8004  1.0363  1.9610
  632MOL0     H83383  -1.495   9.702   4.043 -1.0680  0.3428 -0.3055
  632MOL0     H83384  -1.662   9.640   3.832 -2.5268  0.8320  2.5847
  632MOL0     H83385  -1.573   9.783   3.765  1.5997  1.8068  1.6352
  632MOL0     H83386  -1.825   9.674   3.704  1.5090  0.5354  1.2200
  632MOL0     H83387  -2.047   9.734   3.607 -0.9776  1.0552  0.1048
  632MOL0     H83388  -2.492   9.915   3.664 -0.1639 -0.4418  0.6524
  632MOL0     H83389  -2.707  10.039   3.609  0.7828  0.6332 -2.7994
  632MOL0     H83390  -2.911  10.177   3.619 -1.0423 -0.3440 -1.7165
  632MOL0     H83391  -2.803  10.212   3.479  0.4694  1.7369 -1.1642
  632MOL0     H83392  -2.948  10.436   3.625  2.7188  2.6977 -1.2316
  632MOL0     H83393  -3.017  10.349   3.479  0.2473 -1.3650  0.8474
  632MOL0     H83394  -2.899  10.433   3.337 -1.7366  3.6954 -0.1521
  632MOL0     H83395  -2.750  10.460   3.422 -0.8849  3.6031 -1.9575
  632MOL0     H83396  -2.850  10.645   3.563  1.0015 -0.1771  0.2334
  632MOL0     H83397  -2.813  10.680   3.397  0.0838 -1.0070 -1.6138
  632MOL0     H83398  -3.075  10.634   3.524 -3.6389 -0.5095 -1.6642
  632MOL0     H83399  -3.070  10.617   3.344 -1.9190 -1.8279  1.8818
  632MOL0     H83400  -3.005  10.872   3.508 -1.7146  0.6893  0.8224
  632MOL0     H83401  -3.154  10.844   3.417  0.0924 -1.1193 -2.4019
  632MOL0     H83402  -2.992  11.004   3.332  0.1532 -0.0315 -1.2335
  632MOL0     H83403  -2.867  10.869   3.329 -0.1658 -1.4202  3.2554
  632MOL0     H83404  -2.964  10.763   3.148  0.9618 -0.1600 -0.1509
  632MOL0     H83405  -2.978  10.931   3.099 -3.7239  0.0630 -1.2148
  632MOL0     H83406  -2.524  10.393   3.747  1.8212  0.2355  0.1704
  632MOL0     H83407  -2.299  10.282   3.769  0.9031 -3.8617  3.7312
  632MOL0     H83408  -2.074  10.062   3.895  1.0953 -0.5978  1.1146
  632MOL0     H83409  -1.856   9.982   3.996 -0.8685 -1.9568  1.4890
  632MOL0     H83410  -0.005   9.683   3.272  1.7776 -0.1663 -2.1867
  632MOL0     H83411   0.215   9.585   3.271  0.9109 -1.3052  5.0840
  632MOL0     H83412   0.471   9.080   3.026 -2.5844 -0.2130 -0.3872
  632MOL0     H83413   0.710   9.080   3.035  1.6845 -0.0244  1.1969
  632MOL0     H83414   0.916   9.188   2.953  0.5803  1.6660 -0.8696
  632MOL0     H83415   0.948   9.077   3.087 -0.8636  0.6359  2.0892
  632MOL0     H83416   1.113   9.322   3.063  2.5457 -0.0202 -3.0182
  632MOL0     H83417   1.140   9.174   3.165  0.7192  0.1841 -0.5439
  632MOL0     H83418   1.122   9.135   2.876 -2.1027 -2.3410  2.1277
  632MOL0     H83419   1.188   9.034   2.997 -0.3264  0.6874  0.3621
  632MOL0     H83420   1.291   9.310   2.934 -1.3000  0.1556 -0.5673
  632MOL0     H83421   1.378   9.195   3.037  0.1463 -1.1372 -1.1049
  632MOL0     H83422   1.508   9.096   2.655  1.0756  0.4368 -0.2303
  632MOL0     H83423   0.738   9.428   3.269  1.0095  1.2416 -3.9999
  632MOL0     H83424   0.490   9.427   3.295  1.5939  1.4412 -0.0250
  633MOL0     O83425   3.759   8.347   6.937 -0.0074 -0.4302 -0.0564
  633MOL0     C83426   3.805   8.246   6.889 -0.6601  1.4354  0.6215
  633MOL0     O83427   3.743   8.136   6.838  0.1613 -0.1168  0.1565
  633MOL0     C83428   3.605   8.137   6.844 -0.2982 -0.5355 -0.0711
  633MOL0     C83429   3.548   8.128   6.972 -0.7483  0.0116  0.1181
  633MOL0     C83430   3.411   8.144   6.973  0.3555 -0.4726 -0.5876
  633MOL0     C83431   3.324   8.147   6.857 -0.9166 -0.4249  0.7861
  633MOL0     O83432   3.191   8.142   6.854 -0.2458 -0.0667 -0.7305
  633MOL0     C83433   3.111   8.071   6.768  0.9563  0.5319 -0.4800
  633MOL0     C83434   2.987   8.034   6.842 -0.1586  0.3630 -0.1544
  633MOL0     C83435   2.924   7.910   6.783 -0.2160  0.1632  0.5329
  633MOL0     C83436   2.790   7.892   6.857 -0.7600  0.5734  0.3749
  633MOL0     C83437   2.705   7.779   6.791 -0.3411  0.6046 -0.5298
  633MOL0     C83438   2.627   7.840   6.678  0.6124  0.0130  0.2202
  633MOL0     C83439   2.569   7.736   6.583  0.0790 -0.5510  0.0858
  633MOL0     C83440   2.576   7.803   6.439  0.8862 -0.5021 -0.0030
  633MOL0     N83441   2.521   7.700   6.345 -0.0812  0.8104 -0.3968
  633MOL0     C83442   2.585   7.593   6.287 -1.2148 -0.0000  0.3227
  633MOL0     C83443   2.489   7.527   6.214 -0.7132 -0.9027  0.4997
  633MOL0     C83444   2.524   7.414   6.130  0.6310  0.0364 -0.3173
  633MOL0     C83445   2.426   7.292   6.134 -0.9027 -0.3523  0.0592
  633MOL0     C83446   2.345   7.279   6.005  0.1966  0.0697  0.5741
  633MOL0     C83447   2.235   7.381   5.993  0.4394  0.4738  0.4086
  633MOL0     O83448   2.172   7.351   5.872 -0.3832 -0.8246 -0.2870
  633MOL0     C83449   2.044   7.301   5.869  0.1174  0.0520 -0.6940
  633MOL0     C83450   1.967   7.255   5.979 -0.2975  0.2137 -1.1407
  633MOL0     C83451   1.844   7.195   5.959  0.0450 -0.7266  0.8860
  633MOL0     C83452   1.778   7.199   5.833 -0.7099  0.1166 -0.2213
  633MOL0     C83453   1.641   7.142   5.825 -0.1264  0.4778 -0.2018
  633MOL0     O83454   1.574   7.146   5.707  0.2402  0.8289 -0.5352
  633MOL0     C83455   1.446   7.093   5.686 -0.4536  0.1826 -0.9081
  633MOL0     C83456   1.400   7.061   5.555  0.3348 -0.5173 -0.1887
  633MOL0     C83457   1.265   7.028   5.539 -0.4770  0.6193 -0.1165
  633MOL0     C83458   1.170   7.020   5.644 -1.0143 -0.5865 -0.7534
  633MOL0     O83459   1.037   7.007   5.636 -0.5746  0.5887 -0.3506
  633MOL0     C83460   0.984   6.915   5.533  0.0323 -0.1121  0.4010
  633MOL0     C83461   1.028   6.773   5.559  0.4310  0.1198  0.7491
  633MOL0     C83462   0.981   6.671   5.453 -0.2587 -0.7288  0.0699
  633MOL0     C83463   0.837   6.645   5.478  0.2021  0.4760 -0.7014
  633MOL0     C83464   0.790   6.515   5.411  1.3444  0.1925  0.0084
  633MOL0     C83465   0.661   6.454   5.481 -0.6702  0.4099  0.4318
  633MOL0     C83466   0.620   6.335   5.393  0.8348  0.5040  0.3885
  633MOL0     C83467   0.517   6.252   5.476  0.3389  0.7375  0.1244
  633MOL0    Cl83468   0.401   6.171   5.368  0.3242  0.3549 -0.1104
  633MOL0     C83469   1.215   7.053   5.768 -0.2831 -0.3399  0.1182
  633MOL0     C83470   1.350   7.084   5.796  0.2561 -0.6053  0.2044
  633MOL0     O83471   1.610   7.086   5.937 -0.1464 -0.0231  0.5621
  633MOL0     C83472   1.851   7.256   5.727  0.0666 -0.1856  0.2054
  633MOL0     C83473   1.984   7.298   5.736 -1.0886 -0.5168  0.0513
  633MOL0     N83474   2.368   7.585   6.241 -0.4290 -0.0935 -0.4398
  633MOL0     N83475   2.392   7.689   6.315  0.4359  0.0262 -0.1453
  633MOL0     C83476   3.396   8.155   6.731  0.2727  0.2659 -0.5522
  633MOL0     C83477   3.532   8.146   6.729 -0.7758  0.4049  0.3386
  633MOL0     C83478   3.958   8.248   6.885  0.3146 -0.0049  0.4859
  633MOL0     C83479   4.023   8.125   6.889  0.3800 -0.1900 -0.4064
  633MOL0     C83480   4.162   8.117   6.886 -0.0596  0.6244 -0.6143
  633MOL0     C83481   4.235   8.231   6.865  0.3959 -0.1113  0.3858
  633MOL0     O83482   4.370   8.246   6.883  0.6622  0.3765 -0.2649
  633MOL0     C83483   4.462   8.139   6.871  1.3532  0.1802  0.6122
  633MOL0     C83484   4.604   8.187   6.910 -0.1045 -0.2139 -0.0207
  633MOL0     C83485   4.707   8.086   6.931  0.1734  0.2685 -0.0614
  633MOL0     C83486   4.827   8.135   7.015 -0.1715 -0.5304 -1.0117
  633MOL0     C83487   4.945   8.072   6.967 -0.6881 -0.3004  0.2561
  633MOL0     C83488   5.050   8.026   6.924  0.6083 -0.0505 -0.3764
  633MOL0     C83489   4.165   8.354   6.843 -0.1613 -0.2122  0.5566
  633MOL0     C83490   4.028   8.366   6.855  0.8314  0.8219  0.6044
  633MOL0     H83491   3.608   8.123   7.062  1.5105 -1.6017 -1.3711
  633MOL0     H83492   3.366   8.125   7.070  2.1950 -2.0756  0.0192
  633MOL0     H83493   3.160   7.987   6.718  0.6584  0.7070 -1.0755
  633MOL0     H83494   3.072   8.136   6.690 -1.5292 -1.0416 -0.6653
  633MOL0     H83495   2.918   8.119   6.848  3.2718  3.2570  2.1497
  633MOL0     H83496   3.010   8.014   6.947 -2.2996 -1.5443  0.0197
  633MOL0     H83497   2.986   7.822   6.806 -0.1693 -0.0348 -0.3168
  633MOL0     H83498   2.913   7.923   6.675  3.3995  3.2493  0.3304
  633MOL0     H83499   2.820   7.851   6.954  2.1317 -1.6684 -1.2932
  633MOL0     H83500   2.724   7.979   6.867 -0.9476  0.5967 -0.8643
  633MOL0     H83501   2.642   7.726   6.862  1.0920 -0.9910 -0.3806
  633MOL0     H83502   2.774   7.705   6.749  0.4751  0.5421  0.8675
  633MOL0     H83503   2.701   7.900   6.623  1.1494 -1.8200 -1.1504
  633MOL0     H83504   2.548   7.906   6.714 -0.6872 -0.9233 -0.8299
  633MOL0     H83505   2.617   7.638   6.589 -2.5629 -1.9352  0.0837
  633MOL0     H83506   2.463   7.727   6.612 -0.5084  1.4904 -1.2649
  633MOL0     H83507   2.683   7.804   6.419  0.7249  0.5674 -0.9110
  633MOL0     H83508   2.538   7.904   6.421  0.2565 -0.9657 -1.5434
  633MOL0     H83509   2.692   7.577   6.296 -0.9798  1.3745  0.1854
  633MOL0     H83510   2.619   7.374   6.166  1.2856 -0.1217 -2.1384
  633MOL0     H83511   2.541   7.445   6.027  0.8079 -1.0874 -0.6372
  633MOL0     H83512   2.361   7.291   6.222 -1.8150 -0.1106 -0.6013
  633MOL0     H83513   2.487   7.201   6.137 -0.2263  0.1252  1.6473
  633MOL0     H83514   2.405   7.274   5.914 -0.4969 -0.3460  0.1275
  633MOL0     H83515   2.300   7.180   6.017 -0.5517  0.4574  1.1253
  633MOL0     H83516   2.275   7.483   5.992  2.9396 -0.4302  0.1068
  633MOL0     H83517   2.171   7.388   6.081 -0.6172  4.0504 -0.4535
  633MOL0     H83518   2.001   7.259   6.082 -0.4820  3.5110 -1.1117
  633MOL0     H83519   1.796   7.137   6.037 -3.1494  0.9797  0.3489
  633MOL0     H83520   1.465   7.083   5.471 -2.9705 -0.0746 -2.8419
  633MOL0     H83521   1.238   7.009   5.435  0.3448 -0.3834 -0.1664
  633MOL0     H83522   1.027   6.958   5.442 -0.1768  0.4505  0.5685
  633MOL0     H83523   0.875   6.911   5.542 -0.0425  2.1049  1.1123
  633MOL0     H83524   1.005   6.740   5.661  0.1024 -1.0903  0.3055
  633MOL0     H83525   1.136   6.779   5.573  0.3182  0.1709  1.6894
  633MOL0     H83526   1.039   6.579   5.467  1.8037  0.7413  1.9620
  633MOL0     H83527   0.989   6.712   5.352  0.6610  1.0585  0.8086
  633MOL0     H83528   0.821   6.619   5.583  1.9011 -0.3744 -0.6249
  633MOL0     H83529   0.770   6.723   5.440 -2.7137 -2.0506 -1.1677
  633MOL0     H83530   0.864   6.435   5.410  1.1833  0.0432 -1.1114
  633MOL0     H83531   0.765   6.528   5.305  1.2300  0.1150  0.0260
  633MOL0     H83532   0.576   6.522   5.481  2.0312  4.0833  0.4973
  633MOL0     H83533   0.676   6.429   5.587 -2.9708  1.9076  1.1851
  633MOL0     H83534   0.563   6.380   5.312 -0.0743  1.2775  1.4356
  633MOL0     H83535   0.706   6.272   5.366  0.6928 -0.3249  1.7582
  633MOL0     H83536   0.463   6.314   5.547 -0.1847  0.6233 -0.1662
  633MOL0     H83537   0.562   6.173   5.537  0.0611 -0.9400 -1.7258
  633MOL0     H83538   1.151   7.034   5.854  3.0279 -1.2014  2.6305
  633MOL0     H83539   1.384   7.114   5.894  2.3830  1.4527 -1.0577
  633MOL0     H83540   1.806   7.261   5.628 -1.3783 -0.6445  0.8057
  633MOL0     H83541   2.046   7.338   5.656  1.1622  1.6583  2.6733
  633MOL0     H83542   3.347   8.156   6.635  0.6833 -3.9482 -1.0136
  633MOL0     H83543   3.585   8.147   6.634 -1.4022 -0.6905 -0.0418
  633MOL0     H83544   3.976   8.028   6.900  0.2857  0.0522  1.7681
  633MOL0     H83545   4.211   8.023   6.912  0.2643  0.4655 -1.7171
  633MOL0     H83546   4.463   8.106   6.767 -0.7925  2.8616 -0.4114
  633MOL0     H83547   4.424   8.057   6.932  3.1445 -0.3032  1.1137
  633MOL0     H83548   4.632   8.253   6.827 -2.7969  1.2787  0.1389
  633MOL0     H83549   4.590   8.245   7.002  0.0216 -2.5282  1.5282
  633MOL0     H83550   4.731   8.031   6.840  0.4317 -0.8434  0.6549
  633MOL0     H83551   4.661   8.006   6.990 -0.9914  0.4767 -0.6714
  633MOL0     H83552   4.839   8.243   6.997  0.5636 -1.0145 -3.8763
  633MOL0     H83553   4.812   8.131   7.123 -0.1595 -0.9925 -1.0282
  633MOL0     H83554   5.151   8.002   6.895  1.9222  5.1777 -1.2412
  633MOL0     H83555   4.223   8.446   6.833 -2.7001  1.2080 -3.0376
  633MOL0     H83556   3.968   8.456   6.850  0.2475  0.4223 -4.1680
  634MOL0     O83557   1.738   8.454  10.775  0.4468  0.2130 -0.6637
  634MOL0     C83558   1.723   8.546  10.852  0.0218  0.0392  0.5215
  634MOL0     O83559   1.608   8.600  10.900 -0.3780 -0.1068  0.1222
  634MOL0     C83560   1.487   8.549  10.871 -0.1756 -0.1682  0.1473
  634MOL0     C83561   1.464   8.501  10.742  0.5106 -0.4627  0.7102
  634MOL0     C83562   1.339   8.452  10.705 -0.6818 -0.8893 -0.0342
  634MOL0     C83563   1.234   8.440  10.795  0.8344  0.2806 -0.1068
  634MOL0     O83564   1.104   8.391  10.770  0.6956 -0.1289 -0.1459
  634MOL0     C83565   1.068   8.364  10.632  0.0541 -0.7220 -0.1308
  634MOL0     C83566   0.919   8.335  10.626 -0.3704  0.8618 -0.3123
  634MOL0     C83567   0.878   8.305  10.484 -0.0671 -0.2216 -0.1258
  634MOL0     C83568   0.742   8.244  10.473  0.4743  0.3005 -0.3743
  634MOL0     C83569   0.632   8.343  10.512  0.4706 -0.3388  0.1735
  634MOL0     C83570   0.496   8.295  10.472  0.1006  0.4868  0.0914
  634MOL0     C83571   0.394   8.406  10.508 -0.8347 -0.1312  0.3283
  634MOL0     C83572   0.260   8.398  10.424 -0.8216  0.2645 -0.7307
  634MOL0     N83573   0.174   8.293  10.490  0.0405 -1.0344 -0.0391
  634MOL0     C83574   0.199   8.159  10.505  0.2662 -0.9444  0.1714
  634MOL0     C83575   0.106   8.111  10.593 -0.0233  0.1978 -0.9529
  634MOL0     C83576   0.105   7.964  10.650 -0.7892 -0.7825  0.1622
  634MOL0     C83577  -0.027   7.887  10.621  1.1957  0.5531  0.0573
  634MOL0     C83578  -0.063   7.884  10.469 -0.0474 -0.1382 -0.7831
  634MOL0     C83579  -0.143   7.753  10.438  0.0500  0.1838  0.2058
  634MOL0     O83580  -0.264   7.747  10.510  0.4999 -0.1279  0.8122
  634MOL0     C83581  -0.371   7.769  10.437 -0.3019  0.1278  0.4127
  634MOL0     C83582  -0.468   7.670  10.446 -0.6175  0.7067 -0.2974
  634MOL0     C83583  -0.597   7.695  10.398 -0.9254  0.7518 -0.4462
  634MOL0     C83584  -0.631   7.808  10.330 -0.4186 -0.7464  0.2762
  634MOL0     C83585  -0.766   7.824  10.280  0.3028 -0.6856  0.3725
  634MOL0     O83586  -0.799   7.957  10.246 -0.7860 -0.1148 -0.2689
  634MOL0     C83587  -0.930   7.974  10.209  0.5930 -0.2047 -0.6586
  634MOL0     C83588  -1.038   7.952  10.296  0.0736  0.0365 -0.5523
  634MOL0     C83589  -1.172   7.995  10.258 -0.2834  0.6602  0.2579
  634MOL0     C83590  -1.196   8.033  10.126  0.1694 -0.6641  0.1786
  634MOL0     O83591  -1.328   8.046  10.097 -0.6833 -0.4994 -0.3629
  634MOL0     C83592  -1.369   7.989   9.980  1.1147  0.1993  0.4031
  634MOL0     C83593  -1.496   7.914  10.012 -0.7682  0.0154 -0.8066
  634MOL0     C83594  -1.625   8.004  10.063 -0.1454  0.2651  0.1605
  634MOL0     C83595  -1.763   7.921  10.071 -0.5172 -1.0714  0.0798
  634MOL0     C83596  -1.893   8.002  10.039  0.2941 -0.1233 -1.2463
  634MOL0     C83597  -1.927   8.104  10.147 -0.2929  0.9902  0.3345
  634MOL0     C83598  -2.042   8.184  10.090 -1.0059  0.6753 -0.2809
  634MOL0     C83599  -2.081   8.271  10.201 -0.5654 -0.4713 -0.1404
  634MOL0    Cl83600  -2.220   8.368  10.144  0.1415 -0.1012  0.2092
  634MOL0     C83601  -1.087   8.051  10.040 -0.3575 -0.1713 -0.3370
  634MOL0     C83602  -0.956   8.034  10.088 -0.0369 -0.4375 -1.1449
  634MOL0     O83603  -0.842   7.725  10.275 -0.2956 -0.4407  0.0405
  634MOL0     C83604  -0.529   7.895  10.299 -0.5185  0.7767  1.1203
  634MOL0     C83605  -0.397   7.880  10.354 -0.6570  0.5250 -0.5953
  634MOL0     N83606   0.020   8.211  10.613 -0.5009 -0.7253  0.5022
  634MOL0     N83607   0.058   8.316  10.553 -0.3948 -0.0328  0.3849
  634MOL0     C83608   1.260   8.471  10.928  0.4679 -0.3249  0.0766
  634MOL0     C83609   1.383   8.531  10.967  0.2548  0.1107 -0.4036
  634MOL0     C83610   1.853   8.602  10.902 -0.0720 -0.4361  0.0977
  634MOL0     C83611   1.972   8.539  10.879 -0.1916  0.0440 -0.4265
  634MOL0     C83612   2.094   8.594  10.911 -0.0278 -0.3036 -0.2547
  634MOL0     C83613   2.102   8.725  10.966 -0.1789 -0.3268 -0.3314
  634MOL0     O83614   2.218   8.793  10.999 -1.3063 -0.0314 -0.4877
  634MOL0     C83615   2.351   8.741  10.970  0.4760  0.6690 -0.6429
  634MOL0     C83616   2.464   8.790  11.059 -0.7881  0.1270  0.4963
  634MOL0     C83617   2.524   8.928  11.010  0.0911 -0.0766 -0.0635
  634MOL0     C83618   2.654   8.972  11.085  0.0224 -0.8708 -0.3131
  634MOL0     C83619   2.703   9.105  11.029  0.2227  0.5032 -0.7802
  634MOL0     C83620   2.746   9.210  10.987  0.3170  0.9124  0.7646
  634MOL0     C83621   1.978   8.789  10.992  0.8902  0.1418 -0.4313
  634MOL0     C83622   1.859   8.728  10.970 -0.3632 -0.2079 -0.3689
  634MOL0     H83623   1.538   8.509  10.662 -0.0602 -3.1843 -0.2098
  634MOL0     H83624   1.324   8.423  10.601  2.2427 -4.3021  0.2813
  634MOL0     H83625   1.111   8.270  10.597  0.2092 -1.4606  1.9288
  634MOL0     H83626   1.093   8.449  10.568 -0.5073 -0.3623  0.1157
  634MOL0     H83627   0.868   8.424  10.662 -1.3637  0.1012  0.2102
  634MOL0     H83628   0.889   8.248  10.686  0.0363  0.8981 -0.0583
  634MOL0     H83629   0.943   8.229  10.439  1.4038  1.3979 -0.8245
  634MOL0     H83630   0.891   8.394  10.423 -1.1928  0.9076  1.2171
  634MOL0     H83631   0.734   8.223  10.365 -1.2298 -2.1083  0.1260
  634MOL0     H83632   0.741   8.151  10.531 -0.9393  0.6291  0.1591
  634MOL0     H83633   0.647   8.440  10.464 -1.4140  0.6834  1.5652
  634MOL0     H83634   0.628   8.357  10.620  0.8377 -1.0037  0.2834
  634MOL0     H83635   0.481   8.199  10.523  1.8021 -0.5290 -1.2118
  634MOL0     H83636   0.490   8.260  10.368 -1.3607  1.7209 -0.2815
  634MOL0     H83637   0.392   8.427  10.616 -1.8916  0.5653  0.1861
  634MOL0     H83638   0.441   8.498  10.473 -0.6729  0.1432  1.2243
  634MOL0     H83639   0.278   8.391  10.317 -1.7595 -1.7129 -0.8046
  634MOL0     H83640   0.218   8.495  10.454  2.8461  1.9291 -0.3994
  634MOL0     H83641   0.284   8.100  10.471 -0.1776  0.3147 -3.6284
  634MOL0     H83642   0.120   7.965  10.758  1.6393 -2.9272 -0.0478
  634MOL0     H83643   0.198   7.913  10.622  0.7408  0.7797  2.1600
  634MOL0     H83644  -0.104   7.947  10.670  0.1555 -2.3059  2.1875
  634MOL0     H83645  -0.031   7.789  10.668  1.3376  1.6667  2.5754
  634MOL0     H83646  -0.127   7.970  10.449 -1.8897  0.1778  4.7392
  634MOL0     H83647   0.027   7.889  10.407  1.2455  1.4259  1.0793
  634MOL0     H83648  -0.086   7.667  10.474 -1.4783 -0.6036  0.8386
  634MOL0     H83649  -0.153   7.747  10.329  1.1723  0.4739  0.0772
  634MOL0     H83650  -0.446   7.582  10.505 -1.3092  1.4693  1.1604
  634MOL0     H83651  -0.677   7.623  10.418 -0.1105  0.3432  1.6471
  634MOL0     H83652  -1.018   7.907  10.393  1.2451  0.2657 -0.6744
  634MOL0     H83653  -1.262   7.985  10.319 -1.0516 -2.5178 -1.1883
  634MOL0     H83654  -1.298   7.921   9.931  0.3645 -0.5805  0.3846
  634MOL0     H83655  -1.403   8.071   9.915  0.2599  0.4872  1.1943
  634MOL0     H83656  -1.474   7.834  10.083  0.2236 -0.0744 -1.2074
  634MOL0     H83657  -1.519   7.870   9.914 -0.6658  1.4315 -1.4863
  634MOL0     H83658  -1.642   8.084   9.990  0.5154  0.4792  0.2372
  634MOL0     H83659  -1.591   8.042  10.159  0.4302  0.6368 -0.1854
  634MOL0     H83660  -1.770   7.842   9.996 -1.1905 -1.9854  1.0870
  634MOL0     H83661  -1.761   7.875  10.170 -1.3786 -1.6471 -0.1585
  634MOL0     H83662  -1.972   7.927  10.028 -0.4418  0.8456 -3.0634
  634MOL0     H83663  -1.872   8.041   9.939  3.9120  0.5109 -0.3905
  634MOL0     H83664  -1.831   8.153  10.162  1.0072 -1.4841  0.6257
  634MOL0     H83665  -1.950   8.058  10.244  0.7941 -1.1473 -0.3649
  634MOL0     H83666  -2.018   8.242  10.000  0.5462 -1.7420 -1.5510
  634MOL0     H83667  -2.125   8.119  10.060 -3.3923  3.9317 -1.3207
  634MOL0     H83668  -1.999   8.336  10.233 -0.8295  0.1683 -0.7400
  634MOL0     H83669  -2.112   8.225  10.295  2.0270  0.1233  1.1004
  634MOL0     H83670  -1.094   8.075   9.935 -2.4027  0.6201 -0.0615
  634MOL0     H83671  -0.879   8.062  10.017 -0.8044 -1.0585 -2.2582
  634MOL0     H83672  -0.540   7.988  10.244  4.2111  1.5051  1.0295
  634MOL0     H83673  -0.313   7.948  10.359 -1.3134  1.2572  2.3377
  634MOL0     H83674   1.176   8.469  10.997  0.9052  2.2021  0.8122
  634MOL0     H83675   1.411   8.558  11.068 -1.1480 -1.1906  0.3738
  634MOL0     H83676   1.965   8.440  10.837 -3.0137 -0.0317  0.0322
  634MOL0     H83677   2.185   8.539  10.890  1.0245  1.4720 -0.5722
  634MOL0     H83678   2.368   8.751  10.862 -1.7742  0.5801 -1.0482
  634MOL0     H83679   2.347   8.636  10.999 -0.8717  0.6911 -0.7112
  634MOL0     H83680   2.437   8.803  11.164  2.2537 -0.7772  1.4982
  634MOL0     H83681   2.548   8.721  11.047  0.1568  1.3605 -0.3103
  634MOL0     H83682   2.453   9.010  11.023  0.3740  0.5580 -2.1505
  634MOL0     H83683   2.551   8.926  10.904  0.3010 -0.1977 -0.0087
  634MOL0     H83684   2.642   8.983  11.193 -0.4860 -1.3114 -0.3250
  634MOL0     H83685   2.726   8.892  11.068  1.2413 -0.1969  1.3725
  634MOL0     H83686   2.770   9.312  10.967 -2.6315  2.6986  4.9217
  634MOL0     H83687   1.982   8.890  11.032  2.0173  0.5109 -1.4184
  634MOL0     H83688   1.763   8.777  10.982 -1.2434 -2.3456  2.4097
  635MOL0     O83689   5.221   3.176   1.474  0.1115  0.3043 -0.2040
  635MOL0     C83690   5.218   3.281   1.541 -0.1676  0.5298 -0.4665
  635MOL0     O83691   5.112   3.307   1.635  0.4881  0.3989 -0.2004
  635MOL0     C83692   4.987   3.275   1.588  0.1375 -0.3146  0.8140
  635MOL0     C83693   4.940   3.291   1.456 -0.0042  0.3200  0.0540
  635MOL0     C83694   4.804   3.261   1.424  0.5958  0.8869  0.6038
  635MOL0     C83695   4.716   3.204   1.523 -0.0637  0.0554 -0.0147
  635MOL0     O83696   4.590   3.159   1.499 -0.0937 -0.1166 -0.3865
  635MOL0     C83697   4.539   3.165   1.365 -0.6674 -0.4506 -0.4572
  635MOL0     C83698   4.392   3.142   1.354  0.4488  0.1138 -0.1755
  635MOL0     C83699   4.364   3.006   1.415 -0.7001  0.0085 -0.0965
  635MOL0     C83700   4.224   2.967   1.366 -0.5372  0.1111  0.6854
  635MOL0     C83701   4.202   2.817   1.367 -0.6553  1.1720  0.4064
  635MOL0     C83702   4.065   2.769   1.312 -0.0716  0.1969  0.0051
  635MOL0     C83703   3.947   2.850   1.362 -0.0900 -0.0077 -0.3890
  635MOL0     C83704   3.814   2.763   1.377  1.0036 -0.8512  0.3372
  635MOL0     N83705   3.741   2.711   1.254  0.4127 -0.6249  0.0800
  635MOL0     C83706   3.679   2.593   1.229 -0.6301  0.6233  0.5930
  635MOL0     C83707   3.628   2.594   1.102 -1.6198  1.0102 -0.3229
  635MOL0     C83708   3.561   2.488   1.023  0.0586  1.0194  0.8051
  635MOL0     C83709   3.510   2.533   0.879 -0.1568  0.2852  0.6404
  635MOL0     C83710   3.443   2.417   0.811  0.5644  0.6538  0.1254
  635MOL0     C83711   3.407   2.433   0.662 -0.3518  0.0697  0.1296
  635MOL0     O83712   3.313   2.325   0.612 -0.2861 -0.0042  0.1894
  635MOL0     C83713   3.176   2.332   0.639 -0.4426 -0.4628 -0.4631
  635MOL0     C83714   3.092   2.440   0.639 -0.2259 -0.0012  0.4345
  635MOL0     C83715   2.955   2.436   0.651  0.0227  0.2555 -0.2357
  635MOL0     C83716   2.892   2.312   0.675 -1.3655 -0.8480  0.2610
  635MOL0     C83717   2.742   2.298   0.663 -0.6042  0.1316  0.0736
  635MOL0     O83718   2.687   2.406   0.613  0.7278 -0.1327 -0.1363
  635MOL0     C83719   2.552   2.421   0.609  0.3879 -0.9188 -0.0032
  635MOL0     C83720   2.459   2.320   0.563  0.1419 -0.1822 -0.1109
  635MOL0     C83721   2.321   2.352   0.539  0.4812 -0.1024 -1.2219
  635MOL0     C83722   2.266   2.478   0.570  0.6434 -0.1792  0.4821
  635MOL0     O83723   2.131   2.482   0.567  0.6724  0.4323  0.4594
  635MOL0     C83724   2.065   2.594   0.636 -0.0633  0.5249  0.7740
  635MOL0     C83725   2.045   2.580   0.786 -0.6901  0.2156 -0.3583
  635MOL0     C83726   1.945   2.486   0.851  0.8220 -0.2101  0.0689
  635MOL0     C83727   1.809   2.544   0.837 -1.0229  0.8284  0.2376
  635MOL0     C83728   1.705   2.447   0.900 -0.5582 -0.8729 -0.0144
  635MOL0     C83729   1.676   2.470   1.048 -0.6239  0.3834 -0.2728
  635MOL0     C83730   1.587   2.368   1.110 -0.1376  0.2657  0.6218
  635MOL0     C83731   1.587   2.388   1.262 -0.1247 -0.2988  1.1537
  635MOL0    Cl83732   1.481   2.266   1.334  0.6615 -0.3269  0.5853
  635MOL0     C83733   2.359   2.579   0.602 -0.8004 -0.5179 -0.5250
  635MOL0     C83734   2.503   2.553   0.617  0.6422 -0.3034 -0.7076
  635MOL0     O83735   2.689   2.194   0.695 -0.2968  0.9914 -1.4022
  635MOL0     C83736   2.975   2.206   0.706  0.2938 -0.1734 -0.3411
  635MOL0     C83737   3.117   2.213   0.687  1.3202  0.0319  0.1972
  635MOL0     N83738   3.670   2.712   1.053 -0.4978 -0.3347  0.0054
  635MOL0     N83739   3.747   2.779   1.139 -0.5044  0.7273 -0.1468
  635MOL0     C83740   4.763   3.189   1.655  0.6761  0.0782 -0.3892
  635MOL0     C83741   4.900   3.224   1.686  0.2496 -0.0501 -0.1662
  635MOL0     C83742   5.341   3.369   1.555 -1.3181 -0.4862  0.3236
  635MOL0     C83743   5.347   3.463   1.654  0.0708 -0.5064 -0.1519
  635MOL0     C83744   5.460   3.539   1.679 -0.3972 -0.3150 -0.7646
  635MOL0     C83745   5.576   3.515   1.611 -0.3514 -0.0504 -0.2378
  635MOL0     O83746   5.684   3.582   1.664 -0.0459 -0.0492  0.1577
  635MOL0     C83747   5.815   3.548   1.609  0.4839 -0.7446 -0.1738
  635MOL0     C83748   5.930   3.627   1.681  0.4340 -0.8978 -0.2180
  635MOL0     C83749   5.940   3.575   1.825 -0.2453 -0.3816 -0.7872
  635MOL0     C83750   6.054   3.633   1.910 -0.1042 -0.0185  1.4509
  635MOL0     C83751   6.181   3.582   1.846  0.2363 -0.8270  0.0197
  635MOL0     C83752   6.289   3.559   1.793  0.0749 -0.0236  0.6410
  635MOL0     C83753   5.577   3.424   1.507  0.1774  0.3002  0.6337
  635MOL0     C83754   5.458   3.356   1.473  0.3497  0.4447 -0.3385
  635MOL0     H83755   5.005   3.324   1.376 -0.7297 -1.9413 -1.5582
  635MOL0     H83756   4.790   3.267   1.316 -1.9781 -0.3950  0.8032
  635MOL0     H83757   4.598   3.099   1.300  0.4398  1.0985 -1.0831
  635MOL0     H83758   4.567   3.259   1.318  1.7539 -1.2578 -0.7830
  635MOL0     H83759   4.359   3.138   1.250 -2.8151 -3.5668  0.7268
  635MOL0     H83760   4.342   3.222   1.409  2.9283  1.3431  0.4386
  635MOL0     H83761   4.369   3.022   1.523 -2.1708  2.7451 -0.3482
  635MOL0     H83762   4.424   2.920   1.384  2.8320  1.8562  0.9864
  635MOL0     H83763   4.155   3.024   1.429  2.1967  3.1296  1.2093
  635MOL0     H83764   4.207   2.994   1.261 -1.3464  0.8630  1.0073
  635MOL0     H83765   4.211   2.782   1.470  0.5581  0.9068  0.2337
  635MOL0     H83766   4.280   2.765   1.310 -2.2606 -1.0116  0.0709
  635MOL0     H83767   4.057   2.662   1.336  0.9554 -1.0256 -4.2341
  635MOL0     H83768   4.072   2.765   1.203 -1.2738  1.7171 -0.1586
  635MOL0     H83769   3.982   2.885   1.460  1.9109  2.9576 -1.9868
  635MOL0     H83770   3.937   2.941   1.302 -0.9796 -0.0479 -0.3129
  635MOL0     H83771   3.741   2.812   1.441  0.4564 -2.1435  0.7317
  635MOL0     H83772   3.839   2.665   1.417  1.1169 -1.8820 -2.0564
  635MOL0     H83773   3.692   2.504   1.289  0.9731  0.8278  0.5929
  635MOL0     H83774   3.471   2.462   1.080  0.9757  0.0068  1.8480
  635MOL0     H83775   3.630   2.403   1.015 -1.6946 -0.2965 -1.4208
  635MOL0     H83776   3.597   2.561   0.820  0.9187  1.6499  2.7554
  635MOL0     H83777   3.450   2.624   0.876 -1.3617 -0.4799 -2.3778
  635MOL0     H83778   3.496   2.322   0.822 -0.9919 -0.2486  0.1299
  635MOL0     H83779   3.349   2.405   0.866 -1.4361 -1.4294 -3.3872
  635MOL0     H83780   3.500   2.429   0.604 -0.8992 -2.2102 -0.6916
  635MOL0     H83781   3.365   2.533   0.655 -2.5743 -0.8538 -0.4767
  635MOL0     H83782   3.128   2.540   0.614  4.0310 -0.5415  3.2806
  635MOL0     H83783   2.916   2.536   0.636  2.0346  1.2241  0.6436
  635MOL0     H83784   2.491   2.217   0.557 -1.4669 -0.6443 -1.3511
  635MOL0     H83785   2.252   2.279   0.497 -3.4341  0.9965  2.5480
  635MOL0     H83786   1.962   2.605   0.599  0.4066 -1.1962 -1.2334
  635MOL0     H83787   2.113   2.689   0.610 -0.2792  0.4884  0.2135
  635MOL0     H83788   2.030   2.683   0.818 -1.8062 -0.2958  0.8575
  635MOL0     H83789   2.142   2.550   0.827 -1.4735 -2.2514 -0.1262
  635MOL0     H83790   1.974   2.468   0.955 -2.8928  1.1830  1.5097
  635MOL0     H83791   1.952   2.387   0.803 -1.3788  1.2089 -3.6614
  635MOL0     H83792   1.816   2.644   0.880  1.7506  0.5839  0.5606
  635MOL0     H83793   1.793   2.569   0.732  0.5449  0.5248 -0.1000
  635MOL0     H83794   1.732   2.342   0.888 -4.7664 -2.3857  1.5743
  635MOL0     H83795   1.610   2.460   0.846 -0.6206  0.7520  0.4420
  635MOL0     H83796   1.639   2.572   1.061 -0.0152  0.5368  0.3363
  635MOL0     H83797   1.776   2.457   1.091 -0.6080  0.9140 -0.1462
  635MOL0     H83798   1.486   2.369   1.068  0.5205 -3.1183 -1.4420
  635MOL0     H83799   1.613   2.262   1.098 -0.1703  0.3138  0.1334
  635MOL0     H83800   1.565   2.494   1.279  1.6405  0.3114 -0.0399
  635MOL0     H83801   1.690   2.372   1.297  0.9633  1.5134 -0.8951
  635MOL0     H83802   2.344   2.683   0.629  0.0540 -0.7265  0.8180
  635MOL0     H83803   2.560   2.643   0.637  1.8826 -0.5804 -2.6398
  635MOL0     H83804   2.929   2.110   0.728  0.8724 -0.7093 -1.3545
  635MOL0     H83805   3.178   2.126   0.706 -0.0858 -1.1226 -0.4178
  635MOL0     H83806   4.695   3.161   1.734  0.0033  0.3548 -0.8627
  635MOL0     H83807   4.953   3.215   1.780  1.5713 -1.7507 -1.0297
  635MOL0     H83808   5.262   3.497   1.713 -0.0532 -0.8157 -0.1534
  635MOL0     H83809   5.455   3.606   1.764  1.8818  0.9802 -1.5642
  635MOL0     H83810   5.804   3.571   1.502  0.3046 -0.7648 -0.1603
  635MOL0     H83811   5.832   3.440   1.610 -4.1559 -1.9818 -5.3741
  635MOL0     H83812   6.033   3.612   1.646  1.2415  2.6673  0.3088
  635MOL0     H83813   5.912   3.734   1.677 -0.1541 -0.7565  3.0865
  635MOL0     H83814   5.950   3.467   1.816  2.0014 -0.1069 -2.4204
  635MOL0     H83815   5.848   3.591   1.882  1.2692 -0.3399  1.8284
  635MOL0     H83816   6.048   3.742   1.902 -0.4678 -0.1621 -4.1166
  635MOL0     H83817   6.052   3.616   2.018  0.8180 -0.5320  1.3950
  635MOL0     H83818   6.386   3.544   1.750 -0.0761 -0.5833  0.4905
  635MOL0     H83819   5.666   3.403   1.448  0.0430  1.2508  0.0652
  635MOL0     H83820   5.460   3.268   1.410 -0.4514 -0.4176  0.8029
  636MOL0     O83821   8.048   9.119   2.119  0.2749 -0.0980 -0.0584
  636MOL0     C83822   8.107   9.058   2.031  0.7979  0.3817  0.1521
  636MOL0     O83823   8.045   8.961   1.954 -0.4189  0.5736  0.2051
  636MOL0     C83824   7.916   8.936   1.978  0.4907 -0.5102 -0.0141
  636MOL0     C83825   7.818   8.933   1.875 -0.3698  0.4886  0.8584
  636MOL0     C83826   7.684   8.904   1.887 -0.7569  0.0796 -0.3215
  636MOL0     C83827   7.639   8.879   2.020 -0.8185 -0.8020  0.4270
  636MOL0     O83828   7.505   8.863   2.022 -0.0058  0.5089  0.6236
  636MOL0     C83829   7.443   8.763   2.107 -0.3287  0.8722  0.0679
  636MOL0     C83830   7.415   8.814   2.247  0.7950  0.5777  0.3514
  636MOL0     C83831   7.304   8.734   2.324 -0.8335 -0.4073  0.4662
  636MOL0     C83832   7.173   8.780   2.272  0.5257 -0.5630 -0.8959
  636MOL0     C83833   7.061   8.736   2.372 -0.2385  0.2788  1.0630
  636MOL0     C83834   7.027   8.592   2.349  0.3186 -0.0554 -0.3576
  636MOL0     C83835   6.940   8.525   2.449  1.0904  0.4707 -0.5808
  636MOL0     C83836   7.011   8.492   2.582 -0.3726 -0.6253  0.3797
  636MOL0     N83837   7.069   8.362   2.565  0.3803 -0.5943  0.0409
  636MOL0     C83838   7.011   8.241   2.587 -0.6524 -0.0606  1.1777
  636MOL0     C83839   7.120   8.154   2.590 -0.0610  0.2105 -1.0290
  636MOL0     C83840   7.128   8.011   2.631  0.2834  0.4254 -0.6154
  636MOL0     C83841   7.128   7.980   2.780 -0.1641 -0.2261  0.3276
  636MOL0     C83842   7.245   8.027   2.871 -0.1489  0.0371  0.5778
  636MOL0     C83843   7.383   7.979   2.844 -0.6701 -0.4964  0.2133
  636MOL0     O83844   7.463   8.018   2.955 -0.1585  0.5012 -0.2967
  636MOL0     C83845   7.457   7.947   3.075 -0.2060 -0.3324  0.2712
  636MOL0     C83846   7.415   7.815   3.074 -0.0181  0.5585 -0.9373
  636MOL0     C83847   7.392   7.753   3.198 -0.0942 -0.2368 -0.1854
  636MOL0     C83848   7.420   7.819   3.314 -0.6182 -0.2822 -0.2033
  636MOL0     C83849   7.436   7.757   3.455  0.1124  0.8816  0.0143
  636MOL0     O83850   7.445   7.626   3.466 -0.1168  0.1359 -0.1277
  636MOL0     C83851   7.433   7.580   3.586  0.3735 -0.3915 -0.5547
  636MOL0     C83852   7.548   7.549   3.656 -0.4812  0.0753  0.5865
  636MOL0     C83853   7.545   7.483   3.783  0.4395 -0.6815  0.2382
  636MOL0     C83854   7.424   7.441   3.838 -0.5509 -0.6547  0.5444
  636MOL0     O83855   7.408   7.359   3.941  0.4382  0.8184 -0.3457
  636MOL0     C83856   7.474   7.392   4.061 -0.8382 -0.6345  0.0273
  636MOL0     C83857   7.462   7.538   4.113  0.3430  0.2686 -0.0340
  636MOL0     C83858   7.315   7.572   4.125  0.4482 -0.1802 -0.8651
  636MOL0     C83859   7.241   7.510   4.243 -1.0848 -1.3094 -0.1583
  636MOL0     C83860   7.109   7.570   4.247  0.4043 -0.2112  0.3030
  636MOL0     C83861   7.038   7.534   4.374  0.4226 -0.5995 -1.0601
  636MOL0     C83862   6.924   7.630   4.407 -0.3421 -0.5178 -0.7943
  636MOL0     C83863   6.893   7.618   4.554  0.2157 -0.3793 -0.7217
  636MOL0    Cl83864   6.816   7.465   4.581  0.3151 -0.4737  0.2465
  636MOL0     C83865   7.310   7.474   3.764  0.2346 -0.6637 -0.0059
  636MOL0     C83866   7.313   7.544   3.641 -1.1321  0.8169  1.1129
  636MOL0     O83867   7.437   7.831   3.553 -0.6834 -0.5221 -0.1765
  636MOL0     C83868   7.451   7.961   3.311 -0.0808 -0.6888  0.2833
  636MOL0     C83869   7.476   8.026   3.189 -0.1139  0.6490 -0.3798
  636MOL0     N83870   7.235   8.217   2.549  0.9847 -1.2284 -0.2047
  636MOL0     N83871   7.201   8.349   2.531 -0.0504 -0.2691  0.3532
  636MOL0     C83872   7.723   8.890   2.135 -0.6829 -1.2016 -0.2996
  636MOL0     C83873   7.864   8.913   2.113  0.5318 -0.2399  0.2399
  636MOL0     C83874   8.255   9.069   2.022 -0.3826 -0.0518 -0.5490
  636MOL0     C83875   8.322   9.007   1.913  0.0889 -0.3257 -0.2545
  636MOL0     C83876   8.459   9.009   1.902  1.2830 -0.1997  0.3327
  636MOL0     C83877   8.532   9.067   2.001  0.4455  0.3023  0.3615
  636MOL0     O83878   8.669   9.072   2.004 -0.1189  0.3525  0.9663
  636MOL0     C83879   8.733   8.950   1.968 -0.4381  0.0737  0.1189
  636MOL0     C83880   8.870   8.959   2.005 -0.5008 -0.7902  0.4688
  636MOL0     C83881   8.959   8.858   1.945 -0.6229 -0.3172 -0.5051
  636MOL0     C83882   9.108   8.890   1.961 -0.5002  0.6526 -0.0749
  636MOL0     C83883   9.178   8.804   1.862  1.1004  0.4952  0.0883
  636MOL0     C83884   9.207   8.721   1.774 -0.0978 -0.5747 -0.8361
  636MOL0     C83885   8.463   9.132   2.106 -0.1304 -0.5606 -0.1287
  636MOL0     C83886   8.327   9.135   2.119  0.0057 -0.2300 -0.0165
  636MOL0     H83887   7.845   8.965   1.775 -0.6181  0.8746  0.9123
  636MOL0     H83888   7.620   8.913   1.799 -0.3537 -0.1609 -0.6392
  636MOL0     H83889   7.500   8.670   2.111 -1.2416  0.1419 -2.2982
  636MOL0     H83890   7.343   8.740   2.069  0.3098 -1.4871 -0.3270
  636MOL0     H83891   7.399   8.921   2.237 -0.4437  0.2762 -1.2267
  636MOL0     H83892   7.511   8.799   2.298  2.4969 -1.4231 -3.0371
  636MOL0     H83893   7.310   8.761   2.430 -1.8294  1.6073  0.0519
  636MOL0     H83894   7.332   8.629   2.313  1.6679  0.0871  1.3084
  636MOL0     H83895   7.159   8.889   2.270 -0.5974 -0.6438  0.7581
  636MOL0     H83896   7.154   8.752   2.168 -0.3221 -0.0846 -0.8749
  636MOL0     H83897   6.971   8.786   2.334 -0.3807  0.6850  1.9160
  636MOL0     H83898   7.090   8.749   2.477  2.0934 -1.0822  0.6599
  636MOL0     H83899   7.122   8.538   2.344  0.4358 -0.0710  1.3892
  636MOL0     H83900   6.980   8.585   2.251  0.0212 -0.2034 -0.2057
  636MOL0     H83901   6.862   8.596   2.478  0.0394 -0.8262 -0.1546
  636MOL0     H83902   6.876   8.449   2.404  0.3362  2.0129 -2.2711
  636MOL0     H83903   6.932   8.486   2.657 -0.0371  2.3487  1.1080
  636MOL0     H83904   7.076   8.574   2.613  0.9075 -0.7955 -1.6971
  636MOL0     H83905   6.908   8.225   2.617 -0.8799 -1.9434 -0.3765
  636MOL0     H83906   7.225   7.978   2.594 -0.3805 -1.9891 -0.3538
  636MOL0     H83907   7.057   7.953   2.571 -1.8552  0.4044  1.7617
  636MOL0     H83908   7.127   7.871   2.778  0.3199 -0.2802  1.8364
  636MOL0     H83909   7.043   8.029   2.829 -1.6607 -0.2407 -2.0917
  636MOL0     H83910   7.257   8.135   2.879  2.0565 -0.2501  1.7960
  636MOL0     H83911   7.210   7.984   2.965  0.2256  0.0040  0.7003
  636MOL0     H83912   7.424   8.027   2.755  0.0580 -0.5535  0.5170
  636MOL0     H83913   7.382   7.872   2.822 -2.8505 -0.4939  0.0674
  636MOL0     H83914   7.393   7.757   2.985 -3.7593  1.5478 -0.8139
  636MOL0     H83915   7.355   7.650   3.202  0.2500 -0.3665 -0.2949
  636MOL0     H83916   7.642   7.579   3.609 -1.8693 -0.1186 -2.5677
  636MOL0     H83917   7.638   7.460   3.834 -1.5063 -0.6038  4.1567
  636MOL0     H83918   7.581   7.371   4.056 -0.6262  0.0725  1.2085
  636MOL0     H83919   7.434   7.328   4.142  2.2809 -2.7761  0.0473
  636MOL0     H83920   7.511   7.610   4.046  0.0171 -1.6657 -2.4898
  636MOL0     H83921   7.513   7.553   4.209 -0.7499  1.3805  0.4007
  636MOL0     H83922   7.267   7.556   4.028  0.5117 -0.4598 -0.8499
  636MOL0     H83923   7.319   7.680   4.143  0.8875 -0.5561  1.7246
  636MOL0     H83924   7.235   7.402   4.224  2.5607 -2.0498  1.9767
  636MOL0     H83925   7.302   7.526   4.332  1.3104 -1.4233 -1.7123
  636MOL0     H83926   7.053   7.535   4.159  1.3132 -0.9964  0.0132
  636MOL0     H83927   7.116   7.679   4.246  3.1972 -0.2946 -1.9899
  636MOL0     H83928   7.107   7.544   4.458 -0.5834 -1.1035 -0.1449
  636MOL0     H83929   7.006   7.429   4.367 -0.0791 -0.4519 -1.0045
  636MOL0     H83930   6.959   7.732   4.391 -0.2621 -0.0882  1.7376
  636MOL0     H83931   6.838   7.612   4.341 -1.1009 -2.6245  0.6927
  636MOL0     H83932   6.829   7.704   4.576  1.2938  1.1102 -2.9513
  636MOL0     H83933   6.981   7.626   4.618 -0.0221 -3.4782  0.1634
  636MOL0     H83934   7.213   7.433   3.789 -1.1611  1.3012 -1.9615
  636MOL0     H83935   7.225   7.543   3.578 -0.5112 -1.8404  0.1559
  636MOL0     H83936   7.462   8.013   3.405  0.3212 -2.2349  1.1373
  636MOL0     H83937   7.504   8.130   3.183  2.4880  0.0976  0.7390
  636MOL0     H83938   7.690   8.889   2.238 -0.8661 -3.6431 -0.3239
  636MOL0     H83939   7.924   8.920   2.203 -1.3265  0.9048  1.4434
  636MOL0     H83940   8.267   8.960   1.833  0.2082  0.3118 -0.7209
  636MOL0     H83941   8.505   8.964   1.814  4.0878 -0.7889  1.9783
  636MOL0     H83942   8.727   8.937   1.860  0.1800 -0.7701  0.1780
  636MOL0     H83943   8.692   8.868   2.027  0.0699  0.3830  0.9368
  636MOL0     H83944   8.908   9.057   1.975 -2.2254  1.0707  3.8134
  636MOL0     H83945   8.881   8.965   2.113  0.0251  0.9532  0.3411
  636MOL0     H83946   8.945   8.855   1.836  0.4542 -1.7023 -0.6385
  636MOL0     H83947   8.926   8.760   1.980  3.8683 -2.2089 -0.8808
  636MOL0     H83948   9.129   8.995   1.941 -4.8171  1.2445 -2.5961
  636MOL0     H83949   9.147   8.858   2.059 -2.7395  0.3854  0.8048
  636MOL0     H83950   9.234   8.640   1.709 -1.0188 -1.1512 -0.5312
  636MOL0     H83951   8.516   9.176   2.190  0.2829 -1.3100  0.0035
  636MOL0     H83952   8.282   9.181   2.206 -0.3522  1.2601 -0.9671
  637MOL0     O83953   6.445   7.576   3.963 -0.3699 -0.2712 -0.3543
  637MOL0     C83954   6.552   7.615   4.005  0.3956  0.0480  0.3684
  637MOL0     O83955   6.589   7.616   4.134 -0.2145 -0.0348  0.6971
  637MOL0     C83956   6.486   7.615   4.233  0.2550 -0.0563 -0.3274
  637MOL0     C83957   6.507   7.521   4.336  0.4256 -0.4894  0.5560
  637MOL0     C83958   6.420   7.510   4.437  0.6018  0.4417 -0.2846
  637MOL0     C83959   6.311   7.592   4.447 -0.0618  0.1138  0.7860
  637MOL0     O83960   6.220   7.589   4.549  0.3071  0.4745  0.7615
  637MOL0     C83961   6.226   7.499   4.660 -1.0355  0.5824 -0.5185
  637MOL0     C83962   6.095   7.498   4.740 -0.7020 -0.1736 -0.1641
  637MOL0     C83963   6.103   7.440   4.888 -0.1987 -0.2156 -0.3915
  637MOL0     C83964   6.145   7.287   4.892 -0.0630 -0.9533  0.2732
  637MOL0     C83965   6.162   7.225   5.029  0.2997  0.8428 -0.0425
  637MOL0     C83966   6.046   7.264   5.128  0.4743 -0.1002  0.0383
  637MOL0     C83967   6.052   7.187   5.266  0.0945  0.1714  0.0220
  637MOL0     C83968   5.948   7.227   5.370  0.1627 -0.3569 -0.3293
  637MOL0     N83969   5.805   7.212   5.339  1.1241  0.4986  0.4504
  637MOL0     C83970   5.734   7.117   5.271 -0.0283 -0.2370 -0.7682
  637MOL0     C83971   5.602   7.160   5.262  0.5464 -0.0602 -0.9465
  637MOL0     C83972   5.479   7.080   5.216 -0.5153  0.0650 -0.0116
  637MOL0     C83973   5.492   6.945   5.157  0.2196  0.3142 -0.1936
  637MOL0     C83974   5.574   6.846   5.242 -0.7030  0.7381  0.6679
  637MOL0     C83975   5.505   6.710   5.259 -0.5576 -0.5145 -0.9613
  637MOL0     O83976   5.366   6.718   5.291  1.0498  0.3031 -0.3204
  637MOL0     C83977   5.266   6.621   5.268 -0.7621 -0.4032  0.7749
  637MOL0     C83978   5.291   6.495   5.200  0.3907  0.6776 -0.3082
  637MOL0     C83979   5.196   6.387   5.189  0.1783  0.0192 -0.2467
  637MOL0     C83980   5.068   6.419   5.245 -0.0186  0.7248  0.1282
  637MOL0     C83981   4.962   6.322   5.240 -0.1506  0.2163 -1.0969
  637MOL0     O83982   4.838   6.366   5.269  0.0535  0.1270 -0.1716
  637MOL0     C83983   4.731   6.278   5.287  0.0580 -0.0200 -0.6334
  637MOL0     C83984   4.747   6.143   5.328  0.3611 -0.1055 -0.2742
  637MOL0     C83985   4.636   6.066   5.368  0.5355  0.0323 -0.3139
  637MOL0     C83986   4.506   6.111   5.349  0.1539 -0.4852 -0.4747
  637MOL0     O83987   4.403   6.021   5.366  0.0209 -0.0726  1.2115
  637MOL0     C83988   4.295   6.028   5.267 -0.9182  0.2331  0.7938
  637MOL0     C83989   4.239   5.893   5.217  0.6788  0.3625  0.7909
  637MOL0     C83990   4.129   5.845   5.318 -0.2661 -1.2891  0.4810
  637MOL0     C83991   4.080   5.701   5.285  0.6614  0.5245 -0.3649
  637MOL0     C83992   4.002   5.633   5.404 -0.3081 -0.1425  0.2324
  637MOL0     C83993   4.095   5.584   5.507  0.0098 -0.6292 -0.7237
  637MOL0     C83994   4.020   5.500   5.618  0.1993  0.2268 -0.1092
  637MOL0     C83995   4.125   5.432   5.711 -0.0998 -0.3277 -0.1680
  637MOL0    Cl83996   4.048   5.311   5.814 -0.2638  0.2303  0.2360
  637MOL0     C83997   4.491   6.241   5.305 -0.0804 -0.1497 -0.2736
  637MOL0     C83998   4.598   6.324   5.278  0.3491 -0.6778  1.3978
  637MOL0     O83999   4.991   6.207   5.198 -0.5640 -0.1359 -0.7521
  637MOL0     C84000   5.041   6.539   5.309  0.2901 -0.1731 -0.5780
  637MOL0     C84001   5.139   6.638   5.319 -0.2568  0.2463  0.5764
  637MOL0     N84002   5.603   7.298   5.300  0.6836  0.4343 -0.2200
  637MOL0     N84003   5.720   7.323   5.350 -0.8831  0.4755  0.2777
  637MOL0     C84004   6.283   7.682   4.339 -0.1169  0.3325  0.2637
  637MOL0     C84005   6.379   7.695   4.236  0.8154 -0.7909 -0.0093
  637MOL0     C84006   6.660   7.635   3.904 -0.3216  0.0638  0.1472
  637MOL0     C84007   6.635   7.656   3.770 -0.3307  0.0146  0.1714
  637MOL0     C84008   6.728   7.666   3.668 -0.1996 -0.4263  0.3539
  637MOL0     C84009   6.859   7.638   3.704 -0.1361  0.0500 -0.3276
  637MOL0     O84010   6.963   7.630   3.614 -0.4034  0.2683 -0.1808
  637MOL0     C84011   6.972   7.717   3.500  0.1497 -0.4772 -0.4325
  637MOL0     C84012   7.057   7.839   3.543  0.4541 -0.1123  1.3118
  637MOL0     C84013   7.023   7.965   3.464  0.3135  0.2016 -0.6009
  637MOL0     C84014   7.138   8.057   3.471  0.4133 -0.7999 -0.1552
  637MOL0     C84015   7.100   8.189   3.418  0.1543  0.1150 -0.5533
  637MOL0     C84016   7.059   8.287   3.364  0.1187  0.3117  0.1510
  637MOL0     C84017   6.900   7.627   3.839 -0.0911  0.4638  0.3275
  637MOL0     C84018   6.797   7.629   3.938 -0.7002 -0.4706  0.1303
  637MOL0     H84019   6.596   7.460   4.338  1.6677  1.1225 -1.1888
  637MOL0     H84020   6.439   7.440   4.518 -1.2016  0.6739  0.3926
  637MOL0     H84021   6.304   7.542   4.724 -0.8784 -2.5080  1.5581
  637MOL0     H84022   6.265   7.401   4.632 -0.1417 -0.3144  3.3068
  637MOL0     H84023   6.028   7.440   4.676  1.2055 -0.4947 -1.9669
  637MOL0     H84024   6.064   7.602   4.727 -1.8336 -0.1717  2.0620
  637MOL0     H84025   6.003   7.459   4.928 -0.1891  1.5038 -1.1218
  637MOL0     H84026   6.175   7.501   4.944  0.5170 -1.1090 -0.3275
  637MOL0     H84027   6.062   7.241   4.837 -1.4510  1.3331  0.3294
  637MOL0     H84028   6.236   7.264   4.836  0.1240 -2.1575  1.0403
  637MOL0     H84029   6.257   7.261   5.071  0.4927 -0.0434  0.2879
  637MOL0     H84030   6.158   7.117   5.017 -0.7079  1.0208 -1.6140
  637MOL0     H84031   5.956   7.239   5.072  0.8253 -0.1976 -0.4917
  637MOL0     H84032   6.042   7.373   5.132  0.5928  0.1576 -3.4352
  637MOL0     H84033   6.044   7.079   5.248  1.3184 -0.0235  0.5229
  637MOL0     H84034   6.154   7.197   5.304  1.4022 -1.3001 -2.7904
  637MOL0     H84035   5.961   7.335   5.376 -4.9059  0.7435 -3.2124
  637MOL0     H84036   5.967   7.169   5.461  1.2061 -0.7819 -0.7984
  637MOL0     H84037   5.775   7.018   5.249 -0.1439 -0.5813  0.5093
  637MOL0     H84038   5.447   7.137   5.129 -4.8104 -0.4424  1.0451
  637MOL0     H84039   5.388   7.085   5.277 -0.3836 -2.1666  0.4325
  637MOL0     H84040   5.539   6.942   5.058  0.2447  1.6110 -0.2424
  637MOL0     H84041   5.389   6.912   5.141 -1.5808  3.0630  3.9514
  637MOL0     H84042   5.668   6.819   5.193 -2.0281  1.3445 -2.4551
  637MOL0     H84043   5.592   6.878   5.345  0.3859  0.2404  0.6365
  637MOL0     H84044   5.552   6.654   5.340 -2.0330 -0.7998 -0.2706
  637MOL0     H84045   5.519   6.655   5.165 -1.3618 -3.9261  0.7636
  637MOL0     H84046   5.382   6.467   5.147 -0.8856 -2.3162 -1.1536
  637MOL0     H84047   5.212   6.299   5.129  0.1029 -0.3779  0.3045
  637MOL0     H84048   4.849   6.107   5.340  1.8232  3.0973 -1.7050
  637MOL0     H84049   4.643   5.963   5.398 -1.1465 -1.1633 -3.4870
  637MOL0     H84050   4.326   6.079   5.175 -3.0140  2.6495  1.3179
  637MOL0     H84051   4.222   6.096   5.312  0.6134  1.0063  2.1995
  637MOL0     H84052   4.320   5.820   5.207  2.1772  2.0427  0.1659
  637MOL0     H84053   4.177   5.897   5.127 -0.6282 -2.2739  1.4534
  637MOL0     H84054   4.055   5.924   5.303  1.7366  0.3796 -1.2376
  637MOL0     H84055   4.169   5.852   5.420 -0.0041 -4.0813  0.6472
  637MOL0     H84056   4.001   5.715   5.211 -2.4928  2.2853  2.9624
  637MOL0     H84057   4.164   5.638   5.254 -1.3796 -1.6924 -1.7345
  637MOL0     H84058   3.962   5.543   5.357  0.3817 -2.5294  3.9109
  637MOL0     H84059   3.919   5.697   5.434  1.1945  1.5550  0.9599
  637MOL0     H84060   4.150   5.667   5.554  0.4581  0.3976 -2.8884
  637MOL0     H84061   4.170   5.522   5.457  0.0156 -0.4740 -0.9092
  637MOL0     H84062   3.944   5.556   5.674 -0.8323 -2.5060  1.3900
  637MOL0     H84063   3.973   5.417   5.565 -2.0286  0.7354  0.9284
  637MOL0     H84064   4.160   5.512   5.778  0.4185 -0.6203 -0.0840
  637MOL0     H84065   4.207   5.385   5.655  0.3602  0.4907 -0.1938
  637MOL0     H84066   4.390   6.280   5.302 -0.1575 -0.3910 -0.9446
  637MOL0     H84067   4.582   6.427   5.246 -0.1860 -1.2257 -0.1965
  637MOL0     H84068   4.950   6.569   5.360  1.4181  2.5139  0.0547
  637MOL0     H84069   5.131   6.725   5.383 -0.5312 -1.3593  2.8394
  637MOL0     H84070   6.188   7.732   4.325  0.0235  0.3469 -0.7147
  637MOL0     H84071   6.359   7.764   4.155  3.5556 -0.9452 -0.9124
  637MOL0     H84072   6.529   7.650   3.747  0.2377  0.0981 -2.8110
  637MOL0     H84073   6.707   7.674   3.562  3.0469 -0.0239 -0.3362
  637MOL0     H84074   6.876   7.733   3.451 -0.6503 -2.7983  0.2493
  637MOL0     H84075   7.029   7.676   3.416  0.4507  0.2913 -0.6140
  637MOL0     H84076   7.029   7.869   3.645 -2.4799 -0.1097  0.6106
  637MOL0     H84077   7.166   7.837   3.537  0.4962  1.3987  1.1302
  637MOL0     H84078   6.933   8.012   3.506  0.8866  0.5140  0.3081
  637MOL0     H84079   7.014   7.937   3.359  1.5260 -1.4455 -0.3036
  637MOL0     H84080   7.173   8.066   3.575 -4.9667 -0.1348  1.9236
  637MOL0     H84081   7.206   8.013   3.398  0.0341 -2.2893  0.3543
  637MOL0     H84082   7.016   8.370   3.312  2.1166  2.7024  2.0754
  637MOL0     H84083   7.002   7.607   3.870  0.6044  0.0798 -2.0454
  637MOL0     H84084   6.828   7.607   4.040 -1.6302  1.1586  0.8159
  638MOL0     O84085   3.663   0.421   2.481 -0.0795 -0.3008 -0.1604
  638MOL0     C84086   3.555   0.367   2.460 -0.4228  0.0956  0.6294
  638MOL0     O84087   3.490   0.354   2.333 -0.1360  0.2115  0.0030
  638MOL0     C84088   3.551   0.377   2.212 -0.1189 -0.0410  0.1612
  638MOL0     C84089   3.687   0.356   2.186 -0.3585 -0.4381  0.5167
  638MOL0     C84090   3.737   0.343   2.055 -0.3946  0.8988 -0.1732
  638MOL0     C84091   3.649   0.362   1.942  0.5216  0.2518 -0.9579
  638MOL0     O84092   3.693   0.344   1.810 -0.3351  0.6248 -0.2719
  638MOL0     C84093   3.629   0.423   1.705 -0.1628 -0.5209  0.4783
  638MOL0     C84094   3.709   0.421   1.579  0.7872  0.1721 -0.1520
  638MOL0     C84095   3.834   0.501   1.593  0.1090 -0.9381  0.8315
  638MOL0     C84096   3.903   0.532   1.458  1.0866  0.1675  0.6715
  638MOL0     C84097   4.027   0.615   1.475 -0.3846  0.2862  1.0575
  638MOL0     C84098   3.984   0.760   1.510 -0.3761  0.7357 -0.7497
  638MOL0     C84099   4.082   0.860   1.452  0.6144  0.1104 -0.2246
  638MOL0     C84100   4.055   0.991   1.528  0.0624 -0.8171 -0.0529
  638MOL0     N84101   3.928   1.054   1.513  1.0283  0.3161  0.5965
  638MOL0     C84102   3.801   1.031   1.570  0.0668 -0.4119  0.6733
  638MOL0     C84103   3.709   1.095   1.498 -0.5333  0.5206 -0.3961
  638MOL0     C84104   3.566   1.084   1.520 -0.0195 -1.1114 -0.3329
  638MOL0     C84105   3.522   1.170   1.642  0.2525 -0.2009 -0.9347
  638MOL0     C84106   3.522   1.330   1.627 -0.3673  0.8274  0.1361
  638MOL0     C84107   3.382   1.373   1.570 -0.4893 -0.0686 -0.1056
  638MOL0     O84108   3.275   1.346   1.660 -0.4997  0.0168  0.1266
  638MOL0     C84109   3.157   1.397   1.631 -0.9963  0.9369  0.3372
  638MOL0     C84110   3.052   1.374   1.718 -0.0910 -0.0534 -0.7399
  638MOL0     C84111   2.928   1.429   1.691  0.3753  0.1393  0.3287
  638MOL0     C84112   2.904   1.513   1.584 -0.1646 -0.0717 -0.0959
  638MOL0     C84113   2.773   1.565   1.552  0.5572  0.5238 -0.0590
  638MOL0     O84114   2.759   1.623   1.430  0.2803  0.2933  0.4203
  638MOL0     C84115   2.632   1.667   1.390  0.3955 -0.0426  0.8115
  638MOL0     C84116   2.593   1.631   1.263  0.7973  0.7796  0.0487
  638MOL0     C84117   2.475   1.674   1.205  0.7664  0.3397 -0.3736
  638MOL0     C84118   2.407   1.776   1.270  0.1472  0.9084  0.7577
  638MOL0     O84119   2.318   1.852   1.204 -0.2665  0.2684  0.2052
  638MOL0     C84120   2.205   1.775   1.166 -0.8028  0.1217  0.5216
  638MOL0     C84121   2.082   1.858   1.188 -0.0525 -0.1933 -0.3229
  638MOL0     C84122   1.962   1.767   1.184  0.5597  0.6263 -0.1655
  638MOL0     C84123   1.824   1.840   1.194  0.1728 -0.5845 -0.2005
  638MOL0     C84124   1.701   1.748   1.168  0.1075 -0.0960  0.7698
  638MOL0     C84125   1.573   1.827   1.125 -0.0559 -0.3257  0.0586
  638MOL0     C84126   1.499   1.910   1.241 -0.2333 -1.3206  0.0152
  638MOL0     C84127   1.403   1.828   1.320  0.1637 -0.4547  0.4311
  638MOL0    Cl84128   1.247   1.823   1.239 -0.2193  0.1513 -0.1455
  638MOL0     C84129   2.455   1.823   1.386  0.1203 -0.0207 -1.1909
  638MOL0     C84130   2.561   1.765   1.450  0.8584 -0.2325 -0.5712
  638MOL0     O84131   2.682   1.541   1.636  0.7103 -0.0177  0.6810
  638MOL0     C84132   3.008   1.533   1.486  0.5803  0.4698  0.2859
  638MOL0     C84133   3.132   1.477   1.514 -1.1761 -0.0496 -0.0762
  638MOL0     N84134   3.778   1.169   1.408  0.6197 -0.0313 -0.0605
  638MOL0     N84135   3.906   1.147   1.424  0.1204 -0.6273  0.5516
  638MOL0     C84136   3.514   0.390   1.966 -0.5528  0.1254  0.4354
  638MOL0     C84137   3.467   0.392   2.096  0.0931 -0.7120 -0.3723
  638MOL0     C84138   3.498   0.309   2.585  1.0425  0.1730  0.5235
  638MOL0     C84139   3.549   0.325   2.716 -0.1641 -0.3971 -0.3108
  638MOL0     C84140   3.489   0.274   2.834  0.1360 -0.0253  0.0498
  638MOL0     C84141   3.367   0.207   2.820  0.7558  0.2866  0.4741
  638MOL0     O84142   3.296   0.178   2.932  0.1916  0.5588  0.9538
  638MOL0     C84143   3.153   0.170   2.932 -0.2096 -0.3792  0.0369
  638MOL0     C84144   3.097   0.306   2.912  0.5953  0.6397 -0.4888
  638MOL0     C84145   2.941   0.294   2.901  0.1094 -0.2542 -0.1124
  638MOL0     C84146   2.863   0.250   3.033 -0.2751 -0.5657  0.4847
  638MOL0     C84147   2.904   0.337   3.144  0.1219  0.5388  0.7828
  638MOL0     C84148   2.928   0.403   3.244 -0.0269 -0.1191 -0.0073
  638MOL0     C84149   3.327   0.170   2.697  0.1245  0.4133 -0.0213
  638MOL0     C84150   3.381   0.226   2.577 -0.2063  0.0723 -0.3840
  638MOL0     H84151   3.752   0.322   2.266  0.9718 -0.8143 -0.6789
  638MOL0     H84152   3.837   0.302   2.042  0.6649  3.0205  0.8063
  638MOL0     H84153   3.626   0.527   1.739 -0.6085 -1.4509  3.5359
  638MOL0     H84154   3.530   0.390   1.671 -0.0159  0.6067 -1.1580
  638MOL0     H84155   3.651   0.469   1.499 -0.5520  0.2950  0.8718
  638MOL0     H84156   3.720   0.317   1.549 -2.2171  0.1786 -1.6236
  638MOL0     H84157   3.908   0.450   1.655  2.7573  0.2407 -1.1699
  638MOL0     H84158   3.791   0.585   1.649  0.2934 -1.0006  1.0713
  638MOL0     H84159   3.932   0.439   1.409  0.8241  0.2760  0.3075
  638MOL0     H84160   3.831   0.590   1.400  1.2666 -1.2776 -1.0939
  638MOL0     H84161   4.074   0.623   1.377 -0.9144  0.3291  0.8045
  638MOL0     H84162   4.098   0.577   1.549  1.3558 -0.6987 -1.0018
  638MOL0     H84163   3.996   0.762   1.618  2.5075  0.4501 -0.9816
  638MOL0     H84164   3.881   0.781   1.482 -0.9666 -0.3725  0.4904
  638MOL0     H84165   4.186   0.827   1.458  2.2021  4.5037 -0.0244
  638MOL0     H84166   4.062   0.883   1.347 -1.5683  1.5609  0.4404
  638MOL0     H84167   4.125   1.066   1.490 -1.2948  1.4007  1.5450
  638MOL0     H84168   4.066   0.982   1.637 -0.2228 -2.6408 -0.1557
  638MOL0     H84169   3.780   0.954   1.643 -0.3854  0.3172  1.3215
  638MOL0     H84170   3.532   0.981   1.534 -0.5361 -0.8209  0.6621
  638MOL0     H84171   3.514   1.114   1.429  0.5110  0.5037 -0.1413
  638MOL0     H84172   3.581   1.142   1.729  0.4874 -1.1547 -1.3816
  638MOL0     H84173   3.416   1.144   1.652 -0.0027 -0.4255 -3.4098
  638MOL0     H84174   3.529   1.382   1.724 -1.8352  1.5472 -0.1043
  638MOL0     H84175   3.595   1.365   1.554  1.1553 -0.9404  0.7576
  638MOL0     H84176   3.370   1.336   1.468  0.8956 -0.5207 -0.1340
  638MOL0     H84177   3.395   1.480   1.550  1.8754 -0.4416 -0.8712
  638MOL0     H84178   3.063   1.307   1.803  0.9462 -1.2734 -1.8008
  638MOL0     H84179   2.843   1.397   1.751  1.4776 -4.3199 -0.1062
  638MOL0     H84180   2.649   1.565   1.198  3.2894  2.7129  0.0651
  638MOL0     H84181   2.436   1.640   1.110 -0.3720  0.4959  0.0195
  638MOL0     H84182   2.199   1.673   1.205  2.1513 -0.0355  0.7725
  638MOL0     H84183   2.216   1.757   1.059  0.5854 -0.9687  0.8248
  638MOL0     H84184   2.077   1.928   1.104  2.3360  1.7402  1.0283
  638MOL0     H84185   2.085   1.915   1.281 -0.4295  1.8312 -1.4854
  638MOL0     H84186   1.977   1.690   1.261  0.2775  0.1309 -0.5975
  638MOL0     H84187   1.964   1.701   1.097  0.1321 -0.5780  0.7059
  638MOL0     H84188   1.825   1.887   1.293  2.9474  0.5368 -0.6812
  638MOL0     H84189   1.821   1.919   1.119  3.2129 -0.4224 -0.2732
  638MOL0     H84190   1.674   1.687   1.255 -3.1256 -2.1016 -1.3808
  638MOL0     H84191   1.728   1.677   1.090 -0.6499 -0.0737  0.4728
  638MOL0     H84192   1.497   1.758   1.088 -0.5887 -0.3537  1.1609
  638MOL0     H84193   1.591   1.897   1.043  0.7623 -1.0246 -0.3771
  638MOL0     H84194   1.572   1.949   1.312 -2.8370  0.1201  2.0822
  638MOL0     H84195   1.443   1.995   1.202 -0.0765 -0.5233  1.4971
  638MOL0     H84196   1.384   1.870   1.419 -2.1747 -0.9981  0.2529
  638MOL0     H84197   1.443   1.728   1.340  2.9926 -0.0860 -2.4927
  638MOL0     H84198   2.419   1.906   1.445 -1.6644 -1.9125  0.5214
  638MOL0     H84199   2.610   1.811   1.535 -0.9842 -0.1051  0.4784
  638MOL0     H84200   2.993   1.586   1.393 -0.0294  0.8152  0.5704
  638MOL0     H84201   3.208   1.500   1.439  0.8410  1.4641  2.2626
  638MOL0     H84202   3.445   0.399   1.883 -0.6516 -0.8215  0.3985
  638MOL0     H84203   3.363   0.418   2.113  0.3180  2.0720 -2.4998
  638MOL0     H84204   3.640   0.380   2.736  0.0130 -0.5032 -0.8311
  638MOL0     H84205   3.518   0.303   2.934 -2.3171 -0.6645  1.0326
  638MOL0     H84206   3.118   0.125   3.025 -1.5634  2.7426  1.1663
  638MOL0     H84207   3.113   0.101   2.857 -2.9756  1.7296 -0.6075
  638MOL0     H84208   3.129   0.367   2.997 -0.6245 -0.7181  1.0094
  638MOL0     H84209   3.132   0.348   2.817  0.3780  0.8395 -0.4807
  638MOL0     H84210   2.910   0.230   2.819 -0.9011  0.6939 -0.4984
  638MOL0     H84211   2.893   0.389   2.875 -0.7415 -0.5110  0.4684
  638MOL0     H84212   2.757   0.258   3.010  0.2040  0.5569 -1.5478
  638MOL0     H84213   2.884   0.144   3.047  0.6552 -0.3683  0.6620
  638MOL0     H84214   2.964   0.459   3.328 -2.1442 -1.2390  1.7662
  638MOL0     H84215   3.245   0.100   2.683 -2.1056  2.5059  1.5545
  638MOL0     H84216   3.346   0.196   2.479 -2.7815 -1.1628  0.8184
  639MOL0     O84217   1.790   3.145   1.409  0.4657 -0.3668 -0.3030
  639MOL0     C84218   1.861   3.112   1.504  0.2569  0.5235  0.0380
  639MOL0     O84219   1.826   3.091   1.627 -0.0264  0.4145 -0.0082
  639MOL0     C84220   1.699   3.114   1.656 -0.3317 -0.4839  0.3800
  639MOL0     C84221   1.617   3.015   1.715 -0.0928  0.1600 -0.1207
  639MOL0     C84222   1.486   3.046   1.758 -0.7292  0.2786  0.0731
  639MOL0     C84223   1.425   3.172   1.743  0.2668  0.3834  0.1621
  639MOL0     O84224   1.296   3.196   1.789 -0.0717 -0.3052  0.0020
  639MOL0     C84225   1.211   3.300   1.736 -0.3436 -0.4143 -0.3402
  639MOL0     C84226   1.062   3.265   1.756 -0.7346  0.5390 -0.3282
  639MOL0     C84227   0.976   3.376   1.706  0.1080  0.6585  0.2532
  639MOL0     C84228   0.830   3.328   1.731  0.6653  0.0632  0.6611
  639MOL0     C84229   0.742   3.443   1.669  0.2926  0.1046 -0.0434
  639MOL0     C84230   0.603   3.440   1.732  1.1177 -0.3324 -0.1616
  639MOL0     C84231   0.486   3.531   1.690 -0.9322  0.2021 -0.1964
  639MOL0     C84232   0.357   3.484   1.762 -0.0944 -1.0690 -0.3373
  639MOL0     N84233   0.320   3.542   1.900 -0.3398  0.4134 -0.2458
  639MOL0     C84234   0.284   3.671   1.908  0.4290  0.2420 -0.8355
  639MOL0     C84235   0.223   3.683   2.021  0.5919  0.1915 -0.4636
  639MOL0     C84236   0.138   3.802   2.065  0.2068  0.0059 -0.2910
  639MOL0     C84237  -0.008   3.777   2.075 -0.7897  0.2149 -0.8460
  639MOL0     C84238  -0.078   3.893   2.144  0.6008  0.1832 -0.1479
  639MOL0     C84239  -0.224   3.907   2.092  0.3642 -0.2932  1.0347
  639MOL0     O84240  -0.276   4.025   2.154 -0.4762 -0.6897 -0.2242
  639MOL0     C84241  -0.407   4.031   2.198  0.5838  0.0997 -0.3047
  639MOL0     C84242  -0.428   4.133   2.289 -0.5973  0.4198 -0.4139
  639MOL0     C84243  -0.558   4.155   2.333 -0.2190 -0.4842 -0.3268
  639MOL0     C84244  -0.666   4.084   2.277  0.9291  0.2526 -0.2191
  639MOL0     C84245  -0.807   4.114   2.331 -0.3789  0.4751 -0.2634
  639MOL0     O84246  -0.910   4.037   2.276  0.0554  0.4514  0.3867
  639MOL0     C84247  -1.038   4.071   2.287 -0.3045  0.2495  0.8599
  639MOL0     C84248  -1.102   4.193   2.322 -0.1390 -0.9277 -0.1899
  639MOL0     C84249  -1.243   4.196   2.331 -0.2177 -0.3264 -0.4751
  639MOL0     C84250  -1.319   4.085   2.321  0.2434 -0.3704 -0.9910
  639MOL0     O84251  -1.444   4.102   2.364  0.6113  0.4409 -0.3123
  639MOL0     C84252  -1.545   4.029   2.290 -0.6950 -0.1294 -0.5747
  639MOL0     C84253  -1.678   4.101   2.313  0.3097  0.6661  0.5120
  639MOL0     C84254  -1.777   4.034   2.219  0.0584  0.1349 -0.2026
  639MOL0     C84255  -1.918   4.033   2.279  1.0611  0.1474 -0.4865
  639MOL0     C84256  -2.016   3.956   2.181  0.5733 -0.7962 -0.1693
  639MOL0     C84257  -2.153   3.932   2.250 -0.3285 -0.4062  0.3683
  639MOL0     C84258  -2.250   3.857   2.166 -0.0161 -0.2334 -0.0406
  639MOL0     C84259  -2.375   3.798   2.238  0.1644  0.8394 -0.0995
  639MOL0    Cl84260  -2.449   3.932   2.323 -0.6137  0.2756 -0.0543
  639MOL0     C84261  -1.261   3.969   2.281  0.4991 -0.5277  0.3960
  639MOL0     C84262  -1.123   3.964   2.252  0.2005 -0.3715  0.2660
  639MOL0     O84263  -0.817   4.181   2.430  0.0603 -0.2084  0.2476
  639MOL0     C84264  -0.644   3.982   2.181  0.4112 -1.1575  0.3959
  639MOL0     C84265  -0.514   3.962   2.138 -0.5664 -1.1263  0.9160
  639MOL0     N84266   0.226   3.563   2.087 -0.0785  0.1898 -0.8110
  639MOL0     N84267   0.286   3.479   2.014 -0.8353  0.2098  0.5172
  639MOL0     C84268   1.513   3.268   1.684 -0.7814 -0.7802 -0.7097
  639MOL0     C84269   1.648   3.244   1.641  0.3544 -0.1691 -0.0848
  639MOL0     C84270   2.001   3.078   1.466 -0.0003 -0.3231 -0.0849
  639MOL0     C84271   2.094   3.044   1.566  0.3470  0.4386 -0.1295
  639MOL0     C84272   2.225   3.030   1.519  0.1927  0.1119  0.0922
  639MOL0     C84273   2.270   3.045   1.387  0.3607 -0.2653 -0.3402
  639MOL0     O84274   2.405   3.036   1.371 -0.6344 -0.2893 -0.3135
  639MOL0     C84275   2.461   3.032   1.238  0.1033 -0.5345  0.2389
  639MOL0     C84276   2.612   3.018   1.257 -0.4144  0.0355  1.1595
  639MOL0     C84277   2.645   2.875   1.286  0.0276  0.2403  0.3313
  639MOL0     C84278   2.789   2.845   1.325  0.4523  1.1268 -0.2150
  639MOL0     C84279   2.898   2.926   1.268 -0.4240  0.7075  0.8328
  639MOL0     C84280   2.985   3.001   1.218  0.2642  0.6671 -0.8456
  639MOL0     C84281   2.174   3.072   1.295 -0.2975  0.1167  1.8624
  639MOL0     C84282   2.042   3.092   1.330  0.2109  0.0658 -0.1774
  639MOL0     H84283   1.654   2.918   1.747 -2.2237 -0.2014  1.5128
  639MOL0     H84284   1.441   2.961   1.809  1.2015 -0.8284  0.0061
  639MOL0     H84285   1.230   3.315   1.630 -0.9418 -2.0296 -0.7011
  639MOL0     H84286   1.231   3.392   1.793  1.5080 -1.1752  0.3036
  639MOL0     H84287   1.036   3.257   1.862 -1.4585  0.0559 -0.5369
  639MOL0     H84288   1.035   3.169   1.713  2.0217 -1.0828  1.2520
  639MOL0     H84289   0.996   3.391   1.599  0.6454 -0.4241  0.1940
  639MOL0     H84290   1.002   3.472   1.752 -1.2750  0.5897  1.2372
  639MOL0     H84291   0.808   3.232   1.684  2.8171 -0.2006  0.0831
  639MOL0     H84292   0.829   3.337   1.840  4.7861 -0.2880  0.8874
  639MOL0     H84293   0.736   3.441   1.560  0.2999  1.7652 -0.0944
  639MOL0     H84294   0.785   3.540   1.694 -0.8134  0.8744 -1.0254
  639MOL0     H84295   0.615   3.462   1.839 -1.8044 -1.9405  0.6054
  639MOL0     H84296   0.563   3.339   1.723 -1.2524  0.5424 -0.3539
  639MOL0     H84297   0.515   3.637   1.697 -1.1337  0.2105  0.6702
  639MOL0     H84298   0.470   3.519   1.583  0.5425 -0.0223 -0.4135
  639MOL0     H84299   0.330   3.378   1.756  1.8039 -2.1255  4.7636
  639MOL0     H84300   0.285   3.539   1.700 -1.3104 -0.0225  1.8815
  639MOL0     H84301   0.292   3.748   1.833 -2.7168  0.3595 -1.1976
  639MOL0     H84302   0.146   3.874   1.982 -0.5530  0.0848 -0.2981
  639MOL0     H84303   0.168   3.840   2.163 -2.4404 -1.7399  1.3169
  639MOL0     H84304  -0.011   3.685   2.134  2.5424  1.0397  0.8782
  639MOL0     H84305  -0.042   3.750   1.975 -0.0471 -2.6903 -0.3970
  639MOL0     H84306  -0.090   3.871   2.251 -2.8025 -0.7277 -0.5971
  639MOL0     H84307  -0.023   3.985   2.125 -0.0665  0.3388 -1.4293
  639MOL0     H84308  -0.275   3.818   2.131 -0.6536  0.4566  1.4515
  639MOL0     H84309  -0.236   3.912   1.984 -0.9401 -0.0371  1.1833
  639MOL0     H84310  -0.350   4.181   2.347 -0.3489 -1.3327  0.8017
  639MOL0     H84311  -0.572   4.221   2.418  1.5009 -1.3219  0.6681
  639MOL0     H84312  -1.053   4.289   2.335 -2.3742  0.7692 -3.2093
  639MOL0     H84313  -1.286   4.293   2.351 -0.2157 -0.3842 -0.1855
  639MOL0     H84314  -1.554   3.924   2.320  0.6249  0.0828  0.6733
  639MOL0     H84315  -1.521   4.037   2.184 -0.6803  1.8583 -0.4641
  639MOL0     H84316  -1.665   4.207   2.288 -2.5547  1.0128  0.1670
  639MOL0     H84317  -1.705   4.108   2.419 -0.0175 -1.2404  0.5818
  639MOL0     H84318  -1.755   3.931   2.188  1.3112  0.3488 -0.0716
  639MOL0     H84319  -1.778   4.100   2.132 -0.5360 -0.3595 -0.5857
  639MOL0     H84320  -1.912   3.970   2.368  0.4346  3.2012  1.8801
  639MOL0     H84321  -1.962   4.129   2.305  0.3948 -0.8919  2.6562
  639MOL0     H84322  -1.984   3.858   2.145  0.6209  0.4341 -3.8549
  639MOL0     H84323  -2.039   4.012   2.090  0.5634 -2.3720 -1.1571
  639MOL0     H84324  -2.190   4.031   2.277 -0.2110 -0.0036 -0.8835
  639MOL0     H84325  -2.136   3.883   2.347  2.4353  1.1497  0.7518
  639MOL0     H84326  -2.302   3.923   2.095  0.5267  0.3483  0.0950
  639MOL0     H84327  -2.196   3.780   2.110  3.8658  1.5763  0.9146
  639MOL0     H84328  -2.348   3.714   2.303  1.7489  1.3298 -0.0706
  639MOL0     H84329  -2.449   3.757   2.169 -1.0897  0.8861  1.1896
  639MOL0     H84330  -1.322   3.883   2.255 -1.0987  0.9611 -1.0665
  639MOL0     H84331  -1.072   3.877   2.212  3.1936  0.8209  1.1828
  639MOL0     H84332  -0.732   3.929   2.148 -0.0269 -0.8515  1.0577
  639MOL0     H84333  -0.497   3.890   2.059 -0.9955  0.9784 -1.2313
  639MOL0     H84334   1.479   3.371   1.675  1.6112  0.2875  1.3798
  639MOL0     H84335   1.710   3.324   1.601  0.2420  0.0724  0.2199
  639MOL0     H84336   2.066   3.042   1.671 -0.3008 -0.3730 -0.3084
  639MOL0     H84337   2.296   3.004   1.597 -2.1236 -0.9091  1.9790
  639MOL0     H84338   2.457   3.133   1.196  1.9350  0.5884  2.5082
  639MOL0     H84339   2.420   2.959   1.168 -1.0920  1.1552 -0.8694
  639MOL0     H84340   2.648   3.049   1.159 -5.0589  1.0578 -0.4926
  639MOL0     H84341   2.644   3.093   1.331 -0.3605  0.8554  0.3197
  639MOL0     H84342   2.625   2.809   1.201  1.0739  0.8744 -0.4366
  639MOL0     H84343   2.573   2.857   1.367 -1.1243  1.1349 -0.4452
  639MOL0     H84344   2.797   2.866   1.432 -1.8616  2.2735 -0.1873
  639MOL0     H84345   2.810   2.740   1.303  0.7343  1.4080 -1.3559
  639MOL0     H84346   3.065   3.047   1.164  0.8691  0.5349 -0.0826
  639MOL0     H84347   2.217   3.079   1.195  0.6541 -1.3405  2.1314
  639MOL0     H84348   1.971   3.130   1.257 -1.1520 -0.9262  0.5966
  640MOL0     O84349   5.431   7.568   2.344  1.3375 -0.8255  0.2423
  640MOL0     C84350   5.351   7.595   2.258 -0.8474  0.8597  0.5561
  640MOL0     O84351   5.348   7.543   2.134 -0.4577  0.2096 -0.1865
  640MOL0     C84352   5.446   7.477   2.066 -0.5252 -1.0842 -0.9686
  640MOL0     C84353   5.456   7.499   1.933 -0.0414 -0.0470  0.4110
  640MOL0     C84354   5.548   7.432   1.855  0.1841  1.1471  0.1536
  640MOL0     C84355   5.629   7.331   1.909  0.0236 -0.2500 -1.1478
  640MOL0     O84356   5.717   7.261   1.836  0.3143 -0.5589  0.3356
  640MOL0     C84357   5.753   7.295   1.701  0.0134 -0.7720  0.4957
  640MOL0     C84358   5.892   7.237   1.667  0.6743 -0.3773 -0.3390
  640MOL0     C84359   5.872   7.086   1.658 -0.4088 -0.4031 -0.0027
  640MOL0     C84360   6.001   7.019   1.613  0.0858 -0.2779 -0.1630
  640MOL0     C84361   6.001   6.862   1.607 -0.1871 -0.1830 -0.8612
  640MOL0     C84362   5.970   6.793   1.744  0.2750 -0.0597 -0.0583
  640MOL0     C84363   5.977   6.644   1.717 -1.3164 -0.1069  0.1154
  640MOL0     C84364   5.949   6.562   1.844  0.1508  0.7227  0.2883
  640MOL0     N84365   5.803   6.551   1.871 -0.2931  0.2382  0.8209
  640MOL0     C84366   5.725   6.435   1.837 -0.3543 -0.2736  0.3123
  640MOL0     C84367   5.606   6.463   1.888 -0.0779  1.0684 -0.6122
  640MOL0     C84368   5.488   6.365   1.897 -0.2444  0.0046 -0.4436
  640MOL0     C84369   5.451   6.325   2.037  0.4204  0.5987 -0.3304
  640MOL0     C84370   5.348   6.209   2.050 -0.2145  0.0979  0.6952
  640MOL0     C84371   5.218   6.211   1.964 -0.7347  0.2478 -0.2970
  640MOL0     O84372   5.152   6.328   1.999 -0.3291  0.1397  0.4422
  640MOL0     C84373   5.022   6.340   1.950 -0.0790 -0.2570  0.4612
  640MOL0     C84374   4.979   6.272   1.836  0.0680 -0.0171  0.6721
  640MOL0     C84375   4.844   6.280   1.808  0.1754 -0.1096 -0.5779
  640MOL0     C84376   4.748   6.354   1.886 -0.1398  0.1143  0.1033
  640MOL0     C84377   4.603   6.345   1.849 -0.3861 -0.4165  0.2849
  640MOL0     O84378   4.525   6.412   1.931  0.0103  0.2343 -0.6141
  640MOL0     C84379   4.393   6.377   1.937 -0.6095 -0.2536  0.4137
  640MOL0     C84380   4.306   6.485   1.928  0.3056  0.0966 -0.6738
  640MOL0     C84381   4.171   6.458   1.930  0.9831 -0.1119 -0.4718
  640MOL0     C84382   4.108   6.329   1.941 -0.3621  0.0174 -0.7733
  640MOL0     O84383   3.970   6.312   1.946 -0.7085  0.5483 -0.2791
  640MOL0     C84384   3.934   6.182   1.987 -0.7770 -0.0738  0.1443
  640MOL0     C84385   3.779   6.174   1.989 -0.1217 -0.2551 -0.0904
  640MOL0     C84386   3.754   6.033   2.034  0.4919  0.1510 -0.2346
  640MOL0     C84387   3.616   6.028   2.108 -0.4075 -0.4787  0.8766
  640MOL0     C84388   3.580   5.881   2.117 -0.0073 -0.0238  0.5675
  640MOL0     C84389   3.442   5.863   2.172 -0.0506 -0.2410 -0.3504
  640MOL0     C84390   3.412   5.724   2.238 -1.5238 -0.0783  0.1891
  640MOL0     C84391   3.271   5.726   2.289  0.6646  0.5914  0.5752
  640MOL0    Cl84392   3.137   5.739   2.159  0.6029 -0.3959  0.1180
  640MOL0     C84393   4.214   6.226   1.949  0.2090 -0.3381  0.5799
  640MOL0     C84394   4.353   6.247   1.941 -0.4514  0.3773  0.3422
  640MOL0     O84395   4.566   6.279   1.752 -0.0412  1.1416 -0.2607
  640MOL0     C84396   4.803   6.434   1.993  0.4297  0.3236 -1.1841
  640MOL0     C84397   4.939   6.420   2.025  0.9186  0.0549 -0.1509
  640MOL0     N84398   5.609   6.591   1.935  0.6290 -0.2425 -0.4739
  640MOL0     N84399   5.724   6.642   1.939  0.0277  0.0189 -0.5200
  640MOL0     C84400   5.622   7.309   2.045  0.4033 -0.2644 -0.6375
  640MOL0     C84401   5.529   7.377   2.121 -0.2143  0.0191  0.4020
  640MOL0     C84402   5.242   7.692   2.284  0.1930  0.2669 -0.2456
  640MOL0     C84403   5.230   7.762   2.403 -0.9014  0.7152  0.3992
  640MOL0     C84404   5.119   7.852   2.428 -0.0090 -0.6046  0.4815
  640MOL0     C84405   5.037   7.887   2.322  0.1500  0.9709 -0.5691
  640MOL0     O84406   4.937   7.976   2.338 -0.6523 -0.1511 -0.2146
  640MOL0     C84407   4.962   8.104   2.278 -0.5154  0.0586  0.4760
  640MOL0     C84408   5.011   8.212   2.370  0.2290  0.2749  0.2678
  640MOL0     C84409   4.934   8.210   2.501 -1.0220 -0.3479  0.4656
  640MOL0     C84410   5.005   8.297   2.604  0.3848 -0.1867 -0.6160
  640MOL0     C84411   5.141   8.253   2.646 -0.9918 -0.3116  0.1332
  640MOL0     C84412   5.249   8.252   2.693 -0.3728  0.4318 -0.2911
  640MOL0     C84413   5.039   7.808   2.207  0.1962  0.7141 -0.0859
  640MOL0     C84414   5.136   7.716   2.187  0.3492  0.7522 -0.0947
  640MOL0     H84415   5.398   7.573   1.881  1.3789  1.1078  0.4019
  640MOL0     H84416   5.541   7.454   1.749 -1.8225  1.0780  0.2280
  640MOL0     H84417   5.762   7.402   1.679  0.7206 -0.9901 -0.3358
  640MOL0     H84418   5.676   7.251   1.637 -0.1801  1.0691 -0.6255
  640MOL0     H84419   5.960   7.258   1.749 -0.2180  0.9374  0.0981
  640MOL0     H84420   5.943   7.273   1.577  0.2506  1.8959  0.2694
  640MOL0     H84421   5.792   7.055   1.590  0.5144 -3.1087  0.0495
  640MOL0     H84422   5.856   7.047   1.759  3.7401 -1.0917  0.5799
  640MOL0     H84423   6.026   7.065   1.518  0.4408  1.5760  0.7892
  640MOL0     H84424   6.084   7.040   1.681  1.7344  0.7584 -2.3895
  640MOL0     H84425   6.100   6.829   1.574  0.9552 -2.5037  3.8587
  640MOL0     H84426   5.923   6.826   1.540  0.1556  2.1421 -2.6160
  640MOL0     H84427   5.872   6.818   1.785 -0.7840 -4.3026  0.4744
  640MOL0     H84428   6.050   6.832   1.807 -0.2657 -0.4415  0.8846
  640MOL0     H84429   5.898   6.614   1.648 -0.0384 -1.8671 -0.6422
  640MOL0     H84430   6.075   6.622   1.674 -1.7962  0.2254 -1.2128
  640MOL0     H84431   5.990   6.610   1.934  0.5773 -1.6151  1.4248
  640MOL0     H84432   5.997   6.464   1.836 -1.8719 -0.3242  0.2798
  640MOL0     H84433   5.757   6.343   1.790  0.2864  0.3140 -0.4311
  640MOL0     H84434   5.519   6.273   1.846  2.0831  1.5606 -2.0138
  640MOL0     H84435   5.406   6.409   1.839 -2.0932 -0.2925  1.7763
  640MOL0     H84436   5.396   6.412   2.076  1.6048  1.8981 -1.4662
  640MOL0     H84437   5.550   6.300   2.076 -0.1798  1.5466  2.0064
  640MOL0     H84438   5.399   6.116   2.022 -0.6143 -0.5584  2.0406
  640MOL0     H84439   5.319   6.182   2.152  0.2154  0.4489  0.9150
  640MOL0     H84440   5.156   6.123   1.982  0.7972 -0.4911  1.8156
  640MOL0     H84441   5.247   6.214   1.859  0.8226 -3.9344 -0.2023
  640MOL0     H84442   5.045   6.226   1.763 -1.4369 -1.7810  0.3804
  640MOL0     H84443   4.823   6.235   1.712  1.2862 -2.1893  0.0850
  640MOL0     H84444   4.338   6.588   1.916  1.4293 -0.2694 -0.8744
  640MOL0     H84445   4.101   6.541   1.927  0.8568 -0.0459  2.2726
  640MOL0     H84446   3.976   6.177   2.088  0.2831  0.5241 -0.2498
  640MOL0     H84447   3.979   6.107   1.922 -1.1289  0.8302 -1.1901
  640MOL0     H84448   3.742   6.190   1.887  0.4087 -1.1677 -0.4288
  640MOL0     H84449   3.748   6.247   2.065  1.0383 -1.0916  1.2451
  640MOL0     H84450   3.825   6.007   2.112  1.3722  2.9992  0.0229
  640MOL0     H84451   3.750   5.962   1.951  1.9792  2.2785 -2.2655
  640MOL0     H84452   3.637   6.061   2.211  3.1598  1.1411 -0.2166
  640MOL0     H84453   3.537   6.087   2.061 -1.1878 -1.1675  1.3087
  640MOL0     H84454   3.652   5.827   2.180  0.8891 -0.2805 -0.6386
  640MOL0     H84455   3.580   5.831   2.020  0.0358  0.4449  0.3238
  640MOL0     H84456   3.367   5.902   2.103 -1.3993 -1.8185  0.1370
  640MOL0     H84457   3.437   5.939   2.250 -0.3465 -0.8358  0.2211
  640MOL0     H84458   3.437   5.650   2.161  1.2842  2.4205 -1.4891
  640MOL0     H84459   3.483   5.705   2.319 -0.8888  0.6575 -0.1750
  640MOL0     H84460   3.264   5.817   2.349  2.3263  0.5505  0.8740
  640MOL0     H84461   3.256   5.641   2.356 -0.5746  1.0544  0.8950
  640MOL0     H84462   4.192   6.119   1.955 -3.4818  0.0270 -2.2186
  640MOL0     H84463   4.429   6.169   1.935 -0.1629  0.6325  0.6235
  640MOL0     H84464   4.742   6.502   2.051  0.6172 -1.3463  1.0829
  640MOL0     H84465   4.984   6.463   2.114  0.0196 -1.1064  0.8938
  640MOL0     H84466   5.682   7.243   2.108 -2.8213 -1.4653  1.4089
  640MOL0     H84467   5.517   7.364   2.228  0.4137 -0.6430  0.3979
  640MOL0     H84468   5.307   7.746   2.477 -1.8240  0.4134  1.3228
  640MOL0     H84469   5.104   7.895   2.527  2.8438  3.9099 -0.7330
  640MOL0     H84470   4.872   8.139   2.228 -0.5153 -0.9801 -0.2939
  640MOL0     H84471   5.038   8.095   2.199 -1.6398  2.2447 -0.9483
  640MOL0     H84472   5.115   8.186   2.396 -0.7879 -4.6769  0.5171
  640MOL0     H84473   5.013   8.310   2.322  3.1467  1.3288  2.2585
  640MOL0     H84474   4.949   8.110   2.542  2.5528  0.3781  1.3407
  640MOL0     H84475   4.829   8.241   2.495 -0.9514 -0.3363 -1.2653
  640MOL0     H84476   5.003   8.400   2.569  1.3523  0.0541 -0.0140
  640MOL0     H84477   4.951   8.305   2.699  3.7934  0.9953  1.4080
  640MOL0     H84478   5.342   8.248   2.746 -0.1882 -1.7783 -0.6907
  640MOL0     H84479   4.958   7.820   2.136  1.2195  2.0528 -1.0704
  640MOL0     H84480   5.137   7.659   2.094 -1.8869  0.0431  0.2645
  641MOL0     O84481   4.460  10.052   8.308  0.2883  0.3667 -0.2840
  641MOL0     C84482   4.565  10.088   8.248  1.0035  0.2528 -0.3965
  641MOL0     O84483   4.568  10.148   8.125  0.5815 -0.2207  0.4191
  641MOL0     C84484   4.468  10.233   8.079 -0.2924  1.0718  0.9617
  641MOL0     C84485   4.392  10.324   8.158  0.2333 -0.2729 -0.0057
  641MOL0     C84486   4.299  10.413   8.101  0.3658  0.5504  0.2496
  641MOL0     C84487   4.265  10.413   7.962  0.5428  0.3588 -0.2935
  641MOL0     O84488   4.168  10.477   7.888 -0.5589 -0.0457  0.0386
  641MOL0     C84489   4.099  10.584   7.960 -0.6191  0.1162  0.2230
  641MOL0     C84490   3.993  10.645   7.870 -0.4202 -0.2472 -0.2730
  641MOL0     C84491   3.910  10.742   7.951 -0.6319 -0.7296  0.1334
  641MOL0     C84492   3.806  10.800   7.857  0.3082 -0.0443 -0.0741
  641MOL0     C84493   3.694  10.878   7.916  0.4553  0.2618  0.0915
  641MOL0     C84494   3.592  10.774   7.976  0.6304  0.6590 -0.5634
  641MOL0     C84495   3.451  10.829   8.023  0.3727 -0.5514 -0.1612
  641MOL0     C84496   3.364  10.893   7.915  1.4113  1.0491  0.3707
  641MOL0     N84497   3.228  10.847   7.915  0.2849  0.0230  0.0211
  641MOL0     C84498   3.180  10.750   7.829  0.3992 -0.3072 -0.1062
  641MOL0     C84499   3.046  10.732   7.862 -0.0354 -0.3741  0.2502
  641MOL0     C84500   2.940  10.635   7.812  0.5725 -0.3641  0.6599
  641MOL0     C84501   2.905  10.657   7.661 -0.3876  0.0756  1.0130
  641MOL0     C84502   2.814  10.779   7.645  0.8819 -0.3410 -0.5553
  641MOL0     C84503   2.803  10.827   7.498  0.8385  0.4431  0.6169
  641MOL0     O84504   2.743  10.720   7.417  0.9164  0.1679  0.0921
  641MOL0     C84505   2.602  10.715   7.418  0.0492  0.2003  0.9329
  641MOL0     C84506   2.514  10.801   7.492  0.2801 -0.2899 -0.3610
  641MOL0     C84507   2.370  10.774   7.488 -0.5517  0.3263 -0.1320
  641MOL0     C84508   2.319  10.656   7.416 -0.9238  0.2473 -0.6130
  641MOL0     C84509   2.183  10.600   7.439  0.9287  0.3046  0.3672
  641MOL0     O84510   2.147  10.474   7.387  0.0289  0.4298  0.4443
  641MOL0     C84511   2.031  10.425   7.436  1.4325 -0.3108  0.6039
  641MOL0     C84512   1.927  10.394   7.346 -0.6664  0.1221 -0.1540
  641MOL0     C84513   1.804  10.333   7.381  0.5104  0.5577  0.4564
  641MOL0     C84514   1.785  10.317   7.517  0.7072  0.3438 -0.2558
  641MOL0     O84515   1.665  10.255   7.551 -0.1032 -0.3153  0.4971
  641MOL0     C84516   1.604  10.142   7.487 -0.2830  0.1174  0.3375
  641MOL0     C84517   1.456  10.139   7.542 -0.4881 -0.1341  0.1681
  641MOL0     C84518   1.369  10.031   7.478  0.6035 -0.9470 -1.1022
  641MOL0     C84519   1.218  10.077   7.486 -0.9660  0.2545  0.0427
  641MOL0     C84520   1.129   9.969   7.429  1.0259  0.2019 -0.8890
  641MOL0     C84521   0.982  10.023   7.442 -0.3739 -1.3461  0.6530
  641MOL0     C84522   0.874   9.925   7.403 -0.2303  0.1179 -0.7481
  641MOL0     C84523   0.855   9.815   7.512 -0.5567 -0.1013 -0.4454
  641MOL0    Cl84524   0.714   9.719   7.453  0.2550  0.1904 -0.1931
  641MOL0     C84525   1.884  10.344   7.610  0.4828  0.7055 -0.3958
  641MOL0     C84526   2.011  10.395   7.566  0.2885 -0.3845 -0.1981
  641MOL0     O84527   2.105  10.674   7.496 -0.1867 -0.6562  0.8450
  641MOL0     C84528   2.415  10.579   7.340 -0.0818  0.4590 -0.3653
  641MOL0     C84529   2.550  10.620   7.325  0.3314  0.1705 -0.4639
  641MOL0     N84530   3.015  10.827   7.958  0.2147  0.0967 -0.2954
  641MOL0     N84531   3.115  10.897   7.982 -1.0071 -1.1239 -0.1757
  641MOL0     C84532   4.347  10.328   7.885  0.0407 -0.5791 -0.1729
  641MOL0     C84533   4.441  10.249   7.939  0.3140  0.4796  0.0318
  641MOL0     C84534   4.695  10.052   8.319  0.2215 -0.2127  0.5189
  641MOL0     C84535   4.787  10.150   8.356  0.4483  0.5639  0.4156
  641MOL0     C84536   4.898  10.121   8.429  0.4519 -0.1212  0.2459
  641MOL0     C84537   4.928   9.986   8.468  0.0862  0.6636 -0.0601
  641MOL0     O84538   5.041   9.946   8.542 -0.0233  0.4028  0.1975
  641MOL0     C84539   5.112  10.044   8.615 -0.7083 -0.2773 -0.6936
  641MOL0     C84540   5.197   9.959   8.721  0.4880 -0.3707  0.4875
  641MOL0     C84541   5.306   9.872   8.655 -0.2157 -0.3238 -0.3646
  641MOL0     C84542   5.354   9.766   8.745  0.5868  0.7222 -0.1006
  641MOL0     C84543   5.420   9.799   8.866  0.3567 -0.5139  0.2832
  641MOL0     C84544   5.475   9.827   8.973  0.2333  0.5697  0.0645
  641MOL0     C84545   4.843   9.883   8.418 -0.9914 -0.7052 -0.3905
  641MOL0     C84546   4.725   9.919   8.351 -0.9271  0.6600  0.4491
  641MOL0     H84547   4.403  10.314   8.265  2.1077 -2.0953 -0.3008
  641MOL0     H84548   4.231  10.454   8.176 -1.1548 -3.0887  1.0859
  641MOL0     H84549   4.165  10.668   7.982 -2.2020  1.0595  1.5512
  641MOL0     H84550   4.056  10.543   8.052 -0.3204 -2.2656 -0.6195
  641MOL0     H84551   3.933  10.571   7.817 -0.5117 -0.0459 -0.4554
  641MOL0     H84552   4.052  10.706   7.802  2.4371  0.7086  2.7972
  641MOL0     H84553   3.979  10.823   7.978  0.2038 -0.2431 -3.0427
  641MOL0     H84554   3.856  10.691   8.031 -0.2579  0.0902  0.9144
  641MOL0     H84555   3.856  10.870   7.789 -0.8826  1.4370  0.5366
  641MOL0     H84556   3.772  10.712   7.802 -1.5416 -0.5339  1.7584
  641MOL0     H84557   3.656  10.945   7.838  2.2322  1.4021  0.1449
  641MOL0     H84558   3.740  10.946   7.989  1.6600 -1.2294  0.7886
  641MOL0     H84559   3.636  10.718   8.059 -2.7949  0.1161  1.0683
  641MOL0     H84560   3.565  10.689   7.913 -2.2693  2.5256 -2.0909
  641MOL0     H84561   3.390  10.752   8.071  0.5620 -1.7849 -1.8038
  641MOL0     H84562   3.475  10.904   8.099  3.1666 -0.7135 -0.7638
  641MOL0     H84563   3.393  10.870   7.812 -3.2038 -1.7526 -0.6157
  641MOL0     H84564   3.349  11.000   7.932 -2.5506  1.3271 -3.1549
  641MOL0     H84565   3.237  10.683   7.766 -0.1607  0.5934 -1.6175
  641MOL0     H84566   2.849  10.635   7.871  1.1366  1.1527  1.5843
  641MOL0     H84567   2.991  10.537   7.810  2.4815  0.5806 -0.1885
  641MOL0     H84568   2.859  10.563   7.630 -3.5759  1.6471  0.4949
  641MOL0     H84569   2.995  10.678   7.602  1.1456  0.6005  3.3957
  641MOL0     H84570   2.716  10.743   7.678  1.9132 -3.7105 -0.7967
  641MOL0     H84571   2.834  10.861   7.715  0.2484 -0.2773 -0.4442
  641MOL0     H84572   2.903  10.851   7.461  1.2630 -2.2051 -0.1604
  641MOL0     H84573   2.743  10.919   7.499  1.9971  1.2337  2.1551
  641MOL0     H84574   2.550  10.878   7.559 -2.9656  0.8415  0.2665
  641MOL0     H84575   2.303  10.836   7.547 -0.1466  1.6208 -0.9810
  641MOL0     H84576   1.956  10.404   7.242  1.3344  1.4868  0.4527
  641MOL0     H84577   1.726  10.313   7.309  0.0583  0.9488  0.8362
  641MOL0     H84578   1.653  10.046   7.501  1.0906  0.3977 -2.0126
  641MOL0     H84579   1.588  10.158   7.380 -0.2678  2.0715  0.5786
  641MOL0     H84580   1.407  10.234   7.521  0.6260  0.8654  1.8404
  641MOL0     H84581   1.440  10.127   7.650 -1.8181 -1.9905 -0.1746
  641MOL0     H84582   1.389   9.936   7.528 -0.6706 -0.6706  0.0004
  641MOL0     H84583   1.394  10.026   7.371  3.4614 -2.4396 -0.4674
  641MOL0     H84584   1.192  10.077   7.593  1.7134  1.2404  0.7702
  641MOL0     H84585   1.196  10.175   7.444 -0.3846  0.8742  1.1252
  641MOL0     H84586   1.125   9.878   7.490  0.2315  0.5558 -0.3873
  641MOL0     H84587   1.157   9.936   7.329  0.3148  0.1538 -1.0743
  641MOL0     H84588   0.962  10.117   7.391 -4.5268 -1.1629  2.2522
  641MOL0     H84589   0.968  10.067   7.542 -1.2299 -0.0043 -0.0330
  641MOL0     H84590   0.786   9.986   7.381 -0.1498  0.5891  0.1652
  641MOL0     H84591   0.889   9.881   7.304 -0.7035  3.4050 -2.4206
  641MOL0     H84592   0.842   9.854   7.613 -1.9071 -2.3098  0.2991
  641MOL0     H84593   0.928   9.734   7.505 -0.7584 -0.2789 -0.5126
  641MOL0     H84594   1.863  10.319   7.713  0.0934  0.2622 -0.5751
  641MOL0     H84595   2.076  10.424   7.647  0.4732 -0.0549 -0.4622
  641MOL0     H84596   2.388  10.488   7.288 -2.7400  1.4495 -0.8976
  641MOL0     H84597   2.628  10.571   7.267 -0.0491 -1.0857  0.0638
  641MOL0     H84598   4.338  10.340   7.778  2.3828  1.9579 -0.1939
  641MOL0     H84599   4.496  10.187   7.868 -1.1065 -1.5246  0.5765
  641MOL0     H84600   4.766  10.248   8.314 -0.2051 -0.0704 -0.7820
  641MOL0     H84601   4.972  10.195   8.458  0.7312 -0.9560  1.7866
  641MOL0     H84602   5.059  10.116   8.678  2.0795  0.1457  1.3579
  641MOL0     H84603   5.174  10.106   8.550 -1.6073  1.6326  0.1842
  641MOL0     H84604   5.242  10.024   8.796  2.1621 -0.0206 -0.7524
  641MOL0     H84605   5.128   9.896   8.778  0.5667  0.2649  1.2880
  641MOL0     H84606   5.397   9.932   8.646  0.4804 -1.3402 -0.3419
  641MOL0     H84607   5.275   9.833   8.558 -1.6455 -0.1809  0.0116
  641MOL0     H84608   5.269   9.703   8.771  1.1011 -0.8125 -1.9103
  641MOL0     H84609   5.422   9.701   8.689 -0.5735  0.5318 -1.3372
  641MOL0     H84610   5.527   9.843   9.065 -0.7052  2.0644  0.3754
  641MOL0     H84611   4.861   9.778   8.437  0.6968 -0.3027  0.4771
  641MOL0     H84612   4.668   9.833   8.316 -2.0867  1.4601  0.2959
  642MOL0     O84613   1.962   5.350   3.864 -0.2158 -0.8022 -0.7662
  642MOL0     C84614   1.940   5.477   3.880 -0.4043  0.1539  0.0231
  642MOL0     O84615   1.849   5.550   3.818  0.4264 -0.5970 -0.3669
  642MOL0     C84616   1.751   5.497   3.743  0.1419  0.1392 -0.7312
  642MOL0     C84617   1.679   5.378   3.761  0.7943 -1.4272 -1.4230
  642MOL0     C84618   1.564   5.347   3.686  0.1804  0.0060 -0.6282
  642MOL0     C84619   1.529   5.433   3.577 -0.2324  0.4825  0.6012
  642MOL0     O84620   1.433   5.395   3.495 -0.0043  0.0028 -0.7712
  642MOL0     C84621   1.457   5.402   3.353  0.6469  0.5661 -1.1152
  642MOL0     C84622   1.330   5.354   3.286  0.2690  0.4521  0.8599
  642MOL0     C84623   1.206   5.441   3.302 -0.1370 -0.1314  0.4470
  642MOL0     C84624   1.093   5.399   3.207 -0.1454 -1.0035 -0.6375
  642MOL0     C84625   0.946   5.425   3.260 -0.2884 -0.5772 -0.1439
  642MOL0     C84626   0.917   5.575   3.270  0.0658  0.0537 -0.3763
  642MOL0     C84627   0.781   5.610   3.329  0.2733 -0.3312 -0.3622
  642MOL0     C84628   0.655   5.546   3.255 -0.1212 -0.1542 -0.2553
  642MOL0     N84629   0.513   5.579   3.289 -0.0013 -0.3019  0.0759
  642MOL0     C84630   0.462   5.664   3.384 -0.4904 -0.7283 -0.2758
  642MOL0     C84631   0.337   5.688   3.345 -0.1773 -0.6613  0.0602
  642MOL0     C84632   0.237   5.774   3.411 -0.7546 -0.9888  0.5456
  642MOL0     C84633   0.153   5.706   3.517  0.6246 -0.6950  0.1922
  642MOL0     C84634   0.057   5.802   3.593  0.2712  0.8031 -0.4753
  642MOL0     C84635  -0.037   5.735   3.688  0.7511  0.1499  0.8652
  642MOL0     O84636  -0.115   5.636   3.622 -0.1938 -0.3747  0.1371
  642MOL0     C84637  -0.244   5.650   3.592  0.9626  0.6746  0.8062
  642MOL0     C84638  -0.330   5.539   3.598 -0.4441 -0.2385 -1.4114
  642MOL0     C84639  -0.467   5.540   3.573  0.4948 -0.4226  0.5236
  642MOL0     C84640  -0.524   5.664   3.543 -0.8486 -0.6250 -0.0948
  642MOL0     C84641  -0.664   5.686   3.532 -0.0248  0.4075 -0.5795
  642MOL0     O84642  -0.733   5.568   3.550 -0.0167 -0.3123  0.3848
  642MOL0     C84643  -0.866   5.559   3.501  0.6450 -0.3669 -0.2386
  642MOL0     C84644  -0.915   5.425   3.499  0.4672 -0.0738 -0.3137
  642MOL0     C84645  -1.038   5.391   3.452  0.6247  0.4738 -0.1620
  642MOL0     C84646  -1.127   5.486   3.418  0.3071 -0.1519 -0.4710
  642MOL0     O84647  -1.249   5.442   3.375  0.5543  0.0552  0.2599
  642MOL0     C84648  -1.319   5.531   3.287 -0.4458 -0.0391 -0.7624
  642MOL0     C84649  -1.424   5.450   3.217  0.2363 -0.0504  0.0523
  642MOL0     C84650  -1.552   5.451   3.300 -0.2627 -0.5970  0.5900
  642MOL0     C84651  -1.653   5.335   3.271 -0.3101 -0.1945  0.6087
  642MOL0     C84652  -1.785   5.352   3.349 -0.7437 -0.6958  0.4002
  642MOL0     C84653  -1.865   5.219   3.327 -1.0941 -0.0058 -0.6899
  642MOL0     C84654  -1.996   5.214   3.397  0.5947 -0.7875  0.7513
  642MOL0     C84655  -1.983   5.147   3.523  0.5634  0.2380  0.7895
  642MOL0    Cl84656  -1.982   4.969   3.508 -0.0233  0.4186  0.1969
  642MOL0     C84657  -1.083   5.622   3.432  0.2468 -0.5298 -0.0142
  642MOL0     C84658  -0.958   5.663   3.472  0.1728 -0.3019 -0.7883
  642MOL0     O84659  -0.712   5.802   3.524  0.5487 -0.2115  0.4708
  642MOL0     C84660  -0.436   5.779   3.530 -0.8535  0.0837  0.2227
  642MOL0     C84661  -0.300   5.775   3.558  0.1244  0.0174 -0.7707
  642MOL0     N84662   0.313   5.603   3.242  0.1953 -0.5718  0.5538
  642MOL0     N84663   0.417   5.536   3.207 -0.4822  0.4233  0.0083
  642MOL0     C84664   1.611   5.534   3.551  0.0237  0.3316 -0.9800
  642MOL0     C84665   1.704   5.578   3.639 -0.7731  0.0706  1.1214
  642MOL0     C84666   2.020   5.553   3.979  0.1819 -0.2713  0.1375
  642MOL0     C84667   2.048   5.689   3.966 -0.3327  0.0633  0.2123
  642MOL0     C84668   2.127   5.758   4.050 -0.0049  0.8435 -0.1078
  642MOL0     C84669   2.193   5.697   4.155  0.0051 -0.4414 -0.0222
  642MOL0     O84670   2.280   5.780   4.222 -0.2284  0.8738  0.0422
  642MOL0     C84671   2.371   5.714   4.315  0.0845 -0.6954  0.2142
  642MOL0     C84672   2.498   5.797   4.350  0.1153  1.0711 -0.5551
  642MOL0     C84673   2.474   5.923   4.422  0.5578  0.1545 -0.3058
  642MOL0     C84674   2.604   5.998   4.426  0.4039  0.1582 -0.3002
  642MOL0     C84675   2.608   6.107   4.519  0.4402  0.5139 -0.4165
  642MOL0     C84676   2.592   6.193   4.601 -0.6518 -0.0332  0.6154
  642MOL0     C84677   2.161   5.559   4.175  0.0773  0.3673 -0.2961
  642MOL0     C84678   2.086   5.487   4.085  1.4563  1.0385 -0.7951
  642MOL0     H84679   1.710   5.315   3.843 -1.0034 -0.5944 -0.0554
  642MOL0     H84680   1.487   5.272   3.702 -1.3073  0.4883 -4.4860
  642MOL0     H84681   1.541   5.334   3.331 -0.6580 -2.1150  1.5251
  642MOL0     H84682   1.473   5.505   3.318  0.7270  0.5415 -1.1515
  642MOL0     H84683   1.300   5.261   3.335 -0.8068  2.1882  3.7262
  642MOL0     H84684   1.352   5.348   3.179 -1.1429 -0.9249  0.6035
  642MOL0     H84685   1.239   5.545   3.301 -0.6393  0.0637  1.6725
  642MOL0     H84686   1.167   5.421   3.403 -2.7887 -0.6834 -0.6140
  642MOL0     H84687   1.104   5.455   3.114 -1.2704  0.8201  0.2802
  642MOL0     H84688   1.113   5.294   3.183  0.6841 -1.4054  1.5913
  642MOL0     H84689   0.945   5.376   3.358  1.5276  1.6047  1.0516
  642MOL0     H84690   0.866   5.379   3.201  0.6628 -0.5469 -1.5308
  642MOL0     H84691   0.915   5.616   3.169 -1.3099 -2.6362 -1.5590
  642MOL0     H84692   0.992   5.622   3.335  1.1334 -1.5510 -0.3522
  642MOL0     H84693   0.783   5.588   3.436 -0.9258  0.5053 -0.1481
  642MOL0     H84694   0.768   5.718   3.326  1.1209 -0.2383 -1.8398
  642MOL0     H84695   0.664   5.437   3.264 -0.2055 -0.1971 -0.6670
  642MOL0     H84696   0.671   5.572   3.150  1.9801  1.4332  0.3866
  642MOL0     H84697   0.506   5.721   3.465  0.5824 -0.4796 -1.0103
  642MOL0     H84698   0.174   5.815   3.331  1.3565 -0.9616 -1.1952
  642MOL0     H84699   0.288   5.865   3.445 -1.0925  0.4939 -2.5650
  642MOL0     H84700   0.210   5.637   3.580  0.1381 -2.3270 -1.0655
  642MOL0     H84701   0.100   5.638   3.449 -0.1800  1.1436 -1.1025
  642MOL0     H84702   0.116   5.871   3.655 -0.5887  1.7550 -0.6852
  642MOL0     H84703  -0.009   5.867   3.535  0.2963 -0.1024 -1.5448
  642MOL0     H84704  -0.102   5.815   3.722  1.2964  2.3372 -2.7366
  642MOL0     H84705   0.010   5.681   3.771  0.6319 -1.1733  0.1092
  642MOL0     H84706  -0.275   5.447   3.616  2.4139  1.6917  0.3696
  642MOL0     H84707  -0.530   5.451   3.571  0.2255 -0.2317  0.1985
  642MOL0     H84708  -0.847   5.342   3.516 -1.7052 -1.4226  2.6198
  642MOL0     H84709  -1.071   5.289   3.433  0.9655  0.7926 -2.8625
  642MOL0     H84710  -1.253   5.587   3.220  0.6893  3.3170  2.7686
  642MOL0     H84711  -1.370   5.614   3.337 -0.4466 -0.3351 -0.2555
  642MOL0     H84712  -1.382   5.351   3.197 -0.0724 -0.0663 -0.5636
  642MOL0     H84713  -1.448   5.501   3.123 -2.5764  2.5113  1.9771
  642MOL0     H84714  -1.598   5.551   3.302 -0.1576 -0.5301 -0.1440
  642MOL0     H84715  -1.518   5.422   3.400  1.2135  0.1763  0.3387
  642MOL0     H84716  -1.678   5.318   3.166 -1.4261  2.0401  0.4551
  642MOL0     H84717  -1.603   5.242   3.301 -0.3367 -1.1855 -2.1244
  642MOL0     H84718  -1.833   5.445   3.318  0.5006 -0.6353 -1.5314
  642MOL0     H84719  -1.766   5.354   3.457 -2.0200 -1.2176  0.6564
  642MOL0     H84720  -1.799   5.135   3.350 -0.8312  0.0630 -1.1650
  642MOL0     H84721  -1.878   5.208   3.219 -2.4678 -1.6015 -0.3906
  642MOL0     H84722  -2.030   5.314   3.426  1.6635 -0.7108  1.8103
  642MOL0     H84723  -2.078   5.176   3.334  0.2762  2.0757 -0.7329
  642MOL0     H84724  -2.075   5.175   3.574  1.0315  0.5278  1.4789
  642MOL0     H84725  -1.901   5.179   3.587  0.3429  1.0166  0.6885
  642MOL0     H84726  -1.146   5.709   3.416 -0.6080 -1.3090 -1.1314
  642MOL0     H84727  -0.934   5.769   3.477 -0.3947 -0.1498 -1.2239
  642MOL0     H84728  -0.470   5.880   3.508 -0.0641  0.8523  2.2747
  642MOL0     H84729  -0.244   5.868   3.551  2.0512 -1.1181 -1.0326
  642MOL0     H84730   1.581   5.595   3.466 -1.2618 -0.2591 -0.9780
  642MOL0     H84731   1.745   5.678   3.628  1.5951 -0.7852  1.5320
  642MOL0     H84732   2.008   5.744   3.881 -0.3407 -0.1388  0.0847
  642MOL0     H84733   2.144   5.859   4.014 -2.4059  0.8013 -1.4906
  642MOL0     H84734   2.407   5.619   4.274  1.4505  0.2980 -1.0148
  642MOL0     H84735   2.320   5.689   4.409 -0.8694  0.4492  0.0251
  642MOL0     H84736   2.567   5.734   4.408 -0.8163  0.2000 -0.3716
  642MOL0     H84737   2.541   5.820   4.252  1.7592 -0.7105 -0.3047
  642MOL0     H84738   2.438   5.897   4.522  0.1257 -2.7046 -1.1232
  642MOL0     H84739   2.395   5.977   4.368  0.7585  0.0960 -0.6660
  642MOL0     H84740   2.690   5.935   4.448 -0.1994  0.3386  3.1716
  642MOL0     H84741   2.624   6.042   4.328 -0.2935  2.2901  0.4635
  642MOL0     H84742   2.567   6.282   4.655 -1.5125  0.7921 -1.0486
  642MOL0     H84743   2.209   5.513   4.261 -1.3222  0.1649  0.4132
  642MOL0     H84744   2.069   5.380   4.089 -4.0938  1.6454 -0.5218
  643MOL0     O84745   6.926   5.539   3.914  0.0805 -0.6249  0.2298
  643MOL0     C84746   6.914   5.589   3.806  0.5473 -0.9283  0.5734
  643MOL0     O84747   6.797   5.640   3.744  0.6327  0.5194  0.8018
  643MOL0     C84748   6.679   5.652   3.803 -0.3995  0.4071 -0.1927
  643MOL0     C84749   6.609   5.762   3.770 -0.4563 -0.4031 -0.3815
  643MOL0     C84750   6.487   5.789   3.834  0.5272  0.2663  0.4202
  643MOL0     C84751   6.426   5.702   3.925 -0.0713  0.2470  0.0490
  643MOL0     O84752   6.311   5.746   3.974  0.1921 -0.0092  0.4289
  643MOL0     C84753   6.229   5.647   4.016  0.1575 -0.9934 -0.4880
  643MOL0     C84754   6.081   5.692   4.046 -0.6073  0.7416 -0.8680
  643MOL0     C84755   6.004   5.744   3.921  0.8796 -0.6602 -0.2874
  643MOL0     C84756   5.853   5.786   3.949 -0.9280 -0.2626  0.6019
  643MOL0     C84757   5.782   5.811   3.815 -0.3831 -0.0456 -0.9612
  643MOL0     C84758   5.638   5.865   3.836 -0.1285 -0.6660 -0.5722
  643MOL0     C84759   5.575   5.885   3.699 -0.6430  0.1129  0.1575
  643MOL0     C84760   5.449   5.971   3.695 -0.8200  0.2014  0.1336
  643MOL0     N84761   5.338   5.897   3.752 -1.0066  0.3723  1.1277
  643MOL0     C84762   5.279   5.792   3.684  0.3110  0.7295 -0.1527
  643MOL0     C84763   5.213   5.720   3.776  0.8266 -0.0011 -0.4671
  643MOL0     C84764   5.132   5.592   3.759 -0.2209 -0.1161 -0.0559
  643MOL0     C84765   5.005   5.608   3.686  0.2301  0.0270  0.1025
  643MOL0     C84766   4.919   5.728   3.744 -0.0537  0.3788  0.2001
  643MOL0     C84767   4.767   5.706   3.753  0.7938  0.1902  0.4197
  643MOL0     O84768   4.723   5.616   3.653  0.4331 -0.5474  0.3982
  643MOL0     C84769   4.594   5.586   3.639 -0.1973  0.7395 -0.2942
  643MOL0     C84770   4.548   5.561   3.510  0.2279 -0.1964  0.5250
  643MOL0     C84771   4.409   5.525   3.478  0.6042 -0.5720 -0.5869
  643MOL0     C84772   4.326   5.511   3.592  0.4580 -0.2822  0.9925
  643MOL0     C84773   4.184   5.476   3.568  0.0217 -0.4899  0.7151
  643MOL0     O84774   4.140   5.496   3.438 -0.7041 -0.4360 -0.0106
  643MOL0     C84775   4.010   5.464   3.409 -0.6833  0.0988 -0.3637
  643MOL0     C84776   3.920   5.564   3.367 -0.0983  0.5081 -0.6258
  643MOL0     C84777   3.791   5.531   3.331 -0.7146 -0.3614  0.6142
  643MOL0     C84778   3.734   5.400   3.353 -0.2421 -0.5584 -0.6090
  643MOL0     O84779   3.598   5.384   3.321  0.0393  0.1120 -0.1383
  643MOL0     C84780   3.527   5.261   3.338 -0.0371 -0.2439  0.3126
  643MOL0     C84781   3.379   5.258   3.308  0.1100 -0.3952 -0.9277
  643MOL0     C84782   3.323   5.369   3.400 -0.4010 -0.3986 -0.9505
  643MOL0     C84783   3.173   5.351   3.423 -0.3813 -0.3962 -0.2709
  643MOL0     C84784   3.141   5.225   3.502  0.2054  0.6989 -0.8945
  643MOL0     C84785   3.201   5.228   3.643 -0.5675  0.1691  0.2674
  643MOL0     C84786   3.149   5.345   3.721 -0.9684 -0.9640 -0.8688
  643MOL0     C84787   3.182   5.316   3.865 -0.4863  0.1654  0.2249
  643MOL0    Cl84788   3.362   5.304   3.876 -0.1026 -0.2231  0.3889
  643MOL0     C84789   3.827   5.296   3.397 -0.1027 -0.0489 -0.3231
  643MOL0     C84790   3.964   5.330   3.412 -0.4074  0.6442  0.5527
  643MOL0     O84791   4.120   5.420   3.658 -0.1240 -0.7555 -0.7601
  643MOL0     C84792   4.375   5.524   3.722 -0.1286  0.6123 -1.1145
  643MOL0     C84793   4.508   5.567   3.746  0.6191 -0.6829 -0.1260
  643MOL0     N84794   5.230   5.775   3.900  0.7355  0.4968  0.7796
  643MOL0     N84795   5.290   5.893   3.883 -0.4425 -0.2422  0.6927
  643MOL0     C84796   6.498   5.581   3.957 -0.2724 -0.4009  0.8334
  643MOL0     C84797   6.626   5.559   3.896 -0.9033 -0.3264 -0.8490
  643MOL0     C84798   7.036   5.611   3.715 -0.2949  0.7190 -0.0626
  643MOL0     C84799   7.018   5.625   3.573 -1.0331  0.9821 -0.7256
  643MOL0     C84800   7.120   5.632   3.483 -1.0075 -0.7042 -0.4933
  643MOL0     C84801   7.249   5.643   3.535 -0.1313  0.7868 -0.4404
  643MOL0     O84802   7.347   5.671   3.441  0.2785 -0.1933 -0.3458
  643MOL0     C84803   7.486   5.647   3.468 -0.3409 -0.2896  1.1942
  643MOL0     C84804   7.564   5.681   3.342  0.8057 -0.4654  0.0682
  643MOL0     C84805   7.708   5.631   3.359  0.2643 -0.0335 -0.1238
  643MOL0     C84806   7.799   5.735   3.424  0.7423 -0.1973  0.3993
  643MOL0     C84807   7.899   5.671   3.504  0.3048 -0.4571 -0.6801
  643MOL0     C84808   7.980   5.605   3.571 -0.0736 -0.7161  0.8886
  643MOL0     C84809   7.270   5.616   3.669  0.2784 -0.7373  0.6783
  643MOL0     C84810   7.164   5.592   3.759 -0.7519 -0.6780 -0.5391
  643MOL0     H84811   6.637   5.837   3.697 -2.1424  1.1006  0.4435
  643MOL0     H84812   6.426   5.873   3.802  0.1070 -0.4339 -0.6607
  643MOL0     H84813   6.267   5.605   4.110 -1.3637 -0.6848  0.3067
  643MOL0     H84814   6.217   5.569   3.940 -0.8204 -1.8339  0.5032
  643MOL0     H84815   6.081   5.771   4.122  1.1337  0.4199 -0.4864
  643MOL0     H84816   6.015   5.614   4.083 -2.5130  0.9233 -3.5961
  643MOL0     H84817   5.994   5.664   3.847 -0.2441  0.0044 -0.8737
  643MOL0     H84818   6.057   5.831   3.882 -0.6383  0.9786  1.1720
  643MOL0     H84819   5.793   5.727   4.018 -0.9291  0.7256  1.4644
  643MOL0     H84820   5.864   5.883   3.998 -0.3200 -0.3868  0.7130
  643MOL0     H84821   5.780   5.709   3.776 -0.5991 -0.0883 -0.8442
  643MOL0     H84822   5.847   5.885   3.768  1.8224 -1.4746 -0.3235
  643MOL0     H84823   5.649   5.963   3.885 -1.4801  0.3750 -2.2479
  643MOL0     H84824   5.594   5.794   3.906  0.2896 -0.2488  0.1291
  643MOL0     H84825   5.649   5.920   3.626 -1.1105 -1.5440 -1.1949
  643MOL0     H84826   5.549   5.786   3.658  1.6009  0.0146 -1.2151
  643MOL0     H84827   5.427   6.000   3.592  0.0041  1.6961  0.3603
  643MOL0     H84828   5.459   6.060   3.758  3.0080  0.8361 -1.1063
  643MOL0     H84829   5.288   5.768   3.579  1.1840 -2.0152  0.4696
  643MOL0     H84830   5.093   5.563   3.857  0.9352 -1.0832  0.1320
  643MOL0     H84831   5.197   5.524   3.704 -1.1105  0.8709 -2.4957
  643MOL0     H84832   4.952   5.513   3.698  0.5566 -0.0211  1.2997
  643MOL0     H84833   5.019   5.598   3.578 -0.8602 -1.3394  0.0639
  643MOL0     H84834   4.957   5.751   3.844  1.1353 -1.4912  0.2326
  643MOL0     H84835   4.931   5.820   3.687  1.0441  1.0802  1.5163
  643MOL0     H84836   4.717   5.803   3.742  0.2533 -0.2448 -1.3528
  643MOL0     H84837   4.740   5.661   3.849  2.0295 -0.5803  0.4313
  643MOL0     H84838   4.623   5.552   3.431 -0.5338 -0.5576 -0.1774
  643MOL0     H84839   4.371   5.525   3.376 -1.2772 -1.2339  0.0751
  643MOL0     H84840   3.972   5.658   3.354 -0.3793  0.5853 -1.2699
  643MOL0     H84841   3.723   5.607   3.294 -2.3088 -1.3066  1.4835
  643MOL0     H84842   3.544   5.233   3.443  1.2225  0.0498  0.1999
  643MOL0     H84843   3.575   5.207   3.256 -3.1739 -0.3171 -1.6372
  643MOL0     H84844   3.345   5.155   3.317  3.0054 -1.5126 -1.7129
  643MOL0     H84845   3.356   5.288   3.205 -0.4664  0.7225 -0.4926
  643MOL0     H84846   3.336   5.465   3.351 -0.2125  0.5981  0.9450
  643MOL0     H84847   3.384   5.373   3.491  1.0376 -3.2531 -1.6688
  643MOL0     H84848   3.142   5.441   3.477 -0.1272  0.4162 -1.4443
  643MOL0     H84849   3.117   5.357   3.329 -1.3389  1.9664  0.3821
  643MOL0     H84850   3.165   5.136   3.443 -2.5110 -0.5732 -0.2430
  643MOL0     H84851   3.033   5.215   3.521  0.6564 -2.4964  0.5510
  643MOL0     H84852   3.310   5.224   3.642 -0.5630 -4.3473  0.1848
  643MOL0     H84853   3.172   5.133   3.689  0.2408 -0.1787  0.0627
  643MOL0     H84854   3.198   5.432   3.676  0.7744 -2.5819 -2.2999
  643MOL0     H84855   3.044   5.374   3.710 -1.0780 -1.0949 -0.2162
  643MOL0     H84856   3.147   5.215   3.884  2.0725 -1.3923 -2.4869
  643MOL0     H84857   3.147   5.389   3.939  0.8038  1.5396 -0.4717
  643MOL0     H84858   3.803   5.191   3.385 -0.1802 -0.0933  0.2141
  643MOL0     H84859   4.036   5.255   3.446 -1.0690 -1.7581 -2.8445
  643MOL0     H84860   4.304   5.506   3.802  1.2140 -0.6638 -0.1378
  643MOL0     H84861   4.547   5.579   3.847  2.6421 -1.1336 -0.8206
  643MOL0     H84862   6.459   5.516   4.035 -2.2358 -2.0048 -1.3273
  643MOL0     H84863   6.687   5.474   3.926 -0.3643  0.7266  1.1943
  643MOL0     H84864   6.917   5.625   3.534 -1.0504 -3.1844 -1.1097
  643MOL0     H84865   7.089   5.658   3.383 -0.8399 -1.2911 -0.7000
  643MOL0     H84866   7.497   5.538   3.472 -2.6846 -0.5684  1.3394
  643MOL0     H84867   7.529   5.703   3.551  2.3067  1.0292 -0.9223
  643MOL0     H84868   7.516   5.636   3.255 -0.9344  0.7668  0.3325
  643MOL0     H84869   7.557   5.788   3.322 -0.7310 -0.6139 -0.2897
  643MOL0     H84870   7.739   5.608   3.256 -2.4946 -3.0413 -0.4597
  643MOL0     H84871   7.717   5.532   3.404 -2.0039  0.5264  1.7486
  643MOL0     H84872   7.830   5.811   3.352 -1.9930  1.7843  1.1456
  643MOL0     H84873   7.733   5.796   3.488  2.1586 -0.0805  1.8195
  643MOL0     H84874   8.050   5.549   3.630 -0.7889  0.1321  2.6029
  643MOL0     H84875   7.374   5.612   3.697  0.1918  0.5750  1.2494
  643MOL0     H84876   7.193   5.563   3.859 -2.7227  1.3677  0.7300
  644MOL0     O84877   6.089   7.563   5.465 -0.2153  0.7208  0.5387
  644MOL0     C84878   6.146   7.620   5.366 -0.0205  0.1394 -0.2257
  644MOL0     O84879   6.085   7.704   5.271  0.3616 -0.3263 -0.3236
  644MOL0     C84880   5.950   7.724   5.277  0.5299  0.5924 -0.0429
  644MOL0     C84881   5.855   7.617   5.279 -0.5171  0.0592  0.5095
  644MOL0     C84882   5.724   7.650   5.289 -0.2760  0.1036 -0.3341
  644MOL0     C84883   5.680   7.783   5.285 -0.8722  1.5123  0.2372
  644MOL0     O84884   5.553   7.829   5.265 -0.5107  0.1069  0.0822
  644MOL0     C84885   5.446   7.779   5.333 -0.2235  0.2588 -0.2690
  644MOL0     C84886   5.452   7.817   5.488  0.3195  0.4038  0.3506
  644MOL0     C84887   5.324   7.774   5.553 -0.0204 -0.6337  0.2335
  644MOL0     C84888   5.329   7.825   5.703 -1.4725  0.3962  0.8639
  644MOL0     C84889   5.213   7.787   5.788 -0.5575 -0.8181 -0.3576
  644MOL0     C84890   5.219   7.851   5.928 -1.0609 -0.2488 -0.1106
  644MOL0     C84891   5.087   7.812   5.998 -0.0145 -0.6663  0.2534
  644MOL0     C84892   5.093   7.882   6.132 -0.0501  0.4468  0.2957
  644MOL0     N84893   4.970   7.855   6.209 -0.0929  0.0480  0.1142
  644MOL0     C84894   4.932   7.740   6.267  0.6967  0.0289  0.2022
  644MOL0     C84895   4.843   7.777   6.355 -0.1112  0.1990 -0.1639
  644MOL0     C84896   4.790   7.683   6.463  0.5037  0.0045 -0.7190
  644MOL0     C84897   4.846   7.719   6.594  0.2388  0.2371  0.4569
  644MOL0     C84898   4.819   7.594   6.694  0.3119 -0.3356 -0.6925
  644MOL0     C84899   4.676   7.545   6.690 -0.1070 -0.7074 -0.5028
  644MOL0     O84900   4.595   7.640   6.758 -0.6308  0.3952 -0.3166
  644MOL0     C84901   4.459   7.623   6.764  0.7084 -0.1393  0.2219
  644MOL0     C84902   4.370   7.730   6.817 -0.7467  1.2341 -0.9896
  644MOL0     C84903   4.235   7.712   6.839  0.1482 -0.1326  0.0126
  644MOL0     C84904   4.164   7.587   6.808 -0.4157 -0.3389  0.3598
  644MOL0     C84905   4.022   7.566   6.846  0.6839  0.7658 -0.5528
  644MOL0     O84906   3.979   7.643   6.945 -0.2102 -0.1550  0.2820
  644MOL0     C84907   3.844   7.638   6.983 -0.4954  0.5117 -0.4689
  644MOL0     C84908   3.783   7.761   7.030 -0.2317  0.5979  0.4163
  644MOL0     C84909   3.650   7.765   7.083  0.8077 -0.2897 -0.4922
  644MOL0     C84910   3.577   7.647   7.077 -0.5607  0.3985 -0.3435
  644MOL0     O84911   3.440   7.636   7.113 -0.2615  0.6565  0.1843
  644MOL0     C84912   3.367   7.759   7.104  0.1512  0.1371  0.0496
  644MOL0     C84913   3.225   7.731   7.137  0.2238 -0.3652 -0.6042
  644MOL0     C84914   3.156   7.634   7.050 -0.2270  0.7646 -0.1306
  644MOL0     C84915   3.019   7.600   7.117 -0.2182  0.8038 -0.2785
  644MOL0     C84916   2.989   7.453   7.103 -0.5256  0.4613 -0.1993
  644MOL0     C84917   2.861   7.395   7.155  0.2223 -0.1053 -0.1525
  644MOL0     C84918   2.881   7.244   7.149  0.4400  0.3118  0.0106
  644MOL0     C84919   2.748   7.171   7.168 -0.1703  0.0091  0.7728
  644MOL0    Cl84920   2.646   7.159   7.014  0.2186  0.0127  0.4383
  644MOL0     C84921   3.648   7.530   7.044  0.3510  0.0073  0.6329
  644MOL0     C84922   3.781   7.520   7.002  0.6709 -0.1784  0.6535
  644MOL0     O84923   3.961   7.479   6.782  0.4990  1.2094 -1.0309
  644MOL0     C84924   4.245   7.483   6.750 -0.7735  0.2185  0.0651
  644MOL0     C84925   4.387   7.501   6.739 -0.1651  0.0925  0.4508
  644MOL0     N84926   4.817   7.913   6.345  0.2703  0.9455  0.4551
  644MOL0     N84927   4.891   7.955   6.250  0.1671  0.1722  0.4953
  644MOL0     C84928   5.775   7.884   5.278  0.2554  0.8215 -0.1973
  644MOL0     C84929   5.906   7.853   5.278 -0.1619 -0.2579 -0.4592
  644MOL0     C84930   6.289   7.606   5.358 -1.3300  0.4248 -0.3293
  644MOL0     C84931   6.361   7.527   5.450  0.0813 -0.2064  0.0028
  644MOL0     C84932   6.504   7.526   5.439  0.8163 -0.6767 -0.3797
  644MOL0     C84933   6.571   7.591   5.339  0.2221  0.5859 -0.6641
  644MOL0     O84934   6.710   7.605   5.333 -0.2734 -0.1319  0.6570
  644MOL0     C84935   6.795   7.511   5.415  0.5606  0.9928  0.7485
  644MOL0     C84936   6.918   7.581   5.464 -0.3924  0.3221  0.0228
  644MOL0     C84937   7.000   7.512   5.563 -0.1574  0.5444 -0.4345
  644MOL0     C84938   7.109   7.602   5.622  1.1610  0.5750 -0.3008
  644MOL0     C84939   7.217   7.624   5.527  1.2006 -0.1766 -0.2039
  644MOL0     C84940   7.305   7.624   5.449  0.1420 -0.0883  0.1874
  644MOL0     C84941   6.497   7.667   5.253 -0.7883 -0.1014  0.3401
  644MOL0     C84942   6.360   7.660   5.249 -0.6851  0.2084 -0.3960
  644MOL0     H84943   5.883   7.514   5.299 -0.4250  0.1101  0.6455
  644MOL0     H84944   5.647   7.574   5.297  0.7039 -1.0436 -1.4699
  644MOL0     H84945   5.439   7.671   5.317 -1.9572  0.3840 -0.5185
  644MOL0     H84946   5.354   7.814   5.286  0.1800  0.0694 -1.2229
  644MOL0     H84947   5.456   7.927   5.485 -1.4734  0.5509  1.6140
  644MOL0     H84948   5.531   7.767   5.544 -0.9987  0.0358  1.9753
  644MOL0     H84949   5.302   7.667   5.545  0.3598 -0.5692 -2.8421
  644MOL0     H84950   5.238   7.821   5.503 -0.1825 -2.3849 -1.2586
  644MOL0     H84951   5.419   7.790   5.754 -1.0418  1.1617  0.6522
  644MOL0     H84952   5.337   7.934   5.706  0.4306  0.4044 -1.4437
  644MOL0     H84953   5.208   7.678   5.794 -3.9426 -0.8596 -1.3040
  644MOL0     H84954   5.133   7.830   5.726  1.9983  3.9344 -0.8339
  644MOL0     H84955   5.232   7.959   5.918 -2.1145 -0.1631 -0.6911
  644MOL0     H84956   5.299   7.816   5.993 -0.7482  1.0863  0.2524
  644MOL0     H84957   5.009   7.859   5.936 -1.1435 -2.8877 -0.1021
  644MOL0     H84958   5.069   7.705   6.012 -0.4739 -0.6500 -0.1835
  644MOL0     H84959   5.099   7.989   6.109 -0.2181  0.5770  0.8481
  644MOL0     H84960   5.182   7.863   6.192  0.2229 -0.0027 -0.2411
  644MOL0     H84961   4.991   7.650   6.279 -1.1077 -1.0564  1.5726
  644MOL0     H84962   4.791   7.574   6.454 -0.4095 -0.1550  0.8135
  644MOL0     H84963   4.682   7.699   6.465  0.5041 -0.0248 -0.4428
  644MOL0     H84964   4.800   7.807   6.640 -0.8658 -0.4661  0.7282
  644MOL0     H84965   4.953   7.735   6.574  0.5915 -2.3054  0.0058
  644MOL0     H84966   4.881   7.509   6.664  2.8102  1.7238 -1.7928
  644MOL0     H84967   4.842   7.612   6.800 -4.7739 -1.2628  0.8282
  644MOL0     H84968   4.670   7.455   6.751  0.3210  0.4554  1.3656
  644MOL0     H84969   4.639   7.524   6.590  0.7392  1.7689 -1.4164
  644MOL0     H84970   4.411   7.815   6.871 -2.0082  0.2876  1.6749
  644MOL0     H84971   4.179   7.791   6.888  0.4886 -1.7035  3.2036
  644MOL0     H84972   3.840   7.852   7.014  3.0723 -1.7079 -2.3160
  644MOL0     H84973   3.606   7.858   7.115 -2.4775 -1.2325 -1.8698
  644MOL0     H84974   3.368   7.795   7.000  0.1261  0.3700  0.1291
  644MOL0     H84975   3.409   7.834   7.172 -0.6611  0.4613  0.2091
  644MOL0     H84976   3.169   7.825   7.138  0.3472 -0.2939  0.2867
  644MOL0     H84977   3.213   7.686   7.236  1.8207  0.3992 -0.0185
  644MOL0     H84978   3.212   7.541   7.039 -1.6150 -0.0287 -0.8259
  644MOL0     H84979   3.137   7.672   6.949 -0.7340 -2.1809 -1.2329
  644MOL0     H84980   3.028   7.629   7.222 -1.7642  2.1789 -0.4812
  644MOL0     H84981   2.935   7.660   7.079  1.5024  3.7274  0.2072
  644MOL0     H84982   3.077   7.399   7.141 -0.1790  2.0660  1.4396
  644MOL0     H84983   2.981   7.435   6.995  1.2056 -0.2907 -0.2417
  644MOL0     H84984   2.771   7.432   7.105  2.5456  0.7512 -4.1434
  644MOL0     H84985   2.859   7.403   7.264 -0.4990 -2.0735  0.0095
  644MOL0     H84986   2.929   7.208   7.057 -0.0730 -0.8223  0.1673
  644MOL0     H84987   2.957   7.214   7.222  2.5615 -2.3446 -3.0138
  644MOL0     H84988   2.685   7.219   7.243  0.2622  2.1470 -0.1666
  644MOL0     H84989   2.766   7.070   7.207 -1.1323 -0.9785 -1.1914
  644MOL0     H84990   3.581   7.445   7.055 -0.2450  0.3943  0.0824
  644MOL0     H84991   3.834   7.425   6.997  2.1479  0.6010  0.9776
  644MOL0     H84992   4.219   7.380   6.730  0.1317 -0.1309  0.5939
  644MOL0     H84993   4.447   7.412   6.720  1.1396  0.9532  0.4053
  644MOL0     H84994   5.743   7.985   5.256 -0.2270  0.5144 -0.9572
  644MOL0     H84995   5.977   7.934   5.269  0.0096 -0.4709 -1.0913
  644MOL0     H84996   6.315   7.459   5.521 -1.8049 -3.2258 -3.7518
  644MOL0     H84997   6.553   7.455   5.505  0.7937  0.3203  0.7518
  644MOL0     H84998   6.821   7.420   5.361 -0.4316  1.6831 -0.9678
  644MOL0     H84999   6.739   7.473   5.501 -1.3774 -0.2390 -0.9678
  644MOL0     H85000   6.993   7.595   5.386  1.7588 -3.0882  1.2619
  644MOL0     H85001   6.894   7.679   5.505 -5.0832 -1.2043  1.5929
  644MOL0     H85002   7.041   7.419   5.524 -0.5955 -0.2961  0.9976
  644MOL0     H85003   6.927   7.476   5.637  0.5898  1.8495  1.0038
  644MOL0     H85004   7.053   7.692   5.649  0.8377  0.1154  0.6341
  644MOL0     H85005   7.150   7.547   5.708  2.6730 -2.3897 -2.7113
  644MOL0     H85006   7.381   7.640   5.375 -1.7657  2.2211 -1.4408
  644MOL0     H85007   6.559   7.716   5.178 -0.2888 -3.5407 -1.7089
  644MOL0     H85008   6.304   7.724   5.181 -0.1761  0.3870 -0.6475
  645MOL0     O85009   8.679   2.156   9.168  0.1112 -0.1332  0.3970
  645MOL0     C85010   8.689   2.215   9.058  0.0595 -0.0740 -0.5292
  645MOL0     O85011   8.598   2.228   8.965  1.1612 -0.0103 -0.0425
  645MOL0     C85012   8.465   2.206   8.997  0.3372 -0.4756  0.3956
  645MOL0     C85013   8.398   2.093   8.949 -0.4469 -0.2905  0.4136
  645MOL0     C85014   8.268   2.074   9.001  0.5345  0.2394  0.5173
  645MOL0     C85015   8.205   2.159   9.095  0.7242 -0.0059  1.4481
  645MOL0     O85016   8.082   2.113   9.140  0.3933 -0.3534 -0.2553
  645MOL0     C85017   7.985   2.214   9.152 -0.5032 -0.6647  0.1633
  645MOL0     C85018   7.854   2.140   9.148  0.0111 -0.2053  0.4068
  645MOL0     C85019   7.742   2.243   9.191 -0.0881  0.0215  0.6711
  645MOL0     C85020   7.613   2.169   9.239  0.0963 -0.3631  0.5071
  645MOL0     C85021   7.619   2.061   9.350  0.2912 -0.9171  0.0549
  645MOL0     C85022   7.485   2.005   9.393 -0.1572  0.6224  0.0495
  645MOL0     C85023   7.507   1.920   9.519  0.5994 -0.8683 -0.4127
  645MOL0     C85024   7.381   1.883   9.596  0.2603  0.1230 -1.3465
  645MOL0     N85025   7.301   1.997   9.643  0.4606  0.1992 -0.2896
  645MOL0     C85026   7.333   2.080   9.750  0.1383  0.1210  0.5377
  645MOL0     C85027   7.230   2.167   9.750 -0.5830 -0.6659 -0.0496
  645MOL0     C85028   7.231   2.301   9.821  0.3845  0.1474 -0.7910
  645MOL0     C85029   7.360   2.387   9.809  0.4703  0.0517  0.2787
  645MOL0     C85030   7.359   2.430   9.663  0.2632 -0.0164  0.3041
  645MOL0     C85031   7.492   2.500   9.615  0.6934 -0.2124  0.3238
  645MOL0     O85032   7.503   2.628   9.683 -0.0643  0.1768 -0.1554
  645MOL0     C85033   7.631   2.679   9.720  0.0622 -0.7955  0.0953
  645MOL0     C85034   7.653   2.818   9.738  0.3818 -0.2093  0.3070
  645MOL0     C85035   7.788   2.858   9.757 -0.3364  0.4523  0.0459
  645MOL0     C85036   7.891   2.771   9.771 -0.1580  0.4797 -0.7185
  645MOL0     C85037   8.029   2.823   9.786  0.2299  0.9572 -0.8227
  645MOL0     O85038   8.132   2.735   9.786  0.4974 -0.3942 -0.0694
  645MOL0     C85039   8.256   2.783   9.763  0.3158 -0.5043  0.2804
  645MOL0     C85040   8.340   2.722   9.678  0.1883  1.4993  0.3961
  645MOL0     C85041   8.480   2.753   9.675 -0.4739  0.3109 -0.6741
  645MOL0     C85042   8.537   2.853   9.756  0.6644 -0.8733  0.3128
  645MOL0     O85043   8.663   2.896   9.723 -0.2304  1.5432  0.4632
  645MOL0     C85044   8.734   2.964   9.827 -0.9694  1.2090 -0.6588
  645MOL0     C85045   8.886   2.974   9.799 -0.8261  0.4356 -0.2858
  645MOL0     C85046   8.961   3.039   9.933  1.1510 -0.3772  0.2633
  645MOL0     C85047   9.108   3.057   9.920  0.5504 -0.2810 -0.1325
  645MOL0     C85048   9.175   3.109  10.045  0.5748  0.2966 -0.0915
  645MOL0     C85049   9.321   3.139  10.027 -0.8335 -0.2851  0.6073
  645MOL0     C85050   9.392   3.201  10.153  0.2625  0.9471 -0.8929
  645MOL0     C85051   9.335   3.339  10.198  0.0502 -0.1145  0.1982
  645MOL0    Cl85052   9.399   3.473  10.095  0.4242  0.1825 -0.1247
  645MOL0     C85053   8.449   2.920   9.849  0.0808 -0.2575  0.6026
  645MOL0     C85054   8.313   2.877   9.855 -0.4458 -0.5330 -0.0922
  645MOL0     O85055   8.050   2.946   9.784 -0.1776  0.0503  0.2518
  645MOL0     C85056   7.874   2.634   9.756 -0.0171 -0.1284  0.5131
  645MOL0     C85057   7.742   2.594   9.731 -0.4443  0.9613  0.1098
  645MOL0     N85058   7.124   2.117   9.678 -0.5441  0.0007 -0.2264
  645MOL0     N85059   7.174   2.013   9.613  0.8672 -0.3514  0.4637
  645MOL0     C85060   8.277   2.270   9.134  0.2348 -0.6389 -0.8892
  645MOL0     C85061   8.403   2.299   9.086 -0.1294 -0.3250  0.3187
  645MOL0     C85062   8.832   2.231   9.023  0.3364  0.5107  0.2316
  645MOL0     C85063   8.927   2.248   9.123  0.0334 -0.5998 -0.0204
  645MOL0     C85064   9.057   2.298   9.095 -0.0892  0.3727  1.0815
  645MOL0     C85065   9.092   2.331   8.969 -0.6306  1.2389  0.5355
  645MOL0     O85066   9.224   2.378   8.949 -0.1081  0.2900 -0.6221
  645MOL0     C85067   9.298   2.321   8.844  0.6985 -0.2443  0.2365
  645MOL0     C85068   9.441   2.373   8.824  0.2605 -0.0610 -0.2743
  645MOL0     C85069   9.546   2.270   8.794  0.1971 -0.3272 -0.6684
  645MOL0     C85070   9.692   2.339   8.804  0.3938 -0.1754  0.0632
  645MOL0     C85071   9.790   2.236   8.777 -0.1376 -0.1282 -0.3684
  645MOL0     C85072   9.863   2.150   8.741  0.3115 -0.5134  0.4817
  645MOL0     C85073   8.999   2.313   8.860  0.3002 -0.4805 -0.2272
  645MOL0     C85074   8.867   2.272   8.895  0.3918  0.3727 -0.0813
  645MOL0     H85075   8.442   2.008   8.898 -2.9006 -1.9701  0.8828
  645MOL0     H85076   8.217   1.987   8.962 -2.6288  2.1695 -0.0062
  645MOL0     H85077   7.992   2.279   9.064  1.1529 -1.3098 -0.2324
  645MOL0     H85078   8.013   2.272   9.239  0.7036 -0.1171 -0.5720
  645MOL0     H85079   7.875   2.060   9.219  4.6826  1.4161  1.1870
  645MOL0     H85080   7.830   2.099   9.049  1.1329  0.9404 -0.3803
  645MOL0     H85081   7.711   2.311   9.111  2.8370  2.4146  1.3940
  645MOL0     H85082   7.767   2.316   9.269  1.7012  1.4345 -1.1036
  645MOL0     H85083   7.552   2.251   9.277  3.9063  2.4161  1.1958
  645MOL0     H85084   7.577   2.112   9.153  1.3927 -1.8506  0.8937
  645MOL0     H85085   7.669   2.110   9.433  0.2902 -0.3033 -0.3007
  645MOL0     H85086   7.687   1.982   9.317  3.4393  1.6354 -0.0794
  645MOL0     H85087   7.441   1.947   9.312  1.0807  0.0695 -0.2558
  645MOL0     H85088   7.424   2.089   9.426 -1.2462 -0.0332 -0.2663
  645MOL0     H85089   7.564   1.830   9.493 -1.7716 -2.2286 -1.1984
  645MOL0     H85090   7.571   1.973   9.591 -0.5478  1.1825 -0.8340
  645MOL0     H85091   7.408   1.823   9.683  0.0952 -0.0312 -1.4002
  645MOL0     H85092   7.308   1.826   9.537 -0.0178 -2.6925  1.4759
  645MOL0     H85093   7.429   2.103   9.795  1.8904  0.4588 -3.0006
  645MOL0     H85094   7.201   2.304   9.926  3.5630  1.3089  0.1920
  645MOL0     H85095   7.155   2.370   9.782  2.1239  3.9353  1.9083
  645MOL0     H85096   7.452   2.336   9.839  1.0667  0.3797 -0.9170
  645MOL0     H85097   7.354   2.479   9.869  3.5770  2.5113 -2.7162
  645MOL0     H85098   7.337   2.344   9.598  0.3263 -0.0591  0.3402
  645MOL0     H85099   7.292   2.513   9.638 -0.6231 -1.2589 -1.7121
  645MOL0     H85100   7.487   2.525   9.508 -2.7399 -0.3386  0.3576
  645MOL0     H85101   7.572   2.427   9.635  1.4662 -0.0728 -1.9256
  645MOL0     H85102   7.576   2.894   9.740  0.7261  0.1495 -0.1221
  645MOL0     H85103   7.800   2.966   9.768 -0.8501  0.5730 -0.5185
  645MOL0     H85104   8.304   2.640   9.617  0.6397  1.1126  0.6467
  645MOL0     H85105   8.533   2.701   9.596 -1.1896 -1.3302 -0.1200
  645MOL0     H85106   8.713   2.922   9.925  2.1659  2.5650  0.7215
  645MOL0     H85107   8.703   3.068   9.843 -0.1150  1.3541  0.0937
  645MOL0     H85108   8.905   3.027   9.705  0.9346 -3.2920 -2.2101
  645MOL0     H85109   8.923   2.874   9.779 -2.6308  0.0870 -2.1122
  645MOL0     H85110   8.933   2.986  10.025 -0.4568 -2.1046 -1.1374
  645MOL0     H85111   8.911   3.136   9.945 -0.5133 -1.2259  0.5023
  645MOL0     H85112   9.151   2.957   9.912  0.4410 -0.6142  2.4533
  645MOL0     H85113   9.138   3.130   9.845  0.6059  0.2943  0.4382
  645MOL0     H85114   9.150   3.037  10.124 -1.9157  0.0261 -1.0312
  645MOL0     H85115   9.120   3.202  10.066  0.5004  0.6876 -1.8785
  645MOL0     H85116   9.351   3.205   9.946  3.5972  1.3994  3.2736
  645MOL0     H85117   9.375   3.045  10.010 -2.0807 -1.1916  1.4205
  645MOL0     H85118   9.385   3.126  10.232 -0.9669  3.7600  1.8495
  645MOL0     H85119   9.497   3.226  10.135  0.0023  1.8781 -1.1635
  645MOL0     H85120   9.351   3.367  10.302 -2.3705 -2.8580  1.4596
  645MOL0     H85121   9.228   3.336  10.174  0.0170  0.7482  0.2153
  645MOL0     H85122   8.492   2.994   9.916  1.8263 -1.3003  0.6899
  645MOL0     H85123   8.259   2.922   9.939  1.3555 -2.1472  2.0602
  645MOL0     H85124   7.955   2.563   9.760 -1.6263 -2.0020  1.3315
  645MOL0     H85125   7.749   2.488   9.710  3.2404  1.1925 -0.5022
  645MOL0     H85126   8.234   2.340   9.205  2.0316 -1.1215  0.7507
  645MOL0     H85127   8.450   2.381   9.138 -1.7248 -1.0748  3.1178
  645MOL0     H85128   8.915   2.208   9.223  1.1422  0.5113  0.5941
  645MOL0     H85129   9.124   2.303   9.180 -1.1377  1.3404  1.8820
  645MOL0     H85130   9.245   2.331   8.748  1.2430  2.0886  0.1033
  645MOL0     H85131   9.296   2.215   8.867  0.8339 -0.1490  0.6848
  645MOL0     H85132   9.436   2.448   8.744  0.0468  0.2812  0.0568
  645MOL0     H85133   9.474   2.420   8.917  0.9178 -1.6719  0.3462
  645MOL0     H85134   9.527   2.222   8.698 -3.1669 -2.3755  0.8220
  645MOL0     H85135   9.537   2.190   8.869 -2.1829 -1.4218 -2.0414
  645MOL0     H85136   9.700   2.414   8.725  1.2017 -0.8760 -0.5323
  645MOL0     H85137   9.705   2.384   8.903 -1.1334  0.3847  0.0326
  645MOL0     H85138   9.927   2.066   8.722  1.1696  0.6442 -2.4014
  645MOL0     H85139   9.021   2.344   8.759 -2.9853  0.9998 -0.6253
  645MOL0     H85140   8.793   2.275   8.815 -1.8003 -2.2408  1.6754
  646MOL0     O85141  11.092   2.957   0.635  0.6536 -0.1015  0.0305
  646MOL0     C85142  11.178   2.960   0.718 -0.9980  0.5632  0.9040
  646MOL0     O85143  11.155   2.929   0.849 -0.1331 -0.0945 -0.2822
  646MOL0     C85144  11.043   2.993   0.908  1.1832  0.2214 -0.2608
  646MOL0     C85145  10.956   2.915   0.983  0.5831  0.2716 -1.0990
  646MOL0     C85146  10.840   2.968   1.045  0.6863  0.4127  0.9658
  646MOL0     C85147  10.809   3.101   1.015  0.0287  1.0472 -0.0852
  646MOL0     O85148  10.685   3.134   1.076 -1.1988  0.0911  0.2808
  646MOL0     C85149  10.619   3.248   1.025  0.5743  0.5472  0.6893
  646MOL0     C85150  10.501   3.255   1.110  0.2416  0.4956  0.0230
  646MOL0     C85151  10.556   3.307   1.252 -0.8548  0.4157  0.8355
  646MOL0     C85152  10.456   3.284   1.363  0.0586 -0.4804 -0.3405
  646MOL0     C85153  10.318   3.352   1.353  0.2721 -0.8328  0.3422
  646MOL0     C85154  10.227   3.330   1.469 -0.4311  0.9744  0.4824
  646MOL0     C85155  10.083   3.379   1.446  0.8798 -0.7941  0.0512
  646MOL0     C85156  10.009   3.388   1.584 -0.3592  0.1449  0.3311
  646MOL0     N85157   9.868   3.424   1.567  1.2983 -0.4546 -0.2564
  646MOL0     C85158   9.817   3.547   1.542 -0.4530 -0.8815  0.6345
  646MOL0     C85159   9.689   3.529   1.507  0.6187 -0.3054 -0.6309
  646MOL0     C85160   9.612   3.641   1.451  0.8737  0.9634 -0.2433
  646MOL0     C85161   9.504   3.692   1.550 -0.0960  0.4913 -0.4082
  646MOL0     C85162   9.440   3.824   1.494 -0.6139  0.4502  0.3155
  646MOL0     C85163   9.358   3.814   1.368 -0.1965 -0.6515  0.2494
  646MOL0     O85164   9.245   3.732   1.391 -0.0130 -0.0924  0.1947
  646MOL0     C85165   9.163   3.718   1.288  0.2568  0.1980  0.0951
  646MOL0     C85166   9.189   3.744   1.156  0.3353 -0.2745 -0.1017
  646MOL0     C85167   9.095   3.724   1.055 -0.5750 -0.0054  0.2858
  646MOL0     C85168   8.976   3.658   1.087 -0.1860  0.1224  0.5137
  646MOL0     C85169   8.879   3.624   0.992  0.1155  0.1236  0.1092
  646MOL0     O85170   8.786   3.538   1.029 -0.0186 -0.3406 -0.3673
  646MOL0     C85171   8.687   3.498   0.946 -1.3076  0.5994  0.0827
  646MOL0     C85172   8.700   3.383   0.866  0.1347 -0.3789  0.0182
  646MOL0     C85173   8.596   3.333   0.783 -0.0011  0.7073  1.2288
  646MOL0     C85174   8.479   3.403   0.772 -0.1050  0.7531  0.8374
  646MOL0     O85175   8.382   3.355   0.688  0.1598  0.5954 -0.5035
  646MOL0     C85176   8.241   3.385   0.707 -0.0539  0.0992  0.5219
  646MOL0     C85177   8.170   3.284   0.604 -0.1947 -0.4546 -0.7023
  646MOL0     C85178   8.020   3.262   0.631  0.1409  0.1041  0.8424
  646MOL0     C85179   7.958   3.181   0.518 -0.2509  0.3290 -0.6133
  646MOL0     C85180   7.808   3.151   0.541  0.0136  0.4366 -0.5164
  646MOL0     C85181   7.766   3.037   0.631 -0.8646 -0.0325 -0.1889
  646MOL0     C85182   7.624   3.036   0.657 -0.2736  0.0114  0.1541
  646MOL0     C85183   7.580   2.920   0.747  0.5730 -0.0156 -1.3103
  646MOL0    Cl85184   7.608   2.760   0.673  0.5078 -0.2409  0.1435
  646MOL0     C85185   8.460   3.525   0.853 -0.5168  0.1236  0.2100
  646MOL0     C85186   8.570   3.575   0.933  0.2880 -0.0203 -1.1388
  646MOL0     O85187   8.901   3.665   0.875 -0.2715 -0.5075 -0.0356
  646MOL0     C85188   8.949   3.634   1.220 -0.4185  0.7609 -0.2911
  646MOL0     C85189   9.040   3.662   1.320 -0.3469  0.2038 -0.4926
  646MOL0     N85190   9.655   3.400   1.513 -0.2200  0.3369  0.1166
  646MOL0     N85191   9.761   3.340   1.562 -0.7603  0.0862  0.0872
  646MOL0     C85192  10.893   3.184   0.942  0.9602  0.3242  0.4765
  646MOL0     C85193  11.009   3.125   0.884  0.7128  0.2347 -0.1899
  646MOL0     C85194  11.321   2.943   0.682  0.1944  0.0197 -0.2652
  646MOL0     C85195  11.420   2.903   0.772 -0.3606 -0.2517 -0.2033
  646MOL0     C85196  11.552   2.876   0.733 -0.1158  0.4901  0.9662
  646MOL0     C85197  11.587   2.881   0.602  0.2653  0.1597 -0.2280
  646MOL0     O85198  11.718   2.832   0.582 -0.2249  0.3146  0.1524
  646MOL0     C85199  11.777   2.873   0.461 -0.1153  0.6375  0.1541
  646MOL0     C85200  11.928   2.869   0.489  0.0357 -0.2480 -0.9240
  646MOL0     C85201  11.976   2.730   0.515  0.0301  0.5735 -0.0450
  646MOL0     C85202  12.120   2.705   0.472  0.0873  0.1309  1.3595
  646MOL0     C85203  12.182   2.579   0.501 -0.0675 -0.0760 -0.2930
  646MOL0     C85204  12.235   2.472   0.523 -0.5323  0.5313  0.3253
  646MOL0     C85205  11.492   2.932   0.510  0.3912 -0.7142 -0.4377
  646MOL0     C85206  11.356   2.957   0.551 -0.0743 -0.0019  1.3004
  646MOL0     H85207  10.983   2.811   1.000 -2.6135 -0.4690  0.2564
  646MOL0     H85208  10.776   2.908   1.108  0.2828 -0.2030  0.0012
  646MOL0     H85209  10.591   3.236   0.920  1.3677  0.5738  0.4685
  646MOL0     H85210  10.676   3.341   1.029 -0.2999  1.0509  1.9257
  646MOL0     H85211  10.447   3.162   1.129 -2.2474  2.0383  1.1281
  646MOL0     H85212  10.429   3.319   1.058  1.3419  1.4044 -0.4063
  646MOL0     H85213  10.566   3.415   1.234 -2.7573  0.2174 -2.2765
  646MOL0     H85214  10.647   3.258   1.288  0.9690  2.0983 -1.1923
  646MOL0     H85215  10.443   3.177   1.382  0.3693 -0.0607  2.6715
  646MOL0     H85216  10.512   3.308   1.454  0.7706  0.7440 -1.0814
  646MOL0     H85217  10.268   3.308   1.266  0.6412 -2.5299  0.9515
  646MOL0     H85218  10.342   3.456   1.331  1.3482 -0.7363  1.8074
  646MOL0     H85219  10.270   3.377   1.557 -2.2872 -1.2310  2.7259
  646MOL0     H85220  10.233   3.224   1.495  0.1467  1.4332  2.3315
  646MOL0     H85221  10.086   3.474   1.392  0.5208  0.3497  1.9439
  646MOL0     H85222  10.034   3.307   1.380  1.4624 -2.8430  1.7209
  646MOL0     H85223  10.041   3.475   1.641 -0.6005 -1.4777  3.1413
  646MOL0     H85224  10.025   3.305   1.654  1.2672  2.0609  2.3564
  646MOL0     H85225   9.871   3.641   1.544  0.2606 -1.2857  0.3916
  646MOL0     H85226   9.557   3.605   1.364 -0.9039  1.4843  0.6109
  646MOL0     H85227   9.685   3.721   1.435  0.9516  1.0229  0.3929
  646MOL0     H85228   9.555   3.712   1.644  1.0276 -4.0362  0.2065
  646MOL0     H85229   9.431   3.615   1.578  1.0555  0.0302  1.5048
  646MOL0     H85230   9.385   3.863   1.579 -1.2412 -1.4905  0.8366
  646MOL0     H85231   9.516   3.902   1.485  0.8609 -0.8158  1.2795
  646MOL0     H85232   9.421   3.770   1.291  1.4517  2.5586 -0.3900
  646MOL0     H85233   9.328   3.917   1.350  1.3111 -0.1497  0.4865
  646MOL0     H85234   9.281   3.799   1.136  0.0237  0.1751 -0.3191
  646MOL0     H85235   9.110   3.746   0.950  1.0475 -1.4008  0.1677
  646MOL0     H85236   8.796   3.334   0.878  0.1436 -0.6822 -1.1447
  646MOL0     H85237   8.614   3.234   0.743  1.5886  1.4514 -0.0019
  646MOL0     H85238   8.221   3.487   0.671  1.7276 -0.3502 -1.9879
  646MOL0     H85239   8.208   3.371   0.810 -0.4359  1.3332  0.5906
  646MOL0     H85240   8.213   3.183   0.611 -2.0146 -1.2471 -0.6168
  646MOL0     H85241   8.182   3.319   0.501  2.4119 -1.2806 -0.7610
  646MOL0     H85242   7.967   3.358   0.640 -1.0606 -0.5111  0.5096
  646MOL0     H85243   8.002   3.210   0.726 -0.9653  0.2962  0.7557
  646MOL0     H85244   7.976   3.243   0.430  2.7528  0.6348  0.1132
  646MOL0     H85245   8.016   3.089   0.504 -0.0614  0.5469 -1.2913
  646MOL0     H85246   7.768   3.131   0.441  1.9197  0.1978 -1.2737
  646MOL0     H85247   7.754   3.240   0.573 -2.9318 -0.3174 -2.8964
  646MOL0     H85248   7.821   3.048   0.725  1.5337  1.2955 -1.6574
  646MOL0     H85249   7.795   2.941   0.587 -1.1668 -1.0461  1.6887
  646MOL0     H85250   7.599   3.124   0.717  0.0594 -1.3507  2.4183
  646MOL0     H85251   7.560   3.030   0.568 -0.3657 -3.2293  0.3036
  646MOL0     H85252   7.472   2.923   0.761  0.8050  0.7979  0.6302
  646MOL0     H85253   7.624   2.932   0.846  1.8593  0.1355 -1.8761
  646MOL0     H85254   8.373   3.587   0.836 -1.7753 -1.0830  1.9050
  646MOL0     H85255   8.555   3.673   0.979  0.3062 -1.1825  1.5039
  646MOL0     H85256   8.851   3.608   1.259 -0.8722  1.2276 -1.0919
  646MOL0     H85257   9.020   3.665   1.426  0.4956  0.2762 -0.3322
  646MOL0     H85258  10.865   3.289   0.933 -2.6752 -0.5214  0.2814
  646MOL0     H85259  11.073   3.182   0.818 -3.4433  1.0100 -4.0759
  646MOL0     H85260  11.403   2.875   0.876  2.3547  1.5032  0.8296
  646MOL0     H85261  11.623   2.831   0.801  0.1776  0.5265  0.6901
  646MOL0     H85262  11.760   2.979   0.443  0.8520  0.8425  0.3960
  646MOL0     H85263  11.747   2.813   0.374  1.9072  1.8554 -1.4783
  646MOL0     H85264  11.985   2.911   0.406 -0.3420 -1.3069 -1.7492
  646MOL0     H85265  11.938   2.921   0.585  0.6115 -1.1987 -0.4402
  646MOL0     H85266  11.907   2.665   0.461 -0.0255  1.1243 -0.6554
  646MOL0     H85267  11.959   2.715   0.622 -1.1517  0.0961 -0.2917
  646MOL0     H85268  12.127   2.720   0.364 -3.3629  2.1930  1.2575
  646MOL0     H85269  12.179   2.782   0.523 -0.3092 -0.4610  2.7453
  646MOL0     H85270  12.286   2.379   0.541  1.7231  1.4818 -0.7318
  646MOL0     H85271  11.502   2.939   0.403 -0.8260 -2.2098 -0.6794
  646MOL0     H85272  11.289   3.001   0.478  1.2961  0.4890  0.2862
  647MOL0     O85273   3.017  10.213   3.165  0.4176 -0.3037  0.6096
  647MOL0     C85274   2.983  10.328   3.172 -0.4436 -0.2483 -0.3860
  647MOL0     O85275   2.869  10.373   3.238  0.3652 -0.2850  0.2505
  647MOL0     C85276   2.769  10.294   3.287 -0.3407  0.0282 -0.4525
  647MOL0     C85277   2.746  10.165   3.234  0.1453 -0.6335 -0.8558
  647MOL0     C85278   2.631  10.092   3.268  0.4449  0.4806 -0.0490
  647MOL0     C85279   2.536  10.154   3.346  0.2105  1.3488  0.1086
  647MOL0     O85280   2.422  10.082   3.362 -0.2332 -0.1703 -0.3343
  647MOL0     C85281   2.319  10.114   3.456 -0.0398 -0.2339  0.1916
  647MOL0     C85282   2.230   9.996   3.469 -0.1056  0.0845 -0.6021
  647MOL0     C85283   2.125  10.010   3.562 -0.1125  1.1415  0.2619
  647MOL0     C85284   2.015   9.905   3.540 -0.2739  0.0113 -0.0672
  647MOL0     C85285   1.899   9.928   3.639  0.3898  0.6903 -0.2948
  647MOL0     C85286   1.811  10.046   3.601  0.1368  1.0147 -0.1772
  647MOL0     C85287   1.678  10.056   3.665  0.3038  0.1031 -0.2135
  647MOL0     C85288   1.681  10.086   3.812 -0.3694  0.6811 -0.1976
  647MOL0     N85289   1.543  10.117   3.869 -0.6570 -0.0451 -0.0726
  647MOL0     C85290   1.513  10.110   4.002 -0.4481  0.1779  0.0380
  647MOL0     C85291   1.385  10.146   4.010  0.0684 -0.1865 -0.5846
  647MOL0     C85292   1.313  10.134   4.143  0.6438  0.1940  0.9669
  647MOL0     C85293   1.301  10.278   4.204  0.1705 -0.7170 -0.5066
  647MOL0     C85294   1.255  10.291   4.348  0.0348 -0.4621  0.0951
  647MOL0     C85295   1.108  10.326   4.352  0.5712 -0.6143 -0.0935
  647MOL0     O85296   1.071  10.348   4.490 -0.2529  0.0805  0.0937
  647MOL0     C85297   0.941  10.373   4.520  0.5858  0.2230  0.5792
  647MOL0     C85298   0.905  10.377   4.660 -0.0107  0.1332  0.3623
  647MOL0     C85299   0.784  10.422   4.708 -0.2169 -0.1071 -0.8319
  647MOL0     C85300   0.688  10.461   4.619  0.6704 -0.2650  0.8375
  647MOL0     C85301   0.556  10.504   4.668  0.8454 -0.1097  0.8603
  647MOL0     O85302   0.533  10.498   4.804  0.2064 -0.0594  0.3367
  647MOL0     C85303   0.418  10.538   4.863 -0.4720 -0.0739  0.2541
  647MOL0     C85304   0.418  10.630   4.964  0.4593  0.4572 -0.0245
  647MOL0     C85305   0.300  10.658   5.036  0.1711 -0.1182  1.2259
  647MOL0     C85306   0.178  10.587   5.009 -1.0544  0.3291  0.0635
  647MOL0     O85307   0.061  10.609   5.081  0.4313 -0.2101  0.5643
  647MOL0     C85308  -0.005  10.738   5.106  0.0132 -0.1638 -0.8374
  647MOL0     C85309  -0.126  10.703   5.196  0.4712  0.4223 -0.8708
  647MOL0     C85310  -0.251  10.634   5.126  0.4251 -0.1700 -0.1040
  647MOL0     C85311  -0.321  10.531   5.225  0.2632 -0.3364 -0.3212
  647MOL0     C85312  -0.464  10.522   5.200  0.0357  0.2547  0.4025
  647MOL0     C85313  -0.537  10.432   5.308 -0.1290 -0.2455 -0.4689
  647MOL0     C85314  -0.689  10.420   5.274  0.3658  0.2634 -0.2585
  647MOL0     C85315  -0.763  10.390   5.407 -0.3075 -0.1967 -0.3706
  647MOL0    Cl85316  -0.708  10.244   5.467 -0.1928  0.2971 -0.2418
  647MOL0     C85317   0.180  10.488   4.904  0.7760 -0.4128 -1.1178
  647MOL0     C85318   0.296  10.463   4.840 -0.5104  0.2675 -0.3788
  647MOL0     O85319   0.485  10.553   4.583 -0.0429  0.2287 -0.5261
  647MOL0     C85320   0.714  10.452   4.479  0.5504 -0.1603 -0.2058
  647MOL0     C85321   0.842  10.418   4.437  0.7769  0.5619  0.0452
  647MOL0     N85322   1.345  10.189   3.881  0.0349 -0.6647  0.4124
  647MOL0     N85323   1.441  10.169   3.795  0.0515 -0.0384  0.0109
  647MOL0     C85324   2.552  10.284   3.395  0.4843  0.5493 -0.0770
  647MOL0     C85325   2.669  10.360   3.363  0.4317  1.0717  0.0055
  647MOL0     C85326   3.096  10.424   3.157 -0.3899 -0.2391 -0.1903
  647MOL0     C85327   3.226  10.382   3.115  0.3287 -0.3613 -0.1566
  647MOL0     C85328   3.336  10.469   3.126  0.3876  0.0305  0.2560
  647MOL0     C85329   3.311  10.603   3.167 -0.5550 -0.2723  0.3036
  647MOL0     O85330   3.409  10.692   3.187 -0.1710  0.3941  0.8724
  647MOL0     C85331   3.549  10.659   3.185  0.2755 -0.2797 -0.3797
  647MOL0     C85332   3.626  10.781   3.245 -0.4526  0.5069 -0.4697
  647MOL0     C85333   3.776  10.751   3.261  0.7211 -1.5590  0.1519
  647MOL0     C85334   3.853  10.877   3.287 -0.3160 -0.5441  0.2395
  647MOL0     C85335   3.990  10.877   3.227  0.6449 -0.2147 -0.7800
  647MOL0     C85336   4.101  10.883   3.180  0.3958 -0.0097 -0.3340
  647MOL0     C85337   3.183  10.654   3.181 -0.4452 -0.4555  0.2152
  647MOL0     C85338   3.082  10.563   3.175  0.0832 -0.0046  0.6033
  647MOL0     H85339   2.822  10.108   3.181  1.7582 -1.8851  2.5704
  647MOL0     H85340   2.625   9.993   3.226  1.1026  0.1692  0.5662
  647MOL0     H85341   2.270  10.200   3.408  1.3330 -1.1615 -3.1417
  647MOL0     H85342   2.362  10.154   3.549 -0.1036 -1.2757  0.6802
  647MOL0     H85343   2.294   9.912   3.498  1.8328  1.3858 -0.8728
  647MOL0     H85344   2.184   9.973   3.372 -2.8789  0.8549  0.4491
  647MOL0     H85345   2.075  10.107   3.551  0.4657  1.5875  1.4211
  647MOL0     H85346   2.166  10.016   3.663  0.7581  1.9971 -0.1234
  647MOL0     H85347   1.976   9.898   3.438 -1.5061  2.8896  0.1112
  647MOL0     H85348   2.073   9.819   3.576  1.3637  2.1780  3.0700
  647MOL0     H85349   1.936   9.950   3.740  0.1522  1.2366 -0.3250
  647MOL0     H85350   1.833   9.840   3.640 -0.9431  1.6296 -1.4971
  647MOL0     H85351   1.798  10.035   3.493 -2.9631  3.0647 -0.1232
  647MOL0     H85352   1.863  10.140   3.622  0.5454  1.3649 -2.4958
  647MOL0     H85353   1.641  10.140   3.604  2.0274  0.2118 -1.1893
  647MOL0     H85354   1.622   9.963   3.652 -0.1588 -0.1251  2.7982
  647MOL0     H85355   1.742  10.173   3.838  0.5065 -0.5377  2.1164
  647MOL0     H85356   1.731  10.005   3.866  0.8542  1.9958  0.7192
  647MOL0     H85357   1.575  10.071   4.082  1.7068 -3.5678 -3.0739
  647MOL0     H85358   1.368  10.063   4.204  3.7117 -0.4261 -2.1804
  647MOL0     H85359   1.212  10.098   4.122  0.3843  0.7193  1.2942
  647MOL0     H85360   1.228  10.331   4.142 -0.8215 -1.0710  0.3401
  647MOL0     H85361   1.401  10.323   4.197 -0.9957  2.5930  1.5337
  647MOL0     H85362   1.273  10.192   4.391  1.2559 -0.2770  0.0517
  647MOL0     H85363   1.316  10.367   4.397 -0.2551  0.2220 -0.5882
  647MOL0     H85364   1.047  10.246   4.310  0.7352 -2.1834  2.4957
  647MOL0     H85365   1.094  10.423   4.303 -0.8250 -1.6324 -1.8570
  647MOL0     H85366   0.994  10.359   4.719  1.4324  1.3676 -1.3457
  647MOL0     H85367   0.772  10.416   4.816  0.9203  0.0175 -0.6821
  647MOL0     H85368   0.514  10.661   5.004  0.1794  1.9413 -0.4315
  647MOL0     H85369   0.302  10.735   5.113 -0.6572  1.0793  0.0916
  647MOL0     H85370  -0.042  10.785   5.015 -0.7297 -0.9236 -0.9397
  647MOL0     H85371   0.073  10.795   5.157  1.1772 -0.5539 -2.1359
  647MOL0     H85372  -0.162  10.782   5.262  1.3248 -0.3797  0.6083
  647MOL0     H85373  -0.089  10.625   5.263 -3.5664 -1.4962 -0.5924
  647MOL0     H85374  -0.227  10.583   5.032 -1.1876 -1.9826  0.3988
  647MOL0     H85375  -0.314  10.719   5.100 -0.0198 -0.2580  0.6531
  647MOL0     H85376  -0.276  10.433   5.205  0.7080 -0.0655 -0.6577
  647MOL0     H85377  -0.296  10.555   5.329  0.2954  0.6860 -0.5568
  647MOL0     H85378  -0.469  10.467   5.106  1.4936  1.0371 -0.1807
  647MOL0     H85379  -0.513  10.620   5.188 -0.4402  0.2128  1.8948
  647MOL0     H85380  -0.507  10.457   5.410  0.0604 -2.0388 -0.0551
  647MOL0     H85381  -0.502  10.330   5.292  0.6957 -0.8149  3.8001
  647MOL0     H85382  -0.736  10.508   5.229 -1.3156 -0.8250 -0.7514
  647MOL0     H85383  -0.701  10.327   5.218  0.9961 -1.4785  2.3374
  647MOL0     H85384  -0.868  10.400   5.378 -0.7747  2.2044  1.8115
  647MOL0     H85385  -0.743  10.470   5.479 -0.2702  0.2839 -0.9025
  647MOL0     H85386   0.087  10.440   4.877  0.2887  0.1819 -0.5301
  647MOL0     H85387   0.313  10.377   4.776  0.0937 -0.1676  0.3487
  647MOL0     H85388   0.634  10.478   4.409 -0.3729  0.0745  0.8917
  647MOL0     H85389   0.868  10.420   4.332  0.1613 -0.6042 -0.1406
  647MOL0     H85390   2.466  10.336   3.437  0.8187  0.5930  0.5652
  647MOL0     H85391   2.663  10.465   3.391  2.9302  1.2583 -0.0122
  647MOL0     H85392   3.240  10.277   3.091  1.4068 -0.0639 -0.9151
  647MOL0     H85393   3.438  10.433   3.124  0.6290  0.6601  0.8947
  647MOL0     H85394   3.590  10.624   3.089  1.5510 -1.0591  0.4321
  647MOL0     H85395   3.564  10.576   3.254 -0.0697  1.1309  1.4648
  647MOL0     H85396   3.608  10.874   3.190 -1.9220  0.9609  0.7108
  647MOL0     H85397   3.597  10.805   3.347  0.9807  0.2292  0.0189
  647MOL0     H85398   3.798  10.714   3.160 -1.0393  1.7209 -1.6095
  647MOL0     H85399   3.809  10.671   3.328  2.8510 -1.6754 -0.9315
  647MOL0     H85400   3.807  10.958   3.230 -1.1370 -0.1440  1.4433
  647MOL0     H85401   3.848  10.907   3.392  0.5246  1.6144 -0.2985
  647MOL0     H85402   4.195  10.895   3.130 -0.0725  2.6380 -0.7465
  647MOL0     H85403   3.164  10.760   3.194 -5.7339 -1.1593  0.4137
  647MOL0     H85404   2.982  10.600   3.198 -0.0336 -0.6220  1.0997
  648MOL0     O85405  11.257   1.757   7.163 -0.2905  0.1593 -0.7803
  648MOL0     C85406  11.340   1.673   7.149  0.0836 -1.0235 -0.9020
  648MOL0     O85407  11.353   1.559   7.220 -0.5298  0.7409 -0.5527
  648MOL0     C85408  11.261   1.539   7.313  0.4735 -0.7352 -0.4278
  648MOL0     C85409  11.300   1.553   7.450  0.0913  0.7695  0.4111
  648MOL0     C85410  11.199   1.530   7.549  0.1069 -0.0747 -0.3021
  648MOL0     C85411  11.063   1.493   7.507  0.2411  0.3555 -0.0347
  648MOL0     O85412  10.956   1.458   7.584 -0.3171  0.1583 -0.3459
  648MOL0     C85413  10.974   1.465   7.727  0.1678 -0.2655 -0.0559
  648MOL0     C85414  10.840   1.442   7.787 -0.3825  0.1850  0.5429
  648MOL0     C85415  10.851   1.422   7.942  0.9324 -0.6070 -1.0822
  648MOL0     C85416  10.712   1.400   8.009 -0.8765 -0.1537 -0.0647
  648MOL0     C85417  10.729   1.341   8.148 -0.1841  0.3466 -0.1539
  648MOL0     C85418  10.592   1.326   8.219 -0.2389  0.5075 -0.2992
  648MOL0     C85419  10.610   1.245   8.344 -0.2358 -0.4790  0.7064
  648MOL0     C85420  10.487   1.240   8.432 -0.6309  0.1312  0.2503
  648MOL0     N85421  10.502   1.148   8.545 -0.0937 -0.5400 -0.2157
  648MOL0     C85422  10.481   1.014   8.534 -0.1261 -0.3231  0.4329
  648MOL0     C85423  10.502   0.966   8.652  0.6324  0.3513 -0.0272
  648MOL0     C85424  10.474   0.826   8.684  0.1405 -0.0234  0.1667
  648MOL0     C85425  10.328   0.775   8.680  0.1894  0.1753 -0.5219
  648MOL0     C85426  10.267   0.740   8.548 -0.4306 -0.3030 -0.5349
  648MOL0     C85427  10.121   0.705   8.540  0.0793 -0.0325  0.1311
  648MOL0     O85428  10.040   0.826   8.552  0.1427 -0.4214 -0.4323
  648MOL0     C85429   9.900   0.825   8.560  0.0168  1.1946  0.2679
  648MOL0     C85430   9.838   0.949   8.570  0.1731  0.1210  0.0516
  648MOL0     C85431   9.702   0.954   8.603  0.0570  0.9602 -1.3751
  648MOL0     C85432   9.625   0.841   8.607 -0.3255  0.3883  0.3064
  648MOL0     C85433   9.475   0.851   8.616  1.2729 -0.6928 -0.8481
  648MOL0     O85434   9.405   0.735   8.644  0.2183  0.1038 -0.2206
  648MOL0     C85435   9.277   0.750   8.685  0.0604  0.2636 -0.5945
  648MOL0     C85436   9.243   0.771   8.822 -0.5857  0.8701  0.1236
  648MOL0     C85437   9.112   0.778   8.869  0.0796  0.3902 -0.1413
  648MOL0     C85438   9.007   0.753   8.782 -0.2021  0.3133 -0.7678
  648MOL0     O85439   8.879   0.748   8.828  0.6470 -0.9720  0.3017
  648MOL0     C85440   8.830   0.866   8.887  0.7636 -0.7409 -0.1983
  648MOL0     C85441   8.678   0.837   8.930 -1.0588 -0.2704  0.1392
  648MOL0     C85442   8.588   0.806   8.805  0.0971 -0.4380  0.4624
  648MOL0     C85443   8.446   0.806   8.852 -0.0211  0.9380  0.5398
  648MOL0     C85444   8.358   0.736   8.745 -0.0119 -1.6268 -0.3662
  648MOL0     C85445   8.205   0.730   8.775  0.5657  0.0902  0.2791
  648MOL0     C85446   8.135   0.641   8.675  0.0702 -0.6833 -0.9677
  648MOL0     C85447   7.990   0.611   8.704  0.0508 -0.5591  0.1072
  648MOL0    Cl85448   7.943   0.488   8.591 -0.0837  0.3001 -0.0805
  648MOL0     C85449   9.039   0.723   8.646 -0.1790  0.4709 -0.0476
  648MOL0     C85450   9.169   0.723   8.602 -0.0280  0.5566  0.5747
  648MOL0     O85451   9.420   0.961   8.622  0.2136  0.0203 -0.0102
  648MOL0     C85452   9.688   0.707   8.585 -0.4888 -0.5083 -0.6373
  648MOL0     C85453   9.822   0.701   8.563 -0.6223 -0.5329  0.2838
  648MOL0     N85454  10.549   1.070   8.730  0.4368 -0.2232  0.1056
  648MOL0     N85455  10.548   1.185   8.670 -0.5564  0.3700  0.0944
  648MOL0     C85456  11.037   1.467   7.375 -1.1159  0.8384  0.2475
  648MOL0     C85457  11.143   1.488   7.276 -0.0022  0.3755  0.2813
  648MOL0     C85458  11.438   1.680   7.039  0.0232 -0.2278 -0.6846
  648MOL0     C85459  11.482   1.561   6.974  0.4342  0.0440 -0.0975
  648MOL0     C85460  11.565   1.558   6.861 -0.0898  0.8128 -0.0963
  648MOL0     C85461  11.597   1.675   6.802  0.9017  0.6066  0.3915
  648MOL0     O85462  11.669   1.659   6.687 -0.1895  0.7798  0.5057
  648MOL0     C85463  11.785   1.746   6.670 -0.4131  0.2737 -0.0938
  648MOL0     C85464  11.854   1.703   6.539  0.2962  0.0682  0.3202
  648MOL0     C85465  11.766   1.737   6.419 -0.2845  0.5506  1.3386
  648MOL0     C85466  11.831   1.724   6.283 -0.0557  0.1296  1.2270
  648MOL0     C85467  11.923   1.611   6.266  0.0298 -0.4225 -0.2300
  648MOL0     C85468  12.003   1.525   6.274 -0.4265  0.0179 -0.0616
  648MOL0     C85469  11.554   1.797   6.866 -0.0734  0.7269  1.1760
  648MOL0     C85470  11.466   1.801   6.981  0.1324  0.0438 -0.0174
  648MOL0     H85471  11.402   1.576   7.479 -0.4240  1.3862  1.8146
  648MOL0     H85472  11.240   1.539   7.649  1.1884  0.6242 -0.7955
  648MOL0     H85473  11.013   1.564   7.753 -1.6085 -0.2067  2.8072
  648MOL0     H85474  11.047   1.392   7.765  0.2109 -1.0737 -1.6282
  648MOL0     H85475  10.789   1.358   7.739  0.3460 -0.3088  0.6135
  648MOL0     H85476  10.776   1.529   7.771 -3.3297 -1.6478  1.5701
  648MOL0     H85477  10.900   1.512   7.982 -0.0876 -0.9431  1.0829
  648MOL0     H85478  10.919   1.340   7.965  1.9523 -0.0676 -2.0742
  648MOL0     H85479  10.655   1.494   8.010 -1.9171 -0.7610 -0.3822
  648MOL0     H85480  10.678   1.324   7.939 -0.8281 -1.6569  1.4810
  648MOL0     H85481  10.803   1.390   8.211  0.4378 -2.0304  1.0980
  648MOL0     H85482  10.779   1.244   8.138  0.7785  0.9508 -1.5323
  648MOL0     H85483  10.529   1.272   8.148 -2.0524  0.1134  1.5301
  648MOL0     H85484  10.553   1.426   8.243 -2.3951  0.3311 -2.6058
  648MOL0     H85485  10.644   1.147   8.307 -2.2984 -0.8624 -0.3214
  648MOL0     H85486  10.698   1.289   8.391  0.7510  2.1677 -3.1043
  648MOL0     H85487  10.398   1.213   8.374 -0.1465 -1.2601  0.1318
  648MOL0     H85488  10.455   1.337   8.472 -2.1334 -0.3737  0.3626
  648MOL0     H85489  10.445   0.962   8.446 -0.1020  0.1986  0.1106
  648MOL0     H85490  10.514   0.813   8.786 -0.9111 -3.3962  0.2828
  648MOL0     H85491  10.544   0.765   8.625  0.7575  1.8168 -1.0758
  648MOL0     H85492  10.264   0.845   8.733  1.3212  1.0503 -0.2712
  648MOL0     H85493  10.337   0.683   8.739  2.1113  0.4290 -0.3455
  648MOL0     H85494  10.280   0.823   8.477 -1.2542 -0.3649 -0.7629
  648MOL0     H85495  10.332   0.664   8.503 -1.0544 -0.8402 -0.5408
  648MOL0     H85496  10.099   0.626   8.613  3.1086 -0.9677  0.1727
  648MOL0     H85497  10.107   0.651   8.445 -1.5975 -2.2416  1.5379
  648MOL0     H85498   9.894   1.042   8.566 -0.8228  0.7562  0.7001
  648MOL0     H85499   9.664   1.056   8.607 -2.9546 -0.1133  1.9399
  648MOL0     H85500   9.323   0.784   8.894 -2.6363 -1.5887  3.0720
  648MOL0     H85501   9.106   0.811   8.972  1.1144  0.7395 -0.1811
  648MOL0     H85502   8.829   0.945   8.812  1.8017  0.1460  0.7049
  648MOL0     H85503   8.896   0.895   8.969  0.5938 -1.1076  0.0728
  648MOL0     H85504   8.654   0.927   8.986  1.9821  1.0959 -0.5031
  648MOL0     H85505   8.686   0.752   8.999  1.6236  1.2699  1.8954
  648MOL0     H85506   8.622   0.709   8.765 -0.7066 -1.2304  1.6444
  648MOL0     H85507   8.594   0.882   8.727 -1.6626  0.0877  0.7998
  648MOL0     H85508   8.429   0.732   8.931 -3.0586  0.8124 -0.1290
  648MOL0     H85509   8.408   0.906   8.871 -2.4823  0.4096 -1.1156
  648MOL0     H85510   8.403   0.638   8.728  1.1525 -1.5246  1.7545
  648MOL0     H85511   8.367   0.794   8.653  0.9419  0.1597  0.7823
  648MOL0     H85512   8.166   0.832   8.775  4.7703  1.9014 -1.4458
  648MOL0     H85513   8.193   0.693   8.877 -0.3447  1.3460  0.6573
  648MOL0     H85514   8.140   0.700   8.583  1.2776  1.6941  0.5371
  648MOL0     H85515   8.192   0.548   8.678  2.1921  0.5108  3.2436
  648MOL0     H85516   7.922   0.695   8.688  0.4812 -0.6788 -3.2875
  648MOL0     H85517   7.982   0.570   8.805  0.8077 -1.1688 -0.0671
  648MOL0     H85518   8.956   0.684   8.589  1.0590 -0.2976 -1.3958
  648MOL0     H85519   9.199   0.707   8.499 -3.2169  1.2228 -0.5763
  648MOL0     H85520   9.625   0.620   8.593 -1.8039  0.3481 -1.4004
  648MOL0     H85521   9.868   0.603   8.570 -0.2000 -0.2433  2.1897
  648MOL0     H85522  10.937   1.436   7.346 -0.1305 -0.6413 -1.8173
  648MOL0     H85523  11.118   1.479   7.171  0.3400  0.5358  0.1854
  648MOL0     H85524  11.452   1.461   7.004 -0.7717  0.0720 -1.1378
  648MOL0     H85525  11.588   1.463   6.816 -0.3962  0.9783 -0.6117
  648MOL0     H85526  11.861   1.748   6.748  2.4487 -2.5725 -2.5184
  648MOL0     H85527  11.751   1.850   6.664  0.8486  0.6804 -0.3924
  648MOL0     H85528  11.942   1.766   6.524  0.5070 -0.0522  1.0023
  648MOL0     H85529  11.877   1.597   6.542 -0.7882 -0.5043 -4.4170
  648MOL0     H85530  11.731   1.840   6.426 -2.6518 -0.1798  0.9185
  648MOL0     H85531  11.678   1.673   6.421 -0.7202  1.1558  2.9986
  648MOL0     H85532  11.757   1.743   6.204  2.6324  6.6452 -0.3863
  648MOL0     H85533  11.894   1.813   6.279 -0.4558  0.4048 -1.9744
  648MOL0     H85534  12.074   1.446   6.289 -0.2107  0.3834  0.9668
  648MOL0     H85535  11.579   1.889   6.815  2.8323 -1.1168 -1.0810
  648MOL0     H85536  11.426   1.893   7.022 -0.3019  0.2078 -0.7942
  649MOL0     O85537   2.817  11.048   5.108 -0.0466 -0.6729 -0.0850
  649MOL0     C85538   2.815  11.120   5.012  0.0433  0.5171  0.7954
  649MOL0     O85539   2.917  11.156   4.937 -0.0450  0.1830 -0.2446
  649MOL0     C85540   3.045  11.125   4.965 -0.2896  0.3179 -0.3054
  649MOL0     C85541   3.119  11.210   5.051 -0.1502  0.1033  0.3378
  649MOL0     C85542   3.254  11.178   5.071  0.9812 -1.0968 -0.6335
  649MOL0     C85543   3.323  11.077   5.010 -0.0433 -0.1690 -0.1996
  649MOL0     O85544   3.456  11.068   5.034  1.0203 -0.0961  0.1901
  649MOL0     C85545   3.531  10.952   4.982  0.5975 -0.7451  0.2515
  649MOL0     C85546   3.678  10.971   5.008 -0.2871 -0.4506 -0.6714
  649MOL0     C85547   3.733  11.110   4.959  0.1403  0.2427 -0.5020
  649MOL0     C85548   3.887  11.113   4.974 -0.3694 -0.6769  0.0908
  649MOL0     C85549   3.930  11.242   4.905  0.0659  0.5215  0.5343
  649MOL0     C85550   4.085  11.269   4.901 -0.0477 -0.7718  0.3093
  649MOL0     C85551   4.137  11.319   5.041  0.7131  0.0276  0.7560
  649MOL0     C85552   4.120  11.467   5.080 -0.4259  0.6563 -0.9298
  649MOL0     N85553   4.196  11.495   5.205 -0.3187  0.5874 -0.6983
  649MOL0     C85554   4.142  11.504   5.331 -0.6290  0.1735  0.9613
  649MOL0     C85555   4.252  11.538   5.405  0.1840 -0.6833 -0.2525
  649MOL0     C85556   4.259  11.549   5.555 -0.6619  0.8632 -0.0431
  649MOL0     C85557   4.286  11.689   5.597  0.7335 -0.7690 -0.1715
  649MOL0     C85558   4.164  11.780   5.581 -0.0669  0.4669 -0.0476
  649MOL0     C85559   4.066  11.786   5.699  1.3658 -0.4299 -0.1806
  649MOL0     O85560   3.972  11.884   5.657 -0.5091  0.9803  0.0394
  649MOL0     C85561   3.858  11.847   5.592 -0.2993  1.0208  0.0170
  649MOL0     C85562   3.815  11.718   5.538  0.4000 -1.3869 -0.6712
  649MOL0     C85563   3.697  11.713   5.477 -0.1580 -0.6366 -0.9325
  649MOL0     C85564   3.607  11.817   5.477 -0.5532  0.1092  0.5081
  649MOL0     C85565   3.467  11.795   5.420 -0.3330  0.3221  1.1969
  649MOL0     O85566   3.411  11.669   5.431 -0.0061 -0.1829 -0.7464
  649MOL0     C85567   3.301  11.638   5.361 -0.1390 -0.4261  0.3471
  649MOL0     C85568   3.213  11.548   5.424  0.9462 -0.2388  0.3973
  649MOL0     C85569   3.088  11.517   5.360 -0.5169  0.1502  0.0716
  649MOL0     C85570   3.067  11.563   5.233  0.2527  0.3103 -0.0108
  649MOL0     O85571   2.955  11.522   5.159 -0.0387 -0.2216 -0.2264
  649MOL0     C85572   2.835  11.505   5.231  0.6743 -0.2343 -0.0328
  649MOL0     C85573   2.722  11.484   5.136 -0.3932 -0.1304  0.7787
  649MOL0     C85574   2.585  11.472   5.200 -0.5367 -0.4970 -0.4630
  649MOL0     C85575   2.573  11.379   5.312 -0.2443  0.4857 -0.5349
  649MOL0     C85576   2.415  11.363   5.350 -0.3828  1.1098 -0.2029
  649MOL0     C85577   2.410  11.228   5.419  0.9329  0.6413  0.2702
  649MOL0     C85578   2.259  11.197   5.447 -0.1015  0.8495  0.0903
  649MOL0     C85579   2.244  11.091   5.556 -0.2962  0.0668  0.6314
  649MOL0    Cl85580   2.076  11.122   5.601  0.1908  0.1675  0.6212
  649MOL0     C85581   3.156  11.632   5.164  0.7842 -0.5031  1.0125
  649MOL0     C85582   3.273  11.678   5.231  0.4121 -0.7307 -0.0119
  649MOL0     O85583   3.411  11.893   5.372 -0.0705 -0.2402 -0.1756
  649MOL0     C85584   3.648  11.944   5.527  0.7039  0.4327 -0.7381
  649MOL0     C85585   3.767  11.947   5.594 -0.1204 -0.1131  0.7089
  649MOL0     N85586   4.363  11.567   5.329 -0.5890 -0.3758  0.4186
  649MOL0     N85587   4.326  11.540   5.208  0.3102 -0.2820 -0.0434
  649MOL0     C85588   3.248  10.990   4.926  0.2656  0.3897  0.5578
  649MOL0     C85589   3.108  11.014   4.918 -0.4803 -0.2543  0.4710
  649MOL0     C85590   2.676  11.155   4.973  0.2882 -0.1813 -0.3561
  649MOL0     C85591   2.649  11.218   4.856  0.1555 -0.0152 -0.1683
  649MOL0     C85592   2.520  11.237   4.809  0.7606 -0.0109 -0.6538
  649MOL0     C85593   2.401  11.197   4.875 -0.9069  0.3365 -0.5867
  649MOL0     O85594   2.270  11.212   4.834  0.0883  0.5524 -0.1998
  649MOL0     C85595   2.246  11.325   4.745  1.1429 -0.2354  0.7895
  649MOL0     C85596   2.093  11.331   4.721  0.6158  0.2085  0.6634
  649MOL0     C85597   2.000  11.403   4.821 -0.4794  0.7449  0.2642
  649MOL0     C85598   1.975  11.311   4.935 -0.1573  0.3385  0.3916
  649MOL0     C85599   1.845  11.328   4.986 -0.1536  0.6040 -1.1432
  649MOL0     C85600   1.739  11.325   5.052  0.1163  0.4684  0.0861
  649MOL0     C85601   2.427  11.131   4.999 -0.3403 -0.1051 -0.4014
  649MOL0     C85602   2.560  11.103   5.043 -0.1785  0.0403  0.5625
  649MOL0     H85603   3.072  11.294   5.101  5.1337  1.7822  3.2083
  649MOL0     H85604   3.309  11.237   5.144  2.8696 -2.1147 -1.1751
  649MOL0     H85605   3.532  10.958   4.873 -1.2786  0.4269  0.2549
  649MOL0     H85606   3.491  10.858   5.020 -1.2395  0.0760  0.4614
  649MOL0     H85607   3.745  10.889   4.981  1.2875  1.2799 -2.3171
  649MOL0     H85608   3.689  10.976   5.117  1.8813  0.4711 -0.8791
  649MOL0     H85609   3.697  11.194   5.019 -0.9784 -0.3724 -0.2776
  649MOL0     H85610   3.707  11.119   4.853  2.5089  2.9038 -0.9662
  649MOL0     H85611   3.917  11.127   5.079  0.1115  1.3730 -0.2761
  649MOL0     H85612   3.935  11.027   4.927  0.8076  1.2708 -2.5122
  649MOL0     H85613   3.882  11.325   4.958  1.0367  1.6046 -0.2303
  649MOL0     H85614   3.889  11.241   4.804 -3.1149 -3.0378  1.6259
  649MOL0     H85615   4.104  11.348   4.828  3.4478 -1.0495  0.7253
  649MOL0     H85616   4.135  11.187   4.848  0.0105 -0.6816  0.2247
  649MOL0     H85617   4.102  11.253   5.121 -0.2619 -2.0087 -1.2156
  649MOL0     H85618   4.245  11.302   5.029  0.4008 -0.8648 -1.2327
  649MOL0     H85619   4.016  11.501   5.092 -0.6226 -0.4667  1.0425
  649MOL0     H85620   4.162  11.542   5.013 -0.3509  1.0813 -0.4212
  649MOL0     H85621   4.044  11.481   5.370 -0.1999 -1.3043  1.2338
  649MOL0     H85622   4.338  11.476   5.575 -2.0102 -1.3162 -2.1367
  649MOL0     H85623   4.168  11.502   5.594 -0.6263  0.0758 -0.8661
  649MOL0     H85624   4.371  11.734   5.546 -0.9992  2.0201 -0.8250
  649MOL0     H85625   4.310  11.701   5.703  0.3698  0.5871 -0.2161
  649MOL0     H85626   4.196  11.884   5.570 -0.2943  0.4981 -0.4421
  649MOL0     H85627   4.108  11.757   5.490 -1.1674 -1.2513  0.9975
  649MOL0     H85628   4.121  11.820   5.787  0.7877  2.1774 -0.7280
  649MOL0     H85629   4.014  11.692   5.722  1.3532 -0.4955 -0.4671
  649MOL0     H85630   3.888  11.638   5.527  2.2941  0.3169 -1.3208
  649MOL0     H85631   3.674  11.614   5.437  0.5499 -0.9531 -0.5767
  649MOL0     H85632   3.237  11.509   5.522 -1.6549 -0.7388  0.8953
  649MOL0     H85633   3.032  11.443   5.415  0.4939  0.0257  0.9761
  649MOL0     H85634   2.813  11.601   5.280 -1.8383 -2.0691  2.8137
  649MOL0     H85635   2.829  11.424   5.304  0.9333  0.7746  1.1489
  649MOL0     H85636   2.750  11.388   5.091 -0.7861  0.8504 -1.6643
  649MOL0     H85637   2.725  11.565   5.063 -1.5598  0.9547  1.8909
  649MOL0     H85638   2.519  11.448   5.117 -1.9726  2.8027 -0.4260
  649MOL0     H85639   2.557  11.575   5.227  3.1714  0.3919  0.6152
  649MOL0     H85640   2.607  11.283   5.274  0.2660  0.1360  0.7556
  649MOL0     H85641   2.633  11.403   5.400 -2.8707  3.4250  0.6650
  649MOL0     H85642   2.353  11.374   5.260 -1.6012  1.2000  0.6346
  649MOL0     H85643   2.405  11.444   5.422 -0.2844 -1.0864  2.4331
  649MOL0     H85644   2.474  11.226   5.508  2.3892 -1.6585 -0.7432
  649MOL0     H85645   2.447  11.147   5.356  2.5419  1.2220  0.4120
  649MOL0     H85646   2.212  11.291   5.475  0.7501  1.1417  0.5869
  649MOL0     H85647   2.215  11.158   5.355  0.9054  2.4909 -1.1334
  649MOL0     H85648   2.310  11.100   5.642 -1.9576 -0.5796  2.0402
  649MOL0     H85649   2.246  10.994   5.505 -1.2784  0.2058  0.3067
  649MOL0     H85650   3.136  11.653   5.059 -0.3879 -0.5721  1.2082
  649MOL0     H85651   3.325  11.756   5.176 -1.0146  0.9323  0.8754
  649MOL0     H85652   3.573  12.022   5.529 -0.9863 -1.1096  1.8942
  649MOL0     H85653   3.787  12.041   5.645 -2.1198 -0.4771  2.2754
  649MOL0     H85654   3.286  10.898   4.884 -1.3481  0.5647 -1.4219
  649MOL0     H85655   3.051  10.950   4.851  0.4382  0.8989 -1.5088
  649MOL0     H85656   2.739  11.256   4.809  0.3664  0.4684  0.6145
  649MOL0     H85657   2.519  11.275   4.707 -1.4414 -0.2033 -0.7461
  649MOL0     H85658   2.286  11.320   4.643  0.2371 -0.9400  0.4542
  649MOL0     H85659   2.265  11.425   4.786  0.8280  0.6169 -1.0323
  649MOL0     H85660   2.089  11.382   4.624  0.6241 -0.6804  0.1816
  649MOL0     H85661   2.050  11.233   4.700  0.6571  0.3310 -0.0214
  649MOL0     H85662   1.911  11.450   4.778 -1.5497 -0.3460  1.1896
  649MOL0     H85663   2.066  11.477   4.868  0.7226 -1.2425  1.8703
  649MOL0     H85664   1.975  11.206   4.904 -1.7299  0.4575 -0.0868
  649MOL0     H85665   2.048  11.312   5.017  0.5779 -1.0807 -0.2105
  649MOL0     H85666   1.646  11.304   5.102 -0.9953  2.2013 -1.1399
  649MOL0     H85667   2.339  11.098   5.052  2.0401 -3.4518  1.8597
  649MOL0     H85668   2.586  11.054   5.136  1.3175 -2.1357 -0.8793
  650MOL0     O85669  10.533   6.071   2.615  0.0785 -0.6843 -0.0868
  650MOL0     C85670  10.559   6.095   2.498 -0.2521 -0.3645  0.0069
  650MOL0     O85671  10.490   6.057   2.392 -0.8716 -0.4998  0.4616
  650MOL0     C85672  10.366   6.001   2.413 -0.2544 -1.0151 -0.6271
  650MOL0     C85673  10.356   5.876   2.472 -1.1347 -0.1402  0.5248
  650MOL0     C85674  10.228   5.814   2.485  0.5923 -0.6837 -0.3538
  650MOL0     C85675  10.122   5.881   2.434  0.1476  0.1116 -0.6091
  650MOL0     O85676  10.003   5.812   2.441 -0.1419 -0.3644  0.3329
  650MOL0     C85677   9.882   5.894   2.447 -0.3660  0.2022  0.8997
  650MOL0     C85678   9.754   5.802   2.458 -0.7249  0.0916  0.2871
  650MOL0     C85679   9.618   5.862   2.405  0.8636  0.0558 -0.6035
  650MOL0     C85680   9.595   5.914   2.267 -0.5345 -0.8573 -0.3000
  650MOL0     C85681   9.451   5.958   2.231  0.1448 -0.2895 -0.9382
  650MOL0     C85682   9.447   6.043   2.097 -0.8609 -0.3341  0.0776
  650MOL0     C85683   9.317   6.119   2.074  0.7315  0.5021  0.2249
  650MOL0     C85684   9.301   6.195   1.946 -0.4514 -0.1761  0.0750
  650MOL0     N85685   9.177   6.261   1.909  0.0828  0.3780 -0.5912
  650MOL0     C85686   9.145   6.387   1.944  0.7405  0.8306  0.2899
  650MOL0     C85687   9.007   6.395   1.925 -0.7191 -0.2941  0.3364
  650MOL0     C85688   8.912   6.508   1.948 -0.9379 -0.4588 -0.0683
  650MOL0     C85689   8.878   6.564   2.090  0.2352  0.0395 -0.3721
  650MOL0     C85690   8.778   6.499   2.184  0.4500 -0.0434 -0.2053
  650MOL0     C85691   8.637   6.471   2.133  0.0537 -0.3064  0.0655
  650MOL0     O85692   8.548   6.437   2.236  0.1473  0.0984  0.3256
  650MOL0     C85693   8.418   6.433   2.207 -0.3443  0.6212 -0.1219
  650MOL0     C85694   8.367   6.441   2.078  1.0348  0.3557 -0.5875
  650MOL0     C85695   8.229   6.417   2.057  0.2174  0.2010  0.9206
  650MOL0     C85696   8.137   6.384   2.153 -0.1425  0.0759 -0.3881
  650MOL0     C85697   7.995   6.344   2.118  0.4039  0.1958 -1.4200
  650MOL0     O85698   7.909   6.315   2.216 -0.6283  0.4402  0.3656
  650MOL0     C85699   7.778   6.298   2.178 -0.1276  0.2995  0.1237
  650MOL0     C85700   7.709   6.181   2.198 -0.4648 -0.9301  0.4451
  650MOL0     C85701   7.576   6.159   2.164  0.4847 -0.5256 -0.2405
  650MOL0     C85702   7.488   6.270   2.135 -0.0930  0.4586 -0.0430
  650MOL0     O85703   7.356   6.276   2.115 -0.4263 -0.5899 -0.0093
  650MOL0     C85704   7.286   6.151   2.102 -0.1624 -0.2377  0.0622
  650MOL0     C85705   7.143   6.180   2.147 -0.3352 -0.1158 -0.3673
  650MOL0     C85706   7.058   6.065   2.139 -0.3233 -0.1854  0.3143
  650MOL0     C85707   6.930   6.096   2.213 -0.1788  0.1915 -0.4722
  650MOL0     C85708   6.819   5.989   2.185 -0.9179 -0.0473  0.3967
  650MOL0     C85709   6.682   6.039   2.189  0.6086 -0.1113  0.8410
  650MOL0     C85710   6.648   6.106   2.322  0.3916 -0.7212 -0.5681
  650MOL0     C85711   6.521   6.181   2.314 -0.2066  0.6534 -0.1025
  650MOL0    Cl85712   6.465   6.218   2.485 -0.4917 -0.1978  0.1086
  650MOL0     C85713   7.553   6.393   2.125  0.1943  1.4716  0.0081
  650MOL0     C85714   7.694   6.406   2.138  0.8165 -0.7419 -0.6387
  650MOL0     O85715   7.972   6.363   2.000  0.8308  0.6103  0.5539
  650MOL0     C85716   8.182   6.387   2.286 -0.3864 -0.1120  0.0994
  650MOL0     C85717   8.318   6.415   2.312  0.1019 -0.3877  0.7185
  650MOL0     N85718   8.977   6.284   1.850 -1.4947  0.0928 -0.1019
  650MOL0     N85719   9.069   6.195   1.847  0.0609  0.0262 -0.0991
  650MOL0     C85720  10.133   6.001   2.367  0.5527 -0.6497 -0.4945
  650MOL0     C85721  10.261   6.060   2.362 -0.2698  0.5297 -0.4050
  650MOL0     C85722  10.691   6.159   2.466  0.0748 -0.8539  0.3182
  650MOL0     C85723  10.761   6.215   2.579  0.2679 -0.1743 -0.0497
  650MOL0     C85724  10.876   6.282   2.549 -0.8020  0.9270 -0.0109
  650MOL0     C85725  10.942   6.269   2.425 -0.0494  0.9259 -0.3640
  650MOL0     O85726  11.057   6.329   2.376  0.3448 -0.2660  0.3677
  650MOL0     C85727  11.134   6.407   2.460 -0.4063  0.2837 -0.0781
  650MOL0     C85728  11.272   6.381   2.411 -0.4197 -0.3155  0.0868
  650MOL0     C85729  11.308   6.421   2.269  0.2398  0.2617 -0.2049
  650MOL0     C85730  11.457   6.403   2.246 -0.1729  0.1807  0.3071
  650MOL0     C85731  11.547   6.469   2.332 -0.3701  0.2311 -0.5976
  650MOL0     C85732  11.617   6.546   2.394  0.2024  0.2151 -0.7628
  650MOL0     C85733  10.886   6.186   2.326  0.3343 -0.7538 -1.4959
  650MOL0     C85734  10.756   6.137   2.345 -0.4412 -0.1030 -0.9328
  650MOL0     H85735  10.452   5.838   2.504 -0.1738  1.2798 -0.5849
  650MOL0     H85736  10.218   5.714   2.525  1.1045  0.4886  2.9683
  650MOL0     H85737   9.870   5.960   2.361  0.4778 -2.1805 -1.1706
  650MOL0     H85738   9.878   5.940   2.546 -1.2295 -1.1237  1.5102
  650MOL0     H85739   9.729   5.772   2.560 -0.9837 -0.2122  0.1371
  650MOL0     H85740   9.780   5.710   2.405 -2.8493 -0.8803  0.8208
  650MOL0     H85741   9.577   5.941   2.468  2.3793 -0.5183  1.1972
  650MOL0     H85742   9.549   5.778   2.414  1.4224 -0.6214 -2.2117
  650MOL0     H85743   9.669   5.994   2.252  1.1385 -2.1142  0.8948
  650MOL0     H85744   9.610   5.836   2.192  0.7251 -1.9076  1.0068
  650MOL0     H85745   9.415   6.018   2.315  2.5961 -0.4517  0.3101
  650MOL0     H85746   9.395   5.866   2.217  0.7621 -0.7665 -0.3210
  650MOL0     H85747   9.471   5.989   2.005 -1.5191  0.8994 -0.8434
  650MOL0     H85748   9.523   6.122   2.105  0.6582 -1.4654 -2.1899
  650MOL0     H85749   9.238   6.044   2.084  0.6190  0.7024  0.9078
  650MOL0     H85750   9.302   6.199   2.148  0.3185  1.9169 -1.3200
  650MOL0     H85751   9.338   6.125   1.871  0.8599  0.4079  0.1475
  650MOL0     H85752   9.377   6.273   1.943 -0.3750 -0.2476  0.1466
  650MOL0     H85753   9.204   6.469   1.984  1.5225  1.7400 -2.5576
  650MOL0     H85754   8.820   6.492   1.891 -2.2240  1.6803  1.2324
  650MOL0     H85755   8.961   6.588   1.892 -0.7977 -0.0386  0.6380
  650MOL0     H85756   8.840   6.666   2.081 -3.3481 -1.2706 -2.3393
  650MOL0     H85757   8.967   6.567   2.153 -0.1415 -1.8239  0.3114
  650MOL0     H85758   8.825   6.407   2.218  1.4661  1.3406  2.4419
  650MOL0     H85759   8.757   6.574   2.261 -2.3306  0.2300 -1.1003
  650MOL0     H85760   8.636   6.385   2.065 -0.3546 -0.4580  0.2609
  650MOL0     H85761   8.601   6.564   2.089 -1.7714 -1.0222 -0.0250
  650MOL0     H85762   8.426   6.455   1.988  1.6844  2.2215  0.0732
  650MOL0     H85763   8.204   6.427   1.952 -2.7280  1.8878  1.6571
  650MOL0     H85764   7.766   6.097   2.237  0.0773 -1.9534 -2.3200
  650MOL0     H85765   7.548   6.054   2.157  1.5784 -0.7765 -1.2003
  650MOL0     H85766   7.318   6.072   2.170  0.1904 -1.0656 -1.0321
  650MOL0     H85767   7.285   6.109   2.001  1.5590  1.0428 -0.5302
  650MOL0     H85768   7.110   6.251   2.071  1.1012 -0.3945 -1.2792
  650MOL0     H85769   7.146   6.233   2.243 -1.5919 -0.2735 -0.2222
  650MOL0     H85770   7.122   5.991   2.189  2.1079  1.2884 -0.4736
  650MOL0     H85771   7.034   6.045   2.034 -2.1976 -0.2335  0.7072
  650MOL0     H85772   6.945   6.086   2.321 -3.8908 -0.6852  0.0834
  650MOL0     H85773   6.904   6.199   2.187  0.1068  0.5877  0.7505
  650MOL0     H85774   6.823   5.900   2.248  2.3912 -1.4581 -1.5481
  650MOL0     H85775   6.836   5.954   2.083  0.6940 -3.1634  1.6030
  650MOL0     H85776   6.612   5.960   2.160  2.5403 -1.4357 -0.4513
  650MOL0     H85777   6.672   6.118   2.113  2.0549 -0.6401  0.0757
  650MOL0     H85778   6.650   6.029   2.400  0.5044  0.2630  0.4373
  650MOL0     H85779   6.717   6.177   2.367 -1.7528  1.0273  0.1531
  650MOL0     H85780   6.441   6.123   2.268  2.6550 -3.4793 -0.4910
  650MOL0     H85781   6.538   6.278   2.266  0.7127  0.2316 -0.6495
  650MOL0     H85782   7.498   6.483   2.100 -0.2403  1.4484  0.8491
  650MOL0     H85783   7.741   6.503   2.128  2.0518 -1.3036 -0.3880
  650MOL0     H85784   8.112   6.369   2.366 -2.0834  0.1888 -1.2634
  650MOL0     H85785   8.354   6.413   2.414 -0.3000 -3.6416  0.9052
  650MOL0     H85786  10.061   6.064   2.316  0.7982 -0.1528 -0.2301
  650MOL0     H85787  10.278   6.156   2.313 -0.2761  0.3683 -0.7256
  650MOL0     H85788  10.712   6.227   2.675  1.7382 -0.1042  0.7172
  650MOL0     H85789  10.920   6.345   2.625  0.7356  0.1435 -0.2190
  650MOL0     H85790  11.123   6.385   2.567 -0.9752  0.8920 -0.0020
  650MOL0     H85791  11.103   6.512   2.450 -2.5278 -0.0691  1.8467
  650MOL0     H85792  11.338   6.433   2.481  0.0213  0.7288 -1.0727
  650MOL0     H85793  11.294   6.276   2.435 -0.8858 -0.2456  0.8365
  650MOL0     H85794  11.277   6.526   2.260  0.6529  0.2628 -1.8958
  650MOL0     H85795  11.253   6.359   2.197 -1.0902 -0.2129  1.1527
  650MOL0     H85796  11.483   6.297   2.246 -0.0314  0.2106  1.0443
  650MOL0     H85797  11.466   6.442   2.144 -0.8483 -1.0010 -0.2138
  650MOL0     H85798  11.681   6.621   2.435 -1.5755  0.1155  2.5732
  650MOL0     H85799  10.941   6.173   2.233  0.0205  1.4687 -2.0448
  650MOL0     H85800  10.695   6.080   2.276 -1.2221 -1.3701  0.7214
  651MOL0     O85801   4.362   8.903   0.522  0.0249 -0.2351 -0.0199
  651MOL0     C85802   4.425   8.865   0.621 -0.3009 -0.7445  0.4724
  651MOL0     O85803   4.365   8.827   0.743 -1.2632  0.2770  0.2849
  651MOL0     C85804   4.227   8.827   0.770  0.3253  0.3765  0.3530
  651MOL0     C85805   4.143   8.913   0.700 -0.0508  0.1198 -0.1024
  651MOL0     C85806   4.011   8.920   0.738  1.3975  0.0162  0.2528
  651MOL0     C85807   3.954   8.844   0.834  0.6463 -0.0598  0.3490
  651MOL0     O85808   3.817   8.854   0.846 -0.4007  0.6616 -0.6866
  651MOL0     C85809   3.752   8.794   0.956 -0.0596  0.5836 -0.7823
  651MOL0     C85810   3.629   8.866   0.995 -0.2985 -0.0693 -0.3251
  651MOL0     C85811   3.664   9.012   1.038  1.0307 -0.0242 -0.3438
  651MOL0     C85812   3.540   9.078   1.098  0.4716 -0.3703  0.2075
  651MOL0     C85813   3.547   9.071   1.250  0.0202 -0.3961 -0.0083
  651MOL0     C85814   3.405   9.099   1.318  0.4192 -0.1793 -0.0646
  651MOL0     C85815   3.316   9.221   1.273  0.4024  0.4720 -0.6319
  651MOL0     C85816   3.375   9.355   1.312 -0.1279  0.0035 -0.3293
  651MOL0     N85817   3.286   9.455   1.269  0.2723  0.5736 -0.8372
  651MOL0     C85818   3.250   9.560   1.352 -0.1261 -0.8453  0.1273
  651MOL0     C85819   3.182   9.648   1.274  0.3278 -0.2058 -0.1468
  651MOL0     C85820   3.093   9.760   1.337 -0.5268 -0.1102  0.1525
  651MOL0     C85821   3.090   9.893   1.255  0.3051  0.0879  0.7578
  651MOL0     C85822   2.989   9.990   1.316 -0.4037 -0.0419 -0.0723
  651MOL0     C85823   2.850   9.998   1.257 -0.6511  0.6913 -0.0707
  651MOL0     O85824   2.789   9.867   1.250 -0.0217 -0.2002  0.2914
  651MOL0     C85825   2.667   9.844   1.191 -0.4417 -0.2310 -0.1967
  651MOL0     C85826   2.653   9.710   1.153  0.4103  0.5684  0.3339
  651MOL0     C85827   2.553   9.680   1.062  0.3986  0.5988  0.2327
  651MOL0     C85828   2.464   9.769   1.005  0.6177  0.4471 -0.3302
  651MOL0     C85829   2.340   9.717   0.942 -0.1928  0.5565 -0.0384
  651MOL0     O85830   2.286   9.802   0.856 -0.3448  0.1939 -0.4220
  651MOL0     C85831   2.162   9.791   0.798 -0.4148 -0.6709  1.0065
  651MOL0     C85832   2.069   9.684   0.804 -0.0718  0.1490  0.6124
  651MOL0     C85833   1.947   9.701   0.736  0.6741 -0.3731  0.2517
  651MOL0     C85834   1.910   9.824   0.667  0.3445  0.1374  0.5258
  651MOL0     O85835   1.779   9.825   0.618 -1.1142 -0.6150 -0.2967
  651MOL0     C85836   1.728   9.958   0.619 -0.1968  0.1933 -0.9492
  651MOL0     C85837   1.575   9.957   0.609 -0.3489 -0.1414 -0.5589
  651MOL0     C85838   1.521   9.866   0.500  0.1124  0.2820  0.0520
  651MOL0     C85839   1.368   9.841   0.511 -0.3943  0.3210 -0.5815
  651MOL0     C85840   1.291   9.976   0.548 -0.2422  1.4678 -0.2096
  651MOL0     C85841   1.141   9.954   0.538  0.2334 -1.3460  0.2890
  651MOL0     C85842   1.091   9.924   0.401 -0.8331  0.4670  0.3958
  651MOL0     C85843   0.988  10.038   0.353 -0.2153  0.7691  0.2725
  651MOL0    Cl85844   0.921  10.000   0.183 -0.5245 -0.1432  0.0524
  651MOL0     C85845   2.006   9.922   0.659  0.1995 -0.9215  0.4155
  651MOL0     C85846   2.127   9.905   0.721  0.0870 -0.5750  0.4070
  651MOL0     O85847   2.310   9.601   0.965  0.7682 -0.2729  0.5834
  651MOL0     C85848   2.477   9.900   1.037  0.0071 -0.3088  0.8188
  651MOL0     C85849   2.586   9.937   1.125  0.9477  0.4723 -0.0471
  651MOL0     N85850   3.198   9.607   1.141 -0.0020 -0.3378 -0.2298
  651MOL0     N85851   3.268   9.504   1.142  0.0264  0.6358 -0.2515
  651MOL0     C85852   4.032   8.755   0.900  0.2271 -0.5439 -0.4168
  651MOL0     C85853   4.168   8.753   0.881 -0.4625 -0.7294  0.0721
  651MOL0     C85854   4.571   8.857   0.618  0.1613  0.7117  0.0619
  651MOL0     C85855   4.641   8.837   0.740  0.1776  0.2323 -1.5799
  651MOL0     C85856   4.781   8.836   0.737 -0.1259  0.3932 -0.6312
  651MOL0     C85857   4.849   8.834   0.611  0.1434  0.2399 -0.0699
  651MOL0     O85858   4.988   8.851   0.587 -0.0854  0.2306  0.2021
  651MOL0     C85859   5.070   8.841   0.703 -0.7769  0.8208  0.1301
  651MOL0     C85860   5.217   8.765   0.679 -0.3591 -0.6898  1.1166
  651MOL0     C85861   5.307   8.854   0.599  0.4466 -0.3034  0.0962
  651MOL0     C85862   5.445   8.792   0.572 -0.1996 -0.1064 -0.1074
  651MOL0     C85863   5.550   8.890   0.554 -0.8509 -0.3705 -0.1341
  651MOL0     C85864   5.641   8.969   0.537 -1.3045 -0.3742 -0.5612
  651MOL0     C85865   4.775   8.823   0.493 -0.7236  0.9671 -0.0841
  651MOL0     C85866   4.642   8.849   0.498  0.8641  1.2174  0.3932
  651MOL0     H85867   4.179   8.972   0.615  1.2617  1.2431  1.1832
  651MOL0     H85868   3.955   8.990   0.677  0.2376 -0.1024  1.1528
  651MOL0     H85869   3.811   8.784   1.048 -3.1345 -0.4746  1.2795
  651MOL0     H85870   3.735   8.688   0.932 -2.5961  0.7369 -0.0281
  651MOL0     H85871   3.584   8.813   1.080 -1.0494  0.9439 -0.0721
  651MOL0     H85872   3.550   8.867   0.919 -1.1505  0.2971  0.5443
  651MOL0     H85873   3.697   9.075   0.954 -2.4962  0.4333 -1.5225
  651MOL0     H85874   3.748   9.013   1.108 -0.1579  1.5122  1.1361
  651MOL0     H85875   3.534   9.184   1.071 -0.7296 -1.0956 -2.7342
  651MOL0     H85876   3.456   9.038   1.041  1.3717  0.1381 -1.5434
  651MOL0     H85877   3.615   9.143   1.297  0.4683 -0.1674 -0.9850
  651MOL0     H85878   3.577   8.968   1.274 -1.5639  0.0055  4.8498
  651MOL0     H85879   3.421   9.100   1.426  2.1047 -0.6171 -0.2867
  651MOL0     H85880   3.343   9.011   1.295 -0.9573  1.0519 -1.2354
  651MOL0     H85881   3.278   9.211   1.171  1.6928 -3.7650 -0.8665
  651MOL0     H85882   3.216   9.218   1.317  0.8675  0.9578  0.5094
  651MOL0     H85883   3.476   9.378   1.276 -0.3455  2.0027  0.2277
  651MOL0     H85884   3.385   9.354   1.421 -2.1193  0.3975 -0.1209
  651MOL0     H85885   3.275   9.580   1.456  2.6848  2.2325 -0.9361
  651MOL0     H85886   3.128   9.776   1.440  0.7579 -4.8095  0.7024
  651MOL0     H85887   2.990   9.723   1.343 -0.6463  0.0364 -0.8534
  651MOL0     H85888   3.078   9.882   1.146  1.9464  1.6554  0.3587
  651MOL0     H85889   3.195   9.926   1.258  0.8214 -1.3196 -0.4124
  651MOL0     H85890   2.977   9.981   1.425 -0.7601  1.5198  0.0477
  651MOL0     H85891   3.034  10.089   1.303  1.1008 -0.9372 -2.2160
  651MOL0     H85892   2.860  10.047   1.160 -2.1558 -0.3341 -0.8082
  651MOL0     H85893   2.782  10.062   1.314 -0.4962  1.3346 -0.6068
  651MOL0     H85894   2.711   9.629   1.196 -0.4251 -0.6522 -0.7509
  651MOL0     H85895   2.550   9.573   1.044 -0.3320  0.7561 -0.6706
  651MOL0     H85896   2.084   9.598   0.868 -0.0513  0.5532  1.1598
  651MOL0     H85897   1.872   9.622   0.732  0.3041 -0.0208  0.0484
  651MOL0     H85898   1.770  10.016   0.536 -0.7159  0.9021 -0.7366
  651MOL0     H85899   1.750  10.019   0.707 -0.8796 -1.5542  0.4993
  651MOL0     H85900   1.545  10.055   0.572 -0.7487 -0.5202 -1.2799
  651MOL0     H85901   1.528   9.930   0.704 -1.0985 -1.5314 -1.2850
  651MOL0     H85902   1.568   9.768   0.510 -0.2322  0.1799  0.7063
  651MOL0     H85903   1.540   9.906   0.400 -0.9846 -1.7037 -1.0187
  651MOL0     H85904   1.332   9.798   0.417  1.3881  1.4708 -1.8391
  651MOL0     H85905   1.361   9.770   0.594  2.9302  0.0835 -0.4028
  651MOL0     H85906   1.319  10.052   0.474 -0.7611 -0.7699 -2.8624
  651MOL0     H85907   1.323   9.999   0.649  0.1595 -0.8352  0.2454
  651MOL0     H85908   1.092  10.048   0.566  1.4633 -0.7393  0.4647
  651MOL0     H85909   1.105   9.870   0.599 -2.4908 -2.7097 -2.8556
  651MOL0     H85910   1.177   9.921   0.333 -1.7671 -0.4236 -0.7927
  651MOL0     H85911   1.044   9.826   0.398  1.7339 -0.8273  0.3536
  651MOL0     H85912   1.037  10.135   0.363  0.3417  0.2819  3.1698
  651MOL0     H85913   0.910  10.046   0.429 -3.0801  0.1117 -2.3856
  651MOL0     H85914   1.995  10.006   0.591  0.5921 -1.5323 -0.4281
  651MOL0     H85915   2.188   9.993   0.713  1.1322 -1.4022 -1.0904
  651MOL0     H85916   2.430   9.976   0.975  0.5324 -3.1169 -3.4530
  651MOL0     H85917   2.608  10.042   1.145 -1.4458  1.6446 -2.9779
  651MOL0     H85918   3.998   8.682   0.973 -1.1266 -0.2332 -0.7104
  651MOL0     H85919   4.242   8.703   0.942 -1.5764  0.9796  3.0425
  651MOL0     H85920   4.585   8.835   0.833  2.8168  0.6927  0.1510
  651MOL0     H85921   4.832   8.841   0.832 -0.5884  0.5856 -0.3929
  651MOL0     H85922   5.020   8.785   0.783  1.3675 -0.3958  0.6941
  651MOL0     H85923   5.100   8.943   0.730  1.4936  0.0822  0.5454
  651MOL0     H85924   5.268   8.748   0.774 -0.1417 -1.8653  0.8039
  651MOL0     H85925   5.209   8.670   0.625 -0.0546  1.1765 -2.5393
  651MOL0     H85926   5.295   8.954   0.641 -1.1929 -0.2663 -0.3796
  651MOL0     H85927   5.268   8.873   0.499  2.0030 -1.0473 -0.6727
  651MOL0     H85928   5.473   8.724   0.653  2.8121  1.5961  0.4326
  651MOL0     H85929   5.431   8.726   0.485  1.1907 -0.4876 -0.0633
  651MOL0     H85930   5.724   9.037   0.533 -1.4888 -0.1993 -2.1721
  651MOL0     H85931   4.814   8.841   0.394  1.3133 -0.2802  0.4550
  651MOL0     H85932   4.583   8.848   0.407 -1.7424  3.2707  1.9125
  652MOL0     O85933   6.451   9.709   9.279  0.0981 -0.3201  0.2824
  652MOL0     C85934   6.508   9.809   9.257 -1.4041  0.2971  1.0604
  652MOL0     O85935   6.455   9.916   9.195 -0.4892 -0.1611  0.0505
  652MOL0     C85936   6.322   9.940   9.199  0.2997  1.4359  0.3789
  652MOL0     C85937   6.276  10.058   9.247  0.9019 -0.3913 -0.1755
  652MOL0     C85938   6.137  10.092   9.248  0.1314 -0.0923 -0.3533
  652MOL0     C85939   6.048  10.003   9.185  0.3834  0.4751  0.0542
  652MOL0     O85940   5.908  10.020   9.166  0.4199 -1.0527  0.6747
  652MOL0     C85941   5.837  10.128   9.230  0.7127 -0.0194  0.8320
  652MOL0     C85942   5.694  10.086   9.226 -0.0209 -0.8433 -0.5835
  652MOL0     C85943   5.604  10.188   9.296 -0.0319  0.5368  0.7884
  652MOL0     C85944   5.464  10.125   9.308 -0.1046 -0.9540 -0.7845
  652MOL0     C85945   5.374  10.213   9.395  0.6124  0.5898  0.4085
  652MOL0     C85946   5.346  10.368   9.364  0.0652 -0.1352 -0.4007
  652MOL0     C85947   5.330  10.391   9.213 -0.3356  0.2818 -0.0042
  652MOL0     C85948   5.263  10.528   9.167  0.5356  0.4815 -1.0221
  652MOL0     N85949   5.128  10.559   9.223 -1.4373  0.6882  0.5049
  652MOL0     C85950   5.021  10.472   9.208  0.2090 -0.4474  0.3402
  652MOL0     C85951   4.914  10.532   9.266  0.2973  0.2590  0.0440
  652MOL0     C85952   4.773  10.498   9.272 -0.3061  0.5839  0.5897
  652MOL0     C85953   4.747  10.403   9.385 -0.7228  0.7560  0.6984
  652MOL0     C85954   4.681  10.455   9.509  0.0304 -0.2088 -0.5167
  652MOL0     C85955   4.767  10.546   9.592 -0.9471  0.1817 -0.6958
  652MOL0     O85956   4.697  10.604   9.693 -0.8221  0.5795 -0.4320
  652MOL0     C85957   4.593  10.684   9.655  0.4667  0.4530  0.3891
  652MOL0     C85958   4.481  10.698   9.742  0.3116 -0.2050 -0.1642
  652MOL0     C85959   4.367  10.765   9.710  0.3542  0.5685  0.2152
  652MOL0     C85960   4.349  10.817   9.581 -0.8169  0.3774  0.3041
  652MOL0     C85961   4.218  10.863   9.522  0.1838 -0.2066  0.0053
  652MOL0     O85962   4.112  10.897   9.604  0.4187  0.4993  0.3857
  652MOL0     C85963   3.979  10.914   9.567 -0.3536  0.0564 -0.1304
  652MOL0     C85964   3.912  10.872   9.457 -0.7003  0.2576  0.4309
  652MOL0     C85965   3.772  10.895   9.450 -0.8896  0.1960  0.1847
  652MOL0     C85966   3.698  10.949   9.551 -0.2602 -0.1651  0.7312
  652MOL0     O85967   3.561  10.961   9.541 -0.0706  0.5123 -0.4044
  652MOL0     C85968   3.504  10.969   9.409 -0.1189  0.4881  0.1874
  652MOL0     C85969   3.355  10.987   9.428  0.3267  0.2594  0.3409
  652MOL0     C85970   3.277  10.995   9.302 -0.0647 -0.0697  0.2344
  652MOL0     C85971   3.131  10.995   9.331  0.8748  0.1474  0.5815
  652MOL0     C85972   3.035  10.984   9.204  0.1511 -0.4220 -1.0874
  652MOL0     C85973   2.885  11.011   9.235  0.2376  1.1444 -0.2554
  652MOL0     C85974   2.792  10.982   9.115  0.4926  0.1530  0.7557
  652MOL0     C85975   2.648  11.043   9.117 -0.4831 -0.3462 -0.1566
  652MOL0    Cl85976   2.554  11.000   8.964 -0.0449 -0.5381 -0.0989
  652MOL0     C85977   3.762  10.988   9.670  0.1562 -0.1576  0.7780
  652MOL0     C85978   3.898  10.965   9.672 -1.2172  0.4644 -0.2010
  652MOL0     O85979   4.218  10.887   9.399  0.5086  0.1391  0.2254
  652MOL0     C85980   4.457  10.805   9.493 -0.0356  0.5907  1.0560
  652MOL0     C85981   4.583  10.753   9.529 -0.0308 -0.5127 -0.3647
  652MOL0     N85982   4.954  10.655   9.316 -0.9528  0.8532  0.5391
  652MOL0     N85983   5.082  10.668   9.283  0.0459 -0.3559 -0.3564
  652MOL0     C85984   6.091   9.884   9.136  0.0383  0.4578  0.3313
  652MOL0     C85985   6.220   9.850   9.154 -0.9233  0.8347 -0.1211
  652MOL0     C85986   6.658   9.810   9.278  0.5220 -0.1669  0.2233
  652MOL0     C85987   6.731   9.921   9.249 -0.5710 -0.2930 -0.0759
  652MOL0     C85988   6.872   9.920   9.267 -0.2133  0.5285  0.1986
  652MOL0     C85989   6.937   9.804   9.316 -0.2554  0.0056 -0.1347
  652MOL0     O85990   7.064   9.803   9.351 -0.2199 -0.2015  0.0007
  652MOL0     C85991   7.144   9.695   9.303  0.9435 -0.0586  1.0286
  652MOL0     C85992   7.277   9.709   9.372  0.1352  0.0830  0.2853
  652MOL0     C85993   7.293   9.667   9.522  0.8195 -0.1733 -0.0720
  652MOL0     C85994   7.443   9.676   9.559  1.1100 -0.7299 -0.9373
  652MOL0     C85995   7.538   9.589   9.484  0.9529  0.2833 -0.6871
  652MOL0     C85996   7.606   9.502   9.438 -0.8818 -0.7479  0.2328
  652MOL0     C85997   6.866   9.692   9.340  0.7116 -0.4201  0.2649
  652MOL0     C85998   6.723   9.692   9.329 -1.1382 -1.1752  1.4397
  652MOL0     H85999   6.348  10.132   9.280 -1.4853  2.2756 -0.6025
  652MOL0     H86000   6.123  10.189   9.295  1.1321  0.1422 -0.5097
  652MOL0     H86001   5.857  10.221   9.175 -0.3145  0.0925  0.6428
  652MOL0     H86002   5.870  10.134   9.335  2.6946  1.8003  0.1965
  652MOL0     H86003   5.686   9.989   9.276 -0.7540 -0.8021 -0.6085
  652MOL0     H86004   5.654  10.071   9.125 -1.6198  1.0467 -0.2831
  652MOL0     H86005   5.608  10.267   9.220  0.4333 -1.1620 -1.0606
  652MOL0     H86006   5.635  10.220   9.395 -0.0377  2.5215  0.1782
  652MOL0     H86007   5.420  10.115   9.208 -0.8965  2.9940 -1.0205
  652MOL0     H86008   5.475  10.026   9.351 -0.0575 -2.0378 -3.1361
  652MOL0     H86009   5.409  10.192   9.496  1.7330 -2.1725 -0.4815
  652MOL0     H86010   5.279  10.158   9.392 -0.2365  1.9960  0.3250
  652MOL0     H86011   5.435  10.418   9.405 -0.2840  0.3836 -0.2751
  652MOL0     H86012   5.260  10.408   9.417 -0.2270  1.0821 -1.7495
  652MOL0     H86013   5.434  10.393   9.181 -0.2460 -2.2790 -0.0961
  652MOL0     H86014   5.265  10.315   9.169 -2.7147  2.6240 -0.7805
  652MOL0     H86015   5.246  10.521   9.059  1.0630  1.4430 -1.1797
  652MOL0     H86016   5.330  10.613   9.182 -2.1038  2.2327  2.0274
  652MOL0     H86017   5.019  10.374   9.160 -1.9067 -0.1071 -0.3591
  652MOL0     H86018   4.737  10.445   9.183 -1.4076  0.2143  1.2372
  652MOL0     H86019   4.711  10.587   9.284 -0.5649  0.0772  3.9117
  652MOL0     H86020   4.837  10.347   9.411 -0.0254  0.7178 -1.5064
  652MOL0     H86021   4.678  10.329   9.345  0.2719  0.8142 -1.2747
  652MOL0     H86022   4.587  10.509   9.489 -1.3384 -1.7067  1.5019
  652MOL0     H86023   4.650  10.377   9.578  1.3560  2.4070  3.4165
  652MOL0     H86024   4.826  10.621   9.539 -2.4253  0.5496 -1.8931
  652MOL0     H86025   4.844  10.488   9.643  1.0673  0.6267 -3.0577
  652MOL0     H86026   4.496  10.653   9.840  1.9526 -0.7161 -0.6183
  652MOL0     H86027   4.294  10.782   9.787 -1.5561 -0.8236 -1.1834
  652MOL0     H86028   3.966  10.825   9.375 -0.0919 -1.4228  1.7437
  652MOL0     H86029   3.737  10.870   9.351 -0.4190  0.3642 -0.0243
  652MOL0     H86030   3.513  10.870   9.363  2.8040  0.1592  1.2220
  652MOL0     H86031   3.553  11.047   9.349 -0.9196 -0.4537 -1.7982
  652MOL0     H86032   3.335  11.076   9.489 -3.7610 -0.8786  0.9624
  652MOL0     H86033   3.324  10.898   9.483 -1.6310  0.5557 -0.2124
  652MOL0     H86034   3.295  10.908   9.238 -2.3152  1.1474 -2.2756
  652MOL0     H86035   3.288  11.091   9.250 -2.8609  1.6548  2.5224
  652MOL0     H86036   3.102  10.904   9.384  0.7639  0.9960  2.0094
  652MOL0     H86037   3.100  11.070   9.403 -1.0470 -0.0950  0.0532
  652MOL0     H86038   3.052  10.887   9.157  0.3387  0.3999 -2.7872
  652MOL0     H86039   3.060  11.055   9.126  0.2939 -1.5262 -2.0732
  652MOL0     H86040   2.883  11.117   9.262 -0.1800  0.2057  4.0352
  652MOL0     H86041   2.854  10.951   9.321 -0.2926  1.3695 -0.2860
  652MOL0     H86042   2.855  11.008   9.029  1.9980  1.3535  2.1410
  652MOL0     H86043   2.776  10.875   9.103  1.7507  0.0431 -0.1937
  652MOL0     H86044   2.653  11.152   9.127  0.2128 -0.5661  2.3367
  652MOL0     H86045   2.601  11.007   9.209  2.0447 -2.6305  0.3611
  652MOL0     H86046   3.709  11.046   9.745 -2.5914  1.2656 -2.0303
  652MOL0     H86047   3.955  10.989   9.762 -1.1688 -2.9616  0.8194
  652MOL0     H86048   4.451  10.849   9.394  0.9047  0.1853  0.8083
  652MOL0     H86049   4.662  10.760   9.455  1.0735 -3.6003  0.3612
  652MOL0     H86050   6.026   9.809   9.092 -0.5753  0.0003  1.9355
  652MOL0     H86051   6.247   9.749   9.124  3.8167  0.7914  3.1238
  652MOL0     H86052   6.686  10.010   9.207 -0.5363 -0.7893 -1.2018
  652MOL0     H86053   6.927  10.012   9.252 -0.0021  0.5246  0.9300
  652MOL0     H86054   7.155   9.710   9.195 -1.1153 -0.6230  0.6860
  652MOL0     H86055   7.102   9.595   9.322 -0.4259  0.6434  1.8589
  652MOL0     H86056   7.344   9.648   9.310  2.6452  0.1317  2.7875
  652MOL0     H86057   7.312   9.812   9.364  1.3396 -0.1042  2.4848
  652MOL0     H86058   7.249   9.569   9.543 -0.8209  0.5259 -0.0971
  652MOL0     H86059   7.244   9.735   9.593 -0.9358 -1.0051 -0.4410
  652MOL0     H86060   7.476   9.778   9.538  0.0692 -0.2776 -0.4314
  652MOL0     H86061   7.452   9.648   9.665  1.8504  2.7351  0.0578
  652MOL0     H86062   7.665   9.416   9.414 -1.4986 -1.9992  2.8477
  652MOL0     H86063   6.914   9.616   9.401  1.1884 -0.1484  0.2337
  652MOL0     H86064   6.677   9.604   9.373  0.7165 -1.6645  2.4891
  653MOL0     O86065   5.927   7.727   9.383 -0.1417 -0.0339  0.6040
  653MOL0     C86066   5.919   7.609   9.358 -0.2763  0.2951 -0.0985
  653MOL0     O86067   6.022   7.516   9.372  0.0832 -0.1383  0.4941
  653MOL0     C86068   6.154   7.545   9.399 -0.7420 -0.1017  0.0032
  653MOL0     C86069   6.261   7.484   9.322 -0.0257  0.3851 -1.2594
  653MOL0     C86070   6.388   7.497   9.358 -0.7027 -0.5257 -0.1320
  653MOL0     C86071   6.424   7.592   9.464 -0.0896  0.4092  0.5806
  653MOL0     O86072   6.546   7.606   9.514  0.6196  0.1517  0.2993
  653MOL0     C86073   6.585   7.494   9.594 -0.2263  0.7400  0.1837
  653MOL0     C86074   6.740   7.481   9.588 -1.0733 -0.0606 -0.4543
  653MOL0     C86075   6.793   7.393   9.704  0.9683 -0.3845 -0.5580
  653MOL0     C86076   6.926   7.446   9.762 -0.2850 -0.4482  0.0069
  653MOL0     C86077   6.990   7.355   9.868  0.4947  0.2045  1.0047
  653MOL0     C86078   7.105   7.414   9.948 -0.3886  0.8823  0.4681
  653MOL0     C86079   7.239   7.390   9.875  0.7711 -0.2581  0.0918
  653MOL0     C86080   7.358   7.385   9.977 -0.5028 -0.1507  0.4075
  653MOL0     N86081   7.491   7.382   9.916 -0.2867  0.5743  0.6639
  653MOL0     C86082   7.615   7.387   9.973 -0.4122 -0.7391  0.2222
  653MOL0     C86083   7.715   7.359   9.889  0.0961  0.2557 -1.2267
  653MOL0     C86084   7.866   7.355   9.909 -0.4430 -0.8373  0.3896
  653MOL0     C86085   7.916   7.231   9.838 -0.3878 -1.0772  0.3025
  653MOL0     C86086   8.065   7.211   9.880  0.1669 -0.4929 -0.0441
  653MOL0     C86087   8.114   7.072   9.838  0.3930  0.2493  0.6403
  653MOL0     O86088   8.228   7.052   9.924  0.5868  1.2056  0.0082
  653MOL0     C86089   8.358   7.100   9.898 -0.4333 -0.0431 -0.0603
  653MOL0     C86090   8.462   7.061   9.979 -0.4101 -0.1159 -0.1901
  653MOL0     C86091   8.593   7.090   9.944  0.1550 -0.0495 -0.6615
  653MOL0     C86092   8.628   7.181   9.842  0.2005  0.7665 -0.3042
  653MOL0     C86093   8.769   7.212   9.822 -0.3487 -0.3672  0.3485
  653MOL0     O86094   8.858   7.170   9.912 -0.2978 -0.2145 -1.0595
  653MOL0     C86095   8.991   7.176   9.882  0.6499 -0.1216 -0.0945
  653MOL0     C86096   9.082   7.272   9.923  0.0125 -0.3682 -0.0626
  653MOL0     C86097   9.217   7.258   9.895  0.4704  0.0695  0.6175
  653MOL0     C86098   9.266   7.152   9.827 -0.1647  0.6602  0.0342
  653MOL0     O86099   9.398   7.133   9.786 -0.1886 -0.5550  0.3067
  653MOL0     C86100   9.490   7.239   9.786  0.8346  0.5401 -0.3401
  653MOL0     C86101   9.603   7.190   9.700 -0.8271 -0.3726 -0.2873
  653MOL0     C86102   9.564   7.149   9.555  0.2602 -0.5123  0.4264
  653MOL0     C86103   9.693   7.130   9.471  0.9431 -0.8976 -0.8364
  653MOL0     C86104   9.671   7.066   9.330 -0.0474  0.3149 -0.2524
  653MOL0     C86105   9.799   7.025   9.249 -0.2314  0.4419  0.0634
  653MOL0     C86106   9.765   6.944   9.128  0.2589  0.0342 -0.4331
  653MOL0     C86107   9.880   6.886   9.060  0.7976  0.2953  0.6346
  653MOL0    Cl86108   9.983   6.769   9.157 -0.0359 -0.1532 -0.4109
  653MOL0     C86109   9.178   7.054   9.784 -0.3636 -0.3601  0.1724
  653MOL0     C86110   9.041   7.067   9.808  0.8941  0.3401 -0.7240
  653MOL0     O86111   8.799   7.282   9.722  0.0702 -0.1944  0.6979
  653MOL0     C86112   8.525   7.236   9.768 -1.0685 -0.2121  0.1548
  653MOL0     C86113   8.392   7.197   9.795  0.0661 -0.2030 -0.2667
  653MOL0     N86114   7.646   7.326   9.771 -0.4533  0.3819 -0.4329
  653MOL0     N86115   7.522   7.334   9.788  0.5224  0.2977 -0.2735
  653MOL0     C86116   6.322   7.646   9.544  0.3281 -0.8114  0.2642
  653MOL0     C86117   6.188   7.629   9.504  0.5483 -0.8506 -0.4543
  653MOL0     C86118   5.790   7.558   9.306  0.3699 -0.0043  0.7651
  653MOL0     C86119   5.671   7.634   9.316 -0.6610  0.0395 -0.2385
  653MOL0     C86120   5.555   7.591   9.254 -0.0509 -0.1884 -0.1160
  653MOL0     C86121   5.548   7.467   9.194 -0.2253  0.4328  1.0874
  653MOL0     O86122   5.431   7.443   9.139  0.4732  0.3555  0.4196
  653MOL0     C86123   5.426   7.360   9.019  0.6238  0.3696  0.0078
  653MOL0     C86124   5.387   7.216   9.046  0.2714  0.1969  0.4299
  653MOL0     C86125   5.344   7.133   8.916 -0.3481  0.2311  0.9381
  653MOL0     C86126   5.449   7.147   8.791  0.7087 -0.2675 -0.6122
  653MOL0     C86127   5.581   7.131   8.838  0.0480 -0.1759  0.1706
  653MOL0     C86128   5.696   7.145   8.869  0.2113  0.0212  0.1629
  653MOL0     C86129   5.661   7.383   9.192 -1.0125 -0.7038  0.6180
  653MOL0     C86130   5.783   7.430   9.248  0.3235 -0.2187 -0.2775
  653MOL0     H86131   6.223   7.417   9.246 -0.4844 -2.0831  1.0055
  653MOL0     H86132   6.468   7.447   9.305 -0.4872  0.6523 -0.9671
  653MOL0     H86133   6.529   7.403   9.572  0.0413 -0.0528  2.5387
  653MOL0     H86134   6.561   7.528   9.695  0.1451 -0.8283  0.8203
  653MOL0     H86135   6.796   7.575   9.597 -0.7959 -0.3059  0.4579
  653MOL0     H86136   6.764   7.439   9.490  0.2565  2.3645 -1.2634
  653MOL0     H86137   6.812   7.297   9.656  2.1016 -0.3476 -0.2146
  653MOL0     H86138   6.733   7.371   9.792  3.8107  0.5588  1.7706
  653MOL0     H86139   7.001   7.469   9.685 -2.1192  0.2383 -1.6448
  653MOL0     H86140   6.901   7.542   9.807  0.2309 -0.2657 -0.0839
  653MOL0     H86141   7.019   7.263   9.816 -2.0813 -0.3600  0.4030
  653MOL0     H86142   6.914   7.342   9.945  0.5144 -4.3910  0.5227
  653MOL0     H86143   7.107   7.349  10.036 -1.7049 -0.3318 -0.3532
  653MOL0     H86144   7.084   7.517   9.978 -0.3025  0.3670  2.4145
  653MOL0     H86145   7.230   7.297   9.819 -3.0777  0.4356 -0.7037
  653MOL0     H86146   7.252   7.473   9.805  0.4533  0.0404  0.3827
  653MOL0     H86147   7.339   7.301  10.046 -0.7579 -1.4551 -1.1830
  653MOL0     H86148   7.363   7.476  10.037 -0.1298 -1.9156  3.2427
  653MOL0     H86149   7.619   7.418  10.077 -0.8809 -2.6905  0.8578
  653MOL0     H86150   7.894   7.336  10.013 -0.6191  1.0844  0.8090
  653MOL0     H86151   7.915   7.444   9.869  1.1952 -2.2225 -0.8663
  653MOL0     H86152   7.921   7.243   9.729  2.2566  2.7210  0.6369
  653MOL0     H86153   7.863   7.138   9.862 -0.5813 -0.5311  2.1096
  653MOL0     H86154   8.115   7.292   9.827 -0.3498 -1.3723 -1.9797
  653MOL0     H86155   8.075   7.223   9.989 -3.5507  0.7904  0.3153
  653MOL0     H86156   8.132   7.072   9.730 -0.1052  2.0889  0.5147
  653MOL0     H86157   8.045   6.996   9.873 -0.8111  1.7841  1.7401
  653MOL0     H86158   8.439   7.000  10.066 -1.2714  1.0348  0.3985
  653MOL0     H86159   8.669   7.060  10.015 -2.8638 -2.4098  1.8356
  653MOL0     H86160   9.049   7.371   9.954  0.5449 -0.0768 -0.3978
  653MOL0     H86161   9.286   7.338   9.923 -2.0729  1.9331  1.9924
  653MOL0     H86162   9.529   7.253   9.887 -2.7966 -0.9241  1.4443
  653MOL0     H86163   9.441   7.325   9.739  0.9816 -0.7517 -3.1010
  653MOL0     H86164   9.654   7.103   9.740  0.1203 -0.2834 -1.2602
  653MOL0     H86165   9.675   7.272   9.708 -0.8172 -0.1989 -1.7886
  653MOL0     H86166   9.505   7.231   9.512  1.0204  0.2872  0.8719
  653MOL0     H86167   9.501   7.060   9.550 -2.8089  1.5678 -1.8896
  653MOL0     H86168   9.750   7.223   9.458  0.7536 -0.5875  0.3917
  653MOL0     H86169   9.770   7.067   9.517  0.7904 -1.3049 -1.1307
  653MOL0     H86170   9.608   7.131   9.270  0.8698  2.2731  0.8234
  653MOL0     H86171   9.620   6.971   9.352  0.6005  0.3696  1.7799
  653MOL0     H86172   9.862   6.955   9.304 -2.4300 -2.8209 -1.2741
  653MOL0     H86173   9.856   7.115   9.224 -0.4258  1.4111  2.8351
  653MOL0     H86174   9.710   6.858   9.168  1.9453 -0.4975  0.8594
  653MOL0     H86175   9.694   6.994   9.062  0.2528  2.1234  1.0678
  653MOL0     H86176   9.935   6.968   9.013 -1.0553  1.2164 -0.0201
  653MOL0     H86177   9.839   6.828   8.977  1.0044  0.0890  0.6745
  653MOL0     H86178   9.220   6.971   9.727  2.1380  0.1162  1.1818
  653MOL0     H86179   8.983   6.988   9.762  1.2041 -0.8937  0.8674
  653MOL0     H86180   8.547   7.303   9.686  1.2361 -3.6677 -2.3348
  653MOL0     H86181   8.314   7.245   9.737  0.7831 -0.1491 -1.2070
  653MOL0     H86182   6.356   7.708   9.627 -0.9787 -2.1762  1.8801
  653MOL0     H86183   6.117   7.682   9.566  1.2147  0.2836 -0.6339
  653MOL0     H86184   5.665   7.739   9.342 -1.2864  0.0033 -0.2214
  653MOL0     H86185   5.469   7.655   9.239  1.5378  2.3208  0.7927
  653MOL0     H86186   5.527   7.358   8.976  1.2923  0.7535  1.4863
  653MOL0     H86187   5.354   7.404   8.950  2.0006 -0.2256 -1.8718
  653MOL0     H86188   5.471   7.168   9.097  0.1955  1.1525  1.4924
  653MOL0     H86189   5.298   7.209   9.109 -0.4995 -1.6604 -0.7592
  653MOL0     H86190   5.247   7.172   8.883  0.5704  1.5332 -0.3495
  653MOL0     H86191   5.343   7.024   8.924  2.4860  0.0332 -0.2998
  653MOL0     H86192   5.425   7.070   8.717  0.4218 -2.0790  1.2894
  653MOL0     H86193   5.434   7.243   8.741  2.1074  0.9641  1.1972
  653MOL0     H86194   5.797   7.165   8.897  0.0727  0.9058  0.0648
  653MOL0     H86195   5.666   7.284   9.147  0.9305 -0.5983  0.5125
  653MOL0     H86196   5.866   7.359   9.248 -1.4197 -2.3648 -0.4141
  654MOL0     O86197   3.149   2.406  10.010  0.3921  0.0701  0.3522
  654MOL0     C86198   3.133   2.304   9.938 -0.2133  0.2277  0.2426
  654MOL0     O86199   3.038   2.288   9.841 -0.2876 -0.2777  0.3704
  654MOL0     C86200   2.941   2.375   9.804  0.3080 -0.6804 -0.1833
  654MOL0     C86201   2.897   2.481   9.887  0.4838  0.1796  0.9656
  654MOL0     C86202   2.804   2.568   9.834 -0.3206 -0.1874 -0.1913
  654MOL0     C86203   2.743   2.557   9.705 -0.3954  0.3979  0.6550
  654MOL0     O86204   2.633   2.627   9.664  0.2351  0.0895  0.1863
  654MOL0     C86205   2.576   2.724   9.746 -0.4709  0.8701  0.8058
  654MOL0     C86206   2.453   2.776   9.681 -0.2343  0.5571 -0.0131
  654MOL0     C86207   2.326   2.695   9.688  0.1204 -0.4524  0.1310
  654MOL0     C86208   2.189   2.766   9.671 -0.2098  0.0088  0.1310
  654MOL0     C86209   2.079   2.659   9.699 -0.3327 -0.1779  0.3055
  654MOL0     C86210   1.945   2.718   9.667  0.2992 -0.1578  0.4658
  654MOL0     C86211   1.836   2.610   9.687  1.0666  0.5259  0.2214
  654MOL0     C86212   1.704   2.676   9.662  0.3874 -0.0988  0.5087
  654MOL0     N86213   1.604   2.570   9.676  0.0088  0.9802 -0.3796
  654MOL0     C86214   1.511   2.522   9.584  0.1765 -0.7335  0.2256
  654MOL0     C86215   1.423   2.442   9.642  0.3986 -0.0940 -0.2509
  654MOL0     C86216   1.326   2.358   9.572  0.0280  0.6126  0.3201
  654MOL0     C86217   1.197   2.372   9.643  0.4138  0.7956  0.3351
  654MOL0     C86218   1.179   2.255   9.741 -0.6419 -0.3733  0.4517
  654MOL0     C86219   1.053   2.263   9.830  0.0323 -0.1990  0.0422
  654MOL0     O86220   0.938   2.280   9.747 -0.9294  0.0159 -0.3532
  654MOL0     C86221   0.817   2.314   9.802 -0.2311 -0.1825 -0.6792
  654MOL0     C86222   0.713   2.318   9.707 -0.2594 -0.6250  0.7285
  654MOL0     C86223   0.582   2.346   9.751  0.5380  1.1122 -0.0241
  654MOL0     C86224   0.546   2.351   9.889 -0.3695  0.8914  0.2475
  654MOL0     C86225   0.404   2.354   9.929 -1.0613 -0.6231  0.2048
  654MOL0     O86226   0.327   2.443   9.870  0.2477 -0.6965  0.7057
  654MOL0     C86227   0.200   2.466   9.910 -0.0033 -1.0198 -1.0469
  654MOL0     C86228   0.109   2.365   9.938  0.0059 -0.0130 -0.8950
  654MOL0     C86229  -0.027   2.393   9.957  0.0970  0.8034 -1.0507
  654MOL0     C86230  -0.086   2.515   9.957  0.0292 -0.2852 -1.0889
  654MOL0     O86231  -0.220   2.548   9.976  0.8852  0.4197  0.2752
  654MOL0     C86232  -0.307   2.429   9.976  0.3581 -0.4217 -0.0026
  654MOL0     C86233  -0.460   2.468   9.981 -0.4609 -0.9211  0.3793
  654MOL0     C86234  -0.484   2.530   9.839  0.0082  0.7240  0.1878
  654MOL0     C86235  -0.632   2.569   9.828 -0.9157 -0.4307  0.1680
  654MOL0     C86236  -0.694   2.456   9.735  0.0592  0.3594  0.1958
  654MOL0     C86237  -0.842   2.482   9.718 -0.3787 -0.0119  0.4248
  654MOL0     C86238  -0.881   2.619   9.649  0.1290  0.7202 -0.3918
  654MOL0     C86239  -1.016   2.606   9.606  0.9829  0.3016  0.1251
  654MOL0    Cl86240  -1.061   2.783   9.573  0.0973 -0.0774  0.2602
  654MOL0     C86241   0.007   2.622   9.927  0.6758 -0.6857  0.0807
  654MOL0     C86242   0.144   2.600   9.908  0.0320  0.4190 -0.0142
  654MOL0     O86243   0.373   2.287  10.023  0.1424 -0.2314 -0.2004
  654MOL0     C86244   0.654   2.331   9.980 -0.7987  0.5177 -0.5035
  654MOL0     C86245   0.787   2.327   9.939 -0.0233  0.7060  0.3555
  654MOL0     N86246   1.454   2.434   9.776 -0.3251 -0.4885  0.7043
  654MOL0     N86247   1.563   2.511   9.793 -1.4750  0.8627 -0.2944
  654MOL0     C86248   2.790   2.448   9.629  0.1328 -0.3622 -0.6501
  654MOL0     C86249   2.885   2.363   9.674  0.2690  0.1012 -0.7184
  654MOL0     C86250   3.236   2.207   9.950 -0.9970 -0.5600 -0.1216
  654MOL0     C86251   3.324   2.210  10.065  0.0744  0.2910 -0.4732
  654MOL0     C86252   3.425   2.121  10.084 -0.1773  0.3743  0.0679
  654MOL0     C86253   3.447   2.018   9.995  0.5964 -0.0288  0.9351
  654MOL0     O86254   3.540   1.916   9.999 -0.1657  0.1003 -0.0954
  654MOL0     C86255   3.594   1.884  10.127  0.4900 -0.4288  0.4203
  654MOL0     C86256   3.721   1.959  10.151 -0.0902  0.0844  0.5616
  654MOL0     C86257   3.795   1.929  10.294 -0.2051 -0.0427  0.5537
  654MOL0     C86258   3.859   1.797  10.302 -0.4862  0.3476 -0.8084
  654MOL0     C86259   3.754   1.699  10.354 -0.3614 -0.4824  0.1534
  654MOL0     C86260   3.658   1.629  10.388  0.5491 -0.4683  1.0713
  654MOL0     C86261   3.372   2.024   9.870  0.0186  0.3737 -0.5476
  654MOL0     C86262   3.264   2.107   9.849 -0.3888 -0.2309 -0.1559
  654MOL0     H86263   2.933   2.507   9.986 -2.5721 -1.5929  2.7187
  654MOL0     H86264   2.795   2.661   9.889  2.2903  0.5172 -0.8004
  654MOL0     H86265   2.653   2.801   9.743  0.6085 -0.2099 -0.6540
  654MOL0     H86266   2.550   2.687   9.845  1.0034 -1.5115  0.3626
  654MOL0     H86267   2.475   2.804   9.577 -0.3573  2.9190  0.5273
  654MOL0     H86268   2.442   2.874   9.730 -4.5534 -1.4097  3.6040
  654MOL0     H86269   2.320   2.648   9.786 -4.1908  3.4746  2.1359
  654MOL0     H86270   2.325   2.618   9.610  1.3448 -0.2372 -0.1208
  654MOL0     H86271   2.172   2.854   9.733 -3.0486 -0.2027 -0.2063
  654MOL0     H86272   2.178   2.800   9.567  1.0228  0.3002  0.0781
  654MOL0     H86273   2.088   2.625   9.802  1.2154 -1.1402 -0.1090
  654MOL0     H86274   2.097   2.582   9.622  2.0254 -0.2064  0.8251
  654MOL0     H86275   1.950   2.732   9.558  1.0980 -1.8313  0.2539
  654MOL0     H86276   1.926   2.808   9.725 -1.0812 -1.1045  1.5428
  654MOL0     H86277   1.860   2.516   9.635  1.9024  0.9750 -0.2294
  654MOL0     H86278   1.836   2.589   9.794  1.9021  2.7067  0.6929
  654MOL0     H86279   1.696   2.722   9.563 -0.0714  1.6517  1.3033
  654MOL0     H86280   1.674   2.759   9.728 -0.7993  0.9071 -1.2232
  654MOL0     H86281   1.499   2.523   9.477  0.2274 -0.2471  0.2219
  654MOL0     H86282   1.354   2.252   9.570  0.5242  0.7265 -2.0382
  654MOL0     H86283   1.313   2.385   9.467 -0.6475 -2.3863 -0.4793
  654MOL0     H86284   1.110   2.367   9.576 -0.8012 -0.4196  1.9364
  654MOL0     H86285   1.198   2.460   9.707  3.8903  0.8383  0.4076
  654MOL0     H86286   1.166   2.162   9.684  0.9807 -0.3032 -0.0833
  654MOL0     H86287   1.268   2.239   9.802  0.0428 -0.6614 -0.5850
  654MOL0     H86288   1.071   2.343   9.903 -1.1752  1.5556 -1.4880
  654MOL0     H86289   1.033   2.166   9.876  0.6390  0.7464  2.4607
  654MOL0     H86290   0.725   2.295   9.601 -0.1379  0.4178  0.4961
  654MOL0     H86291   0.503   2.347   9.676  0.4109  1.3364  0.1113
  654MOL0     H86292   0.143   2.263   9.946  1.3115  0.5398  1.4116
  654MOL0     H86293  -0.083   2.300   9.955  3.3477 -1.4457  1.5374
  654MOL0     H86294  -0.298   2.382  10.075 -2.6772  2.5484  1.9049
  654MOL0     H86295  -0.291   2.357   9.895 -0.8747 -2.3853  1.4172
  654MOL0     H86296  -0.469   2.547  10.057 -0.2005 -0.4490 -0.0742
  654MOL0     H86297  -0.521   2.379   9.997 -1.3872 -0.7691 -1.9642
  654MOL0     H86298  -0.460   2.449   9.769  0.1550  0.4840  0.5093
  654MOL0     H86299  -0.415   2.612   9.814  0.5564 -0.4893 -2.6096
  654MOL0     H86300  -0.684   2.572   9.923 -1.5786 -2.5271 -0.0746
  654MOL0     H86301  -0.630   2.664   9.773  1.3137  0.4060  1.5424
  654MOL0     H86302  -0.677   2.354   9.769 -1.5686  0.1226  0.3808
  654MOL0     H86303  -0.644   2.472   9.639 -0.1519  4.5184  0.5817
  654MOL0     H86304  -0.895   2.491   9.814 -2.4052 -0.2713 -0.6057
  654MOL0     H86305  -0.880   2.391   9.671 -0.8920 -0.1373  1.0689
  654MOL0     H86306  -0.885   2.696   9.726  2.9232 -1.7054  2.4163
  654MOL0     H86307  -0.826   2.647   9.558 -1.7255  1.9984 -1.1770
  654MOL0     H86308  -1.090   2.560   9.672 -1.5911  0.0957 -2.6629
  654MOL0     H86309  -1.023   2.553   9.511 -0.4528 -2.2916  1.5713
  654MOL0     H86310  -0.029   2.724   9.926  1.5499 -0.3355 -2.1025
  654MOL0     H86311   0.210   2.684   9.891  0.1217  0.3059 -0.2297
  654MOL0     H86312   0.624   2.318  10.084 -2.2640  0.8224 -0.8739
  654MOL0     H86313   0.862   2.304  10.013  0.5992  0.0502 -0.4609
  654MOL0     H86314   2.752   2.435   9.529 -1.8367  0.4809 -0.0556
  654MOL0     H86315   2.925   2.279   9.617 -2.4642 -1.1438 -0.9522
  654MOL0     H86316   3.316   2.278  10.149 -0.8545  0.1200 -0.4157
  654MOL0     H86317   3.486   2.128  10.174  1.2764  1.6243 -0.9628
  654MOL0     H86318   3.611   1.777  10.118 -1.6120 -0.7898  0.1182
  654MOL0     H86319   3.528   1.899  10.213  1.4106  0.9926  0.9125
  654MOL0     H86320   3.784   1.925  10.068  0.0800  0.1449  0.6643
  654MOL0     H86321   3.712   2.068  10.145  0.1846  0.1887  1.8295
  654MOL0     H86322   3.738   1.944  10.386 -0.4481  1.7992  0.1428
  654MOL0     H86323   3.877   2.000  10.296  0.6852 -0.5691 -4.2666
  654MOL0     H86324   3.891   1.782  10.198  1.9543  2.1476 -0.3960
  654MOL0     H86325   3.938   1.793  10.377  0.4033  0.2979 -1.7186
  654MOL0     H86326   3.573   1.574  10.424  1.6745 -1.3402  2.5083
  654MOL0     H86327   3.389   1.948   9.795 -2.0679 -0.4225 -0.2615
  654MOL0     H86328   3.211   2.089   9.756 -0.8923  3.6076 -0.7729
  655MOL0     O86329   9.102  11.126  11.026 -0.8492  0.1077  0.1886
  655MOL0     C86330   9.071  11.185  10.919 -0.5560  1.1183 -0.4104
  655MOL0     O86331   9.161  11.244  10.834 -0.0267 -0.2453  0.6749
  655MOL0     C86332   9.286  11.278  10.886  0.2936  0.2013  0.3057
  655MOL0     C86333   9.381  11.281  10.783 -0.6132 -0.0657 -0.0584
  655MOL0     C86334   9.507  11.335  10.802  0.2449 -0.2951 -0.0123
  655MOL0     C86335   9.543  11.378  10.934 -0.3306  0.2363 -0.3094
  655MOL0     O86336   9.669  11.412  10.965  0.9663 -0.5660 -0.0480
  655MOL0     C86337   9.777  11.384  10.872 -0.1833  0.0070  0.1268
  655MOL0     C86338   9.909  11.429  10.935 -0.3866 -0.4810  0.8961
  655MOL0     C86339   9.924  11.578  10.964 -0.9941  0.6377  0.3954
  655MOL0     C86340  10.068  11.623  10.952 -1.1258 -0.4496  0.0406
  655MOL0     C86341  10.167  11.541  11.036 -0.6683  1.3256  0.4574
  655MOL0     C86342  10.308  11.602  11.051  0.1428  0.0124 -1.1878
  655MOL0     C86343  10.403  11.499  11.102 -0.3729  0.4513 -0.0951
  655MOL0     C86344  10.385  11.474  11.244  0.8015  0.0279  0.2216
  655MOL0     N86345  10.506  11.421  11.305  0.5542  0.8902 -0.6035
  655MOL0     C86346  10.549  11.289  11.296 -0.1842 -0.2436  0.5546
  655MOL0     C86347  10.633  11.278  11.396 -0.9847  0.4702 -1.0950
  655MOL0     C86348  10.705  11.147  11.430 -0.4936  0.4010  0.1298
  655MOL0     C86349  10.642  11.092  11.561  0.2704  0.7123  0.5213
  655MOL0     C86350  10.502  11.029  11.517  0.9124 -0.6493 -0.0859
  655MOL0     C86351  10.499  10.877  11.476  0.7477  0.1152  0.1516
  655MOL0     O86352  10.389  10.878  11.378  0.3305  0.3661  0.3074
  655MOL0     C86353  10.321  10.763  11.357  0.0665 -0.2815  0.1002
  655MOL0     C86354  10.359  10.638  11.400  0.5264  0.1137 -0.9920
  655MOL0     C86355  10.285  10.523  11.370  0.4975  0.0409 -0.0299
  655MOL0     C86356  10.171  10.529  11.288  0.1383  0.3104 -0.1682
  655MOL0     C86357  10.093  10.409  11.239  0.2936  0.2663  0.3623
  655MOL0     O86358   9.972  10.445  11.185 -0.2956 -0.1919 -0.7281
  655MOL0     C86359   9.861  10.367  11.174 -0.5467  0.4860 -0.4096
  655MOL0     C86360   9.857  10.233  11.114  0.1844 -1.0691  0.1910
  655MOL0     C86361   9.735  10.171  11.107 -0.1410 -0.5620 -0.2676
  655MOL0     C86362   9.619  10.237  11.141 -0.3542  0.6183  0.2720
  655MOL0     O86363   9.499  10.169  11.118 -0.3100 -0.5203  0.1840
  655MOL0     C86364   9.414  10.238  11.037  0.0466 -0.5151 -0.2515
  655MOL0     C86365   9.274  10.163  11.048 -0.8657 -0.1385  0.0298
  655MOL0     C86366   9.181  10.214  11.159 -0.4299 -0.4346 -0.5743
  655MOL0     C86367   9.123  10.356  11.124  0.2199  0.4019  0.0787
  655MOL0     C86368   9.028  10.416  11.231  0.4517 -0.2063  0.4505
  655MOL0     C86369   8.905  10.328  11.269 -0.8290 -0.4404  0.2046
  655MOL0     C86370   8.820  10.413  11.372  0.9040 -0.3234 -0.4814
  655MOL0     C86371   8.685  10.335  11.409 -0.2935 -0.7031 -1.7220
  655MOL0    Cl86372   8.544  10.393  11.327 -0.2324 -0.0888 -0.3263
  655MOL0     C86373   9.624  10.364  11.192  0.7161  0.6569  0.0431
  655MOL0     C86374   9.742  10.427  11.203 -0.6799  0.1523 -0.5469
  655MOL0     O86375  10.128  10.298  11.287  0.5253 -0.1701 -0.2359
  655MOL0     C86376  10.144  10.656  11.234  0.6250 -0.0920  0.1640
  655MOL0     C86377  10.216  10.771  11.270 -0.3592 -0.5555  0.2135
  655MOL0     N86378  10.654  11.408  11.454  0.4800 -0.3882 -0.2189
  655MOL0     N86379  10.570  11.490  11.411  0.2311 -1.1162  0.4461
  655MOL0     C86380   9.447  11.368  11.039 -0.1587  0.8535 -0.2070
  655MOL0     C86381   9.314  11.328  11.013  0.1150 -0.4018  0.0976
  655MOL0     C86382   8.926  11.188  10.879 -0.5851  0.3908  0.1847
  655MOL0     C86383   8.830  11.126  10.965 -0.2296  0.0252 -1.0388
  655MOL0     C86384   8.692  11.124  10.933 -0.5891  0.7694  0.3370
  655MOL0     C86385   8.648  11.188  10.816 -0.2508 -0.3802 -0.2122
  655MOL0     O86386   8.518  11.198  10.765 -1.0059  0.3121 -0.4944
  655MOL0     C86387   8.405  11.169  10.852  0.5134  0.1974  0.5640
  655MOL0     C86388   8.374  11.284  10.948 -1.3082  0.4448  0.4791
  655MOL0     C86389   8.409  11.272  11.095 -0.0327  0.5165 -0.1089
  655MOL0     C86390   8.327  11.160  11.167  0.0001 -1.1991 -0.0426
  655MOL0     C86391   8.403  11.123  11.287 -0.2299  0.3177 -0.3932
  655MOL0     C86392   8.465  11.094  11.384 -1.1553 -0.1053 -0.1778
  655MOL0     C86393   8.744  11.246  10.737  0.2820  0.4790  0.5728
  655MOL0     C86394   8.883  11.248  10.762 -0.6283 -0.0304  0.0253
  655MOL0     H86395   9.345  11.250  10.686 -3.0022  1.4986  0.2353
  655MOL0     H86396   9.571  11.337  10.715 -0.3349 -1.1758 -0.4771
  655MOL0     H86397   9.742  11.425  10.776 -1.1352 -2.9705 -0.8974
  655MOL0     H86398   9.795  11.277  10.861  0.5496  0.0068  1.2393
  655MOL0     H86399   9.990  11.387  10.875  1.2775 -0.4210  2.9618
  655MOL0     H86400   9.920  11.378  11.031 -0.7518 -0.6335  0.8575
  655MOL0     H86401   9.875  11.611  11.056 -0.2165 -1.1792  1.5104
  655MOL0     H86402   9.865  11.631  10.889  0.7672  0.6085 -1.0724
  655MOL0     H86403  10.086  11.608  10.845 -0.9540  0.2229 -0.0266
  655MOL0     H86404  10.072  11.727  10.986  0.5715 -0.3542 -0.3428
  655MOL0     H86405  10.189  11.442  10.995  0.4809  1.3375  0.9863
  655MOL0     H86406  10.127  11.527  11.137 -0.7317 -2.8455  0.0272
  655MOL0     H86407  10.311  11.700  11.099  0.4793 -0.4241 -0.3113
  655MOL0     H86408  10.355  11.623  10.954  0.1121 -0.4915 -1.3151
  655MOL0     H86409  10.383  11.404  11.053 -1.3138  1.0295 -0.8588
  655MOL0     H86410  10.509  11.525  11.089  0.1228  0.4255  3.0304
  655MOL0     H86411  10.304  11.402  11.260  1.6457 -1.1942 -0.8330
  655MOL0     H86412  10.358  11.568  11.294  1.1609  1.5631 -2.2704
  655MOL0     H86413  10.520  11.201  11.240 -2.9706  0.6690  0.4373
  655MOL0     H86414  10.812  11.165  11.439 -0.3510 -0.1482 -0.4155
  655MOL0     H86415  10.697  11.076  11.346  1.3916 -0.3023  0.5020
  655MOL0     H86416  10.621  11.178  11.627  2.1820  1.2473  0.4901
  655MOL0     H86417  10.709  11.023  11.612  2.1377  1.9782 -0.1096
  655MOL0     H86418  10.433  11.036  11.602  2.7124 -3.9647  1.8714
  655MOL0     H86419  10.457  11.089  11.437  2.9199  1.6965  0.4299
  655MOL0     H86420  10.468  10.811  11.557  0.0920  0.5456  0.2661
  655MOL0     H86421  10.592  10.848  11.427  1.5909  2.7496  0.0385
  655MOL0     H86422  10.440  10.617  11.469 -0.9177  0.4357  0.8917
  655MOL0     H86423  10.326  10.434  11.415  1.7631 -0.2413 -1.6383
  655MOL0     H86424   9.950  10.204  11.066 -1.2884 -1.1690 -2.8688
  655MOL0     H86425   9.726  10.072  11.062  0.3842 -0.6076 -0.2790
  655MOL0     H86426   9.446  10.227  10.933 -0.5631 -2.7918 -0.2557
  655MOL0     H86427   9.394  10.342  11.065 -2.6757 -0.3484 -2.3666
  655MOL0     H86428   9.283  10.057  11.073 -0.9799  0.0334  0.8088
  655MOL0     H86429   9.220  10.178  10.954  1.6049  1.9373 -1.1748
  655MOL0     H86430   9.223  10.217  11.260 -0.4998 -2.2349 -0.4589
  655MOL0     H86431   9.103  10.138  11.163 -0.0299 -0.8923 -1.2257
  655MOL0     H86432   9.198  10.432  11.102  1.2813 -1.0082 -1.3696
  655MOL0     H86433   9.064  10.348  11.033  0.7752 -1.5492 -0.1554
  655MOL0     H86434   8.993  10.512  11.190  1.4059  1.1496  2.5968
  655MOL0     H86435   9.083  10.441  11.322 -1.0740  2.4466  0.7753
  655MOL0     H86436   8.928  10.237  11.324  1.5325 -1.0313 -1.5789
  655MOL0     H86437   8.846  10.304  11.180 -1.5436  1.6467  0.0486
  655MOL0     H86438   8.870  10.428  11.468 -2.9864 -1.0154  1.8678
  655MOL0     H86439   8.789  10.508  11.328  0.8431  0.4940  1.2431
  655MOL0     H86440   8.659  10.348  11.514  0.0654  1.5392 -1.8549
  655MOL0     H86441   8.704  10.229  11.390  1.4681 -0.8267  0.3503
  655MOL0     H86442   9.528  10.408  11.219  0.7615  2.2195 -2.1019
  655MOL0     H86443   9.749  10.526  11.247 -0.5433 -0.2094  0.2674
  655MOL0     H86444  10.054  10.671  11.176  1.3982  0.2687 -0.9907
  655MOL0     H86445  10.197  10.871  11.232 -2.6225 -1.4948 -1.3460
  655MOL0     H86446   9.472  11.394  11.141 -2.7911 -0.5151  0.8584
  655MOL0     H86447   9.237  11.345  11.087 -1.5435  2.4377 -2.0742
  655MOL0     H86448   8.865  11.100  11.064  3.1590  0.9639 -1.8729
  655MOL0     H86449   8.616  11.090  11.003 -0.5230  0.9563  0.4974
  655MOL0     H86450   8.423  11.072  10.898  2.4478  0.5906  0.7275
  655MOL0     H86451   8.317  11.160  10.787  0.4950  1.2031  0.4262
  655MOL0     H86452   8.444  11.360  10.912 -0.7849  0.2527  1.0627
  655MOL0     H86453   8.280  11.336  10.933 -0.5632  1.0686 -2.5986
  655MOL0     H86454   8.396  11.370  11.141  1.0458  1.7882 -2.3378
  655MOL0     H86455   8.517  11.256  11.109  0.1726  1.3874 -0.6412
  655MOL0     H86456   8.235  11.206  11.205 -1.2646 -1.0410 -3.0384
  655MOL0     H86457   8.300  11.075  11.103 -1.0399 -0.8481 -0.0831
  655MOL0     H86458   8.514  11.067  11.476  0.1573 -5.9410 -2.1331
  655MOL0     H86459   8.702  11.299  10.653 -0.4908 -0.2880  0.4518
  655MOL0     H86460   8.957  11.280  10.689 -0.1379 -2.2539 -0.5326
  656MOL0     O86461   0.183   0.760   8.411  0.4650 -0.3212 -0.2774
  656MOL0     C86462   0.231   0.795   8.520 -0.3625 -0.5762  0.3678
  656MOL0     O86463   0.175   0.774   8.642 -0.0265  0.3799 -0.0630
  656MOL0     C86464   0.073   0.684   8.662 -0.1388  0.2967  0.0037
  656MOL0     C86465   0.077   0.550   8.610  1.2713  0.0843  0.4182
  656MOL0     C86466  -0.027   0.455   8.639  0.1200  0.4435  0.1267
  656MOL0     C86467  -0.141   0.494   8.704  0.6017  0.5669 -0.0923
  656MOL0     O86468  -0.250   0.420   8.737  0.3070 -0.0296  0.2989
  656MOL0     C86469  -0.218   0.273   8.738  0.2032 -0.0437 -0.5564
  656MOL0     C86470  -0.328   0.205   8.820  0.0924  0.2210  0.0104
  656MOL0     C86471  -0.431   0.132   8.736  0.3264  0.5185  0.4589
  656MOL0     C86472  -0.551   0.086   8.810  0.2631  0.7754  0.4007
  656MOL0     C86473  -0.650   0.019   8.713 -1.0024  0.2435  0.1674
  656MOL0     C86474  -0.795   0.045   8.759  0.8158  0.0957 -0.1854
  656MOL0     C86475  -0.903  -0.003   8.663  0.4804  0.2459  0.1779
  656MOL0     C86476  -0.897  -0.160   8.652 -0.6452 -0.4291  0.4488
  656MOL0     N86477  -1.006  -0.218   8.577  0.2211  0.5608 -0.1087
  656MOL0     C86478  -1.139  -0.200   8.604 -0.0857  0.1368 -0.1062
  656MOL0     C86479  -1.200  -0.278   8.511 -1.3870  0.5336  0.0390
  656MOL0     C86480  -1.339  -0.313   8.507 -0.5490  0.3008  0.5939
  656MOL0     C86481  -1.394  -0.386   8.628 -0.0290  0.2552 -0.7009
  656MOL0     C86482  -1.403  -0.300   8.747  0.3210 -0.5776 -0.7908
  656MOL0     C86483  -1.513  -0.343   8.848 -0.6904  1.2662 -0.6536
  656MOL0     O86484  -1.619  -0.243   8.832  0.7286  0.8514 -0.3227
  656MOL0     C86485  -1.734  -0.304   8.841  1.1555 -0.0818 -0.4515
  656MOL0     C86486  -1.787  -0.351   8.964 -0.3526  1.4430  0.4442
  656MOL0     C86487  -1.912  -0.424   8.965 -0.0784  0.7827 -0.9904
  656MOL0     C86488  -1.976  -0.452   8.846  0.3575 -0.1075 -0.3003
  656MOL0     C86489  -2.095  -0.538   8.852 -1.0259 -0.4164  0.0837
  656MOL0     O86490  -2.171  -0.537   8.963 -0.8160 -0.1636 -0.1138
  656MOL0     C86491  -2.287  -0.615   8.964 -0.2198  0.1425  0.3603
  656MOL0     C86492  -2.301  -0.729   9.055 -0.5913 -1.0396  0.2775
  656MOL0     C86493  -2.423  -0.809   9.063 -0.3953 -0.0992  0.5994
  656MOL0     C86494  -2.535  -0.773   8.983 -0.6939  1.0044 -0.2049
  656MOL0     O86495  -2.650  -0.838   8.989 -0.0107  0.3011 -0.6040
  656MOL0     C86496  -2.658  -0.982   9.004  0.1213  0.6475 -0.2244
  656MOL0     C86497  -2.686  -1.022   9.148  0.2118  0.0913  0.2449
  656MOL0     C86498  -2.834  -1.064   9.149  0.5094 -1.1638 -0.1845
  656MOL0     C86499  -2.891  -1.051   9.288  0.2873  0.9430 -0.4443
  656MOL0     C86500  -3.044  -1.066   9.284  0.3136  0.5627  0.2015
  656MOL0     C86501  -3.095  -1.123   9.417 -0.5365  0.2517 -0.3524
  656MOL0     C86502  -3.070  -1.283   9.420 -0.4757 -0.7806 -0.1688
  656MOL0     C86503  -3.069  -1.344   9.559 -0.4149  0.2352  0.7025
  656MOL0    Cl86504  -2.932  -1.290   9.646  0.4547 -0.1320  0.4600
  656MOL0     C86505  -2.518  -0.668   8.892  0.7244  0.1167 -0.6617
  656MOL0     C86506  -2.397  -0.593   8.885 -0.1263 -0.2421  0.2981
  656MOL0     O86507  -2.110  -0.610   8.754 -0.4266 -0.5072 -0.4308
  656MOL0     C86508  -1.932  -0.409   8.726  0.8820 -0.7686  0.4633
  656MOL0     C86509  -1.811  -0.328   8.724  0.7801 -0.0044  0.5423
  656MOL0     N86510  -1.109  -0.327   8.425 -0.0321 -0.2887  0.6393
  656MOL0     N86511  -0.989  -0.288   8.459 -0.1228 -0.3811  0.6784
  656MOL0     C86512  -0.145   0.629   8.751  0.7719  0.3215  0.0129
  656MOL0     C86513  -0.039   0.723   8.736 -0.6024 -0.5291  0.0449
  656MOL0     C86514   0.368   0.857   8.524 -0.3962 -0.1880  0.0062
  656MOL0     C86515   0.426   0.920   8.406  0.0276 -1.4734  0.3588
  656MOL0     C86516   0.550   0.979   8.419 -0.5395 -0.1776  0.7047
  656MOL0     C86517   0.619   0.988   8.542  0.1176 -0.0560 -0.2674
  656MOL0     O86518   0.731   1.063   8.565  0.2381 -0.9175 -0.0559
  656MOL0     C86519   0.787   1.136   8.453  0.0094  0.3668 -0.6172
  656MOL0     C86520   0.922   1.208   8.499  0.0828  0.3026  0.6889
  656MOL0     C86521   1.029   1.103   8.538  0.5152  0.4487  0.3259
  656MOL0     C86522   1.176   1.150   8.572  0.6880  0.1819  1.4009
  656MOL0     C86523   1.263   1.164   8.457 -0.0186  1.0840  0.2727
  656MOL0     C86524   1.315   1.173   8.347 -0.3007  0.1334 -1.0387
  656MOL0     C86525   0.556   0.932   8.653 -0.0751 -0.1660  0.0857
  656MOL0     C86526   0.438   0.869   8.644  0.3755 -0.9922  0.0775
  656MOL0     H86527   0.164   0.510   8.560  1.1668 -1.6106  1.5024
  656MOL0     H86528  -0.024   0.360   8.587  0.8984  0.6415 -0.2036
  656MOL0     H86529  -0.127   0.261   8.798 -1.0144  1.8356  1.8665
  656MOL0     H86530  -0.199   0.227   8.641 -1.8811 -1.5458 -0.3147
  656MOL0     H86531  -0.377   0.275   8.889 -0.1799  0.5658 -0.5282
  656MOL0     H86532  -0.274   0.138   8.888  0.6659 -2.1141 -2.5706
  656MOL0     H86533  -0.379   0.046   8.692 -0.5102 -1.4885  3.1652
  656MOL0     H86534  -0.466   0.204   8.661 -2.6033 -2.3588 -1.1596
  656MOL0     H86535  -0.526   0.003   8.877 -1.2959 -1.0423 -1.1533
  656MOL0     H86536  -0.595   0.173   8.860 -1.7858 -0.3983  0.7556
  656MOL0     H86537  -0.625  -0.085   8.690  0.9908  0.6122  0.4697
  656MOL0     H86538  -0.648   0.072   8.617  2.0903 -0.2931 -0.1739
  656MOL0     H86539  -0.802   0.154   8.762  0.9968  0.2816 -3.3718
  656MOL0     H86540  -0.810  -0.007   8.854  1.8406 -1.5470 -0.8779
  656MOL0     H86541  -1.004   0.024   8.695 -0.2438  0.1757 -1.8920
  656MOL0     H86542  -0.894   0.043   8.564  0.5357  0.6839  0.3846
  656MOL0     H86543  -0.906  -0.197   8.754  0.3923 -1.5381  0.1586
  656MOL0     H86544  -0.797  -0.188   8.617  0.2609 -0.0929  2.6511
  656MOL0     H86545  -1.184  -0.140   8.683 -0.0630  1.5733 -1.1417
  656MOL0     H86546  -1.356  -0.378   8.420  2.5360 -1.7840  1.3598
  656MOL0     H86547  -1.404  -0.226   8.494 -2.5406 -1.1232  0.4792
  656MOL0     H86548  -1.330  -0.471   8.654 -0.5323  0.8699  3.2065
  656MOL0     H86549  -1.496  -0.420   8.612  0.3309 -2.2416  1.5648
  656MOL0     H86550  -1.307  -0.305   8.799 -0.7686  1.0132  1.5702
  656MOL0     H86551  -1.417  -0.195   8.721  2.0140  1.1381  4.1029
  656MOL0     H86552  -1.478  -0.346   8.951 -1.4002  3.8114 -0.2568
  656MOL0     H86553  -1.557  -0.441   8.829  1.8463  0.0630 -0.7946
  656MOL0     H86554  -1.728  -0.344   9.056  0.8001 -1.1373 -0.0025
  656MOL0     H86555  -1.948  -0.474   9.054  5.0672  1.0978  1.6183
  656MOL0     H86556  -2.213  -0.739   9.119 -0.9412  4.0955  2.0484
  656MOL0     H86557  -2.432  -0.889   9.136  2.0898  0.1742  1.3073
  656MOL0     H86558  -2.565  -1.035   8.985 -0.5832 -1.0583  0.8276
  656MOL0     H86559  -2.731  -1.029   8.939  1.3244 -0.9161 -0.4851
  656MOL0     H86560  -2.665  -0.937   9.213  1.8801  0.2414 -0.4670
  656MOL0     H86561  -2.615  -1.100   9.176  0.6688  0.6561  0.6783
  656MOL0     H86562  -2.860  -1.160   9.106  0.1943 -0.4554 -1.6222
  656MOL0     H86563  -2.881  -0.988   9.086  0.7749 -0.0240  0.9493
  656MOL0     H86564  -2.852  -1.136   9.345  2.1395  0.3609 -2.4411
  656MOL0     H86565  -2.854  -0.961   9.338  0.3870  0.1490  0.9581
  656MOL0     H86566  -3.076  -1.134   9.205 -3.3758  0.5806  1.5078
  656MOL0     H86567  -3.096  -0.974   9.258  0.6818  0.7765  0.2148
  656MOL0     H86568  -3.200  -1.096   9.430 -0.9273  0.7133 -3.5342
  656MOL0     H86569  -3.039  -1.079   9.500 -1.7099  1.1642 -0.0194
  656MOL0     H86570  -3.146  -1.329   9.355 -0.2180  1.8802 -2.5278
  656MOL0     H86571  -2.971  -1.301   9.378 -0.8139  1.2567 -1.9968
  656MOL0     H86572  -3.062  -1.453   9.562  0.0276  0.2712  1.0526
  656MOL0     H86573  -3.161  -1.309   9.607 -0.4877  0.0482  0.6994
  656MOL0     H86574  -2.601  -0.639   8.828  0.5056  1.6543  0.2564
  656MOL0     H86575  -2.396  -0.522   8.802  2.2952  0.6511  1.0074
  656MOL0     H86576  -1.979  -0.420   8.629 -0.3745 -1.7163  1.1518
  656MOL0     H86577  -1.790  -0.284   8.627 -2.5313 -1.3061 -0.9397
  656MOL0     H86578  -0.240   0.651   8.797 -0.7718 -0.4947 -2.5913
  656MOL0     H86579  -0.038   0.828   8.764 -0.9351 -0.4784 -0.1237
  656MOL0     H86580   0.371   0.924   8.312  0.3722 -0.8974  0.1767
  656MOL0     H86581   0.582   1.036   8.333 -1.2062  2.6119  2.1833
  656MOL0     H86582   0.717   1.210   8.414 -0.3829  0.5156  0.3318
  656MOL0     H86583   0.823   1.080   8.366  4.4766  0.5638  0.8506
  656MOL0     H86584   0.951   1.265   8.410 -1.8942  1.3293  0.6408
  656MOL0     H86585   0.894   1.278   8.579  2.5210  1.9914  0.1713
  656MOL0     H86586   1.040   1.027   8.460  0.8195 -1.1014  1.8063
  656MOL0     H86587   0.990   1.048   8.624  2.8899 -0.1892  1.0926
  656MOL0     H86588   1.165   1.246   8.624 -1.8204  1.4427 -1.2040
  656MOL0     H86589   1.221   1.075   8.639  1.3477 -0.6880  0.0295
  656MOL0     H86590   1.370   1.177   8.255  1.2690 -1.8313 -0.2487
  656MOL0     H86591   0.614   0.930   8.745  0.1205 -0.6294 -0.0430
  656MOL0     H86592   0.401   0.823   8.735  1.9893 -0.1641  1.1938
  657MOL0     O86593   2.658   9.709   3.188 -0.4657  0.1626 -0.5359
  657MOL0     C86594   2.659   9.582   3.199 -0.7360 -0.1898  0.3513
  657MOL0     O86595   2.563   9.498   3.239  0.4150 -0.7890 -0.4709
  657MOL0     C86596   2.431   9.537   3.247  0.4393 -0.3065  0.3330
  657MOL0     C86597   2.371   9.648   3.189 -0.0244  0.0163  0.8394
  657MOL0     C86598   2.230   9.663   3.201  0.1218 -0.0608 -0.8992
  657MOL0     C86599   2.147   9.565   3.261 -0.1327 -0.3428 -0.9156
  657MOL0     O86600   2.009   9.595   3.273  0.5063 -0.1816  0.0837
  657MOL0     C86601   1.919   9.498   3.325  0.1675 -0.8417 -0.1721
  657MOL0     C86602   1.773   9.530   3.298  0.1574 -0.6696 -0.9098
  657MOL0     C86603   1.715   9.620   3.412  0.0852  0.1931  0.5261
  657MOL0     C86604   1.565   9.670   3.407  0.2452  0.2982 -0.1393
  657MOL0     C86605   1.470   9.553   3.386 -0.2326 -0.0014  1.2068
  657MOL0     C86606   1.326   9.596   3.403 -0.5716  0.0793  0.2686
  657MOL0     C86607   1.268   9.668   3.285 -0.1040 -0.2202 -0.0539
  657MOL0     C86608   1.118   9.633   3.273 -0.4936  0.6407  1.5030
  657MOL0     N86609   1.061   9.703   3.159  0.1376 -0.0383  0.4160
  657MOL0     C86610   1.067   9.844   3.128 -0.0681 -0.4070 -0.6733
  657MOL0     C86611   1.021   9.848   3.003  0.1652 -0.3600 -0.0106
  657MOL0     C86612   1.033   9.975   2.923  0.1281  0.1855  0.1531
  657MOL0     C86613   0.899  10.037   2.907  0.0735  0.0243 -0.3720
  657MOL0     C86614   0.844  10.101   3.034  0.2224 -0.6773 -0.0968
  657MOL0     C86615   0.691  10.142   3.017 -0.1760 -1.4001 -0.2687
  657MOL0     O86616   0.627  10.175   3.145 -0.1702 -0.1890  0.4237
  657MOL0     C86617   0.489  10.198   3.138 -0.3357 -1.4917 -0.2238
  657MOL0     C86618   0.428  10.243   3.254 -0.0230 -0.3918 -0.4461
  657MOL0     C86619   0.291  10.290   3.260  0.0891 -0.0148  0.4562
  657MOL0     C86620   0.216  10.297   3.134 -0.1016  0.4886 -0.0628
  657MOL0     C86621   0.077  10.337   3.123  0.1587  0.3847 -0.8100
  657MOL0     O86622   0.013  10.350   3.003 -0.0248  0.0892 -1.0725
  657MOL0     C86623  -0.116  10.393   3.014  0.6365  0.0616  0.3289
  657MOL0     C86624  -0.126  10.532   3.027 -0.5080 -0.4233  0.2009
  657MOL0     C86625  -0.259  10.587   3.032  0.1627  0.2551  0.4035
  657MOL0     C86626  -0.373  10.510   3.017 -0.9046  0.2191  0.5076
  657MOL0     O86627  -0.498  10.549   2.997 -0.1012 -0.3650  0.2891
  657MOL0     C86628  -0.527  10.686   3.041  0.2818  0.3138 -0.1168
  657MOL0     C86629  -0.671  10.708   3.015 -0.2992 -0.3122  0.5571
  657MOL0     C86630  -0.716  10.847   3.064  0.2723 -0.1772  0.5800
  657MOL0     C86631  -0.868  10.863   3.042 -0.1319  0.5207 -0.2579
  657MOL0     C86632  -0.910  11.004   3.069  1.0093 -0.3955 -0.1766
  657MOL0     C86633  -1.045  11.051   3.005 -0.4624  0.0632 -0.2839
  657MOL0     C86634  -1.170  10.997   3.073  0.0627  0.7656 -0.1466
  657MOL0     C86635  -1.297  11.064   3.026 -0.8293  0.8387  0.1294
  657MOL0    Cl86636  -1.306  11.049   2.843 -0.1046 -0.1077 -0.2093
  657MOL0     C86637  -0.355  10.375   2.983 -0.2150  0.5402  0.5900
  657MOL0     C86638  -0.227  10.323   2.980  0.9433 -0.3581  0.9522
  657MOL0     O86639   0.030  10.382   3.229 -0.2983  0.0438 -0.1956
  657MOL0     C86640   0.281  10.236   3.022 -0.2335 -0.4299  0.3401
  657MOL0     C86641   0.417  10.191   3.022  0.0817  0.0541  0.5571
  657MOL0     N86642   0.983   9.727   2.957  0.0665  0.0801  0.1944
  657MOL0     N86643   1.016   9.642   3.040 -0.3059  0.1064 -0.5105
  657MOL0     C86644   2.206   9.450   3.316 -0.5441 -0.8070 -0.0637
  657MOL0     C86645   2.347   9.442   3.306  0.0312  0.4265 -0.0264
  657MOL0     C86646   2.795   9.512   3.196 -0.5187 -0.1631  1.1886
  657MOL0     C86647   2.912   9.593   3.180 -0.3920 -0.0773  0.8244
  657MOL0     C86648   3.040   9.529   3.172  0.4993  0.4730  0.3721
  657MOL0     C86649   3.047   9.392   3.168  0.7387 -0.2586  0.5570
  657MOL0     O86650   3.166   9.331   3.143 -0.4712 -0.2761 -0.4549
  657MOL0     C86651   3.211   9.251   3.250 -0.3329 -0.5856  0.6595
  657MOL0     C86652   3.332   9.164   3.183 -0.3665  1.1083  0.0694
  657MOL0     C86653   3.461   9.248   3.162  1.2253 -0.4309  0.2050
  657MOL0     C86654   3.581   9.172   3.112  0.1242  0.4534 -0.2997
  657MOL0     C86655   3.655   9.241   3.010  0.1655 -0.4040 -0.5248
  657MOL0     C86656   3.720   9.310   2.931  0.3064 -0.2065 -0.2537
  657MOL0     C86657   2.931   9.310   3.169  0.0449  0.3060 -0.1955
  657MOL0     C86658   2.810   9.370   3.192  0.0603 -0.3128  0.6858
  657MOL0     H86659   2.410   9.736   3.139 -0.8963 -0.0458  0.0198
  657MOL0     H86660   2.185   9.753   3.159  1.9094  0.7383 -1.2050
  657MOL0     H86661   1.933   9.481   3.432 -1.5046 -2.6148 -0.1915
  657MOL0     H86662   1.928   9.400   3.276  1.3397  0.3167 -2.4391
  657MOL0     H86663   1.722   9.433   3.300  2.2381 -1.8202 -0.6194
  657MOL0     H86664   1.764   9.575   3.199  0.5543  3.7854  0.8282
  657MOL0     H86665   1.784   9.702   3.433 -0.1263  0.7471 -0.8357
  657MOL0     H86666   1.730   9.569   3.508  0.8249  0.6730  0.6682
  657MOL0     H86667   1.541   9.714   3.504  0.5461  1.7652 -0.7149
  657MOL0     H86668   1.548   9.745   3.329  2.2386 -1.8485 -2.8669
  657MOL0     H86669   1.507   9.479   3.458  2.0434  1.3957  1.5636
  657MOL0     H86670   1.481   9.503   3.289  1.3624  0.2526  1.2345
  657MOL0     H86671   1.319   9.658   3.493 -1.0863 -1.4814  1.3424
  657MOL0     H86672   1.264   9.506   3.411  0.6584 -1.0396 -1.8730
  657MOL0     H86673   1.276   9.776   3.298  1.9804 -0.3612  0.1017
  657MOL0     H86674   1.326   9.642   3.196 -0.4237 -2.6588  0.3760
  657MOL0     H86675   1.064   9.656   3.365  0.4907  2.1941  1.7207
  657MOL0     H86676   1.097   9.530   3.242 -0.3305  1.1164 -0.3407
  657MOL0     H86677   1.112   9.926   3.184  0.8521 -0.9075 -0.6549
  657MOL0     H86678   1.069   9.944   2.824  1.7215 -2.2101  1.3819
  657MOL0     H86679   1.103  10.049   2.963  1.0856 -0.0777 -0.9710
  657MOL0     H86680   0.826   9.963   2.874 -0.3826  1.0556 -1.7753
  657MOL0     H86681   0.919  10.112   2.830 -0.8065 -0.1118 -0.7389
  657MOL0     H86682   0.842  10.030   3.118 -2.3086 -0.0722  0.4636
  657MOL0     H86683   0.898  10.192   3.060  2.5882 -1.3955 -2.0816
  657MOL0     H86684   0.641  10.061   2.963 -0.0566 -2.6736  1.4745
  657MOL0     H86685   0.679  10.227   2.949 -0.7257 -1.9295 -0.8385
  657MOL0     H86686   0.487  10.257   3.344  0.7633  0.7532 -1.1122
  657MOL0     H86687   0.237  10.332   3.345 -0.7319 -0.0390 -0.0376
  657MOL0     H86688  -0.043  10.600   3.042 -1.4135  1.2654 -1.9099
  657MOL0     H86689  -0.277  10.691   3.056 -2.3872 -0.1745  0.7001
  657MOL0     H86690  -0.471  10.749   2.972  0.6461 -2.7834 -2.9313
  657MOL0     H86691  -0.516  10.704   3.148 -0.2195 -1.7328  0.3227
  657MOL0     H86692  -0.725  10.625   3.060  1.2980 -1.6250  0.1671
  657MOL0     H86693  -0.682  10.706   2.906  1.2877 -0.2361  0.3742
  657MOL0     H86694  -0.664  10.923   3.005 -0.7201 -0.5402 -0.8286
  657MOL0     H86695  -0.689  10.866   3.168  0.8778 -0.8780  0.5621
  657MOL0     H86696  -0.894  10.830   2.941 -0.1241 -1.8857  0.4749
  657MOL0     H86697  -0.927  10.796   3.104 -0.4522  0.0126 -1.1058
  657MOL0     H86698  -0.834  11.075   3.035 -0.5156  1.3227 -0.1387
  657MOL0     H86699  -0.905  11.004   3.178 -0.4911 -0.1514 -0.0885
  657MOL0     H86700  -1.051  11.011   2.903 -1.9219 -2.1801  0.6066
  657MOL0     H86701  -1.043  11.160   3.012  1.4383 -0.0487  2.1196
  657MOL0     H86702  -1.191  10.890   3.057 -0.4516  0.7059  0.8419
  657MOL0     H86703  -1.167  11.006   3.182 -2.4247  1.1866 -0.0608
  657MOL0     H86704  -1.288  11.170   3.050  1.9212  1.1098 -1.5797
  657MOL0     H86705  -1.388  11.024   3.071 -1.1563  1.1523 -0.2525
  657MOL0     H86706  -0.446  10.321   2.958  0.2747 -0.0436  0.0458
  657MOL0     H86707  -0.208  10.219   2.955  0.0608 -0.2596 -0.2088
  657MOL0     H86708   0.239  10.216   2.924 -0.0593 -0.0120  0.1752
  657MOL0     H86709   0.450  10.164   2.923 -1.8527  0.6162 -0.3048
  657MOL0     H86710   2.149   9.381   3.379 -1.2986 -0.8378 -0.7725
  657MOL0     H86711   2.388   9.351   3.348 -3.0263 -1.3164 -0.5397
  657MOL0     H86712   2.913   9.702   3.180  1.8512 -0.0229 -0.9889
  657MOL0     H86713   3.128   9.593   3.163  0.4616  0.6493  1.2280
  657MOL0     H86714   3.141   9.188   3.306 -1.7104 -0.5021 -0.9152
  657MOL0     H86715   3.249   9.313   3.331 -1.3050  0.7096  0.1500
  657MOL0     H86716   3.348   9.084   3.256 -1.3465  0.4595 -0.4063
  657MOL0     H86717   3.292   9.118   3.093 -0.2520  2.1127 -0.5033
  657MOL0     H86718   3.483   9.299   3.257 -0.0995  1.1628 -0.2824
  657MOL0     H86719   3.440   9.328   3.091  0.2990 -1.4659 -0.7082
  657MOL0     H86720   3.646   9.140   3.194  1.0567  0.8389 -0.8735
  657MOL0     H86721   3.546   9.077   3.072  0.3802  0.8612 -1.5194
  657MOL0     H86722   3.785   9.376   2.877  0.9991 -0.2752  0.4781
  657MOL0     H86723   2.933   9.202   3.174  0.9730 -0.0487 -4.5474
  657MOL0     H86724   2.729   9.298   3.199 -1.6896  1.1146 -2.4719
  658MOL0     O86725   3.109   9.826   7.506  0.1537 -0.1070 -0.2698
  658MOL0     C86726   3.135   9.817   7.387  0.3527  0.1516  0.5165
  658MOL0     O86727   3.063   9.754   7.298 -0.3981 -0.4948 -0.1405
  658MOL0     C86728   2.937   9.701   7.334 -1.0194 -0.0276 -0.3515
  658MOL0     C86729   2.849   9.796   7.389  0.3451 -0.3909 -0.6507
  658MOL0     C86730   2.721   9.768   7.423 -0.9212 -0.1700  0.5439
  658MOL0     C86731   2.682   9.641   7.397  0.3982 -0.3533  0.1018
  658MOL0     O86732   2.548   9.624   7.409 -0.8733  0.1580  0.1171
  658MOL0     C86733   2.519   9.497   7.470 -1.2640 -0.0635  0.2116
  658MOL0     C86734   2.389   9.511   7.548 -0.6014  0.2026 -1.0392
  658MOL0     C86735   2.263   9.544   7.461 -0.0384  0.0476 -0.8513
  658MOL0     C86736   2.133   9.535   7.540 -0.1392  0.2764  0.4304
  658MOL0     C86737   1.998   9.536   7.468 -0.3292 -0.2177  0.3430
  658MOL0     C86738   1.975   9.405   7.389 -0.2415 -0.3086  1.0208
  658MOL0     C86739   1.863   9.416   7.282  0.0507 -0.2563  0.2773
  658MOL0     C86740   1.888   9.305   7.184 -0.6393 -0.4777  0.4421
  658MOL0     N86741   1.762   9.272   7.120 -0.1326 -0.1070  0.4888
  658MOL0     C86742   1.683   9.166   7.156 -0.1944  0.6360 -0.3477
  658MOL0     C86743   1.572   9.187   7.081  0.1488 -0.1520 -0.0032
  658MOL0     C86744   1.453   9.104   7.070 -0.0215 -0.1450  0.3114
  658MOL0     C86745   1.335   9.170   7.151  0.3289 -0.6012  0.0393
  658MOL0     C86746   1.274   9.274   7.070  0.5999 -0.1764 -0.4067
  658MOL0     C86747   1.192   9.228   6.944 -0.1458 -0.3636  0.1086
  658MOL0     O86748   1.051   9.204   6.977 -0.6013 -0.4719  0.4022
  658MOL0     C86749   0.957   9.174   6.878 -0.7226 -0.2054 -1.0552
  658MOL0     C86750   0.829   9.153   6.916  0.3362  0.5989  0.5152
  658MOL0     C86751   0.728   9.137   6.822  0.3635  0.8567  0.0137
  658MOL0     C86752   0.757   9.139   6.683 -0.1935  0.1967 -0.1914
  658MOL0     C86753   0.643   9.119   6.591  0.3375 -0.6073  0.3921
  658MOL0     O86754   0.516   9.118   6.649 -0.0213  0.3717 -1.0128
  658MOL0     C86755   0.410   9.096   6.564 -0.2046 -0.6059  0.2873
  658MOL0     C86756   0.402   8.986   6.471 -0.1895 -0.4903  1.0734
  658MOL0     C86757   0.281   8.963   6.398  0.0683 -0.2256 -0.2291
  658MOL0     C86758   0.169   9.044   6.416  0.6099 -0.1746 -0.0083
  658MOL0     O86759   0.058   9.004   6.345  0.5958  0.6173  0.3474
  658MOL0     C86760  -0.067   9.061   6.375  0.7008 -0.0791 -0.3368
  658MOL0     C86761  -0.153   9.052   6.248 -0.8554  1.0227  0.1456
  658MOL0     C86762  -0.290   9.119   6.270  0.1547  0.7973 -0.1605
  658MOL0     C86763  -0.362   9.043   6.376 -0.7082 -0.1368  0.0232
  658MOL0     C86764  -0.506   9.083   6.396 -0.2264 -0.1696  0.1769
  658MOL0     C86765  -0.606   9.062   6.283  1.4270 -1.1077  0.0765
  658MOL0     C86766  -0.743   9.098   6.345 -0.5573 -0.5700  0.0436
  658MOL0     C86767  -0.863   9.088   6.250 -0.4185  0.1710  0.0198
  658MOL0    Cl86768  -0.911   8.917   6.242 -0.3937 -0.2188 -0.1089
  658MOL0     C86769   0.180   9.151   6.506 -1.0016 -1.2205 -0.1456
  658MOL0     C86770   0.294   9.177   6.591 -0.7591 -0.1817  0.3373
  658MOL0     O86771   0.673   9.115   6.470 -0.1718 -0.1784  0.5894
  658MOL0     C86772   0.892   9.158   6.637  0.6830 -0.2383  0.1544
  658MOL0     C86773   0.987   9.174   6.740  0.8690 -0.4572 -0.0656
  658MOL0     N86774   1.600   9.284   6.985 -0.0328 -0.9163 -0.1250
  658MOL0     N86775   1.712   9.335   7.020  0.5609 -0.5050 -0.3534
  658MOL0     C86776   2.769   9.542   7.343 -0.5205  0.1271  0.6633
  658MOL0     C86777   2.902   9.571   7.310  0.0651  0.0352 -0.4411
  658MOL0     C86778   3.245   9.900   7.339 -0.1905  0.1562  0.3171
  658MOL0     C86779   3.321   9.983   7.420  0.7480 -0.6064 -0.1388
  658MOL0     C86780   3.440  10.044   7.367 -0.7940 -0.5471  0.6443
  658MOL0     C86781   3.470  10.043   7.227  0.1311  0.1410 -0.4890
  658MOL0     O86782   3.587  10.114   7.190 -0.3460  0.5814 -0.1865
  658MOL0     C86783   3.612  10.120   7.047  0.9285  0.4461  0.2114
  658MOL0     C86784   3.724  10.219   7.010  0.3171  0.4757 -0.1985
  658MOL0     C86785   3.770  10.188   6.868 -0.4649 -0.2924  0.2012
  658MOL0     C86786   3.885  10.279   6.825  0.5411 -0.1570 -0.7880
  658MOL0     C86787   3.836  10.404   6.766  0.4417  0.6604 -0.7674
  658MOL0     C86788   3.783  10.500   6.717 -0.6460 -0.1518  0.0424
  658MOL0     C86789   3.390   9.958   7.150  0.7406 -0.4137  0.4576
  658MOL0     C86790   3.288   9.883   7.198  1.0237  0.9158 -0.5267
  658MOL0     H86791   2.884   9.896   7.412 -1.2171 -0.2197  1.2145
  658MOL0     H86792   2.653   9.847   7.457  0.1334  0.1942  1.8936
  658MOL0     H86793   2.602   9.463   7.533  2.2239  0.9075 -3.4297
  658MOL0     H86794   2.514   9.419   7.394  1.1401 -0.9807  0.8945
  658MOL0     H86795   2.392   9.594   7.619 -1.1988 -1.9214  1.6603
  658MOL0     H86796   2.388   9.416   7.602  0.0002 -0.5289 -2.2770
  658MOL0     H86797   2.261   9.464   7.386 -0.3665 -0.7270 -0.0293
  658MOL0     H86798   2.269   9.643   7.414  2.3791  0.4697  0.1434
  658MOL0     H86799   2.132   9.448   7.606  1.1553 -0.9595 -1.1199
  658MOL0     H86800   2.128   9.616   7.614  1.0428  0.4992  0.2722
  658MOL0     H86801   1.988   9.615   7.392  0.5637 -1.3559 -1.0166
  658MOL0     H86802   1.920   9.552   7.542  0.3928  1.3838  0.8032
  658MOL0     H86803   1.963   9.317   7.454 -0.4069 -1.4861 -0.5437
  658MOL0     H86804   2.065   9.379   7.333 -0.3145  1.1369  0.2044
  658MOL0     H86805   1.763   9.393   7.320 -0.8324 -3.7880 -3.4455
  658MOL0     H86806   1.857   9.516   7.239 -0.4783 -0.9278 -1.3128
  658MOL0     H86807   1.938   9.220   7.230  2.7099  1.0747 -0.0555
  658MOL0     H86808   1.960   9.345   7.112  0.9739  0.6410  2.5475
  658MOL0     H86809   1.710   9.091   7.230 -1.0740  1.1373  0.5252
  658MOL0     H86810   1.475   9.005   7.111  0.5510 -0.4175 -0.6072
  658MOL0     H86811   1.430   9.079   6.966  0.8577 -0.8758  0.2814
  658MOL0     H86812   1.365   9.215   7.246 -0.6033  0.7992 -0.2993
  658MOL0     H86813   1.267   9.088   7.175  0.6841 -0.4612  1.6959
  658MOL0     H86814   1.212   9.338   7.133 -1.2141 -0.4072 -1.8686
  658MOL0     H86815   1.353   9.341   7.034  0.3041  1.5195  1.8283
  658MOL0     H86816   1.239   9.140   6.900  2.2540 -0.4150  2.5238
  658MOL0     H86817   1.195   9.308   6.869  0.2452  2.7370  3.1903
  658MOL0     H86818   0.795   9.153   7.019 -3.4634 -0.6237 -0.5781
  658MOL0     H86819   0.626   9.131   6.858 -0.1347 -2.1602 -1.4756
  658MOL0     H86820   0.490   8.930   6.445 -0.5673 -1.8545  2.5604
  658MOL0     H86821   0.268   8.883   6.326  0.2981 -0.9812  0.5430
  658MOL0     H86822  -0.070   9.167   6.400  2.6637 -0.5251  2.3385
  658MOL0     H86823  -0.112   9.002   6.456  2.1185 -0.2939  0.3292
  658MOL0     H86824  -0.161   8.948   6.215  0.7863  0.5695  1.0760
  658MOL0     H86825  -0.092   9.102   6.172  1.7516  1.1450  2.2064
  658MOL0     H86826  -0.348   9.122   6.178  0.1903  1.0415 -0.1775
  658MOL0     H86827  -0.268   9.216   6.316  0.7247 -0.1823  1.7245
  658MOL0     H86828  -0.367   8.938   6.347  2.3618  0.0229 -1.4444
  658MOL0     H86829  -0.314   9.052   6.474  1.5286  1.2311 -1.1089
  658MOL0     H86830  -0.513   9.183   6.439  1.5230 -0.4077  1.1178
  658MOL0     H86831  -0.546   9.022   6.477 -1.7607 -0.6229 -0.8814
  658MOL0     H86832  -0.612   8.961   6.241 -0.4409 -0.2218 -2.0385
  658MOL0     H86833  -0.586   9.137   6.205  0.2351 -0.4381  0.3927
  658MOL0     H86834  -0.772   9.059   6.443 -1.5562  0.4208  0.1592
  658MOL0     H86835  -0.726   9.204   6.367  0.9289 -0.4457 -1.5061
  658MOL0     H86836  -0.832   9.139   6.158 -0.7520  2.9756  1.3704
  658MOL0     H86837  -0.941   9.150   6.293 -0.2596  0.3956 -0.0122
  658MOL0     H86838   0.101   9.213   6.548  1.1390  1.4151  0.3376
  658MOL0     H86839   0.296   9.244   6.676 -1.2923 -1.6331  1.5385
  658MOL0     H86840   0.908   9.151   6.530  0.1647 -0.0988  0.0641
  658MOL0     H86841   1.085   9.202   6.704 -0.8089  0.1306 -5.0107
  658MOL0     H86842   2.731   9.442   7.323 -1.9400  0.4924  1.3923
  658MOL0     H86843   2.980   9.506   7.272  0.9219  1.5876 -1.4236
  658MOL0     H86844   3.299   9.992   7.525 -1.5506  0.8826 -0.6761
  658MOL0     H86845   3.503  10.109   7.426 -1.5342 -0.3462  1.2256
  658MOL0     H86846   3.519  10.134   6.992 -0.4788 -3.0366  1.4131
  658MOL0     H86847   3.643  10.019   7.018  1.3933  0.9590 -1.1547
  658MOL0     H86848   3.680  10.319   7.022 -1.0491 -0.2420  1.1540
  658MOL0     H86849   3.810  10.223   7.078  1.5900  1.2451 -1.7957
  658MOL0     H86850   3.685  10.207   6.801 -0.8410 -0.2736  0.6753
  658MOL0     H86851   3.807  10.087   6.851  2.1899  0.3777  1.5029
  658MOL0     H86852   3.951  10.307   6.908  2.2783  2.5810 -2.9340
  658MOL0     H86853   3.957  10.224   6.763  1.4436  0.0230  0.0679
  658MOL0     H86854   3.730  10.583   6.675  0.8262 -0.5126 -2.7867
  658MOL0     H86855   3.412   9.960   7.044 -1.0127  2.8906  0.0538
  658MOL0     H86856   3.239   9.803   7.143  2.6767 -1.0996  0.7752
  659MOL0     O86857   0.451   1.739   7.501  0.0866 -0.4685 -0.1866
  659MOL0     C86858   0.355   1.803   7.455  0.3493  0.0170  0.0563
  659MOL0     O86859   0.349   1.862   7.330  0.1276  0.1359  0.0221
  659MOL0     C86860   0.470   1.881   7.265  0.1309  0.4263 -0.2601
  659MOL0     C86861   0.559   1.972   7.306 -0.3167 -1.0857  0.4930
  659MOL0     C86862   0.682   1.993   7.242  0.1797  0.1462  1.2130
  659MOL0     C86863   0.714   1.915   7.122  1.2019  0.0555  0.5853
  659MOL0     O86864   0.835   1.911   7.064  0.2054 -0.9509 -0.0218
  659MOL0     C86865   0.923   2.020   7.087 -0.0371 -0.5014 -0.6012
  659MOL0     C86866   1.044   2.004   6.997 -0.4397 -0.2866 -0.3269
  659MOL0     C86867   1.149   1.901   7.043 -0.0155 -0.8789 -0.9265
  659MOL0     C86868   1.266   1.897   6.944  1.0675 -0.2382  0.1030
  659MOL0     C86869   1.401   1.858   7.003  0.0968 -0.0023 -0.3569
  659MOL0     C86870   1.507   1.836   6.898  0.6372 -0.0932  0.1180
  659MOL0     C86871   1.639   1.772   6.946  0.0555  1.2453 -0.2419
  659MOL0     C86872   1.759   1.773   6.845  0.3632  0.5473 -0.0138
  659MOL0     N86873   1.727   1.689   6.730  0.3616  0.1494 -0.4477
  659MOL0     C86874   1.713   1.553   6.744  0.3101 -0.6047  0.1457
  659MOL0     C86875   1.681   1.504   6.623 -0.2711 -0.4249 -0.3039
  659MOL0     C86876   1.667   1.361   6.586 -0.2559 -0.3770  0.6296
  659MOL0     C86877   1.549   1.334   6.485 -1.3131  0.1963 -0.8000
  659MOL0     C86878   1.413   1.345   6.528  0.1046  0.2708  0.2004
  659MOL0     C86879   1.298   1.318   6.426 -0.4327 -0.0949 -0.5334
  659MOL0     O86880   1.263   1.183   6.448 -0.2985 -0.3709  0.1986
  659MOL0     C86881   1.126   1.184   6.461  0.4976 -0.8207 -0.1964
  659MOL0     C86882   1.047   1.140   6.353 -0.2568 -1.1318 -0.0013
  659MOL0     C86883   0.903   1.139   6.372 -0.6844  0.0803 -0.0408
  659MOL0     C86884   0.846   1.166   6.501  0.3912 -0.1034  0.2725
  659MOL0     C86885   0.698   1.178   6.524  0.2811 -1.0711  0.3072
  659MOL0     O86886   0.617   1.199   6.416  0.1895  0.6437 -0.0695
  659MOL0     C86887   0.486   1.240   6.438 -0.0143  0.2647  0.9250
  659MOL0     C86888   0.382   1.185   6.359  0.2862  0.4800 -0.0136
  659MOL0     C86889   0.256   1.231   6.369  0.0783  0.5975  0.2186
  659MOL0     C86890   0.224   1.346   6.441  0.2304 -0.1900 -0.4019
  659MOL0     O86891   0.090   1.393   6.439 -0.0009 -0.7004 -0.1963
  659MOL0     C86892   0.063   1.514   6.513  0.4093  0.2155 -0.1047
  659MOL0     C86893  -0.091   1.533   6.532  0.0581  0.2616  0.5106
  659MOL0     C86894  -0.173   1.554   6.406  0.3663  0.3402  0.1942
  659MOL0     C86895  -0.330   1.575   6.427  1.0775 -0.9902 -0.0942
  659MOL0     C86896  -0.391   1.617   6.288 -0.1696 -0.1491 -0.2282
  659MOL0     C86897  -0.543   1.610   6.306 -0.7166 -0.6554  0.5171
  659MOL0     C86898  -0.641   1.679   6.209 -0.2627  0.3324 -0.0697
  659MOL0     C86899  -0.613   1.630   6.068  0.2578 -0.5053 -0.6723
  659MOL0    Cl86900  -0.695   1.470   6.050 -0.4001 -0.2681  0.1874
  659MOL0     C86901   0.331   1.408   6.513 -0.2488 -0.7122  0.3739
  659MOL0     C86902   0.456   1.349   6.518 -0.4144  0.2138  0.2540
  659MOL0     O86903   0.664   1.195   6.642 -0.0060 -0.7383 -0.6036
  659MOL0     C86904   0.940   1.189   6.616 -0.5473  0.3635 -0.2218
  659MOL0     C86905   1.078   1.201   6.590  0.4378  1.0035  0.3099
  659MOL0     N86906   1.669   1.614   6.538  1.0537 -0.5754 -0.2713
  659MOL0     N86907   1.700   1.721   6.600 -0.7270 -0.2686 -0.2838
  659MOL0     C86908   0.612   1.826   7.078 -0.3571 -0.2545  0.5356
  659MOL0     C86909   0.500   1.810   7.150  1.0729 -0.3011  0.0065
  659MOL0     C86910   0.235   1.834   7.544 -0.1027 -0.4164 -0.6567
  659MOL0     C86911   0.123   1.905   7.485 -0.1129 -0.9322 -0.9517
  659MOL0     C86912   0.017   1.938   7.572 -0.1878 -0.9297 -0.4589
  659MOL0     C86913   0.029   1.936   7.713 -1.5933 -0.1159  0.3096
  659MOL0     O86914  -0.048   1.999   7.802 -0.1474  0.6605  0.5457
  659MOL0     C86915  -0.156   2.080   7.768 -0.2009 -0.7479  1.0291
  659MOL0     C86916  -0.281   1.989   7.768  0.7592 -0.6019 -0.0680
  659MOL0     C86917  -0.304   1.907   7.900  0.5349 -0.5454 -0.4148
  659MOL0     C86918  -0.428   1.825   7.888 -0.3108  0.7601  1.0552
  659MOL0     C86919  -0.538   1.918   7.900 -1.0353 -0.4367 -0.8885
  659MOL0     C86920  -0.619   2.000   7.919  0.1661  0.0243 -0.9612
  659MOL0     C86921   0.146   1.874   7.759  0.4585  0.5831 -0.3338
  659MOL0     C86922   0.251   1.814   7.684 -0.6043  0.0169 -0.8017
  659MOL0     H86923   0.533   2.038   7.388 -2.2978 -0.1510 -0.8362
  659MOL0     H86924   0.748   2.073   7.272 -2.2748  3.8419 -2.1059
  659MOL0     H86925   0.964   2.028   7.188 -1.2250  0.5771 -0.1751
  659MOL0     H86926   0.874   2.116   7.071 -0.7762 -0.5949  0.9448
  659MOL0     H86927   1.099   2.097   7.011  0.3105 -0.5817 -1.1701
  659MOL0     H86928   1.011   1.989   6.893  1.5575 -2.8763 -0.6924
  659MOL0     H86929   1.104   1.801   7.050  0.6579 -1.1711 -0.6959
  659MOL0     H86930   1.187   1.916   7.144 -3.7816 -1.4435  0.7436
  659MOL0     H86931   1.246   1.809   6.883  0.6232  1.9349 -3.1187
  659MOL0     H86932   1.282   1.984   6.880 -1.3560  2.0895  2.4002
  659MOL0     H86933   1.391   1.763   7.056  0.1131  0.5319  0.6396
  659MOL0     H86934   1.439   1.941   7.064 -3.5361  1.4646  0.1972
  659MOL0     H86935   1.537   1.925   6.842 -0.3169 -1.0567 -2.0338
  659MOL0     H86936   1.460   1.775   6.820  0.2186 -0.3717  0.5837
  659MOL0     H86937   1.668   1.827   7.036  0.5253 -0.7009  0.8457
  659MOL0     H86938   1.616   1.668   6.972 -1.2251  1.7292  0.6648
  659MOL0     H86939   1.852   1.731   6.884  0.7659  1.4803  0.0481
  659MOL0     H86940   1.787   1.875   6.817 -1.4167  0.3470 -2.8621
  659MOL0     H86941   1.752   1.485   6.820 -0.5495  0.1270  1.2648
  659MOL0     H86942   1.656   1.295   6.673 -2.6883  1.3057  1.7023
  659MOL0     H86943   1.757   1.329   6.533 -0.4076 -2.4206  1.5128
  659MOL0     H86944   1.565   1.228   6.460  3.2790  0.1884  1.0926
  659MOL0     H86945   1.566   1.402   6.402 -1.4901  1.0478 -0.1535
  659MOL0     H86946   1.395   1.289   6.621 -1.3340  1.6164  0.7670
  659MOL0     H86947   1.409   1.451   6.552 -0.3190  0.0970  0.9656
  659MOL0     H86948   1.333   1.331   6.323  2.3642  0.8451  0.4476
  659MOL0     H86949   1.218   1.385   6.458 -2.4942 -1.7645 -1.9729
  659MOL0     H86950   1.095   1.106   6.262  1.0146  2.1220 -0.6868
  659MOL0     H86951   0.830   1.125   6.293  0.9379 -0.0924 -1.5793
  659MOL0     H86952   0.412   1.104   6.294  2.1666  2.7719 -2.2235
  659MOL0     H86953   0.178   1.196   6.302  0.6891  0.0322 -0.1995
  659MOL0     H86954   0.084   1.601   6.451 -1.3297  0.2436 -0.7074
  659MOL0     H86955   0.114   1.520   6.610 -0.8452  0.9891  0.5421
  659MOL0     H86956  -0.114   1.608   6.608 -1.9551 -1.2983  1.5773
  659MOL0     H86957  -0.137   1.442   6.573 -3.0121  1.0483 -0.8497
  659MOL0     H86958  -0.144   1.476   6.334  1.0754  1.0163 -0.2669
  659MOL0     H86959  -0.136   1.643   6.354  0.4669  0.7157  0.8971
  659MOL0     H86960  -0.373   1.480   6.460  1.9605 -1.4657 -0.2691
  659MOL0     H86961  -0.353   1.652   6.501  0.9021  0.4797 -1.5894
  659MOL0     H86962  -0.366   1.551   6.205  0.2262  0.3891 -0.5423
  659MOL0     H86963  -0.367   1.722   6.269 -2.8744  0.4861 -0.5934
  659MOL0     H86964  -0.563   1.650   6.406 -0.9724  2.9324 -0.8167
  659MOL0     H86965  -0.572   1.505   6.298 -2.0090 -0.1847 -4.6447
  659MOL0     H86966  -0.741   1.647   6.240 -1.0063  0.0489 -2.5260
  659MOL0     H86967  -0.627   1.787   6.215 -1.6073  0.4942  0.5169
  659MOL0     H86968  -0.508   1.637   6.041  1.0057  0.5219  2.1169
  659MOL0     H86969  -0.673   1.693   6.002 -0.2008  1.5350  1.5351
  659MOL0     H86970   0.312   1.501   6.565 -2.0928 -0.2479 -1.0475
  659MOL0     H86971   0.535   1.396   6.576 -0.5967 -0.4508  1.0624
  659MOL0     H86972   0.907   1.207   6.718  2.7967  2.9507  0.5942
  659MOL0     H86973   1.157   1.222   6.661 -0.1979 -0.3303  1.4430
  659MOL0     H86974   0.620   1.756   6.995 -1.3778 -1.1312  1.1446
  659MOL0     H86975   0.432   1.736   7.109 -2.0676  1.3785  1.7542
  659MOL0     H86976   0.109   1.928   7.380 -0.9993 -0.0389 -0.6593
  659MOL0     H86977  -0.069   1.986   7.525  0.0236 -1.4305 -1.3769
  659MOL0     H86978  -0.140   2.126   7.670  1.6373 -0.9939  1.1733
  659MOL0     H86979  -0.169   2.154   7.848 -0.8489 -0.8236  0.9962
  659MOL0     H86980  -0.373   2.044   7.747  1.4243  1.2030  1.4745
  659MOL0     H86981  -0.258   1.919   7.687 -0.2710  0.5785 -1.4188
  659MOL0     H86982  -0.309   1.965   7.992  0.6839 -1.4677  0.1828
  659MOL0     H86983  -0.222   1.835   7.899  0.1731 -0.9863  0.5900
  659MOL0     H86984  -0.427   1.779   7.788 -0.1360 -3.0666  2.6424
  659MOL0     H86985  -0.433   1.738   7.953 -2.0810 -1.0660 -1.3224
  659MOL0     H86986  -0.666   2.095   7.936  0.7929  0.3213 -0.8724
  659MOL0     H86987   0.163   1.873   7.867 -2.1913  3.6908  0.2666
  659MOL0     H86988   0.335   1.767   7.733 -0.7451  0.4378 -0.1475
  660MOL0     O86989   4.743   4.977   8.665 -0.6946 -0.2433 -0.1685
  660MOL0     C86990   4.808   5.086   8.664 -0.6112  1.2458  0.6584
  660MOL0     O86991   4.755   5.206   8.625 -0.1675 -0.3919  0.8659
  660MOL0     C86992   4.610   5.214   8.617 -0.7372  0.5473  0.5553
  660MOL0     C86993   4.565   5.284   8.509 -0.3079 -0.8461  0.0148
  660MOL0     C86994   4.432   5.295   8.490  0.1014 -0.4379 -0.5179
  660MOL0     C86995   4.331   5.228   8.578 -0.1898 -0.3457  0.2061
  660MOL0     O86996   4.198   5.223   8.531 -0.3436 -0.2075  0.7107
  660MOL0     C86997   4.093   5.191   8.618 -0.3698 -0.1076 -0.3792
  660MOL0     C86998   3.960   5.182   8.549  0.0594 -0.7137 -0.6954
  660MOL0     C86999   3.905   5.327   8.521  0.5500  0.1038 -0.3473
  660MOL0     C87000   3.798   5.351   8.420 -1.1510  0.2190  0.0919
  660MOL0     C87001   3.677   5.257   8.447  0.3798 -0.4934  0.1240
  660MOL0     C87002   3.564   5.299   8.349 -0.0574 -0.4681  0.4873
  660MOL0     C87003   3.605   5.298   8.198  0.3410 -0.3603  0.0912
  660MOL0     C87004   3.492   5.326   8.108  0.1443  0.5397 -0.5935
  660MOL0     N87005   3.389   5.214   8.116  0.0775 -0.0934  0.2344
  660MOL0     C87006   3.396   5.086   8.067  0.3015  0.4987  0.1858
  660MOL0     C87007   3.299   5.012   8.114 -0.7864  0.5071 -0.6664
  660MOL0     C87008   3.277   4.862   8.100 -0.8704  0.2448 -0.1382
  660MOL0     C87009   3.205   4.819   7.975  0.5433 -0.0584  0.0505
  660MOL0     C87010   3.072   4.895   7.950 -0.6893  0.5173 -0.1996
  660MOL0     C87011   3.007   4.862   7.810 -0.3566 -0.3701 -0.7724
  660MOL0     O87012   2.923   4.975   7.777 -0.0241 -0.9346  0.4915
  660MOL0     C87013   2.813   4.962   7.703  0.3342 -0.5025 -0.4366
  660MOL0     C87014   2.712   5.058   7.718 -0.5971 -0.3022 -0.3581
  660MOL0     C87015   2.594   5.041   7.660 -1.1457  1.3980 -0.2381
  660MOL0     C87016   2.569   4.926   7.578  0.2282 -0.9516 -0.1490
  660MOL0     C87017   2.449   4.919   7.493  0.5360  0.3740 -0.4104
  660MOL0     O87018   2.336   4.953   7.552  0.6307 -0.2157 -0.1855
  660MOL0     C87019   2.203   4.941   7.500 -0.8937 -0.9311  0.2382
  660MOL0     C87020   2.166   4.852   7.393 -0.0357 -0.7068 -1.3914
  660MOL0     C87021   2.039   4.852   7.338 -0.6210 -0.0394  0.3554
  660MOL0     C87022   1.955   4.955   7.380  0.6866 -0.3872 -0.1043
  660MOL0     O87023   1.835   4.975   7.314 -0.0152  0.0150  1.1144
  660MOL0     C87024   1.727   4.989   7.412  0.7436  0.2984 -0.2012
  660MOL0     C87025   1.600   4.936   7.348 -0.0815 -0.5254 -0.7473
  660MOL0     C87026   1.484   4.926   7.454  0.6312 -0.1303  0.7459
  660MOL0     C87027   1.356   4.879   7.385 -1.1027  0.5381  0.9716
  660MOL0     C87028   1.372   4.739   7.314 -0.4892 -0.6423  0.1967
  660MOL0     C87029   1.229   4.692   7.269  0.5502  0.4073 -0.2265
  660MOL0     C87030   1.164   4.784   7.164 -0.0577  0.5328  0.2013
  660MOL0     C87031   1.031   4.727   7.129 -0.9285  0.3571  0.5578
  660MOL0    Cl87032   0.955   4.840   7.007  0.4010  0.1418 -0.1393
  660MOL0     C87033   1.987   5.035   7.488  1.0896 -0.2743 -0.3106
  660MOL0     C87034   2.107   5.023   7.549  0.5788 -0.2899 -0.5327
  660MOL0     O87035   2.463   4.877   7.374 -0.4525  0.5528 -0.4570
  660MOL0     C87036   2.672   4.836   7.560  0.3235 -0.4172 -0.0229
  660MOL0     C87037   2.791   4.843   7.628  0.0976 -0.5752  0.7047
  660MOL0     N87038   3.220   5.105   8.185  0.2849  0.0614 -0.3264
  660MOL0     N87039   3.270   5.228   8.189  0.7468  0.6603 -0.5710
  660MOL0     C87040   4.387   5.167   8.684  0.3758 -0.1639 -0.6296
  660MOL0     C87041   4.523   5.166   8.711  0.0729 -0.1942 -0.2214
  660MOL0     C87042   4.955   5.072   8.681 -0.0685 -0.7325 -0.1385
  660MOL0     C87043   5.023   4.949   8.688 -0.6024 -0.2995  0.3243
  660MOL0     C87044   5.160   4.932   8.703 -0.4055 -0.3329 -0.1458
  660MOL0     C87045   5.240   5.049   8.705  0.0030  0.2507  1.1944
  660MOL0     O87046   5.379   5.051   8.727 -0.2868 -0.2201  0.2125
  660MOL0     C87047   5.450   4.940   8.789 -0.0598 -0.2860  0.1685
  660MOL0     C87048   5.597   4.972   8.791  0.9216 -0.8381 -0.2136
  660MOL0     C87049   5.653   4.933   8.648 -0.5906  0.8261 -0.2525
  660MOL0     C87050   5.807   4.900   8.635  0.2948  0.2060  0.0519
  660MOL0     C87051   5.896   4.979   8.726 -0.4226 -0.0761  0.7693
  660MOL0     C87052   5.985   5.024   8.794  0.0277 -0.9381 -1.1805
  660MOL0     C87053   5.177   5.177   8.693 -0.2571  0.2957  0.0953
  660MOL0     C87054   5.036   5.187   8.688  0.1902  0.3029  0.6777
  660MOL0     H87055   4.639   5.319   8.438 -2.0359  1.8285 -0.6258
  660MOL0     H87056   4.395   5.343   8.400  1.8641  1.8716 -0.0987
  660MOL0     H87057   4.107   5.254   8.706 -0.1170  0.8137 -1.0626
  660MOL0     H87058   4.104   5.094   8.668 -2.5621 -1.1007 -1.6524
  660MOL0     H87059   3.892   5.132   8.619 -0.2904 -2.6391 -2.3408
  660MOL0     H87060   3.968   5.130   8.454 -0.3299 -1.2530 -0.4430
  660MOL0     H87061   3.988   5.393   8.494  0.8571 -1.3070 -3.1264
  660MOL0     H87062   3.871   5.364   8.619  0.6460 -2.9854  0.9699
  660MOL0     H87063   3.772   5.457   8.419  2.6317  1.3107 -2.2703
  660MOL0     H87064   3.846   5.320   8.326  2.0632 -3.8947  2.7159
  660MOL0     H87065   3.636   5.260   8.549  0.9789 -0.7493  0.3768
  660MOL0     H87066   3.696   5.152   8.421 -0.3615 -0.0331 -2.5447
  660MOL0     H87067   3.526   5.400   8.368 -0.2868 -0.0661 -1.8180
  660MOL0     H87068   3.478   5.231   8.347  1.1555 -2.2841 -4.5281
  660MOL0     H87069   3.669   5.385   8.181 -0.9071  0.4467 -0.5754
  660MOL0     H87070   3.664   5.210   8.169  1.9328  0.8450 -0.5259
  660MOL0     H87071   3.515   5.312   8.002 -1.9011 -1.0107 -0.9047
  660MOL0     H87072   3.453   5.424   8.136 -1.2171  0.2742 -1.4840
  660MOL0     H87073   3.468   5.036   8.003 -0.1404  1.1871 -0.8748
  660MOL0     H87074   3.224   4.815   8.184  3.1837 -2.8351  1.0493
  660MOL0     H87075   3.376   4.817   8.100 -1.1234 -0.3833 -1.8975
  660MOL0     H87076   3.178   4.713   7.978 -1.1820  0.3258 -0.8581
  660MOL0     H87077   3.265   4.830   7.884  2.3083  1.5254  1.3208
  660MOL0     H87078   2.995   4.874   8.026 -0.1004 -0.1641  0.2269
  660MOL0     H87079   3.098   5.001   7.941 -1.1311  0.6601  0.1393
  660MOL0     H87080   2.944   4.774   7.829  0.7452 -2.1478 -4.4437
  660MOL0     H87081   3.078   4.839   7.730 -1.2763 -3.0791 -0.9229
  660MOL0     H87082   2.734   5.150   7.771  1.1582 -0.5124 -0.6389
  660MOL0     H87083   2.518   5.118   7.669 -1.5778  0.9147  0.3719
  660MOL0     H87084   2.239   4.779   7.359 -1.5113 -2.6150 -0.6586
  660MOL0     H87085   2.007   4.797   7.249 -1.8636  1.9472 -0.5028
  660MOL0     H87086   1.703   5.094   7.429  0.2547  0.3012 -0.8531
  660MOL0     H87087   1.743   4.942   7.509 -0.5551  1.6383  0.6987
  660MOL0     H87088   1.628   4.834   7.317 -0.6879 -0.7825 -0.4708
  660MOL0     H87089   1.576   4.994   7.258 -2.0290 -1.9857 -1.2560
  660MOL0     H87090   1.466   5.029   7.486 -0.9372 -0.0056 -0.4206
  660MOL0     H87091   1.510   4.858   7.536 -0.8187 -2.5921 -0.6911
  660MOL0     H87092   1.270   4.878   7.452 -1.4725  3.2337  0.6540
  660MOL0     H87093   1.348   4.961   7.313  1.4624  0.7510  0.8147
  660MOL0     H87094   1.414   4.669   7.387 -0.5222 -0.4079  0.4427
  660MOL0     H87095   1.433   4.742   7.224  2.1221 -3.7875  1.6314
  660MOL0     H87096   1.168   4.677   7.359  0.9013 -0.5775 -0.1433
  660MOL0     H87097   1.232   4.595   7.220 -2.8442 -1.6777  3.1482
  660MOL0     H87098   1.155   4.885   7.206  0.4268  0.6556  0.0090
  660MOL0     H87099   1.222   4.789   7.072 -0.9813  1.8711 -0.3432
  660MOL0     H87100   0.974   4.703   7.219 -3.8292  0.2427 -1.1762
  660MOL0     H87101   1.039   4.625   7.089 -1.2709  0.1472  1.0240
  660MOL0     H87102   1.928   5.122   7.516  0.9465 -0.3763 -0.2966
  660MOL0     H87103   2.132   5.094   7.628  1.5244 -0.7133 -0.4310
  660MOL0     H87104   2.668   4.757   7.486 -0.2835 -1.3262  0.9545
  660MOL0     H87105   2.856   4.758   7.610 -0.9276 -1.8694  2.7244
  660MOL0     H87106   4.314   5.114   8.745 -2.8128  1.7471 -2.5059
  660MOL0     H87107   4.555   5.117   8.803 -0.9332  1.6853  1.1981
  660MOL0     H87108   4.961   4.860   8.689 -0.5818 -0.4181  3.9351
  660MOL0     H87109   5.216   4.838   8.699 -1.3440 -0.9905  1.3439
  660MOL0     H87110   5.441   4.836   8.758  2.5358 -0.6803  0.5395
  660MOL0     H87111   5.402   4.952   8.887  1.1954 -1.5495  0.9757
  660MOL0     H87112   5.615   5.080   8.794  0.9139 -0.7788 -1.7151
  660MOL0     H87113   5.649   4.932   8.878  1.5869 -1.2844 -0.8018
  660MOL0     H87114   5.624   5.022   8.591  1.6644  1.4156 -0.5845
  660MOL0     H87115   5.604   4.845   8.605 -0.5310  0.1093  1.0860
  660MOL0     H87116   5.824   4.795   8.661  1.7742 -0.0253 -1.6483
  660MOL0     H87117   5.830   4.915   8.529  0.9528 -0.0623  0.1566
  660MOL0     H87118   6.062   5.070   8.853 -0.3044  1.0286 -2.2236
  660MOL0     H87119   5.240   5.265   8.700  1.4901 -1.0595  2.8084
  660MOL0     H87120   4.988   5.284   8.698  0.3130  0.4726 -0.3632
  661MOL0     O87121   1.867   7.443   3.677  0.5720 -0.7458  0.3981
  661MOL0     C87122   1.877   7.501   3.786  0.9448 -0.8876 -0.4415
  661MOL0     O87123   1.776   7.515   3.875 -0.1308  0.5875 -0.3625
  661MOL0     C87124   1.676   7.420   3.877 -0.3944 -0.0401  0.2871
  661MOL0     C87125   1.554   7.480   3.879  0.3667 -0.0013 -0.4953
  661MOL0     C87126   1.453   7.396   3.851 -0.1408 -0.4800 -0.8336
  661MOL0     C87127   1.467   7.249   3.851  0.9570 -0.5859 -0.5772
  661MOL0     O87128   1.345   7.179   3.821  0.1149  0.0800 -0.8199
  661MOL0     C87129   1.340   7.042   3.868 -0.1027 -0.3594 -0.1965
  661MOL0     C87130   1.207   6.987   3.823 -1.0343 -0.3388 -0.0206
  661MOL0     C87131   1.088   7.068   3.874  0.3107 -0.3329 -0.4854
  661MOL0     C87132   0.968   6.984   3.817 -0.3219  0.1210 -0.1818
  661MOL0     C87133   0.838   7.048   3.837  0.7190 -0.6602 -0.9030
  661MOL0     C87134   0.813   7.165   3.739  0.1680 -0.3105  0.6198
  661MOL0     C87135   0.668   7.200   3.718  1.2512  0.2342 -0.6702
  661MOL0     C87136   0.595   7.106   3.623  0.8333 -0.3278 -0.4156
  661MOL0     N87137   0.446   7.108   3.644  0.7749  0.6960 -0.7100
  661MOL0     C87138   0.363   7.218   3.666  0.7283 -0.9296 -0.4643
  661MOL0     C87139   0.242   7.169   3.700 -0.2316  0.7953  0.1104
  661MOL0     C87140   0.108   7.244   3.735  0.2178 -0.0645  0.4799
  661MOL0     C87141  -0.028   7.174   3.716 -0.1049 -0.1845 -0.7841
  661MOL0     C87142  -0.146   7.255   3.775 -0.1934 -0.5003 -0.4187
  661MOL0     C87143  -0.276   7.205   3.712 -0.4990 -0.1528  0.0455
  661MOL0     O87144  -0.393   7.267   3.776 -0.1050 -0.1613  0.0819
  661MOL0     C87145  -0.506   7.189   3.790  0.1492  0.5546 -0.2155
  661MOL0     C87146  -0.545   7.085   3.709  0.0924 -0.6420  0.0960
  661MOL0     C87147  -0.664   7.021   3.733  0.6083  0.3233  0.1169
  661MOL0     C87148  -0.761   7.060   3.830 -0.4909  0.2317  0.7849
  661MOL0     C87149  -0.888   6.995   3.859 -0.0616  0.1209  0.0884
  661MOL0     O87150  -0.966   7.042   3.961 -0.9842 -0.1649 -0.0473
  661MOL0     C87151  -1.090   6.984   3.982  0.1618 -0.1767 -0.3701
  661MOL0     C87152  -1.178   7.072   4.043  0.5206  1.2033 -0.4567
  661MOL0     C87153  -1.318   7.041   4.054 -0.3443  0.7992  0.6072
  661MOL0     C87154  -1.363   6.910   4.026 -0.3093  0.2032 -0.6771
  661MOL0     O87155  -1.489   6.865   4.029  0.3470 -0.1917 -0.5568
  661MOL0     C87156  -1.598   6.952   4.081 -0.3311  0.4843  0.1334
  661MOL0     C87157  -1.598   6.960   4.235  0.6476  0.7267 -0.0334
  661MOL0     C87158  -1.712   7.047   4.297  0.8892  0.1897  0.3325
  661MOL0     C87159  -1.846   7.034   4.232  0.3219  0.4554  0.0847
  661MOL0     C87160  -1.904   6.897   4.288  0.6924  0.1063 -0.2362
  661MOL0     C87161  -2.053   6.885   4.286  0.0933  0.3277  0.6103
  661MOL0     C87162  -2.118   6.894   4.153  0.9963  0.4663  0.6862
  661MOL0     C87163  -2.278   6.902   4.165 -0.0294  0.0952  0.3945
  661MOL0    Cl87164  -2.338   6.850   4.004 -0.0595 -0.4785 -0.1584
  661MOL0     C87165  -1.266   6.818   3.986 -0.3439  0.5171  0.5126
  661MOL0     C87166  -1.129   6.855   3.955  0.3743 -0.2276 -0.7859
  661MOL0     O87167  -0.920   6.916   3.764 -0.2160 -0.2412 -0.2974
  661MOL0     C87168  -0.716   7.164   3.907 -0.1213 -0.3579  0.8366
  661MOL0     C87169  -0.600   7.231   3.892  0.4483 -1.0469 -0.6911
  661MOL0     N87170   0.248   7.031   3.694 -0.5868  0.0612 -0.8456
  661MOL0     N87171   0.371   6.996   3.665  0.4899  0.8425  0.5437
  661MOL0     C87172   1.593   7.197   3.866  0.2639  0.2894  0.3550
  661MOL0     C87173   1.701   7.283   3.867 -1.2760  0.5017 -0.6302
  661MOL0     C87174   2.018   7.558   3.821 -0.3567 -0.1133  0.0596
  661MOL0     C87175   2.132   7.527   3.737  1.1117 -0.3281  0.1111
  661MOL0     C87176   2.261   7.557   3.773 -0.1613  0.8370  0.2440
  661MOL0     C87177   2.288   7.629   3.895  0.3568  0.0326 -0.2589
  661MOL0     O87178   2.418   7.660   3.918 -0.3996  0.4567 -0.6870
  661MOL0     C87179   2.455   7.730   4.035  0.2677 -0.3180  0.5434
  661MOL0     C87180   2.606   7.729   4.057  0.2062 -0.2931  0.0511
  661MOL0     C87181   2.642   7.593   4.126  0.7931  0.4579 -0.5851
  661MOL0     C87182   2.796   7.577   4.136  0.1419  0.1997 -0.3746
  661MOL0     C87183   2.828   7.467   4.223 -1.1456  0.5732 -0.5002
  661MOL0     C87184   2.865   7.380   4.299  0.5713  0.0643 -0.3778
  661MOL0     C87185   2.176   7.661   3.977 -0.3447 -0.5264  0.0631
  661MOL0     C87186   2.044   7.624   3.943 -0.1770 -0.0956 -0.7371
  661MOL0     H87187   1.536   7.586   3.870 -0.0799 -0.2014 -2.5237
  661MOL0     H87188   1.352   7.433   3.868 -0.5342 -2.2102  0.9834
  661MOL0     H87189   1.351   7.016   3.974  0.5190  1.1991  0.1391
  661MOL0     H87190   1.430   7.003   3.821  0.8026  0.4657  0.8150
  661MOL0     H87191   1.201   6.885   3.861 -1.1238  0.3295  1.8413
  661MOL0     H87192   1.216   6.980   3.714 -1.0966 -0.6556 -0.0047
  661MOL0     H87193   1.090   7.171   3.838  0.3312 -0.4948 -0.9464
  661MOL0     H87194   1.081   7.066   3.983 -1.1484  0.8799 -0.5325
  661MOL0     H87195   0.978   6.961   3.711  1.2994 -0.4122  0.0501
  661MOL0     H87196   0.970   6.883   3.859  1.4633 -0.8643 -2.4450
  661MOL0     H87197   0.815   7.086   3.937 -3.5562  0.2504 -2.0253
  661MOL0     H87198   0.765   6.969   3.816  1.6166 -2.1618  1.1644
  661MOL0     H87199   0.852   7.138   3.640 -2.5051 -2.3268  0.0076
  661MOL0     H87200   0.871   7.252   3.771 -2.0203  3.5660 -4.4576
  661MOL0     H87201   0.603   7.215   3.804 -1.5870 -2.9462 -2.0156
  661MOL0     H87202   0.660   7.302   3.679  0.6067  1.1708  1.7588
  661MOL0     H87203   0.633   7.005   3.642  0.1496 -0.5985 -0.4500
  661MOL0     H87204   0.605   7.133   3.517 -1.3664 -1.4510 -0.9831
  661MOL0     H87205   0.386   7.324   3.676  0.0326 -0.8378  0.3283
  661MOL0     H87206   0.100   7.332   3.671  1.7769 -1.4744 -1.8159
  661MOL0     H87207   0.122   7.277   3.838  2.4969  4.6742 -1.0889
  661MOL0     H87208  -0.038   7.074   3.757 -0.3792 -0.3266 -1.1916
  661MOL0     H87209  -0.043   7.156   3.609  1.5405 -1.9815 -0.7702
  661MOL0     H87210  -0.142   7.242   3.883  0.2830  0.2929 -0.3300
  661MOL0     H87211  -0.137   7.360   3.745 -0.4224 -0.3426  0.0605
  661MOL0     H87212  -0.279   7.098   3.733  2.0639 -0.2177  0.3870
  661MOL0     H87213  -0.283   7.225   3.605 -2.7505  1.1764  0.3789
  661MOL0     H87214  -0.481   7.045   3.631  2.0841 -1.5574  2.0777
  661MOL0     H87215  -0.686   6.929   3.679  1.3972  0.2456 -0.0914
  661MOL0     H87216  -1.139   7.170   4.068 -0.2301  1.1793  0.8794
  661MOL0     H87217  -1.384   7.118   4.092 -0.2557  0.8566  0.6445
  661MOL0     H87218  -1.689   6.899   4.052 -0.7857  1.4858 -0.2951
  661MOL0     H87219  -1.605   7.052   4.038  0.0937  0.6997  0.5604
  661MOL0     H87220  -1.502   7.001   4.268  0.9315 -0.0006  0.0554
  661MOL0     H87221  -1.626   6.865   4.282 -3.1461  0.6754 -1.9493
  661MOL0     H87222  -1.683   7.151   4.279 -1.6165  1.0168  0.6240
  661MOL0     H87223  -1.731   7.028   4.403  0.8567 -2.8959 -0.1431
  661MOL0     H87224  -1.911   7.117   4.262  0.3561  1.4545 -2.3429
  661MOL0     H87225  -1.842   7.042   4.123  2.5710 -1.5965 -0.0723
  661MOL0     H87226  -1.876   6.895   4.394 -0.0791  0.8888 -0.0029
  661MOL0     H87227  -1.853   6.814   4.239  4.5922  1.2528  1.4459
  661MOL0     H87228  -2.101   6.963   4.346  0.0634  0.2705  0.6619
  661MOL0     H87229  -2.081   6.790   4.333  0.4994 -0.5010 -0.7682
  661MOL0     H87230  -2.089   6.988   4.105  2.8266 -0.0005  0.8092
  661MOL0     H87231  -2.101   6.802   4.097 -2.1243 -1.0243  1.9295
  661MOL0     H87232  -2.309   6.998   4.207  1.6188  0.5773  0.5961
  661MOL0     H87233  -2.308   6.821   4.231  1.0643 -4.0834 -3.7071
  661MOL0     H87234  -1.297   6.716   3.964 -1.7090  1.0075  0.0571
  661MOL0     H87235  -1.066   6.773   3.921 -0.8373 -0.6939 -2.0353
  661MOL0     H87236  -0.774   7.205   3.989 -2.4759 -0.5146 -0.6472
  661MOL0     H87237  -0.580   7.315   3.957 -0.0750 -0.4711 -1.2659
  661MOL0     H87238   1.602   7.089   3.873 -1.8600  0.0499  0.0923
  661MOL0     H87239   1.797   7.233   3.881 -1.3939  0.3729 -0.2661
  661MOL0     H87240   2.113   7.469   3.647  1.0968  0.0887 -0.1607
  661MOL0     H87241   2.346   7.530   3.711  0.1308  0.1061  0.9514
  661MOL0     H87242   2.402   7.706   4.128 -1.3714  0.8327 -0.0574
  661MOL0     H87243   2.448   7.839   4.027  2.1469 -0.1594  0.6353
  661MOL0     H87244   2.655   7.732   3.960 -0.1520 -0.6991 -0.1427
  661MOL0     H87245   2.641   7.817   4.113 -2.1573  0.4517  0.5204
  661MOL0     H87246   2.594   7.513   4.069 -1.4998  1.8646 -0.7550
  661MOL0     H87247   2.601   7.588   4.227  0.3460 -2.7031 -0.8185
  661MOL0     H87248   2.836   7.548   4.038 -0.8230 -0.0064 -0.7129
  661MOL0     H87249   2.847   7.669   4.164  1.1249 -0.6546  0.7295
  661MOL0     H87250   2.897   7.318   4.381  1.1249  2.2979  1.1849
  661MOL0     H87251   2.178   7.731   4.060 -2.9110  1.9744 -1.8047
  661MOL0     H87252   1.962   7.647   4.010  1.7113  0.2136  1.6034
  662MOL0     O87253   9.854   6.918   8.207 -0.7214 -0.7508  0.2412
  662MOL0     C87254   9.899   7.019   8.166  0.3531 -0.8339  0.8129
  662MOL0     O87255   9.832   7.139   8.180  0.3654  0.0928  0.4020
  662MOL0     C87256   9.711   7.130   8.232 -0.3614 -0.8488 -0.1284
  662MOL0     C87257   9.599   7.118   8.150  0.0843  0.1539 -1.7813
  662MOL0     C87258   9.479   7.073   8.208  0.5308 -0.1793  0.0692
  662MOL0     C87259   9.468   7.045   8.345  0.9559 -0.1642 -0.6850
  662MOL0     O87260   9.342   6.999   8.391  0.1791 -0.2727 -0.9229
  662MOL0     C87261   9.341   6.926   8.516 -0.8058  0.6113  0.2102
  662MOL0     C87262   9.239   6.811   8.520  1.1833 -0.4887 -0.9551
  662MOL0     C87263   9.092   6.855   8.536  0.5336  0.4280  0.0770
  662MOL0     C87264   8.998   6.739   8.506 -0.1827 -0.2285  0.2776
  662MOL0     C87265   8.849   6.797   8.510  0.4038  0.5428 -0.4556
  662MOL0     C87266   8.736   6.698   8.485 -0.6253 -0.6544  0.7268
  662MOL0     C87267   8.602   6.763   8.509  0.7570 -0.0940 -0.7613
  662MOL0     C87268   8.497   6.654   8.480 -0.2590 -0.8707 -0.7978
  662MOL0     N87269   8.355   6.697   8.503 -0.0850 -0.9712  0.4633
  662MOL0     C87270   8.298   6.673   8.624  0.0255 -0.0831  0.5454
  662MOL0     C87271   8.171   6.726   8.606  0.3050 -0.2339  0.5506
  662MOL0     C87272   8.070   6.714   8.721  1.3841  0.2523 -0.2382
  662MOL0     C87273   7.981   6.838   8.734 -0.8437 -0.1044  0.1772
  662MOL0     C87274   7.879   6.814   8.841 -1.2115 -0.1676  0.8827
  662MOL0     C87275   7.759   6.907   8.824 -0.0744 -0.7852 -0.1891
  662MOL0     O87276   7.670   6.892   8.935  0.3451  0.2156 -0.0638
  662MOL0     C87277   7.556   6.974   8.936  0.6717  0.6244 -0.0889
  662MOL0     C87278   7.481   6.962   9.053 -0.3991 -1.2126 -0.0646
  662MOL0     C87279   7.360   7.033   9.072  0.0230 -0.9389 -0.0362
  662MOL0     C87280   7.310   7.120   8.975  0.5018  0.0136  1.2490
  662MOL0     C87281   7.187   7.196   9.000 -0.1158  0.4388 -0.6790
  662MOL0     O87282   7.141   7.278   8.900 -0.8578 -0.0700 -0.1860
  662MOL0     C87283   7.013   7.322   8.904  0.2375  0.8917 -0.4239
  662MOL0     C87284   6.905   7.255   8.963 -0.0016  1.0237 -0.5312
  662MOL0     C87285   6.778   7.312   8.975  0.4863  0.2993  0.3102
  662MOL0     C87286   6.752   7.427   8.905 -0.9696  0.4328 -0.1946
  662MOL0     O87287   6.628   7.488   8.902  0.1858 -0.5198  0.7591
  662MOL0     C87288   6.517   7.412   8.947  0.2228  0.4636 -0.4311
  662MOL0     C87289   6.402   7.519   8.941  0.4714  0.2526 -0.2293
  662MOL0     C87290   6.260   7.448   8.929 -0.2058  0.2903 -0.4309
  662MOL0     C87291   6.147   7.552   8.953 -0.5242 -0.0446  0.8976
  662MOL0     C87292   6.007   7.508   8.919  0.3284 -0.4395  0.0347
  662MOL0     C87293   5.912   7.635   8.935 -0.4708  1.2123  0.1577
  662MOL0     C87294   5.775   7.581   8.876 -0.4858 -1.0551  0.6443
  662MOL0     C87295   5.651   7.683   8.880  0.8718  0.4725  0.3235
  662MOL0    Cl87296   5.515   7.614   8.804  0.1595 -0.0118 -0.0206
  662MOL0     C87297   6.854   7.490   8.835  0.4120  0.4344 -0.7050
  662MOL0     C87298   6.988   7.442   8.839 -0.1904 -0.1215  0.3503
  662MOL0     O87299   7.131   7.173   9.106 -0.0697 -0.2834  0.1600
  662MOL0     C87300   7.386   7.134   8.857  0.3773 -0.2108  0.1821
  662MOL0     C87301   7.507   7.062   8.838  0.5393  0.1324 -0.4056
  662MOL0     N87302   8.155   6.761   8.473  0.4021 -0.2785  0.5000
  662MOL0     N87303   8.265   6.741   8.410 -0.2252 -0.8490 -0.7452
  662MOL0     C87304   9.574   7.086   8.432  0.1977  0.0509 -0.4093
  662MOL0     C87305   9.689   7.132   8.375 -0.0442  0.6147  0.0700
  662MOL0     C87306  10.010   7.014   8.067  0.6965 -0.8809 -0.2065
  662MOL0     C87307  10.081   6.894   8.045 -1.2117 -0.2913 -0.5508
  662MOL0     C87308  10.181   6.904   7.947  0.4106  0.0720 -0.9017
  662MOL0     C87309  10.222   7.023   7.886  0.0372  0.0745  0.1074
  662MOL0     O87310  10.324   7.031   7.789  0.7931  0.2054  0.6944
  662MOL0     C87311  10.408   6.921   7.772  0.1483  0.0589 -0.4270
  662MOL0     C87312  10.505   6.944   7.655 -0.0111 -0.0061  0.2064
  662MOL0     C87313  10.608   6.835   7.624  0.1635  0.0592  0.3363
  662MOL0     C87314  10.719   6.832   7.736 -0.5662 -0.1096  0.3206
  662MOL0     C87315  10.766   6.957   7.790 -0.2892 -0.4281 -0.0670
  662MOL0     C87316  10.801   7.065   7.828 -0.2339  0.4175  0.6235
  662MOL0     C87317  10.136   7.138   7.905 -0.8479  0.2942 -0.0554
  662MOL0     C87318  10.034   7.130   7.994  0.0950 -0.2181 -0.4617
  662MOL0     H87319   9.607   7.135   8.044  2.2175 -0.7721 -1.8358
  662MOL0     H87320   9.393   7.072   8.141 -0.8662 -3.8437  1.6708
  662MOL0     H87321   9.322   7.008   8.586  0.0729  0.8558  0.1763
  662MOL0     H87322   9.438   6.877   8.524 -1.2876 -0.6255 -0.9861
  662MOL0     H87323   9.263   6.748   8.606 -1.3716 -1.9395 -1.2001
  662MOL0     H87324   9.242   6.760   8.423  0.4924  0.1715 -1.3346
  662MOL0     H87325   9.063   6.930   8.462 -3.3332  2.1437  3.0070
  662MOL0     H87326   9.067   6.908   8.629  0.7052  1.2684 -0.3500
  662MOL0     H87327   9.024   6.710   8.403  2.3326 -0.4704  0.9281
  662MOL0     H87328   9.025   6.657   8.572  2.9897  0.0576 -0.4921
  662MOL0     H87329   8.855   6.877   8.436 -6.4666  2.1574  0.1235
  662MOL0     H87330   8.830   6.838   8.610 -2.3034 -1.7655  0.1198
  662MOL0     H87331   8.746   6.609   8.547 -0.4080 -0.9880  0.2173
  662MOL0     H87332   8.736   6.685   8.376  1.0727 -1.7201  0.8195
  662MOL0     H87333   8.593   6.800   8.612  0.6399  1.5374 -1.3347
  662MOL0     H87334   8.573   6.836   8.433 -0.4981  0.0845 -0.1343
  662MOL0     H87335   8.516   6.574   8.553  0.3855 -2.6721 -2.8391
  662MOL0     H87336   8.506   6.618   8.377  1.2506 -0.2606 -0.9075
  662MOL0     H87337   8.339   6.625   8.713 -0.7989 -1.8309  0.0267
  662MOL0     H87338   8.121   6.700   8.816 -1.1695 -3.6968  0.7760
  662MOL0     H87339   8.003   6.628   8.712  0.5941  0.7970  0.2882
  662MOL0     H87340   7.952   6.864   8.632  2.4685 -1.7063 -1.3384
  662MOL0     H87341   8.043   6.922   8.766  0.6860 -2.1486  3.0123
  662MOL0     H87342   7.847   6.710   8.834 -2.4339  0.2662 -0.7618
  662MOL0     H87343   7.934   6.832   8.934  0.1358 -1.0103  0.2805
  662MOL0     H87344   7.702   6.884   8.733 -0.5033 -0.7532  0.0651
  662MOL0     H87345   7.796   7.010   8.824 -2.8573  0.3283  0.5462
  662MOL0     H87346   7.517   6.896   9.132  0.7369  1.7556  2.0783
  662MOL0     H87347   7.304   7.011   9.162  0.1176  1.4814  0.6818
  662MOL0     H87348   6.916   7.155   9.004 -2.6367 -0.0534 -2.1499
  662MOL0     H87349   6.705   7.270   9.043 -0.2068 -1.1977 -1.2842
  662MOL0     H87350   6.526   7.375   9.050  4.3323 -1.4747 -1.2497
  662MOL0     H87351   6.500   7.336   8.870 -1.9675  0.6742 -0.2174
  662MOL0     H87352   6.403   7.584   8.852 -1.3579  1.3177  0.4665
  662MOL0     H87353   6.413   7.577   9.033  2.6129 -0.5148  0.0443
  662MOL0     H87354   6.248   7.360   8.993  1.8197  1.4444  1.7031
  662MOL0     H87355   6.262   7.412   8.826 -0.8085  0.3380 -0.4599
  662MOL0     H87356   6.151   7.581   9.059  0.2382  1.9140  0.3774
  662MOL0     H87357   6.171   7.636   8.887 -0.5447 -2.8505 -3.0596
  662MOL0     H87358   5.982   7.421   8.981 -1.2957  0.7488  1.1191
  662MOL0     H87359   6.005   7.461   8.821  0.2385 -1.5591  0.5542
  662MOL0     H87360   5.946   7.724   8.881  2.1392  0.9659  1.2216
  662MOL0     H87361   5.895   7.664   9.039 -0.7974  5.8683 -0.9730
  662MOL0     H87362   5.791   7.557   8.770 -2.2349 -1.2393  0.3923
  662MOL0     H87363   5.746   7.490   8.929  2.7877 -2.7135 -0.1365
  662MOL0     H87364   5.670   7.775   8.824  1.4151 -0.3881 -0.9509
  662MOL0     H87365   5.633   7.706   8.985  2.7836 -0.4060  0.8752
  662MOL0     H87366   6.830   7.583   8.783  0.2451  1.2230  0.7438
  662MOL0     H87367   7.059   7.506   8.788 -1.6337  1.4003  0.1856
  662MOL0     H87368   7.354   7.199   8.776 -0.5698 -2.1091 -1.0271
  662MOL0     H87369   7.557   7.066   8.742 -0.7715  2.0998 -1.0655
  662MOL0     H87370   9.561   7.075   8.539 -1.7456  1.9661 -0.3811
  662MOL0     H87371   9.779   7.162   8.428  0.6501  0.7821 -1.1687
  662MOL0     H87372  10.084   6.805   8.106 -0.1567  0.8742  1.2008
  662MOL0     H87373  10.240   6.815   7.930  0.2115 -0.0660 -0.8719
  662MOL0     H87374  10.353   6.827   7.758 -1.3247  1.1262 -2.4195
  662MOL0     H87375  10.459   6.897   7.865 -0.4490 -0.2297 -0.1672
  662MOL0     H87376  10.448   6.963   7.563 -0.6230  0.2517  0.6292
  662MOL0     H87377  10.550   7.041   7.677 -1.9790  1.1062 -0.4177
  662MOL0     H87378  10.651   6.848   7.524  2.6097 -1.8636  1.0363
  662MOL0     H87379  10.561   6.737   7.625 -2.3171  1.1331 -1.0376
  662MOL0     H87380  10.665   6.790   7.822 -0.7024  0.4478  0.5124
  662MOL0     H87381  10.801   6.771   7.698 -1.0737  0.7932 -2.3966
  662MOL0     H87382  10.836   7.157   7.871 -1.4365  1.2499 -0.1215
  662MOL0     H87383  10.164   7.232   7.859 -0.9976  1.7740  2.6992
  662MOL0     H87384   9.960   7.206   8.017  1.4680  0.4675  2.0700
  663MOL0     O87385   5.360   1.553   2.760  0.2560  0.9626 -0.3816
  663MOL0     C87386   5.346   1.653   2.683  0.0441  0.2936 -0.2282
  663MOL0     O87387   5.240   1.682   2.600  0.4397  1.0777  0.3408
  663MOL0     C87388   5.117   1.633   2.641  0.6962 -0.5908  0.3902
  663MOL0     C87389   5.068   1.660   2.772 -0.3355 -1.0689  0.1791
  663MOL0     C87390   4.933   1.658   2.794  0.1594  0.6791 -0.9763
  663MOL0     C87391   4.848   1.599   2.699  0.3695  0.0605 -0.5525
  663MOL0     O87392   4.725   1.586   2.744  0.9036  0.3658 -0.4920
  663MOL0     C87393   4.611   1.576   2.656 -0.8174  0.4013 -0.4658
  663MOL0     C87394   4.574   1.709   2.594  0.0041  0.4234  0.2077
  663MOL0     C87395   4.550   1.835   2.690  0.1381 -0.0674  0.2619
  663MOL0     C87396   4.522   1.954   2.602  0.2934 -0.9207  0.0656
  663MOL0     C87397   4.478   2.086   2.678  0.5324  0.2337  0.1212
  663MOL0     C87398   4.440   2.196   2.575  0.4573 -1.4469  0.0834
  663MOL0     C87399   4.365   2.307   2.653  0.6796  0.4153  0.3302
  663MOL0     C87400   4.282   2.401   2.560  0.1768  0.9549 -0.4525
  663MOL0     N87401   4.205   2.501   2.619 -0.0188  0.0045  0.1713
  663MOL0     C87402   4.228   2.633   2.623  0.2090  0.5947 -0.0300
  663MOL0     C87403   4.141   2.687   2.705 -0.0338 -1.0225 -0.3661
  663MOL0     C87404   4.134   2.839   2.724  0.0532 -0.3147 -0.7576
  663MOL0     C87405   4.251   2.900   2.795 -0.1704  0.4962 -0.4110
  663MOL0     C87406   4.247   2.860   2.944  0.6777  0.6800 -0.4095
  663MOL0     C87407   4.336   2.929   3.046  0.9073 -0.3176 -0.5922
  663MOL0     O87408   4.462   2.951   2.985 -0.5165  1.2254 -0.2229
  663MOL0     C87409   4.572   2.984   3.061  0.7947  0.1770 -0.8707
  663MOL0     C87410   4.553   3.019   3.196  0.5244 -0.6276 -0.2597
  663MOL0     C87411   4.657   3.051   3.274  0.9010 -1.2903  0.2520
  663MOL0     C87412   4.788   3.063   3.231  0.0509  0.5521 -0.5754
  663MOL0     C87413   4.892   3.098   3.323  0.5221  1.1674  0.5056
  663MOL0     O87414   5.018   3.068   3.279 -0.0381 -0.7085 -0.5534
  663MOL0     C87415   5.130   3.106   3.358 -0.2902  0.8830 -0.1942
  663MOL0     C87416   5.165   3.016   3.458  0.0259  0.5394 -0.7228
  663MOL0     C87417   5.271   3.046   3.548 -0.4004 -1.0105 -0.3189
  663MOL0     C87418   5.348   3.163   3.529  0.4809  0.9243 -0.4018
  663MOL0     O87419   5.444   3.199   3.622  0.4261  0.9218 -0.4000
  663MOL0     C87420   5.449   3.144   3.756  0.7893  0.6611  1.0616
  663MOL0     C87421   5.565   3.191   3.838  0.2195  0.1408 -0.3217
  663MOL0     C87422   5.550   3.140   3.981  0.0715  0.9095  0.4625
  663MOL0     C87423   5.666   3.189   4.066 -0.7489  0.5297  0.0986
  663MOL0     C87424   5.805   3.138   4.023  0.6271  0.4323  0.7427
  663MOL0     C87425   5.804   2.986   3.989 -0.1245 -0.4057  0.6342
  663MOL0     C87426   5.921   2.913   4.049 -0.7235  0.9390 -0.6097
  663MOL0     C87427   5.943   2.779   3.973 -0.2788 -0.3695 -0.6291
  663MOL0    Cl87428   5.976   2.639   4.082 -0.1739 -0.0397  0.1739
  663MOL0     C87429   5.315   3.243   3.428  1.1055 -0.2895  1.1651
  663MOL0     C87430   5.204   3.220   3.347 -0.5307  0.5858 -0.5694
  663MOL0     O87431   4.862   3.149   3.429 -0.3012 -0.3173 -0.4907
  663MOL0     C87432   4.813   3.019   3.106  0.4367  0.0355  0.0930
  663MOL0     C87433   4.707   2.981   3.025 -0.4153 -0.1991 -0.4328
  663MOL0     N87434   4.055   2.586   2.750 -0.1306  0.1175 -0.0337
  663MOL0     N87435   4.089   2.474   2.693 -1.2029 -0.9776  0.0703
  663MOL0     C87436   4.898   1.548   2.578  0.2860 -0.5605 -1.1715
  663MOL0     C87437   5.030   1.570   2.545 -0.3378 -0.1568  0.1837
  663MOL0     C87438   5.454   1.755   2.662 -0.4766  0.2847 -0.1941
  663MOL0     C87439   5.570   1.753   2.739 -0.1041  0.4357 -0.3309
  663MOL0     C87440   5.670   1.847   2.711 -0.9696 -0.5469  0.3675
  663MOL0     C87441   5.666   1.941   2.610  0.3685 -0.2721 -0.0490
  663MOL0     O87442   5.763   2.030   2.567 -0.5014 -0.4043  0.1076
  663MOL0     C87443   5.891   2.026   2.632  0.1656 -0.3673 -0.7172
  663MOL0     C87444   5.981   2.105   2.543 -0.6692  0.3009  0.2229
  663MOL0     C87445   6.123   2.131   2.607 -0.5815  0.2778  0.0057
  663MOL0     C87446   6.198   2.229   2.517  0.0667 -0.1843  0.3041
  663MOL0     C87447   6.223   2.191   2.376  0.6875  0.5852 -0.4775
  663MOL0     C87448   6.250   2.177   2.260  0.2350 -0.2661 -0.6365
  663MOL0     C87449   5.553   1.940   2.528  0.0061 -0.1105  0.3722
  663MOL0     C87450   5.445   1.851   2.560 -0.2428  0.2344  0.0411
  663MOL0     H87451   5.128   1.708   2.849  2.5665  0.0217 -2.5225
  663MOL0     H87452   4.889   1.686   2.890 -0.0001  3.1138 -1.7032
  663MOL0     H87453   4.525   1.527   2.703 -1.3027  1.0282 -0.6767
  663MOL0     H87454   4.634   1.503   2.578  0.4083 -0.9278  1.0603
  663MOL0     H87455   4.474   1.700   2.551  0.4085  0.6205 -0.8222
  663MOL0     H87456   4.652   1.727   2.519 -0.5474 -0.8265 -0.7080
  663MOL0     H87457   4.643   1.844   2.747  0.0687  1.7450  0.1298
  663MOL0     H87458   4.463   1.807   2.749 -0.9056 -2.1313 -2.0575
  663MOL0     H87459   4.619   1.985   2.562  0.1685  2.8348  2.2308
  663MOL0     H87460   4.446   1.930   2.527  2.8646 -3.1097 -2.0972
  663MOL0     H87461   4.550   2.124   2.751 -1.0097  0.6965  1.4546
  663MOL0     H87462   4.389   2.056   2.735 -0.1086 -0.6533 -1.2849
  663MOL0     H87463   4.373   2.166   2.494 -2.0171  1.5757  0.8116
  663MOL0     H87464   4.531   2.231   2.524  0.5400 -1.2456  0.3694
  663MOL0     H87465   4.307   2.264   2.735 -1.3997  1.1408 -0.7039
  663MOL0     H87466   4.451   2.358   2.698  0.2910  2.3249 -0.9359
  663MOL0     H87467   4.203   2.334   2.525 -0.0203 -1.1226  3.4239
  663MOL0     H87468   4.346   2.441   2.481  0.8898 -0.6072 -0.7088
  663MOL0     H87469   4.318   2.678   2.582 -0.0396 -1.6225 -3.4677
  663MOL0     H87470   4.049   2.856   2.791 -0.5574 -2.4794 -0.9148
  663MOL0     H87471   4.108   2.891   2.631 -0.1564  0.2059 -0.4131
  663MOL0     H87472   4.250   3.009   2.789  0.0916  0.4393 -1.7810
  663MOL0     H87473   4.346   2.871   2.751  0.9617 -0.2002  2.2724
  663MOL0     H87474   4.143   2.887   2.968  0.7839  1.0997 -0.4237
  663MOL0     H87475   4.267   2.753   2.953  0.4881  0.6080 -0.8406
  663MOL0     H87476   4.347   2.866   3.135  1.8941  0.5547 -0.0672
  663MOL0     H87477   4.300   3.029   3.075 -1.8739 -1.4262  0.1149
  663MOL0     H87478   4.457   3.028   3.245  1.3768  0.0438  1.3573
  663MOL0     H87479   4.631   3.074   3.377  0.5687 -2.3370  0.4102
  663MOL0     H87480   5.103   2.932   3.488 -1.4514  1.3372 -1.4395
  663MOL0     H87481   5.285   2.977   3.630  1.8222  1.4129  1.5215
  663MOL0     H87482   5.471   3.037   3.757  0.0819  0.5016  2.8082
  663MOL0     H87483   5.352   3.163   3.803 -0.2629  0.4110 -0.9035
  663MOL0     H87484   5.565   3.299   3.826 -0.7675  0.2554  0.6259
  663MOL0     H87485   5.655   3.145   3.794 -1.5105 -0.7224 -3.2206
  663MOL0     H87486   5.535   3.031   3.983  2.4404  0.4401 -1.9069
  663MOL0     H87487   5.458   3.181   4.024 -2.9309 -3.8399 -0.6025
  663MOL0     H87488   5.678   3.298   4.066 -0.5822  0.5120  0.6030
  663MOL0     H87489   5.658   3.165   4.172  1.9444  1.0076  0.4990
  663MOL0     H87490   5.879   3.165   4.099  0.1824  1.4552  0.8199
  663MOL0     H87491   5.831   3.191   3.931  0.1448 -1.2161 -0.3848
  663MOL0     H87492   5.795   2.966   3.881  2.0356  1.7117 -0.0093
  663MOL0     H87493   5.726   2.926   4.037 -0.1773  0.3606  1.5336
  663MOL0     H87494   6.003   2.984   4.037 -0.5219  0.8339  0.1437
  663MOL0     H87495   5.912   2.895   4.156 -2.1785  1.0686 -0.6869
  663MOL0     H87496   6.018   2.794   3.894 -1.0692  1.0907 -1.1329
  663MOL0     H87497   5.858   2.744   3.914  1.2966 -0.5094 -2.9777
  663MOL0     H87498   5.373   3.333   3.410  0.5014 -0.1644 -0.2453
  663MOL0     H87499   5.188   3.289   3.265  1.1943  1.7257 -0.0054
  663MOL0     H87500   4.910   3.024   3.056 -0.7721 -2.7603 -2.9112
  663MOL0     H87501   4.738   2.967   2.922  0.4923  3.9991 -0.9288
  663MOL0     H87502   4.834   1.494   2.508 -0.1723 -2.2536  0.4718
  663MOL0     H87503   5.071   1.544   2.447  1.1153 -1.0189  0.9798
  663MOL0     H87504   5.583   1.690   2.827 -4.1555 -0.9624 -0.5049
  663MOL0     H87505   5.760   1.838   2.771 -1.7284  0.8289  1.7999
  663MOL0     H87506   5.938   1.929   2.653  3.8141  0.6126 -3.3679
  663MOL0     H87507   5.886   2.093   2.719  1.5874  2.6426 -2.7896
  663MOL0     H87508   5.983   2.060   2.444 -0.2141 -1.6868  1.0892
  663MOL0     H87509   5.934   2.201   2.518 -4.0587  0.4308  5.3870
  663MOL0     H87510   6.177   2.038   2.625  0.8179  0.7992 -1.3567
  663MOL0     H87511   6.103   2.170   2.708  1.5687 -1.0895  1.0391
  663MOL0     H87512   6.163   2.332   2.527  2.7086  0.7600  0.5525
  663MOL0     H87513   6.296   2.236   2.565  0.5744 -0.7181 -0.6189
  663MOL0     H87514   6.277   2.179   2.156  4.0524 -2.0038  0.1366
  663MOL0     H87515   5.537   1.999   2.439  0.1294 -1.0889 -0.3151
  663MOL0     H87516   5.363   1.866   2.491  1.7933  3.3548 -1.9867
  664MOL0     O87517   7.594   8.141  10.714 -0.6450  0.1400  0.0802
  664MOL0     C87518   7.673   8.183  10.798  0.4693  0.1040  0.1717
  664MOL0     O87519   7.644   8.270  10.904  0.0925  0.2065  1.3811
  664MOL0     C87520   7.518   8.329  10.889 -0.7054  0.8754 -0.0167
  664MOL0     C87521   7.458   8.381  10.774  0.3679  0.2583 -0.8411
  664MOL0     C87522   7.340   8.453  10.771 -0.0350 -0.4148 -0.0038
  664MOL0     C87523   7.262   8.460  10.890 -0.2130  0.4498  1.1730
  664MOL0     O87524   7.134   8.509  10.906 -0.3488  0.4551 -0.3487
  664MOL0     C87525   7.050   8.527  10.798 -0.4578 -0.0347  0.2286
  664MOL0     C87526   6.916   8.591  10.847 -0.3793  0.3596  0.1975
  664MOL0     C87527   6.823   8.604  10.732 -1.2523 -0.1762 -1.0920
  664MOL0     C87528   6.688   8.663  10.770 -0.4173 -0.0263 -0.1354
  664MOL0     C87529   6.643   8.741  10.641 -0.0053  0.0771 -0.1064
  664MOL0     C87530   6.521   8.832  10.670  0.2314 -0.2385 -0.2577
  664MOL0     C87531   6.469   8.894  10.536  0.3797  0.2441  0.7677
  664MOL0     C87532   6.354   8.816  10.467 -0.5020 -0.6869  0.8822
  664MOL0     N87533   6.324   8.880  10.335 -0.6859 -0.7269  0.4053
  664MOL0     C87534   6.294   9.014  10.321 -0.5996 -0.3433 -0.3581
  664MOL0     C87535   6.230   9.022  10.204  0.6989  0.3500  0.4633
  664MOL0     C87536   6.203   9.154  10.131 -1.0501  1.0345  0.6577
  664MOL0     C87537   6.316   9.241  10.082  0.6608 -0.0722 -0.7993
  664MOL0     C87538   6.447   9.171  10.047 -0.0213  0.3080  0.1564
  664MOL0     C87539   6.436   9.069   9.924 -0.2567 -0.1466  0.1260
  664MOL0     O87540   6.533   9.098   9.820  0.5905 -0.4612  0.6494
  664MOL0     C87541   6.658   9.042   9.834  0.4881 -0.2789  0.1623
  664MOL0     C87542   6.707   8.970   9.946 -0.5269 -0.5446  0.9829
  664MOL0     C87543   6.833   8.900   9.942 -0.4398  0.0693  0.3446
  664MOL0     C87544   6.906   8.899   9.822  0.8117 -0.2415 -0.0713
  664MOL0     C87545   7.034   8.817   9.792  0.5166  0.5574  0.0254
  664MOL0     O87546   7.075   8.804   9.664 -0.0032  0.6942  0.1559
  664MOL0     C87547   7.176   8.708   9.648 -0.1185  0.4786  0.4368
  664MOL0     C87548   7.308   8.744   9.684 -0.6828  1.2097 -0.0509
  664MOL0     C87549   7.411   8.650   9.665 -0.1114 -0.0869 -0.3280
  664MOL0     C87550   7.389   8.525   9.604  0.1746 -0.1179 -0.0511
  664MOL0     O87551   7.498   8.443   9.584  0.3572  0.0659 -0.0214
  664MOL0     C87552   7.475   8.313   9.528  0.2662 -0.2225  0.0076
  664MOL0     C87553   7.595   8.218   9.530 -0.3516 -0.1277  0.9111
  664MOL0     C87554   7.726   8.298   9.500  0.6923 -0.1451 -0.1415
  664MOL0     C87555   7.852   8.221   9.455 -0.0763 -1.0386 -0.2858
  664MOL0     C87556   7.970   8.327   9.453 -0.0598  0.1212  0.6000
  664MOL0     C87557   8.098   8.274   9.386  0.2198  0.0843  0.2843
  664MOL0     C87558   8.177   8.194   9.495  0.7291 -0.0944  1.4884
  664MOL0     C87559   8.247   8.075   9.423  0.3006  0.1918  0.1737
  664MOL0    Cl87560   8.123   7.961   9.351  0.0501 -0.2736  0.3184
  664MOL0     C87561   7.255   8.494   9.571 -0.2212  0.6833  0.0875
  664MOL0     C87562   7.155   8.579   9.603  0.3705  0.5727  0.3663
  664MOL0     O87563   7.075   8.747   9.889 -0.5289 -0.8183  0.2671
  664MOL0     C87564   6.863   8.982   9.718  0.3296 -0.2572  0.9308
  664MOL0     C87565   6.744   9.054   9.722  0.4148 -0.7642  0.5291
  664MOL0     N87566   6.222   8.895  10.150 -0.2466  0.3713 -0.5629
  664MOL0     N87567   6.274   8.812  10.232  0.2007  0.5526  1.0377
  664MOL0     C87568   7.322   8.409  11.004  1.3315 -0.2188 -0.1358
  664MOL0     C87569   7.441   8.349  11.007 -0.2288  0.4649 -0.7618
  664MOL0     C87570   7.806   8.139  10.791 -0.1035  0.2442  0.1517
  664MOL0     C87571   7.849   8.070  10.674 -0.0669 -0.2654 -0.3930
  664MOL0     C87572   7.974   8.013  10.667 -0.8453  0.0837 -0.2765
  664MOL0     C87573   8.066   8.031  10.769 -0.4284  0.4747 -0.8064
  664MOL0     O87574   8.198   7.986  10.784 -0.4045  0.2506  0.1376
  664MOL0     C87575   8.249   7.929  10.665 -0.4052  0.2783 -0.0278
  664MOL0     C87576   8.378   7.858  10.694  0.7482  0.3203 -1.2562
  664MOL0     C87577   8.439   7.800  10.568  0.7035 -0.3625 -0.0463
  664MOL0     C87578   8.562   7.704  10.593  0.5643 -0.1411 -0.2324
  664MOL0     C87579   8.636   7.677  10.467  0.9282 -0.1727  0.3385
  664MOL0     C87580   8.696   7.649  10.364 -0.2135 -0.0201  0.1917
  664MOL0     C87581   8.028   8.114  10.877  0.0069  0.6466  1.1551
  664MOL0     C87582   7.901   8.169  10.894 -0.7679 -0.0137  0.3931
  664MOL0     H87583   7.510   8.399  10.681  1.2930  0.9766 -0.2132
  664MOL0     H87584   7.306   8.514  10.688 -0.6013  2.0176  1.9060
  664MOL0     H87585   7.035   8.429  10.751 -0.4673  0.4045 -0.7005
  664MOL0     H87586   7.089   8.595  10.722 -1.2008 -0.9072 -0.9612
  664MOL0     H87587   6.936   8.692  10.885  1.9225  0.3650 -0.8687
  664MOL0     H87588   6.866   8.535  10.927 -0.2284 -1.8469 -1.1821
  664MOL0     H87589   6.795   8.505  10.696 -1.7079 -0.1788 -0.7292
  664MOL0     H87590   6.887   8.662  10.664  0.5508  2.3157  2.3908
  664MOL0     H87591   6.619   8.581  10.794 -1.4871  0.4318 -1.4524
  664MOL0     H87592   6.701   8.727  10.858  1.6642 -1.4133  0.6341
  664MOL0     H87593   6.621   8.672  10.559  1.4722  1.6355 -1.9098
  664MOL0     H87594   6.721   8.809  10.605 -1.6433  1.2753 -1.5379
  664MOL0     H87595   6.535   8.903  10.752  0.6231 -2.1832  1.4307
  664MOL0     H87596   6.442   8.763  10.701  0.0785 -2.3856 -4.6521
  664MOL0     H87597   6.444   9.000  10.546 -1.7663 -0.2104  0.5593
  664MOL0     H87598   6.554   8.896  10.467 -0.4417 -0.1233 -0.2720
  664MOL0     H87599   6.270   8.831  10.536  0.0974  1.2105  1.2628
  664MOL0     H87600   6.391   8.713  10.456  1.6918 -0.1291  2.3809
  664MOL0     H87601   6.324   9.097  10.384 -2.7143 -0.2004  0.5700
  664MOL0     H87602   6.135   9.221  10.184 -1.9611  0.3276  0.4070
  664MOL0     H87603   6.154   9.134  10.036 -0.6046  2.0575  0.1956
  664MOL0     H87604   6.325   9.313  10.164 -0.9202 -1.1175  0.3484
  664MOL0     H87605   6.279   9.291   9.992 -0.0545 -1.5516 -1.3577
  664MOL0     H87606   6.517   9.255  10.037  0.5436  0.5292  4.2192
  664MOL0     H87607   6.483   9.102  10.124  0.0726 -1.7079 -1.5999
  664MOL0     H87608   6.335   9.085   9.885  0.1075  3.9908  0.4176
  664MOL0     H87609   6.442   8.963   9.951  0.3613  0.3606  2.1786
  664MOL0     H87610   6.642   8.954  10.032  0.3951  1.7692  2.1960
  664MOL0     H87611   6.879   8.847  10.025  0.6810 -1.1379 -0.9921
  664MOL0     H87612   7.324   8.844   9.724  0.2346  0.8096  0.5963
  664MOL0     H87613   7.513   8.670   9.693  0.4118  1.5097 -2.9989
  664MOL0     H87614   7.441   8.319   9.424  0.8989 -2.4751 -0.3839
  664MOL0     H87615   7.392   8.265   9.582  0.5230 -0.0872  0.5266
  664MOL0     H87616   7.579   8.138   9.457  2.1483 -0.4788  0.6688
  664MOL0     H87617   7.615   8.176   9.629  2.0873  0.1319  0.5700
  664MOL0     H87618   7.750   8.366   9.582  0.4846  0.9198 -0.9528
  664MOL0     H87619   7.696   8.364   9.418  2.1528 -1.8309 -2.1603
  664MOL0     H87620   7.874   8.132   9.515  2.9603 -1.0572 -1.2501
  664MOL0     H87621   7.834   8.195   9.350  0.5388  2.9656 -1.5726
  664MOL0     H87622   7.987   8.367   9.554  0.3734  2.5687 -0.3815
  664MOL0     H87623   7.943   8.419   9.401  2.0038  0.2853 -0.2675
  664MOL0     H87624   8.163   8.356   9.353 -0.4408  1.3933  2.0844
  664MOL0     H87625   8.052   8.212   9.309 -2.4917  0.4620  1.4626
  664MOL0     H87626   8.252   8.251   9.552 -0.0839  1.3701  1.1235
  664MOL0     H87627   8.102   8.160   9.567  0.0183  0.5553  1.0623
  664MOL0     H87628   8.310   8.015   9.489  1.5138  0.7133 -0.4833
  664MOL0     H87629   8.310   8.100   9.338  1.2293 -0.8243  0.5386
  664MOL0     H87630   7.225   8.394   9.544 -2.5052  0.7300  2.1062
  664MOL0     H87631   7.051   8.551   9.589  1.0671 -2.9398  1.1656
  664MOL0     H87632   6.919   8.994   9.626 -0.5034  0.4369  0.4982
  664MOL0     H87633   6.715   9.113   9.635 -3.1125 -3.2546 -0.1884
  664MOL0     H87634   7.268   8.429  11.096  0.7843 -0.1056 -0.4741
  664MOL0     H87635   7.470   8.301  11.100 -3.1392 -1.6784 -0.8069
  664MOL0     H87636   7.783   8.056  10.589  1.0064 -2.6549 -0.8937
  664MOL0     H87637   7.997   7.959  10.576  0.3040 -1.7617  1.0472
  664MOL0     H87638   8.269   8.010  10.593 -2.5321 -1.7587 -3.1615
  664MOL0     H87639   8.179   7.861  10.616  0.8355 -1.1456  0.0951
  664MOL0     H87640   8.448   7.921  10.749  1.4321  0.5567 -2.3667
  664MOL0     H87641   8.350   7.777  10.762 -0.8014  0.9751 -1.0759
  664MOL0     H87642   8.473   7.885  10.509 -3.1371 -0.1082 -2.1893
  664MOL0     H87643   8.362   7.745  10.515  1.3863 -0.9946 -0.4051
  664MOL0     H87644   8.629   7.757  10.661 -1.4319  1.7829  0.3271
  664MOL0     H87645   8.538   7.616  10.653 -2.2800  1.1768  0.7312
  664MOL0     H87646   8.743   7.606  10.277 -0.5336  1.2653 -0.6354
  664MOL0     H87647   8.105   8.141  10.949 -0.7652 -0.4508  2.4335
  664MOL0     H87648   7.876   8.226  10.982 -3.3726  2.4870 -1.7436
  665MOL0     O87649   5.758   1.302   9.464  0.1364 -0.1015  0.1939
  665MOL0     C87650   5.720   1.387   9.380  0.9123 -0.2541  0.3110
  665MOL0     O87651   5.798   1.494   9.330  0.4459 -0.1593  0.1122
  665MOL0     C87652   5.934   1.483   9.354 -0.2772  0.6370 -0.1254
  665MOL0     C87653   6.005   1.380   9.295 -1.2560  0.7766 -0.6289
  665MOL0     C87654   6.153   1.367   9.314  1.1641 -0.2002 -0.4377
  665MOL0     C87655   6.217   1.456   9.402 -0.6308  0.0216 -0.6516
  665MOL0     O87656   6.354   1.444   9.410  0.8639  0.0693  0.4518
  665MOL0     C87657   6.438   1.540   9.469 -0.0779 -0.3193 -0.5156
  665MOL0     C87658   6.573   1.540   9.398 -0.1826 -0.0076 -0.2195
  665MOL0     C87659   6.688   1.586   9.482 -0.0839  0.2525 -0.2276
  665MOL0     C87660   6.837   1.592   9.437 -0.2045 -0.1745  0.4133
  665MOL0     C87661   6.886   1.731   9.429 -0.3531 -0.3420 -0.1342
  665MOL0     C87662   7.024   1.742   9.378  0.1968 -0.2984  0.3428
  665MOL0     C87663   7.040   1.681   9.237 -0.5766  0.2671 -0.0399
  665MOL0     C87664   7.185   1.697   9.190 -0.1099  0.8872 -0.0832
  665MOL0     N87665   7.197   1.661   9.040 -0.0347  0.0431 -0.2740
  665MOL0     C87666   7.106   1.695   8.940 -0.5211  0.2897  0.3496
  665MOL0     C87667   7.153   1.653   8.817 -0.4171 -1.0877 -0.1785
  665MOL0     C87668   7.086   1.680   8.687 -0.7200  0.6682 -0.0042
  665MOL0     C87669   7.161   1.790   8.611  0.5373 -0.7836  0.5502
  665MOL0     C87670   7.164   1.764   8.458  0.2834  0.2565  0.5082
  665MOL0     C87671   7.033   1.745   8.398  0.0230  0.4717 -0.4777
  665MOL0     O87672   6.974   1.617   8.413 -0.1662 -0.2868  0.0664
  665MOL0     C87673   6.843   1.608   8.381 -0.2037 -0.4552  0.8416
  665MOL0     C87674   6.776   1.695   8.281  0.3621 -0.2766  0.3622
  665MOL0     C87675   6.636   1.679   8.274 -0.7381  0.1142  0.2991
  665MOL0     C87676   6.572   1.580   8.353 -0.4408 -0.2236  0.2982
  665MOL0     C87677   6.430   1.564   8.339 -0.7019 -0.7451 -0.3760
  665MOL0     O87678   6.361   1.558   8.466 -0.0216 -0.0873 -0.5133
  665MOL0     C87679   6.225   1.540   8.467 -0.2119 -0.2618 -0.2065
  665MOL0     C87680   6.174   1.437   8.553  0.7484  0.5594  0.0540
  665MOL0     C87681   6.037   1.399   8.546  0.0050 -0.2044 -0.2279
  665MOL0     C87682   5.944   1.481   8.483  0.4791 -0.4634  1.0323
  665MOL0     O87683   5.814   1.472   8.482  0.0095 -0.1291  0.0427
  665MOL0     C87684   5.754   1.341   8.469 -0.2608 -0.3372  0.5544
  665MOL0     C87685   5.704   1.335   8.322 -0.3955 -0.0056 -0.0876
  665MOL0     C87686   5.572   1.416   8.302 -0.7617  0.6215  0.5333
  665MOL0     C87687   5.553   1.433   8.148 -0.5230  0.7155 -0.0887
  665MOL0     C87688   5.471   1.552   8.114  0.5033  0.2587  1.3808
  665MOL0     C87689   5.550   1.691   8.127 -0.2636 -0.1488  0.3007
  665MOL0     C87690   5.455   1.796   8.063 -0.0716  0.1026 -0.2370
  665MOL0     C87691   5.330   1.836   8.156 -0.4580  0.1077  0.1153
  665MOL0    Cl87692   5.175   1.770   8.099 -0.0688 -0.1326 -0.2360
  665MOL0     C87693   5.996   1.590   8.412 -0.6074  0.2740  0.3581
  665MOL0     C87694   6.137   1.618   8.407  0.7876 -1.2834  0.1330
  665MOL0     O87695   6.378   1.572   8.229  0.5855  0.1471  0.5995
  665MOL0     C87696   6.640   1.504   8.438 -0.5881 -0.2824  1.0564
  665MOL0     C87697   6.775   1.516   8.461 -0.6995 -0.2181  0.5881
  665MOL0     N87698   7.269   1.588   8.853  0.3088 -0.5595  0.3688
  665MOL0     N87699   7.292   1.586   8.976 -0.1629 -0.5853 -0.2125
  665MOL0     C87700   6.148   1.559   9.464  0.9511  0.2771  0.0009
  665MOL0     C87701   6.006   1.571   9.438  0.3561 -0.0808 -1.1022
  665MOL0     C87702   5.584   1.374   9.314 -0.5541  0.2053 -0.8479
  665MOL0     C87703   5.555   1.460   9.208 -0.0296 -0.0575 -0.5176
  665MOL0     C87704   5.422   1.464   9.165  0.0341  0.2844  0.2714
  665MOL0     C87705   5.317   1.377   9.213 -0.1950 -0.8136  0.1008
  665MOL0     O87706   5.185   1.387   9.169  0.5429  0.0254  0.9868
  665MOL0     C87707   5.155   1.481   9.068 -0.3323 -0.2139 -0.4841
  665MOL0     C87708   5.008   1.457   9.015  0.1084  0.0713  0.8149
  665MOL0     C87709   5.007   1.342   8.929 -0.1035  0.3275  0.0384
  665MOL0     C87710   4.875   1.308   8.859  0.2413 -0.0397  0.1064
  665MOL0     C87711   4.876   1.180   8.783  0.5716 -0.0109  0.1523
  665MOL0     C87712   4.882   1.067   8.734 -0.5084  0.3638 -0.5114
  665MOL0     C87713   5.358   1.280   9.306 -0.0321  0.5558  0.2039
  665MOL0     C87714   5.485   1.284   9.364 -0.9602 -0.0710  0.6636
  665MOL0     H87715   5.972   1.301   9.228 -0.2318 -2.7952  2.7731
  665MOL0     H87716   6.207   1.291   9.259  2.3555  1.0422 -1.0568
  665MOL0     H87717   6.460   1.517   9.573  0.2830  1.8438 -0.0712
  665MOL0     H87718   6.401   1.642   9.452  1.0936  0.0157 -1.2088
  665MOL0     H87719   6.552   1.607   9.314 -2.6536 -1.2282 -0.6441
  665MOL0     H87720   6.593   1.435   9.374 -0.4971 -0.0452 -0.3196
  665MOL0     H87721   6.687   1.512   9.563 -1.8645  0.0716 -0.3611
  665MOL0     H87722   6.645   1.681   9.517 -1.0151 -0.1460 -0.2615
  665MOL0     H87723   6.895   1.532   9.508  0.9655  0.5727  0.1157
  665MOL0     H87724   6.850   1.538   9.343  2.6896 -1.0367  1.2078
  665MOL0     H87725   6.886   1.775   9.529 -1.9930  1.4781 -0.8496
  665MOL0     H87726   6.822   1.789   9.362 -0.6334 -1.1740 -0.5978
  665MOL0     H87727   7.100   1.704   9.448  0.5215 -1.3147 -0.5356
  665MOL0     H87728   7.054   1.847   9.371  1.6353 -0.6981  0.1696
  665MOL0     H87729   7.016   1.575   9.223  0.6207  0.2640 -2.8348
  665MOL0     H87730   6.977   1.735   9.166 -0.1298 -0.9914 -1.4592
  665MOL0     H87731   7.235   1.621   9.251  0.9992  1.7530  0.1195
  665MOL0     H87732   7.228   1.795   9.210  0.7234  1.3359 -3.3821
  665MOL0     H87733   7.019   1.759   8.953 -0.3366  0.6289 -0.0381
  665MOL0     H87734   6.978   1.695   8.688 -0.8089  0.6308 -2.4360
  665MOL0     H87735   7.114   1.587   8.636  0.1822  0.5600  0.6657
  665MOL0     H87736   7.265   1.797   8.644  0.7639 -1.7911  0.0876
  665MOL0     H87737   7.113   1.885   8.638  1.5600 -0.6920  2.2360
  665MOL0     H87738   7.204   1.854   8.412  1.0349 -1.3647 -2.2597
  665MOL0     H87739   7.226   1.675   8.442  0.9074  0.1585  3.1169
  665MOL0     H87740   7.035   1.762   8.290  0.3331 -3.8430 -1.3294
  665MOL0     H87741   6.964   1.820   8.437  1.2245  0.5244  1.6949
  665MOL0     H87742   6.822   1.764   8.211 -1.4804 -0.9878 -1.6833
  665MOL0     H87743   6.581   1.739   8.203 -3.6976 -0.3622  2.0197
  665MOL0     H87744   6.241   1.379   8.616 -0.3236  1.3040  1.9490
  665MOL0     H87745   6.009   1.309   8.601  1.1045 -0.6448 -0.3568
  665MOL0     H87746   5.668   1.342   8.537 -2.2217  0.2006 -1.7725
  665MOL0     H87747   5.819   1.254   8.475 -0.4836 -0.8263 -2.6004
  665MOL0     H87748   5.694   1.228   8.301 -0.6530  0.0242 -0.1189
  665MOL0     H87749   5.780   1.374   8.253  1.7249  0.8668  2.5454
  665MOL0     H87750   5.575   1.508   8.361 -1.7470  1.5032 -0.7295
  665MOL0     H87751   5.479   1.365   8.333 -0.8685  0.2261 -0.4180
  665MOL0     H87752   5.646   1.444   8.092  0.4726  0.9386  1.5554
  665MOL0     H87753   5.510   1.339   8.110  2.4699 -0.9124  0.2893
  665MOL0     H87754   5.385   1.565   8.180 -2.1097 -1.0747 -1.5165
  665MOL0     H87755   5.428   1.537   8.014 -0.5091 -0.0510  1.8481
  665MOL0     H87756   5.641   1.678   8.068 -0.7542 -1.0913 -0.2907
  665MOL0     H87757   5.582   1.715   8.228  2.5006 -0.1381 -0.4817
  665MOL0     H87758   5.508   1.892   8.067 -0.8677  0.5927 -0.8431
  665MOL0     H87759   5.429   1.763   7.962 -1.2649 -3.4189  1.0752
  665MOL0     H87760   5.309   1.943   8.147 -5.0595 -0.6196 -0.3020
  665MOL0     H87761   5.352   1.809   8.259  3.6105  1.6481 -0.1869
  665MOL0     H87762   5.929   1.651   8.352 -0.7449 -1.5351 -1.4387
  665MOL0     H87763   6.177   1.676   8.324  0.3941 -3.4049 -1.6393
  665MOL0     H87764   6.586   1.425   8.489 -0.4429 -0.7629  0.4760
  665MOL0     H87765   6.821   1.457   8.539  0.0281 -1.9273 -1.0576
  665MOL0     H87766   6.198   1.636   9.523  1.3821  0.3825 -0.4943
  665MOL0     H87767   5.965   1.657   9.490  0.9841 -0.5100  0.1329
  665MOL0     H87768   5.624   1.528   9.159 -0.6033  1.5819  0.8907
  665MOL0     H87769   5.401   1.526   9.079  1.6331 -0.8602 -0.9996
  665MOL0     H87770   5.221   1.459   8.984  1.6175  1.0821  0.6182
  665MOL0     H87771   5.168   1.578   9.116  1.8829  0.0296 -1.4794
  665MOL0     H87772   4.947   1.433   9.103  0.2270  2.4229  1.5993
  665MOL0     H87773   4.958   1.533   8.955 -1.3506 -1.3875  0.0906
  665MOL0     H87774   5.042   1.257   8.988 -1.1124  1.1521  1.8919
  665MOL0     H87775   5.086   1.364   8.857 -0.2372  0.4403 -0.0749
  665MOL0     H87776   4.793   1.308   8.931 -0.6462 -1.7671 -0.8590
  665MOL0     H87777   4.857   1.384   8.782 -0.5049  1.1054  1.3642
  665MOL0     H87778   4.887   0.970   8.690  1.8427 -0.7934  1.9790
  665MOL0     H87779   5.287   1.206   9.340  0.1144 -1.1615 -2.9025
  665MOL0     H87780   5.511   1.207   9.436 -0.8865  0.1854  0.9118
  666MOL0     O87781   9.057   6.037   2.357 -0.1445  0.3285  0.3141
  666MOL0     C87782   8.958   5.979   2.411 -1.4454  0.0771 -0.0569
  666MOL0     O87783   8.958   5.914   2.526 -0.3270 -0.0566 -0.0445
  666MOL0     C87784   9.056   5.944   2.616  0.1026 -0.2898  0.0823
  666MOL0     C87785   9.057   6.071   2.676  0.4057 -0.3408 -0.4095
  666MOL0     C87786   9.156   6.117   2.769  0.2473 -0.2042 -0.6735
  666MOL0     C87787   9.265   6.021   2.796  0.2637 -0.5139  0.4063
  666MOL0     O87788   9.389   6.055   2.860 -0.1119  0.2310  0.9539
  666MOL0     C87789   9.409   6.186   2.911 -0.5354 -0.2540 -0.0601
  666MOL0     C87790   9.455   6.273   2.798 -0.7535  0.2163  0.1217
  666MOL0     C87791   9.595   6.232   2.752  0.2839 -0.3961  0.2373
  666MOL0     C87792   9.632   6.298   2.622 -0.1709 -0.4919  0.3082
  666MOL0     C87793   9.786   6.291   2.604  0.1427  0.1267  1.2309
  666MOL0     C87794   9.829   6.353   2.477  0.3991  0.4506 -0.1142
  666MOL0     C87795   9.976   6.340   2.453  0.3047  0.6007 -0.3243
  666MOL0     C87796  10.023   6.422   2.331 -0.0054  0.2997 -0.1654
  666MOL0     N87797   9.934   6.411   2.215 -0.7622  0.2279  1.0701
  666MOL0     C87798   9.826   6.488   2.173  0.2829 -0.2190  0.8162
  666MOL0     C87799   9.748   6.409   2.095 -0.7665  0.8294  0.0267
  666MOL0     C87800   9.624   6.448   2.023 -0.2083  0.6853  0.7595
  666MOL0     C87801   9.544   6.567   2.078  0.6588  0.9261 -0.0088
  666MOL0     C87802   9.519   6.585   2.239  0.0569  0.1279  0.9015
  666MOL0     C87803   9.442   6.461   2.292  0.1206 -0.8132  0.7658
  666MOL0     O87804   9.308   6.467   2.238 -0.0754 -0.2642  0.4117
  666MOL0     C87805   9.200   6.490   2.319 -0.0135 -0.8041 -0.6490
  666MOL0     C87806   9.142   6.618   2.357  0.4179 -0.1875  0.8769
  666MOL0     C87807   9.022   6.633   2.432  0.0552  0.0084  0.0761
  666MOL0     C87808   8.970   6.513   2.477  0.0344  0.0553  0.2974
  666MOL0     C87809   8.851   6.506   2.562 -0.4948 -0.5115 -0.4182
  666MOL0     O87810   8.787   6.630   2.581  0.4104 -0.0564 -0.3067
  666MOL0     C87811   8.668   6.617   2.644  0.2348 -0.4278  0.1149
  666MOL0     C87812   8.662   6.580   2.780 -0.5418 -0.7852 -0.9812
  666MOL0     C87813   8.536   6.567   2.844  0.2725  0.3201  0.0150
  666MOL0     C87814   8.421   6.564   2.768 -0.8521 -0.2234  1.4809
  666MOL0     O87815   8.298   6.548   2.819  0.4913 -0.3559 -0.0026
  666MOL0     C87816   8.283   6.588   2.958  0.3663  0.3604 -0.7761
  666MOL0     C87817   8.137   6.572   2.988  0.0486  0.0182 -0.7452
  666MOL0     C87818   8.067   6.701   2.925  0.5985  0.8209 -0.7223
  666MOL0     C87819   7.919   6.678   2.933  0.0875  0.0887 -0.0488
  666MOL0     C87820   7.851   6.800   2.878 -0.5729 -0.1751  0.8775
  666MOL0     C87821   7.694   6.799   2.883 -0.0025 -0.3879 -0.5492
  666MOL0     C87822   7.653   6.945   2.848  1.0862 -0.5849 -0.3638
  666MOL0     C87823   7.707   7.007   2.722  0.2353 -0.7656  0.5509
  666MOL0    Cl87824   7.638   7.160   2.689  0.1347 -0.2903 -0.0180
  666MOL0     C87825   8.424   6.586   2.631  0.8148 -0.5365 -0.1342
  666MOL0     C87826   8.544   6.619   2.570  0.6262  0.6353 -0.0058
  666MOL0     O87827   8.807   6.399   2.597 -0.4865  0.2622  0.3615
  666MOL0     C87828   9.030   6.388   2.443 -0.6264  0.5481  0.1814
  666MOL0     C87829   9.142   6.377   2.364  0.8851  0.7578  0.0224
  666MOL0     N87830   9.816   6.290   2.084 -0.1999  0.3182  0.5324
  666MOL0     N87831   9.921   6.290   2.154  0.9010  0.4348 -0.0387
  666MOL0     C87832   9.256   5.886   2.738  1.0885 -0.3642 -0.4446
  666MOL0     C87833   9.153   5.849   2.654  1.1324  0.6379 -0.0050
  666MOL0     C87834   8.836   5.974   2.337 -0.8663 -0.3714 -0.1423
  666MOL0     C87835   8.721   5.919   2.388  0.6462 -0.1657  0.2102
  666MOL0     C87836   8.604   5.909   2.320 -0.7222  0.6655  0.3807
  666MOL0     C87837   8.600   5.968   2.191 -0.1569 -0.6815 -0.2601
  666MOL0     O87838   8.484   5.964   2.115  1.1997  0.3783  0.1108
  666MOL0     C87839   8.391   6.074   2.134 -0.5924  0.4551  0.6502
  666MOL0     C87840   8.245   6.035   2.104 -0.4712  0.7779  0.1682
  666MOL0     C87841   8.179   5.926   2.197  0.3961  0.0659  1.2626
  666MOL0     C87842   8.031   5.966   2.215  0.3116  0.0558  0.0028
  666MOL0     C87843   7.969   5.972   2.085  1.0260 -0.1623  0.6005
  666MOL0     C87844   7.916   5.999   1.978 -0.2921  0.1614 -0.0776
  666MOL0     C87845   8.710   6.033   2.134 -0.1341 -0.1782 -0.5569
  666MOL0     C87846   8.838   6.030   2.203 -0.0483 -0.6271 -1.0997
  666MOL0     H87847   8.984   6.144   2.643  0.6640 -0.5313 -1.4310
  666MOL0     H87848   9.142   6.204   2.832  1.9180  0.6747 -1.4419
  666MOL0     H87849   9.476   6.178   2.998 -0.8535 -2.2683  0.0479
  666MOL0     H87850   9.313   6.221   2.949 -1.0606 -0.2841 -1.3515
  666MOL0     H87851   9.450   6.380   2.815  0.2573  0.3090 -0.0737
  666MOL0     H87852   9.380   6.265   2.719 -0.0117  0.6004 -0.6370
  666MOL0     H87853   9.597   6.123   2.744 -1.1497 -0.3528 -1.2007
  666MOL0     H87854   9.668   6.263   2.828  2.3835 -1.5908 -1.1758
  666MOL0     H87855   9.586   6.244   2.538  1.7517 -1.1755 -0.3661
  666MOL0     H87856   9.601   6.403   2.624 -1.1841 -0.7330 -1.1094
  666MOL0     H87857   9.816   6.186   2.605 -1.9846 -0.5582  0.0511
  666MOL0     H87858   9.827   6.342   2.692  0.8242  2.3868 -0.3070
  666MOL0     H87859   9.808   6.461   2.473  1.3741  0.6209 -2.7367
  666MOL0     H87860   9.768   6.315   2.394 -0.3744 -0.2952  0.7726
  666MOL0     H87861  10.030   6.375   2.541  0.8386 -2.3550  0.6399
  666MOL0     H87862  10.010   6.237   2.443  0.2074  0.2063  2.5381
  666MOL0     H87863  10.126   6.396   2.306 -0.2806 -1.3056  0.2342
  666MOL0     H87864  10.029   6.528   2.357  0.1434  0.6197 -1.4194
  666MOL0     H87865   9.800   6.591   2.195 -0.4117 -0.0482 -0.6502
  666MOL0     H87866   9.559   6.360   2.019  1.3327 -0.4522 -1.2178
  666MOL0     H87867   9.654   6.475   1.921  0.0736 -0.4613  0.5275
  666MOL0     H87868   9.456   6.565   2.013  0.8214 -2.6131 -0.2922
  666MOL0     H87869   9.603   6.656   2.050 -0.4640  3.5534  4.7915
  666MOL0     H87870   9.608   6.608   2.299  0.7650 -1.7376  0.6372
  666MOL0     H87871   9.459   6.677   2.244 -1.6130 -0.6335 -2.3852
  666MOL0     H87872   9.442   6.476   2.400  0.3778 -0.8140  0.7665
  666MOL0     H87873   9.479   6.362   2.262  0.9689 -0.2650 -0.0389
  666MOL0     H87874   9.191   6.707   2.319  0.3386 -0.8688 -0.9058
  666MOL0     H87875   8.971   6.726   2.458 -2.0153 -1.1521  0.3696
  666MOL0     H87876   8.754   6.563   2.834 -0.5539 -0.9695 -1.0172
  666MOL0     H87877   8.540   6.531   2.946 -0.8363  0.7924  0.2403
  666MOL0     H87878   8.315   6.688   2.987 -2.0756  0.9073  0.2235
  666MOL0     H87879   8.332   6.518   3.027 -0.5759 -2.1558 -2.4988
  666MOL0     H87880   8.119   6.562   3.095 -2.0319  3.9555 -0.5580
  666MOL0     H87881   8.114   6.478   2.936 -1.2927  0.5622 -1.1735
  666MOL0     H87882   8.093   6.722   2.821 -0.6054  0.8669 -1.0296
  666MOL0     H87883   8.105   6.792   2.973 -1.5280  2.7138 -2.4224
  666MOL0     H87884   7.897   6.589   2.873 -1.4141  2.2410 -2.9382
  666MOL0     H87885   7.883   6.660   3.035 -1.3690 -0.5622 -0.6409
  666MOL0     H87886   7.877   6.805   2.771 -0.5176  0.1761  0.9071
  666MOL0     H87887   7.904   6.883   2.925  3.9661 -0.1089 -3.4997
  666MOL0     H87888   7.664   6.775   2.986  2.5562  2.9341  1.1872
  666MOL0     H87889   7.655   6.729   2.809  0.5317 -1.3995  0.0920
  666MOL0     H87890   7.544   6.947   2.840  1.1501 -0.2663 -1.2440
  666MOL0     H87891   7.677   7.004   2.937 -1.5825 -0.3423  0.3086
  666MOL0     H87892   7.686   6.932   2.645  2.0789  0.9813 -1.7808
  666MOL0     H87893   7.816   7.013   2.728  0.1581  0.5201  1.0009
  666MOL0     H87894   8.335   6.563   2.574 -0.6526  1.9983  0.9713
  666MOL0     H87895   8.535   6.651   2.467 -1.8594  0.5425  0.1117
  666MOL0     H87896   8.978   6.301   2.482 -0.8735  1.2403  1.4469
  666MOL0     H87897   9.173   6.278   2.335 -1.3391  0.1031 -0.2726
  666MOL0     H87898   9.344   5.826   2.760  3.0554  2.1350 -0.9897
  666MOL0     H87899   9.144   5.750   2.610  2.9122  0.2931  0.3185
  666MOL0     H87900   8.727   5.887   2.491 -0.2431  1.9297  0.9759
  666MOL0     H87901   8.532   5.838   2.358 -0.1900  0.4013  0.9060
  666MOL0     H87902   8.413   6.152   2.060  1.0299 -1.5692 -1.1343
  666MOL0     H87903   8.401   6.122   2.231  1.5924 -0.1412  0.7843
  666MOL0     H87904   8.195   6.129   2.130 -1.9902 -0.0449  0.2831
  666MOL0     H87905   8.248   6.010   1.998  0.1805  2.2906 -0.2006
  666MOL0     H87906   8.232   5.921   2.293  2.4219  0.8806  0.2580
  666MOL0     H87907   8.194   5.826   2.154  0.5256  1.1576 -1.3943
  666MOL0     H87908   7.986   5.893   2.283  3.1839  0.1229  2.1621
  666MOL0     H87909   8.022   6.069   2.249 -0.5947  0.7800 -2.2653
  666MOL0     H87910   7.876   6.014   1.879  2.3408  0.5920 -1.1615
  666MOL0     H87911   8.699   6.075   2.035 -2.2264  1.3745  0.2731
  666MOL0     H87912   8.928   6.049   2.146 -0.2148  3.9222 -0.2047
  667MOL0     O87913   9.808   4.909   7.636 -0.2416  0.1884 -0.7023
  667MOL0     C87914   9.899   4.986   7.591 -0.5033  0.7463 -0.0811
  667MOL0     O87915   9.882   5.111   7.569 -0.4253 -0.0328  1.2079
  667MOL0     C87916   9.761   5.172   7.541 -0.1366  0.5346  0.5897
  667MOL0     C87917   9.644   5.164   7.623 -0.8728 -0.0848  0.5700
  667MOL0     C87918   9.534   5.240   7.593  0.4244  0.3219  0.4093
  667MOL0     C87919   9.541   5.331   7.484  0.7039 -0.6912 -0.1744
  667MOL0     O87920   9.439   5.413   7.440 -0.4219  0.3463 -0.1756
  667MOL0     C87921   9.319   5.409   7.526  0.1830 -0.3321  0.4838
  667MOL0     C87922   9.236   5.531   7.483  0.2941 -0.7186  0.3714
  667MOL0     C87923   9.128   5.521   7.376  0.1838 -0.0202  0.2530
  667MOL0     C87924   9.062   5.665   7.354  0.8481 -0.2464  0.2116
  667MOL0     C87925   8.944   5.650   7.260  0.1893 -0.4908 -0.2958
  667MOL0     C87926   8.897   5.789   7.228  0.0533 -0.5545  0.1845
  667MOL0     C87927   8.779   5.786   7.122  0.1479  0.4008 -0.7656
  667MOL0     C87928   8.822   5.773   6.977  0.1173  0.2178 -0.2510
  667MOL0     N87929   8.707   5.798   6.888 -0.2793  0.8560 -0.1989
  667MOL0     C87930   8.624   5.699   6.837  1.1718  0.2017  0.7246
  667MOL0     C87931   8.517   5.770   6.794 -0.1194 -0.6731  0.3315
  667MOL0     C87932   8.398   5.705   6.727  0.5514 -0.1228 -0.0911
  667MOL0     C87933   8.270   5.755   6.796 -0.2743  0.3443 -0.1740
  667MOL0     C87934   8.145   5.685   6.726  0.5671 -0.5663 -0.2346
  667MOL0     C87935   8.014   5.724   6.788  0.4421  0.9880  0.7104
  667MOL0     O87936   7.913   5.679   6.699  0.9091 -0.3703  0.2291
  667MOL0     C87937   7.778   5.728   6.694  0.0952 -0.0274  0.1109
  667MOL0     C87938   7.726   5.704   6.574  0.3521 -0.1681 -0.3977
  667MOL0     C87939   7.590   5.738   6.548  0.4234  0.5934 -0.5975
  667MOL0     C87940   7.512   5.800   6.651  1.0111 -0.2675  0.1890
  667MOL0     C87941   7.361   5.809   6.630  0.3736 -0.1898 -1.1361
  667MOL0     O87942   7.292   5.845   6.737 -0.0145 -0.2130  0.0105
  667MOL0     C87943   7.155   5.833   6.730 -0.0013 -0.5415  0.0553
  667MOL0     C87944   7.091   5.708   6.714 -0.6204  0.4465  0.0905
  667MOL0     C87945   6.954   5.692   6.707  0.7504  0.1254  0.4426
  667MOL0     C87946   6.868   5.804   6.706 -0.3716  0.2495  0.8029
  667MOL0     O87947   6.726   5.804   6.691 -0.2354 -0.0260  0.1678
  667MOL0     C87948   6.665   5.699   6.615  0.1828 -0.5245  0.6235
  667MOL0     C87949   6.524   5.715   6.549  0.0220  0.2064 -0.0811
  667MOL0     C87950   6.420   5.802   6.618 -0.2800  0.3093  0.2336
  667MOL0     C87951   6.354   5.759   6.753 -0.4097  0.2500  0.1699
  667MOL0     C87952   6.250   5.641   6.745 -0.6276 -0.4009  0.4518
  667MOL0     C87953   6.117   5.692   6.692 -0.1553 -0.2482 -0.5659
  667MOL0     C87954   6.015   5.575   6.693 -0.1775  0.5185  0.4874
  667MOL0     C87955   5.959   5.533   6.828 -0.6010  0.8675 -0.4431
  667MOL0    Cl87956   6.072   5.408   6.903  0.3855 -0.0596 -0.3684
  667MOL0     C87957   6.932   5.933   6.711 -0.5166 -0.7923  0.3042
  667MOL0     C87958   7.069   5.946   6.726 -0.0285 -0.8705  0.3897
  667MOL0     O87959   7.311   5.764   6.525  0.1371  0.0114 -0.4039
  667MOL0     C87960   7.579   5.824   6.774 -0.3461 -0.4687 -0.6811
  667MOL0     C87961   7.710   5.782   6.799  0.4441 -0.5114  0.0871
  667MOL0     N87962   8.539   5.911   6.813  0.7962  0.0250  0.0561
  667MOL0     N87963   8.652   5.921   6.865  0.1582 -0.2870  0.8600
  667MOL0     C87964   9.652   5.336   7.401  0.2173 -0.4480 -0.2812
  667MOL0     C87965   9.767   5.266   7.438 -0.2346  0.5322 -0.2653
  667MOL0     C87966  10.038   4.944   7.595 -0.7169 -0.2324 -0.5069
  667MOL0     C87967  10.131   5.033   7.653  0.6222 -0.2584 -0.1021
  667MOL0     C87968  10.259   4.987   7.691  0.5056  0.5047  0.2548
  667MOL0     C87969  10.302   4.860   7.643 -0.2477  0.6169 -0.3579
  667MOL0     O87970  10.432   4.824   7.672  0.4557  0.0997 -0.2411
  667MOL0     C87971  10.470   4.685   7.679 -0.0471 -0.7074  0.1994
  667MOL0     C87972  10.625   4.679   7.678  0.1637 -0.4113 -0.0315
  667MOL0     C87973  10.684   4.728   7.546 -0.7865 -0.0576  0.0825
  667MOL0     C87974  10.842   4.725   7.553 -0.5690 -0.9474 -0.1296
  667MOL0     C87975  10.906   4.779   7.433  0.2199  0.2736 -0.1943
  667MOL0     C87976  10.966   4.835   7.348 -0.0216 -0.6303 -0.1385
  667MOL0     C87977  10.211   4.777   7.576  0.8376 -0.5011 -0.1079
  667MOL0     C87978  10.079   4.816   7.557  0.5688 -0.6225 -0.0253
  667MOL0     H87979   9.644   5.091   7.704 -3.3899 -0.7952  0.0043
  667MOL0     H87980   9.449   5.222   7.658  0.8694  3.5177  2.0714
  667MOL0     H87981   9.344   5.418   7.632  0.7848  1.0544  0.2508
  667MOL0     H87982   9.256   5.321   7.507  1.9468 -1.2141 -1.6765
  667MOL0     H87983   9.305   5.615   7.467  1.2937 -1.2246  1.7737
  667MOL0     H87984   9.177   5.563   7.569  0.2124  0.9070 -0.2480
  667MOL0     H87985   9.051   5.455   7.416 -1.8505  1.1576 -1.4708
  667MOL0     H87986   9.164   5.486   7.278  1.1199 -0.2070  0.6541
  667MOL0     H87987   9.020   5.709   7.445 -2.1450 -1.3872 -0.5205
  667MOL0     H87988   9.140   5.729   7.309 -0.7048  2.3787  1.0481
  667MOL0     H87989   8.860   5.590   7.298  0.2102 -1.5119 -1.7963
  667MOL0     H87990   8.973   5.604   7.165 -0.0193  1.3939 -1.3221
  667MOL0     H87991   8.972   5.859   7.190  0.0220 -0.7807 -0.2946
  667MOL0     H87992   8.854   5.833   7.319 -2.8751  0.4302 -1.5351
  667MOL0     H87993   8.725   5.696   7.150  0.1775  0.6558  0.1640
  667MOL0     H87994   8.714   5.872   7.140  0.3594  0.0446  2.2707
  667MOL0     H87995   8.861   5.672   6.962  1.3451  0.4140  1.3227
  667MOL0     H87996   8.905   5.841   6.962  1.6330 -1.8668 -1.8091
  667MOL0     H87997   8.638   5.592   6.825  0.4999  0.1576  0.2860
  667MOL0     H87998   8.402   5.596   6.730  0.9794 -0.1384 -1.1258
  667MOL0     H87999   8.394   5.732   6.621 -1.2460  0.0548 -0.0105
  667MOL0     H88000   8.259   5.864   6.790  1.9418  0.7738  1.7846
  667MOL0     H88001   8.273   5.734   6.904 -2.0451 -1.4556 -0.4247
  667MOL0     H88002   8.149   5.717   6.621  1.0331  4.3781  1.0196
  667MOL0     H88003   8.149   5.578   6.746  0.9597 -0.1192  2.5049
  667MOL0     H88004   8.003   5.833   6.783 -0.8160  0.8426 -0.3701
  667MOL0     H88005   8.002   5.680   6.887  0.5967  2.7022  1.5256
  667MOL0     H88006   7.788   5.665   6.494 -0.4755 -2.1107 -0.1643
  667MOL0     H88007   7.557   5.708   6.449 -0.2423  0.0389 -0.2156
  667MOL0     H88008   7.152   5.617   6.714 -1.3358 -0.0420 -0.8574
  667MOL0     H88009   6.901   5.599   6.687 -0.0437  1.0379 -2.2522
  667MOL0     H88010   6.651   5.607   6.673 -0.7039 -1.6917 -1.3102
  667MOL0     H88011   6.735   5.667   6.536  0.4835  0.9451  0.2584
  667MOL0     H88012   6.487   5.614   6.527  0.2620 -0.2183  1.3079
  667MOL0     H88013   6.540   5.758   6.450 -0.8174 -1.3392 -0.9372
  667MOL0     H88014   6.342   5.827   6.546  0.7704  1.1820 -0.6394
  667MOL0     H88015   6.463   5.897   6.652  1.9342  0.2640 -2.1169
  667MOL0     H88016   6.430   5.722   6.822  1.5847 -1.3266 -2.6453
  667MOL0     H88017   6.306   5.845   6.802 -1.4660  0.3121 -0.9142
  667MOL0     H88018   6.227   5.603   6.845 -1.1002  2.2919  1.4328
  667MOL0     H88019   6.286   5.564   6.676 -1.3858  0.7042 -1.2468
  667MOL0     H88020   6.144   5.713   6.588  0.7488 -3.1593 -1.0212
  667MOL0     H88021   6.074   5.780   6.742  1.9999 -1.5295  4.0889
  667MOL0     H88022   5.930   5.616   6.637  0.0899 -0.8977 -1.0335
  667MOL0     H88023   6.060   5.495   6.634  3.6518  1.8756  1.2699
  667MOL0     H88024   5.857   5.491   6.830 -1.0347  1.9101  0.6321
  667MOL0     H88025   5.938   5.622   6.888 -2.0412  2.3018 -2.8814
  667MOL0     H88026   6.868   6.020   6.708  0.2177 -0.1795  1.7086
  667MOL0     H88027   7.115   6.044   6.721 -0.5283 -0.6168  0.7700
  667MOL0     H88028   7.518   5.867   6.852  0.3470 -0.6255 -0.0420
  667MOL0     H88029   7.751   5.795   6.899  0.7356 -0.2080 -0.0706
  667MOL0     H88030   9.650   5.404   7.316 -1.4219  2.9245  2.2195
  667MOL0     H88031   9.858   5.274   7.379  0.7135  2.6356  1.3742
  667MOL0     H88032  10.105   5.135   7.680 -1.7066 -1.4535  2.6271
  667MOL0     H88033  10.330   5.049   7.744 -0.3863  1.0802  0.8138
  667MOL0     H88034  10.435   4.620   7.598  0.6384  0.7148 -1.2885
  667MOL0     H88035  10.425   4.641   7.769 -1.6514 -0.3568 -0.3923
  667MOL0     H88036  10.660   4.740   7.761  0.5670  0.5701 -0.9103
  667MOL0     H88037  10.659   4.577   7.698 -0.1629 -0.9312 -1.9387
  667MOL0     H88038  10.651   4.830   7.525  1.6497  0.9614  0.7814
  667MOL0     H88039  10.646   4.683   7.454 -0.5572  0.0549 -0.0702
  667MOL0     H88040  10.892   4.788   7.627 -1.2063  1.2017 -1.4265
  667MOL0     H88041  10.882   4.624   7.558  1.5760 -0.0871  1.2536
  667MOL0     H88042  10.997   4.899   7.268 -0.6993  1.7908  1.4287
  667MOL0     H88043  10.232   4.674   7.551 -0.3242 -1.3158  1.9969
  667MOL0     H88044  10.004   4.751   7.512  3.0339 -2.1137 -2.2802
  668MOL0     O88045   4.833   2.953   5.966  0.4339 -0.5598 -0.5419
  668MOL0     C88046   4.847   2.904   6.076 -0.0391  0.4728  0.0451
  668MOL0     O88047   4.751   2.819   6.133  0.4270 -0.2992 -0.0602
  668MOL0     C88048   4.631   2.791   6.072  0.0128  1.1408  0.0415
  668MOL0     C88049   4.529   2.776   6.163  0.3702 -0.1136  0.6463
  668MOL0     C88050   4.395   2.769   6.122 -0.2031  0.3546  0.6409
  668MOL0     C88051   4.360   2.767   5.985  0.0792  0.1799 -0.6855
  668MOL0     O88052   4.233   2.759   5.927 -0.2660  0.1875 -0.7796
  668MOL0     C88053   4.113   2.754   6.012 -0.5245  0.0059 -0.1475
  668MOL0     C88054   4.000   2.726   5.918  0.5591  0.1552 -0.8449
  668MOL0     C88055   3.872   2.696   6.004  0.4689 -1.2011  0.5083
  668MOL0     C88056   3.757   2.661   5.921  0.1746 -0.3773 -0.4840
  668MOL0     C88057   3.628   2.746   5.956 -0.3797  0.0103  0.0626
  668MOL0     C88058   3.583   2.728   6.099 -0.3947  0.2222 -0.6317
  668MOL0     C88059   3.446   2.783   6.130 -0.4269  0.5595  0.1929
  668MOL0     C88060   3.431   2.814   6.273 -0.4346  0.5383  0.7407
  668MOL0     N88061   3.300   2.876   6.292 -0.0893 -0.4321  0.0650
  668MOL0     C88062   3.182   2.815   6.351 -0.0035  0.3273  0.2413
  668MOL0     C88063   3.093   2.915   6.390 -0.6138  0.5676 -0.2625
  668MOL0     C88064   2.959   2.875   6.442  0.2753 -0.7993  0.1439
  668MOL0     C88065   2.838   2.867   6.342  0.3754 -0.0043  0.0132
  668MOL0     C88066   2.708   2.817   6.409  0.2106 -0.4746 -0.7050
  668MOL0     C88067   2.587   2.875   6.340 -0.2748 -0.2185  0.2978
  668MOL0     O88068   2.545   3.006   6.394  0.1047  0.5787  0.2877
  668MOL0     C88069   2.423   3.061   6.378 -0.0401  0.0154 -0.4267
  668MOL0     C88070   2.310   2.992   6.322  0.0052 -0.1162 -0.0600
  668MOL0     C88071   2.183   3.039   6.326 -0.2261 -0.6411  0.5109
  668MOL0     C88072   2.161   3.170   6.386 -0.7716  0.7333 -0.2556
  668MOL0     C88073   2.028   3.232   6.394  1.0681  0.4503 -0.8146
  668MOL0     O88074   1.925   3.171   6.327  0.1106 -0.2868 -0.9340
  668MOL0     C88075   1.790   3.177   6.368 -0.4281 -0.3167 -0.5945
  668MOL0     C88076   1.701   3.081   6.306  0.3350  0.8953 -1.0082
  668MOL0     C88077   1.562   3.083   6.328  0.5894  0.0218  0.0538
  668MOL0     C88078   1.505   3.169   6.417 -1.4296  0.2173 -0.3000
  668MOL0     O88079   1.370   3.181   6.439  0.5084 -0.0642 -0.2886
  668MOL0     C88080   1.277   3.092   6.383  0.6503  1.0010  0.4923
  668MOL0     C88081   1.130   3.131   6.418 -0.3230 -0.6678  0.2337
  668MOL0     C88082   1.023   3.010   6.408  0.0161  0.1292 -0.5624
  668MOL0     C88083   0.886   3.045   6.444 -0.6385 -0.2140  0.0018
  668MOL0     C88084   0.819   3.154   6.347 -0.6328  0.2789  0.2202
  668MOL0     C88085   0.677   3.157   6.369  0.4659  0.3570  0.0587
  668MOL0     C88086   0.622   3.266   6.273 -0.0037  0.7449 -0.2937
  668MOL0     C88087   0.699   3.401   6.256 -0.0421  0.8228  0.7800
  668MOL0    Cl88088   0.594   3.514   6.166  0.0174  0.0271  0.5122
  668MOL0     C88089   1.584   3.265   6.488 -0.3943 -0.9004  0.1038
  668MOL0     C88090   1.726   3.268   6.461  0.2596 -0.3516  0.3564
  668MOL0     O88091   2.010   3.316   6.482 -0.6166  0.4550 -0.1666
  668MOL0     C88092   2.274   3.235   6.445  0.4229 -0.4995  0.6951
  668MOL0     C88093   2.398   3.184   6.443 -0.7407 -0.3546 -0.7707
  668MOL0     N88094   3.162   3.039   6.363  0.0811  0.2863  0.7505
  668MOL0     N88095   3.283   3.012   6.297  0.2265 -0.6017  0.3889
  668MOL0     C88096   4.473   2.766   5.901  0.4363  0.8622  0.3701
  668MOL0     C88097   4.605   2.790   5.945  0.7548  0.3614  0.0140
  668MOL0     C88098   4.973   2.914   6.153  0.4134 -0.5386 -0.2329
  668MOL0     C88099   5.090   2.958   6.080  0.2075  0.3007  0.3406
  668MOL0     C88100   5.217   2.963   6.133  0.3941  0.5477  0.1235
  668MOL0     C88101   5.227   2.913   6.260 -0.6316  0.1564  0.3566
  668MOL0     O88102   5.346   2.906   6.329  0.1650  0.1655  0.0806
  668MOL0     C88103   5.470   2.928   6.265 -0.2025  0.0379 -0.2568
  668MOL0     C88104   5.506   3.069   6.275  1.2319 -0.7173 -0.1787
  668MOL0     C88105   5.642   3.104   6.203  1.1451  0.4081  0.0091
  668MOL0     C88106   5.769   3.043   6.252  0.0298 -1.0721  0.2023
  668MOL0     C88107   5.788   3.065   6.397  0.4887 -0.5973 -0.2668
  668MOL0     C88108   5.795   3.084   6.521 -0.1377  0.0062  0.0683
  668MOL0     C88109   5.115   2.866   6.327 -0.1515 -0.1842 -0.5487
  668MOL0     C88110   4.987   2.868   6.278  0.1455  0.2185  0.0087
  668MOL0     H88111   4.551   2.773   6.270  1.1209 -2.8602  0.4851
  668MOL0     H88112   4.325   2.766   6.205 -1.6073 -3.0331 -0.5039
  668MOL0     H88113   4.091   2.852   6.056  0.0112  1.1450 -2.2803
  668MOL0     H88114   4.119   2.681   6.093 -0.0287 -1.3502 -1.3774
  668MOL0     H88115   4.016   2.648   5.844  0.1873  0.1802 -0.9557
  668MOL0     H88116   3.977   2.820   5.866  2.7579  0.9027 -0.5441
  668MOL0     H88117   3.846   2.787   6.061 -0.2036 -0.8613 -0.3117
  668MOL0     H88118   3.884   2.620   6.082 -2.7978 -2.2568  0.1442
  668MOL0     H88119   3.771   2.668   5.813  0.1655  2.7349 -0.3566
  668MOL0     H88120   3.747   2.553   5.939  2.6340 -0.6860 -0.6280
  668MOL0     H88121   3.564   2.713   5.873  4.6186 -3.1498 -3.0838
  668MOL0     H88122   3.648   2.853   5.944 -0.2662 -0.1525 -1.5034
  668MOL0     H88123   3.645   2.793   6.162 -1.0045  3.0650 -2.7504
  668MOL0     H88124   3.591   2.624   6.133 -2.1456 -0.1068 -1.0876
  668MOL0     H88125   3.412   2.871   6.074  0.4218  1.9004  1.7187
  668MOL0     H88126   3.378   2.702   6.102  0.2609  0.4852 -1.3894
  668MOL0     H88127   3.522   2.872   6.294  0.8404  0.3201 -3.3364
  668MOL0     H88128   3.431   2.730   6.344 -1.2343 -1.2707 -1.2880
  668MOL0     H88129   3.160   2.711   6.373 -2.6106  0.8795  0.5813
  668MOL0     H88130   2.937   2.949   6.520  5.1836 -0.3064  1.3481
  668MOL0     H88131   2.968   2.779   6.493  1.0574 -0.9730 -0.3011
  668MOL0     H88132   2.869   2.794   6.266  2.5893  1.9317 -1.0878
  668MOL0     H88133   2.829   2.963   6.291 -0.3096  0.0949  0.3226
  668MOL0     H88134   2.716   2.708   6.406  0.4878 -0.7071  3.1602
  668MOL0     H88135   2.700   2.842   6.515 -0.5686  2.1523 -1.3258
  668MOL0     H88136   2.504   2.808   6.362  0.4222 -1.9410 -1.9383
  668MOL0     H88137   2.604   2.877   6.232  2.1506  0.0577  0.6345
  668MOL0     H88138   2.315   2.895   6.273 -1.3427 -1.3303  2.0441
  668MOL0     H88139   2.093   2.980   6.311  0.1574 -1.9350  2.7049
  668MOL0     H88140   1.743   3.024   6.225 -1.3418  0.3455 -1.5461
  668MOL0     H88141   1.496   3.010   6.283  0.8433 -1.5826  2.1335
  668MOL0     H88142   1.299   2.988   6.409 -1.8883  0.1882 -0.2648
  668MOL0     H88143   1.284   3.090   6.274 -1.5444  0.7222  0.3031
  668MOL0     H88144   1.118   3.217   6.351 -1.8063 -0.9224  0.1460
  668MOL0     H88145   1.132   3.182   6.515  0.8594  2.3219 -1.2242
  668MOL0     H88146   1.056   2.934   6.479  2.7490  2.4026  0.8381
  668MOL0     H88147   1.022   2.964   6.309  0.5592  1.2818 -1.1228
  668MOL0     H88148   0.832   2.951   6.429 -1.1394  0.1177 -0.3218
  668MOL0     H88149   0.882   3.068   6.551 -2.7536  0.4180 -0.1573
  668MOL0     H88150   0.831   3.131   6.240 -1.8745 -2.1222  0.5394
  668MOL0     H88151   0.867   3.251   6.364 -0.8802  0.6291 -0.9959
  668MOL0     H88152   0.645   3.175   6.472 -1.7664 -1.8884 -0.1374
  668MOL0     H88153   0.622   3.069   6.334  2.4278 -0.1626 -1.9678
  668MOL0     H88154   0.606   3.217   6.176  3.4612 -1.7532  0.2261
  668MOL0     H88155   0.527   3.290   6.320 -0.0906 -0.5066  0.2018
  668MOL0     H88156   0.786   3.379   6.194 -1.8821  0.5518 -1.8659
  668MOL0     H88157   0.728   3.442   6.353  2.0879 -1.2478  1.0935
  668MOL0     H88158   1.543   3.339   6.556  0.3790  0.4150 -0.8070
  668MOL0     H88159   1.783   3.346   6.512  0.5172  0.7517 -1.5096
  668MOL0     H88160   2.265   3.332   6.492  0.9242 -0.8522  1.5460
  668MOL0     H88161   2.469   3.247   6.495  0.8383 -1.2129 -1.8062
  668MOL0     H88162   4.444   2.764   5.796  1.6261  0.1486  0.0355
  668MOL0     H88163   4.687   2.793   5.873  1.1662  2.4275  0.5067
  668MOL0     H88164   5.070   2.989   5.978 -0.7144 -0.1444  0.3757
  668MOL0     H88165   5.298   3.005   6.073 -0.8065  2.2516 -0.4004
  668MOL0     H88166   5.460   2.888   6.164 -0.1915 -1.0622  0.1704
  668MOL0     H88167   5.549   2.878   6.322 -0.0002  2.2987  1.6298
  668MOL0     H88168   5.429   3.128   6.224  3.0989  2.8232  0.7624
  668MOL0     H88169   5.516   3.106   6.377  0.3345  3.6875 -1.4865
  668MOL0     H88170   5.653   3.213   6.216 -1.3038  0.7859 -0.5840
  668MOL0     H88171   5.628   3.090   6.095  0.0945  0.2271  0.1588
  668MOL0     H88172   5.773   2.942   6.210  0.5364 -0.5175 -1.1278
  668MOL0     H88173   5.841   3.109   6.203 -0.8029 -0.4545 -0.2195
  668MOL0     H88174   5.821   3.090   6.625 -1.1540 -1.2869  0.4221
  668MOL0     H88175   5.131   2.820   6.424 -1.3331  0.6340  0.0539
  668MOL0     H88176   4.900   2.830   6.332 -1.5678  1.0450 -2.0299
  669MOL0     O88177   6.045  10.348   2.585  0.5150  0.4922 -0.4127
  669MOL0     C88178   6.129  10.291   2.515 -0.5581  0.2359 -0.7229
  669MOL0     O88179   6.098  10.233   2.395  0.0913  0.4318 -0.5329
  669MOL0     C88180   5.964  10.189   2.369  0.4170 -0.4694  0.0768
  669MOL0     C88181   5.869  10.140   2.470  0.2368  0.3916  0.5836
  669MOL0     C88182   5.749  10.084   2.423  0.3890 -0.6655  0.6533
  669MOL0     C88183   5.714  10.086   2.284 -0.7974 -0.4912 -0.2592
  669MOL0     O88184   5.588  10.045   2.239  0.2810 -0.1269  0.1138
  669MOL0     C88185   5.506   9.959   2.314 -0.2048 -0.0113 -0.9479
  669MOL0     C88186   5.427   9.878   2.219  0.1177  0.2662 -0.2366
  669MOL0     C88187   5.359   9.762   2.297 -0.1487  0.3164  0.6426
  669MOL0     C88188   5.271   9.677   2.200  0.1206  0.1365 -0.3691
  669MOL0     C88189   5.174   9.571   2.278 -0.4174  0.5426 -0.2635
  669MOL0     C88190   5.057   9.526   2.188  0.1397  0.2208 -0.9597
  669MOL0     C88191   4.978   9.412   2.268  0.2735 -0.0188 -0.3297
  669MOL0     C88192   4.879   9.472   2.370  0.9780 -0.1874 -0.5050
  669MOL0     N88193   4.813   9.367   2.449  0.7535  0.0943  0.1056
  669MOL0     C88194   4.675   9.336   2.467 -0.2481  0.7201  0.4809
  669MOL0     C88195   4.671   9.236   2.557  0.3020 -0.0309  0.1269
  669MOL0     C88196   4.546   9.194   2.630 -0.3620  0.8246  0.1377
  669MOL0     C88197   4.477   9.071   2.561 -0.1651  0.9323  0.3327
  669MOL0     C88198   4.350   9.023   2.643 -0.2827  0.4338 -0.8480
  669MOL0     C88199   4.227   9.113   2.590 -0.0325  0.2010 -1.0920
  669MOL0     O88200   4.114   9.071   2.670  0.7951 -0.2803 -0.0623
  669MOL0     C88201   3.993   9.059   2.603 -0.0547  1.4197 -0.5308
  669MOL0     C88202   3.875   9.098   2.681  0.0730  0.3591  0.0330
  669MOL0     C88203   3.746   9.100   2.627 -0.7506 -0.0183  0.3409
  669MOL0     C88204   3.731   9.073   2.490  0.7444  0.0226 -0.7532
  669MOL0     C88205   3.601   9.091   2.427  0.6446  0.5560  0.0765
  669MOL0     O88206   3.492   9.094   2.507 -0.4858 -0.6309 -0.1145
  669MOL0     C88207   3.372   9.138   2.452 -0.3989  0.1559  0.6473
  669MOL0     C88208   3.315   9.101   2.326  0.6194  0.5413 -0.1406
  669MOL0     C88209   3.191   9.138   2.276 -0.0262  0.2607  1.0552
  669MOL0     C88210   3.106   9.216   2.358 -0.6316  0.0339  0.0750
  669MOL0     O88211   2.978   9.259   2.325 -0.1964 -0.4226 -0.1214
  669MOL0     C88212   2.962   9.322   2.200  0.5323  0.2971 -0.1037
  669MOL0     C88213   2.814   9.363   2.190 -0.6906  0.3522 -0.1927
  669MOL0     C88214   2.748   9.342   2.056 -0.1295  0.6841 -0.0929
  669MOL0     C88215   2.604   9.381   2.060  0.3813 -0.7395 -0.1540
  669MOL0     C88216   2.518   9.331   1.940 -0.2297  0.0228  0.3954
  669MOL0     C88217   2.401   9.427   1.915 -0.1970  0.3744 -0.5449
  669MOL0     C88218   2.311   9.385   1.807 -1.2943 -0.3975  0.1367
  669MOL0     C88219   2.199   9.488   1.794  0.1876  0.3774 -0.7254
  669MOL0    Cl88220   2.087   9.459   1.929  0.1916 -0.5221  0.5557
  669MOL0     C88221   3.154   9.250   2.483  0.1683  0.0582  0.0197
  669MOL0     C88222   3.284   9.212   2.531  0.6415 -0.0609  0.0079
  669MOL0     O88223   3.600   9.107   2.309 -0.2569  0.0817  0.1747
  669MOL0     C88224   3.842   9.023   2.425  0.3672  0.0180  0.1017
  669MOL0     C88225   3.972   9.019   2.473 -0.2513 -0.0192 -0.2337
  669MOL0     N88226   4.800   9.192   2.574  0.4922 -0.1190 -0.4860
  669MOL0     N88227   4.877   9.274   2.522 -0.7791  1.0040  0.5400
  669MOL0     C88228   5.812  10.133   2.191 -0.0023  0.2567  0.6339
  669MOL0     C88229   5.934  10.184   2.232  0.0250  0.3941  0.2423
  669MOL0     C88230   6.277  10.297   2.559  0.9013  0.3981  0.1040
  669MOL0     C88231   6.315  10.359   2.681 -0.0605  0.2699 -0.2703
  669MOL0     C88232   6.454  10.364   2.714  0.5130 -0.7209 -0.3025
  669MOL0     C88233   6.545  10.295   2.636  0.7535 -0.0036  0.5432
  669MOL0     O88234   6.681  10.288   2.660  0.8657 -0.1183  0.6589
  669MOL0     C88235   6.732  10.346   2.775  0.1020 -0.3582 -1.0644
  669MOL0     C88236   6.888  10.335   2.766  0.2813  0.8876  0.3993
  669MOL0     C88237   6.939  10.455   2.841  0.4292 -0.5099  0.5981
  669MOL0     C88238   7.093  10.470   2.803 -0.2025  0.1395 -0.7843
  669MOL0     C88239   7.141  10.573   2.898 -0.2783  0.5458 -0.7262
  669MOL0     C88240   7.195  10.647   2.974 -1.1320 -0.5490  0.0842
  669MOL0     C88241   6.506  10.235   2.518  0.3973  0.8878 -0.5303
  669MOL0     C88242   6.372  10.247   2.478 -0.4446  0.2469 -0.1665
  669MOL0     H88243   5.891  10.148   2.576 -1.7845  1.5666  0.9634
  669MOL0     H88244   5.673  10.053   2.494 -1.4640  1.5467 -0.2109
  669MOL0     H88245   5.441  10.005   2.389 -0.1712 -0.9275 -0.3364
  669MOL0     H88246   5.570   9.893   2.373  1.5552  0.2530 -2.4626
  669MOL0     H88247   5.493   9.834   2.144 -0.3664 -0.7454 -0.0976
  669MOL0     H88248   5.360   9.942   2.161 -0.9348 -0.1910  0.4397
  669MOL0     H88249   5.300   9.804   2.379 -0.4515 -4.3835  3.1377
  669MOL0     H88250   5.431   9.695   2.344 -1.4515 -2.6880 -1.3808
  669MOL0     H88251   5.200   9.738   2.144 -0.0658  1.0717  0.8743
  669MOL0     H88252   5.340   9.628   2.130 -2.9893 -3.4117 -1.3360
  669MOL0     H88253   5.140   9.623   2.368  1.5092  0.8972  0.3014
  669MOL0     H88254   5.225   9.484   2.320 -2.7845 -1.4646 -1.2469
  669MOL0     H88255   5.096   9.469   2.103 -3.7215 -1.1410 -2.0399
  669MOL0     H88256   4.983   9.603   2.169 -1.2836 -1.1110 -1.0023
  669MOL0     H88257   4.936   9.345   2.193 -1.8163  0.4226  0.3739
  669MOL0     H88258   5.055   9.359   2.325  1.7324  1.0301 -1.2345
  669MOL0     H88259   4.805   9.529   2.314  0.2408 -1.6713 -1.1055
  669MOL0     H88260   4.935   9.542   2.433 -1.8208  0.2595  1.6680
  669MOL0     H88261   4.594   9.407   2.454  1.3063  2.9379  1.9746
  669MOL0     H88262   4.483   9.283   2.642  2.0961  3.1111 -2.4519
  669MOL0     H88263   4.576   9.153   2.726  1.7083 -1.3321 -1.3173
  669MOL0     H88264   4.551   8.992   2.552  1.8555  2.6607  1.0612
  669MOL0     H88265   4.448   9.098   2.459  0.5148 -3.2576 -1.1700
  669MOL0     H88266   4.331   8.916   2.629  0.0576  0.4335 -1.3098
  669MOL0     H88267   4.356   9.041   2.751 -0.7045 -2.1272 -0.3307
  669MOL0     H88268   4.222   9.079   2.486 -0.8842  0.9089 -1.2963
  669MOL0     H88269   4.238   9.222   2.599  0.9904  0.2753 -2.7035
  669MOL0     H88270   3.890   9.121   2.786  0.5267  1.0803 -0.1793
  669MOL0     H88271   3.662   9.142   2.681  1.0781  2.3302  1.5123
  669MOL0     H88272   3.363   9.033   2.257  0.1961 -0.0379  0.1286
  669MOL0     H88273   3.168   9.095   2.179 -0.4541 -0.2015  1.3497
  669MOL0     H88274   2.979   9.249   2.120 -0.7422  1.6703 -1.7073
  669MOL0     H88275   3.014   9.415   2.173 -1.7029  1.1056 -1.9308
  669MOL0     H88276   2.795   9.466   2.224 -4.0683  0.9302 -3.1537
  669MOL0     H88277   2.767   9.291   2.257  3.7198 -0.9435  1.8840
  669MOL0     H88278   2.767   9.241   2.018  0.9307  0.5372  0.7676
  669MOL0     H88279   2.787   9.413   1.982  0.0334  1.1657  0.4496
  669MOL0     H88280   2.573   9.346   2.159  1.2631  1.2943  0.8992
  669MOL0     H88281   2.610   9.490   2.068 -1.1598 -0.7205  1.3618
  669MOL0     H88282   2.482   9.231   1.967  1.7739 -0.7204  0.5284
  669MOL0     H88283   2.580   9.317   1.850 -2.9051 -0.4576 -1.4893
  669MOL0     H88284   2.444   9.525   1.889 -4.2542  1.7314 -2.9670
  669MOL0     H88285   2.343   9.435   2.008 -0.3093  1.5367 -0.7001
  669MOL0     H88286   2.361   9.365   1.712 -1.2806 -0.3095  0.1253
  669MOL0     H88287   2.256   9.291   1.816 -0.8669 -0.4441  3.2921
  669MOL0     H88288   2.144   9.464   1.702 -0.9719  0.8511 -0.1835
  669MOL0     H88289   2.229   9.593   1.789 -1.1233  0.7654 -0.8122
  669MOL0     H88290   3.093   9.310   2.549  0.4947 -1.5871  1.9181
  669MOL0     H88291   3.317   9.230   2.633 -0.6081  2.7526  0.0004
  669MOL0     H88292   3.836   9.009   2.318 -0.2401  0.6355  0.0478
  669MOL0     H88293   4.055   8.978   2.416 -1.2378 -1.0820 -0.9429
  669MOL0     H88294   5.800  10.121   2.083  1.7866 -1.5422  0.5759
  669MOL0     H88295   5.996  10.229   2.156  1.7006  0.7529  1.7372
  669MOL0     H88296   6.237  10.396   2.746  0.5220 -1.0747  1.2568
  669MOL0     H88297   6.478  10.431   2.796  2.3699 -0.4720 -1.0006
  669MOL0     H88298   6.689  10.301   2.864  1.1735 -0.7162 -0.7213
  669MOL0     H88299   6.697  10.450   2.771  0.5523 -0.2213 -1.6111
  669MOL0     H88300   6.918  10.244   2.818 -0.5199  1.5932  2.1888
  669MOL0     H88301   6.922  10.335   2.662 -0.4072  0.4893  0.1652
  669MOL0     H88302   6.923  10.441   2.949 -0.9646  0.9155  0.6132
  669MOL0     H88303   6.877  10.540   2.812 -1.5124 -1.9234  0.4269
  669MOL0     H88304   7.155  10.380   2.809 -0.7970 -0.2582 -0.5007
  669MOL0     H88305   7.102  10.514   2.704 -0.1750 -0.3996 -1.0278
  669MOL0     H88306   7.235  10.723   3.039 -1.1905  1.7851 -2.4066
  669MOL0     H88307   6.575  10.189   2.449  0.9431 -0.1243  0.6615
  669MOL0     H88308   6.345  10.198   2.384  3.6935 -0.4452 -1.2074
  670MOL0     O88309   5.208   8.268   5.639  0.7549  0.5083  0.4474
  670MOL0     C88310   5.256   8.263   5.748 -0.1635  0.1372 -1.0516
  670MOL0     O88311   5.185   8.234   5.861  0.8337 -0.0275  0.1579
  670MOL0     C88312   5.053   8.213   5.864  0.0329  0.0049 -0.1716
  670MOL0     C88313   4.991   8.095   5.820  0.3393 -0.1510  0.9100
  670MOL0     C88314   4.853   8.070   5.825 -0.2234  0.1389 -0.5349
  670MOL0     C88315   4.771   8.151   5.900  0.3788 -0.0512 -1.0934
  670MOL0     O88316   4.642   8.129   5.944 -0.3443 -0.6357  0.1571
  670MOL0     C88317   4.584   7.993   5.924 -0.3171  0.2899 -1.0578
  670MOL0     C88318   4.451   7.989   5.993 -0.3616  0.0696 -0.2104
  670MOL0     C88319   4.358   7.877   5.947 -0.2074 -0.3622 -0.1579
  670MOL0     C88320   4.213   7.893   5.971  0.7754  0.0005  0.7919
  670MOL0     C88321   4.137   7.767   5.915  0.0743 -0.0987 -0.2159
  670MOL0     C88322   3.987   7.756   5.961 -0.7524 -0.1237 -0.1105
  670MOL0     C88323   3.911   7.635   5.912 -0.3500 -0.1078 -0.6976
  670MOL0     C88324   3.924   7.618   5.758  0.2294  0.5824 -0.4601
  670MOL0     N88325   3.807   7.529   5.723 -0.1149 -0.2734  0.6725
  670MOL0     C88326   3.671   7.567   5.707 -0.3672 -0.3690 -0.5891
  670MOL0     C88327   3.600   7.457   5.678 -0.0769  0.0528  0.6761
  670MOL0     C88328   3.448   7.441   5.645 -0.2880  0.0117  0.3452
  670MOL0     C88329   3.427   7.366   5.519 -0.4691 -0.8494  0.6831
  670MOL0     C88330   3.359   7.235   5.547 -0.4251  0.7247  0.4006
  670MOL0     C88331   3.355   7.158   5.408 -0.4837 -0.2429 -0.2218
  670MOL0     O88332   3.297   7.030   5.437 -0.3898 -0.5101  1.0623
  670MOL0     C88333   3.159   7.008   5.419 -0.3854 -0.0336  0.1784
  670MOL0     C88334   3.123   6.871   5.442  0.5091  0.4155 -0.0836
  670MOL0     C88335   2.986   6.835   5.420  1.1771  0.1029  0.2359
  670MOL0     C88336   2.886   6.939   5.391 -0.4547  0.5649  0.0458
  670MOL0     C88337   2.746   6.909   5.377  0.3933 -0.0266  0.0212
  670MOL0     O88338   2.723   6.773   5.379 -0.2544  0.0919 -0.1619
  670MOL0     C88339   2.589   6.727   5.372  0.2456  0.7111 -0.6536
  670MOL0     C88340   2.581   6.589   5.391 -0.1812 -0.3705 -1.8420
  670MOL0     C88341   2.466   6.511   5.356 -0.1223 -1.1294 -0.2519
  670MOL0     C88342   2.351   6.583   5.315 -0.0418  0.5930 -0.0446
  670MOL0     O88343   2.238   6.510   5.270  0.0060 -0.9389  0.6019
  670MOL0     C88344   2.213   6.388   5.337 -0.1690 -0.1408  0.0605
  670MOL0     C88345   2.073   6.335   5.310  0.5173  0.0286 -0.1780
  670MOL0     C88346   2.059   6.191   5.358  0.8999 -1.0187 -0.5106
  670MOL0     C88347   1.911   6.130   5.333 -0.4113  0.4940  0.0079
  670MOL0     C88348   1.919   5.997   5.253  0.6923  0.4686  0.5212
  670MOL0     C88349   1.777   5.939   5.237 -0.2289  0.0556 -0.0050
  670MOL0     C88350   1.682   6.038   5.168  0.6217 -0.7367 -1.2233
  670MOL0     C88351   1.566   5.969   5.100  0.4324 -0.0072  0.0571
  670MOL0    Cl88352   1.480   6.094   5.007 -0.0608  0.1536  0.1909
  670MOL0     C88353   2.347   6.716   5.318 -0.8026 -0.6646  0.8250
  670MOL0     C88354   2.467   6.793   5.340  0.1177 -0.1557  0.1706
  670MOL0     O88355   2.653   6.993   5.365  0.0703 -0.0134 -0.3157
  670MOL0     C88356   2.929   7.072   5.377 -0.2558 -0.1442  0.3362
  670MOL0     C88357   3.067   7.104   5.392  0.6262  0.0017  0.6543
  670MOL0     N88358   3.694   7.347   5.683 -0.0220 -0.7232 -0.2859
  670MOL0     N88359   3.809   7.398   5.716  0.3837 -0.5923  0.0025
  670MOL0     C88360   4.828   8.271   5.953 -0.4911 -0.0213  0.0897
  670MOL0     C88361   4.971   8.301   5.942  0.6475 -0.6747 -0.5390
  670MOL0     C88362   5.388   8.324   5.770  0.3133 -0.5961  0.2715
  670MOL0     C88363   5.469   8.349   5.657  0.6824  0.0388 -0.1547
  670MOL0     C88364   5.605   8.395   5.678  0.6976  0.2290  0.1385
  670MOL0     C88365   5.659   8.424   5.804  0.5093  0.2968 -0.2979
  670MOL0     O88366   5.789   8.458   5.817  0.3708  0.2471 -0.0858
  670MOL0     C88367   5.853   8.469   5.943 -0.4288  0.4318  0.3474
  670MOL0     C88368   6.000   8.498   5.940 -0.6943  0.7740 -0.1108
  670MOL0     C88369   6.082   8.422   5.838 -0.0877 -0.3128 -0.6463
  670MOL0     C88370   6.233   8.473   5.851 -0.0603 -0.6374 -0.1207
  670MOL0     C88371   6.310   8.408   5.740  0.3506 -0.4983  0.7884
  670MOL0     C88372   6.350   8.350   5.637  0.5592  0.3263 -0.4637
  670MOL0     C88373   5.575   8.400   5.919 -0.7028  0.3073 -0.0903
  670MOL0     C88374   5.438   8.353   5.905  1.1256  0.5310 -1.7176
  670MOL0     H88375   5.050   8.023   5.764  0.1893  0.9391 -0.7309
  670MOL0     H88376   4.813   7.977   5.787 -1.0553 -0.9536  2.6828
  670MOL0     H88377   4.649   7.915   5.965 -3.7124  0.1753  5.4038
  670MOL0     H88378   4.568   7.973   5.818  0.5302  1.9957 -1.5380
  670MOL0     H88379   4.404   8.087   5.983  2.2481  1.7251  1.9849
  670MOL0     H88380   4.475   7.986   6.100 -0.1793  0.2213 -0.2470
  670MOL0     H88381   4.395   7.788   5.998 -0.6176 -0.0813  0.6412
  670MOL0     H88382   4.376   7.864   5.839  1.1986 -1.3535  0.1576
  670MOL0     H88383   4.198   7.909   6.078 -1.6975  3.5031  0.0996
  670MOL0     H88384   4.174   7.985   5.927 -1.3962 -0.4193  1.6993
  670MOL0     H88385   4.198   7.683   5.950  1.0284  0.6779  0.0326
  670MOL0     H88386   4.147   7.771   5.806  1.4398  1.6216 -0.0775
  670MOL0     H88387   3.947   7.849   5.921 -1.1871 -0.1622  0.2219
  670MOL0     H88388   3.970   7.761   6.069  2.9366 -1.9943  0.7235
  670MOL0     H88389   3.943   7.540   5.955 -2.5972 -0.7191 -0.1989
  670MOL0     H88390   3.808   7.655   5.943 -0.0467  0.4683 -0.0378
  670MOL0     H88391   4.016   7.565   5.732 -2.0011 -3.7416 -0.5671
  670MOL0     H88392   3.909   7.708   5.698  1.6099  1.8153  0.9749
  670MOL0     H88393   3.619   7.661   5.713 -0.5793 -0.5100 -0.2066
  670MOL0     H88394   3.420   7.545   5.630  2.6030  0.8416  0.0925
  670MOL0     H88395   3.385   7.411   5.730 -1.7452  0.6746 -0.4705
  670MOL0     H88396   3.518   7.348   5.462  2.3758  1.5198  4.0545
  670MOL0     H88397   3.362   7.419   5.449  0.8242 -1.7777 -1.3077
  670MOL0     H88398   3.426   7.172   5.608  1.7607  1.9141 -0.6561
  670MOL0     H88399   3.260   7.246   5.592 -1.5343  0.3056 -1.8374
  670MOL0     H88400   3.452   7.130   5.365 -1.7856 -2.9955 -1.6112
  670MOL0     H88401   3.298   7.230   5.349 -0.8388  1.3536  1.9410
  670MOL0     H88402   3.199   6.796   5.465  0.0744 -0.0812 -0.2611
  670MOL0     H88403   2.954   6.732   5.418  1.1280  0.1034 -2.2490
  670MOL0     H88404   2.668   6.543   5.438  0.2820  1.4730 -0.7998
  670MOL0     H88405   2.471   6.403   5.355 -3.2808 -1.3724 -2.5473
  670MOL0     H88406   2.220   6.382   5.446  0.8498  0.3226  0.0320
  670MOL0     H88407   2.280   6.308   5.305 -0.9542 -0.8421  0.1388
  670MOL0     H88408   2.053   6.331   5.203 -2.2782 -0.0137  0.2723
  670MOL0     H88409   1.997   6.400   5.356 -0.9650 -2.5086  1.1882
  670MOL0     H88410   2.084   6.189   5.465 -1.5612 -3.7677  0.1597
  670MOL0     H88411   2.128   6.120   5.312 -0.5848 -3.7162  1.1372
  670MOL0     H88412   1.874   6.102   5.432  2.1236  2.2538  1.5575
  670MOL0     H88413   1.842   6.188   5.271  0.0259  0.3082 -0.6578
  670MOL0     H88414   1.981   5.923   5.304  2.7097  1.4676 -0.3694
  670MOL0     H88415   1.967   6.012   5.157 -1.0833  0.0128 -0.4878
  670MOL0     H88416   1.736   5.909   5.334 -1.8493 -0.7769 -0.9149
  670MOL0     H88417   1.790   5.853   5.172 -0.3036 -1.5798  2.0445
  670MOL0     H88418   1.650   6.119   5.234  2.3374  0.6823 -2.0532
  670MOL0     H88419   1.730   6.085   5.082 -0.0442 -1.9007 -2.2626
  670MOL0     H88420   1.502   5.927   5.178  0.3227 -2.9866 -1.4615
  670MOL0     H88421   1.599   5.892   5.029  1.3474  2.5664 -2.4963
  670MOL0     H88422   2.260   6.770   5.284  1.8862  1.5795 -3.3999
  670MOL0     H88423   2.450   6.900   5.339  0.7506  0.0281  2.8427
  670MOL0     H88424   2.862   7.153   5.351 -2.3717 -2.1935 -0.9902
  670MOL0     H88425   3.091   7.204   5.358  3.5512 -1.0744 -0.7857
  670MOL0     H88426   4.764   8.336   6.012  0.1679  2.2023 -1.5077
  670MOL0     H88427   5.013   8.392   5.985 -0.6796  2.7584 -5.6610
  670MOL0     H88428   5.446   8.315   5.556 -0.0570  3.7622 -1.4079
  670MOL0     H88429   5.653   8.423   5.585  2.3496  1.2209  1.2386
  670MOL0     H88430   5.837   8.379   6.004  1.4609 -1.5698 -1.8947
  670MOL0     H88431   5.803   8.554   5.991 -2.3597  0.8193 -2.1686
  670MOL0     H88432   6.026   8.602   5.922  0.3532  0.6802  0.7669
  670MOL0     H88433   6.029   8.465   6.041  1.2567  1.6591 -0.3363
  670MOL0     H88434   6.040   8.443   5.740  0.2748  2.6541 -0.2762
  670MOL0     H88435   6.082   8.316   5.864 -2.8468 -0.0128  0.9309
  670MOL0     H88436   6.237   8.581   5.834 -0.7388 -0.6733 -0.5550
  670MOL0     H88437   6.282   8.450   5.946 -1.9789 -2.0749  0.5580
  670MOL0     H88438   6.391   8.296   5.554  1.3918 -1.3329  0.9740
  670MOL0     H88439   5.612   8.408   6.021 -1.3066 -3.0444  0.4882
  670MOL0     H88440   5.397   8.329   6.003  1.6590 -0.0415 -1.6268
  671MOL0     O88441   6.104   0.670   7.230  0.0457  0.0638 -0.4296
  671MOL0     C88442   6.161   0.591   7.306 -0.0264 -0.2338 -0.6357
  671MOL0     O88443   6.108   0.521   7.409  0.2308  0.5444 -0.4525
  671MOL0     C88444   5.972   0.495   7.412 -0.0729  0.6829 -0.4709
  671MOL0     C88445   5.902   0.450   7.296  0.5906 -0.7890  0.0252
  671MOL0     C88446   5.763   0.437   7.294  0.4822 -0.1130 -0.9238
  671MOL0     C88447   5.698   0.464   7.417  0.2853  0.4852 -0.5877
  671MOL0     O88448   5.570   0.441   7.443  0.9289 -0.5131  0.2979
  671MOL0     C88449   5.472   0.413   7.340  0.1625  0.0898 -0.5984
  671MOL0     C88450   5.333   0.392   7.400 -0.8841 -1.0140 -0.5716
  671MOL0     C88451   5.322   0.290   7.511  0.2754  0.4885 -0.7923
  671MOL0     C88452   5.182   0.293   7.579  0.4033 -0.3750  0.6552
  671MOL0     C88453   5.161   0.181   7.677  0.4164  0.4121 -0.0505
  671MOL0     C88454   5.015   0.173   7.731 -0.4774  0.5696  0.3325
  671MOL0     C88455   4.997   0.074   7.845  0.7458 -0.2857  0.2354
  671MOL0     C88456   5.055  -0.061   7.815 -0.4956  0.1197  0.1321
  671MOL0     N88457   4.959  -0.134   7.734 -0.3127  0.3241  0.4083
  671MOL0     C88458   4.938  -0.120   7.597  0.8929 -0.0715  0.4237
  671MOL0     C88459   4.814  -0.177   7.580 -0.2458  0.1928  0.1262
  671MOL0     C88460   4.740  -0.188   7.450 -0.2997  0.0524 -0.3105
  671MOL0     C88461   4.710  -0.054   7.385  0.3712 -0.2268  0.0002
  671MOL0     C88462   4.673  -0.071   7.244 -0.1656 -0.6697  1.0701
  671MOL0     C88463   4.535  -0.137   7.229  0.0550 -0.0635 -0.6750
  671MOL0     O88464   4.495  -0.112   7.098 -0.1210 -0.1505 -0.6512
  671MOL0     C88465   4.364  -0.132   7.066 -0.1403 -0.3735 -0.7127
  671MOL0     C88466   4.304  -0.050   6.979 -0.0691  0.8989 -0.0720
  671MOL0     C88467   4.179  -0.072   6.927  1.3023  0.0505 -0.2163
  671MOL0     C88468   4.106  -0.184   6.959 -0.0684 -0.3824  0.2769
  671MOL0     C88469   3.966  -0.197   6.916  0.3315  0.3643  0.2413
  671MOL0     O88470   3.918  -0.110   6.828  0.5904 -0.2357  0.4611
  671MOL0     C88471   3.801  -0.142   6.760  0.0410  0.3938  0.2589
  671MOL0     C88472   3.728  -0.040   6.711 -0.1452  0.6041 -0.2634
  671MOL0     C88473   3.617  -0.065   6.627 -0.0251  0.8982  0.2011
  671MOL0     C88474   3.580  -0.191   6.583  0.8175  0.4107 -0.4280
  671MOL0     O88475   3.478  -0.206   6.490  0.6900 -0.2646  0.9069
  671MOL0     C88476   3.448  -0.335   6.428  0.1647  0.6144 -0.2173
  671MOL0     C88477   3.367  -0.296   6.300  0.1558  0.3969 -0.1368
  671MOL0     C88478   3.348  -0.408   6.191 -1.0191 -0.3157 -0.4694
  671MOL0     C88479   3.266  -0.369   6.069  0.9295 -0.4653  0.9541
  671MOL0     C88480   3.252  -0.483   5.974  0.9687  0.9559  0.3951
  671MOL0     C88481   3.217  -0.460   5.826  0.3612 -0.1595 -0.7546
  671MOL0     C88482   3.314  -0.364   5.764 -0.6605  0.2702  0.9511
  671MOL0     C88483   3.293  -0.368   5.610  0.1791  0.4238  0.5717
  671MOL0    Cl88484   3.390  -0.227   5.529  0.2126  0.3180 -0.1849
  671MOL0     C88485   3.670  -0.294   6.619  0.3832 -0.8062 -0.3973
  671MOL0     C88486   3.768  -0.273   6.716  0.1015  0.1394 -0.4651
  671MOL0     O88487   3.905  -0.290   6.969 -0.9385 -0.2733 -0.1553
  671MOL0     C88488   4.172  -0.280   7.042  1.3283 -0.6493  0.6082
  671MOL0     C88489   4.295  -0.258   7.091 -0.7209 -0.7414  0.1805
  671MOL0     N88490   4.766  -0.222   7.699 -0.1460  0.0796  1.1380
  671MOL0     N88491   4.859  -0.212   7.786 -0.1068  0.4044 -0.6412
  671MOL0     C88492   5.765   0.502   7.541  0.3490 -0.0172 -0.4981
  671MOL0     C88493   5.903   0.521   7.537 -0.5129  0.1187 -0.8946
  671MOL0     C88494   6.304   0.575   7.284 -0.4983 -0.6290  0.5643
  671MOL0     C88495   6.375   0.467   7.336  0.0032  0.1685  0.7193
  671MOL0     C88496   6.517   0.478   7.328 -0.7790  0.5074 -0.4025
  671MOL0     C88497   6.586   0.594   7.278  0.0406 -0.4181 -0.4489
  671MOL0     O88498   6.723   0.623   7.271  0.0272 -0.0353  0.1059
  671MOL0     C88499   6.819   0.517   7.298  0.0766 -0.0514 -0.7053
  671MOL0     C88500   6.956   0.575   7.282 -0.1291 -0.7369 -1.0902
  671MOL0     C88501   6.978   0.589   7.130 -0.7433 -0.4518  0.2689
  671MOL0     C88502   7.095   0.695   7.118 -0.5087 -0.4675 -0.2509
  671MOL0     C88503   7.226   0.636   7.175 -0.2938 -0.7627  0.8125
  671MOL0     C88504   7.327   0.591   7.220 -0.1646 -0.2018  0.4247
  671MOL0     C88505   6.507   0.692   7.230  0.5454 -0.2831 -0.0288
  671MOL0     C88506   6.371   0.692   7.238  0.1146  0.7051 -0.4368
  671MOL0     H88507   5.954   0.436   7.202 -1.6727  1.6713 -1.7725
  671MOL0     H88508   5.717   0.399   7.203 -1.7958  0.5594 -0.1368
  671MOL0     H88509   5.501   0.324   7.284  2.8391  0.1917  0.4768
  671MOL0     H88510   5.468   0.498   7.271 -0.9100  0.8509  0.3647
  671MOL0     H88511   5.260   0.361   7.325 -1.8956 -1.7221  0.6699
  671MOL0     H88512   5.306   0.491   7.440 -0.0710 -1.9551  2.5565
  671MOL0     H88513   5.388   0.307   7.597 -1.6219  0.7817  0.6603
  671MOL0     H88514   5.327   0.187   7.477  0.5987 -0.2616  1.3531
  671MOL0     H88515   5.162   0.389   7.628 -1.9404 -0.8568  0.7771
  671MOL0     H88516   5.110   0.276   7.498 -0.6335 -0.5841  1.5880
  671MOL0     H88517   5.224   0.191   7.766  1.3144 -1.9568 -0.3269
  671MOL0     H88518   5.190   0.090   7.623 -0.4996 -0.6044  1.0891
  671MOL0     H88519   4.955   0.165   7.640  1.8248 -1.0676 -1.1548
  671MOL0     H88520   4.987   0.271   7.771  0.3082  0.7407  0.4783
  671MOL0     H88521   5.041   0.112   7.938 -0.0222 -1.6961  1.2046
  671MOL0     H88522   4.894   0.067   7.879  1.1506 -0.8253  1.3994
  671MOL0     H88523   5.080  -0.122   7.903  2.2641 -0.7768 -1.1737
  671MOL0     H88524   5.154  -0.052   7.769 -0.2162  0.7725  0.8430
  671MOL0     H88525   5.009  -0.089   7.521 -1.2884 -0.0039 -1.7058
  671MOL0     H88526   4.649  -0.244   7.473 -1.0553  0.6891 -1.6882
  671MOL0     H88527   4.810  -0.253   7.396 -1.5063 -0.2863 -1.5255
  671MOL0     H88528   4.791   0.020   7.385 -0.8439  1.1495  1.1579
  671MOL0     H88529   4.626  -0.005   7.434  1.1527  0.9730  0.1826
  671MOL0     H88530   4.662   0.032   7.209 -0.0646 -0.2266  2.2991
  671MOL0     H88531   4.750  -0.123   7.185 -1.5397 -0.0720 -1.4012
  671MOL0     H88532   4.468  -0.087   7.300  2.3648  1.0091  0.8613
  671MOL0     H88533   4.538  -0.245   7.246  1.9743 -0.2550 -1.9458
  671MOL0     H88534   4.354   0.043   6.952  0.2198  1.4903  2.2653
  671MOL0     H88535   4.132   0.006   6.868  1.2699  0.2997  0.1345
  671MOL0     H88536   3.766   0.059   6.732  0.4427 -0.3212  4.1044
  671MOL0     H88537   3.555   0.021   6.604 -1.5803 -0.3285 -0.3754
  671MOL0     H88538   3.383  -0.399   6.488  3.4231 -1.1941  1.6583
  671MOL0     H88539   3.538  -0.392   6.401 -0.1470 -1.2485  2.3356
  671MOL0     H88540   3.407  -0.200   6.266 -0.6403  0.0188 -2.2809
  671MOL0     H88541   3.264  -0.265   6.324 -0.6877 -1.1385 -1.5574
  671MOL0     H88542   3.301  -0.492   6.242  0.7241  0.0073  1.8349
  671MOL0     H88543   3.451  -0.431   6.161 -0.4055  1.3555  0.2533
  671MOL0     H88544   3.163  -0.339   6.091 -0.7626 -1.2246 -4.4459
  671MOL0     H88545   3.311  -0.289   6.009 -1.5207 -0.9382 -1.7223
  671MOL0     H88546   3.177  -0.553   6.012  0.6466  0.9428 -0.2431
  671MOL0     H88547   3.355  -0.520   5.971  0.4472 -0.5121 -1.2886
  671MOL0     H88548   3.115  -0.428   5.805 -0.4093 -2.3611 -0.6530
  671MOL0     H88549   3.228  -0.553   5.769  2.1746 -0.3544 -0.1557
  671MOL0     H88550   3.274  -0.268   5.796 -1.2368  0.5143 -0.4212
  671MOL0     H88551   3.418  -0.387   5.791 -0.6807 -3.2295 -1.2840
  671MOL0     H88552   3.191  -0.341   5.582 -1.2462 -0.7757  4.0050
  671MOL0     H88553   3.314  -0.470   5.575  0.6009  0.2225  1.3913
  671MOL0     H88554   3.661  -0.399   6.591  1.2317 -1.4448  1.6048
  671MOL0     H88555   3.827  -0.354   6.756 -1.7482 -0.1669  1.8588
  671MOL0     H88556   4.125  -0.373   7.073 -1.3547  0.9335  1.6704
  671MOL0     H88557   4.344  -0.340   7.142  2.8662  0.2186 -1.4057
  671MOL0     H88558   5.712   0.506   7.636  0.2065  2.3697 -0.6066
  671MOL0     H88559   5.953   0.562   7.624 -3.2704  1.7274  0.0534
  671MOL0     H88560   6.332   0.375   7.375 -0.3284  0.8615  2.0267
  671MOL0     H88561   6.566   0.391   7.370 -1.9147 -0.6230 -1.3490
  671MOL0     H88562   6.804   0.430   7.233  0.5079 -0.2883 -0.4941
  671MOL0     H88563   6.815   0.479   7.400 -0.6261 -3.1190 -1.7567
  671MOL0     H88564   6.971   0.671   7.332  2.6721 -1.8222  0.4141
  671MOL0     H88565   7.017   0.491   7.317  0.8845  0.0371 -0.9564
  671MOL0     H88566   6.885   0.626   7.088  0.2588  1.4438 -0.4012
  671MOL0     H88567   7.009   0.494   7.084  2.0730  0.3048  0.3923
  671MOL0     H88568   7.114   0.708   7.011  0.4096  0.2328 -0.0062
  671MOL0     H88569   7.078   0.789   7.171 -0.6838 -0.3850 -0.4513
  671MOL0     H88570   7.421   0.563   7.264 -0.7895 -0.4632  1.6359
  671MOL0     H88571   6.570   0.775   7.198  1.1567 -0.2445  1.2145
  671MOL0     H88572   6.309   0.775   7.206 -0.7893  0.3449  0.3272
  672MOL0     O88573   3.284   6.802  10.587 -0.3186 -0.0764 -0.5546
  672MOL0     C88574   3.273   6.742  10.481 -0.4354  0.4599  0.6134
  672MOL0     O88575   3.157   6.694  10.427  0.0700 -0.1285 -0.6211
  672MOL0     C88576   3.038   6.709  10.496 -0.0100  0.1083 -0.0503
  672MOL0     C88577   3.027   6.708  10.635 -0.1870  0.5471  0.1933
  672MOL0     C88578   2.901   6.706  10.700 -0.0335  0.4554  1.2135
  672MOL0     C88579   2.786   6.705  10.615  0.4468  0.9056  0.1619
  672MOL0     O88580   2.661   6.707  10.679 -0.2411 -0.1034 -0.0639
  672MOL0     C88581   2.553   6.735  10.601 -0.4717 -0.1381  0.0485
  672MOL0     C88582   2.435   6.707  10.694  0.1441 -0.0551  0.1406
  672MOL0     C88583   2.421   6.761  10.840  0.2237  0.2694  0.1525
  672MOL0     C88584   2.423   6.919  10.836  0.9529 -0.0518 -0.1800
  672MOL0     C88585   2.447   6.986  10.982  0.3284  0.1630  0.6131
  672MOL0     C88586   2.582   6.949  11.046  0.1450  0.8070  0.3388
  672MOL0     C88587   2.706   7.001  10.961  0.5101 -0.1905 -0.3729
  672MOL0     C88588   2.842   6.954  11.028  0.1398 -0.4723  0.4981
  672MOL0     N88589   2.950   7.026  10.955 -0.5718 -0.2909 -0.1660
  672MOL0     C88590   2.967   7.032  10.820 -0.6604 -0.4301 -0.5396
  672MOL0     C88591   3.070   7.111  10.792 -0.0905 -0.3299  1.1895
  672MOL0     C88592   3.123   7.135  10.655  0.0485  0.3299 -0.1195
  672MOL0     C88593   3.258   7.193  10.653  0.3045  0.3443  0.6762
  672MOL0     C88594   3.268   7.343  10.671 -0.2935 -0.9675 -0.1535
  672MOL0     C88595   3.415   7.383  10.709  1.1758  0.1723 -0.1029
  672MOL0     O88596   3.495   7.360  10.597 -0.8107 -0.5667  0.0035
  672MOL0     C88597   3.625   7.410  10.609 -0.0300  0.5170  0.3497
  672MOL0     C88598   3.711   7.400  10.504 -1.4041 -0.6987  0.7728
  672MOL0     C88599   3.842   7.454  10.497  0.2536 -0.3421  0.9030
  672MOL0     C88600   3.895   7.523  10.608 -0.1897 -0.3799  0.7756
  672MOL0     C88601   4.038   7.577  10.615 -0.2388 -0.1903 -0.4518
  672MOL0     O88602   4.119   7.517  10.521 -0.1602  0.4178  0.2253
  672MOL0     C88603   4.257   7.527  10.520  0.1115 -0.0795 -0.1076
  672MOL0     C88604   4.346   7.535  10.633 -0.3854 -0.0948  0.4203
  672MOL0     C88605   4.483   7.544  10.613 -0.0626  0.2495 -0.2528
  672MOL0     C88606   4.540   7.563  10.489  0.3714 -0.2892 -0.9831
  672MOL0     O88607   4.673   7.571  10.471 -0.1588 -0.0212  0.0467
  672MOL0     C88608   4.762   7.615  10.572 -0.2519 -0.0594  1.0221
  672MOL0     C88609   4.898   7.652  10.505  0.3329 -1.2076  1.1707
  672MOL0     C88610   5.013   7.673  10.599 -0.6871  0.3830 -0.2386
  672MOL0     C88611   5.150   7.712  10.519 -0.2675  0.9364 -0.1547
  672MOL0     C88612   5.270   7.733  10.608  0.7636  0.4754  0.6029
  672MOL0     C88613   5.266   7.853  10.700 -0.0756 -0.3647  0.0315
  672MOL0     C88614   5.400   7.885  10.767  0.2690  0.6749  0.6016
  672MOL0     C88615   5.442   7.794  10.888 -0.2377 -0.2697 -0.1677
  672MOL0    Cl88616   5.309   7.795  11.019 -0.1634 -0.0715  0.1646
  672MOL0     C88617   4.447   7.544  10.384 -0.8575 -0.0646  0.6735
  672MOL0     C88618   4.312   7.532  10.394  0.0613 -0.6427  0.2831
  672MOL0     O88619   4.077   7.657  10.701  0.3075  0.0650  0.5450
  672MOL0     C88620   3.807   7.548  10.716  1.1066 -0.4032  0.7512
  672MOL0     C88621   3.672   7.498  10.710  0.2584  0.1548 -0.3926
  672MOL0     N88622   3.118   7.160  10.912  1.0312  0.7957  0.4855
  672MOL0     N88623   3.041   7.112  11.009 -0.9708  0.2771  0.0083
  672MOL0     C88624   2.807   6.711  10.475  0.3967  0.3411 -0.5274
  672MOL0     C88625   2.927   6.709  10.413 -0.6005  0.4700 -0.5750
  672MOL0     C88626   3.389   6.734  10.394 -0.2183 -0.0699 -0.5351
  672MOL0     C88627   3.378   6.774  10.257  0.1551 -0.2585 -0.1300
  672MOL0     C88628   3.493   6.787  10.178  0.1163 -0.0966  0.0078
  672MOL0     C88629   3.617   6.749  10.225 -0.3940 -0.1859  0.7093
  672MOL0     O88630   3.723   6.752  10.141  0.0731 -0.4464  0.1426
  672MOL0     C88631   3.857   6.704  10.186 -0.0630  0.2569 -0.0024
  672MOL0     C88632   3.959   6.698  10.066 -0.9134 -0.1093  0.2840
  672MOL0     C88633   4.021   6.839  10.049 -0.6884 -0.1748 -0.1653
  672MOL0     C88634   4.114   6.850   9.932 -0.6141 -0.3442  0.6247
  672MOL0     C88635   4.251   6.792   9.952 -0.3208 -1.0215 -0.6929
  672MOL0     C88636   4.366   6.754   9.954 -0.7413 -0.7590  0.4382
  672MOL0     C88637   3.633   6.705  10.358  0.8594  0.0747 -0.0889
  672MOL0     C88638   3.518   6.697  10.441  0.0673 -0.3278  0.0469
  672MOL0     H88639   3.114   6.698  10.699 -0.3120  2.4367  0.7149
  672MOL0     H88640   2.872   6.687  10.803 -2.0082 -0.0698  0.6188
  672MOL0     H88641   2.545   6.669  10.514 -0.0455 -1.0256  0.6663
  672MOL0     H88642   2.559   6.837  10.564  3.3584 -0.5595 -0.9238
  672MOL0     H88643   2.442   6.598  10.707 -2.1094 -0.6609 -2.7343
  672MOL0     H88644   2.343   6.730  10.640 -1.5508 -1.7615  2.0974
  672MOL0     H88645   2.501   6.712  10.897  1.7102  1.0931 -1.1348
  672MOL0     H88646   2.329   6.721  10.882  1.2413 -1.2218  1.0688
  672MOL0     H88647   2.492   6.940  10.754 -1.1161  0.7739 -1.7999
  672MOL0     H88648   2.326   6.957  10.803  0.0602 -1.6673  0.4613
  672MOL0     H88649   2.372   6.940  11.046 -0.8288  0.5947 -0.3806
  672MOL0     H88650   2.446   7.095  10.985 -2.7455  0.3785 -2.1473
  672MOL0     H88651   2.584   6.841  11.060  0.7371  0.5957 -1.1800
  672MOL0     H88652   2.583   6.997  11.145  0.2768  1.0462  0.2222
  672MOL0     H88653   2.706   6.957  10.861  2.5106  0.3698 -0.6734
  672MOL0     H88654   2.711   7.110  10.951  1.8409 -0.3027 -1.2633
  672MOL0     H88655   2.853   6.846  11.026  0.4546 -0.4902  1.8548
  672MOL0     H88656   2.849   6.985  11.133 -0.7319  1.8189 -0.0458
  672MOL0     H88657   2.921   6.974  10.742 -0.2505 -1.2103 -0.2108
  672MOL0     H88658   3.073   7.200  10.583 -1.5400 -0.2015  0.4779
  672MOL0     H88659   3.124   7.033  10.617  1.1958 -0.9982  3.0992
  672MOL0     H88660   3.300   7.174  10.554  0.6729  0.5983  0.7797
  672MOL0     H88661   3.319   7.134  10.722 -0.6623 -1.2239  0.2412
  672MOL0     H88662   3.233   7.411  10.592 -0.6543  2.5952  2.7936
  672MOL0     H88663   3.205   7.351  10.759  0.4206 -1.1812  0.3881
  672MOL0     H88664   3.432   7.329  10.803 -0.1213  3.0514  1.9309
  672MOL0     H88665   3.407   7.489  10.735  1.4543  0.0328  0.5641
  672MOL0     H88666   3.669   7.355  10.414 -1.1668 -0.2325  0.4300
  672MOL0     H88667   3.876   7.445  10.394 -1.4091  0.9033  0.1962
  672MOL0     H88668   4.308   7.542  10.735 -0.2982 -0.0328  0.4480
  672MOL0     H88669   4.539   7.548  10.706  2.1604  1.8702 -1.5643
  672MOL0     H88670   4.777   7.535  10.645  1.0105 -0.1504  0.6879
  672MOL0     H88671   4.722   7.694  10.636  1.0234 -0.4983  2.3975
  672MOL0     H88672   4.884   7.742  10.444 -0.0624 -1.5818  0.7016
  672MOL0     H88673   4.934   7.577  10.433 -0.9486  0.2171 -1.0702
  672MOL0     H88674   5.023   7.586  10.664 -1.2521  1.3398  1.1790
  672MOL0     H88675   4.997   7.755  10.670  2.5326  1.6222 -0.7839
  672MOL0     H88676   5.172   7.632  10.448 -2.9433 -1.0428  1.0564
  672MOL0     H88677   5.129   7.803  10.463  0.9672  1.6094  0.4421
  672MOL0     H88678   5.359   7.745  10.546 -0.1758  0.7068 -0.7742
  672MOL0     H88679   5.295   7.649  10.673 -0.7065 -0.2376  0.3144
  672MOL0     H88680   5.197   7.829  10.782  1.2882 -1.3325  0.9558
  672MOL0     H88681   5.224   7.940  10.649 -1.5123 -0.4214  1.0631
  672MOL0     H88682   5.483   7.874  10.697  0.5568 -2.1472  1.2684
  672MOL0     H88683   5.406   7.990  10.798  0.4426  1.6673 -2.4475
  672MOL0     H88684   5.538   7.836  10.921  1.4663 -1.6234 -3.0059
  672MOL0     H88685   5.465   7.691  10.859  0.5707 -0.6935  1.8358
  672MOL0     H88686   4.493   7.540  10.286  2.3826 -0.0127  2.0802
  672MOL0     H88687   4.247   7.539  10.307 -1.0296 -2.0099  0.9363
  672MOL0     H88688   3.837   7.592  10.810  1.6609  3.3879 -1.0143
  672MOL0     H88689   3.613   7.505  10.800 -1.0794  0.9480 -1.3082
  672MOL0     H88690   2.718   6.712  10.413  0.4917 -0.1438 -0.6757
  672MOL0     H88691   2.950   6.704  10.306  0.9802  0.2372 -0.2565
  672MOL0     H88692   3.281   6.809  10.222  0.8606  1.6027 -0.3497
  672MOL0     H88693   3.487   6.840  10.084  1.4037 -0.2561 -0.1878
  672MOL0     H88694   3.844   6.602  10.224 -0.7693 -0.2647 -1.5525
  672MOL0     H88695   3.897   6.765  10.267  0.6980  1.4002 -1.2013
  672MOL0     H88696   4.037   6.626  10.096 -1.0705 -0.9375 -1.2000
  672MOL0     H88697   3.913   6.666   9.972  0.3494 -0.1876 -0.3260
  672MOL0     H88698   4.080   6.870  10.136  1.0821 -2.7946 -0.3282
  672MOL0     H88699   3.942   6.913  10.032 -1.3785 -0.8785 -0.0427
  672MOL0     H88700   4.056   6.806   9.850  0.7318 -4.2241  1.5082
  672MOL0     H88701   4.129   6.956   9.909  0.6659 -0.4540  0.8785
  672MOL0     H88702   4.464   6.713   9.946 -1.2092 -1.5284 -1.9923
  672MOL0     H88703   3.732   6.681  10.395  2.1679  2.6284 -1.6654
  672MOL0     H88704   3.536   6.665  10.543 -1.4579 -0.8911  0.1633
  673MOL0     O88705   7.768   1.160   2.942  0.4484  0.0051  0.1178
  673MOL0     C88706   7.747   1.198   3.054 -0.3232 -0.9695  0.0594
  673MOL0     O88707   7.671   1.131   3.145 -0.0294  0.4993 -0.3266
  673MOL0     C88708   7.599   1.017   3.115  0.7364  0.1045 -0.3410
  673MOL0     C88709   7.473   0.997   3.180 -0.7550 -0.1916  0.1810
  673MOL0     C88710   7.392   0.881   3.168  0.7740 -0.6838  0.0178
  673MOL0     C88711   7.432   0.789   3.075 -0.1773 -0.2067  0.9799
  673MOL0     O88712   7.349   0.684   3.050 -0.3725  0.3153 -0.1506
  673MOL0     C88713   7.294   0.689   2.922  0.1487  0.3522  0.6002
  673MOL0     C88714   7.268   0.558   2.853 -0.7002  0.7821 -0.5621
  673MOL0     C88715   7.229   0.439   2.945  0.9588 -0.5694 -0.4996
  673MOL0     C88716   7.245   0.307   2.866  0.7620  0.0430 -0.0930
  673MOL0     C88717   7.119   0.279   2.775 -0.5689  1.0306  0.1651
  673MOL0     C88718   7.145   0.161   2.676  0.5431 -0.3550  0.0047
  673MOL0     C88719   7.022   0.124   2.589  0.2446  0.1732 -0.0664
  673MOL0     C88720   6.963   0.241   2.490 -1.0254  0.6804 -0.3469
  673MOL0     N88721   7.060   0.268   2.393 -0.9312  0.4055 -0.1638
  673MOL0     C88722   7.165   0.355   2.417 -0.9119 -0.4116 -0.3383
  673MOL0     C88723   7.239   0.365   2.304  0.7525 -0.0458  0.3632
  673MOL0     C88724   7.363   0.433   2.287 -0.2578 -0.3313 -0.4752
  673MOL0     C88725   7.464   0.319   2.305 -0.4503 -0.1219  0.2973
  673MOL0     C88726   7.474   0.288   2.458  0.3463 -0.2086  0.6760
  673MOL0     C88727   7.593   0.190   2.485 -0.1516  0.0517 -0.1972
  673MOL0     O88728   7.594   0.087   2.389 -0.0038 -0.4210  0.0979
  673MOL0     C88729   7.715   0.039   2.369  0.1169  0.8994 -0.4277
  673MOL0     C88730   7.791  -0.026   2.468  0.2886  0.3210  0.9070
  673MOL0     C88731   7.905  -0.090   2.426 -0.0355 -0.2019 -0.0667
  673MOL0     C88732   7.957  -0.077   2.287 -0.7026 -0.0533 -0.3191
  673MOL0     C88733   8.084  -0.137   2.248 -1.2972  0.5089 -0.3494
  673MOL0     O88734   8.143  -0.207   2.354 -0.0241 -0.1928 -0.4924
  673MOL0     C88735   8.254  -0.281   2.325  0.3336  0.5092 -0.5363
  673MOL0     C88736   8.259  -0.415   2.364  0.0804  1.0142  0.0585
  673MOL0     C88737   8.375  -0.486   2.344 -0.3804  0.1906  0.2891
  673MOL0     C88738   8.486  -0.436   2.280 -0.6817 -0.1785  0.3597
  673MOL0     O88739   8.593  -0.518   2.269 -0.4058 -0.1569  1.0960
  673MOL0     C88740   8.663  -0.545   2.391  0.4184 -0.3388 -0.0593
  673MOL0     C88741   8.808  -0.590   2.357  1.5216  0.5134  0.5330
  673MOL0     C88742   8.900  -0.491   2.289 -1.1067 -0.3497  0.7023
  673MOL0     C88743   9.051  -0.536   2.298 -0.4864  0.3210  1.3879
  673MOL0     C88744   9.158  -0.442   2.260 -0.3425 -0.9035  0.1474
  673MOL0     C88745   9.292  -0.472   2.329 -0.3707  0.8799 -0.3434
  673MOL0     C88746   9.348  -0.607   2.283  0.0361  1.1301  0.0357
  673MOL0     C88747   9.471  -0.661   2.364  0.5394  0.0612  0.3485
  673MOL0    Cl88748   9.405  -0.726   2.520  0.2460  0.0207 -0.3703
  673MOL0     C88749   8.486  -0.304   2.254 -0.0240 -0.7912 -0.3493
  673MOL0     C88750   8.375  -0.226   2.278 -0.4228  0.0057 -0.8810
  673MOL0     O88751   8.122  -0.121   2.134 -0.3555  0.1572  0.0556
  673MOL0     C88752   7.879   0.003   2.192 -0.3793  0.0933  0.6255
  673MOL0     C88753   7.757   0.053   2.231 -0.3352 -0.2974 -1.0781
  673MOL0     N88754   7.165   0.303   2.198 -0.0665 -0.0299  0.4889
  673MOL0     N88755   7.062   0.246   2.256  0.5027 -0.1547  0.6959
  673MOL0     C88756   7.556   0.794   3.009  0.0471 -0.2156 -0.0811
  673MOL0     C88757   7.635   0.913   3.033 -0.9609 -0.1994  0.2486
  673MOL0     C88758   7.805   1.325   3.098 -0.3101 -0.8100  0.5793
  673MOL0     C88759   7.878   1.399   3.003  0.3813  0.1795  0.0908
  673MOL0     C88760   7.938   1.525   3.039  0.8135 -0.4298  0.1836
  673MOL0     C88761   7.916   1.567   3.172 -1.1457 -1.3002  0.4231
  673MOL0     O88762   7.971   1.684   3.221 -0.0235 -0.4768  0.1712
  673MOL0     C88763   8.017   1.797   3.158 -0.6363 -1.1831  0.4701
  673MOL0     C88764   7.908   1.853   3.079 -0.2209 -0.4267  0.3018
  673MOL0     C88765   7.940   1.992   3.010  0.3336  0.2048 -1.1251
  673MOL0     C88766   8.026   1.966   2.887  0.0820  0.2780 -0.1679
  673MOL0     C88767   8.028   2.077   2.795  0.2159 -0.5862  0.1164
  673MOL0     C88768   8.053   2.176   2.729  0.5572 -0.2114 -0.0181
  673MOL0     C88769   7.843   1.495   3.265 -0.0511 -0.1146 -0.3171
  673MOL0     C88770   7.780   1.379   3.224 -0.0652  0.0599 -0.0859
  673MOL0     H88771   7.434   1.073   3.247 -1.5620 -1.0899  0.7452
  673MOL0     H88772   7.299   0.867   3.222  1.5494 -0.2860  1.5268
  673MOL0     H88773   7.368   0.733   2.855 -0.4906  0.1636 -0.2597
  673MOL0     H88774   7.202   0.749   2.916  0.2199  0.3621 -0.7854
  673MOL0     H88775   7.352   0.519   2.794 -0.6844 -1.0861  0.6089
  673MOL0     H88776   7.191   0.574   2.777  0.1025 -1.4301 -1.9450
  673MOL0     H88777   7.127   0.455   2.981  0.0054 -3.0295 -1.8757
  673MOL0     H88778   7.292   0.431   3.034 -1.3548  0.7383  1.3559
  673MOL0     H88779   7.333   0.323   2.804 -0.0797 -0.8843 -1.5950
  673MOL0     H88780   7.260   0.224   2.936  2.5762  1.9853  1.9683
  673MOL0     H88781   7.092   0.369   2.719 -0.9784  1.9516  1.7670
  673MOL0     H88782   7.039   0.254   2.845 -1.3930  3.3244  0.1323
  673MOL0     H88783   7.178   0.079   2.740  0.6523  0.2718  0.7704
  673MOL0     H88784   7.227   0.192   2.610 -0.1982  0.2253 -0.6654
  673MOL0     H88785   7.033   0.035   2.525 -0.2620 -0.7572  1.1030
  673MOL0     H88786   6.936   0.101   2.653 -0.8491 -1.1746 -1.9282
  673MOL0     H88787   6.942   0.321   2.561  1.3140 -1.0594  2.5537
  673MOL0     H88788   6.874   0.200   2.440 -0.3131 -3.0519  1.0809
  673MOL0     H88789   7.187   0.403   2.512 -0.9494  0.1896 -0.6317
  673MOL0     H88790   7.375   0.521   2.350 -0.2953 -0.0467 -0.8621
  673MOL0     H88791   7.351   0.472   2.185  0.1629  3.7633  0.8677
  673MOL0     H88792   7.563   0.352   2.272  0.2385 -0.2493  2.1318
  673MOL0     H88793   7.442   0.224   2.256 -0.4556 -1.8278  3.3645
  673MOL0     H88794   7.488   0.373   2.525 -1.2067 -2.0785  3.5842
  673MOL0     H88795   7.386   0.232   2.491  2.9777 -3.2621  3.2044
  673MOL0     H88796   7.587   0.147   2.586  2.0309 -1.6099 -0.6927
  673MOL0     H88797   7.688   0.245   2.483  0.1471 -0.4816 -1.1661
  673MOL0     H88798   7.756  -0.026   2.571  3.5396 -1.2156  2.1494
  673MOL0     H88799   7.957  -0.156   2.495  0.4363 -0.0730 -0.2930
  673MOL0     H88800   8.174  -0.469   2.404  1.4962 -1.6950 -0.3432
  673MOL0     H88801   8.379  -0.590   2.377 -0.8098 -0.2702 -1.0139
  673MOL0     H88802   8.611  -0.626   2.443 -4.6062 -0.5187 -4.4757
  673MOL0     H88803   8.662  -0.454   2.451  2.9904 -0.2457 -0.0480
  673MOL0     H88804   8.797  -0.675   2.290 -1.7627  0.1177  1.3938
  673MOL0     H88805   8.859  -0.620   2.449 -0.9086  0.9840  2.1347
  673MOL0     H88806   8.893  -0.404   2.354  0.0538 -0.7916  1.4542
  673MOL0     H88807   8.865  -0.473   2.187 -0.1636 -0.2042  0.3895
  673MOL0     H88808   9.066  -0.549   2.406 -0.7634  1.1767  1.5362
  673MOL0     H88809   9.065  -0.628   2.240 -1.5463  0.7796  0.3699
  673MOL0     H88810   9.116  -0.347   2.295  0.2602 -1.1613  1.6479
  673MOL0     H88811   9.162  -0.438   2.150 -4.8969 -0.1041 -0.1705
  673MOL0     H88812   9.276  -0.469   2.438 -1.0389 -1.5945 -0.3024
  673MOL0     H88813   9.368  -0.394   2.317  0.3381  0.3841  0.7155
  673MOL0     H88814   9.271  -0.684   2.296  0.9703  0.2495  0.5405
  673MOL0     H88815   9.385  -0.605   2.180 -4.3361  3.2030 -1.7654
  673MOL0     H88816   9.547  -0.584   2.385  1.1627 -0.5833  0.4791
  673MOL0     H88817   9.514  -0.740   2.303  1.1654 -1.8799  3.0964
  673MOL0     H88818   8.579  -0.252   2.235 -0.4494 -0.1791 -0.8300
  673MOL0     H88819   8.380  -0.118   2.279  0.5756  0.1009 -3.9506
  673MOL0     H88820   7.922   0.027   2.095 -1.4109 -0.0703  0.1066
  673MOL0     H88821   7.689   0.098   2.159 -0.9807 -3.7043 -2.7793
  673MOL0     H88822   7.591   0.718   2.941 -0.6826 -0.1661 -0.5305
  673MOL0     H88823   7.734   0.920   2.987 -2.2265  3.6117 -2.4337
  673MOL0     H88824   7.900   1.368   2.901  0.5987 -0.2437  0.2630
  673MOL0     H88825   7.996   1.576   2.963  4.8604 -3.7866  0.6573
  673MOL0     H88826   8.107   1.770   3.102 -1.3496 -0.4124 -1.1135
  673MOL0     H88827   8.047   1.869   3.234 -0.8026 -0.7179  0.1023
  673MOL0     H88828   7.876   1.787   2.998 -1.3509  0.8689 -0.3470
  673MOL0     H88829   7.821   1.867   3.144 -0.2997  2.0419 -0.2474
  673MOL0     H88830   7.992   2.063   3.076  2.5835 -2.5614  0.2707
  673MOL0     H88831   7.855   2.046   2.967  2.2423  1.2754 -3.8670
  673MOL0     H88832   8.129   1.947   2.917  0.0537  2.4641  1.5867
  673MOL0     H88833   7.988   1.880   2.831 -0.6158  0.1446  0.4895
  673MOL0     H88834   8.065   2.268   2.675 -2.1482  0.2592  0.0194
  673MOL0     H88835   7.841   1.508   3.372 -1.1435  1.8368 -0.5326
  673MOL0     H88836   7.736   1.310   3.296  0.0291 -0.3127 -0.3805
  674MOL0     O88837  10.493   7.880  11.119 -0.4892  0.5040 -0.9794
  674MOL0     C88838  10.515   7.827  11.008  0.9047 -0.8488 -0.4740
  674MOL0     O88839  10.427   7.787  10.919  0.0194  0.2582  0.5623
  674MOL0     C88840  10.310   7.739  10.961  0.7724 -0.7439  0.0368
  674MOL0     C88841  10.315   7.622  11.036  0.3930  0.6096 -0.1765
  674MOL0     C88842  10.190   7.553  11.067 -0.3733  0.0116  0.2074
  674MOL0     C88843  10.067   7.616  11.036 -0.7008 -0.9851 -0.1219
  674MOL0     O88844   9.953   7.553  11.060 -0.1563  0.7106 -0.0537
  674MOL0     C88845   9.921   7.451  10.959 -0.0540 -0.5579  0.0718
  674MOL0     C88846   9.830   7.345  11.022  0.0517  0.4848  0.7597
  674MOL0     C88847   9.685   7.384  11.002  0.4871 -0.0328 -0.2335
  674MOL0     C88848   9.588   7.271  11.048  0.7281 -0.1509  0.0334
  674MOL0     C88849   9.456   7.270  10.982  0.7780  0.3192 -0.3478
  674MOL0     C88850   9.347   7.381  11.006 -0.5035  0.4099 -0.5192
  674MOL0     C88851   9.329   7.411  11.159  0.0097  0.0416  1.3723
  674MOL0     C88852   9.260   7.289  11.229 -0.3867  0.6734 -0.7648
  674MOL0     N88853   9.200   7.326  11.354  0.1832 -0.1218 -0.1610
  674MOL0     C88854   9.270   7.363  11.468  0.3764 -0.0310 -0.3493
  674MOL0     C88855   9.178   7.392  11.564 -0.8574  0.3348 -0.4640
  674MOL0     C88856   9.201   7.445  11.701 -0.4085 -0.8374 -0.1003
  674MOL0     C88857   9.211   7.349  11.824  0.3469  0.7387 -0.1609
  674MOL0     C88858   9.097   7.249  11.832  0.2194 -0.2539 -0.7395
  674MOL0     C88859   8.953   7.305  11.822 -1.3082  0.5683  0.1260
  674MOL0     O88860   8.949   7.396  11.927 -0.4230 -0.5003 -0.3302
  674MOL0     C88861   8.826   7.444  11.955  0.5558  0.3645 -0.7403
  674MOL0     C88862   8.783   7.575  11.918 -0.8067  0.1391 -0.2874
  674MOL0     C88863   8.651   7.617  11.914 -0.5209  0.0109  0.3514
  674MOL0     C88864   8.557   7.531  11.963 -0.0004 -0.4257 -0.0855
  674MOL0     C88865   8.414   7.559  11.969  0.7009 -0.1768  0.3485
  674MOL0     O88866   8.329   7.471  12.037  0.6436  0.7268  0.1085
  674MOL0     C88867   8.202   7.502  12.072 -0.2294  0.1863 -0.6659
  674MOL0     C88868   8.101   7.413  12.063  0.0658 -0.1149 -0.4248
  674MOL0     C88869   7.975   7.448  12.100  0.2801  0.5897 -0.4042
  674MOL0     C88870   7.948   7.566  12.169 -0.9800 -0.1981  0.0864
  674MOL0     O88871   7.824   7.595  12.203  0.3159  0.4127 -0.0030
  674MOL0     C88872   7.811   7.648  12.334 -0.1882 -0.6034 -0.6828
  674MOL0     C88873   7.690   7.731  12.335  0.5491  0.6664 -0.4647
  674MOL0     C88874   7.657   7.801  12.469  0.3591 -1.0244  0.4076
  674MOL0     C88875   7.521   7.881  12.447  0.2358 -0.6561  0.4700
  674MOL0     C88876   7.480   7.969  12.562 -0.1695 -0.0167  0.7124
  674MOL0     C88877   7.359   8.062  12.520 -0.9711  0.7740 -1.0069
  674MOL0     C88878   7.220   7.991  12.519 -0.3317  0.4339 -0.9949
  674MOL0     C88879   7.118   8.085  12.465 -0.3888 -0.5079 -0.1442
  674MOL0    Cl88880   6.945   8.021  12.452 -0.2015 -0.1020 -0.6651
  674MOL0     C88881   8.058   7.661  12.186 -0.2159  0.0966  0.3063
  674MOL0     C88882   8.173   7.628  12.124 -0.1081  0.5944  0.1830
  674MOL0     O88883   8.380   7.656  11.901 -0.1546  0.6393  0.7186
  674MOL0     C88884   8.597   7.406  12.016 -0.2151  0.0167  0.1721
  674MOL0     C88885   8.725   7.360  11.999 -0.3774 -0.3864 -0.2933
  674MOL0     N88886   9.056   7.346  11.519 -0.0946 -0.0646 -0.0854
  674MOL0     N88887   9.070   7.314  11.388  0.3885  0.0873 -0.4234
  674MOL0     C88888  10.072   7.724  10.962 -1.1501 -0.0816  1.2553
  674MOL0     C88889  10.187   7.789  10.917 -0.1097 -0.7719 -0.3498
  674MOL0     C88890  10.653   7.812  10.971  0.6629 -0.4415 -0.2547
  674MOL0     C88891  10.703   7.772  10.847 -0.3402 -0.3859  0.8415
  674MOL0     C88892  10.838   7.756  10.827 -0.8261  1.4364  0.6370
  674MOL0     C88893  10.937   7.774  10.932  0.7790 -0.6033 -1.0567
  674MOL0     O88894  11.064   7.732  10.901  0.4611  0.0803 -0.4683
  674MOL0     C88895  11.164   7.725  11.008 -0.0785  0.2951  1.2513
  674MOL0     C88896  11.218   7.858  11.055  0.0335 -1.4358 -0.0248
  674MOL0     C88897  11.307   7.849  11.179  0.0433 -0.4918  0.0081
  674MOL0     C88898  11.390   7.980  11.202 -0.0648 -0.5037 -0.0975
  674MOL0     C88899  11.407   8.003  11.349  0.1517  0.3274  0.0258
  674MOL0     C88900  11.406   8.026  11.467  0.4438 -1.5079 -0.1356
  674MOL0     C88901  10.886   7.811  11.060  0.7169  0.5520  0.6234
  674MOL0     C88902  10.746   7.822  11.073 -1.3357 -0.0510  0.1284
  674MOL0     H88903  10.408   7.590  11.082 -0.4144 -0.4952  0.7499
  674MOL0     H88904  10.191   7.456  11.116 -2.4433 -0.1505  0.0388
  674MOL0     H88905  10.018   7.409  10.931 -0.1641 -1.3362  0.8001
  674MOL0     H88906   9.880   7.478  10.862  0.4970 -0.7655 -0.2240
  674MOL0     H88907   9.847   7.340  11.130 -0.7801  1.1837  0.9334
  674MOL0     H88908   9.850   7.247  10.978 -3.7839  0.1483 -0.6472
  674MOL0     H88909   9.649   7.403  10.900 -0.7383  0.8964  0.3490
  674MOL0     H88910   9.675   7.472  11.065  0.4945 -0.8274  0.8980
  674MOL0     H88911   9.630   7.174  11.019  0.8255 -0.1863  0.2964
  674MOL0     H88912   9.588   7.262  11.157  0.6424 -1.1236 -0.0340
  674MOL0     H88913   9.407   7.182  11.026  0.1602  0.1231 -1.3902
  674MOL0     H88914   9.455   7.262  10.873 -0.8043 -0.1723 -0.3332
  674MOL0     H88915   9.252   7.347  10.964  0.2911 -3.3345  0.3647
  674MOL0     H88916   9.381   7.468  10.948  1.5077 -1.0320 -1.6619
  674MOL0     H88917   9.419   7.430  11.217  0.4919  0.7606  0.4184
  674MOL0     H88918   9.262   7.497  11.165  1.6049  1.3802  0.8279
  674MOL0     H88919   9.318   7.200  11.256 -0.5351  1.2809  1.8839
  674MOL0     H88920   9.174   7.258  11.169 -2.1352  1.4586  1.1975
  674MOL0     H88921   9.378   7.350  11.467  0.3507 -0.4926  1.0396
  674MOL0     H88922   9.123   7.519  11.720  2.4297  2.0800  1.2556
  674MOL0     H88923   9.292   7.506  11.707 -1.4912  0.7417  1.1651
  674MOL0     H88924   9.210   7.401  11.921 -1.7151 -0.8457  0.7483
  674MOL0     H88925   9.312   7.307  11.822  0.3019  0.3900  2.1533
  674MOL0     H88926   9.102   7.172  11.754  0.1798 -1.6907  0.6209
  674MOL0     H88927   9.119   7.197  11.926  0.2862  1.2467  0.0968
  674MOL0     H88928   8.875   7.228  11.828 -1.2824  0.6234  1.3788
  674MOL0     H88929   8.938   7.352  11.724 -0.7637 -1.3361 -0.9284
  674MOL0     H88930   8.861   7.638  11.875 -0.1358 -0.3313  0.2164
  674MOL0     H88931   8.638   7.718  11.876  0.0350 -0.1646 -0.3390
  674MOL0     H88932   8.120   7.321  12.010  1.2445 -1.0597  1.5233
  674MOL0     H88933   7.896   7.374  12.094 -0.3349  1.0302  1.4247
  674MOL0     H88934   7.899   7.700  12.372 -1.0760 -0.7983  1.8269
  674MOL0     H88935   7.806   7.569  12.410  0.6355 -0.9092 -0.9366
  674MOL0     H88936   7.618   7.649  12.328  1.8724 -0.5732 -0.0689
  674MOL0     H88937   7.673   7.792  12.246  0.2068 -1.0724 -1.6502
  674MOL0     H88938   7.736   7.868  12.503  0.2174 -0.4574 -0.3452
  674MOL0     H88939   7.650   7.717  12.538  1.0903 -0.8116  0.7523
  674MOL0     H88940   7.536   7.946  12.360 -0.7806  1.2831  1.6792
  674MOL0     H88941   7.449   7.806  12.413  1.2707 -1.9897  1.1577
  674MOL0     H88942   7.561   8.034  12.597 -1.1782  1.3363  0.6154
  674MOL0     H88943   7.456   7.907  12.649  1.3229 -0.4497  0.8423
  674MOL0     H88944   7.371   8.116  12.426  3.8727  1.1229 -0.4349
  674MOL0     H88945   7.362   8.143  12.593 -1.1008  0.5430 -0.7410
  674MOL0     H88946   7.222   7.900  12.458 -1.0339 -2.0120  2.3305
  674MOL0     H88947   7.197   7.949  12.617 -0.5100  1.2721 -0.6778
  674MOL0     H88948   7.146   8.102  12.361  3.4244 -1.9320  0.4979
  674MOL0     H88949   7.118   8.187  12.505  0.2118 -0.9211  0.9522
  674MOL0     H88950   8.046   7.760  12.227  0.4514  0.5744 -0.6257
  674MOL0     H88951   8.254   7.700  12.122 -0.6634  1.2178 -0.6217
  674MOL0     H88952   8.526   7.342  12.068 -2.9144  1.9184 -0.9614
  674MOL0     H88953   8.747   7.255  12.016 -4.2158 -1.1940  0.5427
  674MOL0     H88954   9.978   7.765  10.929 -0.1181  0.2268 -1.5658
  674MOL0     H88955  10.170   7.878  10.858  0.1313 -0.3867  0.1623
  674MOL0     H88956  10.622   7.755  10.776 -2.2011  4.0570  1.4936
  674MOL0     H88957  10.873   7.712  10.735 -4.4831  2.7115 -1.5802
  674MOL0     H88958  11.239   7.658  10.964 -2.9807 -3.1415  1.0133
  674MOL0     H88959  11.118   7.668  11.090 -3.9287 -2.1464 -2.1961
  674MOL0     H88960  11.283   7.900  10.978 -0.4661  3.2510  1.7668
  674MOL0     H88961  11.135   7.928  11.065  0.0775 -1.0249 -2.1695
  674MOL0     H88962  11.373   7.762  11.183  1.7377  0.7494 -0.1355
  674MOL0     H88963  11.230   7.843  11.256 -0.8151  0.3932 -0.7513
  674MOL0     H88964  11.489   7.981  11.156  0.4123  1.3554  0.8751
  674MOL0     H88965  11.335   8.068  11.165  0.9716  0.4258  0.5413
  674MOL0     H88966  11.427   8.052  11.569 -3.4019  1.2326  0.1809
  674MOL0     H88967  10.946   7.801  11.150 -1.7069 -2.6707  2.0797
  674MOL0     H88968  10.709   7.821  11.175 -0.9245  0.1048  0.2782
  675MOL0     O88969   2.583   2.862   5.237  0.5516 -1.1543  0.5145
  675MOL0     C88970   2.655   2.897   5.327 -0.4660  0.3050  0.0825
  675MOL0     O88971   2.626   2.943   5.449  0.3471  0.1490  0.0395
  675MOL0     C88972   2.492   2.966   5.471  0.3351  0.0414 -1.0563
  675MOL0     C88973   2.425   2.887   5.557  0.1133 -0.2337  0.2906
  675MOL0     C88974   2.293   2.902   5.588  0.3753  0.5291  0.1993
  675MOL0     C88975   2.223   3.010   5.525  0.5421 -0.3473  0.2972
  675MOL0     O88976   2.091   3.049   5.550 -0.2912  0.4969 -0.0161
  675MOL0     C88977   1.994   2.950   5.608  0.9472 -0.4043 -0.4055
  675MOL0     C88978   1.843   2.985   5.593 -0.3774  0.6934  0.2576
  675MOL0     C88979   1.753   2.867   5.625  0.0526 -0.8771  0.1644
  675MOL0     C88980   1.610   2.891   5.614  0.6571 -1.1483 -0.6943
  675MOL0     C88981   1.511   2.770   5.638 -0.6553 -0.4929 -0.0959
  675MOL0     C88982   1.498   2.739   5.795  0.3578  0.2974  0.5783
  675MOL0     C88983   1.436   2.604   5.818 -0.4859  0.8146  0.2736
  675MOL0     C88984   1.292   2.586   5.768  0.0678  0.4000  0.9239
  675MOL0     N88985   1.233   2.457   5.808 -0.3523  0.4390  0.1840
  675MOL0     C88986   1.105   2.423   5.791  0.0666 -0.2963 -0.1527
  675MOL0     C88987   1.085   2.311   5.851  0.3026 -0.0041 -0.2489
  675MOL0     C88988   0.945   2.246   5.856 -0.0122 -0.0219 -0.0262
  675MOL0     C88989   0.858   2.345   5.945  0.2922  1.1339  0.5620
  675MOL0     C88990   0.914   2.348   6.087 -0.6760  0.3461 -0.6198
  675MOL0     C88991   0.838   2.447   6.183  0.3810 -0.2108  0.2040
  675MOL0     O88992   0.698   2.438   6.165  0.0092 -0.2205 -0.1161
  675MOL0     C88993   0.631   2.368   6.252  0.3606  0.2657  0.1925
  675MOL0     C88994   0.493   2.379   6.247 -0.2138  0.4064 -0.9378
  675MOL0     C88995   0.407   2.306   6.333 -0.1823 -0.0032  0.1603
  675MOL0     C88996   0.458   2.222   6.435 -0.0592 -0.5036 -0.1474
  675MOL0     C88997   0.377   2.148   6.531  0.2702 -0.2664 -0.7919
  675MOL0     O88998   0.237   2.140   6.498  0.0998 -0.6625 -1.0067
  675MOL0     C88999   0.139   2.100   6.584  1.1147  0.2815 -0.0907
  675MOL0     C89000   0.129   1.975   6.637 -0.6425 -0.6627  0.0054
  675MOL0     C89001   0.017   1.945   6.717 -0.5207 -0.7064  0.3795
  675MOL0     C89002  -0.071   2.039   6.751  0.8056 -0.1517  0.1734
  675MOL0     O89003  -0.178   2.017   6.830 -0.2874  0.0103 -0.1659
  675MOL0     C89004  -0.244   1.881   6.833 -0.2535 -0.4987 -0.0883
  675MOL0     C89005  -0.363   1.880   6.946 -0.1674 -0.2671  0.1727
  675MOL0     C89006  -0.448   2.015   6.959 -1.3958  0.8310  0.2030
  675MOL0     C89007  -0.569   1.997   7.050 -0.5995  0.3518 -0.2915
  675MOL0     C89008  -0.658   1.873   7.026 -0.2918  0.0627 -0.4024
  675MOL0     C89009  -0.761   1.880   6.913 -0.3186 -0.2679  0.1006
  675MOL0     C89010  -0.853   2.002   6.912 -0.0186 -0.2504 -0.2739
  675MOL0     C89011  -0.953   1.997   6.800 -1.0192 -0.5745 -0.7302
  675MOL0    Cl89012  -1.070   1.865   6.828 -0.1722 -0.4250  0.0142
  675MOL0     C89013  -0.061   2.172   6.708 -0.2549 -0.2248  0.4411
  675MOL0     C89014   0.043   2.201   6.620 -0.5349 -0.2573  1.0748
  675MOL0     O89015   0.437   2.082   6.619  0.3936  0.6926  0.1913
  675MOL0     C89016   0.598   2.206   6.431 -0.2147  0.6305  0.7603
  675MOL0     C89017   0.682   2.274   6.342 -0.4333  0.3855 -1.1688
  675MOL0     N89018   1.197   2.275   5.918  0.6035  0.0338  0.5734
  675MOL0     N89019   1.288   2.360   5.884 -0.1013 -0.7516 -1.0444
  675MOL0     C89020   2.296   3.095   5.433  0.9906  0.5991  0.2800
  675MOL0     C89021   2.428   3.070   5.416 -0.2421 -0.2650 -0.2614
  675MOL0     C89022   2.798   2.862   5.300 -0.4692  0.2172  0.1136
  675MOL0     C89023   2.898   2.880   5.403  0.7673 -0.0714 -0.4286
  675MOL0     C89024   3.034   2.845   5.390  0.6417 -0.1747  0.4878
  675MOL0     C89025   3.079   2.803   5.266  0.7376  0.0553  0.4395
  675MOL0     O89026   3.216   2.773   5.259 -0.2267 -0.0335  0.1579
  675MOL0     C89027   3.282   2.805   5.136 -0.4472  0.6588  0.2303
  675MOL0     C89028   3.433   2.813   5.168  0.6577 -0.0981 -0.0167
  675MOL0     C89029   3.518   2.816   5.042 -0.3007  0.9144  0.2576
  675MOL0     C89030   3.493   2.945   4.963  0.8216  0.2211 -0.6923
  675MOL0     C89031   3.421   2.923   4.838 -0.1749  0.6574  0.2211
  675MOL0     C89032   3.355   2.913   4.736  0.2343 -0.0327  0.1212
  675MOL0     C89033   2.983   2.790   5.164 -0.3256 -0.0555  0.4563
  675MOL0     C89034   2.848   2.815   5.181 -0.1378  0.0466  0.6526
  675MOL0     H89035   2.472   2.799   5.600 -1.1625 -0.6925  0.8214
  675MOL0     H89036   2.254   2.835   5.664 -0.9495  1.4979  0.4044
  675MOL0     H89037   2.012   2.942   5.715 -0.4258  0.8507 -0.0519
  675MOL0     H89038   2.014   2.850   5.566  0.0828 -0.4682 -0.6723
  675MOL0     H89039   1.823   3.004   5.488 -1.4467  0.9867  0.5057
  675MOL0     H89040   1.825   3.075   5.652 -1.9111  1.8009 -1.7968
  675MOL0     H89041   1.780   2.847   5.729 -0.3281 -1.3751  0.1743
  675MOL0     H89042   1.774   2.785   5.556  2.5990 -0.4037  0.2999
  675MOL0     H89043   1.598   2.966   5.693  2.2198 -1.0629 -0.5170
  675MOL0     H89044   1.578   2.933   5.518  0.7692 -3.5162 -1.8356
  675MOL0     H89045   1.557   2.687   5.585  0.5045 -1.6726  2.5678
  675MOL0     H89046   1.414   2.800   5.596  0.0843  5.7704  1.5915
  675MOL0     H89047   1.428   2.807   5.843  0.7393 -1.1369  3.4092
  675MOL0     H89048   1.596   2.756   5.841  0.7079  2.5342 -0.8151
  675MOL0     H89049   1.496   2.524   5.775  1.0274  0.5019  2.7483
  675MOL0     H89050   1.441   2.591   5.926 -0.7114  1.3122  0.3476
  675MOL0     H89051   1.287   2.589   5.658  0.5185  1.7151  0.9261
  675MOL0     H89052   1.226   2.666   5.804 -0.8316  1.2574 -2.2729
  675MOL0     H89053   1.028   2.474   5.733  1.5821  0.9017 -1.2041
  675MOL0     H89054   0.952   2.146   5.899 -0.9807  0.0347  0.2993
  675MOL0     H89055   0.894   2.231   5.761 -4.3966 -1.7698  2.2964
  675MOL0     H89056   0.756   2.306   5.946  0.8813 -0.5432 -0.4025
  675MOL0     H89057   0.856   2.444   5.898  4.1331  1.1701  0.1725
  675MOL0     H89058   0.895   2.247   6.123 -0.3399  0.7554  0.7914
  675MOL0     H89059   1.020   2.377   6.087  0.6978 -4.0110  0.1763
  675MOL0     H89060   0.874   2.549   6.165 -2.6562  0.5588 -2.1971
  675MOL0     H89061   0.874   2.427   6.285  0.2463  1.8377  0.6921
  675MOL0     H89062   0.449   2.457   6.186 -1.9685  1.9367  2.0331
  675MOL0     H89063   0.302   2.331   6.320 -0.1542  0.6311  1.0394
  675MOL0     H89064   0.189   1.890   6.606  1.0758  0.5874 -0.1909
  675MOL0     H89065   0.016   1.845   6.759 -1.1988 -1.2003 -0.7566
  675MOL0     H89066  -0.176   1.799   6.856 -0.3426 -0.4882  0.2108
  675MOL0     H89067  -0.273   1.849   6.732  1.8431  2.0520 -1.6155
  675MOL0     H89068  -0.309   1.868   7.041  2.6702 -2.2644 -1.5498
  675MOL0     H89069  -0.435   1.800   6.926 -0.3513  0.3669 -1.9103
  675MOL0     H89070  -0.483   2.047   6.860 -0.7168  1.4404  0.1489
  675MOL0     H89071  -0.371   2.090   6.981 -0.0292 -0.4333 -0.0905
  675MOL0     H89072  -0.524   1.990   7.150  0.0032  2.1455 -0.3918
  675MOL0     H89073  -0.621   2.094   7.049  1.1998  1.3716 -0.1479
  675MOL0     H89074  -0.723   1.864   7.113 -1.0027  1.2544 -0.7787
  675MOL0     H89075  -0.598   1.782   7.021 -0.3434 -0.1607  1.8764
  675MOL0     H89076  -0.824   1.791   6.907 -3.0889  1.6261 -1.4655
  675MOL0     H89077  -0.708   1.876   6.817  1.0456 -1.0887  0.8648
  675MOL0     H89078  -0.907   2.003   7.007  1.0585  0.3592  0.3465
  675MOL0     H89079  -0.803   2.098   6.902 -1.1652  0.6410  1.9667
  675MOL0     H89080  -0.905   1.989   6.703 -0.4154  0.5961 -0.5455
  675MOL0     H89081  -1.009   2.091   6.804  0.8022  0.5295  0.8394
  675MOL0     H89082  -0.123   2.259   6.728 -1.5143 -0.4840 -1.9683
  675MOL0     H89083   0.060   2.298   6.575  0.0324 -1.7768 -2.2337
  675MOL0     H89084   0.640   2.133   6.499  3.4397  1.0236 -0.8454
  675MOL0     H89085   0.785   2.244   6.354  0.2405  1.5584 -3.3773
  675MOL0     H89086   2.247   3.182   5.389  2.2146  1.1908  0.0382
  675MOL0     H89087   2.481   3.145   5.358  1.0752  2.7631  4.2838
  675MOL0     H89088   2.868   2.936   5.491  0.9608  1.7425 -1.4806
  675MOL0     H89089   3.101   2.860   5.475  0.1943 -0.1572  0.8414
  675MOL0     H89090   3.246   2.902   5.101 -2.2314 -0.4305 -1.0806
  675MOL0     H89091   3.258   2.729   5.062  2.3543 -0.6485  0.5391
  675MOL0     H89092   3.455   2.902   5.228 -1.7323 -0.4407  1.5435
  675MOL0     H89093   3.465   2.725   5.225 -0.0738  0.6268  1.5947
  675MOL0     H89094   3.501   2.731   4.976 -2.4826  2.0338 -0.7318
  675MOL0     H89095   3.624   2.815   5.068 -0.4995 -0.9115  1.1616
  675MOL0     H89096   3.434   3.020   5.015 -0.7665 -0.5038 -1.3900
  675MOL0     H89097   3.587   2.998   4.943  0.0450  1.7611 -0.3427
  675MOL0     H89098   3.293   2.900   4.649  0.5445 -1.1616  0.0536
  675MOL0     H89099   3.008   2.749   5.066 -0.1049 -0.2082  0.5744
  675MOL0     H89100   2.785   2.811   5.092  2.5374 -0.8618 -1.3497
  676MOL0     O89101   8.680   3.410  10.019 -0.0668 -0.3008 -0.7123
  676MOL0     C89102   8.674   3.393   9.901 -0.4145  0.0683 -0.2238
  676MOL0     O89103   8.569   3.340   9.843  0.1635 -0.4941 -0.9174
  676MOL0     C89104   8.436   3.357   9.887 -0.0631  1.0262  0.4346
  676MOL0     C89105   8.337   3.254   9.859  0.6863  0.1772  0.1660
  676MOL0     C89106   8.210   3.250   9.915 -0.5785  0.7541  0.1283
  676MOL0     C89107   8.168   3.357   9.998 -0.2261 -0.0122  0.5599
  676MOL0     O89108   8.041   3.369  10.052 -0.0421  0.1631 -0.9501
  676MOL0     C89109   7.934   3.283  10.003 -0.2989  0.5620  0.0100
  676MOL0     C89110   7.802   3.301  10.083 -1.1397  0.5468  0.3564
  676MOL0     C89111   7.694   3.214  10.023 -0.3034  0.0719  0.0711
  676MOL0     C89112   7.554   3.253  10.078 -0.2577 -0.2078  0.3085
  676MOL0     C89113   7.449   3.153  10.027 -0.8298  0.3052 -0.4714
  676MOL0     C89114   7.304   3.209  10.031 -1.0778 -0.6385  0.6793
  676MOL0     C89115   7.263   3.267  10.164 -0.5705  0.0958 -0.1011
  676MOL0     C89116   7.115   3.300  10.182  0.0719  0.4179  0.2399
  676MOL0     N89117   7.051   3.199  10.263 -0.2212  0.2438 -0.0878
  676MOL0     C89118   6.980   3.222  10.381 -0.8365 -0.2625 -0.0281
  676MOL0     C89119   6.917   3.106  10.413 -0.9935  0.0844  0.2918
  676MOL0     C89120   6.837   3.063  10.533  0.1351 -0.0061  0.5450
  676MOL0     C89121   6.690   3.078  10.497  0.1240  0.6393  0.0792
  676MOL0     C89122   6.596   3.077  10.617 -0.1117 -0.1567 -0.6822
  676MOL0     C89123   6.489   3.186  10.585  0.4195  0.1954  0.4712
  676MOL0     O89124   6.405   3.137  10.481 -0.3673 -0.0410 -0.5586
  676MOL0     C89125   6.304   3.223  10.435 -0.8636  0.2654 -1.0052
  676MOL0     C89126   6.296   3.358  10.448  0.6698  0.2860 -0.1980
  676MOL0     C89127   6.182   3.435  10.414 -0.1101  0.0072  0.1669
  676MOL0     C89128   6.071   3.363  10.363 -0.8287  0.0572 -0.2014
  676MOL0     C89129   5.941   3.430  10.336 -0.6751 -0.0059  0.6271
  676MOL0     O89130   5.826   3.347  10.329  0.0592 -0.1953  0.2901
  676MOL0     C89131   5.702   3.404  10.306 -1.7118  0.0528 -0.8251
  676MOL0     C89132   5.615   3.324  10.234 -0.1324  0.8568  0.1012
  676MOL0     C89133   5.481   3.375  10.210  0.5169  0.4526  0.2536
  676MOL0     C89134   5.433   3.491  10.264  0.3821 -1.0902 -0.6809
  676MOL0     O89135   5.315   3.547  10.236  0.0198 -0.5428 -0.3173
  676MOL0     C89136   5.258   3.505  10.112 -0.0768 -0.2457 -1.1581
  676MOL0     C89137   5.123   3.568  10.075  0.4752 -0.3781 -0.2514
  676MOL0     C89138   5.141   3.714  10.015  0.6339 -0.7295  0.0492
  676MOL0     C89139   5.002   3.797   9.994 -0.3353  1.4774  0.3896
  676MOL0     C89140   5.027   3.946   9.961 -0.2803  0.0958 -0.4669
  676MOL0     C89141   4.892   4.025   9.948  0.1890  0.4490 -0.1114
  676MOL0     C89142   4.825   4.054  10.081  0.3009  0.1083  0.2618
  676MOL0     C89143   4.882   4.184  10.139  0.2899 -0.1459 -0.9807
  676MOL0    Cl89144   4.826   4.320  10.056  0.1050  0.2561  0.3821
  676MOL0     C89145   5.526   3.567  10.339 -0.0665 -0.1373  0.2300
  676MOL0     C89146   5.651   3.520  10.362  0.5175 -0.0034  0.5860
  676MOL0     O89147   5.945   3.550  10.345 -0.4363  0.1324 -0.2301
  676MOL0     C89148   6.084   3.226  10.353  0.0658  0.7434 -0.2972
  676MOL0     C89149   6.203   3.158  10.377  0.6549  0.5547  0.1386
  676MOL0     N89150   6.943   3.016  10.309 -0.0623  0.6052  0.1555
  676MOL0     N89151   7.017   3.075  10.220  0.1865  0.5505  0.3088
  676MOL0     C89152   8.260   3.449  10.030  0.3574  0.0321 -0.7849
  676MOL0     C89153   8.388   3.467   9.965 -0.4882 -0.2619  0.4730
  676MOL0     C89154   8.806   3.396   9.828 -0.8820 -0.1439  0.5492
  676MOL0     C89155   8.927   3.418   9.898 -0.4974 -0.4690 -0.6762
  676MOL0     C89156   9.050   3.388   9.832  0.7645  0.6564  0.0248
  676MOL0     C89157   9.049   3.367   9.688 -1.6388  1.4080 -0.3848
  676MOL0     O89158   9.165   3.367   9.613 -0.2260  0.1391  0.1792
  676MOL0     C89159   9.280   3.443   9.656  0.8877  1.0665 -1.4013
  676MOL0     C89160   9.394   3.434   9.546  0.2227 -0.0607  0.3344
  676MOL0     C89161   9.504   3.535   9.585 -0.0657 -0.1552  0.0137
  676MOL0     C89162   9.614   3.553   9.479  0.6236 -0.2092 -0.3753
  676MOL0     C89163   9.646   3.428   9.412 -0.5356 -0.5064  0.2624
  676MOL0     C89164   9.677   3.333   9.352  0.5851  0.1177  0.4554
  676MOL0     C89165   8.938   3.345   9.623  0.7048  0.1633 -0.6246
  676MOL0     C89166   8.816   3.352   9.691 -0.1144  0.6873 -0.6712
  676MOL0     H89167   8.365   3.178   9.787 -0.6147  0.8413 -1.0731
  676MOL0     H89168   8.142   3.170   9.884  3.2852 -2.2851 -1.3275
  676MOL0     H89169   7.973   3.181  10.008  1.6549  1.1644 -1.4360
  676MOL0     H89170   7.928   3.301   9.895  1.2956  0.6285 -0.0943
  676MOL0     H89171   7.773   3.405  10.071 -1.8364  0.3028 -0.0808
  676MOL0     H89172   7.804   3.271  10.189 -0.2157  1.5718  0.6397
  676MOL0     H89173   7.711   3.107  10.036  3.1726  0.4940  0.0895
  676MOL0     H89174   7.684   3.225   9.914 -0.9260 -2.0226 -0.1274
  676MOL0     H89175   7.551   3.245  10.187  0.4162 -1.9037  0.2355
  676MOL0     H89176   7.528   3.356  10.052  0.3865  0.5116  2.3457
  676MOL0     H89177   7.447   3.060  10.085  0.4632 -0.6180 -1.8283
  676MOL0     H89178   7.473   3.123   9.925  1.3768 -2.7267  0.7777
  676MOL0     H89179   7.233   3.131  10.005 -2.7981  0.0129  3.0969
  676MOL0     H89180   7.291   3.286   9.955 -1.4120  1.0476  2.3685
  676MOL0     H89181   7.302   3.205  10.245 -2.5061 -2.1905 -0.7886
  676MOL0     H89182   7.313   3.363  10.179  4.8592 -2.2912 -0.6294
  676MOL0     H89183   7.072   3.310  10.082  0.7966  0.0087 -0.1238
  676MOL0     H89184   7.097   3.399  10.225 -1.2269 -1.0783  3.5160
  676MOL0     H89185   6.972   3.310  10.444 -2.4569 -0.9215  0.7456
  676MOL0     H89186   6.871   3.121  10.619  1.6239 -0.4073  0.2602
  676MOL0     H89187   6.861   2.959  10.558  1.4214 -0.0429 -0.6915
  676MOL0     H89188   6.653   3.002  10.427  1.7441 -2.1652  2.0558
  676MOL0     H89189   6.686   3.178  10.454  2.9059  1.6183  1.8250
  676MOL0     H89190   6.552   2.985  10.655  4.9367 -3.3553 -1.5788
  676MOL0     H89191   6.653   3.111  10.704  0.2099  0.4213 -1.1037
  676MOL0     H89192   6.540   3.277  10.553  1.9678 -1.0939 -0.9203
  676MOL0     H89193   6.429   3.205  10.675 -1.4339 -1.9401 -0.2107
  676MOL0     H89194   6.388   3.413  10.468  4.4079 -4.4859 -2.1916
  676MOL0     H89195   6.196   3.543  10.415 -0.2200  0.1361 -2.5232
  676MOL0     H89196   5.654   3.229  10.198 -2.0849 -1.1212  2.7931
  676MOL0     H89197   5.417   3.321  10.141  1.8588 -1.0047  0.1045
  676MOL0     H89198   5.241   3.399  10.092  0.0846 -0.1713 -1.7155
  676MOL0     H89199   5.317   3.553  10.033 -1.9433  1.4413 -1.6221
  676MOL0     H89200   5.047   3.583  10.153 -1.8368 -1.1064 -2.2249
  676MOL0     H89201   5.067   3.503  10.006 -4.3649  1.5149  1.4908
  676MOL0     H89202   5.193   3.703   9.919 -1.2777 -0.3045 -1.0814
  676MOL0     H89203   5.205   3.773  10.082 -1.1006  3.4553 -1.6064
  676MOL0     H89204   4.951   3.747   9.911 -0.7145 -0.8642  1.9074
  676MOL0     H89205   4.931   3.780  10.076 -0.8996 -0.9573 -0.5069
  676MOL0     H89206   5.093   3.958   9.874 -1.8387  0.7013 -1.6133
  676MOL0     H89207   5.070   3.998  10.047 -2.2798  2.6480 -0.8786
  676MOL0     H89208   4.833   3.968   9.876  1.9090  0.1293 -1.3350
  676MOL0     H89209   4.899   4.114   9.884 -1.5987 -0.5480 -1.8010
  676MOL0     H89210   4.717   4.062  10.067  0.3531 -0.2126 -0.4052
  676MOL0     H89211   4.844   3.982  10.161  3.8313  2.4056  1.7410
  676MOL0     H89212   4.991   4.194  10.148  0.8864 -1.3585 -5.0335
  676MOL0     H89213   4.842   4.193  10.241  0.5236 -1.4385 -0.7598
  676MOL0     H89214   5.500   3.658  10.390 -3.2774 -2.4807  3.2473
  676MOL0     H89215   5.721   3.575  10.424  1.1962 -0.5882  0.3666
  676MOL0     H89216   6.004   3.160  10.320  1.7091 -2.3481  1.4065
  676MOL0     H89217   6.223   3.053  10.357 -2.7982  0.2568 -2.8498
  676MOL0     H89218   8.227   3.532  10.092  1.1462  0.8040 -1.3774
  676MOL0     H89219   8.444   3.556   9.992 -0.6429 -0.3046  0.9359
  676MOL0     H89220   8.928   3.446  10.003  1.0154  0.2725 -0.8668
  676MOL0     H89221   9.138   3.400   9.893  1.2262 -1.3257 -0.1882
  676MOL0     H89222   9.316   3.426   9.757  0.9290 -0.3867 -1.6306
  676MOL0     H89223   9.243   3.545   9.665 -0.4502  0.6270 -1.6296
  676MOL0     H89224   9.425   3.329   9.541 -3.6346 -1.2918 -1.1492
  676MOL0     H89225   9.343   3.463   9.454 -0.6699 -0.4530  0.6992
  676MOL0     H89226   9.551   3.501   9.678 -0.8137  3.1016  1.7084
  676MOL0     H89227   9.464   3.630   9.620  1.8185 -0.2495  2.7090
  676MOL0     H89228   9.573   3.624   9.406 -0.4993  1.8225  2.0733
  676MOL0     H89229   9.703   3.599   9.524 -0.1905 -0.3099  1.4416
  676MOL0     H89230   9.700   3.250   9.289  1.2453 -0.5041  1.4859
  676MOL0     H89231   8.936   3.325   9.516 -2.7576  0.8694 -0.8177
  676MOL0     H89232   8.718   3.340   9.645 -0.2313 -0.5925 -0.1334
  677MOL0     O89233   6.683   5.414   1.817  0.1931  0.3160  0.4679
  677MOL0     C89234   6.599   5.323   1.830  0.4703  0.7126  0.1730
  677MOL0     O89235   6.486   5.338   1.896  0.1200  0.0205 -0.0743
  677MOL0     C89236   6.447   5.463   1.943  0.0114  0.3660 -0.9151
  677MOL0     C89237   6.517   5.534   2.044 -0.0365  0.3597 -0.0807
  677MOL0     C89238   6.456   5.654   2.099  0.7395  0.4165  0.1231
  677MOL0     C89239   6.338   5.711   2.049 -0.6813 -0.6494  0.4520
  677MOL0     O89240   6.279   5.827   2.100  0.1079  0.1574  0.0358
  677MOL0     C89241   6.295   5.847   2.237 -0.6966  0.6641 -0.2572
  677MOL0     C89242   6.186   5.949   2.262  0.0223  0.0277 -0.0336
  677MOL0     C89243   6.045   5.901   2.232  0.3065 -0.3632 -0.1130
  677MOL0     C89244   5.947   5.997   2.304  0.3425  0.8285  1.2023
  677MOL0     C89245   5.796   5.965   2.276 -1.0625 -0.0780  0.1616
  677MOL0     C89246   5.720   6.095   2.312  0.4603 -0.1473 -0.2118
  677MOL0     C89247   5.567   6.080   2.283 -0.2998  0.4355 -0.4854
  677MOL0     C89248   5.495   5.973   2.371  0.5677 -0.4043  0.2970
  677MOL0     N89249   5.350   5.999   2.361  0.1357 -0.2369 -0.3814
  677MOL0     C89250   5.278   6.099   2.422 -0.6729  0.1636 -0.3796
  677MOL0     C89251   5.146   6.080   2.388 -0.0112 -0.0605 -0.8222
  677MOL0     C89252   5.028   6.149   2.460  0.0109  0.9101  0.6729
  677MOL0     C89253   4.909   6.161   2.367  0.6882 -0.2044  0.4620
  677MOL0     C89254   4.787   6.219   2.442  0.0826  0.4768 -0.3283
  677MOL0     C89255   4.668   6.214   2.351  0.1028  1.0204  0.6744
  677MOL0     O89256   4.548   6.250   2.431 -0.4277 -0.3363  0.0835
  677MOL0     C89257   4.431   6.176   2.423 -0.2433  0.0766  1.6629
  677MOL0     C89258   4.365   6.161   2.543  0.4777 -0.6024 -0.0468
  677MOL0     C89259   4.247   6.094   2.546 -0.0678 -1.0899  0.1774
  677MOL0     C89260   4.186   6.035   2.430  0.3234  0.4582  0.1550
  677MOL0     C89261   4.051   5.978   2.431 -0.0215 -0.8960 -0.8817
  677MOL0     O89262   3.980   5.969   2.551  0.3542  0.1060 -1.1660
  677MOL0     C89263   3.848   5.934   2.537  0.4898  0.4248 -1.0192
  677MOL0     C89264   3.757   6.036   2.490 -0.8192  0.3056 -0.4554
  677MOL0     C89265   3.618   6.004   2.480  0.0399 -0.1690 -0.5542
  677MOL0     C89266   3.572   5.879   2.520 -0.0763 -0.7356 -0.1404
  677MOL0     O89267   3.438   5.849   2.542 -0.3408 -0.6749  0.1811
  677MOL0     C89268   3.400   5.895   2.681 -0.1332 -0.0383 -0.6480
  677MOL0     C89269   3.251   5.876   2.702  0.1890 -0.1664 -0.4283
  677MOL0     C89270   3.193   5.740   2.655 -0.0418 -0.1829 -0.5417
  677MOL0     C89271   3.052   5.780   2.594 -0.7102 -0.0162  1.3821
  677MOL0     C89272   2.978   5.646   2.540 -0.6973  0.1868  1.2166
  677MOL0     C89273   2.841   5.674   2.483  0.3974  0.4017 -0.1634
  677MOL0     C89274   2.842   5.787   2.381 -0.6268  0.7599  0.2872
  677MOL0     C89275   2.711   5.789   2.302 -0.6943 -0.0668 -0.0826
  677MOL0    Cl89276   2.688   5.949   2.221 -0.4688  0.5319  0.8054
  677MOL0     C89277   3.661   5.778   2.562  0.6817  0.1650  0.3854
  677MOL0     C89278   3.799   5.807   2.560 -0.0481 -1.5044  0.1074
  677MOL0     O89279   4.005   5.952   2.321 -0.0571  0.6273  0.1438
  677MOL0     C89280   4.256   6.062   2.307 -0.2974 -0.3778  0.6075
  677MOL0     C89281   4.376   6.132   2.299 -0.5431  0.5067 -0.2502
  677MOL0     N89282   5.147   5.972   2.299  1.0172 -0.8462 -0.5098
  677MOL0     N89283   5.264   5.932   2.281  0.4681  0.0827 -0.5775
  677MOL0     C89284   6.274   5.634   1.938  0.4394  0.1396  0.4300
  677MOL0     C89285   6.325   5.507   1.897  0.9610 -0.8170 -0.4149
  677MOL0     C89286   6.632   5.192   1.758  1.0310 -0.2277 -0.3280
  677MOL0     C89287   6.542   5.082   1.735 -0.0890 -0.0849  0.2899
  677MOL0     C89288   6.578   4.967   1.660  1.2125 -0.1093  0.7856
  677MOL0     C89289   6.713   4.947   1.620  0.7468 -0.5274  0.4679
  677MOL0     O89290   6.741   4.832   1.549  0.2497 -0.2657 -1.0956
  677MOL0     C89291   6.854   4.850   1.458 -0.1149  0.2922  0.5542
  677MOL0     C89292   6.974   4.778   1.512 -1.0430 -1.2999  0.8229
  677MOL0     C89293   6.961   4.629   1.491 -0.0282  0.0251  0.1824
  677MOL0     C89294   7.093   4.552   1.488 -0.8983  0.0279  0.0164
  677MOL0     C89295   7.201   4.605   1.409 -0.5643  1.0312 -0.1185
  677MOL0     C89296   7.284   4.659   1.337  0.7718  0.5259 -0.1266
  677MOL0     C89297   6.806   5.047   1.661  0.6123 -0.1837  0.1325
  677MOL0     C89298   6.764   5.174   1.707  0.2836 -0.0474  0.2088
  677MOL0     H89299   6.619   5.506   2.067 -0.3503 -0.6275  0.1983
  677MOL0     H89300   6.508   5.710   2.176 -0.3691  0.5756  0.7901
  677MOL0     H89301   6.397   5.878   2.261 -0.0856 -0.3893 -1.3837
  677MOL0     H89302   6.280   5.753   2.291 -0.2887  0.8879  0.2650
  677MOL0     H89303   6.206   6.039   2.203  0.4665 -1.5363 -2.3776
  677MOL0     H89304   6.187   5.979   2.368  0.4083  0.5366 -0.1795
  677MOL0     H89305   6.016   5.804   2.272 -0.5962  0.3457  1.0300
  677MOL0     H89306   6.031   5.900   2.124  0.5990 -1.9334 -0.1511
  677MOL0     H89307   5.963   5.988   2.412 -0.2000 -1.2688  1.1493
  677MOL0     H89308   5.956   6.103   2.280 -0.6443  0.5563 -0.6090
  677MOL0     H89309   5.773   5.876   2.336  3.1677 -1.9292 -0.5965
  677MOL0     H89310   5.783   5.946   2.169 -2.3438  1.6679 -0.0211
  677MOL0     H89311   5.757   6.185   2.263  0.2718  0.4699  0.7584
  677MOL0     H89312   5.733   6.113   2.419 -2.0893 -0.2281  0.1571
  677MOL0     H89313   5.515   6.174   2.306 -0.2308  0.1788  0.8376
  677MOL0     H89314   5.550   6.050   2.180  1.1814 -1.2592 -0.2687
  677MOL0     H89315   5.513   5.980   2.479 -1.7108 -1.2732  0.7801
  677MOL0     H89316   5.516   5.872   2.332 -2.2943 -1.3844  1.0739
  677MOL0     H89317   5.324   6.179   2.480 -0.1982 -1.3119  1.3716
  677MOL0     H89318   5.052   6.245   2.506  1.5765  1.8674 -1.9338
  677MOL0     H89319   5.007   6.087   2.547  3.2129 -0.5037  0.5822
  677MOL0     H89320   4.872   6.065   2.330 -1.8340  1.4656 -1.6496
  677MOL0     H89321   4.936   6.225   2.283  0.5036 -0.3665  0.2782
  677MOL0     H89322   4.760   6.162   2.531  0.2517  2.0269  0.7474
  677MOL0     H89323   4.804   6.323   2.469 -0.3692  0.6101 -0.5391
  677MOL0     H89324   4.661   6.118   2.300  1.1431  0.9064  0.7224
  677MOL0     H89325   4.682   6.286   2.269 -2.1983  2.0181  1.0677
  677MOL0     H89326   4.398   6.200   2.639 -0.2627 -2.0463  0.8129
  677MOL0     H89327   4.189   6.097   2.637  2.1937  1.1318  1.6913
  677MOL0     H89328   3.798   6.129   2.453  3.4401 -0.9961  0.3974
  677MOL0     H89329   3.545   6.077   2.447 -0.8338  0.8179  3.0898
  677MOL0     H89330   3.422   6.000   2.698 -1.8437  0.2380  0.0648
  677MOL0     H89331   3.446   5.823   2.749  1.7910  1.9664  0.2647
  677MOL0     H89332   3.200   5.956   2.647 -1.6090 -2.2544 -1.9766
  677MOL0     H89333   3.231   5.884   2.809 -0.7042 -5.0494  0.0073
  677MOL0     H89334   3.181   5.666   2.734  1.3049 -0.1758 -0.3102
  677MOL0     H89335   3.261   5.693   2.583  0.2237 -0.8301  0.1208
  677MOL0     H89336   3.002   5.844   2.668 -2.4564  1.5993 -1.0328
  677MOL0     H89337   3.075   5.846   2.509  2.8658 -1.9912  0.5810
  677MOL0     H89338   2.976   5.570   2.619  1.2107 -0.2803  0.8663
  677MOL0     H89339   3.050   5.596   2.475 -1.7909  1.6142 -1.2095
  677MOL0     H89340   2.768   5.700   2.561 -0.3430  1.7846 -1.2903
  677MOL0     H89341   2.794   5.583   2.444 -0.7556  0.5817  0.7608
  677MOL0     H89342   2.867   5.884   2.426  0.4937  0.3217  0.6344
  677MOL0     H89343   2.927   5.775   2.314 -1.0860  0.2662 -0.2182
  677MOL0     H89344   2.634   5.781   2.378 -3.4627  4.9645 -1.8947
  677MOL0     H89345   2.702   5.715   2.222 -0.8866  2.3212 -2.4071
  677MOL0     H89346   3.625   5.688   2.611  2.2629 -1.1591 -0.7544
  677MOL0     H89347   3.874   5.731   2.584  0.3140 -0.8587  1.0834
  677MOL0     H89348   4.208   6.033   2.214  1.1860  2.6647 -1.2788
  677MOL0     H89349   4.426   6.144   2.204  1.0357  0.9387  0.6102
  677MOL0     H89350   6.174   5.671   1.918  0.0785 -0.6910  0.6738
  677MOL0     H89351   6.269   5.460   1.818 -1.3124  3.0652 -1.3501
  677MOL0     H89352   6.441   5.083   1.776 -0.7026  1.3524 -1.1355
  677MOL0     H89353   6.503   4.891   1.641 -1.2405  2.2855  0.1155
  677MOL0     H89354   6.874   4.956   1.445  1.1549  0.5879  3.7776
  677MOL0     H89355   6.830   4.828   1.354 -2.8819  2.1066  0.7191
  677MOL0     H89356   7.059   4.817   1.455 -1.1934 -1.7762  0.2477
  677MOL0     H89357   6.988   4.795   1.619 -1.2454  0.4914  0.5810
  677MOL0     H89358   6.908   4.613   1.397 -0.2765 -0.0899  0.3396
  677MOL0     H89359   6.897   4.592   1.572  0.5700 -1.4200  0.0199
  677MOL0     H89360   7.122   4.544   1.594 -2.3083  0.6312  0.4723
  677MOL0     H89361   7.071   4.451   1.453 -3.4023  1.0289 -1.5979
  677MOL0     H89362   7.338   4.711   1.261  0.8027 -0.3520 -0.7184
  677MOL0     H89363   6.912   5.029   1.649  1.0179  1.1126  1.4940
  677MOL0     H89364   6.840   5.251   1.713  0.5613 -0.1855 -1.2417
  678MOL0     O89365   1.816  11.060   4.558 -0.6385  0.2792  0.1967
  678MOL0     C89366   1.874  11.033   4.453 -0.2904  0.0254  0.3564
  678MOL0     O89367   1.819  11.031   4.332 -0.4019 -0.3089 -0.0517
  678MOL0     C89368   1.694  11.080   4.322  0.6780  0.9042  0.0745
  678MOL0     C89369   1.595  10.983   4.308  0.3347 -0.0618 -0.6911
  678MOL0     C89370   1.467  11.010   4.258  0.3331  0.6441 -0.6550
  678MOL0     C89371   1.428  11.147   4.238 -0.3679  0.9205  0.6568
  678MOL0     O89372   1.302  11.169   4.180 -0.1918 -0.0328 -0.2080
  678MOL0     C89373   1.254  11.300   4.207 -0.3481 -0.6063 -0.8004
  678MOL0     C89374   1.108  11.298   4.211  0.6532 -0.1523 -0.3316
  678MOL0     C89375   1.040  11.275   4.068 -1.0490 -0.4947 -0.8733
  678MOL0     C89376   0.889  11.246   4.096  0.1897 -0.2094  0.3199
  678MOL0     C89377   0.798  11.202   3.976  0.7516 -0.7618  0.8688
  678MOL0     C89378   0.650  11.182   4.012 -0.9708 -0.6248  0.0028
  678MOL0     C89379   0.589  11.084   3.900 -0.2321 -0.4772 -0.9491
  678MOL0     C89380   0.437  11.070   3.901 -0.5478  0.3543 -0.8332
  678MOL0     N89381   0.395  10.944   3.829 -0.1766  0.2717 -0.1589
  678MOL0     C89382   0.353  10.935   3.699 -0.3989  0.6378 -0.5076
  678MOL0     C89383   0.384  10.806   3.663  0.0707  0.0501 -0.2530
  678MOL0     C89384   0.367  10.734   3.527  0.0431 -0.1343 -0.6864
  678MOL0     C89385   0.237  10.665   3.518  1.2227  0.5851  0.9401
  678MOL0     C89386   0.132  10.759   3.464 -0.7645 -0.1009  0.5891
  678MOL0     C89387  -0.001  10.688   3.427  0.6694  0.1334 -0.0547
  678MOL0     O89388  -0.102  10.789   3.389  0.4222  0.4136  0.2416
  678MOL0     C89389  -0.232  10.741   3.392 -0.4246 -1.0705  0.6538
  678MOL0     C89390  -0.327  10.835   3.432  0.0956 -0.3969  0.1388
  678MOL0     C89391  -0.465  10.801   3.437  0.4529 -0.7100  0.0404
  678MOL0     C89392  -0.506  10.667   3.412  0.0979 -0.0415  0.7563
  678MOL0     C89393  -0.655  10.637   3.426 -0.1764 -0.0740 -0.8188
  678MOL0     O89394  -0.742  10.745   3.424  0.6258  0.4421  0.4971
  678MOL0     C89395  -0.880  10.743   3.439 -0.1317 -1.1289 -0.4205
  678MOL0     C89396  -0.947  10.865   3.430  1.0105  0.0987  0.2081
  678MOL0     C89397  -1.085  10.886   3.444 -0.9191 -0.1374  0.3498
  678MOL0     C89398  -1.161  10.780   3.458  0.3888 -0.6846  0.8953
  678MOL0     O89399  -1.300  10.807   3.461 -1.3567 -0.5576  0.0779
  678MOL0     C89400  -1.383  10.713   3.397  0.5875 -0.3276  0.1195
  678MOL0     C89401  -1.527  10.741   3.400  0.0594 -0.3407 -0.2896
  678MOL0     C89402  -1.585  10.794   3.265  0.6296 -0.3851  0.1511
  678MOL0     C89403  -1.737  10.823   3.304  0.6837  0.0539  0.5795
  678MOL0     C89404  -1.802  10.899   3.193 -0.3992  0.0309  0.6776
  678MOL0     C89405  -1.950  10.908   3.184  0.5856 -0.1741 -0.4365
  678MOL0     C89406  -2.012  11.005   3.279 -0.1964  0.1707  0.5378
  678MOL0     C89407  -2.152  11.016   3.227 -0.2506  0.3565 -0.3643
  678MOL0    Cl89408  -2.168  11.106   3.064 -0.2911 -0.0072  0.4162
  678MOL0     C89409  -1.100  10.655   3.457  0.3316 -0.3288 -0.5952
  678MOL0     C89410  -0.960  10.634   3.437  0.3560  0.6595 -0.5193
  678MOL0     O89411  -0.686  10.520   3.433 -0.0791  0.3565  0.0696
  678MOL0     C89412  -0.408  10.562   3.382  0.0586 -0.5187 -0.1783
  678MOL0     C89413  -0.278  10.610   3.363 -0.4830 -0.4344 -0.1869
  678MOL0     N89414   0.431  10.735   3.775 -0.0392 -0.1711  0.1102
  678MOL0     N89415   0.440  10.824   3.869  0.2410  0.2584 -0.4536
  678MOL0     C89416   1.527  11.242   4.265  0.0264  0.0854  0.3249
  678MOL0     C89417   1.659  11.215   4.305 -0.9478 -0.8618 -0.4383
  678MOL0     C89418   2.021  10.996   4.462  0.0969 -0.3477  0.0125
  678MOL0     C89419   2.093  10.952   4.349 -0.1646 -0.6170 -0.3100
  678MOL0     C89420   2.237  10.940   4.353 -0.5245 -0.6591  0.3553
  678MOL0     C89421   2.307  10.952   4.478 -0.7671  0.6181  0.1198
  678MOL0     O89422   2.440  10.921   4.487 -0.1009  0.9196  0.0826
  678MOL0     C89423   2.503  10.917   4.615 -0.0948 -0.7721  0.7199
  678MOL0     C89424   2.471  10.789   4.702  0.0494  0.5887  0.1040
  678MOL0     C89425   2.574  10.778   4.820  0.4072  1.1161  0.2427
  678MOL0     C89426   2.710  10.730   4.773 -0.0491 -0.5017  0.1247
  678MOL0     C89427   2.799  10.748   4.892  0.2248 -0.2602  0.5553
  678MOL0     C89428   2.874  10.764   4.984 -0.9799 -0.8486  0.1188
  678MOL0     C89429   2.230  10.981   4.591 -0.8443  0.4637  0.1353
  678MOL0     C89430   2.098  10.999   4.583 -0.5489  0.1142  0.4415
  678MOL0     H89431   1.604  10.876   4.328  1.0869  0.7036  4.1901
  678MOL0     H89432   1.400  10.929   4.234  0.3563 -0.3639  2.2874
  678MOL0     H89433   1.302  11.373   4.142  2.0840  1.2361  2.7294
  678MOL0     H89434   1.288  11.335   4.305  0.2782  0.3769 -1.3523
  678MOL0     H89435   1.079  11.396   4.250  4.2832  0.3620  1.5449
  678MOL0     H89436   1.071  11.222   4.280 -0.0431  0.5628  0.1083
  678MOL0     H89437   1.081  11.180   4.033  0.9347 -0.8406  2.0068
  678MOL0     H89438   1.060  11.358   4.000  0.5000 -0.6527 -0.6492
  678MOL0     H89439   0.880  11.167   4.171  1.0374  0.2657  0.9390
  678MOL0     H89440   0.847  11.344   4.119 -2.7295 -1.4605  0.7780
  678MOL0     H89441   0.841  11.112   3.930  0.6502  0.8103 -2.6950
  678MOL0     H89442   0.790  11.276   3.895 -1.2158 -0.7601  1.0222
  678MOL0     H89443   0.607  11.282   4.008  2.8209  1.1732 -4.0066
  678MOL0     H89444   0.650  11.135   4.111  0.0376 -0.6932 -0.0185
  678MOL0     H89445   0.637  11.116   3.807  3.0409  0.5876  0.9377
  678MOL0     H89446   0.635  10.991   3.933  1.2512  0.2087 -0.9555
  678MOL0     H89447   0.394  11.154   3.845 -3.7031  0.6383  1.7403
  678MOL0     H89448   0.403  11.072   4.005  0.5010  3.8689 -0.4512
  678MOL0     H89449   0.313  11.014   3.636 -2.5263  0.3570  0.4037
  678MOL0     H89450   0.453  10.672   3.501  0.7299  0.5883 -0.1816
  678MOL0     H89451   0.368  10.813   3.452  1.1413 -1.9092 -2.6253
  678MOL0     H89452   0.207  10.611   3.608  1.6746 -2.7493 -0.7439
  678MOL0     H89453   0.240  10.581   3.447  0.7956  0.3314  1.2150
  678MOL0     H89454   0.111  10.839   3.535  0.5836  1.1497 -0.3662
  678MOL0     H89455   0.185  10.810   3.383  0.7787 -1.1911  0.8687
  678MOL0     H89456  -0.036  10.635   3.516 -1.4064 -0.6936 -1.3038
  678MOL0     H89457   0.021  10.621   3.344  0.0640  0.8889 -0.8443
  678MOL0     H89458  -0.281  10.932   3.449  2.5691 -1.7210  1.5857
  678MOL0     H89459  -0.542  10.877   3.443  1.4525  0.2801  0.5308
  678MOL0     H89460  -0.897  10.960   3.412 -1.4014  1.4311  0.0313
  678MOL0     H89461  -1.135  10.982   3.443 -0.3711  0.1695  1.3885
  678MOL0     H89462  -1.362  10.615   3.440  0.0209  0.0569  1.3058
  678MOL0     H89463  -1.356  10.700   3.292 -1.4091  0.0326 -0.4826
  678MOL0     H89464  -1.553  10.811   3.481  0.4167  0.5279 -0.9041
  678MOL0     H89465  -1.572  10.644   3.421  0.1174 -0.3284 -0.1044
  678MOL0     H89466  -1.574  10.713   3.192  0.7682 -0.5330  0.3366
  678MOL0     H89467  -1.528  10.880   3.227 -1.6786  1.5320  0.8021
  678MOL0     H89468  -1.783  10.725   3.321  0.5118  0.2914  1.5150
  678MOL0     H89469  -1.747  10.879   3.397 -2.2175 -0.3611  0.6090
  678MOL0     H89470  -1.770  10.854   3.098 -0.2156  3.0307 -0.7774
  678MOL0     H89471  -1.766  11.000   3.173 -1.6113  0.4747  0.6365
  678MOL0     H89472  -1.986  10.805   3.190 -1.5299  0.3438 -2.6244
  678MOL0     H89473  -1.976  10.939   3.082 -0.0542  0.7220 -0.0099
  678MOL0     H89474  -2.013  10.951   3.374  3.2934 -1.5096 -0.1936
  678MOL0     H89475  -1.959  11.100   3.278  2.0308 -0.9672  2.3065
  678MOL0     H89476  -2.212  11.056   3.310 -2.7319 -1.3119 -1.2396
  678MOL0     H89477  -2.184  10.913   3.205 -1.6765  0.6180  0.3870
  678MOL0     H89478  -1.172  10.576   3.476 -0.0630  0.6530  2.5438
  678MOL0     H89479  -0.931  10.529   3.440 -1.0314  0.2453  2.7687
  678MOL0     H89480  -0.432  10.457   3.365  1.5982 -1.4967  2.9519
  678MOL0     H89481  -0.198  10.553   3.318  0.4804  1.0005 -0.3616
  678MOL0     H89482   1.505  11.347   4.247 -1.7267 -0.2103  0.4737
  678MOL0     H89483   1.736  11.290   4.317 -0.2276 -2.0187  4.9614
  678MOL0     H89484   2.044  10.932   4.254 -3.7558 -2.6926  1.7255
  678MOL0     H89485   2.302  10.913   4.270  0.0030 -0.5323  0.7277
  678MOL0     H89486   2.488  11.011   4.669  2.5478 -0.1624  0.5004
  678MOL0     H89487   2.609  10.913   4.590 -0.5841 -1.0265 -1.4860
  678MOL0     H89488   2.369  10.781   4.740 -0.0639 -1.1093 -0.4458
  678MOL0     H89489   2.478  10.704   4.634 -0.9644  0.2532  0.3974
  678MOL0     H89490   2.537  10.702   4.888 -2.9361 -1.4704 -3.9353
  678MOL0     H89491   2.580  10.878   4.865 -0.8278  0.7625  1.2401
  678MOL0     H89492   2.702  10.623   4.751 -2.9222 -0.1307 -1.0120
  678MOL0     H89493   2.759  10.778   4.688  4.2383 -1.6154  1.7225
  678MOL0     H89494   2.948  10.782   5.059 -0.1147  0.1386 -0.9219
  678MOL0     H89495   2.253  10.993   4.697 -2.1239  1.7035  0.3008
  678MOL0     H89496   2.038  11.021   4.671 -3.0228  0.7321 -1.2991
  679MOL0     O89497   1.034   6.210  10.183 -0.3284  0.0321 -0.3545
  679MOL0     C89498   1.036   6.173  10.298 -0.4943  0.2438  0.0034
  679MOL0     O89499   0.925   6.120  10.362  0.5364  0.1289  0.0216
  679MOL0     C89500   0.797   6.118  10.311  1.1211  0.5047  0.6967
  679MOL0     C89501   0.757   6.118  10.170  0.6381 -0.3609 -0.3026
  679MOL0     C89502   0.618   6.124  10.139  0.5932 -0.0922 -0.4108
  679MOL0     C89503   0.515   6.123  10.227 -0.8178 -0.1095  0.5978
  679MOL0     O89504   0.389   6.134  10.182  0.1227  0.0956 -0.1036
  679MOL0     C89505   0.293   6.076  10.273  0.8622 -0.6248 -0.3323
  679MOL0     C89506   0.173   6.023  10.198 -0.5353 -0.1444  0.2639
  679MOL0     C89507   0.143   6.101  10.068 -0.2829 -1.0109  0.3283
  679MOL0     C89508  -0.004   6.075  10.018  0.1487 -0.8917 -0.2210
  679MOL0     C89509  -0.107   6.136  10.112 -0.3584 -0.6807  0.7302
  679MOL0     C89510  -0.256   6.134  10.051  0.2627  0.2541 -0.3664
  679MOL0     C89511  -0.268   6.246   9.949  0.1836  0.1189  0.1058
  679MOL0     C89512  -0.411   6.282   9.898  0.3227  0.7158 -0.2993
  679MOL0     N89513  -0.519   6.303   9.993 -0.2925  0.0308 -0.3106
  679MOL0     C89514  -0.631   6.227   9.999  0.3781 -0.5593 -0.0180
  679MOL0     C89515  -0.685   6.244  10.122 -0.3734 -0.1301 -0.5614
  679MOL0     C89516  -0.802   6.174  10.185  0.6485  0.5033  0.6110
  679MOL0     C89517  -0.828   6.037  10.122  0.0372 -0.3817  0.2544
  679MOL0     C89518  -0.954   5.961  10.167 -0.1620  0.7802  0.0293
  679MOL0     C89519  -1.078   6.027  10.121  0.6496 -1.0646  0.1088
  679MOL0     O89520  -1.180   5.940  10.172  0.1386 -0.0149  0.6385
  679MOL0     C89521  -1.311   5.977  10.169 -0.2376 -0.0504  0.2765
  679MOL0     C89522  -1.409   5.877  10.132 -0.7779 -0.2725 -0.4530
  679MOL0     C89523  -1.544   5.919  10.140 -0.6427  0.0875 -0.4152
  679MOL0     C89524  -1.586   6.038  10.194  0.2725 -0.4535  1.0215
  679MOL0     C89525  -1.730   6.084  10.180  0.8320 -0.0712  0.4676
  679MOL0     O89526  -1.822   6.008  10.112  0.1960  0.2845 -0.6790
  679MOL0     C89527  -1.951   6.052  10.111  0.0668 -0.8350 -0.2106
  679MOL0     C89528  -2.050   5.985  10.184 -0.3655 -0.0995 -0.7578
  679MOL0     C89529  -2.190   6.019  10.186 -0.8214 -0.3017  0.4671
  679MOL0     C89530  -2.230   6.140  10.122  0.7093 -0.1413  0.5014
  679MOL0     O89531  -2.351   6.198  10.122 -0.7428 -0.9996  0.6171
  679MOL0     C89532  -2.434   6.151  10.221  0.3251  0.3409  0.5975
  679MOL0     C89533  -2.577   6.205  10.194 -0.3892 -0.4012 -0.1020
  679MOL0     C89534  -2.668   6.150  10.308 -0.1727 -0.6832  0.4479
  679MOL0     C89535  -2.814   6.176  10.286 -0.2775  1.1339 -0.0211
  679MOL0     C89536  -2.907   6.121  10.400  0.2956  0.4183 -0.5134
  679MOL0     C89537  -3.053   6.137  10.367 -0.3821  0.3755 -0.9903
  679MOL0     C89538  -3.100   6.278  10.331  0.3907  0.1489 -0.3334
  679MOL0     C89539  -3.247   6.309  10.362  0.5563  0.3862 -0.3559
  679MOL0    Cl89540  -3.355   6.209  10.266 -0.2268  0.3211  0.4298
  679MOL0     C89541  -2.137   6.194  10.039  0.4012 -0.8541  0.5245
  679MOL0     C89542  -1.999   6.163  10.043  0.5494  0.0624 -0.2912
  679MOL0     O89543  -1.753   6.181  10.253  0.2779 -0.1529 -0.1075
  679MOL0     C89544  -1.490   6.129  10.235  0.1098 -0.1272  0.3141
  679MOL0     C89545  -1.352   6.095  10.224  0.2407  0.7976 -0.4607
  679MOL0     N89546  -0.602   6.325  10.199  0.0088  0.5096  0.3962
  679MOL0     N89547  -0.509   6.366  10.119 -0.2384  0.0269  0.2417
  679MOL0     C89548   0.558   6.121  10.366 -1.0791 -0.4610  0.7167
  679MOL0     C89549   0.699   6.115  10.403  0.3489  0.8218  0.0685
  679MOL0     C89550   1.163   6.172  10.366 -0.2953 -0.0703  0.0885
  679MOL0     C89551   1.177   6.094  10.476 -0.2810 -0.1805 -0.5500
  679MOL0     C89552   1.301   6.096  10.545 -0.5022 -0.4563 -0.7467
  679MOL0     C89553   1.403   6.185  10.506 -0.7265 -0.3330  0.3473
  679MOL0     O89554   1.515   6.186  10.582  0.0524 -0.5255  0.2509
  679MOL0     C89555   1.628   6.258  10.548  0.9560  0.2860  0.3617
  679MOL0     C89556   1.703   6.292  10.667 -0.2704 -0.3172 -1.8899
  679MOL0     C89557   1.827   6.366  10.633  0.9630 -1.1200  0.3595
  679MOL0     C89558   1.917   6.377  10.750 -0.0948 -0.3155 -0.1473
  679MOL0     C89559   2.027   6.473  10.739 -0.3981 -0.8434 -0.5602
  679MOL0     C89560   2.118   6.557  10.732 -0.2050 -0.9900 -0.3903
  679MOL0     C89561   1.377   6.276  10.395 -0.6918 -0.4349 -0.1217
  679MOL0     C89562   1.267   6.264  10.322 -1.2230 -0.2159 -0.1249
  679MOL0     H89563   0.809   6.109  10.075 -1.9796 -0.9562 -1.7715
  679MOL0     H89564   0.579   6.139  10.039 -0.9325 -3.0812 -0.3506
  679MOL0     H89565   0.263   6.155  10.344  3.5019  0.8520 -0.7522
  679MOL0     H89566   0.338   6.001  10.339 -1.0403 -1.8298 -0.2984
  679MOL0     H89567   0.089   6.041  10.265  0.2850 -1.6023  1.7585
  679MOL0     H89568   0.186   5.916  10.179 -0.1809 -0.1689  0.6251
  679MOL0     H89569   0.222   6.081   9.996  1.4576 -1.1735  2.2004
  679MOL0     H89570   0.156   6.204  10.101  0.1893 -1.2193  0.7918
  679MOL0     H89571  -0.004   6.135   9.927 -2.3714  0.4830  0.5622
  679MOL0     H89572  -0.031   5.971  10.002 -0.2505 -0.7948 -0.1979
  679MOL0     H89573  -0.076   6.233  10.153  0.5311 -0.5532 -0.2092
  679MOL0     H89574  -0.104   6.069  10.199  0.6818  0.7689  1.8712
  679MOL0     H89575  -0.343   6.155  10.115 -1.8988 -0.8080 -2.7503
  679MOL0     H89576  -0.272   6.036  10.006  0.2670 -0.3627  0.9480
  679MOL0     H89577  -0.220   6.333   9.993  2.4000 -0.0779 -1.7258
  679MOL0     H89578  -0.210   6.211   9.863  3.2445 -1.3326  2.5463
  679MOL0     H89579  -0.439   6.204   9.827  1.1966  1.3512 -1.3852
  679MOL0     H89580  -0.410   6.370   9.832  0.5965 -0.2200 -1.5765
  679MOL0     H89581  -0.669   6.154   9.928  0.7640 -2.6490  1.8226
  679MOL0     H89582  -0.886   6.241  10.165  1.0538  0.4604 -1.3490
  679MOL0     H89583  -0.784   6.166  10.293 -0.2949  0.6116  0.7869
  679MOL0     H89584  -0.735   5.980  10.131  0.7839  0.3344 -2.1681
  679MOL0     H89585  -0.847   6.048  10.015  0.4306  1.2295  0.3127
  679MOL0     H89586  -0.945   5.856  10.136 -0.3118 -0.1842  2.9401
  679MOL0     H89587  -0.950   5.971  10.276  0.5761  2.6524 -0.1384
  679MOL0     H89588  -1.095   6.033  10.013 -0.9946 -1.1533  0.3334
  679MOL0     H89589  -1.088   6.127  10.164  3.2999 -0.7223  0.0877
  679MOL0     H89590  -1.374   5.782  10.093  0.8464 -0.3409  1.0408
  679MOL0     H89591  -1.620   5.856  10.095 -0.0068 -1.1065  0.1157
  679MOL0     H89592  -2.023   5.898  10.243 -3.5366 -0.9422 -0.3900
  679MOL0     H89593  -2.256   5.955  10.244 -1.2665 -0.0345  0.2594
  679MOL0     H89594  -2.399   6.191  10.317 -1.4323 -0.5129  1.6654
  679MOL0     H89595  -2.442   6.042  10.222 -1.0776  0.3572 -1.4868
  679MOL0     H89596  -2.625   6.164  10.105 -1.3921 -0.3486  0.3972
  679MOL0     H89597  -2.575   6.314  10.200 -1.8567 -0.4014  0.8869
  679MOL0     H89598  -2.641   6.192  10.406 -4.1238  0.6483  1.1618
  679MOL0     H89599  -2.665   6.043  10.329  1.6106 -0.6306  0.5697
  679MOL0     H89600  -2.831   6.284  10.282 -0.2801  1.2542  2.2331
  679MOL0     H89601  -2.841   6.130  10.191 -0.7965  3.7331 -1.2296
  679MOL0     H89602  -2.885   6.166  10.498  0.1242  0.8231 -0.6597
  679MOL0     H89603  -2.891   6.015  10.418 -0.9672  0.6314  2.4716
  679MOL0     H89604  -3.101   6.108  10.461  0.8110 -0.7211 -0.6916
  679MOL0     H89605  -3.078   6.066  10.289  0.2285 -0.4382 -0.4609
  679MOL0     H89606  -3.044   6.349  10.393  1.0152 -2.0249  1.7611
  679MOL0     H89607  -3.096   6.303  10.225 -4.7633  0.2139 -0.7674
  679MOL0     H89608  -3.268   6.414  10.338  1.4318  0.9655  1.2644
  679MOL0     H89609  -3.260   6.302  10.471  4.5239 -2.4432  0.1304
  679MOL0     H89610  -2.162   6.283   9.981  0.2114 -0.7488  0.7680
  679MOL0     H89611  -1.922   6.214   9.985  1.3753 -0.3259  0.4333
  679MOL0     H89612  -1.510   6.229  10.272  0.5506 -0.3332  1.1462
  679MOL0     H89613  -1.276   6.158  10.268  0.5180 -0.5744  1.1111
  679MOL0     H89614   0.495   6.125  10.455  0.8787 -1.3189  2.2072
  679MOL0     H89615   0.718   6.116  10.510 -1.1993 -0.0514  0.3909
  679MOL0     H89616   1.106   6.020  10.513  1.6382 -0.9082  1.9743
  679MOL0     H89617   1.321   6.027  10.627 -2.3024 -0.3599 -0.1824
  679MOL0     H89618   1.607   6.358  10.509  0.6833  0.9163  2.0505
  679MOL0     H89619   1.691   6.213  10.471  1.5417  3.4356 -1.1877
  679MOL0     H89620   1.642   6.349  10.737 -0.1189 -0.6321 -1.5009
  679MOL0     H89621   1.736   6.197  10.708 -2.4206 -1.4013 -2.5248
  679MOL0     H89622   1.790   6.466  10.608 -1.8173 -1.1543  3.5995
  679MOL0     H89623   1.868   6.318  10.543 -0.3296 -2.8072  0.6113
  679MOL0     H89624   1.864   6.422  10.834  1.5802 -0.0067  0.7718
  679MOL0     H89625   1.952   6.279  10.783  0.0790  0.4434  2.0836
  679MOL0     H89626   2.191   6.634  10.729 -1.6570  0.5783  1.6987
  679MOL0     H89627   1.455   6.337  10.352 -0.5515 -2.5654 -3.1947
  679MOL0     H89628   1.272   6.329  10.235 -1.5376 -2.8245 -2.2627
  680MOL0     O89629   4.776   7.571   0.021  0.6213  0.1328  0.6423
  680MOL0     C89630   4.882   7.600   0.073  0.3141 -0.1949 -0.5040
  680MOL0     O89631   4.891   7.641   0.205 -0.0187 -0.5542  0.0903
  680MOL0     C89632   4.780   7.680   0.278  0.1424 -0.1357 -1.1880
  680MOL0     C89633   4.777   7.664   0.420 -1.0207  0.4162  0.6950
  680MOL0     C89634   4.670   7.693   0.497  0.2257  0.2437 -0.5269
  680MOL0     C89635   4.542   7.730   0.437 -0.6504 -0.0941 -0.5914
  680MOL0     O89636   4.425   7.732   0.506  0.0803 -0.5109  0.0645
  680MOL0     C89637   4.424   7.784   0.644  0.3595  1.2641 -0.0282
  680MOL0     C89638   4.406   7.667   0.746  0.7585  0.1578 -0.0584
  680MOL0     C89639   4.272   7.593   0.714  0.1840  0.0793  0.5662
  680MOL0     C89640   4.223   7.526   0.843  0.9605 -0.0054  1.0252
  680MOL0     C89641   4.072   7.507   0.818  0.5905  0.6049  0.3215
  680MOL0     C89642   3.998   7.488   0.951  0.4684  0.7521  0.6184
  680MOL0     C89643   3.859   7.406   0.954 -0.4898  1.5902  0.3839
  680MOL0     C89644   3.754   7.455   0.856 -0.0590  0.0230  0.5619
  680MOL0     N89645   3.640   7.363   0.834  0.3013  0.5124 -0.0105
  680MOL0     C89646   3.653   7.229   0.787 -0.6630 -0.2935 -0.8367
  680MOL0     C89647   3.520   7.191   0.786 -0.6460 -0.5801  0.2726
  680MOL0     C89648   3.473   7.051   0.763 -0.8120 -0.4416 -0.0661
  680MOL0     C89649   3.447   6.989   0.903 -0.7152 -0.2975  0.4137
  680MOL0     C89650   3.415   6.841   0.882 -0.4160 -0.1351 -0.8140
  680MOL0     C89651   3.361   6.761   1.003 -0.2090 -0.3039  0.1836
  680MOL0     O89652   3.217   6.767   0.978  0.3870  0.1475  0.7588
  680MOL0     C89653   3.133   6.761   1.081 -0.1737  0.3362 -0.2493
  680MOL0     C89654   3.149   6.698   1.210  0.1752  0.0416  0.6204
  680MOL0     C89655   3.043   6.697   1.298  1.2006 -0.1713 -0.1335
  680MOL0     C89656   2.917   6.752   1.271  0.1102 -0.1585  0.6409
  680MOL0     C89657   2.810   6.760   1.380 -0.2157  0.0844 -0.2379
  680MOL0     O89658   2.835   6.725   1.509  0.5520 -0.2995 -1.3702
  680MOL0     C89659   2.743   6.702   1.608 -0.6584  0.2207 -0.1095
  680MOL0     C89660   2.606   6.732   1.600  0.8880 -0.7925  1.0041
  680MOL0     C89661   2.519   6.691   1.700 -0.1629 -0.2443  0.2809
  680MOL0     C89662   2.563   6.623   1.819  0.4977 -0.7719  0.0854
  680MOL0     O89663   2.456   6.572   1.892  0.5986  0.0740  0.0310
  680MOL0     C89664   2.487   6.469   1.983 -0.4953  1.2228 -0.0716
  680MOL0     C89665   2.369   6.370   2.018  0.4787 -0.3043 -0.9956
  680MOL0     C89666   2.414   6.267   2.119 -0.6816  0.4072 -1.0166
  680MOL0     C89667   2.316   6.144   2.132 -0.5065 -0.1107 -0.0505
  680MOL0     C89668   2.390   6.019   2.195  0.7842  0.1831  0.3917
  680MOL0     C89669   2.275   5.931   2.257 -0.4787 -0.2340  0.3067
  680MOL0     C89670   2.326   5.786   2.272  0.3671 -0.6128 -0.2563
  680MOL0     C89671   2.237   5.704   2.362  0.4299  0.0211  0.0270
  680MOL0    Cl89672   2.246   5.760   2.536 -0.1561  0.2258 -0.6080
  680MOL0     C89673   2.698   6.605   1.838 -0.3388  0.0314  0.9353
  680MOL0     C89674   2.790   6.646   1.735  1.1505 -0.5350  0.3312
  680MOL0     O89675   2.704   6.795   1.336  0.0312 -0.0904  1.1247
  680MOL0     C89676   2.899   6.810   1.145  0.0810  0.5013 -0.5166
  680MOL0     C89677   3.006   6.814   1.054 -0.0576 -0.4307 -0.0654
  680MOL0     N89678   3.443   7.296   0.826  0.8139 -0.3738 -0.5953
  680MOL0     N89679   3.510   7.399   0.854  0.5464  0.3153  0.0787
  680MOL0     C89680   4.544   7.742   0.300  0.1712 -0.6582  0.3437
  680MOL0     C89681   4.660   7.731   0.224 -0.3766 -0.6286 -0.1208
  680MOL0     C89682   5.004   7.574  -0.007 -0.2478  0.0279  0.2800
  680MOL0     C89683   5.000   7.550  -0.143  0.0986 -1.2898  0.2968
  680MOL0     C89684   5.109   7.525  -0.219 -0.2171  1.2610  0.0227
  680MOL0     C89685   5.230   7.506  -0.167  0.7688  0.4594  0.1994
  680MOL0     O89686   5.330   7.456  -0.245  0.1242  0.0463  0.7712
  680MOL0     C89687   5.447   7.402  -0.176 -0.6056 -0.3837 -0.3615
  680MOL0     C89688   5.507   7.314  -0.274 -0.0737  0.3217  0.6055
  680MOL0     C89689   5.653   7.287  -0.242  0.6403  0.2252 -0.4636
  680MOL0     C89690   5.707   7.169  -0.327 -0.7411 -0.0119  0.2452
  680MOL0     C89691   5.850   7.152  -0.297  0.2271  0.1651  0.9087
  680MOL0     C89692   5.971   7.152  -0.276  0.4464 -0.2720 -1.3705
  680MOL0     C89693   5.236   7.522  -0.024  1.1211  0.2204 -0.1228
  680MOL0     C89694   5.129   7.562   0.055 -0.1769  0.0682  0.2749
  680MOL0     H89695   4.869   7.613   0.450 -1.3256 -1.2225 -0.9478
  680MOL0     H89696   4.684   7.663   0.600  0.6013 -1.3053 -0.9918
  680MOL0     H89697   4.343   7.858   0.646 -1.3903 -0.3868 -3.0402
  680MOL0     H89698   4.515   7.839   0.669  0.8089  0.4896  0.0485
  680MOL0     H89699   4.403   7.701   0.849  0.9644 -0.6623  0.2274
  680MOL0     H89700   4.483   7.590   0.738 -0.4039 -0.8704 -2.6927
  680MOL0     H89701   4.270   7.524   0.629  0.3625  1.6102 -0.7364
  680MOL0     H89702   4.199   7.670   0.688  1.3109  0.8043 -0.5660
  680MOL0     H89703   4.275   7.432   0.865  1.5938 -0.2993 -1.5053
  680MOL0     H89704   4.234   7.594   0.928 -2.4684  2.7504 -0.4676
  680MOL0     H89705   4.064   7.429   0.742  1.4169  2.4360 -1.7193
  680MOL0     H89706   4.024   7.589   0.764  0.6988  0.9334  0.7210
  680MOL0     H89707   3.975   7.592   0.975 -1.3634  1.0931 -2.2294
  680MOL0     H89708   4.064   7.439   1.024 -1.2870 -3.3003 -0.2170
  680MOL0     H89709   3.887   7.303   0.931  1.3523  2.4592 -1.6305
  680MOL0     H89710   3.810   7.413   1.051  0.9528 -1.2889  1.4148
  680MOL0     H89711   3.803   7.479   0.761  1.2420  0.7795  1.3907
  680MOL0     H89712   3.702   7.549   0.877 -3.9759 -1.4391 -1.5263
  680MOL0     H89713   3.738   7.170   0.755 -3.7369 -4.1924 -2.6303
  680MOL0     H89714   3.559   7.006   0.712  0.9489 -0.0201  2.3355
  680MOL0     H89715   3.384   7.042   0.700  1.0960 -0.4225 -2.9718
  680MOL0     H89716   3.358   7.041   0.940 -0.1864 -0.1910  1.5918
  680MOL0     H89717   3.540   6.986   0.961  1.6103  1.1186 -2.8945
  680MOL0     H89718   3.349   6.828   0.795  0.1561  0.2657 -1.3164
  680MOL0     H89719   3.506   6.798   0.840 -0.3690  0.6658 -1.5860
  680MOL0     H89720   3.387   6.799   1.101 -1.2426 -0.5425  0.5695
  680MOL0     H89721   3.399   6.659   0.992  3.1642  0.8812 -0.1517
  680MOL0     H89722   3.246   6.654   1.229  1.2986  0.9793 -2.3281
  680MOL0     H89723   3.053   6.635   1.386  1.2892  0.0874  0.0371
  680MOL0     H89724   2.559   6.773   1.510 -2.1670 -0.2460  2.7095
  680MOL0     H89725   2.412   6.705   1.692 -0.2913  0.7806  2.8392
  680MOL0     H89726   2.526   6.512   2.076  2.3451 -0.3683 -0.4215
  680MOL0     H89727   2.572   6.416   1.940  0.8038  0.5900  2.9799
  680MOL0     H89728   2.334   6.332   1.922 -0.1297  1.8554 -1.6813
  680MOL0     H89729   2.283   6.423   2.061 -0.0477 -0.4562 -1.8241
  680MOL0     H89730   2.425   6.309   2.219 -0.7219  0.1295 -0.8943
  680MOL0     H89731   2.513   6.233   2.086 -0.1202 -0.0351  1.0070
  680MOL0     H89732   2.229   6.182   2.186  1.8659  2.7599  2.0863
  680MOL0     H89733   2.287   6.123   2.029 -1.2266  3.5976 -0.7240
  680MOL0     H89734   2.464   6.045   2.271  2.9533 -1.7478 -0.9274
  680MOL0     H89735   2.430   5.960   2.112 -2.6199  0.0577 -1.3330
  680MOL0     H89736   2.187   5.926   2.192  0.5256 -0.7608 -1.0826
  680MOL0     H89737   2.260   5.979   2.354  2.9254 -0.9725  1.3485
  680MOL0     H89738   2.330   5.730   2.178 -0.1574  2.1875 -2.0694
  680MOL0     H89739   2.425   5.791   2.318 -0.1307  1.5943  0.7239
  680MOL0     H89740   2.270   5.600   2.362  0.9313  0.1066  2.7544
  680MOL0     H89741   2.130   5.706   2.337 -0.1063  2.3981  2.0800
  680MOL0     H89742   2.737   6.547   1.921  0.9621 -3.4476 -1.8707
  680MOL0     H89743   2.897   6.633   1.743  1.3135 -0.8350 -1.6327
  680MOL0     H89744   2.804   6.856   1.117 -0.6795 -1.1669 -0.8179
  680MOL0     H89745   2.999   6.887   0.973  0.3318  1.0918  1.2368
  680MOL0     H89746   4.454   7.762   0.241 -0.7291 -0.9262  1.5871
  680MOL0     H89747   4.646   7.755   0.119 -1.0972  2.9659  0.6411
  680MOL0     H89748   4.910   7.560  -0.203  1.9224 -3.3315 -3.1044
  680MOL0     H89749   5.100   7.507  -0.326  1.2859  2.0459 -0.2730
  680MOL0     H89750   5.427   7.338  -0.090  2.2770 -1.7540 -0.5851
  680MOL0     H89751   5.519   7.479  -0.147  0.1830 -0.5110 -1.8554
  680MOL0     H89752   5.448   7.222  -0.279 -1.4366  1.2236 -0.6056
  680MOL0     H89753   5.506   7.368  -0.369  1.2093  1.1476  1.0477
  680MOL0     H89754   5.657   7.256  -0.137  1.7732  0.2212 -0.4932
  680MOL0     H89755   5.718   7.374  -0.254 -1.7193  2.1600 -0.0157
  680MOL0     H89756   5.651   7.077  -0.308  0.0098 -0.3321  0.9917
  680MOL0     H89757   5.699   7.208  -0.429  2.1186  1.8922  0.6463
  680MOL0     H89758   6.070   7.155  -0.237 -0.7059 -2.3140  2.2179
  680MOL0     H89759   5.333   7.503   0.022 -0.3407 -1.9579  2.3273
  680MOL0     H89760   5.138   7.589   0.159  0.1463  0.2173  0.2096
  681MOL0     O89761   7.615   4.562   7.478  0.0809  0.2103 -0.0317
  681MOL0     C89762   7.708   4.635   7.517  0.6225  0.0965 -0.4305
  681MOL0     O89763   7.694   4.738   7.607  0.2994 -0.4350  0.1051
  681MOL0     C89764   7.581   4.737   7.676 -0.0205  1.0417 -0.0051
  681MOL0     C89765   7.480   4.819   7.642 -1.2815  0.5065  0.4350
  681MOL0     C89766   7.364   4.820   7.709 -0.1346 -0.6318  0.1010
  681MOL0     C89767   7.337   4.732   7.817  0.1051  0.3152  0.5643
  681MOL0     O89768   7.225   4.754   7.888  0.8866 -0.9184  0.0784
  681MOL0     C89769   7.177   4.654   7.970  0.8263 -0.0720 -0.2883
  681MOL0     C89770   7.025   4.669   7.992 -0.8802 -0.4382 -0.8017
  681MOL0     C89771   6.945   4.660   7.863  0.9729  0.7573 -0.4805
  681MOL0     C89772   6.804   4.722   7.892  0.0112  0.2677  0.1889
  681MOL0     C89773   6.747   4.769   7.759  0.5021  0.3260  0.2618
  681MOL0     C89774   6.805   4.906   7.717  0.4563  0.7264 -0.0772
  681MOL0     C89775   6.808   4.939   7.567  0.0751 -0.7644  1.0067
  681MOL0     C89776   6.803   5.092   7.543 -0.5904 -0.1497  0.0472
  681MOL0     N89777   6.908   5.153   7.618 -0.2668 -0.7009  0.1498
  681MOL0     C89778   7.041   5.192   7.580 -0.8585  0.0326  0.8720
  681MOL0     C89779   7.102   5.240   7.686 -0.3557  0.0516 -0.2128
  681MOL0     C89780   7.239   5.305   7.707 -0.0582  0.3402  0.4659
  681MOL0     C89781   7.349   5.212   7.650  0.3920 -1.4580 -0.2339
  681MOL0     C89782   7.488   5.281   7.662  0.5534 -0.4400 -0.1902
  681MOL0     C89783   7.599   5.195   7.611 -0.0892  0.3124  0.5513
  681MOL0     O89784   7.710   5.276   7.637  0.4185 -0.0723 -0.0767
  681MOL0     C89785   7.832   5.249   7.585 -0.2686 -0.0175  0.7389
  681MOL0     C89786   7.929   5.357   7.586  0.4014  0.4017  0.5021
  681MOL0     C89787   8.060   5.339   7.549  0.6998 -0.5762  0.3732
  681MOL0     C89788   8.095   5.211   7.497 -0.4236  0.1636 -0.6572
  681MOL0     C89789   8.239   5.174   7.465  1.0686 -0.3513  0.0644
  681MOL0     O89790   8.277   5.044   7.494  0.2208  0.2656 -0.2211
  681MOL0     C89791   8.399   5.003   7.454  0.7908 -1.0739  1.0369
  681MOL0     C89792   8.443   4.996   7.325 -0.0570 -0.1295 -0.5697
  681MOL0     C89793   8.568   4.941   7.292 -0.0796 -0.6875  0.0867
  681MOL0     C89794   8.651   4.880   7.390  1.1326 -0.0948 -1.0379
  681MOL0     O89795   8.774   4.829   7.366  0.2341  0.3271  0.0298
  681MOL0     C89796   8.778   4.740   7.261 -0.4182 -0.1266  0.2267
  681MOL0     C89797   8.920   4.688   7.259 -0.2940  0.0166 -0.2577
  681MOL0     C89798   9.019   4.778   7.197 -0.8884  0.4145 -0.2189
  681MOL0     C89799   9.003   4.775   7.048 -0.1267 -0.6753 -0.2257
  681MOL0     C89800   9.135   4.822   6.974 -0.5924 -0.2890  0.2451
  681MOL0     C89801   9.194   4.967   6.992  0.7590  0.5833 -0.7969
  681MOL0     C89802   9.339   4.976   7.057  0.8383  0.3370 -0.3273
  681MOL0     C89803   9.387   5.118   7.099  0.4953  1.2434  0.4128
  681MOL0    Cl89804   9.248   5.210   7.185 -0.2327  0.1768 -0.0716
  681MOL0     C89805   8.605   4.884   7.522 -0.4213  0.2167  0.4160
  681MOL0     C89806   8.476   4.943   7.549 -0.5403  0.5068 -1.2281
  681MOL0     O89807   8.311   5.260   7.403  0.4851 -0.3518 -0.2191
  681MOL0     C89808   7.995   5.116   7.463  0.4322 -0.6303  0.9879
  681MOL0     C89809   7.868   5.136   7.511 -0.0650  0.8029 -0.3308
  681MOL0     N89810   7.006   5.253   7.787 -0.8470  0.9960 -0.0193
  681MOL0     N89811   6.897   5.202   7.746  0.6962 -0.6505  0.1107
  681MOL0     C89812   7.448   4.662   7.869  0.3403 -0.9048  0.0427
  681MOL0     C89813   7.563   4.659   7.790 -0.4399  0.3242  0.5936
  681MOL0     C89814   7.848   4.587   7.480  0.8966 -0.1083  0.1796
  681MOL0     C89815   7.952   4.677   7.498 -0.4124  0.5016 -0.4116
  681MOL0     C89816   8.087   4.635   7.476 -0.1834  0.4723 -0.6026
  681MOL0     C89817   8.111   4.511   7.426  0.4985 -0.1944 -0.5375
  681MOL0     O89818   8.229   4.449   7.386  0.8869 -0.4495  0.4587
  681MOL0     C89819   8.350   4.523   7.391 -0.8791 -0.5561  0.1233
  681MOL0     C89820   8.461   4.453   7.319  0.4465  0.2323  0.6093
  681MOL0     C89821   8.449   4.470   7.165  0.3096  0.2653  0.2348
  681MOL0     C89822   8.551   4.393   7.090 -0.6463 -0.0346  0.2782
  681MOL0     C89823   8.522   4.385   6.943  0.7775  0.3317  0.5330
  681MOL0     C89824   8.481   4.384   6.827  0.0634 -0.2844  0.1092
  681MOL0     C89825   8.003   4.422   7.415  0.2885  0.1739  0.7798
  681MOL0     C89826   7.870   4.458   7.439  0.0715 -0.5846 -0.1684
  681MOL0     H89827   7.506   4.878   7.555 -0.9867 -2.6525 -1.8311
  681MOL0     H89828   7.298   4.902   7.683 -0.8763 -1.5003 -0.8418
  681MOL0     H89829   7.221   4.663   8.070  1.2884 -1.5236 -0.3309
  681MOL0     H89830   7.215   4.559   7.930  3.6018  1.9198 -2.8075
  681MOL0     H89831   7.010   4.763   8.045  3.2107  0.0765 -0.2883
  681MOL0     H89832   6.991   4.587   8.055  0.6423 -0.2508  0.3089
  681MOL0     H89833   6.925   4.555   7.841 -2.1003  0.5675  2.4267
  681MOL0     H89834   7.002   4.702   7.780  3.0996  0.8715  0.9511
  681MOL0     H89835   6.747   4.645   7.944  0.4871 -0.7872 -0.8149
  681MOL0     H89836   6.813   4.812   7.955 -0.9614  1.7834 -1.7363
  681MOL0     H89837   6.639   4.776   7.775  0.4189 -1.3163  0.5723
  681MOL0     H89838   6.772   4.693   7.685 -1.1817  1.2813 -1.3847
  681MOL0     H89839   6.900   4.922   7.767 -0.6704  4.0834  1.2461
  681MOL0     H89840   6.740   4.974   7.773 -0.3821 -1.5457  1.9295
  681MOL0     H89841   6.901   4.900   7.523 -0.4245  0.3147 -1.1364
  681MOL0     H89842   6.721   4.897   7.516  0.8685  0.3723 -1.4256
  681MOL0     H89843   6.706   5.129   7.579  0.3363  2.0781  0.3952
  681MOL0     H89844   6.798   5.122   7.438 -1.1517  1.2288  0.4519
  681MOL0     H89845   7.080   5.181   7.479 -0.6925  0.3783  0.8968
  681MOL0     H89846   7.255   5.326   7.813  0.7776 -1.9409  0.8595
  681MOL0     H89847   7.248   5.401   7.656  5.5669  0.1706  0.5238
  681MOL0     H89848   7.329   5.199   7.543  0.0077  1.5761 -0.6090
  681MOL0     H89849   7.349   5.114   7.699 -0.1347 -1.3764 -0.0596
  681MOL0     H89850   7.478   5.380   7.616  0.4111  0.6416  1.9954
  681MOL0     H89851   7.513   5.308   7.765  1.4635  5.4738 -1.6054
  681MOL0     H89852   7.586   5.175   7.505  1.1745 -3.0788  0.9317
  681MOL0     H89853   7.614   5.103   7.668 -1.8495 -0.6338 -0.4330
  681MOL0     H89854   7.887   5.449   7.624 -2.9423 -0.4846 -0.7322
  681MOL0     H89855   8.126   5.426   7.544 -0.6065  0.4175 -0.3150
  681MOL0     H89856   8.361   5.015   7.257 -1.5753  0.7891  1.4216
  681MOL0     H89857   8.597   4.934   7.187 -1.6221 -1.9101 -0.3025
  681MOL0     H89858   8.750   4.781   7.163 -0.8160 -1.0773 -0.0751
  681MOL0     H89859   8.701   4.665   7.282 -1.7121  1.8316  3.1385
  681MOL0     H89860   8.923   4.588   7.215 -4.8267 -0.8386  0.7995
  681MOL0     H89861   8.948   4.657   7.360  0.3235  2.0586  0.2644
  681MOL0     H89862   9.113   4.749   7.246 -3.2291 -0.4382  4.3723
  681MOL0     H89863   9.008   4.879   7.238  0.5287 -0.2475  1.9821
  681MOL0     H89864   8.984   4.672   7.017 -2.1331 -0.4627  0.2181
  681MOL0     H89865   8.915   4.834   7.023 -1.5017 -2.6249 -0.1561
  681MOL0     H89866   9.130   4.813   6.865  0.6865  0.2633  0.1260
  681MOL0     H89867   9.216   4.754   7.002 -0.4553 -1.3663 -2.4941
  681MOL0     H89868   9.123   5.003   7.067 -1.6723  0.1822 -2.7529
  681MOL0     H89869   9.186   5.026   6.900 -1.3186  0.6828 -0.6069
  681MOL0     H89870   9.342   4.919   7.150  0.8259  1.2899  0.2697
  681MOL0     H89871   9.421   4.936   6.996  2.8642  2.4229  0.8450
  681MOL0     H89872   9.435   5.168   7.015  0.0704 -2.0057 -1.9362
  681MOL0     H89873   9.464   5.102   7.175  0.4492  0.6351  0.3324
  681MOL0     H89874   8.672   4.853   7.601  0.3500  0.1195 -0.2633
  681MOL0     H89875   8.448   4.954   7.654 -1.3475  0.0633 -1.3841
  681MOL0     H89876   8.011   5.022   7.411  0.6425 -0.2432  0.3405
  681MOL0     H89877   7.802   5.052   7.492  4.0455 -2.6668 -0.7236
  681MOL0     H89878   7.431   4.603   7.959 -1.6637  1.4629  1.3298
  681MOL0     H89879   7.638   4.590   7.826 -0.1427  1.4092  2.1745
  681MOL0     H89880   7.938   4.781   7.523 -3.4551  0.2017 -0.5519
  681MOL0     H89881   8.169   4.701   7.499 -1.5266  2.1429 -0.4018
  681MOL0     H89882   8.380   4.518   7.496  2.1656  1.5650 -0.5100
  681MOL0     H89883   8.354   4.630   7.366  0.0495 -0.7647 -0.6778
  681MOL0     H89884   8.553   4.497   7.357 -0.4192  2.5267  0.2311
  681MOL0     H89885   8.459   4.346   7.338 -3.0480 -0.2725 -1.5445
  681MOL0     H89886   8.452   4.574   7.132 -0.1272 -0.1992 -1.3198
  681MOL0     H89887   8.354   4.431   7.128  1.4428 -0.5690 -1.9910
  681MOL0     H89888   8.656   4.423   7.096 -0.6921  0.0043  0.9522
  681MOL0     H89889   8.548   4.290   7.126  0.5020 -0.6941 -1.3636
  681MOL0     H89890   8.452   4.356   6.728  1.4900  1.1789 -0.7806
  681MOL0     H89891   8.026   4.322   7.378 -0.8177 -0.2072  1.0863
  681MOL0     H89892   7.793   4.387   7.410 -1.3363 -0.5147  2.9833
  682MOL0     O89893   8.625   8.937   2.383  0.9254  0.8452  0.1705
  682MOL0     C89894   8.654   8.834   2.324  0.8518  0.5564 -0.8715
  682MOL0     O89895   8.569   8.732   2.284  0.2797 -0.2615 -0.2031
  682MOL0     C89896   8.434   8.731   2.298 -0.3240  0.0107 -0.0078
  682MOL0     C89897   8.358   8.845   2.294  0.3790  0.2015  0.7512
  682MOL0     C89898   8.217   8.842   2.320  0.8806 -0.6828  0.4774
  682MOL0     C89899   8.150   8.723   2.354 -0.4105 -0.1524  0.5688
  682MOL0     O89900   8.016   8.732   2.392 -0.5476 -0.5879 -0.1312
  682MOL0     C89901   7.937   8.619   2.443 -0.5105 -0.4201  0.4757
  682MOL0     C89902   7.794   8.668   2.466  0.9768 -0.0776  0.2476
  682MOL0     C89903   7.706   8.570   2.556 -0.0317  0.0807 -0.6686
  682MOL0     C89904   7.562   8.605   2.555 -0.3720  0.3225  0.1127
  682MOL0     C89905   7.470   8.508   2.640  0.4515 -0.4475  0.5555
  682MOL0     C89906   7.495   8.537   2.786  0.1086 -0.6364  0.0893
  682MOL0     C89907   7.485   8.417   2.876 -0.6212 -0.1838 -0.7935
  682MOL0     C89908   7.606   8.319   2.876  0.1487  0.4301  0.1364
  682MOL0     N89909   7.735   8.388   2.865  0.3583  1.0729 -0.3813
  682MOL0     C89910   7.781   8.480   2.954  0.0113  0.0713 -0.4343
  682MOL0     C89911   7.912   8.502   2.929  1.3546  0.9381 -0.0381
  682MOL0     C89912   8.021   8.587   2.992  0.3533 -0.5817 -0.2187
  682MOL0     C89913   8.046   8.558   3.142  0.5082 -0.1706  0.1927
  682MOL0     C89914   8.110   8.427   3.167 -0.1641  0.2329 -0.1508
  682MOL0     C89915   8.251   8.414   3.112  0.9302  0.5943 -0.0375
  682MOL0     O89916   8.320   8.531   3.154  0.5505 -0.1009 -0.3430
  682MOL0     C89917   8.455   8.524   3.133  0.4252 -0.2717 -0.1779
  682MOL0     C89918   8.544   8.427   3.189  0.0123 -0.0801  0.6468
  682MOL0     C89919   8.687   8.434   3.181 -0.3404 -0.2501 -0.3793
  682MOL0     C89920   8.746   8.537   3.099  0.7797  0.2893  0.6638
  682MOL0     C89921   8.889   8.536   3.076 -0.5504 -0.2891  0.7916
  682MOL0     O89922   8.944   8.627   2.992 -0.9276 -0.3789 -0.5884
  682MOL0     C89923   9.079   8.611   2.969  0.2251 -1.0196  0.0657
  682MOL0     C89924   9.161   8.709   3.022 -0.3368  0.1274  0.4096
  682MOL0     C89925   9.292   8.717   2.977  0.6951  0.2195  0.1614
  682MOL0     C89926   9.330   8.615   2.893 -0.5536 -0.2410  0.2264
  682MOL0     O89927   9.454   8.628   2.831  0.9360  0.1568  0.1665
  682MOL0     C89928   9.570   8.646   2.911 -0.1886  0.3352  0.8405
  682MOL0     C89929   9.690   8.573   2.855 -0.4521 -0.5691  0.4555
  682MOL0     C89930   9.729   8.632   2.719 -0.1555  0.5165 -0.7516
  682MOL0     C89931   9.865   8.586   2.663 -0.3532  0.5355  0.1485
  682MOL0     C89932   9.878   8.618   2.510  0.3777  0.0500 -0.3789
  682MOL0     C89933  10.021   8.599   2.445  0.1845 -0.0269 -0.6088
  682MOL0     C89934  10.123   8.665   2.533  0.3063  0.4101 -0.1027
  682MOL0     C89935  10.249   8.706   2.463 -0.6666  0.1734 -0.2353
  682MOL0    Cl89936  10.371   8.587   2.412  0.0951 -0.2144  0.2241
  682MOL0     C89937   9.242   8.505   2.855 -0.8137  0.3880  0.7882
  682MOL0     C89938   9.115   8.506   2.899  0.2979 -0.7644 -0.1135
  682MOL0     O89939   8.951   8.452   3.135 -0.5906  1.1701 -0.0120
  682MOL0     C89940   8.658   8.639   3.039 -0.0523 -0.7547  0.5530
  682MOL0     C89941   8.517   8.629   3.055  0.1440  0.5985  0.2357
  682MOL0     N89942   7.941   8.421   2.820  0.2474 -0.5821  0.5741
  682MOL0     N89943   7.838   8.353   2.791 -0.0727 -0.1853  0.8391
  682MOL0     C89944   8.224   8.608   2.329  0.2971 -0.1352  0.6988
  682MOL0     C89945   8.361   8.611   2.309 -0.5765  1.0389 -0.1674
  682MOL0     C89946   8.793   8.805   2.311  0.0580 -0.0175 -0.4029
  682MOL0     C89947   8.839   8.691   2.238  0.0272  0.0512  0.4967
  682MOL0     C89948   8.964   8.642   2.234 -0.6895  0.3250 -0.7428
  682MOL0     C89949   9.064   8.719   2.302 -0.1501  1.3369  0.2283
  682MOL0     O89950   9.191   8.669   2.302 -0.0183  0.3135 -0.6486
  682MOL0     C89951   9.284   8.692   2.410 -0.2508 -0.8325  0.4796
  682MOL0     C89952   9.375   8.802   2.371 -0.3517 -0.1975 -0.0032
  682MOL0     C89953   9.471   8.772   2.250 -0.1228  0.1279 -0.2219
  682MOL0     C89954   9.603   8.730   2.306  0.0466  0.7135 -0.2894
  682MOL0     C89955   9.680   8.649   2.219  0.0701 -0.3149  0.7390
  682MOL0     C89956   9.769   8.583   2.184 -0.2214  0.5324  0.4454
  682MOL0     C89957   9.027   8.830   2.372 -0.1133  0.1053  0.4907
  682MOL0     C89958   8.895   8.876   2.382 -0.3475 -0.2905 -0.2649
  682MOL0     H89959   8.401   8.942   2.275 -0.8284  0.4759 -0.7730
  682MOL0     H89960   8.177   8.942   2.329  1.9447 -0.3993  2.8471
  682MOL0     H89961   7.980   8.585   2.538  1.0951  0.2371  0.0331
  682MOL0     H89962   7.946   8.546   2.363  0.8631 -0.6295  0.7795
  682MOL0     H89963   7.751   8.685   2.367  2.1936 -1.2272 -0.5222
  682MOL0     H89964   7.795   8.767   2.513  2.0676 -0.7753  1.7676
  682MOL0     H89965   7.751   8.589   2.653  1.1392  1.5632 -1.4617
  682MOL0     H89966   7.718   8.467   2.520  3.9392  0.3913 -0.6434
  682MOL0     H89967   7.554   8.709   2.586 -1.2688  0.1509  0.4899
  682MOL0     H89968   7.509   8.598   2.459  0.1753 -0.0303 -0.1732
  682MOL0     H89969   7.490   8.402   2.621  2.0992 -0.2636  1.1139
  682MOL0     H89970   7.365   8.529   2.615  0.6692 -0.0556 -0.0378
  682MOL0     H89971   7.407   8.595   2.817  0.6538  1.4553 -1.9398
  682MOL0     H89972   7.580   8.603   2.807  0.8789 -1.2966 -0.9137
  682MOL0     H89973   7.477   8.446   2.981  0.4908  3.5412 -1.6119
  682MOL0     H89974   7.389   8.363   2.875 -0.0644 -1.8167  4.4364
  682MOL0     H89975   7.584   8.256   2.790 -1.8679  1.2305  0.0193
  682MOL0     H89976   7.612   8.253   2.963 -0.1868 -1.2422 -1.0616
  682MOL0     H89977   7.732   8.518   3.043  0.5245 -3.2462  1.4255
  682MOL0     H89978   7.997   8.694   2.994 -2.8114 -1.2025  1.3184
  682MOL0     H89979   8.111   8.575   2.931 -1.3006 -1.1569 -2.7293
  682MOL0     H89980   7.946   8.565   3.187 -2.3045 -2.8484 -4.6473
  682MOL0     H89981   8.109   8.626   3.199  3.7679 -3.3673  0.7454
  682MOL0     H89982   8.127   8.426   3.275  1.7875 -0.6641 -0.4245
  682MOL0     H89983   8.053   8.340   3.132 -1.8569  1.1425  0.2071
  682MOL0     H89984   8.246   8.412   3.002  0.9813  0.8724 -0.0458
  682MOL0     H89985   8.297   8.323   3.151  0.4425  0.0055 -0.8026
  682MOL0     H89986   8.500   8.342   3.240  1.8741  0.2398  2.9777
  682MOL0     H89987   8.740   8.347   3.220  0.2581 -1.1509 -2.9948
  682MOL0     H89988   9.128   8.795   3.080 -1.6406  0.0491 -0.1800
  682MOL0     H89989   9.359   8.797   3.008  0.0483  0.4463  1.0243
  682MOL0     H89990   9.563   8.600   3.010  2.1947  0.6971  1.2375
  682MOL0     H89991   9.588   8.753   2.921 -0.4149  0.5900 -1.0899
  682MOL0     H89992   9.664   8.470   2.830  0.6366 -1.1919  1.7899
  682MOL0     H89993   9.776   8.576   2.923  1.7646  1.1593 -2.1600
  682MOL0     H89994   9.741   8.740   2.727  0.6597  0.4520 -1.0325
  682MOL0     H89995   9.650   8.608   2.648 -2.4542  1.9430  1.1606
  682MOL0     H89996   9.942   8.634   2.724  1.1049 -0.7384 -0.5995
  682MOL0     H89997   9.883   8.478   2.666  1.1907  0.7081 -1.2609
  682MOL0     H89998   9.853   8.724   2.496  2.8630  0.5514 -1.5486
  682MOL0     H89999   9.804   8.555   2.459  1.7042 -2.5623  0.8151
  682MOL0     H90000  10.020   8.655   2.351 -0.9142  0.8043 -0.1331
  682MOL0     H90001  10.037   8.493   2.426  2.5143  0.4041 -1.4126
  682MOL0     H90002  10.086   8.760   2.573 -0.1961  0.8193 -1.4790
  682MOL0     H90003  10.145   8.602   2.619  0.4034  2.4785  1.4588
  682MOL0     H90004  10.305   8.776   2.526 -0.5699  0.9058 -1.1208
  682MOL0     H90005  10.214   8.761   2.375  1.0536  0.7811 -0.5863
  682MOL0     H90006   9.272   8.431   2.783 -0.9231  0.1790  0.9567
  682MOL0     H90007   9.041   8.435   2.865 -0.2171 -1.3882  2.1644
  682MOL0     H90008   8.697   8.722   2.982 -1.6583  0.9325  1.7737
  682MOL0     H90009   8.456   8.707   3.012  1.1857  0.6868 -1.1469
  682MOL0     H90010   8.173   8.512   2.340 -1.2070  0.6384  0.7095
  682MOL0     H90011   8.407   8.520   2.272  0.5918  1.5113  0.0921
  682MOL0     H90012   8.759   8.635   2.191 -0.6362  1.4573 -0.1088
  682MOL0     H90013   8.988   8.549   2.184  4.3510 -0.0527  1.7935
  682MOL0     H90014   9.345   8.601   2.408  0.8475 -0.1478 -2.7881
  682MOL0     H90015   9.246   8.706   2.511 -1.1161  0.0393  0.0462
  682MOL0     H90016   9.310   8.887   2.349 -0.0359 -0.1084 -0.6097
  682MOL0     H90017   9.443   8.830   2.452  0.9288 -1.0860 -0.7253
  682MOL0     H90018   9.474   8.853   2.177 -0.2236  0.4436  0.1221
  682MOL0     H90019   9.429   8.688   2.193  0.6431 -0.6032  0.2599
  682MOL0     H90020   9.665   8.819   2.317  1.8763 -0.6286  0.8066
  682MOL0     H90021   9.594   8.669   2.397  2.8070 -0.4505 -0.6958
  682MOL0     H90022   9.852   8.526   2.147  0.4707  3.0640 -2.2473
  682MOL0     H90023   9.103   8.885   2.425  1.7631 -0.0687 -1.8590
  682MOL0     H90024   8.863   8.962   2.441  0.4169 -0.5421  0.5415
  683MOL0     O90025   7.450   5.600  10.952  0.1857  0.2912  0.6018
  683MOL0     C90026   7.527   5.570  11.047  0.3539 -0.6347  1.1771
  683MOL0     O90027   7.487   5.546  11.178  0.4486 -0.1936 -0.3895
  683MOL0     C90028   7.353   5.542  11.207  0.0603 -1.4554  0.8075
  683MOL0     C90029   7.294   5.423  11.239  0.9250  0.1683  1.0664
  683MOL0     C90030   7.154   5.410  11.247 -0.6981 -0.5164 -0.2098
  683MOL0     C90031   7.072   5.522  11.236 -0.6924 -0.4822  0.3223
  683MOL0     O90032   6.935   5.502  11.237 -0.7834  0.6903 -0.4178
  683MOL0     C90033   6.881   5.432  11.352  0.2047  0.0313  0.8372
  683MOL0     C90034   6.749   5.352  11.326 -0.3719 -0.3895  0.4228
  683MOL0     C90035   6.650   5.459  11.293 -0.0471  0.9425  0.1784
  683MOL0     C90036   6.515   5.389  11.286  0.3485 -0.6766  0.7648
  683MOL0     C90037   6.414   5.483  11.221  0.2688 -0.0573  0.3176
  683MOL0     C90038   6.398   5.632  11.271 -0.1993 -0.6212 -0.3886
  683MOL0     C90039   6.265   5.705  11.228 -0.2551 -0.8274 -0.4117
  683MOL0     C90040   6.191   5.781  11.338  0.2142 -0.5375  0.1166
  683MOL0     N90041   6.068   5.825  11.276 -0.1368 -0.0264 -0.1905
  683MOL0     C90042   5.963   5.754  11.248  0.4640  0.4974  0.3438
  683MOL0     C90043   5.865   5.848  11.207 -0.1276  0.2575  0.3407
  683MOL0     C90044   5.723   5.810  11.159 -0.3548  0.3832  0.2204
  683MOL0     C90045   5.615   5.866  11.267  0.2629  0.1145 -0.1646
  683MOL0     C90046   5.601   5.769  11.382 -0.4574 -0.1483  0.1217
  683MOL0     C90047   5.470   5.771  11.464  0.7662 -0.9528  0.2654
  683MOL0     O90048   5.347   5.753  11.385 -0.1828  0.2854  0.0982
  683MOL0     C90049   5.247   5.693  11.449  0.9098  0.1888 -0.2086
  683MOL0     C90050   5.220   5.699  11.586 -0.0764  0.0808 -0.0731
  683MOL0     C90051   5.091   5.662  11.623  0.1387 -0.7390 -1.0525
  683MOL0     C90052   4.988   5.622  11.539  0.0851 -0.7142 -0.7861
  683MOL0     C90053   4.855   5.582  11.593 -0.2886 -0.0219 -0.0431
  683MOL0     O90054   4.755   5.541  11.503 -0.0367 -0.3749 -0.2761
  683MOL0     C90055   4.642   5.486  11.564  0.0066  0.3294 -0.6830
  683MOL0     C90056   4.639   5.344  11.567  0.8420  0.5948  0.6328
  683MOL0     C90057   4.523   5.280  11.621  0.5995 -0.6266  0.2985
  683MOL0     C90058   4.415   5.357  11.671  0.6761 -0.9394 -0.6197
  683MOL0     O90059   4.312   5.294  11.726  0.6332  0.1332 -0.9981
  683MOL0     C90060   4.237   5.366  11.825  0.0904 -0.4092 -0.5058
  683MOL0     C90061   4.121   5.456  11.775  1.2467 -0.4177  0.5013
  683MOL0     C90062   3.992   5.378  11.764 -0.4661 -0.7432  0.5301
  683MOL0     C90063   3.870   5.453  11.701  0.1837 -0.1622 -0.2141
  683MOL0     C90064   3.890   5.510  11.550 -0.0896  0.4284 -0.0329
  683MOL0     C90065   3.893   5.396  11.450 -0.4647  0.1718  0.7966
  683MOL0     C90066   3.853   5.442  11.308  0.2912  0.3442  0.0987
  683MOL0     C90067   3.856   5.341  11.204 -0.3623 -0.2142 -1.0254
  683MOL0    Cl90068   3.901   5.422  11.048  0.0131  0.1479  0.0725
  683MOL0     C90069   4.422   5.502  11.664 -0.8950 -0.7238  1.3932
  683MOL0     C90070   4.541   5.564  11.614 -0.2317  0.3184  0.0082
  683MOL0     O90071   4.841   5.585  11.718 -0.3304 -0.0902  0.1828
  683MOL0     C90072   5.016   5.621  11.402 -0.4713 -0.4974 -0.1286
  683MOL0     C90073   5.147   5.652  11.362 -0.5698 -0.8084  0.1448
  683MOL0     N90074   5.928   5.972  11.207  0.7459 -0.0329  0.3878
  683MOL0     N90075   6.046   5.955  11.255  0.5560 -0.1177  0.2733
  683MOL0     C90076   7.131   5.644  11.202 -0.4499  0.0874 -0.6918
  683MOL0     C90077   7.271   5.659  11.189  0.8425 -0.1843  0.8111
  683MOL0     C90078   7.669   5.551  11.022 -0.0720 -1.2113  0.4227
  683MOL0     C90079   7.714   5.570  10.889 -0.2909  0.9040  0.4679
  683MOL0     C90080   7.857   5.561  10.869  0.8555  0.0717  0.4560
  683MOL0     C90081   7.939   5.539  10.971 -0.1585 -0.0708  0.7381
  683MOL0     O90082   8.077   5.553  10.947  0.7193 -0.4790 -0.1479
  683MOL0     C90083   8.151   5.628  11.038 -0.6060  0.1191 -0.7554
  683MOL0     C90084   8.302   5.628  11.002  0.9172 -0.2177  0.3319
  683MOL0     C90085   8.348   5.733  10.895 -0.1988  0.3648 -0.1786
  683MOL0     C90086   8.294   5.705  10.755 -0.5024 -0.0923  0.5493
  683MOL0     C90087   8.166   5.774  10.722  0.1832 -0.4828 -0.4513
  683MOL0     C90088   8.054   5.819  10.697  0.5485  0.0246  0.3649
  683MOL0     C90089   7.892   5.511  11.096 -0.9954  0.2213  0.1659
  683MOL0     C90090   7.760   5.514  11.122 -0.1742 -0.1879 -1.2179
  683MOL0     H90091   7.356   5.334  11.246 -1.1273 -1.7269 -2.1824
  683MOL0     H90092   7.113   5.310  11.255  0.6983 -1.1344 -0.5065
  683MOL0     H90093   6.858   5.500  11.435  0.2543 -0.7139  1.4763
  683MOL0     H90094   6.957   5.362  11.387  1.3284  1.6901  1.8846
  683MOL0     H90095   6.735   5.289  11.414 -1.9965 -1.4536 -0.5431
  683MOL0     H90096   6.765   5.288  11.238  1.5513  1.9708 -1.0962
  683MOL0     H90097   6.684   5.504  11.200 -1.5198  2.3328  0.2759
  683MOL0     H90098   6.642   5.537  11.369  0.1897  1.8111 -0.6730
  683MOL0     H90099   6.519   5.305  11.216 -0.8191 -0.2902  0.1982
  683MOL0     H90100   6.486   5.350  11.384  1.3491 -0.7856  1.0262
  683MOL0     H90101   6.313   5.440  11.222 -0.2015  1.0240  0.7257
  683MOL0     H90102   6.449   5.495  11.118  0.6281  0.4616  0.4972
  683MOL0     H90103   6.487   5.685  11.237 -1.4273  1.2692 -0.8070
  683MOL0     H90104   6.409   5.640  11.380 -1.0813 -0.7527 -0.2793
  683MOL0     H90105   6.297   5.777  11.152  0.0926 -0.8440 -0.2838
  683MOL0     H90106   6.196   5.633  11.183 -1.2164 -1.0324  1.2727
  683MOL0     H90107   6.256   5.859  11.379  1.9151 -2.9969  2.4732
  683MOL0     H90108   6.174   5.710  11.419  0.2590  0.4414  0.9970
  683MOL0     H90109   5.944   5.647  11.254  0.6356  0.5165  1.7107
  683MOL0     H90110   5.719   5.701  11.160  1.0846  0.3137  1.0445
  683MOL0     H90111   5.706   5.830  11.053 -3.8853 -2.7835 -0.0273
  683MOL0     H90112   5.517   5.886  11.223  0.3022 -2.2096 -1.4797
  683MOL0     H90113   5.656   5.959  11.307 -0.9129 -0.0068  1.4334
  683MOL0     H90114   5.608   5.671  11.335  1.8559  1.3535 -3.0938
  683MOL0     H90115   5.682   5.774  11.455 -1.6814 -2.8175  1.8054
  683MOL0     H90116   5.473   5.862  11.524 -0.6644  0.4491 -1.6746
  683MOL0     H90117   5.476   5.684  11.530  0.6786 -0.4594  0.9239
  683MOL0     H90118   5.292   5.730  11.661  0.5752 -0.1050 -0.6100
  683MOL0     H90119   5.073   5.682  11.728 -0.5428 -2.3446 -0.8289
  683MOL0     H90120   4.724   5.292  11.525  1.8503 -0.2612  3.4804
  683MOL0     H90121   4.512   5.172  11.619  0.8783 -0.6949  1.6327
  683MOL0     H90122   4.304   5.422  11.891 -2.0787 -1.6132  3.0163
  683MOL0     H90123   4.182   5.296  11.888 -1.0473  2.1333  1.5130
  683MOL0     H90124   4.146   5.505  11.680  1.0446 -0.7742  0.2628
  683MOL0     H90125   4.109   5.538  11.846  1.3784  0.1900 -0.1661
  683MOL0     H90126   3.972   5.344  11.867 -0.1937  0.0119  0.8350
  683MOL0     H90127   4.014   5.295  11.696  2.2739  0.1232  0.2593
  683MOL0     H90128   3.787   5.382  11.705 -0.2808  0.1185 -2.9726
  683MOL0     H90129   3.849   5.529  11.777 -0.7371  0.3878 -0.9987
  683MOL0     H90130   3.966   5.585  11.529 -2.3954  2.0780 -3.4226
  683MOL0     H90131   3.801   5.570  11.530  0.1089  0.1540 -1.9097
  683MOL0     H90132   3.822   5.314  11.465 -0.0977 -0.1393  0.8365
  683MOL0     H90133   3.992   5.350  11.454  0.9738  2.3555 -3.2507
  683MOL0     H90134   3.746   5.459  11.323  0.1072 -1.6716  1.4595
  683MOL0     H90135   3.919   5.523  11.277 -0.8351  0.6749 -1.5894
  683MOL0     H90136   3.756   5.296  11.193 -0.1366 -0.6669 -1.2495
  683MOL0     H90137   3.931   5.262  11.214  0.3274  0.5236 -0.3286
  683MOL0     H90138   4.342   5.568  11.695  0.6845  2.2611 -0.3699
  683MOL0     H90139   4.538   5.671  11.596 -1.3853  0.6099  1.6317
  683MOL0     H90140   4.947   5.584  11.328  0.1731 -1.6441 -0.1750
  683MOL0     H90141   5.166   5.657  11.255 -0.3824 -0.5609  0.1908
  683MOL0     H90142   7.064   5.730  11.203 -1.9802 -1.0349 -1.5536
  683MOL0     H90143   7.311   5.757  11.166 -0.3308  0.6606  2.1869
  683MOL0     H90144   7.653   5.600  10.805  0.4165 -0.0319 -0.4064
  683MOL0     H90145   7.894   5.595  10.773  1.2954  0.7482  0.8663
  683MOL0     H90146   8.140   5.577  11.134  1.9682 -2.3913 -1.6388
  683MOL0     H90147   8.117   5.731  11.052  0.6099  0.4963 -0.5204
  683MOL0     H90148   8.358   5.642  11.094  2.1950  1.9442 -0.7109
  683MOL0     H90149   8.324   5.530  10.957 -0.3442 -0.0719 -0.6852
  683MOL0     H90150   8.457   5.723  10.889 -0.3691 -0.8025 -2.0297
  683MOL0     H90151   8.316   5.830  10.936  0.6973  0.3084  0.7033
  683MOL0     H90152   8.373   5.741  10.689 -1.2255 -0.8989 -0.7969
  683MOL0     H90153   8.281   5.596  10.747  0.2380 -0.5139  3.5845
  683MOL0     H90154   7.957   5.845  10.660  0.8670 -1.5773 -1.7472
  683MOL0     H90155   7.963   5.492  11.176  0.7617  1.1404 -1.1137
  683MOL0     H90156   7.711   5.495  11.217 -1.7703 -0.6664 -2.0992
  684MOL0     O90157   0.621  10.372   9.372 -0.4211 -0.4964 -0.3603
  684MOL0     C90158   0.635  10.494   9.360 -0.2451 -0.6693 -0.6057
  684MOL0     O90159   0.563  10.589   9.424  0.3358  0.2024 -0.1512
  684MOL0     C90160   0.494  10.560   9.539 -0.1216 -0.8031  1.5081
  684MOL0     C90161   0.372  10.626   9.570 -0.1490 -0.0547 -0.1444
  684MOL0     C90162   0.292  10.582   9.672  0.0282 -0.0574 -0.1256
  684MOL0     C90163   0.341  10.492   9.773 -0.3100 -0.4142  0.9200
  684MOL0     O90164   0.268  10.441   9.874  0.7696 -0.5023 -0.0752
  684MOL0     C90165   0.145  10.507   9.902  0.3727 -0.1258 -0.5400
  684MOL0     C90166   0.024  10.468   9.814 -0.8645  0.4654  0.1571
  684MOL0     C90167  -0.085  10.574   9.834  0.1809  0.0228  0.1771
  684MOL0     C90168  -0.205  10.543   9.734 -0.4922 -0.7154 -0.5677
  684MOL0     C90169  -0.305  10.652   9.749 -0.5936  0.8956  0.2494
  684MOL0     C90170  -0.419  10.644   9.646 -0.4338 -0.3591 -0.5296
  684MOL0     C90171  -0.551  10.717   9.683 -0.1328  0.7878  0.3923
  684MOL0     C90172  -0.636  10.729   9.555 -0.1723 -0.6211 -0.1394
  684MOL0     N90173  -0.753  10.818   9.568  0.6455  0.3033  0.1880
  684MOL0     C90174  -0.865  10.807   9.656  0.3670  0.6763 -0.7440
  684MOL0     C90175  -0.944  10.912   9.633 -0.1429 -0.4506  0.3441
  684MOL0     C90176  -1.089  10.940   9.682 -0.2865  0.3500 -0.6745
  684MOL0     C90177  -1.194  10.941   9.570  0.1432 -0.1380  0.1281
  684MOL0     C90178  -1.334  10.934   9.646 -0.3326 -0.4379  0.4353
  684MOL0     C90179  -1.448  10.921   9.544  0.0648  0.1264 -0.1908
  684MOL0     O90180  -1.562  10.883   9.627 -0.0715 -0.6181 -0.9156
  684MOL0     C90181  -1.687  10.885   9.578  0.1675 -0.6212  0.5555
  684MOL0     C90182  -1.781  10.838   9.670 -0.1852  0.0745 -0.1772
  684MOL0     C90183  -1.916  10.841   9.631 -0.2463 -0.1627 -0.1182
  684MOL0     C90184  -1.956  10.873   9.494 -0.6032 -0.0077  0.3669
  684MOL0     C90185  -2.106  10.874   9.463 -0.5808 -0.8347 -0.3898
  684MOL0     O90186  -2.197  10.838   9.558 -0.0922 -0.1793 -0.5580
  684MOL0     C90187  -2.333  10.844   9.522  0.0785  0.2152  0.4177
  684MOL0     C90188  -2.417  10.899   9.612 -0.2686 -0.4524 -0.9829
  684MOL0     C90189  -2.554  10.898   9.590 -0.4976  0.0503 -0.1586
  684MOL0     C90190  -2.618  10.850   9.478  0.3828 -0.2160 -0.1635
  684MOL0     O90191  -2.751  10.863   9.470  0.0582  0.2120  0.0898
  684MOL0     C90192  -2.828  10.766   9.399  0.4695  0.0961  0.5113
  684MOL0     C90193  -2.821  10.621   9.452 -0.3611 -0.0469  0.5395
  684MOL0     C90194  -2.816  10.600   9.603 -0.4827 -0.6728  0.6136
  684MOL0     C90195  -2.834  10.454   9.650  0.0232  0.1843 -0.6293
  684MOL0     C90196  -2.922  10.431   9.773  1.3731  0.7217  0.2470
  684MOL0     C90197  -3.071  10.420   9.730  0.0115  0.7127 -0.0302
  684MOL0     C90198  -3.160  10.431   9.857 -0.2170  0.4256 -0.4876
  684MOL0     C90199  -3.312  10.439   9.829 -0.2426  0.6453 -0.1681
  684MOL0    Cl90200  -3.369  10.280   9.739 -0.1220  0.1560 -0.0791
  684MOL0     C90201  -2.528  10.790   9.384  0.0128  0.9338 -0.5720
  684MOL0     C90202  -2.390  10.784   9.403 -0.2065 -1.2815 -0.3338
  684MOL0     O90203  -2.131  10.903   9.344 -0.3126  0.2616 -0.7309
  684MOL0     C90204  -1.852  10.905   9.409  0.3066  0.2386 -0.5034
  684MOL0     C90205  -1.721  10.913   9.447 -0.7976 -0.6976 -0.1707
  684MOL0     N90206  -0.877  10.997   9.546 -0.1866 -0.0788 -0.1690
  684MOL0     N90207  -0.771  10.933   9.504 -0.1883  0.3267  0.1549
  684MOL0     C90208   0.463  10.439   9.747  1.7504 -0.5095  0.7810
  684MOL0     C90209   0.538  10.465   9.632 -0.6612 -1.2947 -0.5070
  684MOL0     C90210   0.721  10.530   9.242 -0.0966 -0.0762  0.3439
  684MOL0     C90211   0.715  10.652   9.178 -0.6578  0.5793  0.3529
  684MOL0     C90212   0.792  10.677   9.065  0.6857 -0.5889  0.4212
  684MOL0     C90213   0.883  10.583   9.017 -0.1607 -0.4768  0.6039
  684MOL0     O90214   0.960  10.621   8.912 -0.1262 -0.1531  0.9888
  684MOL0     C90215   1.088  10.557   8.894  0.4147 -0.4375  0.1353
  684MOL0     C90216   1.173  10.622   8.776  0.1721 -0.2977 -0.5667
  684MOL0     C90217   1.291  10.549   8.743  0.0886 -0.4700  0.1743
  684MOL0     C90218   1.388  10.632   8.663 -0.2014  0.6908  0.3533
  684MOL0     C90219   1.519  10.570   8.647  0.0130 -0.3348  1.1519
  684MOL0     C90220   1.635  10.525   8.650  0.9426 -0.2202  0.2047
  684MOL0     C90221   0.894  10.459   9.078 -0.1916 -0.2138 -0.1520
  684MOL0     C90222   0.815  10.432   9.197 -0.4885 -0.5966 -0.6830
  684MOL0     H90223   0.341  10.692   9.490  2.0255  0.6773 -0.4540
  684MOL0     H90224   0.190  10.617   9.678 -1.0535 -2.5810 -1.8784
  684MOL0     H90225   0.162  10.615   9.896  1.6944 -0.2662  0.2361
  684MOL0     H90226   0.115  10.483  10.005 -0.5128  1.0529 -0.5068
  684MOL0     H90227  -0.015  10.373   9.851  2.4206 -1.5242 -1.0720
  684MOL0     H90228   0.052  10.461   9.708  0.2474  3.0689  0.2010
  684MOL0     H90229  -0.042  10.672   9.810  0.5784 -0.6398 -2.0608
  684MOL0     H90230  -0.115  10.583   9.939  0.7985 -0.9742  0.4428
  684MOL0     H90231  -0.169  10.546   9.630  1.2058  0.3974  0.0187
  684MOL0     H90232  -0.246  10.444   9.755 -0.2012 -0.6407  0.4082
  684MOL0     H90233  -0.258  10.750   9.737  1.3578 -0.2746 -2.7741
  684MOL0     H90234  -0.354  10.642   9.846 -2.4652 -0.7648 -0.7815
  684MOL0     H90235  -0.445  10.538   9.649 -0.5116 -0.4347 -2.3514
  684MOL0     H90236  -0.379  10.679   9.550  0.3298  0.9876  0.2504
  684MOL0     H90237  -0.611  10.659   9.754 -0.0635  0.2467  0.0179
  684MOL0     H90238  -0.530  10.812   9.732  2.4249 -0.7036  2.4460
  684MOL0     H90239  -0.663  10.629   9.523  0.6626 -0.6359 -0.8259
  684MOL0     H90240  -0.577  10.783   9.481  0.1966  0.4550  0.8961
  684MOL0     H90241  -0.888  10.723   9.720  1.7842 -2.3298 -3.8001
  684MOL0     H90242  -1.087  11.029   9.745  0.7574 -0.6769  0.7973
  684MOL0     H90243  -1.119  10.860   9.750  1.9050 -0.9381 -1.1318
  684MOL0     H90244  -1.185  10.850   9.511 -1.1934 -0.6882  0.7220
  684MOL0     H90245  -1.178  11.030   9.508  1.6412  0.5883  1.4531
  684MOL0     H90246  -1.327  10.837   9.696  0.3048 -1.1336 -0.9200
  684MOL0     H90247  -1.349  11.013   9.720 -4.0341 -2.0875  1.6921
  684MOL0     H90248  -1.422  10.855   9.461  1.3776  0.1077  0.2069
  684MOL0     H90249  -1.471  11.023   9.512 -1.3703 -0.2558 -0.4318
  684MOL0     H90250  -1.751  10.815   9.772  1.1913  0.5751 -0.4473
  684MOL0     H90251  -1.990  10.799   9.698  0.0052 -1.6282 -0.7066
  684MOL0     H90252  -2.372  10.938   9.702  0.1355  0.6007 -1.6214
  684MOL0     H90253  -2.622  10.943   9.661  0.6592  2.9116 -0.7409
  684MOL0     H90254  -2.793  10.757   9.296  1.1364  4.4108  0.1918
  684MOL0     H90255  -2.930  10.806   9.401  0.7232  0.8156 -0.5320
  684MOL0     H90256  -2.723  10.587   9.416 -1.1191 -2.3577  0.5068
  684MOL0     H90257  -2.896  10.566   9.396  1.6973  1.6495 -4.5033
  684MOL0     H90258  -2.903  10.658   9.636  1.1450  0.5855  3.0024
  684MOL0     H90259  -2.733  10.654   9.649 -1.0142  0.5186  0.2238
  684MOL0     H90260  -2.865  10.389   9.568  1.2073 -0.5814 -0.4865
  684MOL0     H90261  -2.734  10.418   9.675 -0.5523  0.2296  1.9751
  684MOL0     H90262  -2.900  10.521   9.832  1.3618  2.6996 -2.5411
  684MOL0     H90263  -2.902  10.342   9.833 -2.9518  0.0305  1.0265
  684MOL0     H90264  -3.080  10.322   9.682  0.8198  1.5387 -1.9891
  684MOL0     H90265  -3.105  10.488   9.651 -1.0531  0.2853  0.0408
  684MOL0     H90266  -3.139  10.349   9.927 -1.1262 -0.0309 -0.7427
  684MOL0     H90267  -3.121  10.517   9.912 -0.1361  0.2997 -0.3462
  684MOL0     H90268  -3.333  10.530   9.772 -0.8994 -0.1302 -1.2115
  684MOL0     H90269  -3.364  10.447   9.925  0.7410 -1.4103  0.6055
  684MOL0     H90270  -2.577  10.737   9.303  2.7022 -1.5607 -0.7353
  684MOL0     H90271  -2.327  10.740   9.326  0.7817  1.4622 -1.2345
  684MOL0     H90272  -1.877  10.918   9.304  0.1225  0.7552 -0.3981
  684MOL0     H90273  -1.645  10.932   9.371  1.5794 -1.0392  1.9636
  684MOL0     H90274   0.492  10.360   9.816 -1.6321 -1.0000  1.8818
  684MOL0     H90275   0.639  10.425   9.627 -0.9335 -2.2346  0.8240
  684MOL0     H90276   0.654  10.736   9.208 -0.4061  1.0264 -0.3812
  684MOL0     H90277   0.796  10.776   9.021 -1.2507 -0.8028 -0.3565
  684MOL0     H90278   1.073  10.453   8.865  0.0995  0.0068 -1.4003
  684MOL0     H90279   1.136  10.566   8.992 -1.8277  1.0972  1.1781
  684MOL0     H90280   1.109  10.628   8.688 -0.2977  1.3420 -0.1496
  684MOL0     H90281   1.193  10.725   8.808 -0.0942  0.1187 -1.7091
  684MOL0     H90282   1.260  10.464   8.683  1.2519 -2.0805  1.7540
  684MOL0     H90283   1.347  10.520   8.832 -0.9389  1.3611  1.4883
  684MOL0     H90284   1.344  10.642   8.563 -0.3416  4.0891  0.6391
  684MOL0     H90285   1.402  10.734   8.701 -0.7833  0.1009  2.2554
  684MOL0     H90286   1.729  10.473   8.646  1.4875  0.7450  0.2307
  684MOL0     H90287   0.961  10.386   9.034 -0.4668 -0.0600 -0.8481
  684MOL0     H90288   0.833  10.342   9.255  3.1931 -0.4316 -1.3273
  685MOL0     O90289   1.966   0.819   0.663  0.4071  0.1882  0.3842
  685MOL0     C90290   1.987   0.886   0.560  0.3867 -0.6172 -0.3674
  685MOL0     O90291   1.902   0.972   0.501 -0.3351  0.2715  0.1208
  685MOL0     C90292   1.764   0.966   0.521 -0.0928 -0.3637  0.2080
  685MOL0     C90293   1.689   1.090   0.542 -0.0030  0.5561 -0.9933
  685MOL0     C90294   1.545   1.079   0.566  0.0852 -0.5484  0.5459
  685MOL0     C90295   1.487   0.960   0.565  0.8017  0.0357 -0.3049
  685MOL0     O90296   1.350   0.936   0.570  0.1362  0.3265 -0.2750
  685MOL0     C90297   1.298   0.922   0.707  0.2212 -0.1279  0.4949
  685MOL0     C90298   1.258   1.057   0.759 -0.2788 -0.0523  0.0438
  685MOL0     C90299   1.174   1.144   0.664 -0.8257 -1.2335 -0.5988
  685MOL0     C90300   1.035   1.098   0.654  0.6477 -0.5711 -1.0349
  685MOL0     C90301   0.933   1.210   0.690  0.0987 -0.6930  0.1366
  685MOL0     C90302   0.788   1.167   0.631  0.1749  0.4536  0.9022
  685MOL0     C90303   0.681   1.260   0.684  0.0627  0.2121  0.1824
  685MOL0     C90304   0.545   1.190   0.705  0.4850  0.2889  0.7804
  685MOL0     N90305   0.531   1.115   0.830 -0.4054  0.5655 -0.0400
  685MOL0     C90306   0.436   1.145   0.914  0.2877  0.0759 -1.1408
  685MOL0     C90307   0.406   1.044   0.996  0.3025  0.2609  0.5867
  685MOL0     C90308   0.302   1.046   1.100  0.3457  0.1502  0.1674
  685MOL0     C90309   0.294   1.180   1.190  0.2467  0.1568  0.2012
  685MOL0     C90310   0.212   1.168   1.321  0.5936 -0.1804  0.2786
  685MOL0     C90311   0.062   1.194   1.284 -0.1460 -0.5909  0.4566
  685MOL0     O90312  -0.004   1.201   1.406  0.3454  0.6853 -0.0039
  685MOL0     C90313  -0.119   1.273   1.411 -1.5402 -0.6261 -0.1771
  685MOL0     C90314  -0.164   1.291   1.540 -0.5723 -0.4376 -0.0568
  685MOL0     C90315  -0.302   1.331   1.560 -0.0174 -0.5437 -0.7896
  685MOL0     C90316  -0.379   1.386   1.459 -0.1699  0.2474  0.0237
  685MOL0     C90317  -0.513   1.431   1.485 -0.4869 -0.0821  0.3926
  685MOL0     O90318  -0.573   1.385   1.603 -0.0786  0.0892 -0.1661
  685MOL0     C90319  -0.707   1.394   1.615  0.1722  0.2941  0.5900
  685MOL0     C90320  -0.761   1.517   1.665 -0.7058 -1.5510  0.1937
  685MOL0     C90321  -0.898   1.518   1.686  0.4597 -0.2031 -0.3868
  685MOL0     C90322  -0.982   1.416   1.642 -0.9327 -0.0219 -0.5897
  685MOL0     O90323  -1.118   1.408   1.665  0.0092 -0.0505  0.9678
  685MOL0     C90324  -1.198   1.508   1.590 -1.1880 -0.1246 -0.1670
  685MOL0     C90325  -1.347   1.464   1.568  0.3848 -0.8347  0.0903
  685MOL0     C90326  -1.423   1.562   1.472 -0.1965 -0.1815 -0.1740
  685MOL0     C90327  -1.417   1.708   1.531  0.0940  0.7047  0.3531
  685MOL0     C90328  -1.507   1.805   1.455  0.8352  0.6235 -0.4774
  685MOL0     C90329  -1.516   1.936   1.531  0.3282  0.2261  0.9261
  685MOL0     C90330  -1.570   1.924   1.672  0.0531 -0.3488 -0.1702
  685MOL0     C90331  -1.641   2.052   1.724  0.3566  0.6893 -0.7329
  685MOL0    Cl90332  -1.689   2.016   1.894  0.2147  0.0358 -0.1917
  685MOL0     C90333  -0.927   1.306   1.590 -1.1181 -0.3077  1.0534
  685MOL0     C90334  -0.791   1.290   1.567  0.2691 -0.5533 -0.6665
  685MOL0     O90335  -0.566   1.490   1.393 -0.5351  0.0158  0.1618
  685MOL0     C90336  -0.319   1.385   1.333  0.6055 -0.1998 -0.9476
  685MOL0     C90337  -0.197   1.325   1.308 -0.0160  0.2196  0.3686
  685MOL0     N90338   0.485   0.937   0.951 -0.4970  0.8011 -1.0821
  685MOL0     N90339   0.565   0.982   0.856  0.1189 -0.1501 -0.3684
  685MOL0     C90340   1.561   0.843   0.553  0.2432  0.5133  0.4723
  685MOL0     C90341   1.702   0.843   0.538  0.0029  0.5775  0.6543
  685MOL0     C90342   2.111   0.866   0.489  0.3883  0.6583 -1.1396
  685MOL0     C90343   2.124   0.911   0.360  0.0590  0.5238  0.0841
  685MOL0     C90344   2.249   0.913   0.300 -0.4728 -0.9754  0.3322
  685MOL0     C90345   2.374   0.872   0.362  0.8076 -0.9706  0.4538
  685MOL0     O90346   2.499   0.879   0.314 -0.0642  0.7079  0.3032
  685MOL0     C90347   2.611   0.918   0.399 -0.2970 -0.1667 -0.6726
  685MOL0     C90348   2.732   0.946   0.312 -0.4272  0.0908 -0.8553
  685MOL0     C90349   2.857   1.013   0.385 -0.5586  0.0453 -1.2558
  685MOL0     C90350   2.819   1.119   0.492 -0.1274 -0.7876  0.4136
  685MOL0     C90351   2.787   1.240   0.409  0.3885  0.5037  0.2652
  685MOL0     C90352   2.762   1.329   0.325  0.1644  0.6190 -0.2762
  685MOL0     C90353   2.355   0.825   0.496  0.1266 -0.1094  0.0630
  685MOL0     C90354   2.227   0.823   0.556  0.0013 -0.3320 -0.2530
  685MOL0     H90355   1.733   1.189   0.537 -1.8467  1.5837  1.0387
  685MOL0     H90356   1.479   1.164   0.569  1.5386  0.5957  1.8472
  685MOL0     H90357   1.364   0.876   0.781 -1.8833 -0.4328  2.2766
  685MOL0     H90358   1.206   0.863   0.713 -0.1124  0.4250  0.9338
  685MOL0     H90359   1.339   1.127   0.780  0.0097 -0.3626 -0.0259
  685MOL0     H90360   1.226   1.049   0.863 -0.9608 -2.6322 -0.2893
  685MOL0     H90361   1.222   1.137   0.566  1.9765  0.0696  0.5690
  685MOL0     H90362   1.169   1.245   0.705  0.9937 -1.6114  0.7101
  685MOL0     H90363   1.019   1.049   0.558  1.3473 -1.8712 -0.5060
  685MOL0     H90364   1.012   1.020   0.727 -1.9193 -0.2793 -1.4507
  685MOL0     H90365   0.955   1.302   0.636 -1.6336 -1.6285 -2.3534
  685MOL0     H90366   0.934   1.225   0.798  2.4689  0.3974  0.0246
  685MOL0     H90367   0.775   1.066   0.671  3.7336  0.6529  2.9915
  685MOL0     H90368   0.776   1.173   0.522 -0.2003  3.9170  1.0373
  685MOL0     H90369   0.713   1.295   0.782 -1.1375  1.2259  0.2427
  685MOL0     H90370   0.671   1.348   0.620  1.5585  1.5898  1.7420
  685MOL0     H90371   0.526   1.120   0.624  3.7466 -0.2354  0.3637
  685MOL0     H90372   0.468   1.268   0.698  0.9721  0.6793 -0.4644
  685MOL0     H90373   0.381   1.239   0.923 -0.6159 -0.4766 -0.7311
  685MOL0     H90374   0.314   0.953   1.157 -2.2748 -2.3469 -2.9771
  685MOL0     H90375   0.206   1.024   1.054 -0.0558 -1.6145  1.7393
  685MOL0     H90376   0.256   1.258   1.124  2.1003  2.1345  1.3783
  685MOL0     H90377   0.394   1.216   1.214  0.0602  0.6753  0.2048
  685MOL0     H90378   0.224   1.069   1.368 -0.9856 -1.9794 -2.7904
  685MOL0     H90379   0.240   1.248   1.390  1.4075  1.1515 -1.5304
  685MOL0     H90380   0.027   1.111   1.223  1.7080 -1.3517  0.3649
  685MOL0     H90381   0.058   1.289   1.229  0.2345 -1.0002 -0.2833
  685MOL0     H90382  -0.093   1.254   1.613 -1.0158 -2.2589 -0.4825
  685MOL0     H90383  -0.332   1.332   1.665  2.2912 -0.3398 -0.0637
  685MOL0     H90384  -0.688   1.593   1.694  0.5866 -2.8459  0.4604
  685MOL0     H90385  -0.938   1.612   1.723 -3.6102 -0.4963 -3.3286
  685MOL0     H90386  -1.158   1.520   1.489 -0.8072 -1.2191 -0.1539
  685MOL0     H90387  -1.190   1.604   1.642 -0.6856  0.2892 -0.9800
  685MOL0     H90388  -1.399   1.459   1.664 -2.6142  1.5324 -1.2595
  685MOL0     H90389  -1.348   1.366   1.520  0.9784 -0.9911  0.3824
  685MOL0     H90390  -1.525   1.526   1.457 -0.3920  1.1354 -2.4564
  685MOL0     H90391  -1.379   1.571   1.373  2.2125 -0.0254  0.8406
  685MOL0     H90392  -1.444   1.697   1.637 -0.7621 -0.7467  0.0088
  685MOL0     H90393  -1.317   1.751   1.526  0.2699  0.2121 -0.5465
  685MOL0     H90394  -1.606   1.766   1.433 -0.6091  3.8583 -0.1660
  685MOL0     H90395  -1.460   1.835   1.361  1.9939 -1.0617 -0.4814
  685MOL0     H90396  -1.588   1.996   1.475  0.7737  1.8394  1.9904
  685MOL0     H90397  -1.417   1.982   1.533  1.8579 -2.6717 -1.0992
  685MOL0     H90398  -1.640   1.839   1.672 -1.5461  0.8395  2.6850
  685MOL0     H90399  -1.495   1.895   1.746 -3.9562 -3.2657  3.2673
  685MOL0     H90400  -1.728   2.080   1.663  0.6463  2.7977 -0.2605
  685MOL0     H90401  -1.559   2.123   1.734 -0.2564  1.4546 -0.9936
  685MOL0     H90402  -0.994   1.224   1.565 -1.3145  0.1239  0.0914
  685MOL0     H90403  -0.761   1.194   1.526  0.3710 -0.2977 -1.1916
  685MOL0     H90404  -0.368   1.424   1.244 -0.2962 -2.5139 -1.5447
  685MOL0     H90405  -0.156   1.329   1.207 -0.7663 -2.5684 -0.1334
  685MOL0     H90406   1.519   0.743   0.551 -3.6721  1.7523  4.1599
  685MOL0     H90407   1.767   0.757   0.527 -1.3329 -0.6060  1.6835
  685MOL0     H90408   2.049   0.965   0.302  0.3930 -0.3654 -1.2010
  685MOL0     H90409   2.241   0.951   0.198 -0.7776  2.8479  1.6021
  685MOL0     H90410   2.634   0.838   0.470 -0.4874  0.5327  0.1919
  685MOL0     H90411   2.581   1.006   0.457 -3.2459 -0.3041 -1.8312
  685MOL0     H90412   2.751   0.850   0.263 -1.1036 -0.2461 -0.4581
  685MOL0     H90413   2.701   1.009   0.228  0.4522  0.5867 -0.8241
  685MOL0     H90414   2.931   1.050   0.314  0.5246  0.5602  0.0912
  685MOL0     H90415   2.905   0.926   0.430  0.5475  0.2203 -2.0663
  685MOL0     H90416   2.731   1.095   0.552 -0.9933  0.9399 -0.0722
  685MOL0     H90417   2.904   1.150   0.553  1.7971 -0.0754 -2.4328
  685MOL0     H90418   2.743   1.410   0.258 -1.1792  0.6984  0.1652
  685MOL0     H90419   2.443   0.782   0.543 -0.0692 -1.7946 -1.0124
  685MOL0     H90420   2.217   0.784   0.656  3.4860  0.6967  0.6476
  686MOL0     O90421   0.703   7.321   0.627  0.1180 -0.4876  0.2948
  686MOL0     C90422   0.734   7.205   0.651  0.5830  0.7052 -0.5255
  686MOL0     O90423   0.649   7.101   0.663 -0.2430 -0.1428  0.2810
  686MOL0     C90424   0.513   7.114   0.677 -0.8854 -0.5434  0.0205
  686MOL0     C90425   0.434   7.004   0.647  0.6259 -0.0816  0.5642
  686MOL0     C90426   0.289   7.020   0.638 -0.2847 -0.6090 -0.6020
  686MOL0     C90427   0.225   7.141   0.663  0.4168 -0.7862  0.3328
  686MOL0     O90428   0.092   7.150   0.652  0.1786  0.0624 -0.0651
  686MOL0     C90429   0.022   7.270   0.674  0.4439 -0.0336 -0.2525
  686MOL0     C90430  -0.088   7.269   0.569  0.1622 -0.2114  0.3545
  686MOL0     C90431  -0.205   7.358   0.582 -1.1450 -0.1896  0.2920
  686MOL0     C90432  -0.294   7.329   0.710  0.2319  0.5019 -0.7888
  686MOL0     C90433  -0.420   7.429   0.710  0.4337  1.3678 -0.2439
  686MOL0     C90434  -0.514   7.404   0.826  0.7714 -0.5343  0.0953
  686MOL0     C90435  -0.573   7.263   0.828  0.5258  0.1325 -0.2172
  686MOL0     C90436  -0.712   7.242   0.912 -0.7360  0.2553  0.0075
  686MOL0     N90437  -0.824   7.320   0.855 -0.2571  0.3599 -0.2231
  686MOL0     C90438  -0.847   7.458   0.857  0.1555 -0.1306  0.3855
  686MOL0     C90439  -0.956   7.482   0.784  1.3845  0.3634 -0.3206
  686MOL0     C90440  -0.994   7.623   0.757  0.5533  0.1171 -0.5568
  686MOL0     C90441  -1.142   7.635   0.753 -0.0870  0.0026  0.1216
  686MOL0     C90442  -1.184   7.774   0.708  0.3057  0.0695  0.5330
  686MOL0     C90443  -1.329   7.786   0.656  0.6680 -0.8627 -1.2697
  686MOL0     O90444  -1.414   7.865   0.743  0.0275  0.0665 -0.2677
  686MOL0     C90445  -1.413   7.826   0.872  1.4516  0.9044 -0.8981
  686MOL0     C90446  -1.376   7.912   0.974  0.2138  0.7810 -0.4227
  686MOL0     C90447  -1.366   7.863   1.103  0.7184 -0.4100 -0.0905
  686MOL0     C90448  -1.405   7.744   1.143  0.3800  0.2152 -0.1198
  686MOL0     C90449  -1.395   7.703   1.289  0.2319 -0.1401  0.6536
  686MOL0     O90450  -1.366   7.797   1.379  0.7934 -0.1244 -0.5110
  686MOL0     C90451  -1.419   7.780   1.508 -0.2611  0.4419  0.7827
  686MOL0     C90452  -1.541   7.719   1.544  0.0917  0.0964 -0.3434
  686MOL0     C90453  -1.572   7.700   1.679 -0.1316  0.7519 -0.3912
  686MOL0     C90454  -1.493   7.730   1.785  0.6515  0.2893 -0.3747
  686MOL0     O90455  -1.535   7.711   1.915  0.4986 -0.3389  0.1522
  686MOL0     C90456  -1.551   7.829   1.988  0.0431 -0.2915  0.4964
  686MOL0     C90457  -1.654   7.797   2.089  0.2995 -0.1247 -0.4494
  686MOL0     C90458  -1.786   7.732   2.043  0.3114  0.5444  1.1099
  686MOL0     C90459  -1.893   7.769   2.138  0.8034 -0.1514  0.0109
  686MOL0     C90460  -1.982   7.885   2.078  0.5555 -0.7049 -0.3957
  686MOL0     C90461  -2.088   7.933   2.186  0.0541  0.4554  0.7234
  686MOL0     C90462  -2.177   7.812   2.228  0.1552  0.4041  0.5704
  686MOL0     C90463  -2.300   7.849   2.305 -0.1452  0.0804 -0.3784
  686MOL0    Cl90464  -2.260   7.920   2.462  0.0928  0.0594  0.1626
  686MOL0     C90465  -1.385   7.807   1.741  0.2801  0.0533 -0.1278
  686MOL0     C90466  -1.347   7.832   1.609 -0.2673  0.3233 -0.0707
  686MOL0     O90467  -1.411   7.585   1.315  0.3499  0.1271  0.0851
  686MOL0     C90468  -1.435   7.647   1.044  0.1187  0.5453  0.2606
  686MOL0     C90469  -1.437   7.691   0.909  0.8740  0.3020  0.1188
  686MOL0     N90470  -0.994   7.360   0.725  0.0464 -1.3468  0.3112
  686MOL0     N90471  -0.919   7.268   0.771 -0.3106  0.0389  0.3033
  686MOL0     C90472   0.307   7.251   0.696  0.0554 -0.7629 -1.1269
  686MOL0     C90473   0.447   7.233   0.711  0.5022  0.7408 -1.0739
  686MOL0     C90474   0.879   7.171   0.669  0.4167  0.5258  0.3567
  686MOL0     C90475   0.975   7.279   0.672  0.3674  0.3358  0.7681
  686MOL0     C90476   1.107   7.249   0.696 -1.1334 -0.3436 -0.9610
  686MOL0     C90477   1.147   7.120   0.718 -0.3093 -0.3697  0.6729
  686MOL0     O90478   1.281   7.104   0.739 -0.1644 -0.0082  0.3771
  686MOL0     C90479   1.330   6.966   0.742 -0.6553  0.9207  0.5343
  686MOL0     C90480   1.487   6.966   0.740 -0.7258  0.5143 -0.4155
  686MOL0     C90481   1.563   7.007   0.872  0.2997 -0.0733  0.1776
  686MOL0     C90482   1.531   6.924   0.990  0.3227  0.6300  0.1580
  686MOL0     C90483   1.614   6.966   1.101 -0.4800 -0.7036  0.2548
  686MOL0     C90484   1.675   6.979   1.203 -0.1554  0.0014  0.4386
  686MOL0     C90485   1.059   7.019   0.700  0.9366 -0.6343 -0.4904
  686MOL0     C90486   0.925   7.043   0.679 -0.0192 -0.0400 -0.1302
  686MOL0     H90487   0.474   6.908   0.616 -0.2616 -1.1989  2.6650
  686MOL0     H90488   0.228   6.935   0.608 -2.1363  0.2947  0.4155
  686MOL0     H90489   0.082   7.356   0.643  0.7750 -0.2559 -0.2357
  686MOL0     H90490  -0.004   7.292   0.778  2.0691  1.0404 -0.0452
  686MOL0     H90491  -0.132   7.169   0.559 -4.4832  1.5774  0.4086
  686MOL0     H90492  -0.044   7.277   0.469  0.9578  0.8545  0.7797
  686MOL0     H90493  -0.273   7.353   0.496  1.4654 -2.5046 -1.8404
  686MOL0     H90494  -0.166   7.460   0.592 -2.0254  0.1087  0.8433
  686MOL0     H90495  -0.325   7.226   0.696 -0.0253  0.8879 -3.6997
  686MOL0     H90496  -0.245   7.339   0.808 -1.9040 -0.1492  0.4077
  686MOL0     H90497  -0.479   7.413   0.619 -1.7478  0.2482  1.2751
  686MOL0     H90498  -0.380   7.530   0.719  0.7950  1.1317  0.9245
  686MOL0     H90499  -0.592   7.480   0.820  1.8141  0.7226  1.7031
  686MOL0     H90500  -0.460   7.411   0.920  0.6758 -0.4253  0.1428
  686MOL0     H90501  -0.587   7.224   0.727  1.4774 -1.4393  0.2198
  686MOL0     H90502  -0.497   7.194   0.866 -1.4293 -1.4950  0.9131
  686MOL0     H90503  -0.688   7.278   1.013 -1.3841  0.8090 -0.0261
  686MOL0     H90504  -0.737   7.136   0.917 -1.8858  0.4836 -0.5049
  686MOL0     H90505  -0.785   7.530   0.910 -0.0605 -0.4415  1.0747
  686MOL0     H90506  -0.943   7.656   0.666 -1.0078 -2.1691 -2.3593
  686MOL0     H90507  -0.955   7.688   0.836 -0.7224  2.3774 -1.6657
  686MOL0     H90508  -1.189   7.609   0.849 -1.2234  0.8539 -0.1860
  686MOL0     H90509  -1.178   7.560   0.682  1.1016 -1.9014  1.4183
  686MOL0     H90510  -1.166   7.850   0.785 -0.8098  2.0748 -1.0567
  686MOL0     H90511  -1.113   7.788   0.626 -0.7143 -0.5674 -0.4866
  686MOL0     H90512  -1.370   7.685   0.643 -1.2916 -0.2348 -0.3424
  686MOL0     H90513  -1.338   7.840   0.561 -1.4060 -1.5631 -1.5361
  686MOL0     H90514  -1.344   8.010   0.941 -1.3896  1.5277  0.1382
  686MOL0     H90515  -1.328   7.929   1.180 -0.6118  0.5875 -0.2559
  686MOL0     H90516  -1.603   7.681   1.464 -1.0918  1.9571 -0.3686
  686MOL0     H90517  -1.673   7.663   1.697 -0.5308  1.1797 -1.6278
  686MOL0     H90518  -1.586   7.911   1.926 -0.6187 -1.0541 -0.1652
  686MOL0     H90519  -1.461   7.856   2.043 -0.6626  0.6736  1.2084
  686MOL0     H90520  -1.673   7.894   2.136  1.7475 -0.5669  1.1468
  686MOL0     H90521  -1.609   7.740   2.171 -0.9160  0.1542  0.4508
  686MOL0     H90522  -1.770   7.624   2.034 -1.0701  0.2953  1.3963
  686MOL0     H90523  -1.814   7.766   1.943 -1.5856 -2.5845  0.4285
  686MOL0     H90524  -1.957   7.681   2.152 -0.6121  0.7219 -0.7577
  686MOL0     H90525  -1.847   7.789   2.235 -1.2978  1.9473  0.6756
  686MOL0     H90526  -2.036   7.856   1.987 -2.0434 -1.5789  1.2822
  686MOL0     H90527  -1.920   7.972   2.055 -4.0666  3.1982  0.3991
  686MOL0     H90528  -2.140   8.021   2.146  0.8308 -1.3152 -5.0566
  686MOL0     H90529  -2.038   7.958   2.280  0.0746 -2.9317  1.7522
  686MOL0     H90530  -2.198   7.752   2.139  1.4003  2.7376 -1.4188
  686MOL0     H90531  -2.126   7.754   2.304  0.7691  1.6920  1.1743
  686MOL0     H90532  -2.357   7.756   2.303  2.4903 -1.6534  0.1672
  686MOL0     H90533  -2.363   7.926   2.260 -1.4762 -1.7599 -1.7839
  686MOL0     H90534  -1.322   7.861   1.811  0.8914  0.7160 -1.1544
  686MOL0     H90535  -1.267   7.901   1.584 -0.7072  2.4125  3.4910
  686MOL0     H90536  -1.462   7.544   1.067 -0.5985  0.5806 -0.4211
  686MOL0     H90537  -1.475   7.625   0.832  0.7794 -1.2945  1.4811
  686MOL0     H90538   0.261   7.349   0.706  0.2378 -0.5263 -2.4272
  686MOL0     H90539   0.507   7.322   0.727  0.7232  0.2080  1.4133
  686MOL0     H90540   0.945   7.383   0.667  2.6700  1.1048  1.4080
  686MOL0     H90541   1.183   7.324   0.709  0.0006 -1.5705 -0.2456
  686MOL0     H90542   1.304   6.911   0.651 -0.9682 -1.3356  1.8925
  686MOL0     H90543   1.307   6.899   0.826  0.6832 -2.9054 -1.8901
  686MOL0     H90544   1.529   6.868   0.716  0.6545  0.7120  1.0234
  686MOL0     H90545   1.510   7.035   0.658  4.8773 -0.2271  0.1421
  686MOL0     H90546   1.540   7.114   0.874  1.2460  0.1416  0.1760
  686MOL0     H90547   1.668   7.005   0.843 -0.1018  1.1678 -1.5076
  686MOL0     H90548   1.430   6.957   1.018 -0.0911 -0.0957 -0.4581
  686MOL0     H90549   1.534   6.817   0.971 -1.3021  0.6212 -0.2427
  686MOL0     H90550   1.747   7.012   1.276 -0.4397  1.5023  0.0774
  686MOL0     H90551   1.092   6.915   0.702  2.3375 -0.3060 -2.8384
  686MOL0     H90552   0.863   6.955   0.664  0.7872 -1.0583  2.0885
  687MOL0     O90553   4.217  10.528   9.972  0.0845  0.2007 -0.6023
  687MOL0     C90554   4.141  10.621  10.012  0.2840  0.5394  0.6864
  687MOL0     O90555   4.165  10.706  10.114  1.3986 -0.4132  0.1002
  687MOL0     C90556   4.278  10.698  10.183 -1.4645 -0.4906 -1.2455
  687MOL0     C90557   4.300  10.603  10.268 -0.8137 -1.0282  0.0136
  687MOL0     C90558   4.416  10.599  10.343  0.0839 -0.1729 -0.4695
  687MOL0     C90559   4.518  10.697  10.325  0.4610 -0.3945 -0.4780
  687MOL0     O90560   4.634  10.699  10.401  0.1769  0.4666 -0.0160
  687MOL0     C90561   4.645  10.595  10.502 -1.1798 -0.3579 -0.5311
  687MOL0     C90562   4.766  10.626  10.593 -0.6854  0.5039 -0.3528
  687MOL0     C90563   4.797  10.528  10.700 -1.4429  0.2266 -0.3248
  687MOL0     C90564   4.945  10.540  10.754  0.0337  0.1649  0.5292
  687MOL0     C90565   5.030  10.436  10.680  0.1084 -0.0106  0.1920
  687MOL0     C90566   5.182  10.447  10.690  0.4508 -0.4477  0.0554
  687MOL0     C90567   5.270  10.346  10.610  0.3219 -0.0559 -0.1410
  687MOL0     C90568   5.262  10.210  10.686 -0.8559  0.4106 -0.1749
  687MOL0     N90569   5.341  10.108  10.608 -0.0403  0.6152  0.2011
  687MOL0     C90570   5.458  10.138  10.541  0.4354 -0.8789  0.0628
  687MOL0     C90571   5.482  10.037  10.457  0.4071 -0.8083  0.0742
  687MOL0     C90572   5.605  10.001  10.369  0.3122  0.3347  0.2022
  687MOL0     C90573   5.722   9.929  10.443  0.4908 -0.0977 -0.1596
  687MOL0     C90574   5.788  10.013  10.551 -0.4285 -0.4572  0.7155
  687MOL0     C90575   5.934   9.972  10.563  0.3362 -0.9286  0.3392
  687MOL0     O90576   6.007  10.047  10.663 -0.5640 -0.3451  0.2127
  687MOL0     C90577   6.117   9.994  10.718  0.8355  0.5580  0.2395
  687MOL0     C90578   6.133  10.037  10.845  0.1450  0.0389  0.1141
  687MOL0     C90579   6.247  10.000  10.914 -0.2473 -1.1430 -0.7257
  687MOL0     C90580   6.333   9.910  10.859  0.1351  0.1855 -0.4572
  687MOL0     C90581   6.476   9.892  10.919 -0.5774 -0.2133  0.0634
  687MOL0     O90582   6.501   9.954  11.038  0.6224 -0.1662  0.8654
  687MOL0     C90583   6.621   9.949  11.088 -0.1027 -0.6962 -0.0267
  687MOL0     C90584   6.731  10.014  11.029 -0.0316  0.4321 -0.9845
  687MOL0     C90585   6.847  10.029  11.101 -0.8439 -0.7977 -0.1652
  687MOL0     C90586   6.864   9.976  11.235 -1.4259 -1.0742 -0.0322
  687MOL0     O90587   6.985   9.974  11.303 -0.1447 -0.1915 -0.6247
  687MOL0     C90588   7.088  10.063  11.253  0.1862 -0.3318 -1.0652
  687MOL0     C90589   7.213  10.057  11.339 -0.3558 -0.6609  0.6446
  687MOL0     C90590   7.197  10.129  11.475  0.3617 -0.1102  0.1717
  687MOL0     C90591   7.341  10.162  11.540 -0.4303 -0.8432 -0.0216
  687MOL0     C90592   7.343  10.260  11.652 -0.0323 -0.6229  0.7420
  687MOL0     C90593   7.272  10.200  11.771  0.6270 -0.7604 -0.4376
  687MOL0     C90594   7.308  10.291  11.888  0.0583 -0.1865  0.2461
  687MOL0     C90595   7.247  10.242  12.021 -0.5801 -0.3060  0.4152
  687MOL0    Cl90596   7.269  10.355  12.161  0.3985 -0.5792  0.3820
  687MOL0     C90597   6.755   9.904  11.287 -0.1199 -0.1737  0.0604
  687MOL0     C90598   6.631   9.889  11.219  0.1517 -0.9101  1.0826
  687MOL0     O90599   6.568   9.838  10.853  0.2823  0.0551  0.2091
  687MOL0     C90600   6.304   9.849  10.736  0.0538  0.6705 -0.5790
  687MOL0     C90601   6.194   9.890  10.664  0.5006 -0.2093 -0.3020
  687MOL0     N90602   5.379   9.946  10.467  0.1736 -0.4833 -0.1295
  687MOL0     N90603   5.291   9.994  10.548 -0.0758 -0.5494 -0.7549
  687MOL0     C90604   4.498  10.784  10.231  0.0895 -0.1352  0.1861
  687MOL0     C90605   4.380  10.793  10.152  0.8005 -0.4447  0.2313
  687MOL0     C90606   4.010  10.627   9.938  0.5507  0.6792  0.1535
  687MOL0     C90607   3.911  10.716   9.990  0.2888 -0.2598 -0.6587
  687MOL0     C90608   3.785  10.725   9.943 -0.4040 -0.6746 -0.2179
  687MOL0     C90609   3.752  10.644   9.835  0.4945  0.4311 -0.3682
  687MOL0     O90610   3.625  10.641   9.774  0.5477  0.3737  0.5120
  687MOL0     C90611   3.523  10.721   9.835  0.0728 -0.1127  0.0631
  687MOL0     C90612   3.393  10.706   9.750 -1.4738  1.1973 -0.8638
  687MOL0     C90613   3.297  10.812   9.804 -0.3837  0.7901 -0.0130
  687MOL0     C90614   3.156  10.810   9.748 -0.6243 -0.8480  0.2523
  687MOL0     C90615   3.081  10.905   9.833  0.5457 -0.1462  1.2737
  687MOL0     C90616   3.025  10.978   9.909 -0.4032 -0.0538 -0.6064
  687MOL0     C90617   3.846  10.547   9.786  0.3240  0.5631 -0.5168
  687MOL0     C90618   3.971  10.532   9.841  0.8964 -0.3482  0.1694
  687MOL0     H90619   4.228  10.523  10.282 -1.1026 -1.7244 -4.2269
  687MOL0     H90620   4.413  10.522  10.419  3.2631  0.7400  0.7262
  687MOL0     H90621   4.676  10.501  10.455  0.5205  1.6392 -3.8059
  687MOL0     H90622   4.554  10.589  10.563  0.8004 -0.9603  2.5460
  687MOL0     H90623   4.757  10.722  10.643  2.4505  0.4412  0.5604
  687MOL0     H90624   4.855  10.633  10.530  0.0184 -0.2976  0.5133
  687MOL0     H90625   4.780  10.425  10.668  0.9412 -1.1955  2.4707
  687MOL0     H90626   4.726  10.555  10.778 -2.8669  0.3608 -1.6190
  687MOL0     H90627   4.990  10.638  10.739 -0.7304  0.4132 -0.2092
  687MOL0     H90628   4.950  10.519  10.861  0.7000  0.1458  0.5017
  687MOL0     H90629   4.999  10.425  10.576 -0.3939 -3.4867  0.5825
  687MOL0     H90630   5.002  10.339  10.724  2.8598 -3.2232 -4.2792
  687MOL0     H90631   5.204  10.426  10.795  1.8385 -3.5338 -0.7414
  687MOL0     H90632   5.197  10.548  10.651 -4.4833 -0.1463 -1.6878
  687MOL0     H90633   5.244  10.334  10.504  2.7535  1.7064 -1.0361
  687MOL0     H90634   5.369  10.391  10.607 -0.1485  1.1494  1.5225
  687MOL0     H90635   5.160  10.173  10.703  0.6476 -4.2695 -0.0495
  687MOL0     H90636   5.311  10.223  10.783 -0.9021  1.0594 -0.2281
  687MOL0     H90637   5.526  10.221  10.559  2.1987 -1.5983 -2.5977
  687MOL0     H90638   5.640  10.095  10.326  1.0911  0.9651  2.0726
  687MOL0     H90639   5.587   9.935  10.284  1.5825 -0.6086  0.6267
  687MOL0     H90640   5.792   9.912  10.361 -0.5429  2.4400 -1.6987
  687MOL0     H90641   5.692   9.832  10.483 -0.3334  0.3381  0.3246
  687MOL0     H90642   5.788  10.117  10.517 -0.5037 -0.1882  1.5125
  687MOL0     H90643   5.735  10.010  10.647 -0.1029  2.3634  1.0794
  687MOL0     H90644   5.985   9.998  10.469  3.4884 -0.8483  1.9409
  687MOL0     H90645   5.937   9.864  10.579 -2.3808 -0.9550  1.1530
  687MOL0     H90646   6.053  10.090  10.896  1.3113 -0.4033  2.5250
  687MOL0     H90647   6.252  10.042  11.014  2.1504  0.6902 -1.5222
  687MOL0     H90648   6.716  10.054  10.929 -0.0881  0.6331 -0.8958
  687MOL0     H90649   6.924  10.083  11.046 -2.2498  0.6452 -0.8048
  687MOL0     H90650   7.047  10.164  11.259 -0.2864 -0.4029 -2.5696
  687MOL0     H90651   7.116  10.048  11.148 -0.8336 -1.2295 -1.2332
  687MOL0     H90652   7.294  10.115  11.294 -2.0743  1.4850  0.1277
  687MOL0     H90653   7.245   9.953  11.352 -1.7079 -1.1633  0.1406
  687MOL0     H90654   7.133  10.073  11.545  0.3243 -0.2262  0.0448
  687MOL0     H90655   7.147  10.223  11.449 -0.7271 -0.9326 -0.8192
  687MOL0     H90656   7.394  10.072  11.576 -0.7540  0.1178  3.2163
  687MOL0     H90657   7.409  10.207  11.467 -0.2929 -2.7284 -1.1228
  687MOL0     H90658   7.297  10.354  11.622  2.6335  0.9142  1.1309
  687MOL0     H90659   7.448  10.269  11.683 -0.8349  2.2441  3.1323
  687MOL0     H90660   7.300  10.096  11.790 -1.7079 -1.1319  1.3481
  687MOL0     H90661   7.163  10.194  11.760  0.6691  1.4240 -3.2876
  687MOL0     H90662   7.416  10.300  11.902  0.1570  3.0309 -1.4937
  687MOL0     H90663   7.266  10.392  11.875 -0.9161 -0.3028  2.1169
  687MOL0     H90664   7.280  10.142  12.052  0.5215  0.0892  0.5496
  687MOL0     H90665   7.142  10.235  11.991 -0.5582  1.2671 -0.1170
  687MOL0     H90666   6.764   9.853  11.382 -2.1439 -4.6504 -1.8806
  687MOL0     H90667   6.571   9.817  11.274 -0.8540  0.1489  1.4129
  687MOL0     H90668   6.379   9.784  10.693  0.3338 -1.0204  2.2249
  687MOL0     H90669   6.187   9.849  10.564 -1.9623 -1.6581  0.3880
  687MOL0     H90670   4.574  10.861  10.222  1.1989 -0.9925  1.8213
  687MOL0     H90671   4.358  10.861  10.071  0.1512 -1.1054 -0.1614
  687MOL0     H90672   3.945  10.772  10.076 -2.0400 -1.9321  1.5038
  687MOL0     H90673   3.715  10.801   9.978  0.5271 -0.1586  0.5861
  687MOL0     H90674   3.552  10.826   9.841  1.6175 -0.5687  1.0904
  687MOL0     H90675   3.507  10.687   9.938  0.0251  3.0550  1.2063
  687MOL0     H90676   3.426  10.727   9.648  0.4160 -2.7127 -1.2615
  687MOL0     H90677   3.354  10.604   9.744 -0.4145  0.7098  0.1917
  687MOL0     H90678   3.345  10.910   9.803  0.8968  0.1826 -0.6693
  687MOL0     H90679   3.276  10.790   9.909 -2.2036 -0.1641 -0.5370
  687MOL0     H90680   3.155  10.842   9.644  0.3990 -0.7630  0.2581
  687MOL0     H90681   3.108  10.715   9.773 -1.0828 -0.7629 -0.2817
  687MOL0     H90682   2.973  11.038   9.981  2.0437 -0.1227  1.3805
  687MOL0     H90683   3.816  10.488   9.701  0.7056  0.4253 -0.5591
  687MOL0     H90684   4.042  10.459   9.803  0.0063 -0.2594 -1.8108
  688MOL0     O90685   8.361  10.977   1.047 -0.4177 -0.0302  0.2844
  688MOL0     C90686   8.428  10.903   1.117 -0.4465 -0.4339 -0.4538
  688MOL0     O90687   8.384  10.812   1.205 -0.3654  0.0424 -0.1446
  688MOL0     C90688   8.251  10.806   1.227 -0.2261  0.0543  0.4318
  688MOL0     C90689   8.203  10.803   1.362  0.0036  0.0591  0.8501
  688MOL0     C90690   8.065  10.807   1.379  0.5429  0.0218 -0.3947
  688MOL0     C90691   7.971  10.809   1.273 -0.4400 -0.2742  0.2705
  688MOL0     O90692   7.838  10.799   1.287  0.8534  0.3587 -0.3993
  688MOL0     C90693   7.797  10.681   1.365  0.4030 -0.0867 -0.4089
  688MOL0     C90694   7.648  10.664   1.308  0.3481 -0.7116  0.1153
  688MOL0     C90695   7.558  10.552   1.373 -0.5312  0.4718  0.5187
  688MOL0     C90696   7.423  10.552   1.300  0.0693  0.9812 -0.3711
  688MOL0     C90697   7.315  10.488   1.386 -0.4521  0.7367  0.2689
  688MOL0     C90698   7.183  10.472   1.316 -0.0813  0.3072  0.9924
  688MOL0     C90699   7.131  10.608   1.276  0.8753  0.1424 -1.3376
  688MOL0     C90700   6.980  10.597   1.240 -1.0189  1.3408 -0.4557
  688MOL0     N90701   6.944  10.504   1.134 -0.0310 -0.0342 -0.0033
  688MOL0     C90702   6.949  10.542   1.005  0.0232 -0.1433  0.0272
  688MOL0     C90703   6.845  10.466   0.955 -0.8197  0.1943  0.3685
  688MOL0     C90704   6.779  10.482   0.816  0.1928 -0.7311  0.0680
  688MOL0     C90705   6.641  10.412   0.809 -0.2507 -0.0986  0.3881
  688MOL0     C90706   6.585  10.417   0.668 -0.2375  0.0092 -0.0638
  688MOL0     C90707   6.514  10.550   0.623 -0.4795  0.1273 -0.5778
  688MOL0     O90708   6.415  10.518   0.522 -0.1906 -0.2573 -0.6519
  688MOL0     C90709   6.286  10.475   0.556 -1.0437  0.1858  0.1183
  688MOL0     C90710   6.215  10.444   0.443  0.8646  0.4833  0.3978
  688MOL0     C90711   6.079  10.413   0.456 -0.7179 -0.7173 -0.4969
  688MOL0     C90712   6.018  10.411   0.582 -0.4160  0.2228  0.1895
  688MOL0     C90713   5.867  10.390   0.590 -0.3432 -0.1342 -0.0269
  688MOL0     O90714   5.794  10.385   0.466 -0.1303 -0.0397 -0.0002
  688MOL0     C90715   5.664  10.336   0.445 -0.3293 -0.6019  0.0746
  688MOL0     C90716   5.563  10.394   0.517  1.2643 -0.1858  0.2835
  688MOL0     C90717   5.428  10.344   0.511 -0.4173  0.3153  1.0628
  688MOL0     C90718   5.403  10.234   0.424  0.6690 -0.1923 -0.7127
  688MOL0     O90719   5.273  10.195   0.427 -0.5900  0.0457 -0.4122
  688MOL0     C90720   5.233  10.119   0.311  0.0700 -1.0009 -0.1371
  688MOL0     C90721   5.086  10.117   0.304 -0.1367 -0.6246 -0.9230
  688MOL0     C90722   5.037  10.074   0.161 -0.4489  0.0645  0.4324
  688MOL0     C90723   4.888  10.023   0.168 -1.1751  0.4252 -0.0668
  688MOL0     C90724   4.850   9.957   0.031 -0.9637 -1.0104  0.5572
  688MOL0     C90725   4.696   9.928   0.009 -0.1707  0.8725 -0.8453
  688MOL0     C90726   4.657   9.810   0.101 -0.6264 -0.2196 -1.0294
  688MOL0     C90727   4.513   9.781   0.109 -0.7337 -0.5154 -0.1834
  688MOL0    Cl90728   4.439   9.763  -0.045 -0.4040  0.0274 -0.0246
  688MOL0     C90729   5.512  10.181   0.355  1.0378 -0.4186 -0.0220
  688MOL0     C90730   5.642  10.220   0.374  0.6195  0.5070  0.4908
  688MOL0     O90731   5.821  10.399   0.703  0.8468  0.1290  0.0263
  688MOL0     C90732   6.091  10.437   0.698 -0.1460  0.1116 -0.5176
  688MOL0     C90733   6.234  10.466   0.680 -0.0558 -0.1201 -0.8983
  688MOL0     N90734   6.792  10.384   1.049  0.0490 -0.2464 -0.1772
  688MOL0     N90735   6.864  10.406   1.159  0.7311  0.8598 -0.2946
  688MOL0     C90736   8.027  10.784   1.148 -0.6897 -0.2233  0.8623
  688MOL0     C90737   8.160  10.793   1.120 -0.3124 -0.1471  0.9483
  688MOL0     C90738   8.574  10.926   1.093  0.6069 -0.4415 -0.0872
  688MOL0     C90739   8.619  11.010   0.985  1.1297  0.3840 -1.2490
  688MOL0     C90740   8.757  11.021   0.967 -0.6776  0.2581 -0.7378
  688MOL0     C90741   8.864  10.957   1.037  0.4096 -1.1408  0.5070
  688MOL0     O90742   9.000  10.974   1.018  0.2233 -0.2563 -0.3161
  688MOL0     C90743   9.060  10.994   0.894 -0.2367  0.2995 -0.0492
  688MOL0     C90744   9.149  11.115   0.898  0.5349 -0.4977 -0.9113
  688MOL0     C90745   9.063  11.243   0.901 -0.2741  0.6265  0.4617
  688MOL0     C90746   9.151  11.366   0.930  0.7598  0.1635  0.5092
  688MOL0     C90747   9.209  11.369   1.061 -1.1651  0.5380  0.9570
  688MOL0     C90748   9.256  11.373   1.171  1.0817 -0.7555 -0.0071
  688MOL0     C90749   8.810  10.873   1.134 -0.9180  0.7839 -0.0677
  688MOL0     C90750   8.668  10.858   1.159 -0.7195 -0.0244 -0.0085
  688MOL0     H90751   8.273  10.800   1.444  3.6647 -0.1173 -2.0444
  688MOL0     H90752   8.008  10.809   1.472 -0.5973  0.7058 -1.0862
  688MOL0     H90753   7.815  10.688   1.472  1.8449 -0.4153 -0.6115
  688MOL0     H90754   7.853  10.589   1.343 -1.3376 -1.7891  1.8504
  688MOL0     H90755   7.657  10.651   1.200 -2.9680  2.0131 -0.6617
  688MOL0     H90756   7.598  10.760   1.320  0.9953 -0.5112  1.3760
  688MOL0     H90757   7.545  10.570   1.480 -1.9529  3.2900 -0.0484
  688MOL0     H90758   7.602  10.453   1.355 -1.4056  0.3353 -1.1084
  688MOL0     H90759   7.379  10.651   1.285  1.5612  1.6192 -0.6938
  688MOL0     H90760   7.421  10.498   1.205 -0.0723 -0.5446  0.4592
  688MOL0     H90761   7.313  10.541   1.482  0.7682 -1.1276  1.3885
  688MOL0     H90762   7.352  10.387   1.407  0.6644  1.3885  1.6261
  688MOL0     H90763   7.118  10.417   1.384  0.6396 -2.2437 -0.2278
  688MOL0     H90764   7.195  10.420   1.220  0.3955  2.2585 -0.0641
  688MOL0     H90765   7.136  10.678   1.360 -1.5984 -1.0363 -0.0927
  688MOL0     H90766   7.189  10.656   1.197  1.5854 -2.2466 -2.3263
  688MOL0     H90767   6.936  10.696   1.225 -4.0536 -0.3556 -4.7469
  688MOL0     H90768   6.928  10.564   1.330 -0.0207  0.8297 -0.0560
  688MOL0     H90769   7.010  10.622   0.964  0.9621 -0.0372  1.5493
  688MOL0     H90770   6.854  10.439   0.748  1.5015  0.0756  0.9502
  688MOL0     H90771   6.772  10.588   0.789 -1.6405 -0.8299  0.0678
  688MOL0     H90772   6.576  10.464   0.880 -3.0092 -1.6573 -0.8177
  688MOL0     H90773   6.655  10.309   0.843  3.8281  0.4174  0.8257
  688MOL0     H90774   6.670  10.398   0.601 -0.0506  1.0076 -0.1206
  688MOL0     H90775   6.514  10.334   0.668 -1.9375  1.4021 -0.1485
  688MOL0     H90776   6.587  10.624   0.589 -0.4115 -0.1923 -1.1534
  688MOL0     H90777   6.451  10.592   0.701 -2.1013 -1.0539 -1.2064
  688MOL0     H90778   6.253  10.459   0.343 -4.3803  3.4509 -1.5776
  688MOL0     H90779   6.010  10.406   0.373 -4.8034  2.7120  2.1586
  688MOL0     H90780   5.575  10.483   0.576 -0.7899  0.9976 -0.9554
  688MOL0     H90781   5.358  10.401   0.571  0.0452 -1.3589  3.2968
  688MOL0     H90782   5.290  10.027   0.319  1.1524 -0.2202  2.1293
  688MOL0     H90783   5.263  10.178   0.224 -0.3004  0.3923  0.6509
  688MOL0     H90784   5.041  10.213   0.328 -0.8844 -0.5396 -2.5272
  688MOL0     H90785   5.034  10.044   0.367 -1.9025 -0.9142 -2.6191
  688MOL0     H90786   5.095   9.993   0.114 -0.0249  1.4864 -1.6640
  688MOL0     H90787   5.041  10.153   0.086 -1.4919 -0.9201 -0.7134
  688MOL0     H90788   4.879   9.951   0.249 -0.0623  0.3237 -0.0223
  688MOL0     H90789   4.825  10.109   0.192  1.0475  1.8886  0.8124
  688MOL0     H90790   4.913   9.870   0.013  1.0442  0.1324  1.6281
  688MOL0     H90791   4.884  10.029  -0.044  0.1846 -0.9024  1.1520
  688MOL0     H90792   4.675   9.909  -0.096 -0.0902  0.7856 -0.8458
  688MOL0     H90793   4.642  10.016   0.046  1.7233  0.5786  3.1458
  688MOL0     H90794   4.704   9.724   0.053  2.0672 -0.8307  2.2608
  688MOL0     H90795   4.700   9.815   0.202 -1.6235 -0.8543 -0.5591
  688MOL0     H90796   4.459   9.855   0.168  0.1630 -2.0145  2.7125
  688MOL0     H90797   4.502   9.690   0.168 -1.5747  0.3353  1.0160
  688MOL0     H90798   5.503  10.092   0.293 -0.5112  0.4721 -1.1656
  688MOL0     H90799   5.732  10.174   0.335 -0.5927  0.7994 -3.0131
  688MOL0     H90800   6.042  10.419   0.793 -1.0544 -4.3479 -1.5974
  688MOL0     H90801   6.304  10.481   0.762  0.3162 -3.3341 -0.4975
  688MOL0     H90802   7.948  10.766   1.075  0.2628  2.4068 -0.9823
  688MOL0     H90803   8.198  10.777   1.020  1.4995 -2.1558  1.8829
  688MOL0     H90804   8.555  11.051   0.908  1.3170  2.0413 -0.5746
  688MOL0     H90805   8.781  11.083   0.881  1.9840  0.1774 -0.1331
  688MOL0     H90806   8.997  11.003   0.805  1.1273  1.8319 -0.8908
  688MOL0     H90807   9.129  10.912   0.873  1.0001  0.6741  2.2663
  688MOL0     H90808   9.223  11.103   0.977  1.6157  1.6765 -1.5263
  688MOL0     H90809   9.203  11.120   0.803 -0.2948  0.0537 -1.3731
  688MOL0     H90810   8.984  11.238   0.977  0.0002  1.0732  0.7747
  688MOL0     H90811   9.017  11.255   0.802  1.0068  1.0292 -0.1147
  688MOL0     H90812   9.226  11.371   0.851  0.9384 -0.8462  0.6001
  688MOL0     H90813   9.089  11.456   0.917 -0.7473 -0.7910  0.8192
  688MOL0     H90814   9.307  11.378   1.266  0.4892  0.8586  0.2586
  688MOL0     H90815   8.879  10.819   1.198  1.1389  0.9672 -2.0027
  688MOL0     H90816   8.639  10.795   1.242  1.2023 -1.3852 -0.3167
  689MOL0     O90817   9.907   5.156   2.984  0.0096  0.9312 -0.0291
  689MOL0     C90818   9.974   5.250   2.952  0.3231 -0.4900 -0.4572
  689MOL0     O90819   9.942   5.359   2.872  0.1969  0.6922 -0.5008
  689MOL0     C90820   9.829   5.365   2.796 -0.3041 -0.0110  1.1369
  689MOL0     C90821   9.703   5.305   2.825 -0.2934 -0.1843 -0.3517
  689MOL0     C90822   9.597   5.335   2.751  1.0926  0.2068 -0.4274
  689MOL0     C90823   9.614   5.402   2.628 -0.0996  0.1143  0.0010
  689MOL0     O90824   9.508   5.415   2.544  0.4066  0.7008 -0.2974
  689MOL0     C90825   9.390   5.333   2.570  0.7183 -0.0327 -0.4372
  689MOL0     C90826   9.296   5.355   2.449 -0.3324 -0.3991 -0.5701
  689MOL0     C90827   9.213   5.484   2.445  0.8855  0.0916  0.6084
  689MOL0     C90828   9.118   5.471   2.326  0.5280 -0.9724 -0.1776
  689MOL0     C90829   9.049   5.609   2.316  0.8759  0.4749  0.2192
  689MOL0     C90830   8.918   5.604   2.242  0.1932  0.6625  0.3463
  689MOL0     C90831   8.924   5.532   2.107 -0.2831  0.1980  1.4386
  689MOL0     C90832   8.809   5.545   2.001 -1.0244 -0.3026 -0.0082
  689MOL0     N90833   8.678   5.515   2.069 -0.3596 -0.1133 -0.2575
  689MOL0     C90834   8.584   5.611   2.106  0.4849 -0.4985  0.0468
  689MOL0     C90835   8.483   5.532   2.151 -0.3183 -0.8042 -0.1121
  689MOL0     C90836   8.353   5.572   2.218 -0.2207  0.4132  0.3964
  689MOL0     C90837   8.227   5.566   2.130  0.9027 -0.5548 -0.0753
  689MOL0     C90838   8.102   5.581   2.210 -0.2772 -0.0225  0.1957
  689MOL0     C90839   7.981   5.607   2.126  0.3313  0.2368  0.6634
  689MOL0     O90840   7.859   5.622   2.207  0.1878 -0.2871 -0.5308
  689MOL0     C90841   7.737   5.638   2.144 -0.3322 -0.4148  0.5348
  689MOL0     C90842   7.628   5.658   2.228  0.8654 -0.1399 -0.5261
  689MOL0     C90843   7.489   5.670   2.185 -0.1629  0.4170  1.0968
  689MOL0     C90844   7.459   5.668   2.049  0.6417  0.1412  0.4684
  689MOL0     C90845   7.320   5.696   1.995  0.3337  1.4946 -0.1131
  689MOL0     O90846   7.284   5.685   1.862 -0.7779 -0.2236  0.2202
  689MOL0     C90847   7.156   5.709   1.830  0.1264 -0.1406  0.3087
  689MOL0     C90848   7.110   5.838   1.837  0.1010 -0.5119 -0.8863
  689MOL0     C90849   6.982   5.874   1.792  0.8111  0.1875  0.3108
  689MOL0     C90850   6.892   5.773   1.746  0.3037 -0.7166 -0.1806
  689MOL0     O90851   6.771   5.818   1.703  0.7328 -1.0559  0.4625
  689MOL0     C90852   6.671   5.732   1.652  0.1893 -0.1988  0.0649
  689MOL0     C90853   6.553   5.817   1.605 -0.1247 -0.5603 -0.1912
  689MOL0     C90854   6.465   5.860   1.715  0.1900  0.4655  0.0946
  689MOL0     C90855   6.339   5.939   1.668  0.4005  0.4172 -0.1140
  689MOL0     C90856   6.272   5.991   1.795  0.0708  0.7975 -0.0778
  689MOL0     C90857   6.156   6.078   1.753  0.5055 -0.2105 -0.4150
  689MOL0     C90858   6.063   6.109   1.878 -0.0237 -0.4087 -0.0538
  689MOL0     C90859   6.115   6.226   1.956 -0.1378  0.2629 -0.2098
  689MOL0    Cl90860   5.979   6.282   2.051  0.3829 -0.3107 -0.2589
  689MOL0     C90861   6.942   5.639   1.728 -0.0942 -0.8112  0.5719
  689MOL0     C90862   7.071   5.611   1.770 -0.0834 -1.1436  0.4344
  689MOL0     O90863   7.244   5.741   2.078  0.1357  0.7236  0.3686
  689MOL0     C90864   7.571   5.657   1.951  0.0425 -0.1183 -0.7425
  689MOL0     C90865   7.706   5.641   2.002 -0.0621  0.0182  0.3390
  689MOL0     N90866   8.525   5.402   2.149  0.4630  0.0643  0.1165
  689MOL0     N90867   8.635   5.392   2.089 -0.3771  0.1958  0.2435
  689MOL0     C90868   9.735   5.465   2.597  0.5502  0.1441  1.3437
  689MOL0     C90869   9.836   5.447   2.680 -0.1276 -0.9465 -0.2100
  689MOL0     C90870  10.108   5.255   3.025 -0.1765 -0.0362  0.7666
  689MOL0     C90871  10.186   5.145   3.052 -0.3074  0.6055  0.2199
  689MOL0     C90872  10.309   5.160   3.110 -0.8972 -0.2437  0.2711
  689MOL0     C90873  10.373   5.287   3.122  0.3115  0.5676  0.2770
  689MOL0     O90874  10.495   5.295   3.188 -0.5418 -0.5449  0.1195
  689MOL0     C90875  10.583   5.406   3.153 -0.2178 -0.4733  0.2171
  689MOL0     C90876  10.717   5.356   3.201 -0.4451 -0.3310 -0.4502
  689MOL0     C90877  10.831   5.455   3.161  0.3401 -0.6930 -0.4352
  689MOL0     C90878  10.972   5.402   3.176  0.5688 -0.5286 -0.0736
  689MOL0     C90879  11.074   5.500   3.214  0.3266  0.0130 -0.0934
  689MOL0     C90880  11.154   5.591   3.243  0.7605  0.5397 -0.2719
  689MOL0     C90881  10.309   5.400   3.071  0.6866  0.7776  0.7718
  689MOL0     C90882  10.173   5.384   3.030 -0.5763 -0.9281  0.3971
  689MOL0     H90883   9.693   5.249   2.917 -2.4525  0.2605 -0.2670
  689MOL0     H90884   9.513   5.282   2.795  1.9143  0.0434  0.9973
  689MOL0     H90885   9.341   5.348   2.667 -1.1848 -4.0402 -0.5935
  689MOL0     H90886   9.409   5.226   2.572  0.8908  0.0147  1.2690
  689MOL0     H90887   9.214   5.283   2.443 -1.9091  1.2677 -0.1370
  689MOL0     H90888   9.361   5.346   2.361  1.9175  0.2119  0.9616
  689MOL0     H90889   9.294   5.557   2.436  1.7649 -0.8333  0.8905
  689MOL0     H90890   9.156   5.500   2.536 -0.3525 -1.2336  0.1012
  689MOL0     H90891   9.182   5.457   2.238  1.4000  0.6725  0.1544
  689MOL0     H90892   9.046   5.398   2.364  1.5250 -1.4461  0.8372
  689MOL0     H90893   9.116   5.675   2.259  2.5539 -0.0243  1.5284
  689MOL0     H90894   9.025   5.649   2.415  0.9174  1.1283 -0.0278
  689MOL0     H90895   8.884   5.706   2.222 -0.4128  0.1885 -1.1556
  689MOL0     H90896   8.849   5.550   2.308  2.1687 -1.9125  0.4744
  689MOL0     H90897   9.016   5.557   2.054  0.2957 -4.6435 -0.3348
  689MOL0     H90898   8.933   5.424   2.127 -0.2302 -0.2464 -0.7548
  689MOL0     H90899   8.828   5.484   1.912 -0.9837  0.3359 -0.4383
  689MOL0     H90900   8.798   5.650   1.972 -2.5541 -0.3468  0.3313
  689MOL0     H90901   8.569   5.716   2.088  0.2794 -0.6255 -0.5532
  689MOL0     H90902   8.374   5.668   2.265 -0.4897 -0.6411  2.8271
  689MOL0     H90903   8.333   5.490   2.288  1.5868 -2.1907 -1.9609
  689MOL0     H90904   8.218   5.472   2.075  0.2639 -0.6093  0.1254
  689MOL0     H90905   8.239   5.648   2.059  2.7427 -0.1457  0.6486
  689MOL0     H90906   8.082   5.487   2.262  2.5371 -1.1425 -0.5875
  689MOL0     H90907   8.108   5.662   2.283  2.1075  1.4452 -1.4862
  689MOL0     H90908   7.959   5.523   2.060 -1.2534  0.1655  1.2499
  689MOL0     H90909   8.007   5.696   2.068  0.5732  0.8242  1.6354
  689MOL0     H90910   7.646   5.671   2.335 -1.7295 -1.3480  0.1289
  689MOL0     H90911   7.419   5.686   2.266 -0.0291  1.4399  1.0245
  689MOL0     H90912   7.171   5.922   1.867  0.7491  0.1432 -3.7437
  689MOL0     H90913   6.951   5.977   1.776  2.7298  0.9719  1.2952
  689MOL0     H90914   6.630   5.664   1.727 -2.1809 -2.8347 -3.3203
  689MOL0     H90915   6.706   5.677   1.565 -2.7082  1.5463 -2.4274
  689MOL0     H90916   6.492   5.768   1.529 -0.2051  3.5785 -3.1454
  689MOL0     H90917   6.606   5.900   1.557  0.2004 -0.2826  0.6307
  689MOL0     H90918   6.527   5.917   1.784 -0.0624  1.1406 -0.2198
  689MOL0     H90919   6.433   5.776   1.777  0.5683 -0.1780 -0.5612
  689MOL0     H90920   6.369   6.027   1.610  0.6089  0.0410 -0.5783
  689MOL0     H90921   6.274   5.879   1.604  0.1765  1.3915 -0.8221
  689MOL0     H90922   6.350   6.043   1.851  2.2557 -1.7281 -0.5579
  689MOL0     H90923   6.230   5.910   1.855  0.4594  0.1268 -0.6815
  689MOL0     H90924   6.101   6.012   1.686  3.2563 -1.7485 -1.2861
  689MOL0     H90925   6.178   6.169   1.697 -2.5579 -0.5921 -2.4807
  689MOL0     H90926   5.963   6.136   1.842 -0.9532 -2.9765  0.3830
  689MOL0     H90927   6.046   6.029   1.950 -0.8406  1.2568  1.7317
  689MOL0     H90928   6.148   6.307   1.890 -1.0217 -0.6256 -1.8006
  689MOL0     H90929   6.210   6.207   2.007 -0.8402 -2.6286  0.1746
  689MOL0     H90930   6.878   5.562   1.686  0.5987 -1.3438  0.4698
  689MOL0     H90931   7.101   5.511   1.742 -1.8604 -1.4367 -0.5863
  689MOL0     H90932   7.539   5.665   1.847 -1.7152 -0.0478 -0.2380
  689MOL0     H90933   7.787   5.646   1.930 -0.0396  0.4252  0.3916
  689MOL0     H90934   9.747   5.517   2.502  0.2268  1.6057  2.0671
  689MOL0     H90935   9.934   5.494   2.671 -0.0476 -1.1566 -0.4451
  689MOL0     H90936  10.143   5.048   3.033 -0.2825  0.7569 -0.6328
  689MOL0     H90937  10.375   5.089   3.159  0.7740  1.1813  0.1886
  689MOL0     H90938  10.552   5.496   3.206 -2.0002 -0.0610 -1.4065
  689MOL0     H90939  10.581   5.419   3.045 -2.5241  0.9904  0.3635
  689MOL0     H90940  10.692   5.368   3.308 -2.0702 -1.8064 -0.6215
  689MOL0     H90941  10.745   5.257   3.165  1.8736  0.0806  0.0884
  689MOL0     H90942  10.813   5.550   3.212 -0.1858 -1.3653  0.6566
  689MOL0     H90943  10.821   5.481   3.055  0.3728  1.9139  0.1482
  689MOL0     H90944  10.974   5.312   3.240  0.7626 -1.0171 -0.7549
  689MOL0     H90945  11.011   5.362   3.082  0.1601 -2.0250  0.3666
  689MOL0     H90946  11.236   5.657   3.260  1.3265 -0.9595  3.8910
  689MOL0     H90947  10.351   5.500   3.068  1.7626  0.3430 -1.7427
  689MOL0     H90948  10.118   5.471   2.995  0.1732 -0.4782  0.3031
  690MOL0     O90949   0.292   4.219   1.603 -0.1697 -0.3262  0.2539
  690MOL0     C90950   0.297   4.121   1.529 -0.0112 -0.3693  1.0169
  690MOL0     O90951   0.191   4.032   1.514 -0.3659 -0.4075  0.5299
  690MOL0     C90952   0.071   4.044   1.581 -0.2749 -0.1249 -0.5107
  690MOL0     C90953   0.050   4.063   1.716 -0.7177  0.6769  0.5660
  690MOL0     C90954  -0.079   4.058   1.773 -0.6147  0.3878  0.1739
  690MOL0     C90955  -0.188   4.051   1.692 -0.0152 -0.0024 -0.0864
  690MOL0     O90956  -0.316   4.056   1.749 -0.0234 -0.4577  0.8959
  690MOL0     C90957  -0.442   4.068   1.679 -0.3033 -0.0473  0.5637
  690MOL0     C90958  -0.552   4.105   1.780 -0.3431  0.8996 -0.3407
  690MOL0     C90959  -0.697   4.071   1.725  0.4366 -0.2021  0.8904
  690MOL0     C90960  -0.806   4.105   1.820 -0.1818  0.7811 -1.0931
  690MOL0     C90961  -0.956   4.107   1.769  0.0307  0.5507 -0.2518
  690MOL0     C90962  -1.042   4.178   1.871  0.6075 -0.8555 -0.2846
  690MOL0     C90963  -1.194   4.189   1.827  0.3362 -0.0315  0.0226
  690MOL0     C90964  -1.299   4.201   1.945 -0.6692  0.7033 -0.0569
  690MOL0     N90965  -1.432   4.170   1.902  0.0346  0.6669 -0.0275
  690MOL0     C90966  -1.529   4.261   1.875 -0.1659  0.2543 -0.8612
  690MOL0     C90967  -1.639   4.185   1.837  0.2171  0.6060 -0.2111
  690MOL0     C90968  -1.771   4.243   1.785 -0.0727 -0.0110  0.3583
  690MOL0     C90969  -1.869   4.286   1.897 -0.3380  0.2024  0.2287
  690MOL0     C90970  -1.972   4.389   1.843  0.2494  0.2106 -0.3633
  690MOL0     C90971  -2.115   4.315   1.817 -0.3607  0.1386 -0.0535
  690MOL0     O90972  -2.189   4.316   1.943 -0.3916  0.4828  0.4316
  690MOL0     C90973  -2.300   4.238   1.954  0.1377  0.8264 -0.0441
  690MOL0     C90974  -2.361   4.229   2.082 -0.1886  0.2281  0.5393
  690MOL0     C90975  -2.474   4.155   2.096  0.3324 -0.6229  0.4993
  690MOL0     C90976  -2.528   4.074   1.992 -0.8913 -0.3847  0.8906
  690MOL0     C90977  -2.656   3.995   2.006 -0.5723  0.0001 -0.0587
  690MOL0     O90978  -2.715   3.926   1.903 -0.0722 -0.8617 -0.7474
  690MOL0     C90979  -2.813   3.848   1.943 -0.0246  1.3184 -0.3237
  690MOL0     C90980  -2.794   3.710   1.950 -0.6477 -0.2850  0.0021
  690MOL0     C90981  -2.910   3.628   1.963  0.4585  0.3502  0.2346
  690MOL0     C90982  -3.038   3.685   1.986 -0.7611  0.2907 -0.0760
  690MOL0     O90983  -3.151   3.614   2.001  0.2483  0.1941  1.2283
  690MOL0     C90984  -3.157   3.489   2.064 -0.6945  0.4105  1.0091
  690MOL0     C90985  -3.258   3.398   2.011 -0.2436  0.2762 -0.4647
  690MOL0     C90986  -3.395   3.471   2.006 -0.0159 -0.4332  0.0061
  690MOL0     C90987  -3.505   3.376   1.971 -0.8222 -0.1583  0.2311
  690MOL0     C90988  -3.648   3.449   1.960  0.5339  0.5320  0.2363
  690MOL0     C90989  -3.774   3.352   1.956 -0.3966 -0.1081  0.9215
  690MOL0     C90990  -3.813   3.322   2.098 -0.2903  0.8193  1.1388
  690MOL0     C90991  -3.893   3.191   2.109  0.7107  0.1245  0.2321
  690MOL0    Cl90992  -3.779   3.065   2.135  0.1204 -0.2099 -0.2789
  690MOL0     C90993  -3.047   3.821   1.981  0.3757 -0.9707 -0.4914
  690MOL0     C90994  -2.941   3.905   1.954 -0.8898  0.1898 -0.3063
  690MOL0     O90995  -2.711   4.004   2.116 -0.3490  0.6178 -0.5544
  690MOL0     C90996  -2.457   4.075   1.870 -0.0528  0.0827  0.4205
  690MOL0     C90997  -2.354   4.158   1.851 -0.6791 -0.1418 -0.8042
  690MOL0     N90998  -1.600   4.048   1.841  0.6671 -0.2739 -0.4079
  690MOL0     N90999  -1.480   4.041   1.893  0.7300  0.2329  0.0077
  690MOL0     C91000  -0.169   4.040   1.554 -0.3978  0.6621 -0.8000
  690MOL0     C91001  -0.042   4.029   1.501 -0.1684  0.6134  0.8160
  690MOL0     C91002   0.417   4.113   1.435  0.8740  0.4734  0.1508
  690MOL0     C91003   0.516   4.215   1.434  0.1366  0.6270 -0.0244
  690MOL0     C91004   0.609   4.211   1.329 -0.0375 -0.6531 -0.1641
  690MOL0     C91005   0.617   4.105   1.246 -0.1961 -0.2776  0.3023
  690MOL0     O91006   0.702   4.133   1.138  0.2837 -0.4437  0.0634
  690MOL0     C91007   0.692   4.060   1.009  0.4782 -0.6080  0.8726
  690MOL0     C91008   0.777   3.925   1.014 -0.0272 -0.4561 -0.1128
  690MOL0     C91009   0.740   3.822   0.906 -0.6952 -1.0927  0.6766
  690MOL0     C91010   0.832   3.699   0.900 -0.1003 -0.2617 -0.7727
  690MOL0     C91011   0.782   3.622   0.793  0.0677 -0.2216  0.3568
  690MOL0     C91012   0.754   3.558   0.691  0.0895 -0.2131  0.0531
  690MOL0     C91013   0.537   3.997   1.255 -0.1928 -0.2148 -0.1005
  690MOL0     C91014   0.426   4.000   1.350 -0.2134 -0.4389  1.2368
  690MOL0     H91015   0.146   4.075   1.765 -0.1351  2.3153 -0.8863
  690MOL0     H91016  -0.108   4.080   1.875 -1.5501  0.5396 -0.1138
  690MOL0     H91017  -0.470   3.974   1.630 -2.5184 -0.3104  2.1976
  690MOL0     H91018  -0.438   4.138   1.595 -1.4614 -2.3048 -1.4845
  690MOL0     H91019  -0.551   4.212   1.803 -1.7207  0.7706  0.4613
  690MOL0     H91020  -0.541   4.047   1.872  0.2697 -1.0034 -1.5674
  690MOL0     H91021  -0.696   3.964   1.705  0.1252  0.0464 -0.5575
  690MOL0     H91022  -0.725   4.129   1.636 -0.0215  0.3925  1.4142
  690MOL0     H91023  -0.804   4.042   1.910 -1.5463  2.8242  0.4517
  690MOL0     H91024  -0.783   4.208   1.848  1.0117  0.5890 -1.3134
  690MOL0     H91025  -0.996   4.006   1.751 -0.0724  0.1485  1.9391
  690MOL0     H91026  -0.964   4.168   1.679 -2.0994  1.0621  0.2238
  690MOL0     H91027  -1.021   4.281   1.899  1.9186 -1.5501  1.4511
  690MOL0     H91028  -1.047   4.117   1.962 -0.4719 -1.6223 -0.8255
  690MOL0     H91029  -1.218   4.277   1.766 -0.2030  1.8039  2.7022
  690MOL0     H91030  -1.219   4.096   1.774  0.8821  1.7722 -3.7754
  690MOL0     H91031  -1.296   4.305   1.980 -0.4190  1.2519 -1.5863
  690MOL0     H91032  -1.261   4.133   2.021 -2.8556 -1.6954 -0.9521
  690MOL0     H91033  -1.510   4.368   1.877  0.0581  0.2105  0.6766
  690MOL0     H91034  -1.811   4.174   1.709  1.3453  1.3466 -1.7145
  690MOL0     H91035  -1.744   4.333   1.728 -1.1893 -1.3101 -2.4447
  690MOL0     H91036  -1.805   4.327   1.976  1.6432  0.9369 -1.6379
  690MOL0     H91037  -1.921   4.197   1.934 -0.8201  1.1265  1.8617
  690MOL0     H91038  -1.970   4.463   1.923  1.6153  2.3987 -2.2977
  690MOL0     H91039  -1.948   4.448   1.754 -0.4481  1.2873  0.1433
  690MOL0     H91040  -2.088   4.213   1.787  0.7423  0.8941 -1.7812
  690MOL0     H91041  -2.182   4.363   1.746 -2.1114  1.2984  2.2288
  690MOL0     H91042  -2.323   4.277   2.171  2.1916 -2.6654  1.2864
  690MOL0     H91043  -2.537   4.175   2.182  1.3510  1.5776  0.8172
  690MOL0     H91044  -2.693   3.669   1.945  0.3127  1.0632  4.1211
  690MOL0     H91045  -2.895   3.522   1.950 -1.1111  0.1983 -0.6294
  690MOL0     H91046  -3.166   3.509   2.171  1.5603 -0.8306  1.5037
  690MOL0     H91047  -3.063   3.436   2.049  0.0581  1.2807  2.4033
  690MOL0     H91048  -3.265   3.313   2.079 -0.4948 -0.9746 -1.9911
  690MOL0     H91049  -3.234   3.376   1.907 -2.6050  2.0374 -1.4624
  690MOL0     H91050  -3.394   3.540   1.920  0.9681 -0.2927  0.1131
  690MOL0     H91051  -3.416   3.522   2.100  1.1387  0.0381  0.0303
  690MOL0     H91052  -3.497   3.336   1.870 -4.0746 -0.6944  0.0887
  690MOL0     H91053  -3.497   3.298   2.047  0.2075  0.9304  1.2971
  690MOL0     H91054  -3.659   3.506   1.866 -0.7823  0.4323  0.3010
  690MOL0     H91055  -3.661   3.515   2.047 -1.2138  0.5920 -0.0254
  690MOL0     H91056  -3.749   3.260   1.903 -0.9135 -0.6502  1.5880
  690MOL0     H91057  -3.857   3.402   1.906  1.4961  1.0350 -1.2740
  690MOL0     H91058  -3.728   3.317   2.166  0.2776 -1.6024  0.3443
  690MOL0     H91059  -3.873   3.405   2.138 -1.7741 -0.2277  1.1998
  690MOL0     H91060  -3.944   3.178   2.013  0.5102  1.2974  0.1620
  690MOL0     H91061  -3.971   3.187   2.186  2.1798 -0.7738  1.7392
  690MOL0     H91062  -3.141   3.873   1.998  1.5937  2.7133 -3.5320
  690MOL0     H91063  -2.960   4.012   1.954 -0.8663  0.1993  0.4870
  690MOL0     H91064  -2.499   4.020   1.786  0.1157  2.0924 -1.0677
  690MOL0     H91065  -2.301   4.155   1.756  1.0647  1.1414  0.0577
  690MOL0     H91066  -0.256   4.030   1.491 -0.5196  0.0545 -0.5376
  690MOL0     H91067  -0.041   4.022   1.393 -0.3517 -0.6831  0.8825
  690MOL0     H91068   0.519   4.303   1.499 -0.8283  2.3352 -2.1588
  690MOL0     H91069   0.679   4.292   1.307 -1.2518 -0.1103 -2.3051
  690MOL0     H91070   0.710   4.124   0.923 -0.7433 -0.1205  0.9619
  690MOL0     H91071   0.588   4.027   1.003 -0.0037  1.1599 -1.4244
  690MOL0     H91072   0.882   3.946   0.992 -0.1460 -1.4785 -1.8460
  690MOL0     H91073   0.780   3.888   1.117  2.8799  1.7504  0.7281
  690MOL0     H91074   0.747   3.871   0.808 -1.1571 -2.4730 -0.0705
  690MOL0     H91075   0.634   3.800   0.920 -1.6309  3.0516  1.5910
  690MOL0     H91076   0.935   3.729   0.882  0.8774  1.4851  5.5318
  690MOL0     H91077   0.820   3.648   0.996 -1.8788  1.9397  0.2745
  690MOL0     H91078   0.737   3.503   0.600  1.7382 -1.4926  0.4694
  690MOL0     H91079   0.558   3.910   1.195  3.5735 -0.2725  1.0717
  690MOL0     H91080   0.349   3.924   1.364 -1.3964  0.2761 -0.9223
  691MOL0     O91081   0.414  10.752   1.970 -0.5271  0.5225  0.4631
  691MOL0     C91082   0.463  10.864   1.990 -0.4210  0.3118  0.3728
  691MOL0     O91083   0.405  10.989   1.976  0.6479  0.5243  0.3572
  691MOL0     C91084   0.265  11.000   1.959 -0.0353 -0.1079 -0.2980
  691MOL0     C91085   0.160  10.916   2.013  0.7978  0.2488  0.4732
  691MOL0     C91086   0.026  10.953   2.015  0.6574  0.9994 -0.3993
  691MOL0     C91087  -0.010  11.065   1.935  0.2789 -0.5479 -0.6723
  691MOL0     O91088  -0.134  11.101   1.891 -0.4647  0.1218 -0.5118
  691MOL0     C91089  -0.243  11.069   1.970 -0.0941 -0.2663  1.0713
  691MOL0     C91090  -0.375  11.073   1.891 -1.1946 -0.5407  0.1416
  691MOL0     C91091  -0.437  11.213   1.881 -0.4485  0.2815 -0.1560
  691MOL0     C91092  -0.549  11.217   1.779  0.0774 -0.5903  0.3398
  691MOL0     C91093  -0.655  11.325   1.820 -0.1378  0.2859  0.6061
  691MOL0     C91094  -0.587  11.463   1.810  0.5977  1.3377  0.2095
  691MOL0     C91095  -0.679  11.580   1.830 -0.7135  0.0775 -0.1564
  691MOL0     C91096  -0.601  11.682   1.911 -0.9427 -0.6387 -0.2471
  691MOL0     N91097  -0.662  11.815   1.912 -0.0474  0.3350 -0.2373
  691MOL0     C91098  -0.793  11.847   1.936  0.1948  0.7667 -0.4362
  691MOL0     C91099  -0.799  11.984   1.947 -0.2161  0.3840 -0.6247
  691MOL0     C91100  -0.918  12.076   1.957  0.1623 -0.4215 -0.0878
  691MOL0     C91101  -0.971  12.103   1.815  0.3230 -0.4227  0.7668
  691MOL0     C91102  -1.087  12.198   1.813  0.2059 -0.3949  0.3026
  691MOL0     C91103  -1.162  12.214   1.687  0.3950 -0.3629  0.4955
  691MOL0     O91104  -1.275  12.302   1.701 -0.8118 -0.5088  0.2540
  691MOL0     C91105  -1.371  12.304   1.606 -0.0932 -0.0966 -0.4322
  691MOL0     C91106  -1.497  12.345   1.655  0.3323  0.4897 -0.5075
  691MOL0     C91107  -1.610  12.333   1.570  0.1013  0.7807  0.5351
  691MOL0     C91108  -1.595  12.266   1.446  0.4382 -0.0937  0.0834
  691MOL0     C91109  -1.719  12.223   1.373  1.4635 -0.6012  0.7557
  691MOL0     O91110  -1.846  12.258   1.420  0.6192 -0.5673 -0.0263
  691MOL0     C91111  -1.969  12.226   1.361 -0.8127 -0.5226  1.1051
  691MOL0     C91112  -1.992  12.119   1.269  0.9170  0.5898 -0.6863
  691MOL0     C91113  -2.123  12.090   1.229 -0.0232  0.1704  0.3256
  691MOL0     C91114  -2.235  12.158   1.280 -0.3263 -0.1330  0.2548
  691MOL0     O91115  -2.356  12.127   1.220  0.4262  0.4157  0.0322
  691MOL0     C91116  -2.458  12.230   1.207  0.3848  0.4545 -0.7146
  691MOL0     C91117  -2.520  12.207   1.061  0.0086 -1.5046 -1.2761
  691MOL0     C91118  -2.626  12.097   1.055 -0.0407  0.7449 -0.2823
  691MOL0     C91119  -2.651  12.052   0.907  0.6077 -0.6491 -0.4084
  691MOL0     C91120  -2.751  11.942   0.908 -0.7386  0.5704  0.1915
  691MOL0     C91121  -2.778  11.894   0.771 -0.3314  0.3471  0.0755
  691MOL0     C91122  -2.655  11.889   0.674 -0.8711 -0.2706 -0.3093
  691MOL0     C91123  -2.697  11.793   0.563  0.4978 -0.8159 -0.0945
  691MOL0    Cl91124  -2.615  11.806   0.402  0.0594 -0.3358  0.2454
  691MOL0     C91125  -2.211  12.261   1.380  0.5430  0.4421 -0.7560
  691MOL0     C91126  -2.083  12.292   1.423  0.9345 -0.6632  0.3351
  691MOL0     O91127  -1.699  12.171   1.270 -0.8126  0.1332 -0.3748
  691MOL0     C91128  -1.468  12.221   1.405 -0.2981 -0.5436 -0.0471
  691MOL0     C91129  -1.351  12.255   1.482  0.0406 -0.7311  0.4523
  691MOL0     N91130  -0.675  12.030   1.925 -1.1154 -0.1858  0.1416
  691MOL0     N91131  -0.593  11.935   1.905  0.3590  0.2740 -0.4505
  691MOL0     C91132   0.089  11.140   1.869  0.6995 -0.3978 -0.3897
  691MOL0     C91133   0.225  11.109   1.883 -0.5357  0.3560  1.1701
  691MOL0     C91134   0.606  10.860   2.035  0.8101 -0.2491 -0.5396
  691MOL0     C91135   0.661  10.739   2.076 -0.4123  0.1285  0.2717
  691MOL0     C91136   0.800  10.740   2.107  0.8084 -0.3536 -0.4660
  691MOL0     C91137   0.883  10.854   2.100  1.0250 -0.8330  0.5760
  691MOL0     O91138   1.011  10.836   2.127 -0.9466 -0.1923 -0.4820
  691MOL0     C91139   1.096  10.950   2.090  0.7760 -0.4127 -0.5855
  691MOL0     C91140   1.247  10.926   2.097  0.8438  0.0619 -0.9522
  691MOL0     C91141   1.327  11.048   2.132  1.0148  0.6627 -0.6843
  691MOL0     C91142   1.477  11.014   2.134 -0.5928 -0.1396  0.7086
  691MOL0     C91143   1.546  11.139   2.174  0.1399  0.2800 -0.1771
  691MOL0     C91144   1.600  11.236   2.217 -0.0390 -0.1523 -0.5640
  691MOL0     C91145   0.818  10.971   2.056 -0.1362 -0.5953 -0.4892
  691MOL0     C91146   0.684  10.977   2.033  0.4115  0.4806  0.0204
  691MOL0     H91147   0.192  10.831   2.072 -0.1296  0.8334  1.8728
  691MOL0     H91148  -0.045  10.893   2.070  0.6749  1.5759  0.2562
  691MOL0     H91149  -0.253  11.149   2.044 -0.3359  0.4060  0.3210
  691MOL0     H91150  -0.232  10.970   2.015  2.7958  0.3331  1.9043
  691MOL0     H91151  -0.451  11.003   1.930  0.1936 -2.5395 -0.5886
  691MOL0     H91152  -0.352  11.038   1.791  2.3986 -1.7991  1.2630
  691MOL0     H91153  -0.360  11.279   1.838 -1.6201  0.0962 -2.7050
  691MOL0     H91154  -0.477  11.247   1.977 -1.5171  0.8571 -0.7876
  691MOL0     H91155  -0.511  11.245   1.681  1.1455  1.1241  1.1949
  691MOL0     H91156  -0.594  11.117   1.772 -0.0153 -0.8941  3.5791
  691MOL0     H91157  -0.680  11.318   1.926  2.0851  1.8641  1.3055
  691MOL0     H91158  -0.743  11.326   1.755  0.6392  0.8027 -0.4668
  691MOL0     H91159  -0.547  11.458   1.708  0.5374 -1.2888  0.2316
  691MOL0     H91160  -0.506  11.482   1.881  0.2791 -0.4728  1.1228
  691MOL0     H91161  -0.720  11.627   1.740 -2.2530 -1.2854 -0.2116
  691MOL0     H91162  -0.763  11.549   1.892  0.9888  1.2786  2.9263
  691MOL0     H91163  -0.496  11.698   1.882 -0.3269 -1.1424  1.5918
  691MOL0     H91164  -0.597  11.655   2.017  1.1348  2.1474  0.5170
  691MOL0     H91165  -0.879  11.780   1.936  0.9111 -0.1796 -0.3645
  691MOL0     H91166  -0.893  12.171   2.005  0.2719 -0.8769  0.7764
  691MOL0     H91167  -0.991  12.028   2.023 -0.8830  0.5844 -0.4611
  691MOL0     H91168  -0.995  12.000   1.784 -0.8568 -0.1760  0.8071
  691MOL0     H91169  -0.890  12.145   1.754  0.1904  1.8775  2.0629
  691MOL0     H91170  -1.161  12.163   1.886  0.4283  1.2000  1.3377
  691MOL0     H91171  -1.054  12.300   1.834 -1.3349 -0.1671  1.8220
  691MOL0     H91172  -1.196  12.113   1.661 -0.7272 -0.2667  1.5041
  691MOL0     H91173  -1.094  12.241   1.606  2.0233  0.2062  1.9989
  691MOL0     H91174  -1.525  12.375   1.755 -3.3102 -0.7591 -1.0046
  691MOL0     H91175  -1.709  12.364   1.602 -0.6487 -1.6039  0.7015
  691MOL0     H91176  -1.905  12.068   1.228  1.9149  1.7287 -0.0572
  691MOL0     H91177  -2.130  12.015   1.151 -0.2167  1.4727 -0.9598
  691MOL0     H91178  -2.424  12.333   1.222 -0.0594  0.4405  0.5474
  691MOL0     H91179  -2.546  12.213   1.269  0.1295  0.7602 -0.9947
  691MOL0     H91180  -2.439  12.168   0.999  1.4122 -2.3495  0.9908
  691MOL0     H91181  -2.546  12.307   1.024 -2.0798 -1.0649  1.0889
  691MOL0     H91182  -2.724  12.128   1.093  0.5183 -0.4921  2.4299
  691MOL0     H91183  -2.592  12.014   1.118  0.6695  2.3932  1.6255
  691MOL0     H91184  -2.693  12.139   0.855  2.3886  0.8066  0.4558
  691MOL0     H91185  -2.556  12.018   0.867  0.8795 -4.1972  2.6890
  691MOL0     H91186  -2.849  11.971   0.945 -0.2834  3.8884 -0.9288
  691MOL0     H91187  -2.710  11.858   0.965 -3.0786 -0.9005 -0.1636
  691MOL0     H91188  -2.854  11.960   0.730 -0.5007 -0.0537 -0.2584
  691MOL0     H91189  -2.814  11.792   0.788 -0.2556  0.5473  1.6039
  691MOL0     H91190  -2.640  11.991   0.636 -2.2093  0.9575  2.1676
  691MOL0     H91191  -2.571  11.852   0.733  0.0531 -0.2305 -1.5549
  691MOL0     H91192  -2.801  11.823   0.552 -0.7876 -3.0184  3.9395
  691MOL0     H91193  -2.703  11.688   0.593  2.1617 -1.2693 -1.2160
  691MOL0     H91194  -2.296  12.316   1.419  0.7671 -0.8198  1.7360
  691MOL0     H91195  -2.060  12.353   1.510 -1.6573  0.4979  0.2847
  691MOL0     H91196  -1.461  12.171   1.309  2.4420 -0.2150 -0.0886
  691MOL0     H91197  -1.251  12.243   1.442 -0.5065 -1.6300 -0.7455
  691MOL0     H91198   0.063  11.211   1.791  0.8084  0.7557  0.6086
  691MOL0     H91199   0.307  11.165   1.838  0.9641 -1.8023  1.0440
  691MOL0     H91200   0.604  10.647   2.073  0.1546 -0.2913  1.3652
  691MOL0     H91201   0.851  10.648   2.130  1.1535 -0.4474 -1.5713
  691MOL0     H91202   1.066  11.025   2.163  0.3925 -0.8096 -0.3296
  691MOL0     H91203   1.078  10.979   1.986 -2.8761 -1.0150 -0.2443
  691MOL0     H91204   1.272  10.841   2.161  2.4080 -2.2106 -4.2665
  691MOL0     H91205   1.279  10.884   2.001  0.8492 -1.2856 -0.3860
  691MOL0     H91206   1.295  11.086   2.229  0.7851  0.4739 -0.6833
  691MOL0     H91207   1.306  11.133   2.065 -0.7071  0.6793 -0.1811
  691MOL0     H91208   1.513  10.943   2.209  0.7096  0.4023  0.6242
  691MOL0     H91209   1.508  10.982   2.034  2.2226  2.6418  0.5125
  691MOL0     H91210   1.666  11.311   2.257  0.7722 -1.6316  1.0112
  691MOL0     H91211   0.871  11.064   2.037 -0.6492 -0.2739 -0.3475
  691MOL0     H91212   0.641  11.069   1.994 -0.0892 -0.2700 -1.2181
  692MOL0     O91213   2.238   9.194   2.449 -0.0235 -0.2139  0.0922
  692MOL0     C91214   2.351   9.244   2.459  0.3209  0.2474  0.1292
  692MOL0     O91215   2.382   9.375   2.462  0.2067 -0.6215  0.1375
  692MOL0     C91216   2.311   9.477   2.415  0.0301 -0.3699  0.1092
  692MOL0     C91217   2.369   9.609   2.413 -0.1268 -0.2739 -0.3307
  692MOL0     C91218   2.304   9.723   2.358  1.0086 -0.4029 -0.5047
  692MOL0     C91219   2.167   9.714   2.311 -0.7154 -0.2816 -0.6367
  692MOL0     O91220   2.098   9.819   2.264  0.6568 -0.1174  0.2289
  692MOL0     C91221   2.121   9.946   2.320 -0.1258  0.6765 -0.4757
  692MOL0     C91222   2.027  10.045   2.255 -0.0097  0.2126 -0.4137
  692MOL0     C91223   1.879  10.013   2.269 -0.1713  0.1049 -0.3224
  692MOL0     C91224   1.805  10.146   2.263  0.6818 -0.4098  0.5049
  692MOL0     C91225   1.658  10.115   2.257 -0.2746  0.0283  0.5174
  692MOL0     C91226   1.603  10.059   2.121 -0.1648 -0.8710  0.1410
  692MOL0     C91227   1.453  10.052   2.129 -0.1169  0.5250  0.5748
  692MOL0     C91228   1.402   9.962   2.007 -0.3900  0.2216 -0.1964
  692MOL0     N91229   1.250   9.968   2.014  0.1668 -0.4602  0.6348
  692MOL0     C91230   1.172   9.855   2.012  0.2838  0.4017 -0.0749
  692MOL0     C91231   1.046   9.902   2.022 -1.1392  0.5720  0.4912
  692MOL0     C91232   0.931   9.805   2.017  0.3496  0.1239 -0.4990
  692MOL0     C91233   0.799   9.879   2.059 -0.3375  0.0893  0.4553
  692MOL0     C91234   0.728   9.932   1.935  0.1025 -0.5428  0.6365
  692MOL0     C91235   0.658   9.828   1.847  0.0086 -0.2932  0.5640
  692MOL0     O91236   0.549   9.885   1.775 -0.0361  0.3892 -0.4307
  692MOL0     C91237   0.430   9.907   1.842 -0.2924 -0.2416  0.0821
  692MOL0     C91238   0.404   9.887   1.977 -0.3081 -0.5171  0.7241
  692MOL0     C91239   0.278   9.920   2.024 -0.8692  0.6979  0.0966
  692MOL0     C91240   0.179   9.969   1.938  0.1931  0.6651  0.9749
  692MOL0     C91241   0.051  10.024   1.987  0.4687  0.8264 -0.6492
  692MOL0     O91242  -0.004  10.124   1.914 -0.0517 -0.9739 -0.8487
  692MOL0     C91243  -0.124  10.173   1.950 -0.1779  0.3930 -0.1802
  692MOL0     C91244  -0.161  10.228   2.070 -0.2433  0.0057  1.4467
  692MOL0     C91245  -0.278  10.285   2.095 -0.7241  0.5034 -0.7114
  692MOL0     C91246  -0.385  10.277   2.005 -0.0996 -0.5833 -0.0811
  692MOL0     O91247  -0.500  10.341   2.032 -0.0557  0.1774 -1.0769
  692MOL0     C91248  -0.608  10.340   1.935 -0.6365  0.6766  0.1262
  692MOL0     C91249  -0.715  10.430   1.993  0.7740 -0.1905  0.4902
  692MOL0     C91250  -0.811  10.499   1.889  0.5280 -0.0493 -0.7834
  692MOL0     C91251  -0.878  10.392   1.790 -0.4159 -0.2460  0.3973
  692MOL0     C91252  -0.975  10.460   1.695  0.0829  0.1100  0.4925
  692MOL0     C91253  -0.912  10.544   1.590 -0.1598 -0.1105  0.5598
  692MOL0     C91254  -1.025  10.588   1.493  0.5491 -0.4841 -0.3907
  692MOL0     C91255  -0.978  10.675   1.383  0.6185 -1.1595 -0.7303
  692MOL0    Cl91256  -0.955  10.847   1.437  0.1955  0.3188 -0.1272
  692MOL0     C91257  -0.358  10.217   1.882 -0.1486  0.1063  0.2455
  692MOL0     C91258  -0.223  10.167   1.850  1.0250 -0.1137 -0.7189
  692MOL0     O91259   0.002   9.990   2.101 -0.0498  0.6101  0.2118
  692MOL0     C91260   0.205   9.986   1.801  0.1498 -0.1767  0.0608
  692MOL0     C91261   0.335   9.959   1.755  0.5502 -0.1959 -0.0696
  692MOL0     N91262   1.044  10.039   2.026 -0.5695  0.0318 -0.5089
  692MOL0     N91263   1.167  10.079   2.029  0.6235  0.1642 -0.0289
  692MOL0     C91264   2.113   9.581   2.304 -0.3992  1.7156  0.7145
  692MOL0     C91265   2.187   9.467   2.344  0.6924 -0.8623 -0.4017
  692MOL0     C91266   2.455   9.144   2.477 -0.5855  0.2674 -0.2210
  692MOL0     C91267   2.589   9.177   2.442  0.3413  0.5993  0.0262
  692MOL0     C91268   2.685   9.085   2.445  0.1888 -0.1777  0.2197
  692MOL0     C91269   2.661   8.954   2.494  0.5582  0.1310  0.2354
  692MOL0     O91270   2.765   8.865   2.505 -0.2554  0.4516  0.4742
  692MOL0     C91271   2.900   8.912   2.524  0.2424  0.1077 -0.3609
  692MOL0     C91272   2.990   8.787   2.502  0.5603  0.5131  0.4025
  692MOL0     C91273   3.134   8.828   2.521 -0.5494  0.5261 -0.3056
  692MOL0     C91274   3.218   8.699   2.506 -0.2005  0.1955 -0.5428
  692MOL0     C91275   3.227   8.626   2.629  0.7227  0.3720 -0.0869
  692MOL0     C91276   3.219   8.564   2.734 -0.8348  0.4572 -0.9634
  692MOL0     C91277   2.530   8.914   2.523 -0.0172 -0.4002 -0.1562
  692MOL0     C91278   2.430   9.007   2.517 -0.2322 -0.0233  0.6347
  692MOL0     H91279   2.470   9.610   2.451 -0.3723 -0.6199  0.3393
  692MOL0     H91280   2.357   9.817   2.345  1.9115 -0.8471 -0.0961
  692MOL0     H91281   2.217   9.994   2.300  0.7116 -0.0347  1.6375
  692MOL0     H91282   2.103   9.951   2.428 -1.1548  2.0892 -0.6768
  692MOL0     H91283   2.054  10.044   2.149  0.8737 -2.2509 -0.2229
  692MOL0     H91284   2.050  10.146   2.291  0.7333 -0.0862 -0.0287
  692MOL0     H91285   1.865   9.967   2.367 -0.4482 -1.3499 -1.0213
  692MOL0     H91286   1.852   9.937   2.194 -1.6128 -2.3416  2.4556
  692MOL0     H91287   1.818  10.196   2.360 -1.2359  0.2943  0.4428
  692MOL0     H91288   1.835  10.213   2.182 -0.9228  1.9160  1.7167
  692MOL0     H91289   1.596  10.201   2.283 -3.7095 -2.3022  0.6386
  692MOL0     H91290   1.619  10.051   2.337 -2.2096 -0.4149 -0.7161
  692MOL0     H91291   1.646   9.959   2.111  0.5400 -0.6627  0.9801
  692MOL0     H91292   1.625  10.133   2.043 -0.9584  1.0643  1.6680
  692MOL0     H91293   1.404  10.017   2.220  1.2386  2.2065  1.9971
  692MOL0     H91294   1.430  10.158   2.115 -0.5840  0.3964  0.3159
  692MOL0     H91295   1.445   9.863   2.022  0.3476  0.6150  0.3567
  692MOL0     H91296   1.423  10.006   1.908 -1.2786  0.3988 -0.3161
  692MOL0     H91297   1.206   9.752   2.007  0.3659  0.4781 -1.7918
  692MOL0     H91298   0.949   9.734   2.098 -0.1387  0.5940  0.0374
  692MOL0     H91299   0.905   9.751   1.926 -0.2796 -3.2758  1.5288
  692MOL0     H91300   0.815   9.968   2.121 -0.1975  0.6903 -0.4259
  692MOL0     H91301   0.734   9.815   2.120 -0.5783 -0.9869 -0.8763
  692MOL0     H91302   0.657  10.009   1.965  3.9515  2.9777  1.6944
  692MOL0     H91303   0.806   9.988   1.882 -1.6356  4.3832  2.6527
  692MOL0     H91304   0.640   9.734   1.900 -0.3137  0.6963  2.2803
  692MOL0     H91305   0.729   9.793   1.772 -0.7328 -0.6309  0.0092
  692MOL0     H91306   0.474   9.841   2.047  1.5748  0.7182 -0.2688
  692MOL0     H91307   0.253   9.902   2.128 -3.6603  0.3489 -0.5607
  692MOL0     H91308  -0.087  10.239   2.149 -1.3348  0.2637  2.4617
  692MOL0     H91309  -0.289  10.331   2.193  2.3263  0.4856 -0.2817
  692MOL0     H91310  -0.653  10.242   1.917 -2.8239  1.0751  2.7692
  692MOL0     H91311  -0.574  10.376   1.838 -1.8215 -1.5727 -1.2194
  692MOL0     H91312  -0.674  10.512   2.052  1.1729 -0.4178  0.5293
  692MOL0     H91313  -0.769  10.365   2.064 -0.4540  0.2023 -0.0483
  692MOL0     H91314  -0.760  10.583   1.842  0.9206  0.2108  0.0826
  692MOL0     H91315  -0.896  10.534   1.949  0.5976  1.8484 -1.7098
  692MOL0     H91316  -0.801  10.349   1.725  0.1413  3.2694 -1.5349
  692MOL0     H91317  -0.935  10.320   1.851 -1.7936  1.3088  1.0238
  692MOL0     H91318  -1.055  10.521   1.738 -1.3824  0.3079 -2.2568
  692MOL0     H91319  -1.033  10.387   1.639  0.3616  0.5269 -0.3656
  692MOL0     H91320  -0.835  10.495   1.530 -2.5550 -1.5168 -1.5896
  692MOL0     H91321  -0.871  10.629   1.645 -1.9568  1.1328  0.0852
  692MOL0     H91322  -1.069  10.498   1.450 -1.3046 -1.5169  3.2140
  692MOL0     H91323  -1.103  10.636   1.553  0.6260 -0.6172 -0.1818
  692MOL0     H91324  -1.060  10.669   1.311  0.1690 -1.7803 -0.1828
  692MOL0     H91325  -0.880  10.638   1.353  1.1806  0.1066 -0.4648
  692MOL0     H91326  -0.432  10.208   1.802  1.1832 -0.9441 -0.9297
  692MOL0     H91327  -0.200  10.149   1.745 -0.6360 -1.1274 -0.9356
  692MOL0     H91328   0.132  10.037   1.739 -1.5577 -4.0501 -1.4328
  692MOL0     H91329   0.350   9.978   1.649  0.3941  0.8888  0.0916
  692MOL0     H91330   2.019   9.576   2.250  0.3931  2.7183 -0.8578
  692MOL0     H91331   2.137   9.371   2.334 -0.3990 -0.1672 -2.0353
  692MOL0     H91332   2.612   9.277   2.408  3.0767  0.2271  0.5168
  692MOL0     H91333   2.786   9.105   2.410 -0.2952 -0.6297 -1.4840
  692MOL0     H91334   2.916   8.959   2.621 -4.3642 -1.2997  1.2927
  692MOL0     H91335   2.939   8.984   2.451  0.9697  1.3215  1.1788
  692MOL0     H91336   2.957   8.712   2.574 -1.8806  2.5418  1.5484
  692MOL0     H91337   2.968   8.735   2.408 -0.2351 -1.9984  1.8912
  692MOL0     H91338   3.154   8.866   2.622  4.5256  2.4301 -1.7295
  692MOL0     H91339   3.160   8.908   2.451 -2.1088  2.5623  1.2960
  692MOL0     H91340   3.176   8.640   2.424  0.6132  1.8971 -2.2493
  692MOL0     H91341   3.321   8.725   2.482  1.0270 -2.7335  1.0528
  692MOL0     H91342   3.221   8.528   2.835  0.5232 -0.5938 -1.3313
  692MOL0     H91343   2.500   8.813   2.549  1.1259 -0.6466  0.3069
  692MOL0     H91344   2.330   8.975   2.542 -1.2675  2.3745 -0.1608
  693MOL0     O91345   2.664   8.238   8.561  0.5231  0.1061  0.1710
  693MOL0     C91346   2.677   8.154   8.648  0.4601 -0.2765 -0.7600
  693MOL0     O91347   2.775   8.158   8.746 -0.2107 -0.2866 -0.0410
  693MOL0     C91348   2.842   8.273   8.777 -0.1734 -0.2636  0.5045
  693MOL0     C91349   2.789   8.401   8.761  0.3597 -0.2067 -0.1363
  693MOL0     C91350   2.854   8.515   8.808 -0.1328 -0.0210 -0.2312
  693MOL0     C91351   2.975   8.497   8.862  0.1526 -1.0165 -0.3993
  693MOL0     O91352   3.039   8.612   8.901 -0.0375 -0.1025  0.1609
  693MOL0     C91353   3.148   8.600   8.997 -0.4013 -1.2834  0.3835
  693MOL0     C91354   3.215   8.738   9.022 -0.2592  0.5891 -0.2326
  693MOL0     C91355   3.143   8.820   9.117 -0.6858 -0.2811 -0.3151
  693MOL0     C91356   3.164   8.774   9.259 -0.7827 -0.2638  0.0165
  693MOL0     C91357   3.077   8.863   9.347  0.4638 -0.0132  0.3724
  693MOL0     C91358   2.932   8.806   9.338 -0.4792 -0.7685 -0.1034
  693MOL0     C91359   2.833   8.918   9.358  0.1844 -0.2918 -0.0015
  693MOL0     C91360   2.843   8.980   9.501 -0.0890  0.3873  0.9915
  693MOL0     N91361   2.822   8.873   9.594  0.8441  0.1719  0.4963
  693MOL0     C91362   2.886   8.854   9.706  0.3503 -0.6150 -1.4685
  693MOL0     C91363   2.822   8.761   9.778 -0.4410 -0.9026 -0.0991
  693MOL0     C91364   2.864   8.705   9.915 -0.2260 -0.4027  0.0924
  693MOL0     C91365   3.011   8.659   9.924 -1.0179  0.4838 -0.4526
  693MOL0     C91366   3.035   8.595  10.064 -0.8290 -0.0034 -0.4315
  693MOL0     C91367   3.167   8.646  10.122  0.2115  0.4379 -0.1481
  693MOL0     O91368   3.170   8.602  10.263 -0.0709  0.4389  0.2478
  693MOL0     C91369   3.285   8.631  10.339 -0.6027 -0.5286  0.3021
  693MOL0     C91370   3.274   8.602  10.480 -0.1391  0.7060  0.7786
  693MOL0     C91371   3.377   8.630  10.575 -0.3897 -0.2329  0.3444
  693MOL0     C91372   3.493   8.682  10.520 -0.3021 -0.4558 -0.0254
  693MOL0     C91373   3.617   8.709  10.607 -0.2035  0.0884  0.2045
  693MOL0     O91374   3.621   8.647  10.728  0.3790 -0.4220  0.1112
  693MOL0     C91375   3.743   8.656  10.794 -0.1646  0.6717 -0.3183
  693MOL0     C91376   3.834   8.543  10.810  0.9836 -0.4626 -0.2420
  693MOL0     C91377   3.955   8.556  10.871  0.3685  0.0048 -0.7675
  693MOL0     C91378   4.000   8.671  10.918 -0.5444 -0.2190 -0.2112
  693MOL0     O91379   4.124   8.701  10.975  0.0163  0.2693  0.5440
  693MOL0     C91380   4.193   8.587  11.036 -0.5932  0.5662  0.0037
  693MOL0     C91381   4.320   8.632  11.114 -0.7704  1.0383 -0.0307
  693MOL0     C91382   4.282   8.721  11.238  0.5180 -0.5535  0.9392
  693MOL0     C91383   4.209   8.850  11.207 -0.0313  0.3462 -0.4840
  693MOL0     C91384   4.240   8.957  11.316  0.1248  0.2718 -0.1451
  693MOL0     C91385   4.371   9.029  11.276 -0.1887  0.0521 -0.5335
  693MOL0     C91386   4.419   9.140  11.378  0.0075 -0.7367 -0.1091
  693MOL0     C91387   4.574   9.163  11.378 -0.1087 -0.7236  0.2562
  693MOL0    Cl91388   4.645   9.031  11.487  0.0649 -0.2254  0.3621
  693MOL0     C91389   3.913   8.778  10.909  0.6228  0.8479  0.2077
  693MOL0     C91390   3.784   8.771  10.848 -0.6584 -0.3138 -0.6305
  693MOL0     O91391   3.706   8.784  10.560 -0.2517 -0.2418 -0.2207
  693MOL0     C91392   3.510   8.706  10.382  1.0235 -0.5911  0.0518
  693MOL0     C91393   3.401   8.689  10.294  0.4392 -0.0663 -0.3067
  693MOL0     N91394   2.696   8.750   9.717  0.5451  0.1630 -0.6473
  693MOL0     N91395   2.699   8.809   9.605  0.0787 -0.0168  0.5842
  693MOL0     C91396   3.029   8.367   8.876  0.5865  0.4270 -0.6612
  693MOL0     C91397   2.960   8.261   8.842 -0.7380 -0.2665 -0.1484
  693MOL0     C91398   2.579   8.042   8.648  0.0344  0.7090 -0.4822
  693MOL0     C91399   2.474   8.046   8.556  0.0025  0.8882 -0.1227
  693MOL0     C91400   2.374   7.947   8.562 -0.1109 -0.1913 -0.1777
  693MOL0     C91401   2.379   7.847   8.659 -0.5209 -0.7573  0.0724
  693MOL0     O91402   2.290   7.744   8.641  0.1104 -0.7712  0.6394
  693MOL0     C91403   2.276   7.633   8.729  0.1987 -0.7225 -1.4265
  693MOL0     C91404   2.145   7.565   8.709 -0.2490  0.5513  0.1855
  693MOL0     C91405   2.107   7.529   8.566  0.1874  0.3986  0.6503
  693MOL0     C91406   1.997   7.427   8.536 -0.0466 -0.6070  0.1261
  693MOL0     C91407   1.885   7.470   8.617  1.0671 -0.6402 -0.5258
  693MOL0     C91408   1.797   7.523   8.678 -0.0924 -0.4287 -0.0999
  693MOL0     C91409   2.488   7.850   8.750  0.2523 -0.2551 -0.6043
  693MOL0     C91410   2.587   7.942   8.744 -1.4015 -0.1473 -0.3607
  693MOL0     H91411   2.686   8.417   8.730  0.2273 -0.6729  0.0576
  693MOL0     H91412   2.816   8.614   8.786  1.6257  0.7678  0.0792
  693MOL0     H91413   3.225   8.529   8.967  1.0732  1.3553 -2.6831
  693MOL0     H91414   3.108   8.567   9.093  2.7513 -0.4859  2.1013
  693MOL0     H91415   3.220   8.790   8.925 -3.0958  1.3830 -0.0368
  693MOL0     H91416   3.316   8.725   9.060 -0.9725 -1.0517  1.2487
  693MOL0     H91417   3.038   8.806   9.091 -0.9294 -0.1589  0.5667
  693MOL0     H91418   3.164   8.926   9.102 -1.6604 -0.1359 -0.7404
  693MOL0     H91419   3.145   8.667   9.273 -0.8459  0.0050  2.5977
  693MOL0     H91420   3.266   8.786   9.295 -0.3972  1.6040 -1.5612
  693MOL0     H91421   3.086   8.967   9.314  0.9967 -0.7556 -2.0669
  693MOL0     H91422   3.101   8.862   9.453 -3.0864  0.6451  1.3080
  693MOL0     H91423   2.919   8.726   9.412 -1.6426  0.0812  0.6464
  693MOL0     H91424   2.912   8.755   9.244 -3.4162  3.2300 -1.9422
  693MOL0     H91425   2.858   8.995   9.285  3.0393 -1.9293 -0.9280
  693MOL0     H91426   2.732   8.879   9.343  0.2681 -0.5102 -0.0032
  693MOL0     H91427   2.764   9.053   9.519 -1.4402  0.3717 -3.5308
  693MOL0     H91428   2.942   9.025   9.512 -0.8785  2.6264 -0.4009
  693MOL0     H91429   2.986   8.891   9.726  0.5372 -1.0759 -1.5450
  693MOL0     H91430   2.790   8.629   9.940 -2.4813  1.8407  0.6174
  693MOL0     H91431   2.850   8.792   9.979 -0.1617 -1.2387  1.2610
  693MOL0     H91432   3.078   8.744   9.910 -0.2630  0.0552  0.4655
  693MOL0     H91433   3.036   8.592   9.841  0.1569  0.0316  0.2446
  693MOL0     H91434   2.952   8.619  10.131  0.5007 -0.0031  1.2734
  693MOL0     H91435   3.042   8.486  10.058  0.1229 -0.3022  3.4652
  693MOL0     H91436   3.179   8.753  10.106  0.1554  0.1517 -2.3440
  693MOL0     H91437   3.247   8.600  10.064  1.5963  1.5206  0.8115
  693MOL0     H91438   3.179   8.554  10.498  0.2094 -0.4895 -0.4177
  693MOL0     H91439   3.372   8.601  10.680 -2.6053 -1.9124 -0.1374
  693MOL0     H91440   3.805   8.449  10.764 -1.1600 -0.1549  0.4152
  693MOL0     H91441   4.020   8.469  10.866  1.8546  1.0074  0.0386
  693MOL0     H91442   4.226   8.513  10.962 -0.4326 -0.7799  1.3795
  693MOL0     H91443   4.120   8.537  11.100 -1.6036  0.6922 -1.0263
  693MOL0     H91444   4.393   8.684  11.051 -0.1341  0.0954 -0.0917
  693MOL0     H91445   4.367   8.536  11.133 -2.4754 -0.2928 -2.1177
  693MOL0     H91446   4.380   8.733  11.286  1.3579  1.2993 -1.0617
  693MOL0     H91447   4.217   8.662  11.303 -1.8372 -1.7639 -2.2684
  693MOL0     H91448   4.247   8.880  11.108  1.3827 -0.3777 -0.1986
  693MOL0     H91449   4.105   8.817  11.197  1.7356 -6.2527 -2.3599
  693MOL0     H91450   4.261   8.912  11.413 -3.5092  0.9475  1.1310
  693MOL0     H91451   4.156   9.026  11.325  0.5429  0.5501  2.0688
  693MOL0     H91452   4.367   9.069  11.174  0.9144  0.6655 -0.3597
  693MOL0     H91453   4.442   8.946  11.273 -1.7199 -1.2872 -1.1168
  693MOL0     H91454   4.374   9.225  11.326 -0.4865 -0.4204  0.8158
  693MOL0     H91455   4.372   9.126  11.476 -0.9299  1.9793 -0.0951
  693MOL0     H91456   4.591   9.261  11.424  0.7350 -1.1817  0.9411
  693MOL0     H91457   4.624   9.157  11.281  0.9233 -2.2972  0.8537
  693MOL0     H91458   3.940   8.872  10.957 -1.2407  0.5156  2.0627
  693MOL0     H91459   3.726   8.857  10.816  1.1576  1.3017  0.1582
  693MOL0     H91460   3.603   8.733  10.333  0.0084  3.5202  0.0495
  693MOL0     H91461   3.411   8.720  10.190  3.2295  0.7399  0.0991
  693MOL0     H91462   3.125   8.342   8.920  0.9648  1.3571 -0.9419
  693MOL0     H91463   2.999   8.160   8.852 -0.6192 -0.6354 -3.2909
  693MOL0     H91464   2.460   8.127   8.484  1.3657  0.5847 -0.7676
  693MOL0     H91465   2.291   7.949   8.491  1.6082  3.2772 -2.3637
  693MOL0     H91466   2.268   7.667   8.832 -1.6767 -0.4712 -1.6163
  693MOL0     H91467   2.356   7.561   8.717 -1.5547 -2.8216 -1.0878
  693MOL0     H91468   2.146   7.473   8.768 -0.9283  0.1995 -0.3442
  693MOL0     H91469   2.067   7.630   8.749 -2.0734 -1.0395 -0.6102
  693MOL0     H91470   2.195   7.482   8.522 -1.7288  0.3525 -3.6257
  693MOL0     H91471   2.097   7.623   8.510  0.4317  0.0288 -0.0294
  693MOL0     H91472   1.970   7.435   8.430 -0.0062  0.2412  0.1727
  693MOL0     H91473   2.017   7.323   8.562 -0.9013 -1.1049 -1.1271
  693MOL0     H91474   1.732   7.584   8.736 -0.0705 -1.2354  0.7970
  693MOL0     H91475   2.505   7.765   8.816 -2.6662 -0.5286 -0.0951
  693MOL0     H91476   2.668   7.931   8.816 -3.0694 -1.0746  1.4737
  694MOL0     O91477   6.550   9.384   5.643  0.3319 -0.5281  0.5412
  694MOL0     C91478   6.609   9.335   5.542 -0.1680  0.7167  0.1095
  694MOL0     O91479   6.549   9.273   5.431 -0.3336  0.3450  0.1256
  694MOL0     C91480   6.414   9.255   5.438 -0.0584  0.3046 -0.0416
  694MOL0     C91481   6.361   9.128   5.453 -0.8969  0.7559  0.4166
  694MOL0     C91482   6.228   9.103   5.453 -0.1935 -0.8985 -0.9206
  694MOL0     C91483   6.138   9.209   5.444  0.3679  0.3764 -0.5050
  694MOL0     O91484   6.001   9.188   5.455 -0.3450 -0.4140 -0.5615
  694MOL0     C91485   5.921   9.285   5.523  0.2184  0.0858 -0.0609
  694MOL0     C91486   5.844   9.364   5.426 -0.4263  0.0127 -0.0817
  694MOL0     C91487   5.718   9.300   5.388 -0.0456 -0.0898  0.4885
  694MOL0     C91488   5.632   9.258   5.514  0.4710 -0.0704 -0.8047
  694MOL0     C91489   5.487   9.231   5.483 -0.1155  0.7095 -0.4698
  694MOL0     C91490   5.479   9.129   5.366 -0.1263  0.6109 -0.5150
  694MOL0     C91491   5.349   9.044   5.362  0.0237 -0.3736  0.6601
  694MOL0     C91492   5.238   9.131   5.312 -0.2724  0.3147 -0.2228
  694MOL0     N91493   5.109   9.051   5.296 -0.2129 -0.3559 -0.5147
  694MOL0     C91494   5.095   8.924   5.246 -0.0675 -0.2761  0.0534
  694MOL0     C91495   4.953   8.916   5.234 -0.7233  0.5194 -0.1143
  694MOL0     C91496   4.865   8.797   5.170 -0.0964 -0.0698 -0.7398
  694MOL0     C91497   4.851   8.808   5.018 -0.3360  0.0788  0.5509
  694MOL0     C91498   4.811   8.687   4.929  0.2413 -0.5182 -1.0206
  694MOL0     C91499   4.682   8.623   4.977 -0.3818  0.9257  0.5665
  694MOL0     O91500   4.628   8.519   4.888  0.2636  0.1742 -1.4109
  694MOL0     C91501   4.531   8.439   4.947 -0.3811 -0.0522  0.3722
  694MOL0     C91502   4.493   8.330   4.877  0.0209 -0.0217  0.7077
  694MOL0     C91503   4.381   8.262   4.908 -0.2834  0.6378 -0.1265
  694MOL0     C91504   4.306   8.292   5.020 -0.1289  0.0606  0.3413
  694MOL0     C91505   4.186   8.226   5.057  0.1175  1.1691 -0.0425
  694MOL0     O91506   4.096   8.284   5.144 -0.2939 -0.2803 -0.3736
  694MOL0     C91507   3.967   8.244   5.141  0.3788 -0.1617  0.2310
  694MOL0     C91508   3.880   8.335   5.073 -0.4592  0.3866  0.1062
  694MOL0     C91509   3.745   8.313   5.067  0.9213  0.2488  0.4013
  694MOL0     C91510   3.688   8.199   5.137 -0.6479  0.0470 -0.5576
  694MOL0     O91511   3.550   8.181   5.125  0.2044 -0.2308  0.7581
  694MOL0     C91512   3.496   8.068   5.182 -0.1716 -0.4929  0.3304
  694MOL0     C91513   3.349   8.076   5.179 -0.3866 -0.4710  0.3775
  694MOL0     C91514   3.279   8.153   5.286 -0.0801 -0.5236 -0.0215
  694MOL0     C91515   3.141   8.182   5.238  0.6907  0.1531 -0.1510
  694MOL0     C91516   3.049   8.230   5.356  0.0878  0.2597  0.3153
  694MOL0     C91517   2.917   8.285   5.295 -0.4300  0.1767 -0.5072
  694MOL0     C91518   2.846   8.380   5.385 -0.0346  0.5778 -0.8431
  694MOL0     C91519   2.759   8.316   5.495  0.7308  0.4618 -0.4235
  694MOL0    Cl91520   2.608   8.247   5.449 -0.2045 -0.1611  0.2490
  694MOL0     C91521   3.779   8.099   5.205 -0.1416 -1.1142  0.9197
  694MOL0     C91522   3.919   8.130   5.205  0.0824  0.1300  0.3580
  694MOL0     O91523   4.168   8.114   5.007  0.0396  0.3663  0.5631
  694MOL0     C91524   4.343   8.400   5.099  0.2802 -0.1522  0.3050
  694MOL0     C91525   4.458   8.469   5.067  0.6573  0.0979  0.2704
  694MOL0     N91526   4.898   9.041   5.266 -0.0179  0.9403 -0.7549
  694MOL0     N91527   4.993   9.115   5.314  0.1144  0.1274 -1.2762
  694MOL0     C91528   6.198   9.337   5.428 -0.1136 -0.8699  0.1738
  694MOL0     C91529   6.334   9.359   5.426 -0.3395  0.2995 -0.3081
  694MOL0     C91530   6.755   9.323   5.540  1.5291 -0.2792 -0.3225
  694MOL0     C91531   6.824   9.257   5.444 -0.3503  0.5167  0.1087
  694MOL0     C91532   6.963   9.250   5.434  0.1529 -0.6601  0.1461
  694MOL0     C91533   7.041   9.311   5.527 -0.8313 -0.8668  0.1957
  694MOL0     O91534   7.180   9.290   5.523  0.3193 -0.3141 -0.0228
  694MOL0     C91535   7.274   9.368   5.598  0.3882  0.4246  0.2507
  694MOL0     C91536   7.377   9.406   5.497  0.2995  0.0924 -0.5835
  694MOL0     C91537   7.456   9.290   5.428 -0.1874 -0.2898  0.0988
  694MOL0     C91538   7.528   9.199   5.528  0.2772  0.1202  0.7318
  694MOL0     C91539   7.643   9.265   5.585  0.1521  0.5438 -0.2201
  694MOL0     C91540   7.735   9.325   5.639  0.2143 -0.3033  0.5159
  694MOL0     C91541   6.975   9.386   5.626  1.0377 -0.5560  0.1099
  694MOL0     C91542   6.834   9.392   5.634 -0.2151  0.1947  0.4158
  694MOL0     H91543   6.428   9.045   5.470 -1.9654  0.3903  3.4331
  694MOL0     H91544   6.203   8.999   5.475  0.6715 -0.8957  0.1315
  694MOL0     H91545   5.979   9.364   5.572 -0.7774  0.7362  0.1008
  694MOL0     H91546   5.871   9.231   5.604  1.5088 -0.9451  0.0785
  694MOL0     H91547   5.900   9.395   5.338  0.2566 -1.1510 -0.0813
  694MOL0     H91548   5.809   9.451   5.482 -0.2663 -0.8563  1.4530
  694MOL0     H91549   5.756   9.219   5.325  2.2591  1.8192 -0.7309
  694MOL0     H91550   5.672   9.370   5.317  4.2340  1.1117 -1.4152
  694MOL0     H91551   5.675   9.171   5.562  0.4026  0.1546 -0.3319
  694MOL0     H91552   5.636   9.339   5.588 -0.0035 -1.3932  0.7082
  694MOL0     H91553   5.426   9.315   5.448  1.7398  2.8047  1.0277
  694MOL0     H91554   5.443   9.185   5.572  0.0492  0.2967 -0.5968
  694MOL0     H91555   5.566   9.063   5.366 -1.0959 -0.7489 -2.0662
  694MOL0     H91556   5.488   9.184   5.272  1.4774  0.3563 -0.5362
  694MOL0     H91557   5.358   8.953   5.301 -4.3441  0.3462 -1.3978
  694MOL0     H91558   5.314   9.007   5.459 -4.0699  1.3884  0.0360
  694MOL0     H91559   5.266   9.186   5.222 -1.4981  0.7292 -0.3787
  694MOL0     H91560   5.213   9.207   5.387 -0.4447 -0.8082  0.8909
  694MOL0     H91561   5.179   8.865   5.213  0.2039 -0.6938  1.4302
  694MOL0     H91562   4.764   8.791   5.212  0.2863 -3.9527  0.0243
  694MOL0     H91563   4.918   8.706   5.201  1.5507  1.0833 -0.0704
  694MOL0     H91564   4.952   8.837   4.987  0.3187  4.6909  5.4554
  694MOL0     H91565   4.798   8.902   5.000  1.9568  2.5377  4.9373
  694MOL0     H91566   4.796   8.700   4.821  0.7319 -0.8620 -1.1331
  694MOL0     H91567   4.884   8.607   4.942  0.6641  0.2638  2.0794
  694MOL0     H91568   4.602   8.692   5.004 -0.8958  1.3644 -1.8539
  694MOL0     H91569   4.709   8.568   5.068 -0.0583 -0.9305 -0.5876
  694MOL0     H91570   4.551   8.308   4.789  0.4663  2.0447  0.4376
  694MOL0     H91571   4.347   8.184   4.841  0.5157 -0.8478  1.1354
  694MOL0     H91572   3.912   8.425   5.022  4.7099 -1.6955 -0.9582
  694MOL0     H91573   3.676   8.381   5.018  3.1571  2.9710  0.8324
  694MOL0     H91574   3.532   8.055   5.284 -2.5436 -1.3902  1.1402
  694MOL0     H91575   3.524   7.977   5.129 -1.1257 -2.3894  2.8440
  694MOL0     H91576   3.310   7.975   5.197  1.5789 -0.9536  2.5160
  694MOL0     H91577   3.326   8.109   5.078  1.5973  1.8999  0.6029
  694MOL0     H91578   3.321   8.248   5.323 -0.7310 -1.4296  3.3588
  694MOL0     H91579   3.284   8.085   5.371  0.1202  0.3770  0.7105
  694MOL0     H91580   3.141   8.252   5.154  0.5382 -1.8510 -1.9122
  694MOL0     H91581   3.094   8.095   5.192  0.6650  0.7026 -1.1747
  694MOL0     H91582   3.095   8.305   5.421  0.6042  0.9368 -0.7985
  694MOL0     H91583   3.019   8.136   5.403 -1.4175  0.3552 -0.3809
  694MOL0     H91584   2.854   8.206   5.254  0.0987 -1.3872  1.5322
  694MOL0     H91585   2.943   8.346   5.208  0.1967 -1.6724 -1.6695
  694MOL0     H91586   2.919   8.448   5.431 -0.6552 -0.7628  2.3786
  694MOL0     H91587   2.777   8.439   5.325 -0.2137  2.9931  1.5589
  694MOL0     H91588   2.734   8.396   5.566  2.7902  1.3040 -0.5626
  694MOL0     H91589   2.816   8.240   5.549  0.1890 -0.0400 -0.5481
  694MOL0     H91590   3.744   8.009   5.254 -1.6483 -0.2207  1.5514
  694MOL0     H91591   3.979   8.061   5.264  1.5116  2.2979  1.5368
  694MOL0     H91592   4.288   8.428   5.188 -1.7015 -1.0743 -0.5758
  694MOL0     H91593   4.481   8.554   5.130 -1.4027 -0.4794  1.8882
  694MOL0     H91594   6.141   9.426   5.402  1.0365 -0.5298 -1.2828
  694MOL0     H91595   6.373   9.460   5.426 -0.4891  0.3657 -1.2061
  694MOL0     H91596   6.773   9.202   5.366  0.5328 -0.8453  0.4556
  694MOL0     H91597   7.019   9.190   5.363 -2.0597 -2.6248 -0.0668
  694MOL0     H91598   7.314   9.303   5.677 -1.8892 -0.9898  0.3292
  694MOL0     H91599   7.229   9.454   5.648 -0.7001  0.2954 -0.4618
  694MOL0     H91600   7.319   9.471   5.430 -0.1837  0.2117 -0.0580
  694MOL0     H91601   7.451   9.464   5.553  0.9077 -0.1764 -1.0980
  694MOL0     H91602   7.520   9.330   5.349  0.3657 -2.9728 -0.9360
  694MOL0     H91603   7.379   9.234   5.374 -1.8084  1.3571  0.5987
  694MOL0     H91604   7.460   9.154   5.600  1.3454 -0.3443  1.4712
  694MOL0     H91605   7.576   9.113   5.480  1.8163  0.7336  1.1021
  694MOL0     H91606   7.820   9.366   5.689 -0.9626  0.2612  2.1476
  694MOL0     H91607   7.028   9.444   5.702  1.4909  1.0319 -1.3759
  694MOL0     H91608   6.790   9.453   5.712 -1.4305 -0.7728  0.5175
  695MOL0     O91609   8.833   2.795  10.749  0.6828  0.1704  0.5605
  695MOL0     C91610   8.811   2.675  10.771  0.3848  0.5045  0.2435
  695MOL0     O91611   8.882   2.590  10.841  0.0953 -0.1165 -0.2158
  695MOL0     C91612   8.995   2.636  10.912  0.0851 -0.9427  0.1030
  695MOL0     C91613   9.116   2.565  10.908 -0.5549  0.4694 -0.0548
  695MOL0     C91614   9.240   2.620  10.962  0.3125 -0.5963  0.7231
  695MOL0     C91615   9.234   2.728  11.041 -0.0720  0.5600 -0.1675
  695MOL0     O91616   9.357   2.784  11.092  0.3932 -0.2308  0.6340
  695MOL0     C91617   9.377   2.922  11.098  0.4829 -0.3096 -0.6846
  695MOL0     C91618   9.522   2.957  11.130 -0.2702 -0.2002  0.0935
  695MOL0     C91619   9.545   3.105  11.183 -1.0002 -0.2865  0.1962
  695MOL0     C91620   9.679   3.127  11.255  0.0728  0.6461  0.7685
  695MOL0     C91621   9.798   3.122  11.155  0.5319  0.1341 -0.1503
  695MOL0     C91622   9.815   3.259  11.083  0.3967  0.2692 -0.4621
  695MOL0     C91623   9.870   3.377  11.168 -0.6766  0.0196  0.2859
  695MOL0     C91624   9.894   3.508  11.086  0.2618  0.3360  0.7320
  695MOL0     N91625   9.768   3.584  11.072 -0.5368  1.0178 -0.0638
  695MOL0     C91626   9.708   3.590  10.954 -0.0520  0.5214  0.0260
  695MOL0     C91627   9.630   3.693  10.964  0.7201 -0.1431 -0.0164
  695MOL0     C91628   9.533   3.745  10.853  1.1968  0.3160  0.1715
  695MOL0     C91629   9.400   3.675  10.884  0.6254  0.4356  0.2317
  695MOL0     C91630   9.294   3.695  10.786 -0.0590 -0.0032 -0.5183
  695MOL0     C91631   9.161   3.625  10.836  0.8658 -0.7302  0.3308
  695MOL0     O91632   9.065   3.725  10.810 -0.6883  0.1770 -0.1372
  695MOL0     C91633   8.932   3.698  10.827 -0.5631 -0.2333  0.4559
  695MOL0     C91634   8.839   3.798  10.796 -0.4156 -0.2414  0.3882
  695MOL0     C91635   8.708   3.781  10.797 -0.3988  0.0028 -0.1549
  695MOL0     C91636   8.658   3.658  10.855 -0.3926 -1.2898 -0.0992
  695MOL0     C91637   8.516   3.628  10.853 -0.4612 -1.3342 -0.1635
  695MOL0     O91638   8.427   3.732  10.837  0.3239 -0.4297  0.1639
  695MOL0     C91639   8.295   3.714  10.863  0.5476  0.0619 -0.3466
  695MOL0     C91640   8.254   3.694  10.996 -0.5108 -0.0811 -0.0320
  695MOL0     C91641   8.117   3.659  11.025 -0.1518 -0.0212 -0.4442
  695MOL0     C91642   8.027   3.641  10.924  0.4079 -0.1599 -0.3281
  695MOL0     O91643   7.894   3.605  10.936 -0.6049  0.4645 -0.2497
  695MOL0     C91644   7.832   3.554  11.053 -0.5374  0.5209  1.2814
  695MOL0     C91645   7.682   3.572  11.043  1.8131 -0.2981  0.3645
  695MOL0     C91646   7.624   3.475  10.934 -0.1501  0.0560  0.0836
  695MOL0     C91647   7.472   3.478  10.905 -0.8429 -0.1018  0.3438
  695MOL0     C91648   7.403   3.349  10.932 -0.7502 -0.0784  0.0146
  695MOL0     C91649   7.372   3.305  11.068  0.1699  0.5602  0.0607
  695MOL0     C91650   7.258   3.389  11.146 -0.2023  0.1617 -0.4903
  695MOL0     C91651   7.218   3.320  11.286 -0.1698 -0.1300  0.6194
  695MOL0    Cl91652   7.118   3.182  11.245  0.0702 -0.4833 -0.1946
  695MOL0     C91653   8.070   3.659  10.800  0.5461 -0.3368  0.3745
  695MOL0     C91654   8.200   3.694  10.766 -0.1579  0.1460 -0.1531
  695MOL0     O91655   8.483   3.513  10.865  0.4471  0.9025  0.2387
  695MOL0     C91656   8.750   3.560  10.898 -0.4173  0.4399 -0.9746
  695MOL0     C91657   8.886   3.582  10.892 -0.1565  0.5410  0.0694
  695MOL0     N91658   9.653   3.758  11.083  0.7920  0.0062  0.4407
  695MOL0     N91659   9.742   3.688  11.146  0.5794 -0.6698 -0.0057
  695MOL0     C91660   9.110   2.794  11.059  1.3102 -0.3917 -0.1757
  695MOL0     C91661   8.990   2.743  10.995 -0.5084 -0.5301  0.0059
  695MOL0     C91662   8.682   2.625  10.705 -0.0648 -0.1323  0.3280
  695MOL0     C91663   8.643   2.684  10.583 -0.3803 -0.3203 -0.5410
  695MOL0     C91664   8.529   2.639  10.517 -0.0583 -0.5956  0.5967
  695MOL0     C91665   8.450   2.538  10.577  0.4340 -0.4561  0.3288
  695MOL0     O91666   8.339   2.484  10.514  0.7144 -0.1053 -0.0999
  695MOL0     C91667   8.236   2.569  10.465 -0.3930 -0.6514  0.6888
  695MOL0     C91668   8.097   2.525  10.506  0.6547  0.0590 -0.7031
  695MOL0     C91669   8.071   2.545  10.657 -0.0930 -0.2107 -1.1610
  695MOL0     C91670   7.937   2.489  10.707  1.4017 -0.7362 -0.6255
  695MOL0     C91671   7.828   2.568  10.669  0.0611 -0.5681  0.4853
  695MOL0     C91672   7.741   2.613  10.598  1.0741 -0.5818 -0.2013
  695MOL0     C91673   8.482   2.483  10.700 -0.1820 -0.3715 -0.3023
  695MOL0     C91674   8.597   2.525  10.766  0.3072 -0.6318  0.3046
  695MOL0     H91675   9.120   2.469  10.858 -0.5084  0.9293 -0.9471
  695MOL0     H91676   9.337   2.574  10.946 -0.5572 -1.8028 -1.5211
  695MOL0     H91677   9.309   2.957  11.177  0.1113 -1.9143 -0.2618
  695MOL0     H91678   9.350   2.972  11.005 -0.1436 -0.4619 -0.5853
  695MOL0     H91679   9.593   2.940  11.048  2.5215  1.9396  1.8938
  695MOL0     H91680   9.558   2.884  11.202  1.7209  0.0229 -0.6176
  695MOL0     H91681   9.471   3.114  11.263 -0.8601 -1.8599  0.5280
  695MOL0     H91682   9.520   3.174  11.102 -2.1967 -0.5818  0.2923
  695MOL0     H91683   9.685   3.224  11.305 -0.0796  1.8133 -1.3871
  695MOL0     H91684   9.689   3.047  11.329 -2.6715  0.2259  0.8091
  695MOL0     H91685   9.783   3.049  11.075  0.4244 -0.2416  0.2097
  695MOL0     H91686   9.892   3.086  11.197 -0.9402 -2.2906  1.3313
  695MOL0     H91687   9.724   3.297  11.036  1.6032  2.1197 -1.4371
  695MOL0     H91688   9.881   3.244  10.997  1.2178  0.1638  0.1635
  695MOL0     H91689   9.807   3.394  11.256 -2.2334  1.0437 -0.9695
  695MOL0     H91690   9.964   3.339  11.210  0.6610  0.5146 -2.0655
  695MOL0     H91691   9.935   3.491  10.986  1.6587  1.2721  1.1171
  695MOL0     H91692   9.968   3.571  11.136  3.3273 -2.2360 -0.2316
  695MOL0     H91693   9.719   3.516  10.874 -0.6152 -1.4739  1.6966
  695MOL0     H91694   9.559   3.721  10.750 -2.7067  2.7175 -1.6185
  695MOL0     H91695   9.512   3.852  10.866 -3.2897 -0.4798  1.4290
  695MOL0     H91696   9.381   3.694  10.990  0.5734  1.9290 -0.0199
  695MOL0     H91697   9.436   3.572  10.876 -0.7980 -0.0818  0.2333
  695MOL0     H91698   9.265   3.798  10.766 -0.1667  0.2576  0.9127
  695MOL0     H91699   9.327   3.633  10.702 -0.3615  1.0329 -1.4160
  695MOL0     H91700   9.172   3.601  10.942  2.1848  0.8434  0.5754
  695MOL0     H91701   9.151   3.529  10.785 -0.7016 -1.9430  2.6966
  695MOL0     H91702   8.880   3.893  10.764 -0.7384 -0.0358  0.5830
  695MOL0     H91703   8.643   3.859  10.758 -0.1140  0.0013 -0.6448
  695MOL0     H91704   8.321   3.709  11.080 -0.4301 -2.0414  0.2983
  695MOL0     H91705   8.086   3.646  11.128  0.2544  0.4803 -0.2477
  695MOL0     H91706   7.876   3.608  11.137  3.3823 -1.1399  0.4851
  695MOL0     H91707   7.860   3.449  11.061  0.7635  0.8014  0.5384
  695MOL0     H91708   7.654   3.672  11.010  2.4723 -0.0356  0.5892
  695MOL0     H91709   7.641   3.542  11.139 -2.5762 -2.2826 -1.8370
  695MOL0     H91710   7.658   3.374  10.957  0.9005  0.7509  1.6937
  695MOL0     H91711   7.676   3.500  10.841  0.8508  1.1620  0.9181
  695MOL0     H91712   7.425   3.557  10.965 -0.5472 -0.0418  0.4961
  695MOL0     H91713   7.464   3.502  10.798  1.1578  0.0724  0.2108
  695MOL0     H91714   7.462   3.268  10.888 -0.3118  0.9349 -1.3236
  695MOL0     H91715   7.301   3.354  10.891 -2.4535  2.1553  3.9916
  695MOL0     H91716   7.462   3.309  11.131  0.2850 -0.5931 -0.0043
  695MOL0     H91717   7.349   3.198  11.072 -0.8142  0.7847  3.0085
  695MOL0     H91718   7.305   3.485  11.167 -1.0256  0.7852 -1.4284
  695MOL0     H91719   7.166   3.395  11.088 -1.8638  1.7382  2.1155
  695MOL0     H91720   7.155   3.379  11.354 -0.4037 -1.6294  1.7413
  695MOL0     H91721   7.312   3.295  11.334  0.4531 -0.4426 -0.7223
  695MOL0     H91722   7.998   3.630  10.724  3.2965 -2.3583 -1.6756
  695MOL0     H91723   8.236   3.702  10.664 -0.1810  0.9803 -0.0975
  695MOL0     H91724   8.717   3.462  10.931  2.3980 -0.7255 -1.3422
  695MOL0     H91725   8.950   3.496  10.909  0.5564  0.9439 -0.5084
  695MOL0     H91726   9.082   2.867  11.135 -2.4525 -1.9855  0.1947
  695MOL0     H91727   8.899   2.797  11.017  0.5160  1.7800 -1.0762
  695MOL0     H91728   8.704   2.759  10.534  1.3545 -0.5053  1.1957
  695MOL0     H91729   8.501   2.679  10.420  0.7659 -3.0124 -0.7278
  695MOL0     H91730   8.247   2.574  10.356  2.1439  2.4504  0.9457
  695MOL0     H91731   8.246   2.671  10.501 -1.9668 -0.7729  1.5301
  695MOL0     H91732   8.034   2.595  10.450  0.4147  0.8693  0.5199
  695MOL0     H91733   8.069   2.427  10.468 -4.1918 -0.2136  2.6214
  695MOL0     H91734   8.075   2.652  10.681 -1.8765 -0.7417  2.2024
  695MOL0     H91735   8.147   2.493  10.715 -0.8987  0.1527  0.2846
  695MOL0     H91736   7.919   2.384  10.682 -1.3845 -0.7418  0.9946
  695MOL0     H91737   7.934   2.482  10.817  1.6592  0.5118 -0.5301
  695MOL0     H91738   7.662   2.662  10.545  0.8857 -2.3931 -1.6921
  695MOL0     H91739   8.420   2.402  10.736 -2.9395  0.6158 -2.4727
  695MOL0     H91740   8.635   2.462  10.846  2.9002 -0.7699 -0.9254
  696MOL0     O91741   5.362   4.445   8.949  0.2820 -0.0304  0.3604
  696MOL0     C91742   5.298   4.546   8.927 -0.1263  0.0667 -0.3797
  696MOL0     O91743   5.332   4.672   8.970 -0.2681 -0.1314 -0.2966
  696MOL0     C91744   5.446   4.671   9.046 -0.7984  0.0369 -0.1405
  696MOL0     C91745   5.450   4.672   9.184  0.1050 -0.8265 -0.2514
  696MOL0     C91746   5.572   4.666   9.262 -0.1818 -0.9232  0.1677
  696MOL0     C91747   5.702   4.677   9.192  0.7255 -0.6467  0.8484
  696MOL0     O91748   5.823   4.700   9.255  0.1998 -0.3875 -0.0279
  696MOL0     C91749   5.868   4.589   9.326  0.3966  0.7655  0.7029
  696MOL0     C91750   5.981   4.619   9.423  0.7309 -0.5551 -0.0276
  696MOL0     C91751   6.077   4.503   9.421  0.0939 -0.8782 -0.0539
  696MOL0     C91752   6.178   4.530   9.530  0.6521  0.5703  0.2350
  696MOL0     C91753   6.290   4.413   9.532  0.7353  1.0170 -0.0957
  696MOL0     C91754   6.246   4.261   9.521 -0.2964 -0.0453 -0.0209
  696MOL0     C91755   6.141   4.207   9.611  1.0387 -1.0193 -0.5756
  696MOL0     C91756   6.157   4.051   9.621 -0.3143  0.5582 -0.4254
  696MOL0     N91757   6.157   3.993   9.488  0.4596 -0.1467  0.2952
  696MOL0     C91758   6.045   4.002   9.414  0.1410  0.1655  0.7990
  696MOL0     C91759   6.068   3.944   9.296 -0.3814  0.9007  0.9081
  696MOL0     C91760   5.975   3.903   9.189 -0.5391  0.0719 -0.0661
  696MOL0     C91761   5.907   3.765   9.231  0.6353 -0.3448 -0.3861
  696MOL0     C91762   5.785   3.736   9.139 -0.0073  0.9292  0.6417
  696MOL0     C91763   5.744   3.590   9.138 -0.3649  0.5424  0.1446
  696MOL0     O91764   5.664   3.547   9.249  0.5909 -0.3620  0.3262
  696MOL0     C91765   5.604   3.422   9.253 -0.9277 -0.4642  0.5524
  696MOL0     C91766   5.547   3.391   9.375  0.5044  0.0320  0.6686
  696MOL0     C91767   5.503   3.265   9.401 -0.2031 -0.4437  0.1131
  696MOL0     C91768   5.508   3.161   9.311  0.4881  0.2056  0.1657
  696MOL0     C91769   5.467   3.024   9.364 -0.1045  0.1570 -0.7754
  696MOL0     O91770   5.490   2.926   9.277 -0.2243 -0.4483 -0.2634
  696MOL0     C91771   5.494   2.788   9.295  0.1112 -0.2244 -0.0562
  696MOL0     C91772   5.513   2.736   9.427 -0.3864 -0.7001  0.0928
  696MOL0     C91773   5.503   2.598   9.438  0.2007 -0.0468  0.6046
  696MOL0     C91774   5.465   2.515   9.332 -0.6169  0.1729 -0.3608
  696MOL0     O91775   5.434   2.375   9.357 -0.0099  0.6921 -0.9752
  696MOL0     C91776   5.421   2.330   9.494  0.1196  0.5239 -0.4436
  696MOL0     C91777   5.359   2.193   9.503 -0.0060  0.3467 -0.4064
  696MOL0     C91778   5.313   2.158   9.645  0.1906 -0.0106 -0.5174
  696MOL0     C91779   5.269   2.012   9.666 -0.3446  0.1307 -0.4193
  696MOL0     C91780   5.246   1.984   9.808  0.8386 -0.8611 -0.1244
  696MOL0     C91781   5.113   2.038   9.857 -0.0955 -0.7005 -0.1041
  696MOL0     C91782   5.077   1.982   9.995 -1.3291  0.3894  0.3274
  696MOL0     C91783   4.925   1.999  10.031 -0.1969 -0.3538  1.0713
  696MOL0    Cl91784   4.829   1.862   9.966  0.2346 -0.6312 -0.3344
  696MOL0     C91785   5.433   2.568   9.207 -0.1548 -0.1934 -0.2864
  696MOL0     C91786   5.452   2.709   9.189  0.8309  0.7086  0.1028
  696MOL0     O91787   5.431   3.013   9.481  0.0980 -0.5372  0.7131
  696MOL0     C91788   5.558   3.194   9.184  0.5525  0.3730  0.4736
  696MOL0     C91789   5.603   3.321   9.154  0.9630 -0.2311  0.5466
  696MOL0     N91790   6.205   3.914   9.297 -0.0429  0.0844 -0.5069
  696MOL0     N91791   6.252   3.938   9.413  0.1319  0.4068 -0.4105
  696MOL0     C91792   5.697   4.687   9.054  0.5388 -1.1151  0.4305
  696MOL0     C91793   5.575   4.676   8.987  0.4976 -0.8001 -0.8437
  696MOL0     C91794   5.173   4.534   8.853  0.4022  0.2025  0.5179
  696MOL0     C91795   5.146   4.415   8.785 -0.7101 -0.4429  0.5431
  696MOL0     C91796   5.035   4.407   8.700  0.1632  0.4966 -0.6484
  696MOL0     C91797   4.947   4.514   8.684 -0.4442  0.3841 -0.4168
  696MOL0     O91798   4.845   4.511   8.589  0.1052 -0.5706  0.0890
  696MOL0     C91799   4.756   4.629   8.571 -0.9176  0.8059 -0.7979
  696MOL0     C91800   4.632   4.605   8.481  0.2365 -0.2025  0.5784
  696MOL0     C91801   4.678   4.554   8.344  0.5254  0.4162  0.7615
  696MOL0     C91802   4.549   4.504   8.270  0.4400 -0.4883 -0.0411
  696MOL0     C91803   4.580   4.486   8.124  0.2475  0.1138  0.2048
  696MOL0     C91804   4.620   4.463   8.010 -0.3054  0.0842 -0.1032
  696MOL0     C91805   4.966   4.622   8.775  1.2252  0.8051  0.7715
  696MOL0     C91806   5.075   4.634   8.856  0.1403 -0.0141 -0.7400
  696MOL0     H91807   5.350   4.675   9.226 -0.0218  1.3542 -0.5871
  696MOL0     H91808   5.574   4.668   9.370  2.6967 -2.4721  0.2519
  696MOL0     H91809   5.897   4.519   9.247 -0.5795  2.0477 -0.8765
  696MOL0     H91810   5.786   4.537   9.377  0.6731 -0.9404 -0.4962
  696MOL0     H91811   5.937   4.640   9.521  0.0658  0.1566 -0.4648
  696MOL0     H91812   6.039   4.710   9.405 -0.0395 -0.0642 -0.0884
  696MOL0     H91813   6.122   4.505   9.321 -1.2086  2.3432 -0.6923
  696MOL0     H91814   6.021   4.415   9.452 -3.1046  2.4043  4.9519
  696MOL0     H91815   6.222   4.628   9.506  0.0834 -0.3156 -6.2890
  696MOL0     H91816   6.128   4.519   9.626 -0.0032 -0.1735 -0.1832
  696MOL0     H91817   6.337   4.422   9.631 -1.5581 -1.8626  1.3962
  696MOL0     H91818   6.354   4.430   9.445  1.4258 -2.2276 -0.3237
  696MOL0     H91819   6.333   4.196   9.535 -0.0171  0.4887  0.7416
  696MOL0     H91820   6.208   4.236   9.421 -2.4065  0.4586  0.6111
  696MOL0     H91821   6.138   4.256   9.708 -3.4518  1.5005 -1.7247
  696MOL0     H91822   6.041   4.228   9.573  0.1720  0.3274  2.2061
  696MOL0     H91823   6.082   3.998   9.680  0.9426 -2.3588 -1.2862
  696MOL0     H91824   6.251   4.031   9.673 -1.5505 -2.5734  0.8407
  696MOL0     H91825   5.955   4.053   9.447 -0.8166  0.3034 -1.7844
  696MOL0     H91826   6.021   3.904   9.090  2.0080 -2.0348  0.9747
  696MOL0     H91827   5.891   3.972   9.197 -0.1538  0.8616 -2.2289
  696MOL0     H91828   5.889   3.783   9.338  3.7572  2.8769 -0.1964
  696MOL0     H91829   5.976   3.679   9.234 -0.2097 -1.0676  3.2143
  696MOL0     H91830   5.704   3.806   9.163 -1.9922 -1.5319  1.5312
  696MOL0     H91831   5.823   3.756   9.038  1.2077  2.7751  1.4229
  696MOL0     H91832   5.836   3.530   9.136 -0.9366 -0.3289 -0.7705
  696MOL0     H91833   5.700   3.579   9.039  0.5103  1.9044 -0.4294
  696MOL0     H91834   5.551   3.469   9.451  2.9168  0.8547 -0.1760
  696MOL0     H91835   5.462   3.243   9.499 -1.8892  2.2015  0.0945
  696MOL0     H91836   5.538   2.792   9.517  0.7292 -1.2897  0.1658
  696MOL0     H91837   5.531   2.558   9.535 -0.6848  1.8089  1.6862
  696MOL0     H91838   5.358   2.400   9.550 -0.3599 -0.8381  0.7891
  696MOL0     H91839   5.518   2.332   9.545 -0.0131 -0.2162 -0.1476
  696MOL0     H91840   5.443   2.127   9.478  0.9883  2.0494 -1.8479
  696MOL0     H91841   5.275   2.175   9.436  0.4092 -2.3798 -0.3148
  696MOL0     H91842   5.226   2.221   9.667 -0.2015 -0.0384 -1.9325
  696MOL0     H91843   5.393   2.186   9.714  0.5844 -0.2553 -0.8731
  696MOL0     H91844   5.180   1.994   9.604  0.6816  0.5966 -2.1026
  696MOL0     H91845   5.349   1.947   9.630  0.6633  1.9442 -1.6605
  696MOL0     H91846   5.320   2.037   9.868 -0.5197  3.9409 -2.2175
  696MOL0     H91847   5.256   1.876   9.820  0.3431 -0.7742  1.2481
  696MOL0     H91848   5.037   2.009   9.784 -1.1952 -2.5697  1.6821
  696MOL0     H91849   5.128   2.147   9.858  2.1110 -0.9473 -0.8316
  696MOL0     H91850   5.107   1.877  10.008 -3.6330 -0.4800 -0.7617
  696MOL0     H91851   5.138   2.028  10.074 -0.2623  0.1403 -0.3293
  696MOL0     H91852   4.889   2.095   9.994 -1.5338  0.0473  3.1988
  696MOL0     H91853   4.912   2.009  10.140  0.0924 -1.1860  1.1903
  696MOL0     H91854   5.419   2.498   9.125 -0.2782 -2.0374  1.2206
  696MOL0     H91855   5.442   2.768   9.098 -0.1245 -1.2350 -1.1026
  696MOL0     H91856   5.581   3.113   9.116 -0.5080  2.1108 -2.0967
  696MOL0     H91857   5.640   3.342   9.054  0.9549 -0.7547  0.4311
  696MOL0     H91858   5.789   4.703   8.999  0.1828  1.7430  0.5002
  696MOL0     H91859   5.584   4.681   8.878  3.0540 -2.1348 -0.7660
  696MOL0     H91860   5.220   4.335   8.782  1.0650  1.1397 -0.8975
  696MOL0     H91861   5.026   4.311   8.650 -0.9606 -1.3225  2.7247
  696MOL0     H91862   4.818   4.714   8.540 -1.7977  1.1294 -1.7207
  696MOL0     H91863   4.713   4.655   8.668 -0.2881  0.0578 -0.3057
  696MOL0     H91864   4.580   4.521   8.528  0.3091 -0.4732  0.1790
  696MOL0     H91865   4.561   4.687   8.474  0.0308 -0.1791  2.4825
  696MOL0     H91866   4.747   4.470   8.358 -1.2764 -1.8171 -2.4233
  696MOL0     H91867   4.727   4.639   8.295 -0.8664  0.7702 -0.0690
  696MOL0     H91868   4.513   4.413   8.319 -1.2427  0.6562  0.9729
  696MOL0     H91869   4.475   4.585   8.276  0.6145 -0.1091 -2.1735
  696MOL0     H91870   4.661   4.440   7.914  1.5390 -4.0989  1.4163
  696MOL0     H91871   4.893   4.702   8.771  1.0932  0.6437 -1.5828
  696MOL0     H91872   5.075   4.719   8.924 -0.7390 -1.2500  0.8791
  697MOL0     O91873   8.843   4.550   3.282  0.3872  0.9344 -0.4003
  697MOL0     C91874   8.796   4.454   3.216 -0.1594 -0.4868 -0.3691
  697MOL0     O91875   8.665   4.417   3.219  0.1124  0.6195  0.2913
  697MOL0     C91876   8.564   4.504   3.240  0.1769 -0.1188  0.1263
  697MOL0     C91877   8.565   4.636   3.193  0.1606 -0.1229  0.0835
  697MOL0     C91878   8.456   4.721   3.209  0.0874  0.6481 -0.2372
  697MOL0     C91879   8.340   4.680   3.261  0.4678 -0.8594 -0.6058
  697MOL0     O91880   8.244   4.773   3.272  0.0268  0.9210 -0.9449
  697MOL0     C91881   8.113   4.737   3.322  0.1123 -0.0432  0.6402
  697MOL0     C91882   8.005   4.845   3.292  0.3272 -0.9262  0.3410
  697MOL0     C91883   7.861   4.806   3.300 -0.6592 -0.4618 -0.0261
  697MOL0     C91884   7.780   4.938   3.274 -0.0592  0.0904  0.2419
  697MOL0     C91885   7.630   4.911   3.295 -0.2156  0.0656  0.3901
  697MOL0     C91886   7.535   4.989   3.209  0.1121 -0.2477  0.5745
  697MOL0     C91887   7.543   5.145   3.224 -0.1790 -0.0216  0.6277
  697MOL0     C91888   7.509   5.192   3.370 -0.7723 -0.6145 -0.0953
  697MOL0     N91889   7.374   5.158   3.422  0.0595 -0.2397  0.1182
  697MOL0     C91890   7.276   5.250   3.418 -0.3785  0.3770  1.0459
  697MOL0     C91891   7.168   5.184   3.458 -0.0245 -0.1867 -1.1493
  697MOL0     C91892   7.026   5.237   3.474  0.2540  0.7580 -0.4091
  697MOL0     C91893   6.935   5.215   3.347  0.6480  0.0931 -0.2879
  697MOL0     C91894   6.944   5.072   3.305  0.3510  0.8357  0.9407
  697MOL0     C91895   6.840   5.029   3.211  0.0183 -0.2809 -0.9060
  697MOL0     O91896   6.706   5.017   3.281 -0.4461 -0.6925 -0.6662
  697MOL0     C91897   6.595   4.988   3.206 -1.0918 -0.2628 -0.2615
  697MOL0     C91898   6.474   4.952   3.282  0.1888 -0.2882  0.6087
  697MOL0     C91899   6.359   4.910   3.211 -0.7425  0.4185 -0.4280
  697MOL0     C91900   6.346   4.912   3.081 -0.3956  0.7754 -0.2066
  697MOL0     C91901   6.207   4.896   3.025  0.1672  0.2239  0.5465
  697MOL0     O91902   6.102   4.872   3.101  0.4622 -1.0844 -0.1317
  697MOL0     C91903   5.976   4.855   3.056  0.3063 -0.2851  0.0665
  697MOL0     C91904   5.926   4.726   3.043 -0.2269  0.6361  0.2540
  697MOL0     C91905   5.800   4.717   2.988  0.2379  0.2772  0.4154
  697MOL0     C91906   5.721   4.827   2.954  0.4578 -0.6261  0.3559
  697MOL0     O91907   5.604   4.812   2.898 -0.3187 -0.2768 -0.0802
  697MOL0     C91908   5.497   4.910   2.923 -0.4867 -0.4694  1.0442
  697MOL0     C91909   5.377   4.843   2.874 -0.5887  0.1011  0.1582
  697MOL0     C91910   5.253   4.922   2.914 -1.0384  0.0286  0.5406
  697MOL0     C91911   5.131   4.855   2.847 -0.1634  0.8773 -0.7398
  697MOL0     C91912   5.006   4.946   2.865  0.3733  0.7749 -0.7151
  697MOL0     C91913   4.884   4.862   2.834  0.5244  0.6111  0.3077
  697MOL0     C91914   4.782   4.952   2.759 -0.4477  0.0381  0.0231
  697MOL0     C91915   4.662   4.872   2.734 -0.2999  0.2491  0.1870
  697MOL0    Cl91916   4.554   4.843   2.872  0.2496  0.1607  0.3147
  697MOL0     C91917   5.774   4.954   2.977  0.2347 -0.9515 -0.1367
  697MOL0     C91918   5.898   4.971   3.028 -0.2890  0.3985 -0.2935
  697MOL0     O91919   6.202   4.901   2.902 -0.8556 -0.3573 -1.0474
  697MOL0     C91920   6.470   4.945   3.002 -0.3516  0.3480 -0.5691
  697MOL0     C91921   6.584   4.981   3.067  0.3424 -0.0741 -0.0839
  697MOL0     N91922   7.207   5.042   3.468  0.2396 -0.5950  0.5788
  697MOL0     N91923   7.335   5.030   3.453  0.5769 -0.1194  0.3300
  697MOL0     C91924   8.338   4.550   3.321 -0.5938  0.3467 -0.0349
  697MOL0     C91925   8.447   4.461   3.305  0.3692 -0.3417 -0.3900
  697MOL0     C91926   8.889   4.367   3.141 -0.5625  0.5204 -0.9324
  697MOL0     C91927   9.028   4.392   3.162 -0.0162  0.4029 -0.6416
  697MOL0     C91928   9.115   4.310   3.106 -0.7945 -1.0263  0.7644
  697MOL0     C91929   9.081   4.200   3.027 -0.1179 -0.3245  0.7765
  697MOL0     O91930   9.177   4.132   2.959  0.0681 -0.1139 -0.3313
  697MOL0     C91931   9.315   4.146   2.987  0.4956 -0.4218  0.3468
  697MOL0     C91932   9.401   4.068   2.887 -0.3974 -0.3626  0.4617
  697MOL0     C91933   9.369   3.921   2.919 -0.0319 -0.1404  0.7797
  697MOL0     C91934   9.472   3.834   2.839 -1.0982 -0.6457 -0.5035
  697MOL0     C91935   9.440   3.694   2.832 -0.1922  0.5719 -0.1231
  697MOL0     C91936   9.419   3.571   2.834 -0.3013  0.1004  0.3372
  697MOL0     C91937   8.944   4.185   2.994  0.3985  0.0756 -0.2167
  697MOL0     C91938   8.845   4.259   3.055 -0.4261  0.4373 -1.4725
  697MOL0     H91939   8.661   4.672   3.157  1.2274 -0.5650  2.3430
  697MOL0     H91940   8.456   4.827   3.188  1.7300  0.8068  0.4477
  697MOL0     H91941   8.114   4.709   3.427  2.2409 -1.7147  0.2401
  697MOL0     H91942   8.079   4.653   3.261  1.1822  1.2710 -1.9643
  697MOL0     H91943   8.026   4.868   3.187  1.3845 -1.2287  0.4754
  697MOL0     H91944   8.014   4.935   3.354 -0.1971 -1.0346  0.5784
  697MOL0     H91945   7.824   4.764   3.394  0.5383  2.3057  1.7942
  697MOL0     H91946   7.839   4.735   3.220 -3.3396  2.8251 -2.4753
  697MOL0     H91947   7.805   5.017   3.345 -1.5847  0.0995  0.8112
  697MOL0     H91948   7.803   4.986   3.178 -2.1620  0.8452  0.0727
  697MOL0     H91949   7.615   4.929   3.402 -0.9075  0.2589  0.2668
  697MOL0     H91950   7.618   4.805   3.273 -0.7545 -0.1020  1.4495
  697MOL0     H91951   7.430   4.963   3.228 -0.8580 -0.4711 -4.0227
  697MOL0     H91952   7.556   4.967   3.104  1.2274 -0.0896  0.7577
  697MOL0     H91953   7.640   5.182   3.189  0.0370  0.4545  1.6892
  697MOL0     H91954   7.468   5.188   3.157 -1.7637 -1.2438  1.5423
  697MOL0     H91955   7.523   5.300   3.368  0.5476 -0.7693 -0.8275
  697MOL0     H91956   7.593   5.162   3.435  1.6586  0.4621 -2.5300
  697MOL0     H91957   7.285   5.354   3.390  0.4404 -0.3283 -1.6240
  697MOL0     H91958   7.039   5.345   3.484  0.9245  0.4694  3.1765
  697MOL0     H91959   6.984   5.194   3.566  0.7962 -1.1286 -0.9923
  697MOL0     H91960   6.971   5.272   3.260 -1.6620  1.4348 -0.4445
  697MOL0     H91961   6.830   5.238   3.369  0.5565 -2.6314  2.9965
  697MOL0     H91962   7.038   5.050   3.255 -0.7591  0.6195 -1.1831
  697MOL0     H91963   6.935   5.004   3.391 -2.7320 -0.2001 -0.0590
  697MOL0     H91964   6.864   4.928   3.176 -2.9656 -1.0763 -0.9106
  697MOL0     H91965   6.826   5.092   3.123 -0.6258 -2.9993 -2.8749
  697MOL0     H91966   6.482   4.953   3.390  1.9023 -0.6840  0.5173
  697MOL0     H91967   6.272   4.888   3.272  0.2240 -1.4964  0.3583
  697MOL0     H91968   5.973   4.632   3.067 -0.6103  0.4099  0.1353
  697MOL0     H91969   5.756   4.623   2.955  0.0672  0.9385 -1.3431
  697MOL0     H91970   5.514   5.007   2.876  0.8078 -0.7235  0.9500
  697MOL0     H91971   5.487   4.940   3.028  4.4774  0.9363  1.3694
  697MOL0     H91972   5.362   4.754   2.937 -1.8616  0.7900  0.8760
  697MOL0     H91973   5.374   4.821   2.767 -4.4878  0.1451  0.0940
  697MOL0     H91974   5.263   5.025   2.879  1.0760 -0.3817 -0.1765
  697MOL0     H91975   5.227   4.921   3.020 -1.2326 -1.3446  0.4963
  697MOL0     H91976   5.151   4.841   2.741  2.5007  2.0772 -0.5014
  697MOL0     H91977   5.112   4.757   2.890  0.2338  1.0047 -0.2582
  697MOL0     H91978   5.017   5.029   2.795 -1.3667  2.1506  0.5731
  697MOL0     H91979   5.002   4.973   2.971  0.5699 -0.3477 -0.4076
  697MOL0     H91980   4.844   4.827   2.929 -0.9786  1.1179 -0.0985
  697MOL0     H91981   4.913   4.773   2.777 -0.8099 -1.4759  2.6588
  697MOL0     H91982   4.758   5.044   2.813  0.4492  1.1567 -1.4123
  697MOL0     H91983   4.820   4.984   2.662 -1.9552 -1.5042 -1.1303
  697MOL0     H91984   4.702   4.781   2.689  1.7658  2.2530 -2.3048
  697MOL0     H91985   4.609   4.915   2.649 -3.0741 -1.9730  0.6465
  697MOL0     H91986   5.716   5.044   2.959 -2.6386 -2.3384  1.3753
  697MOL0     H91987   5.940   5.065   3.062  3.8627 -1.5321  0.6300
  697MOL0     H91988   6.469   4.926   2.895  0.4083 -1.3729 -0.3163
  697MOL0     H91989   6.665   5.016   3.004  0.9058  2.3822  1.7943
  697MOL0     H91990   8.260   4.519   3.390 -1.2173 -1.8697 -1.6154
  697MOL0     H91991   8.442   4.366   3.359  1.4032 -0.1925 -0.0094
  697MOL0     H91992   9.057   4.477   3.223 -2.3135  0.8037 -0.0237
  697MOL0     H91993   9.219   4.340   3.111 -1.0837  0.3678 -0.7606
  697MOL0     H91994   9.337   4.110   3.088 -3.0832 -0.6634  1.1579
  697MOL0     H91995   9.333   4.254   2.981  0.6656 -0.2504  2.8895
  697MOL0     H91996   9.358   4.099   2.791 -2.9160 -3.1868  0.5502
  697MOL0     H91997   9.508   4.090   2.894  0.0167 -1.3759 -1.7071
  697MOL0     H91998   9.267   3.897   2.888 -0.3056  2.9148 -1.0096
  697MOL0     H91999   9.384   3.904   3.026 -0.6725 -1.7921  0.6415
  697MOL0     H92000   9.483   3.873   2.737  1.6745  1.2481  0.3948
  697MOL0     H92001   9.568   3.845   2.890 -2.3372 -0.8366  1.9719
  697MOL0     H92002   9.406   3.466   2.823  3.3634 -0.4224 -0.1763
  697MOL0     H92003   8.920   4.112   2.918  0.4331  1.0561 -1.2046
  697MOL0     H92004   8.737   4.251   3.052 -0.6355  2.3550 -0.7289
  698MOL0     O92005   1.010  11.065  11.229 -0.3564 -1.7352  0.0366
  698MOL0     C92006   1.061  10.998  11.323  0.1151 -0.2586  0.7467
  698MOL0     O92007   0.988  10.917  11.407  0.8070 -0.1288  0.1748
  698MOL0     C92008   0.845  10.916  11.394 -0.5403  0.4896 -0.6514
  698MOL0     C92009   0.784  10.871  11.272 -0.1323  0.7643 -0.0444
  698MOL0     C92010   0.646  10.881  11.247 -0.0161  0.0759  0.3147
  698MOL0     C92011   0.567  10.919  11.358  0.0827  0.0165 -0.0070
  698MOL0     O92012   0.433  10.925  11.325 -0.0173 -0.3116 -0.2757
  698MOL0     C92013   0.337  10.966  11.422 -0.1357 -0.6913 -0.6288
  698MOL0     C92014   0.195  10.929  11.371  0.2831 -0.9923 -0.3109
  698MOL0     C92015   0.105  11.015  11.456 -0.0881 -0.4068 -0.5808
  698MOL0     C92016  -0.049  11.004  11.432 -0.4168 -0.0040 -0.0510
  698MOL0     C92017  -0.142  11.106  11.514 -0.0908 -0.0776 -0.8029
  698MOL0     C92018  -0.184  11.063  11.655 -0.2063 -0.7373 -0.1827
  698MOL0     C92019  -0.267  11.177  11.708  1.0810  0.2172 -0.4025
  698MOL0     C92020  -0.327  11.150  11.845  0.3060  0.1772  0.0461
  698MOL0     N92021  -0.445  11.072  11.854 -0.0227 -0.3718  0.4961
  698MOL0     C92022  -0.552  11.112  11.930 -0.3198 -0.7959  0.1989
  698MOL0     C92023  -0.637  11.006  11.940 -1.2079 -0.2626 -0.1063
  698MOL0     C92024  -0.758  11.020  12.017 -0.1690 -0.1349 -0.4139
  698MOL0     C92025  -0.881  11.003  11.938  0.0141  0.1965 -0.3427
  698MOL0     C92026  -0.903  10.894  11.840  0.7489  0.2551  0.2975
  698MOL0     C92027  -1.043  10.903  11.769  0.5605 -0.0061 -0.2891
  698MOL0     O92028  -1.144  10.877  11.871 -0.6249  0.4003  0.1567
  698MOL0     C92029  -1.272  10.901  11.839  0.0199 -0.2506 -0.0934
  698MOL0     C92030  -1.366  10.877  11.941 -0.1517  0.7603  0.4009
  698MOL0     C92031  -1.501  10.893  11.916  0.5611 -0.0358 -0.2770
  698MOL0     C92032  -1.554  10.930  11.789  0.7171 -0.7596  0.1559
  698MOL0     C92033  -1.700  10.937  11.760 -0.3058 -0.6089 -0.4064
  698MOL0     O92034  -1.789  10.964  11.863  0.3721  0.7234 -0.6831
  698MOL0     C92035  -1.928  10.966  11.844 -0.6230 -0.3620  0.1060
  698MOL0     C92036  -2.012  10.857  11.866  0.7208  0.8787 -0.3845
  698MOL0     C92037  -2.148  10.874  11.856  1.0707  0.4155  0.2701
  698MOL0     C92038  -2.206  10.994  11.824  0.7392 -0.0649  1.1500
  698MOL0     O92039  -2.347  11.006  11.805 -1.1444 -0.1604 -0.5596
  698MOL0     C92040  -2.404  11.112  11.726 -0.3675 -0.3469 -0.4882
  698MOL0     C92041  -2.552  11.077  11.697 -0.1434  1.1285 -0.4620
  698MOL0     C92042  -2.632  11.076  11.828  0.1675 -0.6949  0.3325
  698MOL0     C92043  -2.779  11.060  11.797 -0.1965 -0.6901 -0.3205
  698MOL0     C92044  -2.865  11.080  11.925  0.0704 -0.3696  0.1930
  698MOL0     C92045  -3.012  11.116  11.886 -0.3725  0.3104 -0.2333
  698MOL0     C92046  -3.090  11.127  12.013 -0.0186  0.2406  0.0271
  698MOL0     C92047  -3.237  11.159  11.986 -0.3404  0.3819  0.9535
  698MOL0    Cl92048  -3.270  11.330  11.940 -0.0818 -0.1105 -0.1680
  698MOL0     C92049  -2.122  11.105  11.814 -0.1605  0.4070  0.2222
  698MOL0     C92050  -1.983  11.087  11.816  0.0698 -0.4065 -0.6999
  698MOL0     O92051  -1.729  10.926  11.639 -0.8256  0.2151  0.6472
  698MOL0     C92052  -1.455  10.952  11.694 -0.8694 -0.4956  0.4875
  698MOL0     C92053  -1.315  10.948  11.715 -0.2266  0.0141 -0.1351
  698MOL0     N92054  -0.584  10.891  11.884  0.1333  0.2671 -0.4141
  698MOL0     N92055  -0.467  10.934  11.831  0.3595  0.1506 -0.2844
  698MOL0     C92056   0.622  10.962  11.484 -0.1360  0.4911  0.4083
  698MOL0     C92057   0.760  10.954  11.496  0.0472  0.5473  0.6053
  698MOL0     C92058   1.210  10.992  11.340  0.4006  0.4329  0.7618
  698MOL0     C92059   1.268  10.915  11.445 -0.8491  0.8305 -0.3740
  698MOL0     C92060   1.408  10.903  11.456  0.0887 -0.5648  0.4375
  698MOL0     C92061   1.485  10.985  11.378  0.0033  0.9549  0.1333
  698MOL0     O92062   1.622  10.990  11.381 -0.1147 -0.1650  0.1285
  698MOL0     C92063   1.693  10.931  11.496 -0.4570  0.3277  0.3162
  698MOL0     C92064   1.839  10.949  11.462 -0.1245  0.5862  0.4338
  698MOL0     C92065   1.922  10.888  11.566  0.3486 -0.4876 -0.3629
  698MOL0     C92066   1.958  10.746  11.541 -0.4061  0.2029 -0.9282
  698MOL0     C92067   2.051  10.716  11.651  0.8060  0.1622  0.1521
  698MOL0     C92068   2.124  10.690  11.744 -0.2761  0.3620  0.4837
  698MOL0     C92069   1.427  11.063  11.281 -1.0236 -0.2985  0.4632
  698MOL0     C92070   1.289  11.063  11.258  0.3575  0.3247  0.0526
  698MOL0     H92071   0.841  10.835  11.187 -2.4665 -1.3078 -0.8619
  698MOL0     H92072   0.590  10.846  11.161  0.6030 -1.9572  0.6707
  698MOL0     H92073   0.351  11.073  11.437 -0.8256 -0.6930  0.1334
  698MOL0     H92074   0.350  10.923  11.522  0.1884  3.3172  1.2442
  698MOL0     H92075   0.172  10.826  11.398  0.4527 -0.5740  1.5565
  698MOL0     H92076   0.175  10.947  11.265  1.8417  1.3578 -0.2704
  698MOL0     H92077   0.126  11.120  11.432 -1.7164 -0.0454 -0.5433
  698MOL0     H92078   0.129  10.997  11.561  0.9311 -0.2011 -0.7638
  698MOL0     H92079  -0.081  11.017  11.328 -3.5792 -1.4637  0.5968
  698MOL0     H92080  -0.084  10.906  11.465 -0.8252  0.9854  2.7114
  698MOL0     H92081  -0.235  11.119  11.457 -1.0498 -0.1960  0.6697
  698MOL0     H92082  -0.090  11.201  11.529 -0.1151 -0.2149  0.2603
  698MOL0     H92083  -0.096  11.042  11.717  0.8774 -1.2557 -1.8018
  698MOL0     H92084  -0.249  10.975  11.659  0.0266 -1.0770 -2.4239
  698MOL0     H92085  -0.196  11.261  11.711  3.3642 -1.5758 -1.3770
  698MOL0     H92086  -0.353  11.207  11.647 -0.0371  0.0913  1.0727
  698MOL0     H92087  -0.348  11.252  11.878 -1.2560 -0.2353  0.4418
  698MOL0     H92088  -0.251  11.108  11.911  1.6551 -0.0158 -1.5710
  698MOL0     H92089  -0.569  11.215  11.961 -1.8255  0.3605 -3.8237
  698MOL0     H92090  -0.760  11.111  12.078 -0.4220 -1.9250  2.4323
  698MOL0     H92091  -0.768  10.939  12.089 -2.1245 -0.5167 -1.0337
  698MOL0     H92092  -0.886  11.099  11.886 -1.6440  0.7199  0.6869
  698MOL0     H92093  -0.960  10.999  12.014  2.1577  4.6936  2.4770
  698MOL0     H92094  -0.830  10.912  11.760  2.3063 -0.2332  1.5364
  698MOL0     H92095  -0.890  10.796  11.887 -0.0889  0.2835  0.5944
  698MOL0     H92096  -1.046  10.828  11.689 -3.9054  0.1836 -0.5245
  698MOL0     H92097  -1.034  11.007  11.736  1.5957  0.3183  0.9161
  698MOL0     H92098  -1.340  10.843  12.041 -3.3724  0.2472  1.1868
  698MOL0     H92099  -1.574  10.880  11.996  3.2505 -0.4946  2.2560
  698MOL0     H92100  -1.969  10.763  11.901 -0.3798  0.3519 -0.4089
  698MOL0     H92101  -2.221  10.795  11.871  1.3460  0.6120  3.4367
  698MOL0     H92102  -2.342  11.129  11.637  0.1001  1.2838  0.1248
  698MOL0     H92103  -2.408  11.201  11.789 -1.2831 -3.2967  4.0970
  698MOL0     H92104  -2.560  10.978  11.652 -0.8541  0.3928  1.2167
  698MOL0     H92105  -2.593  11.145  11.621 -0.0404  0.2470 -1.3271
  698MOL0     H92106  -2.614  11.165  11.889  1.0565 -0.5990 -0.0545
  698MOL0     H92107  -2.590  11.010  11.904  2.3102  1.8819  1.5408
  698MOL0     H92108  -2.823  11.120  11.717  0.3045 -0.3485 -0.3455
  698MOL0     H92109  -2.793  10.959  11.757  0.1055 -1.2164  0.8630
  698MOL0     H92110  -2.821  11.158  11.987 -1.9484  1.4759 -0.5582
  698MOL0     H92111  -2.862  10.992  11.990  2.1276 -1.3219 -1.0942
  698MOL0     H92112  -3.061  11.034  11.833  1.2491 -1.7093  1.2456
  698MOL0     H92113  -3.023  11.210  11.830 -3.2690  0.3434  0.2224
  698MOL0     H92114  -3.076  11.031  12.064  1.6079 -2.3483 -4.6599
  698MOL0     H92115  -3.046  11.207  12.074 -1.3908  2.4722 -1.7506
  698MOL0     H92116  -3.290  11.138  12.079 -0.1305  0.1711  1.0250
  698MOL0     H92117  -3.277  11.083  11.917 -3.3750 -0.5908  3.5355
  698MOL0     H92118  -2.156  11.203  11.782  2.6030  1.1369 -0.7487
  698MOL0     H92119  -1.914  11.166  11.790  0.7004 -0.0065  1.8569
  698MOL0     H92120  -1.497  10.970  11.596  0.5254 -0.5541 -0.1381
  698MOL0     H92121  -1.256  10.978  11.629  0.0111  0.3492  0.1443
  698MOL0     H92122   0.570  10.987  11.576 -0.7101 -0.8871  0.4992
  698MOL0     H92123   0.809  10.987  11.587  1.4448 -2.3935  1.0415
  698MOL0     H92124   1.207  10.872  11.524 -1.7926 -0.5567 -1.8091
  698MOL0     H92125   1.451  10.844  11.535 -0.6259  0.4396  1.6114
  698MOL0     H92126   1.670  10.825  11.504 -0.7711  0.2890 -0.8402
  698MOL0     H92127   1.671  10.982  11.590  2.8062 -0.5218  1.6773
  698MOL0     H92128   1.877  10.899  11.373  1.1586 -3.9324  3.1918
  698MOL0     H92129   1.864  11.055  11.454  2.8852 -0.1444 -1.0199
  698MOL0     H92130   1.880  10.898  11.666  0.4715 -0.0327 -0.3573
  698MOL0     H92131   2.015  10.944  11.582 -0.0581 -0.3293  1.7276
  698MOL0     H92132   1.872  10.679  11.552 -1.2311  1.2778 -0.6897
  698MOL0     H92133   2.021  10.738  11.451  2.2002 -0.8949  0.8593
  698MOL0     H92134   2.180  10.666  11.832  0.1689 -0.4608 -0.0115
  698MOL0     H92135   1.491  11.123  11.217  0.3634 -0.7956  1.3444
  698MOL0     H92136   1.249  11.107  11.167 -1.0856 -2.2523 -0.6471
  699MOL0     O92137   6.333  11.186   0.108 -0.0574 -0.9271 -0.0720
  699MOL0     C92138   6.301  11.174   0.222  0.4343 -0.1182 -0.0841
  699MOL0     O92139   6.392  11.171   0.323 -0.4712 -0.0626 -0.0528
  699MOL0     C92140   6.520  11.152   0.298 -1.1906  0.0030 -0.4061
  699MOL0     C92141   6.573  11.055   0.209 -0.0527 -0.0632  0.8678
  699MOL0     C92142   6.708  11.032   0.196 -0.6816  0.1541 -0.1778
  699MOL0     C92143   6.806  11.116   0.258 -0.3989 -0.0219  0.2880
  699MOL0     O92144   6.939  11.108   0.246 -0.0414  0.0713 -0.4524
  699MOL0     C92145   6.999  10.999   0.318  0.0022  0.0785 -0.7403
  699MOL0     C92146   7.015  11.036   0.465  0.3646  0.7620  0.0569
  699MOL0     C92147   7.114  11.142   0.490 -0.5440  0.3137 -0.4442
  699MOL0     C92148   7.112  11.197   0.630  0.9426  0.7277  0.3933
  699MOL0     C92149   7.202  11.308   0.650  0.1971  0.3717  0.1180
  699MOL0     C92150   7.344  11.252   0.643 -0.3514 -0.6506 -1.0685
  699MOL0     C92151   7.433  11.363   0.696  0.3103 -0.6333 -0.7471
  699MOL0     C92152   7.594  11.336   0.677 -0.1949  0.3696  0.3757
  699MOL0     N92153   7.630  11.199   0.705  0.0345 -0.2844 -0.5673
  699MOL0     C92154   7.687  11.145   0.823 -0.6247  0.9925 -0.5816
  699MOL0     C92155   7.717  11.015   0.794 -0.2990 -0.3483 -0.4971
  699MOL0     C92156   7.761  10.910   0.878 -1.0523 -0.9795  0.2564
  699MOL0     C92157   7.645  10.812   0.920  0.2114 -0.5688  0.1891
  699MOL0     C92158   7.533  10.875   1.005 -0.1939 -0.0026  0.1958
  699MOL0     C92159   7.425  10.775   1.041  0.3311  0.7883  0.3880
  699MOL0     O92160   7.353  10.740   0.920 -0.0199 -0.8941 -0.5608
  699MOL0     C92161   7.224  10.786   0.908  0.2086  0.0447  0.1290
  699MOL0     C92162   7.174  10.898   0.986 -0.0462  0.7398  0.4086
  699MOL0     C92163   7.044  10.945   0.953 -0.3326  0.0057  1.6462
  699MOL0     C92164   6.969  10.891   0.843 -0.8821 -0.5091 -0.0233
  699MOL0     C92165   6.837  10.957   0.807 -0.7668 -0.7620  0.4388
  699MOL0     O92166   6.819  11.090   0.852  0.7483  0.1522  0.0993
  699MOL0     C92167   6.693  11.153   0.839  0.3058  0.6132  0.7083
  699MOL0     C92168   6.661  11.250   0.936  0.9526  1.1343  0.4687
  699MOL0     C92169   6.546  11.325   0.928 -0.0427  0.6675 -0.3070
  699MOL0     C92170   6.460  11.313   0.818  0.7375 -0.1585 -0.5139
  699MOL0     O92171   6.353  11.406   0.805 -0.1447 -0.1038  0.1273
  699MOL0     C92172   6.248  11.373   0.887  0.3351  0.3888  0.5039
  699MOL0     C92173   6.118  11.438   0.837  0.4217 -0.2492  0.3856
  699MOL0     C92174   6.142  11.588   0.831 -0.1806 -0.7222  0.6107
  699MOL0     C92175   6.009  11.665   0.809 -1.1459  1.0126  0.4397
  699MOL0     C92176   6.021  11.806   0.857  0.8550 -0.6879  0.0399
  699MOL0     C92177   5.895  11.890   0.843  0.0497  0.2639  0.4310
  699MOL0     C92178   5.929  12.037   0.857  0.1604  0.8570 -0.1069
  699MOL0     C92179   5.959  12.069   1.006 -0.5114 -0.0319 -0.1487
  699MOL0    Cl92180   5.807  12.059   1.102  0.0574 -0.0027 -0.6353
  699MOL0     C92181   6.483  11.214   0.727 -0.2850 -0.2616 -0.2473
  699MOL0     C92182   6.605  11.136   0.733 -0.0984  0.9487  0.8642
  699MOL0     O92183   6.752  10.880   0.765 -0.2024  0.7550  0.2458
  699MOL0     C92184   7.026  10.787   0.765  0.6770  0.4100 -1.0632
  699MOL0     C92185   7.150  10.737   0.806  0.0408  0.0682  0.0474
  699MOL0     N92186   7.695  10.995   0.660  0.9440  0.4970  0.8191
  699MOL0     N92187   7.643  11.101   0.614 -0.3814 -0.2949 -0.1134
  699MOL0     C92188   6.752  11.219   0.341  0.5714 -0.1809  0.5132
  699MOL0     C92189   6.615  11.233   0.361 -0.5012 -0.3641  0.2456
  699MOL0     C92190   6.157  11.168   0.242 -0.8451  0.5524  0.1381
  699MOL0     C92191   6.070  11.208   0.144  0.1636 -0.0483 -0.2995
  699MOL0     C92192   5.934  11.209   0.160  0.2034  0.5320  0.2242
  699MOL0     C92193   5.881  11.160   0.280 -0.1716 -0.2689 -0.5354
  699MOL0     O92194   5.751  11.162   0.312 -0.5153 -0.4203  0.4209
  699MOL0     C92195   5.652  11.185   0.205  0.4089 -0.2161 -0.3318
  699MOL0     C92196   5.512  11.161   0.267 -0.5455  0.2475  0.2405
  699MOL0     C92197   5.398  11.149   0.171  0.0203 -0.7610  0.5493
  699MOL0     C92198   5.402  11.024   0.089 -0.1867  0.3569  0.0180
  699MOL0     C92199   5.285  11.028   0.003 -0.2055 -0.8071  0.1221
  699MOL0     C92200   5.189  11.043  -0.070 -0.1775  0.3057  0.0668
  699MOL0     C92201   5.961  11.121   0.383 -0.5063  0.0476 -0.0413
  699MOL0     C92202   6.104  11.133   0.369  0.3876 -0.4009 -0.0412
  699MOL0     H92203   6.504  10.991   0.154 -0.4766  1.3016 -0.2455
  699MOL0     H92204   6.737  10.950   0.131  3.2664  3.2493 -2.8352
  699MOL0     H92205   7.097  10.984   0.272  0.2343  0.3853 -0.3507
  699MOL0     H92206   6.947  10.904   0.300 -2.3813  1.0203  0.6901
  699MOL0     H92207   7.033  10.946   0.525 -1.1006  0.2468 -0.2399
  699MOL0     H92208   6.916  11.063   0.503  1.1857 -1.7213  4.7908
  699MOL0     H92209   7.103  11.231   0.426  0.5108  1.9025  1.4445
  699MOL0     H92210   7.210  11.093   0.477 -1.5730 -2.1155  0.6040
  699MOL0     H92211   7.013  11.238   0.654 -0.1139 -3.1024  3.6278
  699MOL0     H92212   7.114  11.112   0.698 -1.5251  0.9006  0.7918
  699MOL0     H92213   7.194  11.356   0.748 -0.0659  0.3563  0.1058
  699MOL0     H92214   7.175  11.378   0.571  0.9200 -1.0965 -1.5023
  699MOL0     H92215   7.382  11.225   0.544  0.7118  0.2476 -0.9278
  699MOL0     H92216   7.364  11.172   0.716 -0.8849  0.9033  0.8683
  699MOL0     H92217   7.420  11.459   0.646  4.1552 -0.4711 -1.7737
  699MOL0     H92218   7.409  11.374   0.802  0.2427 -1.3405 -0.6791
  699MOL0     H92219   7.654  11.399   0.745 -0.8349  1.0475  0.3232
  699MOL0     H92220   7.631  11.356   0.576  0.9159 -1.6008  0.3496
  699MOL0     H92221   7.704  11.188   0.921  0.7778  1.4470 -1.0076
  699MOL0     H92222   7.806  10.950   0.969 -1.6288 -3.0664  1.5226
  699MOL0     H92223   7.840  10.858   0.822 -1.4934 -1.5851  0.1823
  699MOL0     H92224   7.685  10.727   0.975  1.7295 -0.2556 -0.3922
  699MOL0     H92225   7.605  10.772   0.826 -2.4284  0.2905  0.8504
  699MOL0     H92226   7.565  10.912   1.103  0.7584 -0.0707 -0.0812
  699MOL0     H92227   7.491  10.966   0.963 -2.0038 -0.9745 -0.2238
  699MOL0     H92228   7.384  10.821   1.132 -3.6295 -1.1019 -0.2296
  699MOL0     H92229   7.463  10.685   1.088  0.6594  1.7919  2.1285
  699MOL0     H92230   7.223  10.935   1.075 -0.0389  0.5460  0.4866
  699MOL0     H92231   6.996  11.023   1.011 -0.1166  1.6916 -0.3545
  699MOL0     H92232   6.713  11.266   1.030 -0.6831  0.5349  1.5380
  699MOL0     H92233   6.519  11.384   1.015 -0.3425  0.8107 -0.4915
  699MOL0     H92234   6.262  11.417   0.986 -0.5345 -0.5151  1.0554
  699MOL0     H92235   6.231  11.265   0.899 -2.5495  0.2401 -3.1820
  699MOL0     H92236   6.043  11.416   0.913  0.4611 -1.3572  0.1309
  699MOL0     H92237   6.101  11.398   0.736  2.3170  0.7403 -0.3770
  699MOL0     H92238   6.207  11.616   0.748 -2.1774 -1.6683 -1.3803
  699MOL0     H92239   6.190  11.618   0.925  0.6298 -1.6847  0.5127
  699MOL0     H92240   5.988  11.659   0.701 -0.4088  1.2577  0.2765
  699MOL0     H92241   5.923  11.617   0.856 -1.9922  2.7200  0.7150
  699MOL0     H92242   6.100  11.854   0.800  1.5289 -0.1262  1.3993
  699MOL0     H92243   6.052  11.806   0.962  4.2639  0.5185 -0.8324
  699MOL0     H92244   5.824  11.844   0.912 -1.2572  1.7846  0.1688
  699MOL0     H92245   5.855  11.865   0.744  0.4095 -0.7247  0.5294
  699MOL0     H92246   6.014  12.072   0.799  2.4233 -2.9449  0.5739
  699MOL0     H92247   5.840  12.092   0.826 -0.4130  0.7224  1.1911
  699MOL0     H92248   5.999  12.171   1.015  2.2069 -1.0521  0.2102
  699MOL0     H92249   6.039  12.007   1.046  0.9698  0.7178 -1.8189
  699MOL0     H92250   6.420  11.209   0.638  3.4977  0.5620 -3.2369
  699MOL0     H92251   6.619  11.064   0.654  0.6656  1.0833  0.8715
  699MOL0     H92252   6.962  10.757   0.682 -1.3551 -1.2962  0.9560
  699MOL0     H92253   7.175  10.651   0.744  0.3917  0.3469 -0.2001
  699MOL0     H92254   6.830  11.281   0.384 -0.7320  2.3786 -0.6395
  699MOL0     H92255   6.587  11.312   0.430 -0.0438 -1.2524  1.4893
  699MOL0     H92256   6.107  11.237   0.046  1.3380  0.4251  0.2627
  699MOL0     H92257   5.868  11.252   0.085  2.0887  0.4822 -1.5271
  699MOL0     H92258   5.663  11.114   0.123 -0.5560 -0.2510 -0.4372
  699MOL0     H92259   5.657  11.289   0.172 -1.0024  0.0952  0.3916
  699MOL0     H92260   5.515  11.082   0.343 -1.8294  2.6545  2.9721
  699MOL0     H92261   5.499  11.253   0.324 -1.2504  0.7190 -0.6573
  699MOL0     H92262   5.399  11.235   0.104  2.6963 -0.8193  0.4002
  699MOL0     H92263   5.302  11.166   0.221  0.4552 -1.0718  1.5130
  699MOL0     H92264   5.495  11.024   0.031 -0.7085  2.5226 -0.8963
  699MOL0     H92265   5.383  10.941   0.158 -0.5556  1.0315  0.7381
  699MOL0     H92266   5.112  11.061  -0.142 -3.5538 -3.7122  2.2921
  699MOL0     H92267   5.906  11.108   0.476  0.1888 -1.4076  0.1874
  699MOL0     H92268   6.162  11.125   0.460 -1.2345 -0.7952  1.0081
  700MOL0     O92269   9.769   1.719   2.602 -0.1124  0.1555  0.1848
  700MOL0     C92270   9.660   1.765   2.608  0.5871 -0.3375 -0.8377
  700MOL0     O92271   9.637   1.897   2.618  0.4109  0.0957 -0.3082
  700MOL0     C92272   9.735   1.993   2.597  0.6195  0.3557 -0.2328
  700MOL0     C92273   9.725   2.093   2.502  0.4989 -1.0055 -0.8297
  700MOL0     C92274   9.831   2.192   2.485  1.2828  0.4729 -0.3731
  700MOL0     C92275   9.930   2.203   2.579  1.0238 -0.0259 -0.7631
  700MOL0     O92276  10.026   2.302   2.568  0.0310 -1.1781 -0.4576
  700MOL0     C92277  10.149   2.303   2.644 -0.3810  0.5633  0.6526
  700MOL0     C92278  10.229   2.414   2.568 -0.2256  1.3586  0.0008
  700MOL0     C92279  10.372   2.390   2.624 -0.1433 -0.6002 -0.0056
  700MOL0     C92280  10.479   2.474   2.564 -0.3653 -0.6334  0.7236
  700MOL0     C92281  10.461   2.624   2.580 -0.5083  0.1466 -0.0703
  700MOL0     C92282  10.590   2.702   2.547  0.3577 -0.6449 -0.2250
  700MOL0     C92283  10.700   2.681   2.658 -0.1503  0.1220  1.1891
  700MOL0     C92284  10.824   2.785   2.650 -0.2543  0.9950  0.0041
  700MOL0     N92285  10.940   2.738   2.565 -0.1890  0.5052 -0.2403
  700MOL0     C92286  11.079   2.752   2.603  0.1563  0.8359 -0.4926
  700MOL0     C92287  11.148   2.674   2.513 -0.4345 -0.0837  0.1514
  700MOL0     C92288  11.299   2.641   2.513  0.6015 -1.0132 -0.3952
  700MOL0     C92289  11.335   2.501   2.546  0.5864 -0.2544 -0.6618
  700MOL0     C92290  11.314   2.458   2.685 -0.2661  0.4336 -0.9078
  700MOL0     C92291  11.315   2.299   2.698  0.4513  0.4083 -0.1962
  700MOL0     O92292  11.241   2.281   2.823  0.2425 -0.0423 -0.0416
  700MOL0     C92293  11.111   2.248   2.825 -0.0107 -0.5577 -0.2225
  700MOL0     C92294  11.031   2.228   2.713 -0.6837 -0.9439 -0.9041
  700MOL0     C92295  10.904   2.182   2.711 -0.1981  0.8269 -0.9645
  700MOL0     C92296  10.851   2.144   2.844 -0.1375 -0.4688  0.5714
  700MOL0     C92297  10.710   2.097   2.847  0.0795  0.0675 -0.6057
  700MOL0     O92298  10.653   2.096   2.972 -0.2248  0.2599 -0.7613
  700MOL0     C92299  10.527   2.045   2.987 -0.6136 -1.0865  0.0250
  700MOL0     C92300  10.418   2.074   2.902  0.2269 -0.1528 -0.2866
  700MOL0     C92301  10.287   2.021   2.944 -0.1443  0.2852 -0.6648
  700MOL0     C92302  10.262   1.943   3.056  0.1877  0.6632  0.7521
  700MOL0     O92303  10.136   1.889   3.085 -0.3727 -0.4110 -0.4193
  700MOL0     C92304  10.123   1.759   3.147  0.0079 -0.6798 -0.2828
  700MOL0     C92305   9.986   1.734   3.204  0.5663 -0.0465  0.3395
  700MOL0     C92306   9.969   1.822   3.328 -0.5596 -0.5407  0.1161
  700MOL0     C92307   9.844   1.781   3.405  0.8292  0.1372 -0.0767
  700MOL0     C92308   9.863   1.660   3.487 -0.5066 -0.0243 -0.1253
  700MOL0     C92309   9.736   1.656   3.572  0.1043  0.9238 -0.1818
  700MOL0     C92310   9.723   1.511   3.626 -0.6130  0.3627 -0.5974
  700MOL0     C92311   9.606   1.493   3.725 -0.0496  0.6714  0.6837
  700MOL0    Cl92312   9.467   1.580   3.669  0.2057  0.1432 -0.8334
  700MOL0     C92313  10.376   1.928   3.140  1.1710  0.2908  0.1197
  700MOL0     C92314  10.502   1.973   3.101 -1.1996  0.1944 -1.0442
  700MOL0     O92315  10.645   2.068   2.739 -0.1110  0.6515  0.2169
  700MOL0     C92316  10.928   2.167   2.962  0.8592  0.0683 -0.2227
  700MOL0     C92317  11.058   2.217   2.955 -0.1917  0.2804  0.5030
  700MOL0     N92318  11.060   2.616   2.423  0.3500  0.1521  0.3286
  700MOL0     N92319  10.942   2.670   2.452 -0.1278  0.3110  0.5748
  700MOL0     C92320   9.928   2.113   2.690 -0.1550 -0.6764  0.6760
  700MOL0     C92321   9.835   2.004   2.688  0.1175  0.3258 -0.5782
  700MOL0     C92322   9.550   1.674   2.572 -0.6724 -0.0164 -0.1066
  700MOL0     C92323   9.573   1.543   2.517 -0.6105 -0.2424  0.5015
  700MOL0     C92324   9.465   1.468   2.480 -0.2295  0.1871  0.0926
  700MOL0     C92325   9.334   1.503   2.526  0.5760 -0.2009  0.0512
  700MOL0     O92326   9.229   1.417   2.525 -0.3587  0.1974  0.1340
  700MOL0     C92327   9.211   1.327   2.633 -0.4147  0.3123 -0.2098
  700MOL0     C92328   9.342   1.244   2.667  0.1050  0.2326 -0.6337
  700MOL0     C92329   9.311   1.167   2.798  0.1878 -0.0877  0.0069
  700MOL0     C92330   9.426   1.080   2.837 -0.7894  0.4874 -0.2526
  700MOL0     C92331   9.399   1.006   2.959  0.4046 -0.2687 -0.3297
  700MOL0     C92332   9.377   0.947   3.065 -0.1716 -0.0532 -0.6819
  700MOL0     C92333   9.311   1.622   2.584 -0.0930  0.3595  0.0573
  700MOL0     C92334   9.422   1.709   2.604  0.6647  0.0250  0.0483
  700MOL0     H92335   9.639   2.090   2.436 -2.3632  1.0611  2.4091
  700MOL0     H92336   9.831   2.261   2.402  2.2968  1.4553  0.4147
  700MOL0     H92337  10.195   2.204   2.636 -2.1620 -0.5071  2.6881
  700MOL0     H92338  10.138   2.334   2.749 -0.3666  0.6366  0.6327
  700MOL0     H92339  10.188   2.513   2.591 -1.9743  1.8195 -4.1042
  700MOL0     H92340  10.232   2.406   2.459  4.8219 -0.2733 -0.0246
  700MOL0     H92341  10.394   2.283   2.637 -1.6134 -0.5913  4.6061
  700MOL0     H92342  10.364   2.417   2.730  3.4356  2.6875 -0.3569
  700MOL0     H92343  10.579   2.443   2.595 -0.9845 -1.4509  1.9680
  700MOL0     H92344  10.487   2.449   2.457  2.7929 -0.4752  0.8222
  700MOL0     H92345  10.438   2.641   2.686 -0.9434 -2.3277  0.2813
  700MOL0     H92346  10.382   2.660   2.514 -1.6646 -2.7143 -0.3643
  700MOL0     H92347  10.578   2.810   2.540  3.0161 -0.2539  0.3249
  700MOL0     H92348  10.621   2.672   2.446  1.8096  0.2200 -0.0584
  700MOL0     H92349  10.647   2.702   2.751 -2.1774  0.1253  0.0817
  700MOL0     H92350  10.736   2.577   2.658 -1.1491 -0.4656 -3.5481
  700MOL0     H92351  10.861   2.805   2.750 -0.4977 -2.5865  0.9455
  700MOL0     H92352  10.792   2.878   2.603  1.3457  1.4676 -0.1950
  700MOL0     H92353  11.118   2.804   2.690 -0.6963  3.6349 -1.6745
  700MOL0     H92354  11.342   2.709   2.588 -3.7100  0.1139  1.4107
  700MOL0     H92355  11.340   2.668   2.416  0.2981  2.1331  0.2342
  700MOL0     H92356  11.444   2.499   2.539  0.5376 -0.8500 -1.3515
  700MOL0     H92357  11.275   2.442   2.477  0.2123 -0.9002  0.1897
  700MOL0     H92358  11.392   2.493   2.752  1.6563 -2.9296 -1.1476
  700MOL0     H92359  11.217   2.499   2.715 -0.4060 -1.4936  1.6593
  700MOL0     H92360  11.420   2.272   2.712  0.6027  0.8349 -0.4956
  700MOL0     H92361  11.277   2.241   2.613  0.6307 -0.7190  0.4619
  700MOL0     H92362  11.078   2.241   2.616  2.8185  0.0350  0.7592
  700MOL0     H92363  10.849   2.170   2.618  1.2370 -1.3000 -1.6240
  700MOL0     H92364  10.427   2.129   2.810  2.6806  0.7977  0.4557
  700MOL0     H92365  10.196   2.036   2.888 -0.5911 -0.2810 -0.0942
  700MOL0     H92366  10.198   1.764   3.226  0.3890  0.6249 -0.7047
  700MOL0     H92367  10.152   1.677   3.080  0.7623 -0.7349  0.1070
  700MOL0     H92368   9.979   1.630   3.238  1.6663  0.3474  1.9168
  700MOL0     H92369   9.911   1.744   3.126  1.4943 -1.6911 -0.8389
  700MOL0     H92370   9.959   1.926   3.297  0.3236  0.1602  2.0493
  700MOL0     H92371  10.056   1.813   3.393  1.0461  1.3897 -1.6349
  700MOL0     H92372   9.813   1.872   3.457 -0.3634 -0.0441 -0.4368
  700MOL0     H92373   9.776   1.753   3.324  2.6557  0.9761 -2.0012
  700MOL0     H92374   9.962   1.664   3.534  1.6129 -1.1320 -4.0664
  700MOL0     H92375   9.868   1.565   3.433  2.1962 -0.8608  1.4269
  700MOL0     H92376   9.655   1.693   3.508  0.3356  1.2389 -0.2950
  700MOL0     H92377   9.746   1.731   3.651 -2.2373  0.0371  1.0904
  700MOL0     H92378   9.702   1.438   3.547  0.8900 -0.6823 -0.0702
  700MOL0     H92379   9.817   1.482   3.672 -0.6561  0.3985 -0.4884
  700MOL0     H92380   9.630   1.518   3.829 -0.6405  3.5471  0.2318
  700MOL0     H92381   9.578   1.388   3.714 -0.8432  0.9548 -0.0710
  700MOL0     H92382  10.372   1.868   3.230 -0.2566  1.9907  1.2629
  700MOL0     H92383  10.577   1.948   3.175 -1.6252  2.2329  0.1646
  700MOL0     H92384  10.894   2.140   3.062  2.3247 -1.9549 -0.2130
  700MOL0     H92385  11.121   2.218   3.044  3.3854  0.4545 -1.8633
  700MOL0     H92386   9.999   2.114   2.773 -0.5929 -2.3246  1.1075
  700MOL0     H92387   9.839   1.922   2.760 -1.3170  2.2724  1.8565
  700MOL0     H92388   9.674   1.513   2.490 -0.6112  0.8343 -0.7813
  700MOL0     H92389   9.486   1.373   2.432  0.7299  1.4229 -2.0562
  700MOL0     H92390   9.136   1.256   2.600  1.2931  0.0891 -4.0963
  700MOL0     H92391   9.171   1.370   2.726  1.9358 -1.3745  1.7282
  700MOL0     H92392   9.373   1.188   2.578  0.8022  0.6023 -0.6316
  700MOL0     H92393   9.419   1.318   2.689 -1.3851  2.8070 -3.4250
  700MOL0     H92394   9.230   1.095   2.786  1.3759 -1.3849 -0.5294
  700MOL0     H92395   9.283   1.243   2.872  3.0933  3.5198 -2.2097
  700MOL0     H92396   9.444   1.011   2.754 -2.2100  1.5111 -1.4831
  700MOL0     H92397   9.519   1.138   2.839 -0.6395  0.2561 -0.4963
  700MOL0     H92398   9.354   0.896   3.156 -1.6809  1.2401 -0.2929
  700MOL0     H92399   9.211   1.650   2.616  0.3550 -1.9636  4.2525
  700MOL0     H92400   9.400   1.807   2.646 -0.5024 -1.1348  2.2987
  701MOL0     O92401   5.562   9.189   9.035  0.1881  0.0829  0.3825
  701MOL0     C92402   5.592   9.141   9.143 -0.0433 -1.1627  0.0317
  701MOL0     O92403   5.560   9.193   9.267 -0.4046 -0.3103  0.4145
  701MOL0     C92404   5.493   9.318   9.271  0.6826  0.2295  0.4409
  701MOL0     C92405   5.352   9.334   9.289  0.2066  0.2108 -0.6676
  701MOL0     C92406   5.286   9.460   9.296 -0.3110  0.4082 -0.5527
  701MOL0     C92407   5.369   9.574   9.274 -0.2109 -0.3968 -0.3611
  701MOL0     O92408   5.323   9.702   9.263 -0.6153 -0.1460 -0.0249
  701MOL0     C92409   5.196   9.718   9.203  1.0116 -1.1067 -0.1510
  701MOL0     C92410   5.162   9.868   9.202  0.3271  0.6875 -0.7020
  701MOL0     C92411   5.051   9.889   9.099 -0.6446 -0.4543 -0.2989
  701MOL0     C92412   5.022  10.048   9.085  0.0531  0.2939 -0.8641
  701MOL0     C92413   4.904  10.058   8.993 -0.4381 -0.3716  0.9643
  701MOL0     C92414   4.851  10.197   9.005  0.0740  0.6143 -0.2032
  701MOL0     C92415   4.746  10.218   8.891 -0.9711 -0.2779 -0.2073
  701MOL0     C92416   4.784  10.208   8.743 -0.5855 -0.3736 -0.4571
  701MOL0     N92417   4.674  10.253   8.671  0.3169  0.4048 -0.1610
  701MOL0     C92418   4.549  10.194   8.676 -0.7263 -0.1837 -0.5670
  701MOL0     C92419   4.464  10.261   8.602  0.2226  0.8841 -0.0533
  701MOL0     C92420   4.317  10.247   8.614  0.5271  0.0300 -0.5841
  701MOL0     C92421   4.238  10.274   8.486  0.5983 -0.6119  0.2016
  701MOL0     C92422   4.094  10.227   8.495 -0.3300 -0.2858  0.5550
  701MOL0     C92423   3.992  10.335   8.531 -0.6747 -0.0722 -0.9142
  701MOL0     O92424   3.868  10.276   8.506 -0.3371  0.3732 -1.0880
  701MOL0     C92425   3.761  10.317   8.582  0.1302 -0.5379  0.0289
  701MOL0     C92426   3.650  10.368   8.507  0.5366 -0.3378 -0.0617
  701MOL0     C92427   3.540  10.419   8.571 -0.7894  0.4130 -0.2365
  701MOL0     C92428   3.536  10.416   8.710  0.3616  0.8289  0.7194
  701MOL0     C92429   3.409  10.467   8.772  0.0761  0.1056 -0.6406
  701MOL0     O92430   3.304  10.508   8.699  0.1334  0.4795  0.6146
  701MOL0     C92431   3.185  10.556   8.747  0.2418  0.0233 -0.9133
  701MOL0     C92432   3.107  10.628   8.659 -0.0123  0.8297  0.6716
  701MOL0     C92433   2.984  10.681   8.691 -0.0138  0.2880  0.5883
  701MOL0     C92434   2.945  10.689   8.822  0.0406  0.3098 -1.2067
  701MOL0     O92435   2.832  10.748   8.862  0.0432  0.8362  0.3022
  701MOL0     C92436   2.709  10.700   8.810 -0.8794 -0.5871  0.3938
  701MOL0     C92437   2.652  10.566   8.873 -0.2470  0.0433  0.8751
  701MOL0     C92438   2.638  10.551   9.024 -0.0825 -0.1624 -0.2408
  701MOL0     C92439   2.561  10.422   9.057 -0.1749 -0.9424 -0.4201
  701MOL0     C92440   2.557  10.378   9.212  0.1509 -0.8843 -0.7436
  701MOL0     C92441   2.524  10.225   9.220  0.5322  0.1388  0.6495
  701MOL0     C92442   2.479  10.163   9.349  0.7529 -0.2151 -0.2525
  701MOL0     C92443   2.365  10.242   9.420  0.3621 -0.3434  0.0455
  701MOL0    Cl92444   2.207  10.249   9.334 -0.2298 -0.1226  0.1423
  701MOL0     C92445   3.016  10.618   8.914  0.6443  0.3343  0.0646
  701MOL0     C92446   3.131  10.547   8.880 -0.2398 -0.4741 -0.3022
  701MOL0     O92447   3.407  10.471   8.891  0.4923 -0.4133  0.2279
  701MOL0     C92448   3.645  10.366   8.791 -0.4577  0.6540  0.0575
  701MOL0     C92449   3.750  10.307   8.724  0.4176 -0.1615 -0.0130
  701MOL0     N92450   4.540  10.365   8.545 -0.0459  0.0045 -0.5101
  701MOL0     N92451   4.660  10.357   8.584  0.7681  0.1986 -0.1289
  701MOL0     C92452   5.508   9.558   9.248  0.9476  0.2121  0.2255
  701MOL0     C92453   5.567   9.433   9.251 -0.7887  0.5958  0.6527
  701MOL0     C92454   5.680   9.028   9.160 -0.0279  0.2883 -0.1850
  701MOL0     C92455   5.673   8.949   9.275  0.2379 -0.5211 -0.0659
  701MOL0     C92456   5.756   8.839   9.299  1.1152  0.0271  0.1879
  701MOL0     C92457   5.852   8.812   9.202  1.0587  0.6415  0.0481
  701MOL0     O92458   5.910   8.689   9.230 -0.6305 -0.4084  0.4715
  701MOL0     C92459   6.036   8.659   9.164 -0.5600 -0.3071 -0.3898
  701MOL0     C92460   6.157   8.738   9.203 -0.4391 -0.4526 -0.5487
  701MOL0     C92461   6.284   8.713   9.119  0.3246  0.1277  0.2669
  701MOL0     C92462   6.274   8.767   8.978 -0.0178 -0.4683  0.7873
  701MOL0     C92463   6.222   8.903   8.963  0.2109 -0.1641  0.0468
  701MOL0     C92464   6.178   9.014   8.942 -0.1370 -0.4450  0.2577
  701MOL0     C92465   5.860   8.895   9.086  0.0557 -0.9133 -0.2886
  701MOL0     C92466   5.773   9.002   9.065  1.0205 -0.8619 -0.6413
  701MOL0     H92467   5.299   9.243   9.315  0.6683  0.8596  3.1189
  701MOL0     H92468   5.178   9.472   9.297 -0.1886  1.7046 -0.1159
  701MOL0     H92469   5.116   9.670   9.260  0.2133 -1.1662 -1.2935
  701MOL0     H92470   5.196   9.681   9.100 -0.2310 -0.6481 -0.3372
  701MOL0     H92471   5.247   9.930   9.171 -0.5887  1.0456 -2.6166
  701MOL0     H92472   5.137   9.909   9.300 -0.4553  1.2592 -1.1313
  701MOL0     H92473   4.967   9.822   9.118  0.0919 -1.1514  0.6783
  701MOL0     H92474   5.087   9.857   9.001 -0.0492 -0.0704 -0.2095
  701MOL0     H92475   4.998  10.089   9.184 -0.2797 -1.1799 -0.2906
  701MOL0     H92476   5.112  10.096   9.047  2.2121 -3.4362 -0.9168
  701MOL0     H92477   4.822   9.987   9.011 -1.4890 -0.3533 -2.9209
  701MOL0     H92478   4.943  10.033   8.894  1.1894 -1.0477  1.7492
  701MOL0     H92479   4.938  10.262   8.989 -1.2509  2.8290  1.0532
  701MOL0     H92480   4.813  10.220   9.105  0.8963 -1.9558  0.7673
  701MOL0     H92481   4.664  10.152   8.919 -0.9827  1.2139  4.1833
  701MOL0     H92482   4.713  10.321   8.908 -0.3416 -0.3306  1.6087
  701MOL0     H92483   4.823  10.108   8.724  2.3037  0.3906  0.8605
  701MOL0     H92484   4.871  10.268   8.714  1.6958 -4.4016 -2.8896
  701MOL0     H92485   4.533  10.120   8.754  2.1890 -0.7368 -0.4034
  701MOL0     H92486   4.269  10.307   8.692 -0.0105 -0.4604 -0.5269
  701MOL0     H92487   4.301  10.144   8.646 -2.6750  0.4949 -0.3548
  701MOL0     H92488   4.286  10.231   8.397  2.6698 -2.4927  2.0716
  701MOL0     H92489   4.238  10.382   8.468  1.2792 -0.3731  1.5073
  701MOL0     H92490   4.068  10.196   8.393  0.5849 -1.7878  0.7518
  701MOL0     H92491   4.082  10.137   8.555 -1.1146 -0.8508 -0.4176
  701MOL0     H92492   4.012  10.424   8.471 -1.0971 -1.5355 -3.3439
  701MOL0     H92493   4.014  10.356   8.636 -2.0773  1.0469 -0.8109
  701MOL0     H92494   3.645  10.379   8.399 -2.8211 -0.0093  0.0311
  701MOL0     H92495   3.459  10.468   8.518 -0.4441  0.6169 -0.5755
  701MOL0     H92496   3.126  10.623   8.552 -2.2294 -2.1553  0.3157
  701MOL0     H92497   2.926  10.741   8.622  1.1459  1.8989  0.9351
  701MOL0     H92498   2.726  10.690   8.703  2.8196 -0.3293  0.8359
  701MOL0     H92499   2.634  10.776   8.835 -0.5627  0.0707 -0.6348
  701MOL0     H92500   2.712  10.480   8.844 -0.5802  0.2082 -0.3592
  701MOL0     H92501   2.553  10.550   8.830  0.1420  0.6969 -0.3166
  701MOL0     H92502   2.587  10.642   9.057  0.9509  0.5277 -0.5000
  701MOL0     H92503   2.740  10.545   9.061 -0.1125  0.0227 -0.1276
  701MOL0     H92504   2.461  10.444   9.018 -0.8621 -0.5311  1.4736
  701MOL0     H92505   2.601  10.342   8.995  1.2860  1.5723 -2.9226
  701MOL0     H92506   2.474  10.436   9.253  0.9184  0.9619 -1.7166
  701MOL0     H92507   2.650  10.406   9.262  0.1682 -0.0803 -1.2292
  701MOL0     H92508   2.605  10.164   9.177  0.6669  1.9871 -1.9877
  701MOL0     H92509   2.443  10.210   9.148  1.6693  0.7248 -0.7999
  701MOL0     H92510   2.442  10.062   9.330  2.4700 -0.6170 -1.9153
  701MOL0     H92511   2.564  10.148   9.416 -1.1246  1.3510  2.6710
  701MOL0     H92512   2.400  10.343   9.441 -0.5174 -0.3544  1.6835
  701MOL0     H92513   2.350  10.187   9.513 -1.1278 -1.8440 -1.0049
  701MOL0     H92514   2.998  10.632   9.020 -0.2871  1.0069 -0.1656
  701MOL0     H92515   3.186  10.498   8.959 -0.4752  0.5292  0.4989
  701MOL0     H92516   3.637  10.358   8.899 -2.4421 -1.9345 -0.1645
  701MOL0     H92517   3.832  10.264   8.780  1.4166 -0.3825 -1.5847
  701MOL0     H92518   5.574   9.637   9.212  1.3316 -0.3200 -0.2755
  701MOL0     H92519   5.676   9.428   9.248 -0.6788  2.1573 -2.3301
  701MOL0     H92520   5.602   8.975   9.352 -0.5959  1.3635 -1.3977
  701MOL0     H92521   5.758   8.776   9.387  2.6371 -0.7032 -0.3382
  701MOL0     H92522   6.033   8.672   9.055  2.4039  2.6175 -0.2623
  701MOL0     H92523   6.049   8.550   9.171 -1.3091 -0.4353 -0.7916
  701MOL0     H92524   6.131   8.844   9.197  1.3883  0.2150  1.7783
  701MOL0     H92525   6.185   8.723   9.307  2.5692  0.9512 -1.0383
  701MOL0     H92526   6.293   8.605   9.100  1.2111  0.2478 -0.0346
  701MOL0     H92527   6.377   8.747   9.166 -0.9587  2.3071  1.3838
  701MOL0     H92528   6.375   8.764   8.936 -1.1420 -1.3220 -2.0813
  701MOL0     H92529   6.207   8.706   8.917 -0.0275  1.5759 -1.3908
  701MOL0     H92530   6.136   9.112   8.934  0.0648 -0.4103 -0.5052
  701MOL0     H92531   5.930   8.870   9.007  0.1622 -3.5184  0.5236
  701MOL0     H92532   5.773   9.062   8.974  0.1008  2.2055  1.2325
  702MOL0     O92533   0.139   8.961   3.495 -0.3664 -0.0213  0.1484
  702MOL0     C92534   0.220   8.970   3.405  0.3930  0.3904 -1.2390
  702MOL0     O92535   0.195   8.948   3.274  0.5500 -0.4412  0.4824
  702MOL0     C92536   0.067   8.924   3.224  0.8531  0.4119 -0.4458
  702MOL0     C92537  -0.047   8.871   3.299 -0.3457 -0.5045  0.6411
  702MOL0     C92538  -0.175   8.889   3.248 -0.1309 -0.0769  0.1993
  702MOL0     C92539  -0.193   8.939   3.125  0.5423 -0.6257  0.2070
  702MOL0     O92540  -0.324   8.959   3.083  0.1500 -0.1691  0.6147
  702MOL0     C92541  -0.359   9.100   3.059 -1.0352  0.3535 -0.8361
  702MOL0     C92542  -0.448   9.107   2.930 -0.2282 -0.6439  0.5669
  702MOL0     C92543  -0.599   9.101   2.962 -0.3610 -0.2409  0.4566
  702MOL0     C92544  -0.658   9.191   2.846 -0.9151 -1.1724 -0.5235
  702MOL0     C92545  -0.806   9.203   2.849 -0.7102  0.2247  0.7558
  702MOL0     C92546  -0.874   9.074   2.817 -0.6850 -0.0610 -0.4911
  702MOL0     C92547  -1.031   9.089   2.850 -0.9303 -0.3341 -0.6346
  702MOL0     C92548  -1.102   8.972   2.784 -0.0167 -0.6351  0.6730
  702MOL0     N92549  -1.248   8.972   2.802  0.0856  0.3412 -0.1047
  702MOL0     C92550  -1.349   9.040   2.728 -0.4199 -0.5622  0.2549
  702MOL0     C92551  -1.464   9.023   2.800  0.0286  0.0137  0.0798
  702MOL0     C92552  -1.593   9.089   2.756 -0.5267 -0.1425 -0.4545
  702MOL0     C92553  -1.720   8.991   2.750 -0.7069 -0.5805 -0.3280
  702MOL0     C92554  -1.842   9.071   2.692  0.4170  0.4285 -0.1398
  702MOL0     C92555  -1.963   8.990   2.724  0.5854 -0.2673  0.3529
  702MOL0     O92556  -2.074   9.058   2.648 -0.7893 -0.6603 -0.7789
  702MOL0     C92557  -2.202   9.024   2.691  0.0777  0.5547  0.2036
  702MOL0     C92558  -2.298   9.110   2.657 -0.4715  0.5174 -0.1722
  702MOL0     C92559  -2.425   9.087   2.671  0.4131 -0.0821 -0.2672
  702MOL0     C92560  -2.474   8.971   2.730 -0.4463  0.3274 -0.1231
  702MOL0     C92561  -2.616   8.946   2.754 -0.2986  0.6969  1.0801
  702MOL0     O92562  -2.700   9.045   2.718 -0.0901 -0.8699 -0.4972
  702MOL0     C92563  -2.835   9.038   2.746 -0.5107  0.9061  0.1039
  702MOL0     C92564  -2.885   9.120   2.842 -0.1806  1.1827  0.8169
  702MOL0     C92565  -3.021   9.127   2.866 -0.3691 -0.4732  0.0907
  702MOL0     C92566  -3.112   9.047   2.788  0.1090 -0.6854 -0.8917
  702MOL0     O92567  -3.248   9.063   2.822 -0.1045  0.7730  0.2562
  702MOL0     C92568  -3.347   8.971   2.769  0.3839  0.8143  0.0561
  702MOL0     C92569  -3.476   9.044   2.782  0.0241  0.1132 -0.8209
  702MOL0     C92570  -3.544   9.032   2.919  0.3634 -0.8449 -0.1402
  702MOL0     C92571  -3.583   8.892   2.962 -0.4273 -0.0140  0.1201
  702MOL0     C92572  -3.665   8.886   3.087 -0.5068 -0.4993 -0.3341
  702MOL0     C92573  -3.679   8.745   3.145 -0.1982 -0.1528  0.3317
  702MOL0     C92574  -3.756   8.754   3.273 -0.5236 -0.6966 -0.4651
  702MOL0     C92575  -3.745   8.621   3.355  0.5938  0.1271 -0.5812
  702MOL0    Cl92576  -3.808   8.478   3.268 -0.1031 -0.3622 -0.4126
  702MOL0     C92577  -3.061   8.953   2.699 -0.3444  0.2032  0.6459
  702MOL0     C92578  -2.920   8.949   2.676  0.2006 -0.1321 -0.7016
  702MOL0     O92579  -2.658   8.838   2.799 -0.0562 -1.2083  0.5578
  702MOL0     C92580  -2.371   8.878   2.774 -0.7585  0.5207 -0.4781
  702MOL0     C92581  -2.237   8.901   2.743  0.0002 -0.0734  0.0670
  702MOL0     N92582  -1.438   8.931   2.898 -0.0807 -0.2414 -0.4056
  702MOL0     N92583  -1.309   8.905   2.902  0.8303 -0.2123 -0.6859
  702MOL0     C92584  -0.083   8.983   3.045 -0.2424  0.5262 -0.0876
  702MOL0     C92585   0.050   8.961   3.087 -0.1125 -0.3720 -0.5476
  702MOL0     C92586   0.360   9.001   3.436  0.4008 -0.2179  0.3739
  702MOL0     C92587   0.388   9.068   3.558 -0.3538  0.9194 -0.3192
  702MOL0     C92588   0.523   9.104   3.584  0.9235  0.3570  0.4422
  702MOL0     C92589   0.628   9.067   3.502 -0.2541  1.2268  0.0511
  702MOL0     O92590   0.757   9.094   3.544 -0.1443  0.7618 -0.1268
  702MOL0     C92591   0.864   9.044   3.467  1.4706  0.4889  0.0946
  702MOL0     C92592   1.001   9.090   3.514  0.0710 -0.1231  0.3011
  702MOL0     C92593   1.021   9.242   3.490 -0.8216  0.5780  0.6243
  702MOL0     C92594   1.110   9.313   3.586 -0.0904  0.4995 -0.2569
  702MOL0     C92595   1.258   9.272   3.572 -0.1986 -0.6284  0.2064
  702MOL0     C92596   1.372   9.225   3.550  0.5643  0.0472 -0.1555
  702MOL0     C92597   0.592   8.994   3.383  0.4383  0.9548  0.7006
  702MOL0     C92598   0.464   8.960   3.341  0.1251 -0.7152 -0.4243
  702MOL0     H92599  -0.047   8.859   3.407 -3.2077  3.5065  1.2898
  702MOL0     H92600  -0.259   8.855   3.307  0.3462 -0.0999  0.8873
  702MOL0     H92601  -0.269   9.161   3.046  1.2381 -2.2888  1.1640
  702MOL0     H92602  -0.416   9.140   3.143 -0.1336 -0.7893  0.3716
  702MOL0     H92603  -0.416   9.029   2.859  0.0544  0.2881 -0.3487
  702MOL0     H92604  -0.431   9.201   2.878  0.6166  0.3323  2.5473
  702MOL0     H92605  -0.622   9.138   3.062  0.1493 -0.4042  0.6374
  702MOL0     H92606  -0.626   8.996   2.954 -0.4834 -0.1917  0.2141
  702MOL0     H92607  -0.616   9.291   2.858 -1.1164 -1.1432 -0.0427
  702MOL0     H92608  -0.627   9.158   2.746 -0.0740  0.2903 -0.7704
  702MOL0     H92609  -0.842   9.278   2.778 -3.0787 -1.0347  0.5440
  702MOL0     H92610  -0.839   9.246   2.943 -0.4342 -0.8854  1.3741
  702MOL0     H92611  -0.833   8.992   2.876  2.2022  1.4484 -0.2344
  702MOL0     H92612  -0.851   9.040   2.716 -1.8093 -0.4801 -0.6254
  702MOL0     H92613  -1.036   9.083   2.959 -1.4821  1.4220 -0.5402
  702MOL0     H92614  -1.075   9.181   2.809 -1.3007 -1.5219 -3.1177
  702MOL0     H92615  -1.066   8.874   2.814 -1.6956 -2.0895 -1.7017
  702MOL0     H92616  -1.085   8.980   2.676 -2.6694  1.8376  0.3027
  702MOL0     H92617  -1.332   9.117   2.653 -1.7350  0.4310  0.9373
  702MOL0     H92618  -1.581   9.142   2.661 -0.3724  0.7101  0.0374
  702MOL0     H92619  -1.632   9.163   2.826  1.6169  2.2371 -1.6035
  702MOL0     H92620  -1.735   8.967   2.856 -1.7961 -0.5824 -0.4675
  702MOL0     H92621  -1.691   8.896   2.704  0.3119 -0.1413 -0.6323
  702MOL0     H92622  -1.853   9.162   2.751  2.0058  0.8173 -0.3859
  702MOL0     H92623  -1.825   9.094   2.587  1.3706 -1.0106 -0.3334
  702MOL0     H92624  -1.982   8.994   2.831 -0.8432  1.7346  0.0847
  702MOL0     H92625  -1.946   8.888   2.687 -1.9222 -0.8090  0.5751
  702MOL0     H92626  -2.266   9.208   2.625 -1.8235  0.7141 -1.0526
  702MOL0     H92627  -2.494   9.163   2.633  0.4762  1.1031  1.8199
  702MOL0     H92628  -2.816   9.195   2.880  0.7011  0.3413  0.9092
  702MOL0     H92629  -3.058   9.192   2.944 -0.1632 -1.0486  0.6749
  702MOL0     H92630  -3.353   8.875   2.821 -1.7228 -0.0094 -1.5351
  702MOL0     H92631  -3.334   8.957   2.661 -2.2390 -0.1891 -0.2059
  702MOL0     H92632  -3.547   9.006   2.708  0.2539  2.8511 -2.5665
  702MOL0     H92633  -3.475   9.146   2.742  2.5189  0.3593 -0.2595
  702MOL0     H92634  -3.634   9.093   2.910 -0.5875 -2.2654 -0.5724
  702MOL0     H92635  -3.476   9.073   2.995  1.4777 -0.6686 -1.2028
  702MOL0     H92636  -3.614   8.829   2.878 -0.0277 -2.8698  1.9762
  702MOL0     H92637  -3.487   8.857   2.999  0.7859  3.3756  0.5483
  702MOL0     H92638  -3.759   8.933   3.055 -0.8341 -1.5947 -1.0604
  702MOL0     H92639  -3.621   8.954   3.160 -3.3092  0.2893  0.7421
  702MOL0     H92640  -3.579   8.711   3.172 -0.6247 -0.1276  2.0160
  702MOL0     H92641  -3.736   8.689   3.070  0.2637  0.1143 -0.2267
  702MOL0     H92642  -3.716   8.836   3.334 -2.3354  0.1191 -0.3167
  702MOL0     H92643  -3.862   8.769   3.253 -1.0561 -0.1513  2.2599
  702MOL0     H92644  -3.798   8.636   3.450  1.8523  0.0036  0.1566
  702MOL0     H92645  -3.641   8.600   3.380  0.4182  0.4946  0.5009
  702MOL0     H92646  -3.120   8.874   2.653  1.9377 -1.7698  0.9246
  702MOL0     H92647  -2.888   8.889   2.592  0.1134 -0.1803 -0.7006
  702MOL0     H92648  -2.397   8.785   2.823 -1.7889  0.5206 -0.9891
  702MOL0     H92649  -2.160   8.829   2.771 -0.2189 -0.1793  0.4081
  702MOL0     H92650  -0.099   9.019   2.945  0.6489 -1.1854 -0.8935
  702MOL0     H92651   0.138   8.969   3.024 -0.1745 -1.3521 -0.7850
  702MOL0     H92652   0.310   9.095   3.628  0.0607 -0.8322  0.9105
  702MOL0     H92653   0.529   9.155   3.679 -1.3870  1.5766  0.0044
  702MOL0     H92654   0.850   9.061   3.360 -0.3126 -3.7922 -0.5450
  702MOL0     H92655   0.858   8.935   3.481  0.8254  0.4337 -0.5875
  702MOL0     H92656   1.001   9.069   3.621 -0.5063 -1.5941  0.0416
  702MOL0     H92657   1.076   9.036   3.456 -0.5256  0.3276 -0.9325
  702MOL0     H92658   0.921   9.281   3.513 -0.8641  0.3549  0.8202
  702MOL0     H92659   1.051   9.273   3.390  2.1979  1.8009  1.7995
  702MOL0     H92660   1.094   9.421   3.574  0.0581  1.4470  5.4622
  702MOL0     H92661   1.087   9.288   3.690 -1.4405  0.5007 -0.5376
  702MOL0     H92662   1.471   9.189   3.534  0.4084 -0.3369 -0.2763
  702MOL0     H92663   0.674   8.946   3.330  0.6052 -0.3332  2.0410
  702MOL0     H92664   0.441   8.900   3.253 -0.1810 -0.6037 -0.4189
  703MOL0     O92665  10.201   7.279   6.134 -0.0146 -0.0961 -0.1465
  703MOL0     C92666  10.299   7.252   6.062  0.1350  0.0064 -0.0225
  703MOL0     O92667  10.351   7.324   5.962 -0.0057  0.1491 -0.0139
  703MOL0     C92668  10.301   7.454   5.924  1.2100  0.4681 -0.2755
  703MOL0     C92669  10.269   7.552   6.019  0.3655 -0.1035  0.5650
  703MOL0     C92670  10.221   7.680   5.984  0.7615 -0.2918  0.4903
  703MOL0     C92671  10.222   7.712   5.847 -0.4143  0.0823  0.7143
  703MOL0     O92672  10.182   7.840   5.807 -0.2551 -0.5650  0.4075
  703MOL0     C92673  10.097   7.854   5.694  0.7557  0.3798 -0.4657
  703MOL0     C92674   9.950   7.853   5.748 -0.1044  0.8072 -0.6494
  703MOL0     C92675   9.838   7.888   5.647  0.4015  0.0864 -0.5117
  703MOL0     C92676   9.702   7.851   5.720 -0.2428 -0.8352 -0.1177
  703MOL0     C92677   9.589   7.868   5.620  0.0174 -0.2513  0.1467
  703MOL0     C92678   9.465   7.825   5.682 -0.0757  0.6096 -0.3495
  703MOL0     C92679   9.339   7.852   5.607 -0.5583 -0.5264  0.3036
  703MOL0     C92680   9.323   7.756   5.490 -0.1629  1.0028  0.8444
  703MOL0     N92681   9.198   7.788   5.431  0.2434 -0.0232  0.4055
  703MOL0     C92682   9.075   7.730   5.464 -0.6808 -0.7323 -0.8136
  703MOL0     C92683   8.992   7.804   5.393  0.3771 -0.0222  0.8902
  703MOL0     C92684   8.841   7.787   5.371  0.6773 -0.7443 -0.1698
  703MOL0     C92685   8.771   7.829   5.490 -0.2027 -0.1319  0.6323
  703MOL0     C92686   8.628   7.857   5.447 -0.9300  0.1273  0.8735
  703MOL0     C92687   8.555   7.877   5.578  0.1442 -0.3504 -0.4590
  703MOL0     O92688   8.417   7.905   5.559 -0.5335 -0.0202 -0.3173
  703MOL0     C92689   8.331   7.794   5.575  0.1655 -0.6345  0.1596
  703MOL0     C92690   8.362   7.652   5.557  0.0707 -0.5422 -0.0379
  703MOL0     C92691   8.259   7.554   5.566  0.2462 -0.4653  0.1103
  703MOL0     C92692   8.121   7.589   5.581  0.9526 -0.4535  0.0715
  703MOL0     C92693   8.022   7.491   5.599 -0.4413 -0.5239 -0.1099
  703MOL0     O92694   7.963   7.481   5.724 -0.2117  0.2378 -0.3972
  703MOL0     C92695   7.842   7.410   5.736  0.0595  0.4979  0.3490
  703MOL0     C92696   7.725   7.462   5.686 -0.1541 -0.1314 -0.2809
  703MOL0     C92697   7.609   7.383   5.691  0.4986  0.4662  1.5160
  703MOL0     C92698   7.611   7.252   5.746 -0.0254  0.2405  0.4744
  703MOL0     O92699   7.500   7.178   5.763  0.2932  0.3859  0.2351
  703MOL0     C92700   7.374   7.240   5.739 -0.1878  0.4882  0.4094
  703MOL0     C92701   7.257   7.159   5.793 -1.3272  0.0703  0.3131
  703MOL0     C92702   7.131   7.224   5.751 -0.6531  0.2275 -0.5934
  703MOL0     C92703   7.018   7.121   5.777  0.0510  1.2952  0.2464
  703MOL0     C92704   6.883   7.184   5.734  0.9097 -0.4300  0.2417
  703MOL0     C92705   6.770   7.087   5.696 -0.5791  1.0526 -0.0194
  703MOL0     C92706   6.644   7.172   5.669 -1.1606 -0.0969 -0.4603
  703MOL0     C92707   6.551   7.086   5.579 -0.5166 -0.3646 -0.5642
  703MOL0    Cl92708   6.484   6.939   5.655  0.5146 -0.3072  0.3294
  703MOL0     C92709   7.731   7.202   5.797 -0.4287  0.2405 -0.1120
  703MOL0     C92710   7.850   7.281   5.791 -0.9200 -0.4859 -0.2369
  703MOL0     O92711   7.990   7.428   5.503  0.3268 -0.9957  0.5957
  703MOL0     C92712   8.088   7.731   5.578 -0.8470  0.4934  0.1890
  703MOL0     C92713   8.192   7.827   5.583 -0.6566 -0.2517 -0.4390
  703MOL0     N92714   9.056   7.901   5.313  0.3326  0.9199 -0.1550
  703MOL0     N92715   9.185   7.893   5.344  0.4370  0.0049  0.6896
  703MOL0     C92716  10.269   7.618   5.752  1.0259 -0.5650 -0.0780
  703MOL0     C92717  10.297   7.491   5.794 -0.4516 -0.5149  1.1291
  703MOL0     C92718  10.390   7.136   6.103 -0.1564 -0.2320  0.1684
  703MOL0     C92719  10.530   7.151   6.087 -0.8849 -0.0579 -0.0532
  703MOL0     C92720  10.620   7.058   6.122 -0.4376 -0.4919 -0.1219
  703MOL0     C92721  10.574   6.942   6.176 -0.4967  0.2813  0.1687
  703MOL0     O92722  10.649   6.833   6.216  0.5884  0.0398 -0.7959
  703MOL0     C92723  10.775   6.862   6.282 -0.7039  1.1780 -0.4523
  703MOL0     C92724  10.768   6.917   6.421  0.5527  1.4372  0.1195
  703MOL0     C92725  10.903   6.943   6.480 -0.6952  0.6206 -0.3187
  703MOL0     C92726  10.978   6.816   6.527  0.0039 -0.9166 -0.1544
  703MOL0     C92727  11.036   6.725   6.422  0.0532 -0.7384 -0.9212
  703MOL0     C92728  11.077   6.648   6.340  0.0146  0.1281 -1.0203
  703MOL0     C92729  10.440   6.920   6.208  0.4029  0.1964  0.4424
  703MOL0     C92730  10.345   7.019   6.163 -0.3159  0.2659  0.8941
  703MOL0     H92731  10.277   7.523   6.124 -2.3286 -1.1244  0.5899
  703MOL0     H92732  10.185   7.752   6.056 -0.1761 -0.3396  0.0839
  703MOL0     H92733  10.111   7.772   5.622  0.5322  1.5717 -1.9099
  703MOL0     H92734  10.114   7.953   5.651 -1.5157  0.6484 -0.9012
  703MOL0     H92735   9.951   7.934   5.823  1.6762 -1.5036  2.0470
  703MOL0     H92736   9.915   7.768   5.807 -2.4127  0.4015 -2.4813
  703MOL0     H92737   9.853   7.819   5.564  2.0011  0.4564 -0.5700
  703MOL0     H92738   9.850   7.990   5.609  2.4183 -0.4294 -1.4030
  703MOL0     H92739   9.711   7.747   5.752  0.9071 -1.0569 -1.0957
  703MOL0     H92740   9.694   7.919   5.806  2.8578 -0.6741  0.1617
  703MOL0     H92741   9.602   7.801   5.534 -2.2878 -1.2590  0.4945
  703MOL0     H92742   9.587   7.973   5.592 -2.2685 -0.6840 -1.6389
  703MOL0     H92743   9.454   7.878   5.777 -2.6758  1.5152 -1.0613
  703MOL0     H92744   9.465   7.716   5.687  0.1163  0.6637  1.0575
  703MOL0     H92745   9.255   7.837   5.675 -1.6041  2.9153 -0.0477
  703MOL0     H92746   9.342   7.955   5.570 -2.3810 -0.3855  0.4910
  703MOL0     H92747   9.324   7.649   5.511 -2.6271  0.6212 -0.5661
  703MOL0     H92748   9.393   7.784   5.411 -0.3236  1.2809  0.7990
  703MOL0     H92749   9.067   7.647   5.534  0.4973  0.0443  0.2916
  703MOL0     H92750   8.811   7.687   5.340  0.2846 -1.6827  2.9012
  703MOL0     H92751   8.824   7.864   5.295  4.6189 -0.5871 -1.1100
  703MOL0     H92752   8.815   7.922   5.528 -0.6174  0.9568 -1.4190
  703MOL0     H92753   8.778   7.743   5.557  1.5920 -2.5587 -2.3820
  703MOL0     H92754   8.629   7.950   5.391 -1.8327  0.5431  1.5174
  703MOL0     H92755   8.578   7.778   5.389 -0.7165  0.6694 -0.0560
  703MOL0     H92756   8.606   7.963   5.623  0.8669 -0.5734 -0.8381
  703MOL0     H92757   8.567   7.788   5.639 -0.7324  0.1094  0.4201
  703MOL0     H92758   8.466   7.623   5.553 -0.1593 -1.2363 -2.2878
  703MOL0     H92759   8.286   7.449   5.567  3.5494  0.2690 -0.8464
  703MOL0     H92760   7.720   7.562   5.644 -0.3535 -0.0927 -0.1649
  703MOL0     H92761   7.526   7.440   5.650  0.3371 -0.8730 -0.0881
  703MOL0     H92762   7.367   7.256   5.631 -1.3073  3.1665  0.8016
  703MOL0     H92763   7.375   7.335   5.792  1.4564  0.0614  1.2130
  703MOL0     H92764   7.260   7.151   5.902 -2.0387 -0.6614  0.2894
  703MOL0     H92765   7.252   7.061   5.744  0.9411  0.0477  0.0028
  703MOL0     H92766   7.133   7.256   5.647  1.3540  1.1323 -0.3357
  703MOL0     H92767   7.111   7.313   5.811  1.1802 -1.4881  2.8910
  703MOL0     H92768   7.030   7.026   5.725 -0.4962  3.0931 -3.4949
  703MOL0     H92769   7.009   7.098   5.884  0.1700 -4.2289 -0.6293
  703MOL0     H92770   6.914   7.239   5.644  0.5673 -0.7445 -0.0723
  703MOL0     H92771   6.853   7.263   5.803  2.6107  1.3413 -0.9256
  703MOL0     H92772   6.745   7.022   5.781  1.3624 -0.1859 -0.3286
  703MOL0     H92773   6.800   7.028   5.610 -0.9570 -0.5726  0.9190
  703MOL0     H92774   6.592   7.207   5.758 -2.9393 -0.4038 -1.3299
  703MOL0     H92775   6.678   7.255   5.606  3.8517 -2.0347 -0.7794
  703MOL0     H92776   6.611   7.055   5.494 -2.5209 -0.7993 -1.8784
  703MOL0     H92777   6.469   7.147   5.540 -0.2959 -1.6927 -3.3054
  703MOL0     H92778   7.725   7.100   5.834  0.3750  1.3394  3.3459
  703MOL0     H92779   7.945   7.250   5.834 -1.7313  1.1203  3.0185
  703MOL0     H92780   7.984   7.760   5.592 -0.2678  1.2561  4.3721
  703MOL0     H92781   8.177   7.933   5.596  2.5562  0.2412  0.1525
  703MOL0     H92782  10.285   7.637   5.646 -1.1030 -2.1684 -0.7584
  703MOL0     H92783  10.340   7.423   5.721 -3.4032  1.9882 -3.4305
  703MOL0     H92784  10.571   7.234   6.031  1.1576 -1.4963 -0.8129
  703MOL0     H92785  10.726   7.075   6.112 -0.1590 -0.9997  1.6886
  703MOL0     H92786  10.838   6.930   6.223 -2.1578  1.6169 -1.5501
  703MOL0     H92787  10.834   6.770   6.285  0.4900  1.9322  0.7178
  703MOL0     H92788  10.703   7.005   6.417 -1.0613  0.2403 -2.1215
  703MOL0     H92789  10.732   6.838   6.488  1.3852  1.2593  0.3718
  703MOL0     H92790  10.887   7.005   6.568  0.0269 -1.3142  1.2637
  703MOL0     H92791  10.967   6.997   6.410  0.5853 -1.7933 -1.1622
  703MOL0     H92792  11.063   6.852   6.585 -0.4789  1.9442 -1.0546
  703MOL0     H92793  10.917   6.752   6.591  2.0286 -2.1262  0.6191
  703MOL0     H92794  11.111   6.595   6.253 -3.3486 -1.1310 -1.6919
  703MOL0     H92795  10.422   6.830   6.266 -0.0575 -0.2726 -0.4123
  703MOL0     H92796  10.238   6.998   6.170 -0.1659 -0.3381  1.4989
  704MOL0     O92797   2.593   1.553   6.367  0.2280  0.1157 -0.5612
  704MOL0     C92798   2.538   1.469   6.435 -1.2866  0.0113 -0.4849
  704MOL0     O92799   2.470   1.356   6.394  0.1361 -0.3860  0.2493
  704MOL0     C92800   2.450   1.344   6.261 -0.1834 -0.0927  0.4961
  704MOL0     C92801   2.554   1.337   6.177 -0.7513  0.1469  0.0330
  704MOL0     C92802   2.533   1.329   6.041 -0.1777 -0.6675  0.2167
  704MOL0     C92803   2.406   1.336   5.983 -0.0336 -0.1408  0.5788
  704MOL0     O92804   2.402   1.321   5.850 -0.4619 -0.6833  0.6326
  704MOL0     C92805   2.273   1.264   5.803 -0.3142  0.3364  0.5811
  704MOL0     C92806   2.289   1.190   5.671  0.2347 -0.0419  0.8513
  704MOL0     C92807   2.162   1.126   5.620 -0.1353 -0.1733  0.3288
  704MOL0     C92808   2.082   1.222   5.541 -0.7404  0.8357  0.1391
  704MOL0     C92809   1.961   1.158   5.486 -0.3328  0.1828 -0.1046
  704MOL0     C92810   1.858   1.096   5.587 -0.4442 -0.2488 -0.3738
  704MOL0     C92811   1.723   1.050   5.520 -1.1170  0.4925  0.8025
  704MOL0     C92812   1.673   0.918   5.581  0.0885 -1.2911 -0.0093
  704MOL0     N92813   1.536   0.899   5.524 -0.1026 -0.7638 -0.8724
  704MOL0     C92814   1.507   0.822   5.413 -0.1463 -0.3247 -0.1731
  704MOL0     C92815   1.374   0.838   5.391  0.5839 -0.6471 -0.7346
  704MOL0     C92816   1.277   0.778   5.295 -1.0944 -1.0575 -0.2713
  704MOL0     C92817   1.268   0.625   5.300  0.0127 -0.2512  0.7807
  704MOL0     C92818   1.215   0.592   5.443  0.5738  0.1779  0.2138
  704MOL0     C92819   1.063   0.586   5.444  0.1522  0.1170 -0.7488
  704MOL0     O92820   1.036   0.443   5.439 -0.4232 -0.4980 -0.1568
  704MOL0     C92821   0.908   0.399   5.433  0.2620  1.1514 -0.4048
  704MOL0     C92822   0.801   0.485   5.437 -0.4029 -0.5226 -0.1926
  704MOL0     C92823   0.668   0.447   5.440 -0.2756  0.5472  0.2235
  704MOL0     C92824   0.641   0.302   5.440 -0.3601 -0.1160 -0.0520
  704MOL0     C92825   0.491   0.260   5.452 -0.2872  1.0906 -0.1407
  704MOL0     O92826   0.406   0.351   5.503 -0.0935  0.2960 -0.1153
  704MOL0     C92827   0.269   0.323   5.511  0.0960 -0.0839  0.1258
  704MOL0     C92828   0.205   0.387   5.619  0.0118  0.1371 -0.0330
  704MOL0     C92829   0.076   0.362   5.640  0.2381  0.2834  1.3180
  704MOL0     C92830  -0.007   0.285   5.544  0.0139  0.4832 -0.1183
  704MOL0     O92831  -0.140   0.257   5.562  0.3207  0.2135 -0.4311
  704MOL0     C92832  -0.235   0.344   5.619 -0.3464 -0.1621  0.5809
  704MOL0     C92833  -0.371   0.285   5.577  0.9570 -0.5858 -0.6848
  704MOL0     C92834  -0.477   0.374   5.630  0.4330  0.0220 -0.0085
  704MOL0     C92835  -0.520   0.335   5.772 -0.5509  0.4428 -0.4682
  704MOL0     C92836  -0.658   0.395   5.806  0.1197 -0.9493 -0.5801
  704MOL0     C92837  -0.710   0.329   5.935 -0.4466 -0.0828  0.3430
  704MOL0     C92838  -0.837   0.379   5.992  0.3265 -0.0072  0.8415
  704MOL0     C92839  -0.883   0.289   6.099 -0.2334 -0.4419 -0.5199
  704MOL0    Cl92840  -1.049   0.310   6.140  0.1112 -0.0353 -0.3868
  704MOL0     C92841   0.057   0.232   5.438 -0.4298 -0.4195 -0.3883
  704MOL0     C92842   0.198   0.252   5.417 -0.2430  0.1657  0.0177
  704MOL0     O92843   0.464   0.158   5.399  0.0752 -0.1629 -0.6946
  704MOL0     C92844   0.748   0.216   5.429  1.7133 -0.1432  0.4513
  704MOL0     C92845   0.879   0.260   5.420 -0.3158 -0.2467 -0.5689
  704MOL0     N92846   1.328   0.909   5.502  0.3054 -0.1581 -0.0118
  704MOL0     N92847   1.424   0.947   5.580  0.5741 -0.5965 -0.3889
  704MOL0     C92848   2.302   1.346   6.069 -1.0576  1.0602 -0.3511
  704MOL0     C92849   2.319   1.346   6.207  0.1896  0.0165  0.1832
  704MOL0     C92850   2.558   1.494   6.579 -0.9271  0.6699 -0.4686
  704MOL0     C92851   2.512   1.400   6.666  0.0066 -0.0892 -0.3443
  704MOL0     C92852   2.521   1.411   6.806  0.4727  0.5519 -0.3990
  704MOL0     C92853   2.590   1.518   6.866  0.2131 -0.0982 -0.1938
  704MOL0     O92854   2.622   1.505   7.004  0.1145 -0.1266  0.5861
  704MOL0     C92855   2.723   1.584   7.069  0.1974  0.6937  0.7194
  704MOL0     C92856   2.858   1.512   7.064 -0.6997  0.7666  0.1540
  704MOL0     C92857   2.971   1.605   7.097  0.1762  0.0148  0.6596
  704MOL0     C92858   2.964   1.681   7.229  0.6778  0.1465 -0.0178
  704MOL0     C92859   2.946   1.583   7.338 -0.1003  1.2094  0.7650
  704MOL0     C92860   2.939   1.490   7.418  0.4627 -0.1043  0.1531
  704MOL0     C92861   2.642   1.619   6.780 -0.3173  0.1006 -0.2283
  704MOL0     C92862   2.615   1.605   6.639 -0.6597  0.1751  0.9041
  704MOL0     H92863   2.656   1.337   6.214 -0.2149 -0.9453 -1.3329
  704MOL0     H92864   2.615   1.318   5.971 -1.4462 -2.4217 -1.0836
  704MOL0     H92865   2.202   1.347   5.791 -1.9624 -0.8882  1.5490
  704MOL0     H92866   2.236   1.180   5.863 -0.0155 -1.0210 -1.0685
  704MOL0     H92867   2.371   1.120   5.689  1.2145  1.3254  1.8981
  704MOL0     H92868   2.317   1.262   5.594 -0.9598  1.0784  1.4324
  704MOL0     H92869   2.108   1.090   5.709 -1.3775  0.6321 -0.0648
  704MOL0     H92870   2.186   1.049   5.547 -0.1070  1.2508 -1.2261
  704MOL0     H92871   2.051   1.304   5.605 -0.3192  1.0593  0.0637
  704MOL0     H92872   2.146   1.256   5.459 -0.0476 -0.3188  0.1790
  704MOL0     H92873   1.992   1.074   5.424 -2.7927 -1.4670  0.7504
  704MOL0     H92874   1.917   1.233   5.420  3.0885  0.6694 -2.1037
  704MOL0     H92875   1.829   1.174   5.658  0.4309  0.6787 -1.0032
  704MOL0     H92876   1.907   1.015   5.642 -0.0978 -0.8441 -1.5351
  704MOL0     H92877   1.652   1.130   5.542 -3.6782 -1.7118  1.0895
  704MOL0     H92878   1.736   1.043   5.411  2.9244 -0.3001  1.1643
  704MOL0     H92879   1.656   0.938   5.687 -2.0507  3.5825 -0.9926
  704MOL0     H92880   1.730   0.826   5.566 -0.8174 -2.0817  1.3092
  704MOL0     H92881   1.572   0.754   5.359 -1.1695 -0.2886 -1.5121
  704MOL0     H92882   1.316   0.806   5.196  0.9509 -1.6628  0.3163
  704MOL0     H92883   1.181   0.828   5.310 -0.4641  0.9082 -2.2094
  704MOL0     H92884   1.367   0.584   5.279  0.7278 -0.0798  3.4246
  704MOL0     H92885   1.195   0.584   5.229  2.0846 -0.0532 -1.5732
  704MOL0     H92886   1.274   0.502   5.466  0.6991  0.7823  2.5751
  704MOL0     H92887   1.252   0.651   5.528  3.6193 -1.3016  0.0524
  704MOL0     H92888   1.023   0.641   5.358  2.0893  2.9093  0.0055
  704MOL0     H92889   1.027   0.631   5.538 -0.2851 -2.9711  0.6999
  704MOL0     H92890   0.805   0.593   5.448  0.4879 -0.6884  1.5028
  704MOL0     H92891   0.580   0.511   5.435  0.0270  0.9164 -0.4308
  704MOL0     H92892   0.254   0.451   5.692 -2.2541  1.2048  0.6239
  704MOL0     H92893   0.040   0.378   5.741  2.8540  2.2362  2.0643
  704MOL0     H92894  -0.228   0.449   5.590 -0.3159  0.5907  3.0623
  704MOL0     H92895  -0.230   0.341   5.728 -1.5878 -1.9715  0.6314
  704MOL0     H92896  -0.381   0.180   5.606  2.9922 -0.7508 -0.4166
  704MOL0     H92897  -0.383   0.290   5.468  1.1057 -0.9193 -0.7166
  704MOL0     H92898  -0.557   0.374   5.555  1.1587  3.3274 -0.9615
  704MOL0     H92899  -0.448   0.479   5.637  1.0838 -0.2795  3.0780
  704MOL0     H92900  -0.514   0.226   5.780  1.6914  0.6599  2.1712
  704MOL0     H92901  -0.444   0.372   5.841 -1.1433 -0.2787  0.5862
  704MOL0     H92902  -0.721   0.401   5.717 -0.3569  0.2041 -0.1955
  704MOL0     H92903  -0.648   0.498   5.843 -1.4415 -1.9223  2.9978
  704MOL0     H92904  -0.630   0.343   6.008  0.8112  1.8846 -1.3213
  704MOL0     H92905  -0.709   0.221   5.920  1.4909  0.0502 -0.6515
  704MOL0     H92906  -0.830   0.485   6.018 -1.3664  0.2247  0.4404
  704MOL0     H92907  -0.917   0.376   5.917  1.0745 -2.4225  0.0380
  704MOL0     H92908  -0.821   0.299   6.188 -1.5415 -0.5058  0.4265
  704MOL0     H92909  -0.867   0.185   6.069 -0.4597 -1.0662  1.3803
  704MOL0     H92910  -0.008   0.166   5.382 -0.4979 -1.8068  1.2485
  704MOL0     H92911   0.249   0.205   5.334  1.4067 -2.0706  2.1701
  704MOL0     H92912   0.729   0.112   5.406  0.6831  0.6470 -2.7134
  704MOL0     H92913   0.955   0.184   5.403  0.5584  1.0255 -2.8651
  704MOL0     H92914   2.196   1.354   6.046 -1.5036  1.4448  1.6122
  704MOL0     H92915   2.238   1.356   6.279  0.9500  1.2094  0.8992
  704MOL0     H92916   2.459   1.308   6.641  1.5088 -1.0288 -0.1518
  704MOL0     H92917   2.476   1.337   6.872  0.2600 -1.1076 -2.2981
  704MOL0     H92918   2.682   1.594   7.170 -3.2997 -0.3857 -0.4498
  704MOL0     H92919   2.730   1.684   7.024 -2.3742 -0.1998 -1.9824
  704MOL0     H92920   2.857   1.438   7.144  1.8531  0.8472  0.3341
  704MOL0     H92921   2.877   1.470   6.965  4.0822  0.8759  0.7940
  704MOL0     H92922   2.964   1.691   7.030 -1.7237  0.2713  1.1302
  704MOL0     H92923   3.070   1.563   7.076  0.6023  0.6494  1.3907
  704MOL0     H92924   3.051   1.744   7.251  0.5263 -0.7323  3.8496
  704MOL0     H92925   2.871   1.738   7.226  0.1147 -0.7091  0.5666
  704MOL0     H92926   2.941   1.410   7.489 -1.5968 -0.4243 -0.0691
  704MOL0     H92927   2.680   1.714   6.818  0.2756 -0.2463  0.0466
  704MOL0     H92928   2.645   1.683   6.569  0.7190 -1.4735 -0.4203
  705MOL0     O92929   7.419   8.009   6.339 -0.2845 -0.2732 -0.3234
  705MOL0     C92930   7.471   8.091   6.419  0.3183 -0.2739  0.7624
  705MOL0     O92931   7.408   8.155   6.522 -0.0077 -0.5624 -0.0397
  705MOL0     C92932   7.269   8.146   6.544 -0.0021  0.9445  0.5525
  705MOL0     C92933   7.173   8.129   6.436 -0.1370  0.3776 -0.0519
  705MOL0     C92934   7.041   8.158   6.466 -0.2862 -0.1546 -0.3693
  705MOL0     C92935   6.998   8.192   6.593  1.1918  1.1882 -0.7448
  705MOL0     O92936   6.858   8.211   6.618 -0.3508  0.2127  0.5930
  705MOL0     C92937   6.808   8.152   6.729  0.6685 -0.3172  0.0656
  705MOL0     C92938   6.656   8.143   6.724 -0.6571  1.1300 -0.2839
  705MOL0     C92939   6.598   8.279   6.705  0.4543 -0.3236  0.6165
  705MOL0     C92940   6.450   8.270   6.715 -0.1620  0.4292 -0.4693
  705MOL0     C92941   6.404   8.248   6.861  0.1765 -0.1758 -0.0804
  705MOL0     C92942   6.252   8.278   6.879  0.2349 -0.6134 -0.9275
  705MOL0     C92943   6.163   8.170   6.828 -0.3979 -0.3988 -0.0761
  705MOL0     C92944   6.014   8.197   6.843 -1.5246 -0.4174 -0.0371
  705MOL0     N92945   5.936   8.084   6.787 -0.0293  1.4745  0.2355
  705MOL0     C92946   5.892   7.971   6.859  1.2616  0.7889  0.2317
  705MOL0     C92947   5.792   7.912   6.785  0.3766  0.1826 -0.0008
  705MOL0     C92948   5.723   7.784   6.832 -0.9561 -0.3838  0.7443
  705MOL0     C92949   5.614   7.792   6.944  0.0797 -0.2059 -0.2006
  705MOL0     C92950   5.659   7.832   7.085  0.3306 -0.7189 -0.2980
  705MOL0     C92951   5.561   7.775   7.180 -0.7683 -0.2018  0.6031
  705MOL0     O92952   5.436   7.834   7.137  0.7134  0.3454 -0.2158
  705MOL0     C92953   5.337   7.834   7.236  0.9613  1.2111 -0.6286
  705MOL0     C92954   5.329   7.760   7.356  0.7356 -0.3628 -0.5826
  705MOL0     C92955   5.217   7.761   7.434  0.1023 -0.5986  0.1740
  705MOL0     C92956   5.096   7.838   7.409 -0.5601 -0.1098  0.3534
  705MOL0     C92957   4.981   7.849   7.509  0.7265  0.1604 -0.4235
  705MOL0     O92958   4.985   7.773   7.627  0.2501 -0.4882 -0.1334
  705MOL0     C92959   4.884   7.803   7.715 -0.4827 -0.2607  0.4619
  705MOL0     C92960   4.919   7.845   7.840  0.2162  0.2329 -0.6531
  705MOL0     C92961   4.823   7.849   7.943 -0.4970 -0.1132 -0.1559
  705MOL0     C92962   4.687   7.818   7.914  0.9680 -0.0030  0.6216
  705MOL0     O92963   4.597   7.820   8.014 -0.4497  0.2198 -0.0991
  705MOL0     C92964   4.502   7.922   7.995 -0.8112 -0.4329 -0.7612
  705MOL0     C92965   4.575   8.050   8.047  1.0800 -1.0145  1.3145
  705MOL0     C92966   4.477   8.175   8.053  0.3984  0.5395  0.0751
  705MOL0     C92967   4.546   8.289   8.120 -0.2624  0.4315 -1.0129
  705MOL0     C92968   4.473   8.418   8.114 -0.5116 -0.1343 -0.6257
  705MOL0     C92969   4.560   8.536   8.167  0.1403  0.7865  1.0878
  705MOL0     C92970   4.585   8.530   8.308 -0.1540  0.5094 -0.3636
  705MOL0     C92971   4.612   8.681   8.348 -0.0658 -0.3871  0.9033
  705MOL0    Cl92972   4.462   8.780   8.384  0.8231  0.2568  0.5992
  705MOL0     C92973   4.647   7.779   7.781 -0.3569 -0.1532 -0.1864
  705MOL0     C92974   4.752   7.768   7.685 -0.3533 -0.8183  0.1813
  705MOL0     O92975   4.891   7.926   7.470  0.1213  0.2640 -0.6303
  705MOL0     C92976   5.109   7.920   7.294 -0.4355 -0.0464  0.0967
  705MOL0     C92977   5.232   7.917   7.218 -0.2992 -0.7124 -0.2564
  705MOL0     N92978   5.781   7.984   6.670  0.0421 -0.2765 -0.4882
  705MOL0     N92979   5.852   8.090   6.677 -0.2075 -0.8134  0.7667
  705MOL0     C92980   7.097   8.214   6.695  0.2184 -0.2551  0.0431
  705MOL0     C92981   7.234   8.186   6.670 -0.4214 -0.5107 -0.1679
  705MOL0     C92982   7.620   8.105   6.395  0.5845  0.6746  0.0315
  705MOL0     C92983   7.699   8.209   6.447 -1.3897 -0.1221 -0.0928
  705MOL0     C92984   7.837   8.208   6.437  0.1486 -0.6316 -0.8305
  705MOL0     C92985   7.913   8.108   6.381  0.3026  0.4939  0.6758
  705MOL0     O92986   8.052   8.120   6.385  0.5275 -0.0903 -0.2534
  705MOL0     C92987   8.134   8.025   6.320 -0.4203  0.4064  0.4181
  705MOL0     C92988   8.275   8.068   6.340  0.0842  0.1628  0.6457
  705MOL0     C92989   8.387   7.966   6.290  0.8660 -0.1825  0.3262
  705MOL0     C92990   8.526   8.016   6.292 -0.0370 -0.2366  0.3593
  705MOL0     C92991   8.541   8.145   6.212  0.5040  0.6979 -0.1926
  705MOL0     C92992   8.573   8.243   6.146  0.8489  0.4938 -0.1204
  705MOL0     C92993   7.840   7.999   6.327  0.8877  0.0252  0.0733
  705MOL0     C92994   7.696   7.996   6.337 -0.6485  0.2265 -0.0902
  705MOL0     H92995   7.210   8.111   6.335  3.5882 -2.8250  1.5933
  705MOL0     H92996   6.973   8.144   6.382 -0.7294  1.2268 -0.2569
  705MOL0     H92997   6.844   8.206   6.817  0.1460  0.7009 -0.3303
  705MOL0     H92998   6.841   8.048   6.738  0.7656 -0.1837  1.4223
  705MOL0     H92999   6.632   8.110   6.825 -0.9538  1.4282 -0.2576
  705MOL0     H93000   6.625   8.076   6.643  0.6574  1.0598 -0.7633
  705MOL0     H93001   6.628   8.313   6.605 -1.3641 -0.4263  0.0058
  705MOL0     H93002   6.634   8.352   6.779 -3.0909  2.4505 -0.1011
  705MOL0     H93003   6.411   8.369   6.688  1.8077  2.0915  2.2531
  705MOL0     H93004   6.412   8.198   6.642 -2.4972 -0.1864  1.2324
  705MOL0     H93005   6.468   8.309   6.926 -1.3730  0.3653  1.0019
  705MOL0     H93006   6.418   8.146   6.897 -2.8126 -2.5823 -4.6900
  705MOL0     H93007   6.218   8.367   6.824 -0.8578 -2.3344 -3.1987
  705MOL0     H93008   6.227   8.305   6.982  1.6106  1.9313 -1.1631
  705MOL0     H93009   6.189   8.147   6.724  0.4807  1.3160 -0.2673
  705MOL0     H93010   6.180   8.081   6.890  1.2846 -0.1066 -0.0657
  705MOL0     H93011   5.996   8.291   6.790  0.4448 -1.1769 -2.1688
  705MOL0     H93012   5.980   8.220   6.945  0.5757  3.5860 -0.0602
  705MOL0     H93013   5.942   7.939   6.950  1.2359 -0.8383 -0.2949
  705MOL0     H93014   5.793   7.702   6.852 -0.3089 -0.5919 -1.8741
  705MOL0     H93015   5.678   7.746   6.740 -3.5972  1.0723  1.3432
  705MOL0     H93016   5.589   7.686   6.958  0.8716 -0.2378  1.1392
  705MOL0     H93017   5.525   7.842   6.906  0.4928  0.8155  0.1478
  705MOL0     H93018   5.743   7.763   7.096  0.1928 -0.9155 -0.4648
  705MOL0     H93019   5.676   7.935   7.117 -2.1392 -1.5613  4.5879
  705MOL0     H93020   5.600   7.805   7.277 -5.0800  1.2004  2.1444
  705MOL0     H93021   5.546   7.667   7.168 -0.7487 -0.1304 -0.1255
  705MOL0     H93022   5.396   7.680   7.386  0.6616  0.5804  2.3857
  705MOL0     H93023   5.219   7.702   7.524  0.6997 -1.7191 -0.5509
  705MOL0     H93024   5.018   7.881   7.865  0.6657 -0.9768 -0.6177
  705MOL0     H93025   4.865   7.897   8.031  0.5139  0.3964 -0.8859
  705MOL0     H93026   4.419   7.904   8.064  0.2811  2.1609  1.4221
  705MOL0     H93027   4.463   7.934   7.893  1.2837 -1.3866 -1.7185
  705MOL0     H93028   4.647   8.077   7.970 -0.5733  0.1584  0.0997
  705MOL0     H93029   4.620   8.045   8.147  0.9068  0.5911  1.5064
  705MOL0     H93030   4.386   8.157   8.110  0.9459  0.1059  0.8323
  705MOL0     H93031   4.442   8.190   7.951  0.7067 -3.3518 -0.7650
  705MOL0     H93032   4.573   8.276   8.225 -1.3956  1.5764 -0.5603
  705MOL0     H93033   4.641   8.298   8.066 -0.1204 -1.1431 -1.0872
  705MOL0     H93034   4.377   8.415   8.166 -0.6970 -0.5259 -0.9912
  705MOL0     H93035   4.452   8.445   8.011 -1.4159 -2.2338 -1.0495
  705MOL0     H93036   4.514   8.631   8.142  2.2234  1.9260  1.3085
  705MOL0     H93037   4.651   8.539   8.106 -1.5906  2.1781 -1.5523
  705MOL0     H93038   4.496   8.495   8.362 -0.6199 -0.2992 -1.5951
  705MOL0     H93039   4.671   8.465   8.323  0.7974  2.1432  1.6493
  705MOL0     H93040   4.671   8.726   8.268 -2.9896 -0.0224 -1.2181
  705MOL0     H93041   4.662   8.680   8.445  0.6840  1.4486  0.5786
  705MOL0     H93042   4.543   7.756   7.760 -1.2771 -0.3072  3.6931
  705MOL0     H93043   4.718   7.741   7.585  3.0518 -1.6022 -0.8828
  705MOL0     H93044   5.034   7.994   7.268 -1.2253 -0.0436  2.1578
  705MOL0     H93045   5.246   7.980   7.130  1.5701 -1.4215 -0.5145
  705MOL0     H93046   7.075   8.239   6.798 -0.7269 -0.6078 -0.0691
  705MOL0     H93047   7.316   8.208   6.737 -1.1899 -0.2124  0.6937
  705MOL0     H93048   7.651   8.302   6.478 -0.4090  0.9183 -1.5299
  705MOL0     H93049   7.895   8.294   6.467  1.1253 -2.2623  2.4842
  705MOL0     H93050   8.109   8.015   6.214  0.3305  3.1056 -0.1030
  705MOL0     H93051   8.126   7.930   6.375  1.9982  0.3357  0.7807
  705MOL0     H93052   8.289   8.160   6.282  2.3663  0.6221  1.8422
  705MOL0     H93053   8.284   8.097   6.445 -0.0960 -0.5837  0.8693
  705MOL0     H93054   8.356   7.933   6.190 -0.9217  0.6979  0.5483
  705MOL0     H93055   8.381   7.879   6.356  0.5036  0.6475  1.4151
  705MOL0     H93056   8.567   8.035   6.392  2.2097  1.3625 -0.7774
  705MOL0     H93057   8.577   7.934   6.240 -0.3601  0.6725 -1.4491
  705MOL0     H93058   8.588   8.322   6.075 -2.0664  0.4933 -0.8713
  705MOL0     H93059   7.904   7.918   6.293  1.6899  0.8765 -0.5120
  705MOL0     H93060   7.638   7.909   6.306 -0.8428  0.7988 -1.3542
  706MOL0     O93061   8.286   7.904   1.002  0.1810 -0.1392 -0.3891
  706MOL0     C93062   8.382   7.912   1.079 -0.7410 -0.5420 -0.5033
  706MOL0     O93063   8.374   7.912   1.213 -0.0508  0.2192  0.0566
  706MOL0     C93064   8.265   7.895   1.289  1.0076 -0.3001  0.1633
  706MOL0     C93065   8.284   7.830   1.407 -0.3372  0.3313 -0.0753
  706MOL0     C93066   8.173   7.803   1.486 -0.8077  0.3078 -0.6123
  706MOL0     C93067   8.045   7.851   1.455 -0.7123  0.3211  0.7752
  706MOL0     O93068   7.930   7.819   1.526 -0.2098 -0.8164 -0.0613
  706MOL0     C93069   7.945   7.700   1.603  0.8070  0.2618  0.4351
  706MOL0     C93070   7.812   7.659   1.674 -0.5180  0.4058 -1.3075
  706MOL0     C93071   7.703   7.648   1.567  0.1040 -0.3609  1.1614
  706MOL0     C93072   7.570   7.605   1.623 -0.8008 -0.2110 -0.0924
  706MOL0     C93073   7.457   7.618   1.527  0.6460  1.0040 -0.1010
  706MOL0     C93074   7.329   7.564   1.598  0.0897 -0.5185 -0.7081
  706MOL0     C93075   7.202   7.572   1.508 -0.0928  0.3797 -0.0937
  706MOL0     C93076   7.081   7.576   1.611 -0.3650 -1.0636 -0.2662
  706MOL0     N93077   6.964   7.556   1.523  0.2268  0.0121 -0.4448
  706MOL0     C93078   6.902   7.648   1.439  0.0600  0.8434  0.0183
  706MOL0     C93079   6.827   7.574   1.355 -0.2880  0.8143 -0.0172
  706MOL0     C93080   6.765   7.610   1.227  0.8926 -0.6358 -0.2569
  706MOL0     C93081   6.723   7.755   1.216 -0.1157 -0.2953 -0.5636
  706MOL0     C93082   6.587   7.760   1.297 -0.1072  0.1287  0.4344
  706MOL0     C93083   6.521   7.896   1.333 -1.6012  0.2306 -0.2709
  706MOL0     O93084   6.417   7.859   1.412  0.4267  0.1173  0.0758
  706MOL0     C93085   6.288   7.912   1.404  0.2181  0.2249  0.6835
  706MOL0     C93086   6.189   7.852   1.480 -1.4504 -0.1862 -0.0215
  706MOL0     C93087   6.063   7.912   1.487  0.2879 -0.1399  0.2542
  706MOL0     C93088   6.025   8.026   1.415 -0.7185  0.4618 -0.0624
  706MOL0     C93089   5.888   8.098   1.422  0.8100  0.0935 -0.6052
  706MOL0     O93090   5.788   8.042   1.496 -0.7539 -0.6097  0.3145
  706MOL0     C93091   5.682   8.120   1.525  0.0515 -0.8656  1.1658
  706MOL0     C93092   5.590   8.155   1.426  0.7435 -0.2686  0.9308
  706MOL0     C93093   5.479   8.234   1.437  0.1895  0.2667  0.1079
  706MOL0     C93094   5.444   8.258   1.571  0.1838 -0.2237  0.1647
  706MOL0     O93095   5.343   8.352   1.596 -0.3457  0.1169 -0.1645
  706MOL0     C93096   5.214   8.329   1.536  0.1544 -0.4412 -0.2216
  706MOL0     C93097   5.109   8.444   1.573 -0.1854 -0.4466 -0.0828
  706MOL0     C93098   5.093   8.448   1.721 -0.2996 -0.3601  0.3509
  706MOL0     C93099   5.000   8.562   1.775 -0.4182  1.2722 -0.7235
  706MOL0     C93100   4.895   8.492   1.869  0.2425  0.6665 -0.3038
  706MOL0     C93101   4.792   8.593   1.918  0.1902 -0.0859  0.8216
  706MOL0     C93102   4.717   8.564   2.054 -0.5805  0.2007 -0.0436
  706MOL0     C93103   4.808   8.513   2.165 -0.1702  0.1978  0.6808
  706MOL0    Cl93104   4.706   8.478   2.312  0.0552  0.4684 -0.4789
  706MOL0     C93105   5.518   8.217   1.681 -0.1892 -0.5045  0.6216
  706MOL0     C93106   5.642   8.152   1.656 -0.0907 -0.2977  0.3059
  706MOL0     O93107   5.884   8.209   1.372  0.3518 -0.3345 -0.0968
  706MOL0     C93108   6.125   8.088   1.341  0.2848 -0.1178  0.6138
  706MOL0     C93109   6.256   8.040   1.343 -0.3608  0.1665 -0.0642
  706MOL0     N93110   6.840   7.440   1.391  0.0103 -0.1067  0.8661
  706MOL0     N93111   6.914   7.434   1.487  1.0196 -0.1422 -0.0117
  706MOL0     C93112   8.036   7.922   1.332 -0.0210 -0.2233  0.3560
  706MOL0     C93113   8.146   7.952   1.250  0.1295  0.3660 -0.6191
  706MOL0     C93114   8.516   7.943   1.006  0.0928  0.3777 -0.5689
  706MOL0     C93115   8.530   7.954   0.868 -0.1170  0.1989 -0.4060
  706MOL0     C93116   8.659   7.960   0.812  0.3977 -0.1388 -0.5460
  706MOL0     C93117   8.776   7.971   0.891  0.1197  0.5022 -0.6481
  706MOL0     O93118   8.899   7.959   0.829 -0.3933 -0.2820  0.2272
  706MOL0     C93119   9.010   7.908   0.891  0.3864  0.7808 -0.5702
  706MOL0     C93120   9.128   7.867   0.801 -0.2359 -0.2854 -0.8867
  706MOL0     C93121   9.168   7.996   0.723 -0.6197 -0.1924 -0.1905
  706MOL0     C93122   9.272   7.974   0.614 -0.3103 -0.1580  0.4342
  706MOL0     C93123   9.393   7.902   0.659  0.6052 -0.5383  0.2746
  706MOL0     C93124   9.486   7.844   0.714 -0.7660 -0.3298  0.3809
  706MOL0     C93125   8.756   7.966   1.032 -0.4177  0.3565 -0.2287
  706MOL0     C93126   8.631   7.953   1.091 -0.5924 -0.2298 -0.3825
  706MOL0     H93127   8.383   7.801   1.442 -1.7726 -1.2558  3.0349
  706MOL0     H93128   8.194   7.729   1.563 -0.0687 -2.1752 -3.0225
  706MOL0     H93129   8.013   7.717   1.687 -0.6078  1.4259  1.3904
  706MOL0     H93130   7.979   7.619   1.538  2.9975  1.5119 -0.0838
  706MOL0     H93131   7.797   7.735   1.750 -0.4179 -0.8408  0.0049
  706MOL0     H93132   7.820   7.563   1.726  2.1721  0.2247 -1.9039
  706MOL0     H93133   7.732   7.569   1.497  0.6481 -1.3723  2.4743
  706MOL0     H93134   7.699   7.736   1.503  2.9339  0.6589  2.2271
  706MOL0     H93135   7.587   7.500   1.649  2.6948 -0.4308 -2.4885
  706MOL0     H93136   7.543   7.660   1.713 -0.3223 -0.0867 -0.0211
  706MOL0     H93137   7.469   7.565   1.432 -1.1744  3.7607 -2.0222
  706MOL0     H93138   7.451   7.722   1.497 -1.1891  0.0104 -3.8162
  706MOL0     H93139   7.315   7.639   1.677 -1.9137 -0.7678 -0.7868
  706MOL0     H93140   7.345   7.472   1.655  0.2299  0.4021  0.7967
  706MOL0     H93141   7.202   7.671   1.461 -2.2370  0.4531 -0.0418
  706MOL0     H93142   7.208   7.488   1.438  0.5086  0.3887 -0.0622
  706MOL0     H93143   7.086   7.670   1.668 -3.8605 -0.9361  0.0877
  706MOL0     H93144   7.103   7.493   1.679  1.5338  0.3532  0.9413
  706MOL0     H93145   6.935   7.751   1.431 -0.2638  0.8101 -2.4820
  706MOL0     H93146   6.672   7.552   1.224  0.0780  0.4802  1.8849
  706MOL0     H93147   6.830   7.587   1.142  0.5044  1.6367 -1.2387
  706MOL0     H93148   6.713   7.789   1.113  0.3360  0.0348 -0.5034
  706MOL0     H93149   6.797   7.820   1.264 -2.1198  0.1958  2.0740
  706MOL0     H93150   6.513   7.693   1.253 -1.2969 -0.0381  2.5742
  706MOL0     H93151   6.604   7.722   1.399  1.7865  1.4919  0.6937
  706MOL0     H93152   6.504   7.960   1.246 -1.0866 -0.1764 -0.6767
  706MOL0     H93153   6.607   7.937   1.388  1.9375 -3.2954 -2.6713
  706MOL0     H93154   6.201   7.772   1.552  3.2143 -0.6369 -0.9692
  706MOL0     H93155   5.982   7.861   1.539 -0.2858 -0.5537 -1.0037
  706MOL0     H93156   5.619   8.116   1.329 -0.2150 -1.4623  1.0920
  706MOL0     H93157   5.424   8.287   1.359  0.6406  0.0552 -0.3599
  706MOL0     H93158   5.176   8.231   1.565  2.7772 -1.1671  1.1005
  706MOL0     H93159   5.231   8.338   1.429  0.2855  1.0677 -0.0987
  706MOL0     H93160   5.014   8.431   1.520 -1.2564  1.6398  1.1954
  706MOL0     H93161   5.145   8.543   1.543 -0.3779 -0.2725  0.2609
  706MOL0     H93162   5.190   8.476   1.763 -1.2395  1.5278  1.4048
  706MOL0     H93163   5.066   8.352   1.765 -0.0963 -0.3101  0.5879
  706MOL0     H93164   5.067   8.621   1.837 -0.0275 -0.7712  0.9083
  706MOL0     H93165   4.962   8.614   1.686 -1.0673  1.2680 -0.4566
  706MOL0     H93166   4.956   8.454   1.951  0.3821  0.8333 -0.3295
  706MOL0     H93167   4.841   8.406   1.829 -1.3380  0.1207  2.7370
  706MOL0     H93168   4.716   8.605   1.840  1.1088 -2.3036 -0.5212
  706MOL0     H93169   4.855   8.682   1.924  1.1521 -0.7152  0.2899
  706MOL0     H93170   4.669   8.659   2.080 -1.7099 -0.3407 -0.0631
  706MOL0     H93171   4.636   8.492   2.037 -0.9701  0.3661  1.0710
  706MOL0     H93172   4.877   8.597   2.180  0.4813  0.3534 -2.5167
  706MOL0     H93173   4.860   8.422   2.134 -0.7872 -0.2368  0.8977
  706MOL0     H93174   5.481   8.248   1.778  0.1857  0.7346  0.3850
  706MOL0     H93175   5.704   8.109   1.734  2.3156  2.3524  0.0182
  706MOL0     H93176   6.103   8.183   1.295 -0.2790 -1.1875 -1.4557
  706MOL0     H93177   6.332   8.096   1.289  2.2341 -0.0611  3.0355
  706MOL0     H93178   7.941   7.966   1.304  1.7098  3.3494 -0.5130
  706MOL0     H93179   8.127   8.020   1.168 -1.3581 -0.8585 -1.3294
  706MOL0     H93180   8.433   7.945   0.821 -0.2831 -0.8820  0.1001
  706MOL0     H93181   8.673   7.951   0.705 -0.9116  1.8881 -0.9483
  706MOL0     H93182   8.965   7.827   0.950 -0.0553  2.1345  1.0413
  706MOL0     H93183   9.060   7.977   0.960  1.2609 -1.2238  0.9103
  706MOL0     H93184   9.210   7.827   0.861  0.5811 -2.0082 -2.9989
  706MOL0     H93185   9.098   7.781   0.740 -3.1786  0.3393 -0.4651
  706MOL0     H93186   9.197   8.067   0.801 -0.7006 -2.2106  1.7747
  706MOL0     H93187   9.072   8.023   0.677 -1.4434 -0.3176  1.4016
  706MOL0     H93188   9.226   7.918   0.532  0.1766 -0.5570  0.4313
  706MOL0     H93189   9.295   8.074   0.579  0.4440 -0.2055  0.7840
  706MOL0     H93190   9.559   7.785   0.766  1.5112  0.9951 -1.1489
  706MOL0     H93191   8.839   7.966   1.102  0.5852 -1.2942 -1.3545
  706MOL0     H93192   8.618   7.950   1.199  0.5512  1.4706 -0.1450
  707MOL0     O93193   0.759   5.938  10.722 -0.2459  1.2194 -0.0715
  707MOL0     C93194   0.743   6.030  10.798 -0.7951 -1.3615 -0.0538
  707MOL0     O93195   0.622   6.110  10.814  0.4858  0.3247 -0.0709
  707MOL0     C93196   0.495   6.074  10.769  0.2845  0.1264  1.1190
  707MOL0     C93197   0.462   5.952  10.713 -0.0618 -0.3425  0.1601
  707MOL0     C93198   0.334   5.926  10.662 -0.1891  0.4064 -0.1469
  707MOL0     C93199   0.231   6.022  10.668  0.4596  0.3038 -0.8315
  707MOL0     O93200   0.106   5.986  10.615 -0.9035 -0.4532 -0.2239
  707MOL0     C93201   0.018   6.095  10.569 -0.1822  0.2995 -0.3054
  707MOL0     C93202  -0.073   6.145  10.687  0.2148 -1.5686  0.1887
  707MOL0     C93203  -0.164   6.028  10.733  0.7677 -0.4152  0.8193
  707MOL0     C93204  -0.308   6.067  10.767 -0.3185  0.6560  0.2875
  707MOL0     C93205  -0.395   5.946  10.816  0.4540  0.0684 -0.4362
  707MOL0     C93206  -0.532   5.993  10.866 -0.0553  0.4273  0.5421
  707MOL0     C93207  -0.625   5.872  10.889  0.8037  0.3871 -0.4569
  707MOL0     C93208  -0.577   5.768  10.997 -0.1277 -0.9872  0.6358
  707MOL0     N93209  -0.553   5.851  11.125  0.0370  0.7632  0.0779
  707MOL0     C93210  -0.640   5.871  11.230 -0.1559  1.2870 -0.1362
  707MOL0     C93211  -0.559   5.925  11.327 -0.7357 -0.3280 -0.7728
  707MOL0     C93212  -0.600   5.969  11.469  0.2674  0.4585 -0.3876
  707MOL0     C93213  -0.743   6.012  11.475  0.2225 -0.0364 -0.3594
  707MOL0     C93214  -0.787   6.035  11.623 -0.2411 -0.9588 -0.5234
  707MOL0     C93215  -0.937   6.055  11.635  0.3314 -0.0913 -0.7640
  707MOL0     O93216  -1.015   5.959  11.573  0.4000 -0.0518 -0.2628
  707MOL0     C93217  -1.149   5.981  11.561  0.3273 -0.2479 -0.0946
  707MOL0     C93218  -1.214   5.948  11.449  0.8951 -0.8453  0.4266
  707MOL0     C93219  -1.344   5.969  11.420  0.8661  0.4402 -0.2541
  707MOL0     C93220  -1.422   6.026  11.525 -0.0839 -0.4519 -0.9966
  707MOL0     C93221  -1.568   6.047  11.505 -0.4256 -0.7441  0.1260
  707MOL0     O93222  -1.634   5.980  11.405  0.2517  0.2612 -0.4212
  707MOL0     C93223  -1.773   5.984  11.402  1.0716  0.3633  0.5271
  707MOL0     C93224  -1.844   6.105  11.438  0.2866  0.0267  1.3417
  707MOL0     C93225  -1.988   6.102  11.439  0.5974  0.5394 -0.1723
  707MOL0     C93226  -2.063   5.992  11.395  0.4613  0.2166 -0.3480
  707MOL0     O93227  -2.201   5.978  11.406  0.1641 -0.3239  0.8776
  707MOL0     C93228  -2.281   6.094  11.433 -0.1594 -0.1528 -0.1084
  707MOL0     C93229  -2.417   6.037  11.406  0.0407  0.1882 -0.9511
  707MOL0     C93230  -2.524   6.143  11.424  0.7549 -0.3840  0.6187
  707MOL0     C93231  -2.666   6.096  11.364  0.1869 -0.0904  0.2833
  707MOL0     C93232  -2.787   6.183  11.382  0.3720 -0.6115  0.1236
  707MOL0     C93233  -2.913   6.099  11.364  1.0228 -0.3054  0.1596
  707MOL0     C93234  -2.933   6.067  11.213  0.1202 -0.7037  0.5150
  707MOL0     C93235  -3.077   6.035  11.197 -0.1670  0.0725 -0.7408
  707MOL0    Cl93236  -3.117   6.020  11.026 -0.0937 -0.0588  0.5714
  707MOL0     C93237  -1.990   5.890  11.338  0.4838  0.4866  0.5048
  707MOL0     C93238  -1.852   5.879  11.344 -0.3211  0.5579 -0.3504
  707MOL0     O93239  -1.615   6.119  11.591  0.3736  0.1207  0.1499
  707MOL0     C93240  -1.355   6.063  11.646 -0.5054  0.3016  0.3077
  707MOL0     C93241  -1.224   6.040  11.668 -0.8027  0.8294 -0.3637
  707MOL0     N93242  -0.427   5.936  11.285  0.1140 -0.4058  0.8018
  707MOL0     N93243  -0.429   5.889  11.162 -0.3022  0.0641 -0.0166
  707MOL0     C93244   0.266   6.140  10.723 -0.4483 -0.3866 -1.0007
  707MOL0     C93245   0.397   6.174  10.773 -0.4626  0.0755 -0.1247
  707MOL0     C93246   0.867   6.078  10.868 -0.0761  0.0914 -0.2880
  707MOL0     C93247   0.993   6.018  10.848  0.7612  0.5803  0.0961
  707MOL0     C93248   1.105   6.052  10.911  0.4850 -0.1571  0.6485
  707MOL0     C93249   1.102   6.158  11.004  0.0683  0.1495  0.5538
  707MOL0     O93250   1.217   6.216  11.050  0.0632  0.1608  0.2997
  707MOL0     C93251   1.342   6.171  11.007 -0.7591  0.3904 -0.7144
  707MOL0     C93252   1.465   6.241  11.061 -0.2068  0.2203  0.4230
  707MOL0     C93253   1.598   6.179  11.007  0.4184  0.1281 -0.0152
  707MOL0     C93254   1.645   6.061  11.092  0.1958 -0.2181  1.2769
  707MOL0     C93255   1.733   6.108  11.197  0.0209 -0.2505  0.4811
  707MOL0     C93256   1.810   6.124  11.284  0.2299 -0.7356 -0.3802
  707MOL0     C93257   0.982   6.224  11.028  0.5216 -0.2701 -0.2261
  707MOL0     C93258   0.866   6.174  10.959 -0.7714 -0.0864  0.0614
  707MOL0     H93259   0.532   5.869  10.711  1.7671  1.1451 -1.5111
  707MOL0     H93260   0.312   5.831  10.615  0.1783  1.6082 -2.9255
  707MOL0     H93261  -0.050   6.056  10.493 -0.3671 -2.6684  1.2362
  707MOL0     H93262   0.073   6.186  10.540  0.3821  1.1420  2.9748
  707MOL0     H93263  -0.130   6.232  10.652  0.7936 -1.5124 -0.6322
  707MOL0     H93264  -0.026   6.178  10.780  1.5418 -2.2749 -0.2079
  707MOL0     H93265  -0.115   5.961  10.805 -0.3253 -1.5230  0.5759
  707MOL0     H93266  -0.178   5.960  10.649  1.3566  1.2017 -0.6367
  707MOL0     H93267  -0.305   6.141  10.848 -1.1989  0.7036  0.2816
  707MOL0     H93268  -0.361   6.099  10.677 -2.2481 -0.0476  1.1196
  707MOL0     H93269  -0.347   5.906  10.905 -1.0195 -0.7481  0.0097
  707MOL0     H93270  -0.410   5.867  10.741 -5.1328  0.3297 -0.0110
  707MOL0     H93271  -0.577   6.053  10.786  0.7256 -0.6577 -0.7397
  707MOL0     H93272  -0.530   6.049  10.960 -0.5927  0.1613  0.7171
  707MOL0     H93273  -0.722   5.911  10.919 -1.1493 -4.0438 -0.2690
  707MOL0     H93274  -0.633   5.821  10.792  2.6351  1.8889 -1.4663
  707MOL0     H93275  -0.488   5.714  10.964 -0.2459 -0.0576 -1.2833
  707MOL0     H93276  -0.661   5.698  11.005 -1.0478 -0.4714 -2.8158
  707MOL0     H93277  -0.747   5.859  11.238 -0.1305  1.4828  0.5872
  707MOL0     H93278  -0.540   6.051  11.508 -0.1886 -0.5238  2.6302
  707MOL0     H93279  -0.575   5.890  11.541  2.1060  0.2510 -1.1859
  707MOL0     H93280  -0.812   5.940  11.430 -4.0253  3.6182 -0.3461
  707MOL0     H93281  -0.760   6.101  11.414  1.0746  0.8278  0.6304
  707MOL0     H93282  -0.748   5.958  11.689  2.6591  0.6431 -0.1813
  707MOL0     H93283  -0.747   6.131  11.656  0.1087 -0.9879 -0.8435
  707MOL0     H93284  -0.954   6.156  11.595 -0.0330  0.6636  1.2102
  707MOL0     H93285  -0.954   6.054  11.743  0.0643  1.8054 -0.7538
  707MOL0     H93286  -1.152   5.921  11.364 -0.5941 -1.0892 -0.6075
  707MOL0     H93287  -1.389   5.953  11.323  3.4764  1.0682 -1.6405
  707MOL0     H93288  -1.794   6.198  11.461 -0.0643  0.8743 -1.0740
  707MOL0     H93289  -2.031   6.189  11.488  2.0431  2.3831 -1.9668
  707MOL0     H93290  -2.262   6.169  11.356 -2.2422 -0.0425 -0.5692
  707MOL0     H93291  -2.255   6.127  11.534  1.4322 -0.8414 -0.2513
  707MOL0     H93292  -2.430   5.957  11.480  0.6872  0.7717 -0.1972
  707MOL0     H93293  -2.418   5.998  11.304  0.4149 -3.8314  0.3822
  707MOL0     H93294  -2.490   6.235  11.376 -0.3848 -0.7276 -0.9395
  707MOL0     H93295  -2.516   6.167  11.530  2.0860 -0.9580  0.6600
  707MOL0     H93296  -2.657   6.076  11.257  0.4543  3.2743 -0.4269
  707MOL0     H93297  -2.693   5.999  11.407  0.2168  0.0281  0.5769
  707MOL0     H93298  -2.776   6.264  11.310  4.8192 -0.4402  0.7113
  707MOL0     H93299  -2.807   6.216  11.485 -2.5665  3.5843 -1.5265
  707MOL0     H93300  -2.997   6.154  11.407  0.1875  1.4221 -3.2808
  707MOL0     H93301  -2.897   6.003  11.412  1.1759  0.4630  1.6942
  707MOL0     H93302  -2.902   6.155  11.156 -1.3717  0.1103  0.9017
  707MOL0     H93303  -2.871   5.983  11.182  0.1406 -0.7555  0.7030
  707MOL0     H93304  -3.133   6.119  11.239  1.6636  1.4621 -0.9731
  707MOL0     H93305  -3.108   5.944  11.249 -1.4068  1.6605  1.5021
  707MOL0     H93306  -2.052   5.811  11.298 -1.4171  1.9441  0.4367
  707MOL0     H93307  -1.804   5.793  11.300 -0.4162  0.5096 -0.3597
  707MOL0     H93308  -1.401   6.105  11.735  0.8715  3.7973 -0.4178
  707MOL0     H93309  -1.170   6.075  11.755 -0.5169 -1.0755  0.2649
  707MOL0     H93310   0.192   6.219  10.721 -0.0621 -0.0006 -0.3542
  707MOL0     H93311   0.415   6.278  10.800 -0.7600  0.7223 -2.2386
  707MOL0     H93312   0.999   5.936  10.777  0.1257  1.7768 -1.4004
  707MOL0     H93313   1.196   5.995  10.896  1.5882  2.2368 -3.1576
  707MOL0     H93314   1.341   6.174  10.898  0.8610 -3.8983 -1.0458
  707MOL0     H93315   1.356   6.073  11.053  3.8787  2.1043  2.3160
  707MOL0     H93316   1.464   6.351  11.056  3.2332  0.2922 -1.3673
  707MOL0     H93317   1.466   6.216  11.167 -0.5225 -1.0856  0.1382
  707MOL0     H93318   1.671   6.260  10.995  1.5363 -1.0457 -1.6429
  707MOL0     H93319   1.582   6.134  10.908  0.8609 -1.4291  0.5847
  707MOL0     H93320   1.561   6.008  11.138 -0.7938  1.7784  1.9106
  707MOL0     H93321   1.703   5.988  11.037  0.9002  0.3143  1.2965
  707MOL0     H93322   1.881   6.127  11.365 -0.5203  1.2436  0.2642
  707MOL0     H93323   0.964   6.299  11.104  0.1143 -0.5482 -0.0437
  707MOL0     H93324   0.771   6.212  10.997 -0.0442  1.8420  0.0975
  708MOL0     O93325   7.263  10.257  10.060 -0.2457 -0.3632 -0.4400
  708MOL0     C93326   7.262  10.369  10.126 -1.2565  1.5761  0.1281
  708MOL0     O93327   7.357  10.411  10.215 -0.1422 -0.1516  0.2291
  708MOL0     C93328   7.477  10.352  10.212 -0.1499  0.1529 -0.2885
  708MOL0     C93329   7.592  10.425  10.175 -0.0782 -0.2360 -0.3982
  708MOL0     C93330   7.716  10.362  10.180 -0.1311  0.2842 -0.3194
  708MOL0     C93331   7.724  10.231  10.225 -0.5445 -0.5033 -0.4421
  708MOL0     O93332   7.847  10.175  10.239  0.2246  0.1287 -0.1669
  708MOL0     C93333   7.880  10.122  10.106 -0.5532  0.0671  0.3215
  708MOL0     C93334   8.009  10.043  10.103  0.4029 -0.2935  0.3749
  708MOL0     C93335   8.021   9.967   9.975  0.0918  0.2048 -0.2445
  708MOL0     C93336   7.919   9.856   9.959  0.8628  0.9250 -1.1862
  708MOL0     C93337   7.969   9.730   9.888 -0.4157 -0.3971 -0.3139
  708MOL0     C93338   7.857   9.627   9.860 -0.3707  0.4548  0.2955
  708MOL0     C93339   7.909   9.508   9.784  0.3597 -0.4985 -0.9699
  708MOL0     C93340   7.795   9.423   9.727  0.4838  0.4159  0.0708
  708MOL0     N93341   7.738   9.337   9.832  0.5491 -0.1544 -0.4691
  708MOL0     C93342   7.623   9.353   9.911  0.0626  0.9424 -0.7577
  708MOL0     C93343   7.659   9.295  10.024  0.1951  0.5196 -0.5931
  708MOL0     C93344   7.579   9.298  10.147 -0.3311 -0.0540 -0.5905
  708MOL0     C93345   7.480   9.416  10.161  0.9975  0.1804  0.1569
  708MOL0     C93346   7.393   9.408  10.295 -0.7872 -0.4292  0.3701
  708MOL0     C93347   7.270   9.495  10.277 -0.2675  0.4158 -0.0881
  708MOL0     O93348   7.307   9.626  10.318 -0.1232 -0.1288 -0.6099
  708MOL0     C93349   7.215   9.722  10.289  0.4303 -0.4685 -0.1902
  708MOL0     C93350   7.085   9.691  10.240  0.6643 -1.1360 -0.3008
  708MOL0     C93351   6.989   9.794  10.219 -0.1000 -0.3139  0.6756
  708MOL0     C93352   7.013   9.925  10.255 -0.0226 -0.2759  0.4266
  708MOL0     C93353   6.911  10.032  10.231  0.3617  0.3338  0.1724
  708MOL0     O93354   6.810   9.998  10.142  0.1798 -0.3463  0.4476
  708MOL0     C93355   6.728  10.100  10.091 -0.3835 -0.1098  0.2235
  708MOL0     C93356   6.765  10.161   9.966  0.1438  0.3502 -0.7151
  708MOL0     C93357   6.679  10.262   9.922 -0.2722 -0.2195  0.2623
  708MOL0     C93358   6.560  10.297   9.982  0.3082 -0.3047  0.2473
  708MOL0     O93359   6.479  10.385   9.922  0.0063  0.4095 -0.3987
  708MOL0     C93360   6.395  10.464  10.005  1.0152  1.0325 -0.0363
  708MOL0     C93361   6.347  10.561   9.906 -0.3817 -0.8878 -0.0857
  708MOL0     C93362   6.272  10.680   9.976 -1.0223  0.8497 -0.2590
  708MOL0     C93363   6.192  10.775   9.881 -0.8100 -0.2241 -0.6807
  708MOL0     C93364   6.277  10.864   9.795 -0.6430  0.0634  0.0257
  708MOL0     C93365   6.389  10.952   9.868  0.4985  0.6423  0.6760
  708MOL0     C93366   6.326  11.021   9.989  0.8036 -0.3727 -0.8825
  708MOL0     C93367   6.392  11.132  10.074 -0.4150  0.1442  0.1974
  708MOL0    Cl93368   6.416  11.265   9.966 -0.2066  0.3768  0.3288
  708MOL0     C93369   6.524  10.232  10.101 -0.0069 -0.2209  0.4694
  708MOL0     C93370   6.606  10.137  10.158  0.4725  0.2484  1.1019
  708MOL0     O93371   6.924  10.148  10.267 -0.1386  0.0366  0.4952
  708MOL0     C93372   7.150   9.959  10.300  1.2719 -0.1913  0.6045
  708MOL0     C93373   7.241   9.859  10.317  0.1547  0.2882 -0.0840
  708MOL0     N93374   7.773   9.226  10.011 -0.2148  0.9354 -0.2819
  708MOL0     N93375   7.819   9.255   9.899 -0.1362 -0.7369 -0.3280
  708MOL0     C93376   7.604  10.163  10.258  0.1894  0.2138  0.2145
  708MOL0     C93377   7.483  10.218  10.245 -0.0007  0.8602 -0.0191
  708MOL0     C93378   7.147  10.459  10.097  0.2447  0.2909  0.1042
  708MOL0     C93379   7.149  10.590  10.142 -0.0559 -0.1076  0.6318
  708MOL0     C93380   7.048  10.677  10.105  0.6228 -0.9971  0.2131
  708MOL0     C93381   6.945  10.643  10.013  0.4574  0.6070  0.1633
  708MOL0     O93382   6.844  10.739   9.983  0.6068  0.7234 -0.3602
  708MOL0     C93383   6.721  10.701   9.917 -0.0475  0.3175  0.2610
  708MOL0     C93384   6.724  10.751   9.762  0.4296 -0.5306  0.0945
  708MOL0     C93385   6.757  10.906   9.750 -0.7559  0.2130 -1.2090
  708MOL0     C93386   6.754  10.957   9.606 -0.2328  0.0091 -0.5467
  708MOL0     C93387   6.616  11.000   9.583  0.4841  0.1517  0.8502
  708MOL0     C93388   6.509  11.048   9.561 -0.5719  0.1737  0.1293
  708MOL0     C93389   6.951  10.512   9.956 -1.0500  0.0407  0.6263
  708MOL0     C93390   7.043  10.415  10.011 -0.0936 -0.6896  0.4624
  708MOL0     H93391   7.590  10.532  10.156  2.2198 -0.2706 -1.0608
  708MOL0     H93392   7.807  10.417  10.159 -1.9573  3.1768 -1.2268
  708MOL0     H93393   7.894  10.199  10.029 -0.6814 -0.9654 -0.7455
  708MOL0     H93394   7.803  10.051  10.076  0.1093 -0.0664 -1.1164
  708MOL0     H93395   8.004   9.973  10.187  0.3204  0.5352  1.0751
  708MOL0     H93396   8.085  10.119  10.125  1.2436 -1.3044  1.0685
  708MOL0     H93397   8.121   9.925   9.985  0.8390  2.2737  1.6702
  708MOL0     H93398   8.011  10.029   9.886 -1.7741  0.0573 -0.1880
  708MOL0     H93399   7.882   9.823  10.057 -4.8523 -1.1952 -3.5941
  708MOL0     H93400   7.824   9.891   9.916 -1.2762 -0.0512  2.3089
  708MOL0     H93401   8.051   9.688   9.946  0.4439 -0.2855 -1.4242
  708MOL0     H93402   8.017   9.759   9.794 -1.7480 -0.6402 -1.0977
  708MOL0     H93403   7.786   9.670   9.789 -0.4485 -1.4387 -0.8366
  708MOL0     H93404   7.813   9.597   9.956 -3.2390  2.2007 -0.3550
  708MOL0     H93405   7.975   9.548   9.707  1.2754  0.8682  0.4555
  708MOL0     H93406   7.966   9.448   9.855 -2.7159 -0.0968  2.0919
  708MOL0     H93407   7.843   9.354   9.658  0.6828  1.7508 -1.1757
  708MOL0     H93408   7.716   9.486   9.685 -0.8777 -0.8476  0.6121
  708MOL0     H93409   7.533   9.409   9.885 -0.2589  0.2402 -1.1997
  708MOL0     H93410   7.641   9.275  10.234  1.7372  1.5043 -1.5611
  708MOL0     H93411   7.513   9.211  10.141 -1.7930  0.8999  0.9312
  708MOL0     H93412   7.430   9.434  10.066  2.5535 -0.8109 -0.9066
  708MOL0     H93413   7.538   9.508  10.170  0.1532  1.1364 -2.8913
  708MOL0     H93414   7.363   9.306  10.321 -5.1546  0.5428 -0.1205
  708MOL0     H93415   7.458   9.446  10.375  0.9388 -0.4582 -0.9667
  708MOL0     H93416   7.189   9.452  10.336 -1.4340  1.3620 -0.9495
  708MOL0     H93417   7.245   9.493  10.170 -0.7874 -0.4815  0.0334
  708MOL0     H93418   7.053   9.590  10.218  0.1338 -1.5559  2.1400
  708MOL0     H93419   6.896   9.757  10.178  0.2900 -0.7536  0.1737
  708MOL0     H93420   6.857  10.126   9.920  0.1960  1.5988 -1.5834
  708MOL0     H93421   6.712  10.314   9.833 -0.4822 -0.5581 -0.0205
  708MOL0     H93422   6.436  10.516  10.093 -0.1219 -0.8050  1.6657
  708MOL0     H93423   6.319  10.394  10.041 -0.3891  2.6537  0.3029
  708MOL0     H93424   6.275  10.519   9.834 -1.0687 -0.2713  0.2234
  708MOL0     H93425   6.427  10.599   9.841 -1.5392  1.6286 -0.1525
  708MOL0     H93426   6.346  10.749  10.019  0.7110  0.3950 -2.3776
  708MOL0     H93427   6.217  10.635  10.059  0.2094  0.8712  0.6034
  708MOL0     H93428   6.128  10.718   9.813 -0.0193 -3.2286  0.9256
  708MOL0     H93429   6.126  10.836   9.943  0.2717  0.0168  0.2664
  708MOL0     H93430   6.206  10.939   9.758 -0.5483  0.1574  0.0340
  708MOL0     H93431   6.322  10.811   9.710  0.6374  1.2874 -0.1176
  708MOL0     H93432   6.415  11.031   9.798 -2.6797  0.1770 -1.2439
  708MOL0     H93433   6.476  10.892   9.897 -0.5493 -0.6514  1.2504
  708MOL0     H93434   6.235  11.074   9.959 -0.2314 -0.3112  1.9983
  708MOL0     H93435   6.292  10.954  10.069  2.4771  0.1992  0.3588
  708MOL0     H93436   6.490  11.101  10.112  0.3284  0.3965 -1.4185
  708MOL0     H93437   6.318  11.156  10.150  0.7133  2.6766  0.5845
  708MOL0     H93438   6.433  10.259  10.153  0.1165 -2.6644  2.1144
  708MOL0     H93439   6.571  10.072  10.238 -1.0002  0.6156  0.7789
  708MOL0     H93440   7.176  10.058  10.334 -1.1074  0.2633  1.2857
  708MOL0     H93441   7.338   9.878  10.362  1.2217 -2.9333 -0.7489
  708MOL0     H93442   7.614  10.063  10.299 -1.7891  0.4085  1.3297
  708MOL0     H93443   7.395  10.166  10.280  0.5109  1.3081  2.0272
  708MOL0     H93444   7.228  10.623  10.209 -2.3765  1.7790  2.6164
  708MOL0     H93445   7.053  10.779  10.142  2.4305 -0.1864 -1.9635
  708MOL0     H93446   6.632  10.747   9.962 -0.4918  3.2116 -3.1657
  708MOL0     H93447   6.713  10.592   9.908  3.2647  0.1239 -1.7596
  708MOL0     H93448   6.786  10.693   9.694 -0.1054  2.7087 -3.5168
  708MOL0     H93449   6.621  10.735   9.729 -0.5852  0.0953  2.6495
  708MOL0     H93450   6.861  10.923   9.780 -0.0968 -5.1633  0.6176
  708MOL0     H93451   6.691  10.966   9.813  1.0896 -1.4656  2.6184
  708MOL0     H93452   6.809  11.051   9.616  1.7152 -0.9170 -1.9315
  708MOL0     H93453   6.797  10.894   9.528  1.5419  2.5840 -1.7951
  708MOL0     H93454   6.413  11.092   9.543 -1.9068 -2.5180  0.2319
  708MOL0     H93455   6.875  10.463   9.894  0.0647 -0.0097 -0.7483
  708MOL0     H93456   7.029  10.313   9.978  2.1239 -1.0343  0.4333
  709MOL0     O93457   4.818   8.512   3.424 -0.0442 -0.4523 -0.1578
  709MOL0     C93458   4.825   8.537   3.543 -0.1796  0.0761 -0.2955
  709MOL0     O93459   4.941   8.563   3.613 -0.3539  0.3140  0.3453
  709MOL0     C93460   5.064   8.565   3.556  0.5865 -0.2068 -0.0123
  709MOL0     C93461   5.107   8.450   3.496 -0.3104  0.0777 -0.3786
  709MOL0     C93462   5.241   8.441   3.445  0.4462 -1.1930  0.2095
  709MOL0     C93463   5.328   8.548   3.477  1.0168  0.4152 -0.2385
  709MOL0     O93464   5.458   8.545   3.451 -0.0937  0.1439 -0.2142
  709MOL0     C93465   5.511   8.411   3.454  0.2832 -0.0411  0.1022
  709MOL0     C93466   5.665   8.420   3.468  0.2386  1.1307 -0.5005
  709MOL0     C93467   5.726   8.310   3.382 -0.0282 -0.4033 -0.1353
  709MOL0     C93468   5.880   8.308   3.409  0.0008 -0.4130 -0.6999
  709MOL0     C93469   5.962   8.240   3.296  1.0051 -0.4982  0.3034
  709MOL0     C93470   6.111   8.241   3.311  0.8654 -0.5298 -0.2831
  709MOL0     C93471   6.177   8.184   3.447  0.1898 -0.2908 -0.7686
  709MOL0     C93472   6.197   8.035   3.431  1.2131 -0.5278  0.3582
  709MOL0     N93473   6.227   7.980   3.559 -0.8088  0.3233 -0.2056
  709MOL0     C93474   6.138   7.957   3.661 -0.6325  0.3062 -0.1666
  709MOL0     C93475   6.202   7.868   3.747 -0.3016 -0.1557  0.6437
  709MOL0     C93476   6.150   7.807   3.871  0.4581 -0.1892 -0.4154
  709MOL0     C93477   6.124   7.661   3.851 -0.9635 -0.2781 -0.5893
  709MOL0     C93478   6.028   7.593   3.943 -0.0175  0.0202  0.6235
  709MOL0     C93479   6.077   7.559   4.077 -0.0181 -0.6041 -0.0710
  709MOL0     O93480   5.989   7.475   4.156  0.4169  0.5498  0.3684
  709MOL0     C93481   6.051   7.376   4.230  0.1131  0.3910 -0.6482
  709MOL0     C93482   6.187   7.338   4.229 -0.4302 -0.0424  0.2263
  709MOL0     C93483   6.240   7.233   4.306  0.2011  0.7376  0.2238
  709MOL0     C93484   6.156   7.160   4.387  0.4179  0.1702 -0.0727
  709MOL0     C93485   6.219   7.054   4.470  0.4734  0.3062  0.3323
  709MOL0     O93486   6.220   7.070   4.601 -0.2327  0.0692  0.4052
  709MOL0     C93487   6.249   6.962   4.689  0.1714  0.3527  0.4360
  709MOL0     C93488   6.172   6.840   4.678  0.0198  0.1870  0.1428
  709MOL0     C93489   6.187   6.739   4.770  0.5654 -0.3546 -0.2793
  709MOL0     C93490   6.276   6.749   4.884 -0.3031  0.9933  0.0504
  709MOL0     O93491   6.290   6.637   4.967  0.1348  0.0030  0.0894
  709MOL0     C93492   6.399   6.632   5.068 -0.1770 -1.4019 -0.4595
  709MOL0     C93493   6.388   6.510   5.160  0.4817 -0.2737  0.0420
  709MOL0     C93494   6.483   6.520   5.280 -0.6660  0.5393 -0.8512
  709MOL0     C93495   6.429   6.425   5.390  0.6283 -0.1439  0.5259
  709MOL0     C93496   6.503   6.426   5.519  0.2181  0.5094 -0.7847
  709MOL0     C93497   6.428   6.329   5.601  0.3840 -0.0654  0.3019
  709MOL0     C93498   6.508   6.301   5.732  0.5170  0.2182  0.1627
  709MOL0     C93499   6.565   6.425   5.814  0.1653 -0.1827 -0.0484
  709MOL0    Cl93500   6.656   6.375   5.957 -0.1441  0.4356 -0.0477
  709MOL0     C93501   6.365   6.863   4.887 -0.5066  0.3106  0.0614
  709MOL0     C93502   6.337   6.967   4.802  0.0301 -0.0400  0.6402
  709MOL0     O93503   6.288   6.971   4.410  0.0264  0.4089  0.5560
  709MOL0     C93504   6.028   7.206   4.406  0.4527  0.5990 -0.2010
  709MOL0     C93505   5.972   7.314   4.328  0.1453 -0.6112 -0.8025
  709MOL0     N93506   6.327   7.852   3.692  0.2672  0.1722 -0.0284
  709MOL0     N93507   6.335   7.906   3.575  0.1426  0.7507 -0.2286
  709MOL0     C93508   5.281   8.664   3.548  0.0740 -0.6073  0.6067
  709MOL0     C93509   5.146   8.673   3.574  0.2254  0.1110  0.1941
  709MOL0     C93510   4.693   8.547   3.618  0.0759  0.2272  0.0257
  709MOL0     C93511   4.672   8.605   3.746 -0.3426 -0.4380 -0.3878
  709MOL0     C93512   4.552   8.599   3.815  0.1698 -0.1228 -0.0699
  709MOL0     C93513   4.449   8.527   3.759 -0.7251  0.0593 -0.8498
  709MOL0     O93514   4.330   8.538   3.827  0.3968  0.2003  0.4827
  709MOL0     C93515   4.213   8.516   3.743 -0.1026  0.9265 -0.3547
  709MOL0     C93516   4.080   8.537   3.809  0.1098 -0.6369 -0.2835
  709MOL0     C93517   4.002   8.412   3.860 -0.5593 -0.6799 -0.1649
  709MOL0     C93518   3.885   8.453   3.950  0.1923  0.0353  0.4526
  709MOL0     C93519   3.758   8.471   3.880  0.1733  0.1572 -0.3520
  709MOL0     C93520   3.652   8.489   3.820  0.8784  0.2620  0.2739
  709MOL0     C93521   4.466   8.465   3.637  0.1624  0.6303  0.1633
  709MOL0     C93522   4.586   8.472   3.571 -0.0661 -0.4088 -0.1511
  709MOL0     H93523   5.044   8.362   3.496 -0.7780  0.4126 -0.2811
  709MOL0     H93524   5.271   8.344   3.406 -0.3670 -1.5916  0.5555
  709MOL0     H93525   5.482   8.367   3.358  1.4207 -0.7982  0.0874
  709MOL0     H93526   5.472   8.346   3.533 -1.7468 -1.4274 -1.9244
  709MOL0     H93527   5.685   8.415   3.575 -3.2473  3.6625  0.4719
  709MOL0     H93528   5.706   8.515   3.431 -0.1477  1.0868 -1.0543
  709MOL0     H93529   5.727   8.352   3.281  0.8189  4.0541  1.4781
  709MOL0     H93530   5.672   8.219   3.409  2.1472 -0.5299  5.0572
  709MOL0     H93531   5.908   8.414   3.412 -5.4742  1.3698 -0.3717
  709MOL0     H93532   5.901   8.260   3.505 -1.2064 -2.5134 -1.4265
  709MOL0     H93533   5.934   8.277   3.197  1.8479 -4.1904 -1.4927
  709MOL0     H93534   5.944   8.132   3.299  3.4703 -0.9708 -0.1701
  709MOL0     H93535   6.127   8.349   3.318 -1.2075 -0.2479  0.8163
  709MOL0     H93536   6.148   8.203   3.215  0.9272  4.1442 -2.4098
  709MOL0     H93537   6.276   8.228   3.465  0.2928 -1.7183  2.9862
  709MOL0     H93538   6.117   8.202   3.536  0.4854  2.6073 -1.0512
  709MOL0     H93539   6.259   8.017   3.344 -2.6408  0.2219 -2.8327
  709MOL0     H93540   6.102   7.995   3.395  0.3113  0.4651  1.5128
  709MOL0     H93541   6.035   7.991   3.670 -0.1073  1.7154  0.8389
  709MOL0     H93542   6.057   7.864   3.888 -0.9560 -2.7557  1.0364
  709MOL0     H93543   6.232   7.823   3.941 -0.5582  0.1335  0.7482
  709MOL0     H93544   6.226   7.623   3.863  0.4834  2.7081 -2.4607
  709MOL0     H93545   6.098   7.646   3.746  2.3655  0.1839 -1.5938
  709MOL0     H93546   5.946   7.666   3.947  0.1241  0.1413  1.6448
  709MOL0     H93547   5.986   7.503   3.897 -2.1648  0.3528  1.7912
  709MOL0     H93548   6.103   7.648   4.137 -2.7065  0.5217 -0.4668
  709MOL0     H93549   6.177   7.517   4.060  0.2251  0.2397 -0.8172
  709MOL0     H93550   6.260   7.370   4.155 -0.6117 -2.9834 -1.3570
  709MOL0     H93551   6.342   7.194   4.303  0.1721  0.3275  2.4889
  709MOL0     H93552   6.094   6.838   4.602  0.4287  1.6474 -0.3474
  709MOL0     H93553   6.141   6.643   4.749  2.0563 -1.0805 -0.3757
  709MOL0     H93554   6.400   6.720   5.134 -4.7778  0.2922 -2.3003
  709MOL0     H93555   6.486   6.628   5.002  0.8582  0.0004  0.7409
  709MOL0     H93556   6.400   6.419   5.101  3.4524 -0.3590  0.6241
  709MOL0     H93557   6.286   6.525   5.195 -0.3453  1.6329 -2.7879
  709MOL0     H93558   6.491   6.621   5.321  2.1487 -0.0277  0.1894
  709MOL0     H93559   6.586   6.497   5.254  0.1200  1.3063  1.3869
  709MOL0     H93560   6.326   6.454   5.410  0.6633 -0.6474  1.5439
  709MOL0     H93561   6.429   6.325   5.346 -0.2848 -0.3115  0.8792
  709MOL0     H93562   6.490   6.527   5.558 -2.7203  1.0731 -2.8693
  709MOL0     H93563   6.607   6.392   5.518 -0.0080 -0.4043  1.3817
  709MOL0     H93564   6.420   6.236   5.545 -2.0482  0.3489 -0.1726
  709MOL0     H93565   6.328   6.373   5.609  1.3764  2.6823 -1.0215
  709MOL0     H93566   6.453   6.236   5.800  1.9454 -2.0613 -0.7631
  709MOL0     H93567   6.593   6.239   5.705 -0.0609 -0.8230  0.6552
  709MOL0     H93568   6.480   6.489   5.840  1.6068  1.4164  0.9347
  709MOL0     H93569   6.627   6.485   5.746  0.4265 -0.1172  0.2459
  709MOL0     H93570   6.444   6.877   4.961 -0.6547 -2.2317  0.8045
  709MOL0     H93571   6.392   7.060   4.812 -1.2558  0.8830 -0.3689
  709MOL0     H93572   5.971   7.145   4.476 -3.4747  0.3701 -3.2036
  709MOL0     H93573   5.864   7.326   4.321  0.0111 -0.6500  0.8365
  709MOL0     H93574   5.347   8.747   3.569 -0.4463 -0.6852  2.7939
  709MOL0     H93575   5.115   8.767   3.619 -0.2722 -0.2143  0.5508
  709MOL0     H93576   4.746   8.677   3.778  0.4827  0.6477 -4.2484
  709MOL0     H93577   4.517   8.649   3.904  0.6401 -0.3288  0.2315
  709MOL0     H93578   4.218   8.416   3.698  0.9733  0.6178  0.4196
  709MOL0     H93579   4.229   8.590   3.665  1.2380 -0.1565 -1.1553
  709MOL0     H93580   4.096   8.607   3.891  1.4819  2.9624 -3.3231
  709MOL0     H93581   4.013   8.589   3.739 -0.7086  0.2169  1.1022
  709MOL0     H93582   4.072   8.348   3.914 -2.2848 -2.0417  0.5750
  709MOL0     H93583   3.964   8.361   3.771 -1.6420 -0.3524  0.0951
  709MOL0     H93584   3.866   8.375   4.024  0.1739  1.1628  1.6729
  709MOL0     H93585   3.902   8.542   4.011 -0.6250 -0.7753  1.9125
  709MOL0     H93586   3.559   8.500   3.766  1.4457 -0.5776 -0.9264
  709MOL0     H93587   4.398   8.391   3.596  0.3474  1.3650 -1.5595
  709MOL0     H93588   4.595   8.410   3.482  1.7512 -1.8253  0.9432
  710MOL0     O93589   9.126   1.147   9.027 -0.4034 -0.1116 -0.2855
  710MOL0     C93590   9.157   1.259   9.002  0.1942 -0.5437 -0.8599
  710MOL0     O93591   9.129   1.325   8.885 -0.2450  0.2370  1.2138
  710MOL0     C93592   9.079   1.254   8.780 -0.5160  0.5766  0.7070
  710MOL0     C93593   9.155   1.141   8.723  0.3087 -1.0244  0.8866
  710MOL0     C93594   9.097   1.058   8.631  0.8142  0.9878 -0.6693
  710MOL0     C93595   8.968   1.078   8.587  0.0433 -0.3942 -0.1012
  710MOL0     O93596   8.924   0.979   8.498  1.0557  0.3143 -0.1323
  710MOL0     C93597   8.792   0.971   8.447  0.3013  0.1580 -0.0123
  710MOL0     C93598   8.754   1.064   8.341 -0.0987 -0.5953  0.2536
  710MOL0     C93599   8.609   1.042   8.304  0.4859  0.2457 -0.0045
  710MOL0     C93600   8.503   1.061   8.414 -0.5152  0.2895  0.7117
  710MOL0     C93601   8.360   1.075   8.351 -0.5305 -0.0679  0.3428
  710MOL0     C93602   8.247   1.088   8.459 -0.4595  0.7815 -0.2923
  710MOL0     C93603   8.108   1.061   8.396 -0.5575 -0.5643 -0.2375
  710MOL0     C93604   8.000   1.084   8.506 -0.5448 -0.0119 -0.3911
  710MOL0     N93605   7.881   1.026   8.444  0.7483  0.2926 -0.1867
  710MOL0     C93606   7.765   1.093   8.404 -0.3799 -0.2204  0.3126
  710MOL0     C93607   7.673   1.003   8.372  0.2133 -0.6833  0.6089
  710MOL0     C93608   7.537   1.016   8.305  0.2965 -0.0758 -0.5182
  710MOL0     C93609   7.550   1.067   8.154 -0.3618 -0.6294 -0.2100
  710MOL0     C93610   7.649   0.988   8.058 -0.4977 -0.3072 -0.3609
  710MOL0     C93611   7.797   1.004   8.067 -0.6068  0.5948  0.0925
  710MOL0     O93612   7.827   1.139   8.057  0.5641 -0.4818 -0.2045
  710MOL0     C93613   7.952   1.180   8.021 -0.2518 -0.1244 -0.4256
  710MOL0     C93614   7.966   1.294   7.939  0.3877  0.2655  0.5539
  710MOL0     C93615   8.088   1.347   7.898 -0.0140  0.4206  0.9102
  710MOL0     C93616   8.210   1.282   7.926  0.6474 -0.0494 -0.7511
  710MOL0     C93617   8.340   1.333   7.881 -0.1077  0.7273  0.1548
  710MOL0     O93618   8.344   1.446   7.802  0.4991 -0.1846  0.0780
  710MOL0     C93619   8.465   1.486   7.746  0.0745 -0.2396  0.6760
  710MOL0     C93620   8.481   1.443   7.614  0.4299  0.6605 -1.0438
  710MOL0     C93621   8.600   1.469   7.543  0.3465  0.2169 -0.5057
  710MOL0     C93622   8.699   1.541   7.602 -0.9035 -0.0756 -0.5163
  710MOL0     O93623   8.805   1.579   7.527  0.3467 -0.8344  0.2384
  710MOL0     C93624   8.892   1.675   7.566 -0.4701  0.2442 -0.0767
  710MOL0     C93625   8.983   1.722   7.450  0.1595  0.2660 -0.5047
  710MOL0     C93626   9.075   1.605   7.400  0.0501 -0.3407 -0.1296
  710MOL0     C93627   9.150   1.656   7.268  0.1755  0.0477  0.5855
  710MOL0     C93628   9.249   1.550   7.211 -0.2372 -0.2148 -0.1585
  710MOL0     C93629   9.198   1.528   7.067 -0.6530  0.0615  0.5296
  710MOL0     C93630   9.251   1.638   6.973 -0.3347  0.0392  0.2027
  710MOL0     C93631   9.223   1.617   6.824  0.5040  0.6424  0.0575
  710MOL0    Cl93632   9.055   1.633   6.778  0.1483  0.4286 -0.1691
  710MOL0     C93633   8.683   1.594   7.734 -0.1051  0.1836 -0.1619
  710MOL0     C93634   8.562   1.565   7.807 -0.6974  0.1495 -0.0762
  710MOL0     O93635   8.440   1.267   7.915 -0.3486 -0.2051  0.0124
  710MOL0     C93636   8.198   1.168   8.007 -0.5662 -0.0653 -0.0074
  710MOL0     C93637   8.073   1.112   8.047 -0.4058 -0.2605  0.1187
  710MOL0     N93638   7.727   0.879   8.386  0.7218  0.3803  1.3585
  710MOL0     N93639   7.853   0.887   8.431 -0.6344 -0.1781  0.0183
  710MOL0     C93640   8.895   1.191   8.631  1.2819  0.3496  0.3939
  710MOL0     C93641   8.948   1.276   8.730 -0.5580  0.1898 -0.1275
  710MOL0     C93642   9.247   1.341   9.088  0.1133  0.0459  0.1545
  710MOL0     C93643   9.272   1.474   9.055 -0.3426  0.6466  0.1840
  710MOL0     C93644   9.373   1.537   9.130  0.4898  0.2586 -0.0808
  710MOL0     C93645   9.442   1.474   9.238  0.1980 -0.5214 -0.9072
  710MOL0     O93646   9.526   1.545   9.314 -0.2031  0.0843 -0.2229
  710MOL0     C93647   9.588   1.670   9.279 -0.3759 -0.0384 -0.0065
  710MOL0     C93648   9.638   1.732   9.412 -0.2166 -0.1075  0.1164
  710MOL0     C93649   9.730   1.849   9.387  0.4578 -0.0666 -0.4242
  710MOL0     C93650   9.830   1.888   9.499  0.0282 -0.6767  0.0025
  710MOL0     C93651   9.931   1.790   9.527 -0.4698 -0.0466  0.4631
  710MOL0     C93652  10.026   1.723   9.547  1.1651  0.6067 -0.6803
  710MOL0     C93653   9.402   1.345   9.280  0.1146 -0.0700  0.9475
  710MOL0     C93654   9.302   1.287   9.204 -0.5652  0.0402  0.0087
  710MOL0     H93655   9.255   1.119   8.758  0.1050  0.6253  2.7297
  710MOL0     H93656   9.148   0.970   8.592  1.5690  1.2915 -0.3748
  710MOL0     H93657   8.722   0.971   8.531  0.2373 -2.4864  0.0116
  710MOL0     H93658   8.789   0.868   8.410  0.0979  0.2351 -0.2154
  710MOL0     H93659   8.822   1.062   8.255 -2.3428 -0.8231 -1.5977
  710MOL0     H93660   8.758   1.165   8.385  0.0083 -0.3646 -0.2776
  710MOL0     H93661   8.609   0.942   8.260 -1.7716  0.0967  0.2213
  710MOL0     H93662   8.591   1.115   8.225 -0.0516 -0.1624 -0.2663
  710MOL0     H93663   8.500   0.981   8.488  0.8344 -1.1273 -0.6721
  710MOL0     H93664   8.530   1.158   8.455  1.4014  0.4849 -0.8826
  710MOL0     H93665   8.350   0.981   8.295 -2.0553 -1.5890  2.9699
  710MOL0     H93666   8.353   1.165   8.290 -1.2605 -2.3271 -3.1977
  710MOL0     H93667   8.250   1.186   8.506 -3.5696  0.1300  1.5641
  710MOL0     H93668   8.267   1.013   8.537  1.6620  0.5937 -0.9381
  710MOL0     H93669   8.093   1.131   8.313  2.7562  2.6816  1.5821
  710MOL0     H93670   8.109   0.959   8.356  0.8263 -0.4636 -0.5161
  710MOL0     H93671   7.984   1.184   8.547 -0.7770  0.3059 -1.2392
  710MOL0     H93672   8.020   1.022   8.594 -0.3370 -1.0676 -1.1732
  710MOL0     H93673   7.760   1.201   8.394  1.8873 -0.0342  0.8113
  710MOL0     H93674   7.476   1.094   8.353  1.1994 -1.9976  4.2952
  710MOL0     H93675   7.485   0.920   8.302  2.1824 -1.1204 -1.0002
  710MOL0     H93676   7.578   1.173   8.160 -0.3761 -0.7041  2.6405
  710MOL0     H93677   7.455   1.050   8.102  0.0069 -4.5269  0.1440
  710MOL0     H93678   7.635   0.882   8.083 -0.5527 -0.4396 -0.9348
  710MOL0     H93679   7.621   1.014   7.955  0.5754  3.9943  0.2376
  710MOL0     H93680   7.846   0.949   7.986  0.7515  0.1016  1.2030
  710MOL0     H93681   7.832   0.972   8.166 -0.1822  0.6006 -0.0534
  710MOL0     H93682   7.876   1.342   7.900  2.2452  2.7814 -0.9503
  710MOL0     H93683   8.096   1.443   7.848 -0.3747 -0.3238 -0.6067
  710MOL0     H93684   8.409   1.383   7.560  0.5451  1.1010 -1.6951
  710MOL0     H93685   8.602   1.435   7.440 -0.2309  2.1035 -1.1822
  710MOL0     H93686   8.949   1.625   7.645 -2.0815 -1.5313  0.0346
  710MOL0     H93687   8.839   1.757   7.615 -0.6358 -0.2898  0.6554
  710MOL0     H93688   9.037   1.815   7.469  0.2707  0.0221  0.4180
  710MOL0     H93689   8.915   1.744   7.367 -0.5752  3.0545  0.7332
  710MOL0     H93690   9.013   1.521   7.369 -1.3783  1.3876 -2.2834
  710MOL0     H93691   9.145   1.562   7.472 -0.2756 -0.9566 -0.1775
  710MOL0     H93692   9.067   1.667   7.198 -1.5278 -3.1622  1.9252
  710MOL0     H93693   9.203   1.749   7.293 -1.5649  1.1510  0.2954
  710MOL0     H93694   9.243   1.459   7.271 -0.1124  0.6121  1.1400
  710MOL0     H93695   9.351   1.585   7.224 -0.1005 -0.7805  0.3225
  710MOL0     H93696   9.090   1.529   7.054 -0.3138  2.2937 -3.8457
  710MOL0     H93697   9.227   1.427   7.035 -0.3121 -0.7034  3.0039
  710MOL0     H93698   9.192   1.725   7.004 -1.7294 -0.0850 -1.8869
  710MOL0     H93699   9.358   1.661   6.973 -0.1918 -0.5983 -0.6368
  710MOL0     H93700   9.254   1.515   6.802 -0.6892 -0.1754  1.8863
  710MOL0     H93701   9.277   1.682   6.756 -2.6291  2.6967 -0.7004
  710MOL0     H93702   8.754   1.666   7.773  0.0374  0.2929 -0.6205
  710MOL0     H93703   8.535   1.610   7.902 -1.5377  1.8460 -1.0513
  710MOL0     H93704   8.278   1.106   8.044 -0.1452  0.3336 -0.2414
  710MOL0     H93705   8.065   1.014   8.093 -1.0421 -0.5505 -0.5905
  710MOL0     H93706   8.795   1.218   8.600  1.0323 -0.1910  0.7260
  710MOL0     H93707   8.892   1.360   8.772  0.4272  0.7200  0.1592
  710MOL0     H93708   9.221   1.521   8.971  1.5570 -1.5597 -2.4090
  710MOL0     H93709   9.406   1.636   9.097  1.0794 -0.1428 -0.7291
  710MOL0     H93710   9.514   1.734   9.232  0.7463  4.4733  3.6881
  710MOL0     H93711   9.680   1.657   9.220 -1.3762  0.3697 -1.7072
  710MOL0     H93712   9.552   1.770   9.468 -0.2386 -0.8485  0.6118
  710MOL0     H93713   9.685   1.654   9.472 -2.1373 -1.0678  0.4646
  710MOL0     H93714   9.669   1.939   9.375  0.1379 -0.0922  0.8055
  710MOL0     H93715   9.789   1.820   9.300 -0.2958 -1.4312 -0.5082
  710MOL0     H93716   9.883   1.979   9.468 -1.6653  0.7065  0.9933
  710MOL0     H93717   9.778   1.923   9.588 -3.0643 -0.6687 -1.6682
  710MOL0     H93718  10.107   1.661   9.578 -0.0027  0.3735  2.1827
  710MOL0     H93719   9.447   1.286   9.359  0.8768 -0.8500 -0.0360
  710MOL0     H93720   9.267   1.188   9.230  0.3526 -0.4329 -0.4960
  711MOL0     O93721   1.298  10.803   8.051  0.8531  0.9200  0.6631
  711MOL0     C93722   1.212  10.886   8.078 -0.3080  0.2170 -0.4301
  711MOL0     O93723   1.095  10.861   8.152 -0.0314  0.9552  0.4632
  711MOL0     C93724   1.077  10.740   8.219 -0.1249 -0.0100  0.0440
  711MOL0     C93725   1.176  10.681   8.293  0.7855  0.1080  0.4356
  711MOL0     C93726   1.153  10.564   8.362  0.9505  0.5896 -0.5035
  711MOL0     C93727   1.028  10.499   8.353  0.7602  0.1428  0.4895
  711MOL0     O93728   1.010  10.387   8.426  0.1515  0.2569  0.1333
  711MOL0     C93729   0.903  10.396   8.520 -0.2408  0.3247 -0.2848
  711MOL0     C93730   0.911  10.261   8.604 -0.1853 -0.3537 -0.8293
  711MOL0     C93731   0.834  10.283   8.739  0.1662  0.1135 -0.7667
  711MOL0     C93732   0.840  10.156   8.834  0.3236  0.1600  0.0702
  711MOL0     C93733   0.726  10.152   8.935 -0.0628 -0.6248  0.2368
  711MOL0     C93734   0.745  10.044   9.038 -0.0660 -0.4307 -0.7648
  711MOL0     C93735   0.632  10.027   9.143  0.0594  0.2603 -0.0494
  711MOL0     C93736   0.674   9.907   9.242  0.8644  0.2555  0.1117
  711MOL0     N93737   0.576   9.889   9.345  0.1811 -0.9240  0.6033
  711MOL0     C93738   0.528   9.991   9.424 -0.7475 -0.0875 -0.6230
  711MOL0     C93739   0.445   9.931   9.514  0.0030  0.5166  0.6197
  711MOL0     C93740   0.372   9.995   9.619  0.2540 -0.6250 -0.2512
  711MOL0     C93741   0.230  10.011   9.579  0.7604  0.3812  0.1908
  711MOL0     C93742   0.150  10.080   9.696  0.3314  0.7492 -0.8662
  711MOL0     C93743   0.021  10.149   9.636  0.1344  0.1225  0.8326
  711MOL0     O93744  -0.082  10.045   9.590 -0.5754 -0.7163  0.3471
  711MOL0     C93745  -0.213  10.082   9.562  0.4015  0.2695  0.4399
  711MOL0     C93746  -0.249  10.213   9.548  0.7227 -0.4854 -0.4835
  711MOL0     C93747  -0.377  10.245   9.518 -1.2133  0.4027 -0.1003
  711MOL0     C93748  -0.467  10.141   9.479  0.7986 -0.7129 -1.1974
  711MOL0     C93749  -0.599  10.170   9.437  0.1143 -0.1250  0.5070
  711MOL0     O93750  -0.687  10.066   9.422 -0.0952  0.2456 -0.5091
  711MOL0     C93751  -0.812  10.085   9.389  0.0454 -0.0653  0.3288
  711MOL0     C93752  -0.844  10.117   9.249 -0.0291 -0.1638  0.0660
  711MOL0     C93753  -0.983  10.140   9.211  0.3101  0.7392 -0.3624
  711MOL0     C93754  -1.080  10.139   9.312 -0.2568  0.2797  0.9618
  711MOL0     O93755  -1.214  10.150   9.287  0.8531 -0.3979 -0.1769
  711MOL0     C93756  -1.250  10.125   9.153  0.0562  0.1522  0.0382
  711MOL0     C93757  -1.404  10.115   9.138 -0.2937 -0.6039  0.1839
  711MOL0     C93758  -1.467   9.987   9.189  0.6099 -0.4040  0.0316
  711MOL0     C93759  -1.618   9.973   9.164 -0.4267 -0.0351 -0.2741
  711MOL0     C93760  -1.707  10.038   9.264 -0.0060  0.0648  0.5399
  711MOL0     C93761  -1.853   9.999   9.240 -0.2446 -0.4891  0.1630
  711MOL0     C93762  -1.944  10.048   9.350  0.1686 -0.6242  0.8584
  711MOL0     C93763  -2.074   9.978   9.341 -0.0715 -0.3162  0.4201
  711MOL0    Cl93764  -2.159   9.990   9.187  0.0642  0.1359  0.8376
  711MOL0     C93765  -1.048  10.112   9.449 -0.0352 -0.4497  0.1546
  711MOL0     C93766  -0.910  10.101   9.488 -0.2590  0.6127  0.3793
  711MOL0     O93767  -0.627  10.287   9.401  0.6252  0.6584 -0.3534
  711MOL0     C93768  -0.426  10.009   9.496  0.7170 -0.6426  0.0168
  711MOL0     C93769  -0.301   9.977   9.542  0.8324  0.6566  0.2566
  711MOL0     N93770   0.442   9.793   9.484  0.3709 -0.6167 -0.5666
  711MOL0     N93771   0.526   9.768   9.390 -1.4049  0.0370  0.3289
  711MOL0     C93772   0.937  10.538   8.259 -0.6403 -0.0858  0.1467
  711MOL0     C93773   0.957  10.667   8.204  0.0203  0.3192 -0.2981
  711MOL0     C93774   1.228  11.027   8.030  0.0942  0.1480 -0.0359
  711MOL0     C93775   1.359  11.070   7.987  1.1144 -0.0734  0.2499
  711MOL0     C93776   1.364  11.193   7.915 -0.7057 -0.1951 -0.2762
  711MOL0     C93777   1.249  11.267   7.887 -0.0099 -0.1952  0.6062
  711MOL0     O93778   1.264  11.384   7.818  0.3045 -0.2201 -0.3476
  711MOL0     C93779   1.388  11.424   7.750  0.9261  0.7135  0.2912
  711MOL0     C93780   1.349  11.504   7.621  0.0732 -0.4404 -0.3457
  711MOL0     C93781   1.323  11.650   7.652  0.1754  0.7242  0.0402
  711MOL0     C93782   1.314  11.730   7.520  0.4558 -0.2755  0.0229
  711MOL0     C93783   1.224  11.679   7.421  0.0756  0.6633  0.3395
  711MOL0     C93784   1.157  11.644   7.335  0.8654  0.7274  0.2412
  711MOL0     C93785   1.123  11.225   7.927  0.0604 -0.7666 -0.8994
  711MOL0     C93786   1.118  11.107   7.999  0.7823 -0.3163  0.9291
  711MOL0     H93787   1.274  10.723   8.311  0.5621  0.9760 -0.3182
  711MOL0     H93788   1.222  10.498   8.414 -0.7793 -1.0695 -0.1789
  711MOL0     H93789   0.805  10.415   8.476 -0.6684  0.1389  0.5686
  711MOL0     H93790   0.921  10.484   8.582  0.9923  0.1002 -0.2917
  711MOL0     H93791   1.015  10.230   8.622  0.0405 -0.8608 -2.7538
  711MOL0     H93792   0.859  10.183   8.547 -0.6765 -2.1163  1.8355
  711MOL0     H93793   0.732  10.322   8.729 -1.3384 -3.3333 -0.3203
  711MOL0     H93794   0.881  10.364   8.795 -1.1036  0.6513 -0.4369
  711MOL0     H93795   0.825  10.066   8.774 -0.5774 -0.4025  1.1050
  711MOL0     H93796   0.933  10.148   8.890 -0.9195 -1.0547  2.0826
  711MOL0     H93797   0.631  10.154   8.882  0.8086  2.6286 -1.4412
  711MOL0     H93798   0.729  10.243   8.995  2.6607 -0.6684  0.3120
  711MOL0     H93799   0.834  10.066   9.097 -1.0223  0.2656  0.4663
  711MOL0     H93800   0.772   9.954   8.981  1.4322  0.2626 -1.1971
  711MOL0     H93801   0.624  10.122   9.198 -0.1934 -0.7424  1.6983
  711MOL0     H93802   0.535  10.001   9.101  0.6586 -0.4032 -1.0510
  711MOL0     H93803   0.769   9.942   9.282  1.6091  0.3341 -1.6173
  711MOL0     H93804   0.696   9.808   9.200 -1.6980 -0.8247  1.1031
  711MOL0     H93805   0.569  10.091   9.410 -0.5714 -0.2965 -1.7506
  711MOL0     H93806   0.413  10.094   9.642  2.4444 -1.6925  0.7199
  711MOL0     H93807   0.378   9.945   9.716  1.4633  3.5196  2.0715
  711MOL0     H93808   0.190   9.912   9.553  2.9297 -1.2592  2.6019
  711MOL0     H93809   0.227  10.077   9.491 -0.5556 -0.3528 -0.3495
  711MOL0     H93810   0.121   9.996   9.760  0.9041  0.4927 -0.9378
  711MOL0     H93811   0.205  10.147   9.763 -3.5089  2.8028  0.5291
  711MOL0     H93812   0.039  10.209   9.546  2.8645  2.3416  2.6793
  711MOL0     H93813  -0.020  10.210   9.717 -0.0070 -1.3870  1.9288
  711MOL0     H93814  -0.173  10.287   9.571 -1.2028  1.0924  1.1524
  711MOL0     H93815  -0.399  10.351   9.508 -4.6285 -0.2721 -1.2911
  711MOL0     H93816  -0.767  10.128   9.173  1.2594 -1.6096  1.0994
  711MOL0     H93817  -1.001  10.181   9.112  1.6797  2.7473  0.1486
  711MOL0     H93818  -1.221  10.029   9.110 -1.5277  0.3523 -1.6414
  711MOL0     H93819  -1.209  10.206   9.091  1.3154  1.0398  1.9564
  711MOL0     H93820  -1.420  10.117   9.030 -0.1276 -2.9456  0.0672
  711MOL0     H93821  -1.446  10.200   9.193 -2.1741 -2.0991  1.1845
  711MOL0     H93822  -1.461   9.988   9.298 -3.1558 -0.7234  0.3874
  711MOL0     H93823  -1.409   9.907   9.142  0.2436 -1.6496  1.6416
  711MOL0     H93824  -1.645  10.008   9.063 -2.4216  0.4311  0.3843
  711MOL0     H93825  -1.636   9.865   9.164  2.4834 -0.6068 -0.7388
  711MOL0     H93826  -1.705  10.146   9.251 -2.8272 -0.0433 -2.0148
  711MOL0     H93827  -1.683  10.009   9.367  0.4758 -2.9117 -0.3087
  711MOL0     H93828  -1.848   9.890   9.235 -1.1480 -0.5017 -4.2504
  711MOL0     H93829  -1.868  10.041   9.140  3.7410  0.9826 -0.0037
  711MOL0     H93830  -1.901  10.039   9.450 -1.8423 -0.7816  1.7363
  711MOL0     H93831  -1.960  10.151   9.317  0.5314 -1.7709 -3.4541
  711MOL0     H93832  -2.143  10.016   9.416 -0.6815 -0.8842  0.1597
  711MOL0     H93833  -2.057   9.872   9.364 -0.9716 -1.0993 -2.1564
  711MOL0     H93834  -1.128  10.098   9.520  0.9909 -2.3574  1.0171
  711MOL0     H93835  -0.882  10.096   9.592 -0.3983 -1.5078  0.3602
  711MOL0     H93836  -0.506   9.936   9.487 -1.2491  1.4209 -0.4282
  711MOL0     H93837  -0.271   9.874   9.558 -2.2604 -0.7340 -1.9757
  711MOL0     H93838   0.844  10.488   8.234 -2.1941  2.5419  0.2386
  711MOL0     H93839   0.877  10.710   8.144  0.0825  1.1463  0.2004
  711MOL0     H93840   1.446  11.010   8.008  2.5257  2.2155  1.2941
  711MOL0     H93841   1.466  11.214   7.883 -0.3318 -0.3455  0.7633
  711MOL0     H93842   1.437  11.332   7.716  0.9576  1.2716 -1.2057
  711MOL0     H93843   1.456  11.483   7.814  4.4371 -0.5462 -1.9627
  711MOL0     H93844   1.430  11.504   7.547  2.8458  0.1300  2.4993
  711MOL0     H93845   1.258  11.461   7.578  1.4071 -1.9324 -1.8012
  711MOL0     H93846   1.406  11.703   7.698 -0.1824 -0.2604  1.9107
  711MOL0     H93847   1.230  11.662   7.708  0.0827  1.5007 -0.2730
  711MOL0     H93848   1.287  11.833   7.542  0.2341 -0.1048 -1.0122
  711MOL0     H93849   1.415  11.744   7.480 -0.1490 -0.0809 -1.5091
  711MOL0     H93850   1.109  11.595   7.253  0.3517 -0.1119  1.0262
  711MOL0     H93851   1.044  11.289   7.890  0.6671  0.0769 -0.7805
  711MOL0     H93852   1.020  11.062   8.013  2.3614 -5.1664 -1.3694
  712MOL0     O93853   2.943   8.684   5.703  0.0155  0.5898  0.4432
  712MOL0     C93854   2.924   8.745   5.602 -0.4129 -0.9258 -0.6417
  712MOL0     O93855   3.007   8.838   5.542 -0.1680  0.9633 -0.1075
  712MOL0     C93856   3.128   8.871   5.589  0.3418  0.6311  0.1178
  712MOL0     C93857   3.227   8.890   5.494 -0.1889 -0.0053  0.1006
  712MOL0     C93858   3.356   8.934   5.524 -0.3833 -0.8027 -0.5156
  712MOL0     C93859   3.392   8.963   5.660 -0.7236  0.6704 -0.1102
  712MOL0     O93860   3.508   9.012   5.712 -0.1459  0.1669 -0.3070
  712MOL0     C93861   3.582   9.114   5.633 -0.7303 -0.4822 -0.1315
  712MOL0     C93862   3.721   9.140   5.693 -0.0205 -0.1259  0.0923
  712MOL0     C93863   3.816   9.031   5.677 -0.1119  0.5363  0.1093
  712MOL0     C93864   3.870   8.994   5.534  0.2830 -0.7948 -0.7540
  712MOL0     C93865   3.980   8.896   5.522  0.0600  0.2913  0.7226
  712MOL0     C93866   3.985   8.794   5.627  0.8851  0.1844  1.1253
  712MOL0     C93867   4.055   8.670   5.587 -0.9918  0.1155 -0.4248
  712MOL0     C93868   4.204   8.683   5.565 -0.2047  0.0142 -0.1785
  712MOL0     N93869   4.240   8.753   5.442 -0.4814 -0.1701 -0.6211
  712MOL0     C93870   4.313   8.866   5.443  0.2472  0.3242 -1.0256
  712MOL0     C93871   4.339   8.894   5.313  0.0168  0.3173  0.5367
  712MOL0     C93872   4.408   9.011   5.247  0.0977  0.1709  0.0582
  712MOL0     C93873   4.383   9.151   5.306  0.7711 -0.1721  0.5812
  712MOL0     C93874   4.444   9.271   5.237  0.3406  0.5018  0.6140
  712MOL0     C93875   4.375   9.413   5.258 -0.6869  0.0386  0.3060
  712MOL0     O93876   4.290   9.428   5.369  0.0578  0.1086  1.1585
  712MOL0     C93877   4.152   9.408   5.360 -0.0011  0.2030  0.5532
  712MOL0     C93878   4.083   9.362   5.249 -0.7027  0.3672  0.1134
  712MOL0     C93879   3.944   9.354   5.245 -0.8959  0.7423  0.0927
  712MOL0     C93880   3.879   9.358   5.370  0.0562  0.9799 -0.2194
  712MOL0     C93881   3.736   9.322   5.392  0.3713 -0.2909  0.4681
  712MOL0     O93882   3.693   9.222   5.308  0.3309  0.9655 -0.5624
  712MOL0     C93883   3.558   9.188   5.284 -0.2205 -0.9112 -0.8295
  712MOL0     C93884   3.445   9.255   5.339  0.9457 -0.1803  0.3783
  712MOL0     C93885   3.325   9.217   5.293 -0.8693  0.1455  0.0304
  712MOL0     C93886   3.301   9.103   5.218 -0.0345 -0.4504  0.4916
  712MOL0     O93887   3.178   9.054   5.173 -0.1132 -0.4198 -0.2161
  712MOL0     C93888   3.066   9.099   5.261 -1.0806  0.1422 -0.3527
  712MOL0     C93889   2.932   9.044   5.206  0.1613 -0.3776 -0.3135
  712MOL0     C93890   2.830   9.063   5.322 -0.5299  0.2670  0.3126
  712MOL0     C93891   2.688   9.070   5.259 -1.5542  0.6130 -0.0927
  712MOL0     C93892   2.581   9.077   5.374 -0.4343 -0.6637 -0.4070
  712MOL0     C93893   2.451   9.020   5.323  0.3348  0.9981  0.0134
  712MOL0     C93894   2.382   9.099   5.215 -0.9978 -0.4217  0.0370
  712MOL0     C93895   2.273   9.040   5.134 -0.8495  0.3754  0.1326
  712MOL0    Cl93896   2.131   9.007   5.246  0.1072  0.0273 -0.4199
  712MOL0     C93897   3.405   9.029   5.175 -0.1343 -0.9808 -0.7878
  712MOL0     C93898   3.541   9.073   5.211  0.8172 -0.5184  0.3852
  712MOL0     O93899   3.671   9.402   5.464  0.4158 -0.2884  0.2516
  712MOL0     C93900   3.946   9.409   5.478  0.2710  0.6162 -0.1852
  712MOL0     C93901   4.082   9.440   5.472 -0.0714  0.9562 -0.4051
  712MOL0     N93902   4.294   8.786   5.241 -0.1612 -0.3759 -0.2699
  712MOL0     N93903   4.241   8.696   5.317 -0.2341 -0.4811 -0.7553
  712MOL0     C93904   3.294   8.933   5.754 -0.3192 -0.0907 -0.4463
  712MOL0     C93905   3.164   8.895   5.718  0.3696 -0.8213 -1.3003
  712MOL0     C93906   2.796   8.724   5.526 -0.3601 -0.0054 -0.2942
  712MOL0     C93907   2.671   8.716   5.596  0.3101  0.0404  0.6085
  712MOL0     C93908   2.556   8.688   5.519  0.2426 -0.4620  0.4437
  712MOL0     C93909   2.558   8.681   5.378 -0.1951  1.7226 -0.3585
  712MOL0     O93910   2.456   8.627   5.305  0.2518 -0.4397 -0.1408
  712MOL0     C93911   2.320   8.643   5.353  0.3639 -0.1784  0.1406
  712MOL0     C93912   2.241   8.596   5.231  0.5701  0.6993  0.2810
  712MOL0     C93913   2.090   8.636   5.246 -0.3445 -0.6068 -0.3306
  712MOL0     C93914   2.005   8.565   5.348  0.8682  0.2921  0.4107
  712MOL0     C93915   1.870   8.623   5.354 -1.3615  0.2315 -0.3548
  712MOL0     C93916   1.763   8.668   5.374 -0.0698 -0.0323 -0.7628
  712MOL0     C93917   2.673   8.701   5.315  0.4018  0.0515  0.1235
  712MOL0     C93918   2.788   8.714   5.385 -0.1109  0.1998 -0.7782
  712MOL0     H93919   3.198   8.876   5.390 -0.7422 -0.1468  0.2722
  712MOL0     H93920   3.415   8.957   5.436 -2.7353  0.4023 -1.8683
  712MOL0     H93921   3.523   9.204   5.619 -2.7823 -2.0377 -2.2875
  712MOL0     H93922   3.594   9.084   5.528  2.0454  0.2474 -0.0981
  712MOL0     H93923   3.715   9.155   5.801  2.7369 -4.1047  1.0245
  712MOL0     H93924   3.770   9.222   5.639 -0.7966  1.7823  2.1165
  712MOL0     H93925   3.761   8.944   5.715 -0.5016  1.2928  1.3417
  712MOL0     H93926   3.904   9.041   5.741  2.0603 -1.1454 -2.3720
  712MOL0     H93927   3.785   8.959   5.476 -0.4811  1.0693 -0.8370
  712MOL0     H93928   3.902   9.093   5.499  1.0426  0.7360  3.5657
  712MOL0     H93929   4.064   8.965   5.511  0.0154  0.6545  2.4588
  712MOL0     H93930   3.966   8.843   5.427  0.7332  0.6610  0.4116
  712MOL0     H93931   3.881   8.763   5.643  1.2790  0.2002  4.1348
  712MOL0     H93932   4.028   8.834   5.719 -2.3227  1.9382  2.0241
  712MOL0     H93933   4.038   8.595   5.664 -1.8344  0.2107 -0.5022
  712MOL0     H93934   4.012   8.633   5.494 -1.7054  0.8769 -0.4150
  712MOL0     H93935   4.257   8.587   5.570 -1.2462 -0.7203 -2.1274
  712MOL0     H93936   4.233   8.741   5.653 -1.1599  1.6332 -0.8917
  712MOL0     H93937   4.354   8.925   5.524  0.4517 -0.2556 -0.6976
  712MOL0     H93938   4.369   8.998   5.146 -1.2379 -2.4766  0.8288
  712MOL0     H93939   4.515   8.989   5.241  0.1487  0.6314 -0.9171
  712MOL0     H93940   4.416   9.140   5.410  1.0554 -4.3367  0.1912
  712MOL0     H93941   4.273   9.156   5.305  0.5578  4.5010 -4.9812
  712MOL0     H93942   4.545   9.269   5.280  0.9854  0.9583 -0.7992
  712MOL0     H93943   4.449   9.250   5.130  1.9702  0.5391  0.6454
  712MOL0     H93944   4.319   9.422   5.165  1.1521 -1.3157 -1.0144
  712MOL0     H93945   4.454   9.488   5.270 -0.5978  0.5555 -2.7341
  712MOL0     H93946   4.127   9.346   5.152 -2.0415 -0.6148 -0.3654
  712MOL0     H93947   3.895   9.318   5.155 -2.5312  4.5859 -0.7629
  712MOL0     H93948   3.450   9.350   5.392 -0.7062 -0.4632  1.1202
  712MOL0     H93949   3.238   9.275   5.321  0.5470  1.6634  1.5573
  712MOL0     H93950   3.054   9.207   5.263 -0.4868  0.2693 -1.9052
  712MOL0     H93951   3.087   9.068   5.363  1.8745 -1.0255 -1.2077
  712MOL0     H93952   2.940   8.937   5.188 -1.1501 -0.1596 -2.4549
  712MOL0     H93953   2.898   9.101   5.119 -0.8990  2.0246  1.5505
  712MOL0     H93954   2.851   9.164   5.361  0.1755  0.0091  0.6206
  712MOL0     H93955   2.842   8.993   5.405  0.0980 -0.8387 -0.6754
  712MOL0     H93956   2.688   9.169   5.212 -3.2464  1.8419  2.2443
  712MOL0     H93957   2.666   8.992   5.187 -0.0933 -1.9876  2.0954
  712MOL0     H93958   2.568   9.174   5.423 -0.9155 -0.4890 -0.8707
  712MOL0     H93959   2.603   9.005   5.454 -1.5764 -0.6647 -0.0706
  712MOL0     H93960   2.373   9.012   5.398 -0.9185  2.2346 -1.1001
  712MOL0     H93961   2.470   8.921   5.281  1.1384  0.7392  0.9678
  712MOL0     H93962   2.346   9.189   5.264  2.2112  0.2106  1.5137
  712MOL0     H93963   2.465   9.143   5.158 -0.0696  1.0387  2.3882
  712MOL0     H93964   2.302   8.947   5.086 -1.5511  1.0617 -1.7006
  712MOL0     H93965   2.245   9.092   5.042 -0.1586  0.4310 -0.0491
  712MOL0     H93966   3.380   8.940   5.119 -1.7475 -1.9249  1.2994
  712MOL0     H93967   3.627   9.013   5.182 -0.0607 -0.5804 -2.3944
  712MOL0     H93968   3.887   9.433   5.566  2.0569 -0.3524  1.3525
  712MOL0     H93969   4.135   9.484   5.556 -0.0378 -1.2871  0.8149
  712MOL0     H93970   3.310   8.950   5.860  1.3406  0.2817 -0.7322
  712MOL0     H93971   3.103   8.875   5.805 -1.5287  1.9957 -1.8287
  712MOL0     H93972   2.665   8.730   5.703  2.5340  0.2952  0.7341
  712MOL0     H93973   2.463   8.676   5.575 -0.1903  1.7986  0.2983
  712MOL0     H93974   2.288   8.746   5.375 -0.3283 -0.5440  0.9248
  712MOL0     H93975   2.299   8.597   5.450 -0.2511 -0.4915 -0.1366
  712MOL0     H93976   2.279   8.645   5.141  0.6081  0.7353  0.3160
  712MOL0     H93977   2.248   8.488   5.219 -2.6878  0.1687  2.1544
  712MOL0     H93978   2.043   8.615   5.149  0.3097  1.0320 -1.0482
  712MOL0     H93979   2.085   8.744   5.267 -2.6769 -1.2016  2.9099
  712MOL0     H93980   2.013   8.457   5.334 -1.2711 -0.1398  2.0777
  712MOL0     H93981   2.059   8.580   5.442  2.6597  0.8828 -0.6446
  712MOL0     H93982   1.679   8.729   5.398 -0.7575 -1.0606 -0.5017
  712MOL0     H93983   2.665   8.711   5.208 -0.2736  1.7643  0.2979
  712MOL0     H93984   2.884   8.725   5.336  0.9969 -0.0111  1.2068
  713MOL0     O93985   0.438   7.146   7.773 -0.1480  0.6411  0.0178
  713MOL0     C93986   0.401   7.090   7.664 -0.5710 -0.1276  0.0118
  713MOL0     O93987   0.487   7.077   7.559  0.0166 -0.1163 -0.5346
  713MOL0     C93988   0.623   7.060   7.583 -0.1319  0.2538  0.2462
  713MOL0     C93989   0.720   7.112   7.493 -0.1247 -0.2951 -1.1606
  713MOL0     C93990   0.856   7.081   7.497 -0.1917 -0.8853 -0.2835
  713MOL0     C93991   0.900   6.993   7.593  0.7490 -0.3393  0.1537
  713MOL0     O93992   1.027   6.943   7.605 -0.0927 -0.4733  0.2566
  713MOL0     C93993   1.133   7.043   7.611  0.0616  0.4781  0.1713
  713MOL0     C93994   1.259   6.957   7.648  0.0023 -0.2964 -0.2915
  713MOL0     C93995   1.347   6.898   7.533 -0.0738 -0.3385 -0.6179
  713MOL0     C93996   1.269   6.841   7.416 -0.0437 -0.5055 -0.6511
  713MOL0     C93997   1.359   6.741   7.332 -0.0122  0.3984 -0.0208
  713MOL0     C93998   1.406   6.617   7.416 -0.0960 -0.5662 -1.1760
  713MOL0     C93999   1.458   6.500   7.325  0.6108 -0.0985  0.5522
  713MOL0     C94000   1.355   6.412   7.248  0.2272 -0.9701 -0.8498
  713MOL0     N94001   1.223   6.386   7.328 -0.2506 -0.0543  0.6480
  713MOL0     C94002   1.101   6.425   7.288  0.0567 -0.2710  0.7628
  713MOL0     C94003   1.019   6.387   7.394  0.1367  0.2065  0.3978
  713MOL0     C94004   0.872   6.383   7.398  0.3201  0.0032 -0.4043
  713MOL0     C94005   0.807   6.312   7.278  0.4918 -0.1293  0.6447
  713MOL0     C94006   0.652   6.351   7.277  0.2233  0.8017 -0.3545
  713MOL0     C94007   0.567   6.269   7.381 -0.6379 -0.9504 -0.1118
  713MOL0     O94008   0.568   6.125   7.385 -0.2519  0.1758 -0.4600
  713MOL0     C94009   0.464   6.053   7.448 -0.6175 -0.1654  0.5730
  713MOL0     C94010   0.358   6.115   7.498  0.1662 -0.9074  0.0969
  713MOL0     C94011   0.257   6.045   7.557  1.0497 -0.4651 -0.0970
  713MOL0     C94012   0.257   5.906   7.576  0.1164  0.3309 -0.4270
  713MOL0     C94013   0.154   5.836   7.657  0.3533  0.1280 -0.6249
  713MOL0     O94014   0.066   5.906   7.740  0.5167 -0.6608 -0.5391
  713MOL0     C94015   0.004   5.853   7.853  0.0713 -0.1002  0.6558
  713MOL0     C94016  -0.124   5.904   7.865  1.0204 -0.2399  0.3479
  713MOL0     C94017  -0.215   5.861   7.958 -0.3787  0.5663  0.9943
  713MOL0     C94018  -0.179   5.757   8.039 -0.8048  0.4009  1.0158
  713MOL0     O94019  -0.271   5.694   8.113 -0.4921  0.3728  0.1522
  713MOL0     C94020  -0.271   5.551   8.107 -0.2297 -0.0706  0.8542
  713MOL0     C94021  -0.400   5.495   8.151  0.5149  1.2484  0.4072
  713MOL0     C94022  -0.525   5.582   8.099 -0.4129 -0.6974 -0.1496
  713MOL0     C94023  -0.662   5.521   8.130  0.4835 -0.6214  0.3782
  713MOL0     C94024  -0.779   5.607   8.067  1.1693  0.7616 -0.2924
  713MOL0     C94025  -0.913   5.524   8.076 -0.2100 -0.3789 -0.9559
  713MOL0     C94026  -1.036   5.615   8.032  0.0786  0.0902 -0.0191
  713MOL0     C94027  -1.170   5.533   8.059  0.6923  0.4257 -0.0432
  713MOL0    Cl94028  -1.186   5.512   8.235 -0.5493 -0.1029 -0.0446
  713MOL0     C94029  -0.046   5.704   8.029  0.2241  0.7347  0.0682
  713MOL0     C94030   0.044   5.750   7.932  0.2955 -0.3780 -0.2017
  713MOL0     O94031   0.175   5.719   7.659  0.5469  0.6477 -0.4320
  713MOL0     C94032   0.368   5.835   7.520  0.2651  0.8141 -0.1738
  713MOL0     C94033   0.465   5.912   7.445 -0.4129 -0.0305  0.6612
  713MOL0     N94034   1.097   6.347   7.496 -0.0750  0.9194  0.7352
  713MOL0     N94035   1.224   6.351   7.460 -0.6495 -0.3844 -0.2442
  713MOL0     C94036   0.805   6.938   7.690  0.0614 -0.3533 -0.5180
  713MOL0     C94037   0.672   6.981   7.686 -0.3645 -0.1044 -0.0426
  713MOL0     C94038   0.265   7.060   7.636  0.0183  0.1252 -0.7168
  713MOL0     C94039   0.220   7.000   7.522  0.7722 -0.1348  0.1372
  713MOL0     C94040   0.082   6.976   7.495  0.5910  0.1196  0.2412
  713MOL0     C94041  -0.009   7.000   7.600  0.1869  0.5135 -0.0864
  713MOL0     O94042  -0.148   6.975   7.609 -0.0519  0.7971  1.1720
  713MOL0     C94043  -0.209   6.907   7.493  0.0806  0.1955  0.5863
  713MOL0     C94044  -0.158   6.759   7.492  0.5766  0.0447 -0.6673
  713MOL0     C94045  -0.258   6.666   7.425  0.7752  0.0171  0.7989
  713MOL0     C94046  -0.177   6.551   7.355 -0.3675 -0.5630 -1.0517
  713MOL0     C94047  -0.237   6.494   7.234 -0.3196 -0.2698  0.3576
  713MOL0     C94048  -0.293   6.438   7.137 -0.2287 -0.4191 -0.5789
  713MOL0     C94049   0.035   7.055   7.713 -0.8863 -0.5856  0.1097
  713MOL0     C94050   0.166   7.093   7.732 -0.2824 -0.1525  0.2114
  713MOL0     H94051   0.690   7.182   7.416 -1.0387 -0.3394 -0.8572
  713MOL0     H94052   0.930   7.108   7.423 -1.2142 -2.3108 -1.8804
  713MOL0     H94053   1.106   7.119   7.684  1.0376 -0.7895  1.9547
  713MOL0     H94054   1.162   7.088   7.516  1.1434 -0.2937  0.1101
  713MOL0     H94055   1.227   6.866   7.700 -1.7740 -0.2476 -1.2069
  713MOL0     H94056   1.312   7.020   7.720 -1.3238 -0.0667  0.5238
  713MOL0     H94057   1.398   6.822   7.593 -0.7949 -0.1927  0.1945
  713MOL0     H94058   1.423   6.968   7.497 -0.6538  0.0253 -1.1577
  713MOL0     H94059   1.186   6.789   7.464  0.3553 -1.9413 -1.4538
  713MOL0     H94060   1.228   6.917   7.349  1.1287  0.4515 -0.3280
  713MOL0     H94061   1.440   6.807   7.301  1.1113 -0.5599  0.7725
  713MOL0     H94062   1.311   6.709   7.239  1.7479 -1.6645 -0.2999
  713MOL0     H94063   1.333   6.573   7.485 -1.2880  2.3970 -0.3658
  713MOL0     H94064   1.496   6.637   7.476 -0.0374 -0.5180 -1.2791
  713MOL0     H94065   1.526   6.534   7.248  0.3947  0.3226  0.5454
  713MOL0     H94066   1.512   6.433   7.393 -0.8949 -1.7300  0.2140
  713MOL0     H94067   1.406   6.320   7.218 -0.0165 -2.2670  2.3442
  713MOL0     H94068   1.330   6.467   7.157 -1.7192  0.4049  0.4475
  713MOL0     H94069   1.066   6.479   7.199 -2.0907 -1.0893  1.0531
  713MOL0     H94070   0.820   6.478   7.415  0.0246 -0.4578  1.4944
  713MOL0     H94071   0.851   6.331   7.492  2.9118 -2.5544 -1.1219
  713MOL0     H94072   0.825   6.205   7.284  0.8553  0.0067  2.6549
  713MOL0     H94073   0.851   6.341   7.182 -0.0757 -0.4530  0.2873
  713MOL0     H94074   0.632   6.458   7.288  1.5771  0.8712  2.4102
  713MOL0     H94075   0.616   6.302   7.186  0.2234 -3.0764  1.5274
  713MOL0     H94076   0.471   6.313   7.354  0.3215  0.4328 -1.4449
  713MOL0     H94077   0.601   6.297   7.481 -0.8187  0.2237 -0.3635
  713MOL0     H94078   0.349   6.222   7.509 -0.1065 -0.6314 -2.3074
  713MOL0     H94079   0.172   6.097   7.601  1.2179  0.3896 -0.7641
  713MOL0     H94080  -0.159   5.975   7.791  1.3744 -0.6356 -0.2106
  713MOL0     H94081  -0.317   5.898   7.951  0.0302  1.5160 -4.5866
  713MOL0     H94082  -0.188   5.503   8.158 -0.1605  1.2058  2.0046
  713MOL0     H94083  -0.245   5.525   8.004  1.0380 -1.0348  1.4021
  713MOL0     H94084  -0.403   5.496   8.261 -1.2385  1.7206  0.3766
  713MOL0     H94085  -0.410   5.390   8.123  0.0692  1.0411  1.2969
  713MOL0     H94086  -0.511   5.596   7.991 -0.1724 -3.7987 -0.6137
  713MOL0     H94087  -0.522   5.677   8.153 -2.1591 -1.6264  1.7351
  713MOL0     H94088  -0.671   5.419   8.091 -1.4191 -0.5477  0.5513
  713MOL0     H94089  -0.695   5.516   8.234 -2.4256  1.2369 -0.3501
  713MOL0     H94090  -0.769   5.607   7.958  2.4077 -0.6718 -0.2198
  713MOL0     H94091  -0.789   5.708   8.107 -2.8639 -0.5395  2.6218
  713MOL0     H94092  -0.917   5.484   8.178  2.9701 -1.6944 -1.2279
  713MOL0     H94093  -0.909   5.437   8.009  0.2762 -0.7794 -0.4110
  713MOL0     H94094  -1.042   5.702   8.099 -0.0234 -0.9617  1.3951
  713MOL0     H94095  -1.015   5.642   7.929  0.1325  0.0977 -0.0066
  713MOL0     H94096  -1.170   5.440   8.002  0.3497  0.3460  0.0903
  713MOL0     H94097  -1.245   5.601   8.018  0.7159  1.7970  2.0239
  713MOL0     H94098  -0.017   5.614   8.083  1.4811 -0.1341 -1.9389
  713MOL0     H94099   0.140   5.703   7.916 -0.9888 -2.7664 -1.5041
  713MOL0     H94100   0.382   5.728   7.524  0.0849  0.7461 -1.1296
  713MOL0     H94101   0.549   5.877   7.386 -0.6427  0.6003 -0.0527
  713MOL0     H94102   0.845   6.867   7.762 -0.1681  0.8549  0.8483
  713MOL0     H94103   0.607   6.929   7.755 -0.3548  0.9242  0.7619
  713MOL0     H94104   0.281   6.962   7.441 -1.8230 -1.4356 -1.3239
  713MOL0     H94105   0.053   6.933   7.400  0.3681 -0.1040  0.4089
  713MOL0     H94106  -0.173   6.960   7.405 -1.4451  1.3298  0.6069
  713MOL0     H94107  -0.318   6.908   7.495  0.0137 -1.3027 -0.7997
  713MOL0     H94108  -0.061   6.746   7.445 -0.1104 -0.6214 -1.9485
  713MOL0     H94109  -0.154   6.725   7.596 -2.3639  0.9053 -0.1711
  713MOL0     H94110  -0.323   6.721   7.356 -0.3273 -4.2283 -1.9552
  713MOL0     H94111  -0.325   6.620   7.498 -3.0636 -0.0134 -2.3643
  713MOL0     H94112  -0.087   6.596   7.310  0.8219 -3.2038 -1.5196
  713MOL0     H94113  -0.152   6.479   7.434 -1.7082 -0.8252 -0.8426
  713MOL0     H94114  -0.335   6.390   7.051  0.4639 -0.0407 -1.1458
  713MOL0     H94115  -0.043   7.064   7.788  0.3406 -0.1471  1.3713
  713MOL0     H94116   0.188   7.136   7.829  0.1355  0.3857 -0.1227
  714MOL0     O94117  10.280   2.861   2.874  0.3701  0.0067  0.3333
  714MOL0     C94118  10.356   2.949   2.827 -0.6935  0.5535  0.7273
  714MOL0     O94119  10.329   3.037   2.733  0.8348  0.1171  0.0696
  714MOL0     C94120  10.209   3.010   2.669  0.7178 -0.9962 -0.3768
  714MOL0     C94121  10.171   2.893   2.599  0.1733  0.5236 -1.0452
  714MOL0     C94122  10.044   2.894   2.536  0.9534  0.4996 -0.7775
  714MOL0     C94123   9.966   3.000   2.522  0.4517 -0.7478 -0.8190
  714MOL0     O94124   9.859   2.975   2.440 -1.0128 -0.5023  0.0765
  714MOL0     C94125   9.742   3.065   2.451 -0.5792  0.0597  0.3515
  714MOL0     C94126   9.632   3.032   2.344  0.7015  0.4397 -0.2665
  714MOL0     C94127   9.517   3.137   2.353  0.1670  0.1300 -0.2639
  714MOL0     C94128   9.394   3.065   2.283  0.3763  0.5635 -0.3362
  714MOL0     C94129   9.269   3.148   2.311  0.1076 -0.5349 -0.1562
  714MOL0     C94130   9.145   3.103   2.240 -0.0725  0.1459  0.2574
  714MOL0     C94131   9.020   3.176   2.284  0.0013  0.0508  0.3847
  714MOL0     C94132   8.985   3.280   2.179 -0.3043  0.1923 -0.2498
  714MOL0     N94133   8.845   3.344   2.194  0.0521 -0.0531  0.0188
  714MOL0     C94134   8.807   3.438   2.289 -0.9766 -0.0565  0.6865
  714MOL0     C94135   8.673   3.449   2.297 -0.6925 -0.0808 -0.5894
  714MOL0     C94136   8.602   3.527   2.407 -0.6995 -0.2895 -0.7424
  714MOL0     C94137   8.462   3.570   2.362 -1.0398  0.4509  0.4062
  714MOL0     C94138   8.451   3.716   2.324  1.0032 -1.5224  0.4982
  714MOL0     C94139   8.307   3.772   2.317 -0.1099 -1.3298  0.5561
  714MOL0     O94140   8.248   3.791   2.443 -0.4405 -0.3808 -0.1084
  714MOL0     C94141   8.111   3.812   2.439  0.0189  0.4181 -0.5700
  714MOL0     C94142   8.052   3.830   2.564  0.7521  0.2698  0.1636
  714MOL0     C94143   7.914   3.866   2.574 -0.1582 -0.4548  0.1537
  714MOL0     C94144   7.835   3.869   2.452  0.4885  0.2779 -1.5079
  714MOL0     C94145   7.688   3.882   2.452  0.2235  0.0835 -0.1429
  714MOL0     O94146   7.620   3.843   2.338  0.1070 -0.5216 -0.0398
  714MOL0     C94147   7.480   3.848   2.326  0.1902  0.6374 -0.3673
  714MOL0     C94148   7.382   3.858   2.430 -0.1237 -0.4407  1.0299
  714MOL0     C94149   7.248   3.862   2.389 -0.8158  0.1982  0.0495
  714MOL0     C94150   7.211   3.851   2.255 -0.1417  0.1047 -0.4184
  714MOL0     O94151   7.086   3.848   2.207 -0.3176 -0.3414  0.2937
  714MOL0     C94152   6.969   3.857   2.300  0.0786 -0.1342  0.0771
  714MOL0     C94153   6.845   3.876   2.216  0.7095 -0.2187  0.8977
  714MOL0     C94154   6.812   3.750   2.124  0.1037 -0.2406  0.0311
  714MOL0     C94155   6.670   3.764   2.068 -0.4501  0.0287  0.5360
  714MOL0     C94156   6.623   3.641   1.994 -0.1643 -0.2278 -0.4081
  714MOL0     C94157   6.707   3.589   1.874 -0.1496  0.8488  0.5958
  714MOL0     C94158   6.698   3.682   1.748  0.2684 -0.3989  0.9704
  714MOL0     C94159   6.788   3.635   1.632 -0.2251 -0.6368 -0.2162
  714MOL0    Cl94160   6.809   3.759   1.506  0.2239 -0.0982  0.1576
  714MOL0     C94161   7.310   3.833   2.161 -0.6394 -0.1586  1.0775
  714MOL0     C94162   7.446   3.840   2.189 -0.5593 -0.0398  0.3226
  714MOL0     O94163   7.641   3.949   2.548  0.5457 -0.4657  0.2818
  714MOL0     C94164   7.898   3.858   2.333 -0.1689  0.5079 -1.0550
  714MOL0     C94165   8.031   3.837   2.323 -0.3541 -0.5786 -0.0754
  714MOL0     N94166   8.623   3.369   2.194  0.1854  0.8743  0.4680
  714MOL0     N94167   8.723   3.302   2.140 -0.8336  0.4541  0.5345
  714MOL0     C94168  10.001   3.115   2.590 -0.6343 -0.3878 -0.4108
  714MOL0     C94169  10.119   3.115   2.667 -0.5490 -0.0160 -0.1998
  714MOL0     C94170  10.497   2.948   2.875  0.2971  0.6102  0.1981
  714MOL0     C94171  10.536   2.884   2.994  0.7332 -0.0395 -0.1674
  714MOL0     C94172  10.668   2.898   3.037  0.7075 -0.3346 -0.6011
  714MOL0     C94173  10.763   2.970   2.973  0.6577 -0.7277  0.0231
  714MOL0     O94174  10.879   2.987   3.045  0.8040  0.0218  0.3930
  714MOL0     C94175  10.983   3.085   2.996  1.3531 -0.4511 -0.5933
  714MOL0     C94176  10.957   3.225   3.073  0.6024 -0.6515 -0.2488
  714MOL0     C94177  11.056   3.258   3.187  0.0100  0.9207  0.1284
  714MOL0     C94178  11.206   3.237   3.159  0.0187 -0.2420 -0.0335
  714MOL0     C94179  11.243   3.270   3.023 -0.2759  0.3909  0.6278
  714MOL0     C94180  11.294   3.310   2.919 -0.5600 -0.9353  0.0598
  714MOL0     C94181  10.725   3.029   2.848 -0.0666  1.0286  0.6141
  714MOL0     C94182  10.592   3.020   2.802 -0.4229  0.3353 -0.4954
  714MOL0     H94183  10.223   2.798   2.604 -2.9318 -1.3074 -1.2447
  714MOL0     H94184  10.026   2.805   2.477 -0.6712  0.7125 -0.6473
  714MOL0     H94185   9.775   3.168   2.438 -0.3895  0.6160  3.9869
  714MOL0     H94186   9.705   3.061   2.554  1.7680 -1.0629  1.2021
  714MOL0     H94187   9.598   2.928   2.354 -1.5283  0.9365 -1.9220
  714MOL0     H94188   9.685   3.023   2.249  0.3826  3.8248 -0.8644
  714MOL0     H94189   9.543   3.222   2.290  0.8518 -0.3234 -0.5981
  714MOL0     H94190   9.509   3.169   2.457  0.1187  1.4755 -0.6675
  714MOL0     H94191   9.411   3.057   2.175  1.8313  3.9905 -0.5063
  714MOL0     H94192   9.379   2.963   2.319  0.9692  0.3422 -0.6975
  714MOL0     H94193   9.297   3.252   2.290 -0.2395  0.0827  2.1240
  714MOL0     H94194   9.235   3.155   2.415  1.0101 -0.8112  0.1714
  714MOL0     H94195   9.137   2.995   2.255 -0.5374  0.2766  1.0162
  714MOL0     H94196   9.150   3.113   2.131 -1.3212  0.3324  0.2036
  714MOL0     H94197   8.934   3.108   2.289 -1.4003  1.8324  3.0585
  714MOL0     H94198   9.034   3.206   2.388  1.7717 -1.6764  0.6902
  714MOL0     H94199   8.982   3.230   2.082 -1.8051  1.2953 -0.8080
  714MOL0     H94200   9.056   3.364   2.177  1.9397 -1.4910  2.3233
  714MOL0     H94201   8.873   3.493   2.356  0.3576 -0.3926 -0.3150
  714MOL0     H94202   8.665   3.606   2.450  0.9781 -1.4101 -1.0684
  714MOL0     H94203   8.599   3.456   2.490  2.0041 -0.8268 -1.0207
  714MOL0     H94204   8.410   3.545   2.455 -0.7497 -2.1246 -0.0545
  714MOL0     H94205   8.420   3.506   2.284  1.4493 -2.2851  1.1628
  714MOL0     H94206   8.507   3.782   2.391 -0.8999 -0.0719  0.7464
  714MOL0     H94207   8.504   3.745   2.233  0.2524  3.9154  1.4620
  714MOL0     H94208   8.249   3.697   2.262 -0.5487 -0.3931 -0.3066
  714MOL0     H94209   8.316   3.869   2.266 -1.8542 -0.1506  2.3541
  714MOL0     H94210   8.110   3.828   2.656  2.3298  2.1128 -0.7313
  714MOL0     H94211   7.871   3.883   2.672  0.2814  3.5801 -0.2089
  714MOL0     H94212   7.403   3.884   2.533  0.5127  0.3324  0.7165
  714MOL0     H94213   7.178   3.873   2.471  3.1155 -0.8101  3.9951
  714MOL0     H94214   6.984   3.937   2.374  1.0999 -1.4316  1.3354
  714MOL0     H94215   6.953   3.763   2.353  0.7525  0.0694  0.6619
  714MOL0     H94216   6.860   3.969   2.161  1.2390 -1.0179 -0.3443
  714MOL0     H94217   6.757   3.890   2.279  0.7813  0.4854  0.8527
  714MOL0     H94218   6.826   3.653   2.173  1.6253  0.7617  1.7301
  714MOL0     H94219   6.881   3.740   2.040 -0.1885 -1.9029 -0.0424
  714MOL0     H94220   6.596   3.790   2.144  1.5456  2.0751  1.9122
  714MOL0     H94221   6.668   3.849   1.999  0.6143  0.1763  0.6780
  714MOL0     H94222   6.527   3.664   1.947  1.1743  0.2025 -3.1147
  714MOL0     H94223   6.617   3.560   2.067  2.5398  1.1186  1.4761
  714MOL0     H94224   6.676   3.487   1.850  3.0896  0.5549 -3.2761
  714MOL0     H94225   6.810   3.581   1.908 -0.1558 -4.1390  0.1942
  714MOL0     H94226   6.596   3.685   1.706  0.6820  1.5050  0.0196
  714MOL0     H94227   6.716   3.780   1.791  0.5429 -0.3706  0.7920
  714MOL0     H94228   6.738   3.544   1.596 -1.5549 -2.4840  5.2913
  714MOL0     H94229   6.885   3.600   1.668 -0.1792 -2.7633 -2.2062
  714MOL0     H94230   7.280   3.824   2.057  3.2570  0.4958 -0.2686
  714MOL0     H94231   7.519   3.828   2.110 -0.1451 -1.7330  0.9251
  714MOL0     H94232   7.846   3.871   2.239 -0.2736  1.3521 -0.8948
  714MOL0     H94233   8.078   3.834   2.226 -0.1169 -1.4390  0.0551
  714MOL0     H94234   9.944   3.206   2.575 -2.1799 -1.5388 -1.9702
  714MOL0     H94235  10.151   3.205   2.719 -1.5921  0.1392  0.1943
  714MOL0     H94236  10.456   2.851   3.059 -0.0128  0.4984 -0.7749
  714MOL0     H94237  10.695   2.852   3.131 -0.0589  2.6068  1.1797
  714MOL0     H94238  10.977   3.098   2.888  0.6342 -0.0827 -0.5150
  714MOL0     H94239  11.083   3.048   3.019  1.3810 -0.2201 -0.3334
  714MOL0     H94240  10.968   3.309   3.004 -0.9000  0.7993  1.1800
  714MOL0     H94241  10.855   3.231   3.114  0.4730  2.4459 -0.7688
  714MOL0     H94242  11.028   3.188   3.266 -0.4323  2.1806  1.1232
  714MOL0     H94243  11.048   3.360   3.226 -1.3308  0.1873  1.8960
  714MOL0     H94244  11.253   3.316   3.218  1.0024 -1.9836  1.6298
  714MOL0     H94245  11.232   3.134   3.184 -1.8876 -0.9442 -0.7530
  714MOL0     H94246  11.329   3.350   2.826  1.9103  1.1048  1.7465
  714MOL0     H94247  10.782   3.085   2.775 -1.4514 -0.9251 -2.1672
  714MOL0     H94248  10.564   3.076   2.713 -2.4071 -0.1146 -0.2100
  715MOL0     O94249   1.383   6.938   3.522 -0.4402 -0.0744 -0.1035
  715MOL0     C94250   1.393   7.000   3.419  0.3586 -0.8133  0.4930
  715MOL0     O94251   1.296   7.003   3.322 -0.4536 -0.1277 -0.0604
  715MOL0     C94252   1.176   6.932   3.337 -0.9549  0.4025  0.6091
  715MOL0     C94253   1.126   6.886   3.207  0.3778  1.1188 -0.6035
  715MOL0     C94254   0.994   6.832   3.197  0.6589 -0.2919  0.2841
  715MOL0     C94255   0.912   6.828   3.313  0.5337 -0.1727  0.5494
  715MOL0     O94256   0.780   6.783   3.287 -0.3467  0.1572  0.0610
  715MOL0     C94257   0.690   6.753   3.397 -0.6595 -0.2678  0.2155
  715MOL0     C94258   0.552   6.705   3.339  0.0355 -0.7523 -0.2823
  715MOL0     C94259   0.448   6.708   3.446  0.0818 -0.3775  0.1329
  715MOL0     C94260   0.309   6.674   3.378  0.1558  0.2262  0.4211
  715MOL0     C94261   0.188   6.723   3.463  0.0532 -0.8152 -0.5561
  715MOL0     C94262   0.061   6.677   3.397  0.5863 -0.4145 -0.1230
  715MOL0     C94263  -0.059   6.724   3.478 -0.0393  0.3957  0.4213
  715MOL0     C94264  -0.178   6.647   3.433 -0.4155  0.2181 -0.3216
  715MOL0     N94265  -0.288   6.689   3.524 -0.5442 -0.2263 -0.3553
  715MOL0     C94266  -0.348   6.619   3.625 -0.0208 -0.2059 -0.3323
  715MOL0     C94267  -0.452   6.701   3.661 -0.9965 -0.4287 -0.0192
  715MOL0     C94268  -0.539   6.686   3.783  0.3561 -0.0802  0.1195
  715MOL0     C94269  -0.607   6.557   3.787  0.1991 -0.5161  0.6675
  715MOL0     C94270  -0.719   6.560   3.677 -0.4996 -0.4054  0.1745
  715MOL0     C94271  -0.829   6.472   3.737  0.6630  0.1148 -0.2664
  715MOL0     O94272  -0.907   6.552   3.830  0.3964 -0.2208  0.4991
  715MOL0     C94273  -1.035   6.498   3.854 -0.2366 -0.2245 -0.3538
  715MOL0     C94274  -1.152   6.547   3.790  0.8904 -0.5425 -0.4231
  715MOL0     C94275  -1.277   6.491   3.804  0.1982  0.4493 -0.9353
  715MOL0     C94276  -1.286   6.379   3.890 -0.3665  0.4415  0.1868
  715MOL0     C94277  -1.421   6.314   3.911  0.3560  0.3350 -0.5194
  715MOL0     O94278  -1.428   6.219   4.017  0.1015 -0.2941  0.4306
  715MOL0     C94279  -1.547   6.158   4.026 -0.1755  0.1858 -0.3854
  715MOL0     C94280  -1.605   6.095   3.912 -0.7685 -0.4651  0.2355
  715MOL0     C94281  -1.729   6.029   3.924 -1.8392 -0.2776 -0.1544
  715MOL0     C94282  -1.800   6.031   4.042 -0.0246  0.7380  1.4327
  715MOL0     O94283  -1.922   5.970   4.041 -0.3412  0.3175  0.3847
  715MOL0     C94284  -2.028   6.031   4.117  0.6306 -0.4262  0.0692
  715MOL0     C94285  -2.161   6.006   4.051 -0.1518  0.3860 -0.4531
  715MOL0     C94286  -2.280   6.048   4.150 -0.2082  0.8666  0.2251
  715MOL0     C94287  -2.416   6.056   4.070 -0.3324 -0.4173  1.2106
  715MOL0     C94288  -2.540   6.039   4.153 -0.3718  0.6678 -0.0821
  715MOL0     C94289  -2.672   6.024   4.077  0.3217 -0.5810 -0.5906
  715MOL0     C94290  -2.791   6.044   4.175 -0.4285  0.2317  0.9486
  715MOL0     C94291  -2.927   6.093   4.114  0.2318  0.0561  0.3131
  715MOL0    Cl94292  -3.048   6.113   4.245  0.1582  0.3869  0.0141
  715MOL0     C94293  -1.755   6.101   4.151  0.1355 -0.3345  0.1727
  715MOL0     C94294  -1.630   6.162   4.144 -0.2047 -0.4858 -0.2557
  715MOL0     O94295  -1.511   6.343   3.837  0.7839 -0.3809 -0.3859
  715MOL0     C94296  -1.177   6.340   3.963 -0.5405 -0.0039 -0.0690
  715MOL0     C94297  -1.055   6.395   3.942 -0.2967 -0.5332 -0.3942
  715MOL0     N94298  -0.461   6.811   3.568  0.9824  0.9969 -0.1038
  715MOL0     N94299  -0.351   6.806   3.501 -0.8655  0.0456  0.7379
  715MOL0     C94300   0.955   6.876   3.436  0.1641  1.7820 -0.5910
  715MOL0     C94301   1.081   6.938   3.448  0.6447  0.1410 -0.3611
  715MOL0     C94302   1.517   7.083   3.399 -0.0721 -0.6772  0.2115
  715MOL0     C94303   1.543   7.154   3.279  0.3376  0.5137 -0.1412
  715MOL0     C94304   1.657   7.234   3.261  0.6319  0.5755 -0.6481
  715MOL0     C94305   1.742   7.253   3.373  0.5531 -0.7388 -0.4405
  715MOL0     O94306   1.842   7.346   3.376  0.0812 -0.2166  0.0438
  715MOL0     C94307   1.874   7.423   3.260  0.2637  0.2166 -0.0407
  715MOL0     C94308   2.013   7.483   3.267 -0.8420  0.5705 -0.4431
  715MOL0     C94309   2.116   7.364   3.251 -0.0369 -0.2057  0.0490
  715MOL0     C94310   2.250   7.421   3.288  0.3444  0.3244  0.1950
  715MOL0     C94311   2.363   7.333   3.252 -0.3902  0.2430  0.4534
  715MOL0     C94312   2.468   7.271   3.216  0.2742 -0.5279 -0.5340
  715MOL0     C94313   1.725   7.175   3.489  0.3864  0.9702  1.1770
  715MOL0     C94314   1.614   7.097   3.510 -0.2583  0.2706  0.3553
  715MOL0     H94315   1.182   6.887   3.114  2.2586 -1.1195  0.4066
  715MOL0     H94316   0.948   6.806   3.102 -0.9633  2.2583  0.2743
  715MOL0     H94317   0.665   6.846   3.450 -1.7585  0.1775 -1.0361
  715MOL0     H94318   0.730   6.673   3.460 -1.0229 -1.7993 -1.4360
  715MOL0     H94319   0.562   6.606   3.295 -1.9348 -0.9578 -0.3577
  715MOL0     H94320   0.524   6.768   3.255  1.7140 -2.4778 -2.2470
  715MOL0     H94321   0.449   6.804   3.498  0.1717 -0.4616  0.2892
  715MOL0     H94322   0.463   6.632   3.523 -0.9458 -0.4092  0.3209
  715MOL0     H94323   0.298   6.721   3.280 -1.1242 -0.7779  0.0435
  715MOL0     H94324   0.295   6.566   3.368 -0.4894  0.3706 -0.3944
  715MOL0     H94325   0.188   6.832   3.460 -2.4114 -0.7708 -1.3381
  715MOL0     H94326   0.191   6.691   3.568 -0.9149 -1.3828 -0.6832
  715MOL0     H94327   0.057   6.568   3.387 -0.9409 -0.2304 -2.3776
  715MOL0     H94328   0.055   6.722   3.297  1.7798  0.3294  0.1181
  715MOL0     H94329  -0.043   6.721   3.586  1.6344  2.4518  0.2884
  715MOL0     H94330  -0.079   6.830   3.463 -1.5825  0.2429  1.2232
  715MOL0     H94331  -0.154   6.541   3.444  3.6227  1.1234  1.0441
  715MOL0     H94332  -0.201   6.655   3.326 -1.8969 -2.3379 -0.2871
  715MOL0     H94333  -0.320   6.528   3.677  1.5964 -0.3751 -1.4472
  715MOL0     H94334  -0.622   6.756   3.794 -0.1980 -0.2951 -2.1815
  715MOL0     H94335  -0.473   6.700   3.870 -0.6267 -2.5303  1.3720
  715MOL0     H94336  -0.661   6.541   3.881 -0.7344 -1.7118 -0.0327
  715MOL0     H94337  -0.545   6.470   3.766 -3.5014 -3.2601 -0.0577
  715MOL0     H94338  -0.755   6.656   3.641 -1.6275 -1.6717 -2.3208
  715MOL0     H94339  -0.684   6.506   3.588 -0.3039 -0.6745  0.4125
  715MOL0     H94340  -0.783   6.388   3.789  0.6511  1.5045  2.1878
  715MOL0     H94341  -0.895   6.444   3.654  0.6935 -0.2583 -0.1624
  715MOL0     H94342  -1.145   6.638   3.731  0.7618  1.9600  3.1242
  715MOL0     H94343  -1.366   6.525   3.753  0.0408  0.2024 -0.8245
  715MOL0     H94344  -1.552   6.089   3.818 -1.9702 -0.6793 -0.4420
  715MOL0     H94345  -1.762   5.960   3.846 -0.7511 -0.4564 -0.4848
  715MOL0     H94346  -2.012   6.139   4.131  1.0181 -0.2610 -1.4252
  715MOL0     H94347  -2.032   5.982   4.215 -1.2785 -0.5918 -0.0580
  715MOL0     H94348  -2.173   5.901   4.022 -0.5399  0.6061 -1.1186
  715MOL0     H94349  -2.158   6.056   3.954 -1.4394  3.9160  1.1660
  715MOL0     H94350  -2.260   6.149   4.187 -2.0591  2.1708 -2.0248
  715MOL0     H94351  -2.275   5.980   4.235  1.6743  2.1677  1.2403
  715MOL0     H94352  -2.427   6.157   4.029  0.7002 -1.0244 -0.6899
  715MOL0     H94353  -2.416   5.985   3.987  2.0863  2.0303 -1.0914
  715MOL0     H94354  -2.539   6.112   4.235  0.5857  2.4374 -1.5811
  715MOL0     H94355  -2.534   5.940   4.198 -1.7830 -0.8138 -2.8861
  715MOL0     H94356  -2.672   5.922   4.037  1.5236 -1.0346  0.5169
  715MOL0     H94357  -2.677   6.102   4.001 -1.8310 -1.1906 -1.1668
  715MOL0     H94358  -2.815   5.955   4.233 -3.0481  0.9780  1.1551
  715MOL0     H94359  -2.766   6.121   4.249  0.7966  0.9926 -0.2157
  715MOL0     H94360  -2.963   6.030   4.032  2.9355 -2.0236  0.5713
  715MOL0     H94361  -2.920   6.189   4.063 -2.3132 -0.1746 -0.6406
  715MOL0     H94362  -1.797   6.108   4.251 -1.0930 -0.8477 -0.2854
  715MOL0     H94363  -1.596   6.221   4.229 -3.2045  1.0430  0.0552
  715MOL0     H94364  -1.179   6.261   4.037 -1.0688 -0.7493 -0.8638
  715MOL0     H94365  -0.978   6.369   4.015  0.0916 -0.1784 -0.6782
  715MOL0     H94366   0.881   6.877   3.515 -3.5227 -3.7567 -3.3459
  715MOL0     H94367   1.118   6.983   3.540 -0.1540  0.7105 -0.3139
  715MOL0     H94368   1.477   7.135   3.195  1.4386 -0.7215 -0.7719
  715MOL0     H94369   1.671   7.302   3.178  1.9388  2.4878  1.0351
  715MOL0     H94370   1.806   7.508   3.256  1.4519  1.1660 -0.9949
  715MOL0     H94371   1.867   7.375   3.161 -0.6145  1.2676 -0.5023
  715MOL0     H94372   2.017   7.561   3.190 -1.7378 -0.3414 -1.4468
  715MOL0     H94373   2.028   7.543   3.357 -1.8351 -1.3070  1.0349
  715MOL0     H94374   2.108   7.324   3.149 -1.5648 -1.8498  0.7623
  715MOL0     H94375   2.097   7.288   3.327  0.1544  0.0109  0.3147
  715MOL0     H94376   2.278   7.512   3.234 -1.0598  2.6271  3.0375
  715MOL0     H94377   2.254   7.438   3.396  0.5406  1.9982 -0.0422
  715MOL0     H94378   2.569   7.241   3.198  1.5154  2.2090  1.1486
  715MOL0     H94379   1.798   7.193   3.567  1.1772 -0.6274  0.8396
  715MOL0     H94380   1.604   7.037   3.600  0.0779 -1.1469 -0.5179
  716MOL0     O94381   0.261   9.299   8.247  0.0018  0.0426  0.0203
  716MOL0     C94382   0.268   9.273   8.122  0.1205  0.1475  0.4146
  716MOL0     O94383   0.162   9.241   8.039 -0.2453  0.4468 -0.3598
  716MOL0     C94384   0.038   9.270   8.093 -0.2952 -0.7863 -0.3858
  716MOL0     C94385  -0.049   9.170   8.145  0.0339 -0.3258  0.0467
  716MOL0     C94386  -0.175   9.184   8.190  0.3998 -0.3694 -0.1109
  716MOL0     C94387  -0.224   9.319   8.201 -0.2457  0.5100 -0.6296
  716MOL0     O94388  -0.358   9.337   8.238  0.5967  0.3732 -0.0973
  716MOL0     C94389  -0.434   9.235   8.313  0.4990 -0.0888 -0.0456
  716MOL0     C94390  -0.562   9.279   8.388 -0.5379 -0.8231  0.2633
  716MOL0     C94391  -0.691   9.311   8.298 -0.3591 -0.0795 -0.2051
  716MOL0     C94392  -0.683   9.429   8.209 -0.3620  0.6011  0.5649
  716MOL0     C94393  -0.811   9.438   8.120 -0.4380 -0.2102  0.4127
  716MOL0     C94394  -0.802   9.566   8.029 -0.5525 -0.7828  0.2084
  716MOL0     C94395  -0.925   9.603   7.948 -0.1714  0.0667 -0.3420
  716MOL0     C94396  -1.039   9.493   7.944 -0.3011 -0.1444  0.1361
  716MOL0     N94397  -1.155   9.558   7.893 -0.5810  0.5026  0.1864
  716MOL0     C94398  -1.260   9.603   7.974  0.0824  0.0161  0.4342
  716MOL0     C94399  -1.355   9.635   7.883 -0.4213  0.0300 -0.1406
  716MOL0     C94400  -1.485   9.703   7.901 -0.6681 -0.2717  0.5048
  716MOL0     C94401  -1.614   9.620   7.921 -0.5473  0.1538  0.2075
  716MOL0     C94402  -1.645   9.524   7.805 -0.3664  0.6150  0.3176
  716MOL0     C94403  -1.788   9.464   7.807  0.5801 -0.1027  0.0985
  716MOL0     O94404  -1.877   9.581   7.804  0.1146  0.3024  0.0608
  716MOL0     C94405  -2.013   9.558   7.803 -0.0087 -0.4315 -0.4998
  716MOL0     C94406  -2.108   9.660   7.807  0.2284 -0.0363  0.6732
  716MOL0     C94407  -2.242   9.639   7.802 -0.4881  0.0893  0.5312
  716MOL0     C94408  -2.289   9.504   7.802 -0.1101  0.2933  0.5188
  716MOL0     C94409  -2.433   9.475   7.807  0.6977 -1.5727  0.7765
  716MOL0     O94410  -2.473   9.348   7.813  0.0676  0.3136 -0.6581
  716MOL0     C94411  -2.603   9.331   7.837 -0.2673  0.4927  0.1788
  716MOL0     C94412  -2.661   9.250   7.735  0.2434 -0.5135  0.2732
  716MOL0     C94413  -2.795   9.232   7.737 -0.5665  0.6465 -0.2755
  716MOL0     C94414  -2.873   9.270   7.848  0.3846  0.2512  0.0889
  716MOL0     O94415  -3.003   9.233   7.842  0.2391  0.0791 -0.4271
  716MOL0     C94416  -3.086   9.282   7.940 -0.6535 -0.1990 -0.8909
  716MOL0     C94417  -3.224   9.253   7.907  1.0163  0.5318 -0.0560
  716MOL0     C94418  -3.322   9.342   7.980 -1.5646 -0.1149  0.0957
  716MOL0     C94419  -3.466   9.286   7.983  0.7909 -0.0724  0.0411
  716MOL0     C94420  -3.576   9.380   8.035 -0.1485  0.7726  0.8451
  716MOL0     C94421  -3.716   9.321   7.998 -0.1505 -0.2503  0.8474
  716MOL0     C94422  -3.818   9.404   8.077  0.8368 -0.2167 -0.6433
  716MOL0     C94423  -3.961   9.346   8.052  0.0437  0.2965 -0.4162
  716MOL0    Cl94424  -4.011   9.376   7.886  0.0963 -0.0418 -0.0154
  716MOL0     C94425  -2.809   9.331   7.958  0.0140  0.0891  0.5744
  716MOL0     C94426  -2.675   9.367   7.951 -0.6508  1.0212 -0.4604
  716MOL0     O94427  -2.516   9.569   7.795 -0.5020 -0.1680  0.3468
  716MOL0     C94428  -2.192   9.403   7.805  0.1251  0.5461  0.4651
  716MOL0     C94429  -2.059   9.427   7.803  0.0437 -0.1259  1.2547
  716MOL0     N94430  -1.304   9.618   7.757  1.4740 -0.8625  0.1461
  716MOL0     N94431  -1.188   9.572   7.762  0.2625 -0.0351  0.1516
  716MOL0     C94432  -0.140   9.422   8.163  0.1361  0.1550 -0.6831
  716MOL0     C94433  -0.007   9.400   8.115 -0.2835 -1.0023  0.2934
  716MOL0     C94434   0.409   9.274   8.065  0.4524 -0.0587 -2.0250
  716MOL0     C94435   0.430   9.259   7.927 -0.6712  0.2358 -0.8447
  716MOL0     C94436   0.560   9.245   7.886 -0.0082  1.0416 -0.7629
  716MOL0     C94437   0.678   9.253   7.970  0.3858  0.3189  0.5373
  716MOL0     O94438   0.802   9.236   7.917  0.2574  0.5526 -0.2056
  716MOL0     C94439   0.835   9.207   7.783  0.4434 -0.9916 -0.2479
  716MOL0     C94440   0.964   9.270   7.766  0.9821  0.7131 -0.0132
  716MOL0     C94441   1.093   9.179   7.799  0.9445 -0.5876  0.1550
  716MOL0     C94442   1.097   9.130   7.945  0.8820 -1.1316  0.3898
  716MOL0     C94443   1.233   9.062   7.956  0.2303 -1.2883 -0.2637
  716MOL0     C94444   1.346   9.014   7.956 -0.7397 -0.1157  0.3686
  716MOL0     C94445   0.656   9.274   8.108  0.6538 -0.0094  0.8048
  716MOL0     C94446   0.521   9.283   8.156 -0.2219  0.4451  0.6692
  716MOL0     H94447  -0.004   9.071   8.138  2.0480  0.5793 -0.8873
  716MOL0     H94448  -0.238   9.099   8.211 -0.2216 -0.0765 -0.7387
  716MOL0     H94449  -0.376   9.179   8.387  0.1620 -1.6901 -0.9420
  716MOL0     H94450  -0.464   9.163   8.236 -0.8402  0.3888 -0.0045
  716MOL0     H94451  -0.539   9.373   8.440 -1.3298 -0.0084 -0.8203
  716MOL0     H94452  -0.591   9.202   8.461 -4.9378  1.6465  1.4993
  716MOL0     H94453  -0.767   9.338   8.372  0.4093 -1.9808  1.3658
  716MOL0     H94454  -0.729   9.221   8.249  0.2744 -0.5247  0.0938
  716MOL0     H94455  -0.647   9.521   8.257  4.0288  1.0537 -2.9997
  716MOL0     H94456  -0.610   9.407   8.132 -0.4585 -0.8773  0.8711
  716MOL0     H94457  -0.900   9.452   8.182 -0.1685  1.9031  0.4116
  716MOL0     H94458  -0.832   9.349   8.060 -2.3435 -0.3636  1.2154
  716MOL0     H94459  -0.724   9.549   7.954 -1.0883 -0.2948 -0.4667
  716MOL0     H94460  -0.782   9.651   8.094  0.9524 -0.6949 -0.3277
  716MOL0     H94461  -0.967   9.689   8.000  0.3213 -1.3876  2.6840
  716MOL0     H94462  -0.904   9.636   7.846 -3.0724 -0.6744 -1.2477
  716MOL0     H94463  -1.055   9.463   8.049  3.3208  3.0010  1.8095
  716MOL0     H94464  -1.016   9.405   7.883  1.1653 -0.5586  1.2159
  716MOL0     H94465  -1.268   9.621   8.081 -1.7261  0.6530  0.2385
  716MOL0     H94466  -1.495   9.771   7.815  3.9861  1.1988  0.8614
  716MOL0     H94467  -1.482   9.770   7.987 -1.9048  0.8300 -0.2632
  716MOL0     H94468  -1.693   9.688   7.953 -2.0351 -0.9368 -0.9970
  716MOL0     H94469  -1.578   9.557   8.003  0.9267 -1.5931 -1.6586
  716MOL0     H94470  -1.623   9.568   7.707 -2.3643  1.9792  0.4293
  716MOL0     H94471  -1.573   9.442   7.794  0.0304  1.1753 -1.9057
  716MOL0     H94472  -1.812   9.407   7.897  0.1852 -1.3138 -0.7570
  716MOL0     H94473  -1.801   9.402   7.718  2.1108  2.3538 -1.9783
  716MOL0     H94474  -2.073   9.763   7.814 -1.4729  0.4722  2.3007
  716MOL0     H94475  -2.296   9.733   7.807 -1.1028 -0.1480 -0.9061
  716MOL0     H94476  -2.611   9.240   7.639 -2.0281 -0.9500 -0.9254
  716MOL0     H94477  -2.835   9.173   7.655 -0.8645 -1.4767  1.3195
  716MOL0     H94478  -3.076   9.391   7.948 -1.2837 -0.2230  0.4858
  716MOL0     H94479  -3.064   9.238   8.038  2.0938  2.9561  0.1318
  716MOL0     H94480  -3.256   9.154   7.942  3.6812 -1.0104 -1.6279
  716MOL0     H94481  -3.236   9.254   7.798  1.2142 -2.1802 -0.1880
  716MOL0     H94482  -3.331   9.441   7.935 -0.5699  1.2540  2.6680
  716MOL0     H94483  -3.283   9.357   8.081 -0.6734  2.9868 -0.6084
  716MOL0     H94484  -3.489   9.257   7.880 -0.3057 -1.0722  0.5493
  716MOL0     H94485  -3.459   9.196   8.046  1.6737  0.3387  0.5592
  716MOL0     H94486  -3.568   9.482   7.996  0.4172  0.3180 -0.2586
  716MOL0     H94487  -3.560   9.398   8.142 -0.6235  0.3780  0.9844
  716MOL0     H94488  -3.720   9.215   8.022  1.7506 -0.7843 -0.9524
  716MOL0     H94489  -3.747   9.327   7.894 -0.6724 -0.5519  0.9840
  716MOL0     H94490  -3.788   9.420   8.181 -1.3846  0.9138 -0.1093
  716MOL0     H94491  -3.823   9.506   8.036  1.4012 -0.9266 -2.5922
  716MOL0     H94492  -4.025   9.399   8.123  1.0986  1.6889 -0.4648
  716MOL0     H94493  -3.947   9.245   8.091  3.7355  0.9366  0.2704
  716MOL0     H94494  -2.865   9.349   8.049  0.4662 -0.5040  0.9735
  716MOL0     H94495  -2.616   9.408   8.033  0.1410 -2.0597  0.6355
  716MOL0     H94496  -2.217   9.298   7.788 -0.1631  0.4383  1.4719
  716MOL0     H94497  -1.994   9.340   7.798  0.4709  0.1636  1.6357
  716MOL0     H94498  -0.167   9.525   8.182 -2.0949 -0.6500  0.9812
  716MOL0     H94499   0.055   9.485   8.089 -0.1194 -0.8120  1.2663
  716MOL0     H94500   0.348   9.250   7.856  0.0297  0.0848 -1.6406
  716MOL0     H94501   0.562   9.245   7.778  0.1427  2.1118 -0.7774
  716MOL0     H94502   0.753   9.240   7.719  0.1851 -3.0221 -1.0562
  716MOL0     H94503   0.843   9.099   7.763 -1.8959 -1.6296  1.7973
  716MOL0     H94504   0.975   9.285   7.658  1.5866 -3.5500 -0.7321
  716MOL0     H94505   0.969   9.363   7.822 -0.5039  2.1473 -2.0926
  716MOL0     H94506   1.184   9.234   7.773  1.4536 -1.5595 -0.1743
  716MOL0     H94507   1.088   9.093   7.732  1.9774  0.8901 -1.9288
  716MOL0     H94508   1.073   9.209   8.017 -1.7354 -0.2976 -1.2779
  716MOL0     H94509   1.018   9.056   7.960 -1.3314  0.8753 -0.7036
  716MOL0     H94510   1.445   8.975   7.952 -0.9441 -0.5357 -1.6193
  716MOL0     H94511   0.733   9.288   8.184  0.4648  1.1726  0.7982
  716MOL0     H94512   0.502   9.290   8.262 -0.8157 -2.0267  0.7663
  717MOL0     O94513   1.013   4.970   4.407 -0.3888 -0.0073 -0.3718
  717MOL0     C94514   1.073   4.887   4.340  0.7476  0.2816  0.3621
  717MOL0     O94515   1.018   4.799   4.254  0.3604 -0.5527  0.0467
  717MOL0     C94516   0.894   4.785   4.210  0.0836 -0.7478  0.1248
  717MOL0     C94517   0.792   4.882   4.231 -0.7864  0.2176  0.1226
  717MOL0     C94518   0.658   4.856   4.190 -0.0531  0.0392  0.2129
  717MOL0     C94519   0.624   4.742   4.111 -1.1612 -0.2281  0.3709
  717MOL0     O94520   0.497   4.705   4.075 -0.6492 -0.0240 -0.3006
  717MOL0     C94521   0.398   4.786   4.147  0.4638  0.4373  0.3911
  717MOL0     C94522   0.254   4.746   4.120  0.3115 -0.2043 -0.3849
  717MOL0     C94523   0.166   4.780   4.240 -1.4932 -0.3126  0.6825
  717MOL0     C94524   0.022   4.740   4.216 -0.4748  0.6883  0.4417
  717MOL0     C94525  -0.089   4.822   4.282  0.4100  0.2002 -0.8645
  717MOL0     C94526  -0.069   4.804   4.436 -0.2332  0.1175  0.3256
  717MOL0     C94527  -0.163   4.902   4.508  0.4348  0.4362 -0.9691
  717MOL0     C94528  -0.089   4.999   4.600 -0.1000  0.4849  0.0810
  717MOL0     N94529  -0.181   5.031   4.710 -0.2580 -0.3424 -0.1738
  717MOL0     C94530  -0.303   5.101   4.700  0.8941  0.4840 -0.1026
  717MOL0     C94531  -0.348   5.109   4.823 -0.0745 -0.9418 -0.2215
  717MOL0     C94532  -0.465   5.194   4.867 -0.2508 -0.2502  0.4871
  717MOL0     C94533  -0.597   5.125   4.844 -0.0449  0.2275 -0.0495
  717MOL0     C94534  -0.703   5.214   4.903  0.6473  1.0793 -0.6119
  717MOL0     C94535  -0.844   5.147   4.889 -0.1596  0.1383  1.4737
  717MOL0     O94536  -0.948   5.250   4.896 -0.3207  0.7276  0.4983
  717MOL0     C94537  -1.078   5.221   4.908 -0.6668 -0.1476  0.0597
  717MOL0     C94538  -1.140   5.098   4.931 -0.1025  0.0924 -1.0474
  717MOL0     C94539  -1.279   5.087   4.933  0.6722 -0.3518  0.0400
  717MOL0     C94540  -1.368   5.200   4.911 -0.3833  1.1521 -0.5768
  717MOL0     C94541  -1.516   5.178   4.911 -1.0887 -0.3707  0.0107
  717MOL0     O94542  -1.556   5.048   4.902  0.0158 -0.1448  0.7738
  717MOL0     C94543  -1.692   5.006   4.895  0.0738  0.7378 -0.2882
  717MOL0     C94544  -1.724   4.876   4.939 -0.2255 -0.1672 -0.0198
  717MOL0     C94545  -1.850   4.831   4.921  0.0598  0.5488 -0.0423
  717MOL0     C94546  -1.952   4.904   4.865 -0.0826 -0.8019 -0.5848
  717MOL0     O94547  -2.075   4.841   4.851 -0.3952  0.6734  0.4117
  717MOL0     C94548  -2.192   4.913   4.806 -0.1105 -0.3440  0.0564
  717MOL0     C94549  -2.307   4.817   4.783 -0.4997  0.0137  0.0088
  717MOL0     C94550  -2.411   4.868   4.690 -0.1145  0.0280 -0.4242
  717MOL0     C94551  -2.540   4.786   4.686 -0.1756  0.1137 -0.1735
  717MOL0     C94552  -2.663   4.869   4.740 -0.1606  0.5528 -0.0892
  717MOL0     C94553  -2.780   4.782   4.787  1.4938 -0.9316 -0.0045
  717MOL0     C94554  -2.914   4.863   4.785 -0.2428  0.2891 -0.5388
  717MOL0     C94555  -3.038   4.798   4.847 -0.4259 -0.0661  0.5835
  717MOL0    Cl94556  -3.021   4.743   5.011  0.0411  0.1556 -0.6732
  717MOL0     C94557  -1.923   5.033   4.820 -0.4585  0.1090  0.5107
  717MOL0     C94558  -1.789   5.078   4.832 -0.3369  0.7122  0.1179
  717MOL0     O94559  -1.584   5.277   4.931  0.4354  0.7054  0.5780
  717MOL0     C94560  -1.304   5.325   4.897  0.3819  0.0949  1.2390
  717MOL0     C94561  -1.162   5.336   4.894 -1.2752 -0.0942  0.1286
  717MOL0     N94562  -0.254   5.045   4.907  0.2794  0.4850  0.5755
  717MOL0     N94563  -0.162   5.001   4.841 -0.2202 -0.7878  0.0431
  717MOL0     C94564   0.726   4.645   4.088 -0.0151  0.7405 -0.0272
  717MOL0     C94565   0.858   4.666   4.141 -0.5491 -1.0049  1.2383
  717MOL0     C94566   1.213   4.859   4.366 -0.6182  0.1519  0.0556
  717MOL0     C94567   1.276   4.935   4.468 -0.2725  0.3226  0.4957
  717MOL0     C94568   1.412   4.917   4.506  0.3597 -0.8262  0.2491
  717MOL0     C94569   1.488   4.820   4.443 -0.5647 -0.4330  0.1840
  717MOL0     O94570   1.616   4.799   4.498 -0.8601 -0.7507  0.3262
  717MOL0     C94571   1.695   4.707   4.416 -0.5567  0.3406 -0.4758
  717MOL0     C94572   1.683   4.560   4.455  0.3399  0.4980  0.4817
  717MOL0     C94573   1.629   4.546   4.602  0.0166  0.2050 -0.1783
  717MOL0     C94574   1.591   4.406   4.639 -0.9648 -1.4408  0.4004
  717MOL0     C94575   1.487   4.357   4.547  0.4550  0.1690  0.3393
  717MOL0     C94576   1.392   4.320   4.474  0.1418 -0.1608 -0.1713
  717MOL0     C94577   1.428   4.739   4.340  0.0342  0.2712 -0.1633
  717MOL0     C94578   1.292   4.754   4.300  0.4157  0.0964  0.1771
  717MOL0     H94579   0.822   4.979   4.269  2.2113 -1.5111  2.6145
  717MOL0     H94580   0.587   4.935   4.210  0.8387  0.6519  1.0396
  717MOL0     H94581   0.395   4.890   4.113 -2.3446 -0.0439 -1.1547
  717MOL0     H94582   0.408   4.776   4.255 -1.3072 -1.2422  0.4746
  717MOL0     H94583   0.247   4.642   4.087  1.7299 -1.5574  3.0578
  717MOL0     H94584   0.221   4.796   4.029 -0.4603  1.0999  0.5777
  717MOL0     H94585   0.171   4.888   4.258  0.7758 -0.5372  1.6229
  717MOL0     H94586   0.203   4.739   4.333 -2.4538  2.7120  2.5466
  717MOL0     H94587   0.009   4.760   4.109 -1.7360  0.2178  0.4862
  717MOL0     H94588   0.006   4.634   4.235 -1.5097  0.5740 -0.8894
  717MOL0     H94589  -0.184   4.779   4.250  1.7008 -3.3671 -0.3504
  717MOL0     H94590  -0.085   4.925   4.246 -0.3955  0.1791 -1.0382
  717MOL0     H94591   0.033   4.824   4.470 -0.2652  2.7182 -0.8548
  717MOL0     H94592  -0.093   4.704   4.472  1.5301 -0.2072  0.6677
  717MOL0     H94593  -0.209   4.966   4.432 -2.9682 -0.1602  0.4157
  717MOL0     H94594  -0.246   4.846   4.551  1.4707  0.7476  1.5976
  717MOL0     H94595  -0.053   5.085   4.543 -1.9186  2.1037  1.2374
  717MOL0     H94596  -0.010   4.953   4.660 -0.5961  1.8728  1.9104
  717MOL0     H94597  -0.351   5.157   4.620 -2.1498  0.1366  1.3262
  717MOL0     H94598  -0.458   5.286   4.809  0.2392 -0.3374  0.4083
  717MOL0     H94599  -0.459   5.223   4.973  0.9263  0.0474  0.3438
  717MOL0     H94600  -0.592   5.026   4.890 -0.0917  0.4261  0.3854
  717MOL0     H94601  -0.614   5.129   4.736  3.1260 -1.4166 -0.7127
  717MOL0     H94602  -0.690   5.234   5.010 -0.4364  0.4325 -0.3534
  717MOL0     H94603  -0.726   5.314   4.866  0.3222  1.9985  1.9112
  717MOL0     H94604  -0.852   5.080   4.975 -2.0292  0.2824  1.4418
  717MOL0     H94605  -0.848   5.087   4.797  2.1620  1.6114  0.3111
  717MOL0     H94606  -1.071   5.015   4.935  0.7528  0.6802 -2.7989
  717MOL0     H94607  -1.311   4.983   4.939  0.6993 -0.4068 -0.7563
  717MOL0     H94608  -1.642   4.820   4.984 -0.1248  0.6373  0.8513
  717MOL0     H94609  -1.880   4.731   4.952  1.2574 -0.5287 -2.2022
  717MOL0     H94610  -2.184   4.959   4.707 -2.0636 -2.4642 -1.2014
  717MOL0     H94611  -2.231   4.994   4.868  0.8024  1.4903 -1.6712
  717MOL0     H94612  -2.352   4.786   4.878  0.2904 -0.0618  0.3693
  717MOL0     H94613  -2.270   4.724   4.737 -1.6312 -0.0756 -0.7491
  717MOL0     H94614  -2.381   4.878   4.585 -0.5158 -1.1048 -0.6544
  717MOL0     H94615  -2.427   4.972   4.720  0.5851 -0.4455  1.7322
  717MOL0     H94616  -2.563   4.760   4.582 -1.4039  3.9282 -0.9951
  717MOL0     H94617  -2.533   4.693   4.745 -1.1977  1.0238  1.4678
  717MOL0     H94618  -2.691   4.935   4.658  0.9808 -0.8924 -1.7398
  717MOL0     H94619  -2.631   4.931   4.824 -2.1812  1.8353 -0.2271
  717MOL0     H94620  -2.755   4.745   4.887  0.2197  0.7345  0.9994
  717MOL0     H94621  -2.796   4.702   4.714  0.6542 -1.3327  0.5991
  717MOL0     H94622  -2.891   4.949   4.850  0.1338 -0.4791  0.3576
  717MOL0     H94623  -2.923   4.888   4.679  0.5860  1.1636 -0.4213
  717MOL0     H94624  -3.076   4.712   4.790 -0.1141  0.3018 -0.1943
  717MOL0     H94625  -3.113   4.877   4.852 -0.7562 -0.2630 -0.9622
  717MOL0     H94626  -1.998   5.087   4.763 -0.2030 -0.8090 -0.7339
  717MOL0     H94627  -1.775   5.182   4.805  0.7245  1.1830  2.2979
  717MOL0     H94628  -1.366   5.415   4.891  1.0285  0.5729  1.6473
  717MOL0     H94629  -1.111   5.431   4.882 -1.2546 -0.2893 -1.5063
  717MOL0     H94630   0.702   4.548   4.046  1.1082  0.5931 -0.3786
  717MOL0     H94631   0.939   4.597   4.119 -1.4477 -1.4058 -1.1390
  717MOL0     H94632   1.223   5.006   4.531 -2.0954 -0.1185 -0.4815
  717MOL0     H94633   1.451   4.976   4.588  2.2705 -2.3806  0.5133
  717MOL0     H94634   1.798   4.728   4.447 -0.5521  0.4340 -0.5535
  717MOL0     H94635   1.696   4.736   4.310  2.4448 -0.0222 -0.6437
  717MOL0     H94636   1.621   4.514   4.377  0.0385  1.4932  0.1177
  717MOL0     H94637   1.776   4.504   4.447 -1.6249 -2.9569 -0.7395
  717MOL0     H94638   1.542   4.609   4.622 -0.1884 -0.2373  0.3488
  717MOL0     H94639   1.705   4.584   4.670 -0.5508 -1.8263  1.6850
  717MOL0     H94640   1.680   4.343   4.649 -0.1208 -0.1011  1.9438
  717MOL0     H94641   1.545   4.406   4.738 -0.5294 -0.7480  0.6125
  717MOL0     H94642   1.310   4.291   4.412  1.4671  0.6927 -2.4656
  717MOL0     H94643   1.493   4.674   4.284  0.9480 -0.0512  1.2099
  717MOL0     H94644   1.251   4.694   4.219  0.8991 -3.3155  2.2372
  718MOL0     O94645   8.728   6.796  10.108  0.0693 -0.2094  0.2017
  718MOL0     C94646   8.761   6.699  10.174  0.7448  0.6219  0.1801
  718MOL0     O94647   8.685   6.629  10.260  1.0057  0.5279  0.8575
  718MOL0     C94648   8.557   6.634  10.241  0.8517 -0.1255  0.2936
  718MOL0     C94649   8.497   6.543  10.158  0.2870  0.5065  0.1095
  718MOL0     C94650   8.363   6.541  10.121  0.7305 -0.3039 -0.9500
  718MOL0     C94651   8.278   6.639  10.178 -0.5827 -0.5345 -0.8325
  718MOL0     O94652   8.144   6.623  10.152 -0.0627 -0.5248  0.9215
  718MOL0     C94653   8.061   6.743  10.154 -0.2327 -0.3880 -0.8557
  718MOL0     C94654   7.923   6.717  10.078  0.2608  0.5702  0.1149
  718MOL0     C94655   7.832   6.828  10.083  0.2670  0.0994  0.0021
  718MOL0     C94656   7.732   6.840   9.957 -0.0357  0.0388 -0.2575
  718MOL0     C94657   7.597   6.895   9.993  0.7287  0.2211 -0.1538
  718MOL0     C94658   7.497   6.898   9.876  0.4185 -0.7976  0.1693
  718MOL0     C94659   7.371   6.977   9.922 -0.0020 -0.2843  0.3489
  718MOL0     C94660   7.274   6.892  10.005 -0.5130 -0.4815  0.4459
  718MOL0     N94661   7.136   6.955  10.009 -0.0004 -0.2663 -0.3229
  718MOL0     C94662   7.038   6.934   9.909  0.5298 -0.2443  0.0951
  718MOL0     C94663   6.922   6.977   9.961 -0.4469  1.1491  0.2157
  718MOL0     C94664   6.786   6.957   9.909 -0.5390  0.2720  0.0764
  718MOL0     C94665   6.699   7.087   9.891 -0.3074  0.5769 -0.1106
  718MOL0     C94666   6.563   7.069   9.821  0.1001  0.1665 -0.2675
  718MOL0     C94667   6.485   7.200   9.841 -0.3367  0.2834 -0.0785
  718MOL0     O94668   6.407   7.236   9.725 -0.5812 -0.3452  0.1414
  718MOL0     C94669   6.280   7.190   9.711 -0.0895 -1.0762  0.0515
  718MOL0     C94670   6.225   7.096   9.794  0.2760  0.1696  0.7218
  718MOL0     C94671   6.093   7.052   9.797 -1.0126 -0.6603 -0.8582
  718MOL0     C94672   6.006   7.114   9.710 -0.3012 -0.5161 -0.2894
  718MOL0     C94673   5.865   7.070   9.696 -0.2619  0.1058 -0.1267
  718MOL0     O94674   5.787   7.136   9.605  0.3504 -0.7584  0.5391
  718MOL0     C94675   5.656   7.115   9.571 -0.6223 -0.3947  0.2781
  718MOL0     C94676   5.571   7.013   9.604 -0.4179  0.2879  0.1325
  718MOL0     C94677   5.442   7.006   9.561 -0.3585  0.6749  0.4107
  718MOL0     C94678   5.386   7.111   9.482  0.0087  0.3833 -0.7437
  718MOL0     O94679   5.256   7.121   9.439  0.3258  0.0418  0.3205
  718MOL0     C94680   5.184   7.003   9.410  0.4970 -0.8189 -0.0970
  718MOL0     C94681   5.216   6.933   9.275 -0.6267  0.9941 -0.1676
  718MOL0     C94682   5.100   6.837   9.239 -0.2147  0.2466  0.6878
  718MOL0     C94683   5.152   6.727   9.134 -0.8675 -0.3233 -0.8513
  718MOL0     C94684   5.047   6.626   9.078  0.5341 -0.5837 -0.9771
  718MOL0     C94685   5.114   6.533   8.981  0.0378 -0.1388  0.4389
  718MOL0     C94686   5.012   6.445   8.914 -0.2830 -0.2540  0.0681
  718MOL0     C94687   5.065   6.306   8.889  0.2954 -0.0659  0.2381
  718MOL0    Cl94688   5.195   6.298   8.760 -0.2051 -0.4273  0.3994
  718MOL0     C94689   5.471   7.223   9.453  0.6788 -0.1244 -0.5307
  718MOL0     C94690   5.598   7.227   9.505 -1.1982  1.1174  0.7251
  718MOL0     O94691   5.818   6.982   9.776 -0.0965  0.4911  0.4474
  718MOL0     C94692   6.059   7.216   9.625  0.4398  0.1152  0.4930
  718MOL0     C94693   6.197   7.253   9.628  0.0935  0.5011  0.2233
  718MOL0     N94694   6.953   7.038  10.082  0.2047  0.0317  0.2392
  718MOL0     N94695   7.078   7.032  10.103  0.5171  0.0944  0.1482
  718MOL0     C94696   8.331   6.727  10.270 -0.3771 -0.2026  0.0270
  718MOL0     C94697   8.470   6.726  10.304 -0.8958  0.2223 -0.6236
  718MOL0     C94698   8.899   6.665  10.163 -0.3556  0.5764 -0.3500
  718MOL0     C94699   8.986   6.752  10.098 -0.0980 -0.6713 -0.1856
  718MOL0     C94700   9.121   6.720  10.087 -0.2778 -0.0786  0.2324
  718MOL0     C94701   9.180   6.603  10.147  0.2381 -0.9441  0.3526
  718MOL0     O94702   9.316   6.581  10.142  0.7923  1.3685  1.2358
  718MOL0     C94703   9.375   6.481  10.223  0.3718 -0.2582 -0.2292
  718MOL0     C94704   9.432   6.541  10.359  0.3165  0.4721 -0.0003
  718MOL0     C94705   9.545   6.469  10.418  1.0785  0.2413  0.2490
  718MOL0     C94706   9.588   6.537  10.548 -0.0189 -0.0772 -1.0208
  718MOL0     C94707   9.719   6.478  10.598 -0.2868 -0.6791 -0.4139
  718MOL0     C94708   9.824   6.435  10.647  0.3490  0.1565  0.0875
  718MOL0     C94709   9.089   6.514  10.205  0.5523  0.3153 -0.0228
  718MOL0     C94710   8.955   6.540  10.218 -0.9007 -0.2948  1.1624
  718MOL0     H94711   8.568   6.470  10.119 -1.7377 -0.4598 -2.0254
  718MOL0     H94712   8.323   6.467  10.053 -1.9390 -1.4337  1.6273
  718MOL0     H94713   8.116   6.821  10.099  1.6141 -1.1586 -0.1890
  718MOL0     H94714   8.037   6.771  10.257 -2.5920 -0.7379 -1.2484
  718MOL0     H94715   7.881   6.629  10.128 -1.7430  2.8318  2.7900
  718MOL0     H94716   7.948   6.703   9.973 -0.3769  0.7110 -0.0629
  718MOL0     H94717   7.886   6.922  10.096  2.0809 -0.8675 -0.2925
  718MOL0     H94718   7.762   6.813  10.166  1.8416 -5.6344  0.7067
  718MOL0     H94719   7.778   6.896   9.876 -2.4255 -1.0881 -2.5235
  718MOL0     H94720   7.720   6.738   9.920 -0.0663 -0.5589  1.3065
  718MOL0     H94721   7.607   7.001  10.018  0.4932  0.1814  0.1058
  718MOL0     H94722   7.553   6.850  10.082  1.6510  2.3099  1.4215
  718MOL0     H94723   7.460   6.798   9.851  0.0572 -0.6334  0.0443
  718MOL0     H94724   7.549   6.946   9.793  1.8986  0.8213  1.9067
  718MOL0     H94725   7.410   7.065   9.973  7.3583 -2.8741  0.5419
  718MOL0     H94726   7.316   7.019   9.838 -0.2774 -0.9443  0.1876
  718MOL0     H94727   7.305   6.884  10.109  0.6566 -0.0031  0.1534
  718MOL0     H94728   7.270   6.787   9.976  0.6795 -0.9047  1.6997
  718MOL0     H94729   7.043   6.873   9.819  0.1677  1.2268 -0.9449
  718MOL0     H94730   6.742   6.890   9.983 -1.2759  1.7608  1.0409
  718MOL0     H94731   6.791   6.908   9.811 -0.9252  0.1754  0.1036
  718MOL0     H94732   6.766   7.163   9.849  0.1713  0.0840 -0.2464
  718MOL0     H94733   6.673   7.128   9.989 -1.0463  0.3051 -0.1872
  718MOL0     H94734   6.568   7.042   9.715 -0.4497 -0.3522 -0.1679
  718MOL0     H94735   6.524   6.980   9.870  0.6585  0.6889  1.1641
  718MOL0     H94736   6.556   7.283   9.849  2.9648 -2.3868  0.6811
  718MOL0     H94737   6.438   7.203   9.940 -0.3097  2.3137 -0.0825
  718MOL0     H94738   6.293   7.043   9.859  1.5980 -0.6166 -1.2054
  718MOL0     H94739   6.066   6.978   9.872 -0.4455 -1.5769 -1.5320
  718MOL0     H94740   5.595   6.940   9.681 -0.7943 -1.9758 -1.7769
  718MOL0     H94741   5.377   6.933   9.610  4.9725 -2.4437  3.8592
  718MOL0     H94742   5.082   7.041   9.402  1.2031  2.2242  2.9586
  718MOL0     H94743   5.176   6.938   9.498 -4.1442  0.8901  1.0083
  718MOL0     H94744   5.311   6.880   9.285  0.9837  2.8891 -3.6892
  718MOL0     H94745   5.214   7.010   9.197 -0.0510 -0.5654 -1.7813
  718MOL0     H94746   5.009   6.886   9.203  0.5961  1.4794  0.2533
  718MOL0     H94747   5.072   6.777   9.326 -2.2210  0.8113  0.4726
  718MOL0     H94748   5.216   6.770   9.056  2.5757  0.9143  2.3827
  718MOL0     H94749   5.219   6.662   9.190 -1.7792 -1.0907 -0.6111
  718MOL0     H94750   4.973   6.692   9.032  0.0435  0.1838  0.8062
  718MOL0     H94751   4.995   6.572   9.158 -1.2176  1.1125 -0.8972
  718MOL0     H94752   5.191   6.465   9.019 -1.9293 -3.2522 -0.7602
  718MOL0     H94753   5.160   6.598   8.905  1.0953  0.2903  1.4153
  718MOL0     H94754   4.919   6.427   8.968  0.0823 -3.8694 -0.3154
  718MOL0     H94755   4.991   6.493   8.817 -0.8372 -0.3192  0.1512
  718MOL0     H94756   4.986   6.239   8.852 -0.1539 -0.2637  1.5100
  718MOL0     H94757   5.094   6.255   8.982  0.6710 -1.2542 -0.5013
  718MOL0     H94758   5.416   7.301   9.402 -0.1631  0.9411  1.8877
  718MOL0     H94759   5.660   7.312   9.479 -2.2093  2.2532  1.8739
  718MOL0     H94760   6.004   7.275   9.553  2.4723  1.4820 -0.0198
  718MOL0     H94761   6.244   7.333   9.573  0.2576  0.0300 -0.3367
  718MOL0     H94762   8.270   6.807  10.311 -0.2886 -0.4867  0.7439
  718MOL0     H94763   8.515   6.807  10.360  0.2666  0.1387 -1.3857
  718MOL0     H94764   8.956   6.843  10.049  3.1343  0.7609  0.2112
  718MOL0     H94765   9.186   6.788  10.033 -0.4572 -0.3525 -0.3430
  718MOL0     H94766   9.458   6.440  10.164  0.8703  0.0222  0.2664
  718MOL0     H94767   9.324   6.386  10.243  0.6908 -0.4157 -0.1480
  718MOL0     H94768   9.459   6.646  10.343 -1.1559  0.4014 -4.1947
  718MOL0     H94769   9.354   6.547  10.435  2.2440  1.1503  2.0168
  718MOL0     H94770   9.623   6.480  10.342  3.5111 -1.7725  2.2502
  718MOL0     H94771   9.521   6.363  10.432 -0.9594  0.6590  0.2009
  718MOL0     H94772   9.591   6.643  10.522 -2.1431 -0.4486 -3.0756
  718MOL0     H94773   9.508   6.515  10.620  0.4775 -2.5356 -1.1177
  718MOL0     H94774   9.917   6.404  10.691  0.7762  1.0922 -0.1144
  718MOL0     H94775   9.115   6.420  10.252 -2.5638 -0.4214  0.4733
  718MOL0     H94776   8.890   6.472  10.272 -4.1453  1.4599 -0.2302
  719MOL0     O94777  11.212   5.744   6.041  0.6235  0.7827  1.1644
  719MOL0     C94778  11.149   5.819   5.966 -1.1979  0.1288  1.4260
  719MOL0     O94779  11.205   5.900   5.861 -0.4890  0.2702 -0.8230
  719MOL0     C94780  11.338   5.898   5.822  0.0358  0.6899 -0.4272
  719MOL0     C94781  11.448   5.818   5.865  0.1145 -0.7805  0.6978
  719MOL0     C94782  11.580   5.845   5.821  0.6052 -0.8517 -0.6500
  719MOL0     C94783  11.607   5.948   5.729 -0.1179 -0.3446 -0.0468
  719MOL0     O94784  11.738   5.978   5.684 -0.3562  0.8755 -0.3420
  719MOL0     C94785  11.839   5.877   5.674  0.2134 -0.4660 -0.4994
  719MOL0     C94786  11.921   5.875   5.808 -0.5694 -0.2252  0.3800
  719MOL0     C94787  12.054   5.791   5.792  0.7349  0.3042  0.3294
  719MOL0     C94788  12.155   5.805   5.912  0.3105 -0.4454  0.6198
  719MOL0     C94789  12.096   5.776   6.047 -0.1477 -0.8066 -0.1719
  719MOL0     C94790  12.218   5.778   6.146 -0.5642 -0.4600  0.5598
  719MOL0     C94791  12.175   5.763   6.286  0.1173  0.4050 -0.0806
  719MOL0     C94792  12.296   5.725   6.373  0.0223  0.1402 -0.5158
  719MOL0     N94793  12.272   5.760   6.513  0.3409 -0.0315  0.1880
  719MOL0     C94794  12.225   5.663   6.596  0.0140 -0.5575  0.3332
  719MOL0     C94795  12.178   5.723   6.707 -0.3938  0.6696 -0.2445
  719MOL0     C94796  12.116   5.657   6.831  0.1795 -0.2331 -0.3979
  719MOL0     C94797  11.985   5.575   6.787 -0.7604 -0.3373 -0.0699
  719MOL0     C94798  11.899   5.543   6.902 -0.3145 -0.6129  0.4013
  719MOL0     C94799  11.810   5.657   6.943 -0.0939 -0.9064 -0.6809
  719MOL0     O94800  11.728   5.702   6.831 -0.0931 -0.1653 -0.1964
  719MOL0     C94801  11.603   5.649   6.815  0.4701  0.0701 -0.1498
  719MOL0     C94802  11.541   5.537   6.871 -0.3068  0.3151  0.4080
  719MOL0     C94803  11.400   5.516   6.857  0.4961 -1.0131 -0.4382
  719MOL0     C94804  11.317   5.612   6.792 -0.4583 -0.5011  0.1259
  719MOL0     C94805  11.168   5.604   6.786  0.1769 -0.1390  0.4348
  719MOL0     O94806  11.109   5.487   6.817  0.2952  0.2955 -0.6717
  719MOL0     C94807  10.971   5.473   6.819 -0.8902  0.2356  0.4500
  719MOL0     C94808  10.887   5.559   6.879  0.9466 -0.2825 -0.4004
  719MOL0     C94809  10.748   5.545   6.880 -1.0843  0.1916 -0.9757
  719MOL0     C94810  10.691   5.435   6.814  0.8632 -0.4361 -0.4507
  719MOL0     O94811  10.552   5.427   6.827 -0.5975 -0.7379  0.4776
  719MOL0     C94812  10.485   5.349   6.725  0.6985 -0.1272 -0.5333
  719MOL0     C94813  10.332   5.363   6.738  0.6255 -0.4969 -0.2818
  719MOL0     C94814  10.287   5.505   6.751 -0.2163 -0.4992  0.3429
  719MOL0     C94815  10.138   5.515   6.788  0.1800 -0.3626  0.2841
  719MOL0     C94816  10.085   5.648   6.744 -0.3455 -0.3942 -0.1055
  719MOL0     C94817   9.931   5.658   6.780 -0.6955  0.3686 -0.1089
  719MOL0     C94818   9.854   5.774   6.715  0.1533 -0.3902 -0.2436
  719MOL0     C94819   9.719   5.788   6.780 -0.5604 -0.5620 -0.4534
  719MOL0    Cl94820   9.615   5.881   6.671  0.0065  0.4216 -0.0266
  719MOL0     C94821  10.774   5.339   6.760  0.6552  0.3535  0.4142
  719MOL0     C94822  10.915   5.353   6.761  0.1233  0.2353  0.3086
  719MOL0     O94823  11.109   5.703   6.741 -0.0220 -0.1667 -0.1977
  719MOL0     C94824  11.389   5.722   6.733 -0.7616  0.5923 -0.0166
  719MOL0     C94825  11.527   5.729   6.733 -0.2626  0.0991 -1.2097
  719MOL0     N94826  12.196   5.857   6.687 -0.3117  0.3520 -0.3979
  719MOL0     N94827  12.250   5.875   6.573  0.1982 -0.4118 -0.0238
  719MOL0     C94828  11.503   6.036   5.693 -0.4293  0.3488  0.4824
  719MOL0     C94829  11.369   6.003   5.739 -0.4661 -0.6866 -0.1012
  719MOL0     C94830  11.008   5.843   5.989 -0.3101  0.8822 -0.1862
  719MOL0     C94831  10.925   5.900   5.887 -0.6955  0.2501  0.2674
  719MOL0     C94832  10.784   5.879   5.892 -0.0864 -0.7676 -0.5396
  719MOL0     C94833  10.729   5.820   6.011 -0.5774  0.5228 -1.3500
  719MOL0     O94834  10.590   5.814   6.036 -0.4650 -0.0181  0.4230
  719MOL0     C94835  10.497   5.869   5.940 -0.9212 -0.6173 -0.7975
  719MOL0     C94836  10.358   5.874   6.006  0.0264  0.2459 -0.0391
  719MOL0     C94837  10.243   5.929   5.925 -0.1503 -0.3183  0.4976
  719MOL0     C94838  10.245   6.079   5.902  0.6103 -0.7702 -0.0774
  719MOL0     C94839  10.142   6.134   5.815  0.1172 -0.2499  0.1638
  719MOL0     C94840  10.048   6.181   5.759  0.3596 -0.2218 -0.2915
  719MOL0     C94841  10.813   5.767   6.104 -0.2131 -0.4006 -0.2892
  719MOL0     C94842  10.956   5.786   6.102  0.1860  0.2106 -0.6645
  719MOL0     H94843  11.418   5.733   5.925 -0.8278 -0.9292  0.0388
  719MOL0     H94844  11.645   5.762   5.848  1.3643  0.5005  2.0929
  719MOL0     H94845  11.907   5.896   5.591  1.0261  0.1193  0.2849
  719MOL0     H94846  11.788   5.783   5.653 -2.7010  0.8514  0.1379
  719MOL0     H94847  11.863   5.836   5.892  1.5650  2.3720  3.2897
  719MOL0     H94848  11.949   5.977   5.834  2.6838 -0.7379 -0.5683
  719MOL0     H94849  12.110   5.815   5.701  0.3865 -0.5454 -0.1220
  719MOL0     H94850  12.022   5.687   5.780  2.8282 -0.2476 -0.9787
  719MOL0     H94851  12.244   5.747   5.884  1.4380  1.2142  0.6575
  719MOL0     H94852  12.180   5.911   5.907 -0.7207 -0.1397  1.7214
  719MOL0     H94853  12.049   5.678   6.045  0.2010 -1.1153  2.5526
  719MOL0     H94854  12.024   5.853   6.075  0.6964 -0.0488 -0.0134
  719MOL0     H94855  12.276   5.871   6.144 -0.1436 -0.7324 -0.0987
  719MOL0     H94856  12.278   5.693   6.114  0.0448  0.6112 -1.3120
  719MOL0     H94857  12.130   5.853   6.329 -0.0278 -0.3484  1.4172
  719MOL0     H94858  12.093   5.691   6.283  0.0459  0.4963 -2.2667
  719MOL0     H94859  12.379   5.781   6.329  2.2337 -4.6561 -3.2393
  719MOL0     H94860  12.331   5.623   6.356  1.1023  0.8146 -2.6594
  719MOL0     H94861  12.210   5.558   6.573  0.3459 -0.8405  1.3576
  719MOL0     H94862  12.100   5.743   6.897  1.2199 -0.6272  0.4011
  719MOL0     H94863  12.191   5.598   6.885 -0.0428 -0.6294 -0.5220
  719MOL0     H94864  12.015   5.483   6.735 -1.4577 -1.3829  1.3086
  719MOL0     H94865  11.921   5.634   6.721 -2.0931 -0.9810  0.6077
  719MOL0     H94866  11.842   5.453   6.877  1.1378 -1.0070 -1.8405
  719MOL0     H94867  11.963   5.517   6.988  1.4366  0.0984 -0.6183
  719MOL0     H94868  11.875   5.740   6.971 -0.8019 -0.0650 -1.4693
  719MOL0     H94869  11.757   5.628   7.034  0.5226  2.2388  0.8300
  719MOL0     H94870  11.602   5.469   6.930 -1.8587  0.0267  1.7437
  719MOL0     H94871  11.350   5.439   6.916  2.8983 -1.2007  1.5323
  719MOL0     H94872  10.930   5.640   6.938 -1.3752 -0.1843  1.3004
  719MOL0     H94873  10.687   5.627   6.916  0.3373  1.3293 -1.0405
  719MOL0     H94874  10.516   5.245   6.741  1.4013  0.4472  2.4854
  719MOL0     H94875  10.513   5.398   6.631 -0.9874  1.0255 -0.4811
  719MOL0     H94876  10.294   5.315   6.828 -3.7609  1.7189 -0.6587
  719MOL0     H94877  10.295   5.313   6.648  1.1525  0.2584 -0.9330
  719MOL0     H94878  10.322   5.551   6.658  1.1027 -1.7574  0.1781
  719MOL0     H94879  10.342   5.545   6.835  0.2080 -1.1146  0.3684
  719MOL0     H94880  10.087   5.426   6.751  0.1923 -0.4442  0.4613
  719MOL0     H94881  10.126   5.507   6.897 -0.4056 -0.2729  0.2324
  719MOL0     H94882  10.107   5.665   6.638  0.7039 -1.8590 -0.1515
  719MOL0     H94883  10.129   5.726   6.806  1.9435 -2.0786  0.5235
  719MOL0     H94884   9.916   5.665   6.888 -0.9204  3.0362 -0.2416
  719MOL0     H94885   9.887   5.565   6.742 -1.5558 -0.6325  3.0185
  719MOL0     H94886   9.909   5.869   6.715 -0.2768 -0.0139  2.8973
  719MOL0     H94887   9.841   5.747   6.610 -0.8224 -1.3299  0.0982
  719MOL0     H94888   9.728   5.843   6.874  0.5826 -3.3645  1.2257
  719MOL0     H94889   9.684   5.688   6.807  1.0778 -0.7998  0.9723
  719MOL0     H94890  10.723   5.257   6.710 -3.6778  2.1788  1.4238
  719MOL0     H94891  10.984   5.290   6.705  0.5512  0.6067  0.4138
  719MOL0     H94892  11.348   5.806   6.678 -0.0644 -1.2593 -3.6061
  719MOL0     H94893  11.571   5.822   6.698  2.0605 -0.0480  1.0237
  719MOL0     H94894  11.517   6.124   5.631  1.9628 -1.6942 -2.2088
  719MOL0     H94895  11.293   6.068   5.697 -3.0703 -3.7408 -0.5095
  719MOL0     H94896  10.973   5.924   5.792 -2.2057 -2.5354 -1.3347
  719MOL0     H94897  10.729   5.908   5.803 -1.4309 -2.6008 -0.3658
  719MOL0     H94898  10.498   5.822   5.842  2.9503  1.7552 -2.1334
  719MOL0     H94899  10.530   5.966   5.901 -0.5028 -1.3923 -2.4821
  719MOL0     H94900  10.333   5.768   6.017  1.9359 -0.3567 -1.1577
  719MOL0     H94901  10.359   5.917   6.106 -1.3348  0.8484 -0.2574
  719MOL0     H94902  10.151   5.898   5.977 -1.4498  0.8616 -0.9954
  719MOL0     H94903  10.228   5.874   5.831  2.1588 -0.4863  0.1726
  719MOL0     H94904  10.233   6.128   6.000  0.7576  0.1225 -0.4906
  719MOL0     H94905  10.339   6.112   5.857  0.0138  0.7170 -0.3072
  719MOL0     H94906   9.977   6.241   5.706 -1.0755 -1.0739  0.6206
  719MOL0     H94907  10.771   5.716   6.191  0.5359  3.1601  2.3832
  719MOL0     H94908  11.021   5.742   6.176  0.1937 -0.5018 -1.0833
  720MOL0     O94909   5.323   4.163  10.090  0.5280  0.6986 -0.4710
  720MOL0     C94910   5.446   4.166  10.069 -0.1924  1.2479  0.4381
  720MOL0     O94911   5.513   4.088   9.969  0.1644 -0.6122  0.3778
  720MOL0     C94912   5.436   4.035   9.869 -0.5209  0.2519  0.7765
  720MOL0     C94913   5.321   4.097   9.807  1.0009  0.5916  0.4875
  720MOL0     C94914   5.256   4.039   9.696 -0.4105 -0.4399 -0.5529
  720MOL0     C94915   5.286   3.901   9.667  0.1904  0.3015 -0.2758
  720MOL0     O94916   5.222   3.829   9.576  0.2393  0.8287 -0.1931
  720MOL0     C94917   5.271   3.827   9.439 -0.5221 -0.4141  0.6164
  720MOL0     C94918   5.181   3.743   9.338  0.0979 -0.6458 -0.1466
  720MOL0     C94919   5.118   3.621   9.411  0.8176  0.2227  0.1315
  720MOL0     C94920   5.056   3.528   9.311 -0.6360  0.3648 -0.4892
  720MOL0     C94921   5.017   3.389   9.371 -0.0015 -0.3693  0.4625
  720MOL0     C94922   5.141   3.298   9.371 -0.5287 -0.4917  0.1750
  720MOL0     C94923   5.092   3.155   9.400  0.1590 -0.3780  0.5657
  720MOL0     C94924   5.033   3.086   9.275 -0.2947 -0.0669  0.2918
  720MOL0     N94925   5.018   2.943   9.294  0.2788  0.3327 -0.1686
  720MOL0     C94926   5.084   2.845   9.219 -0.1733 -0.5942  0.8083
  720MOL0     C94927   5.031   2.731   9.254 -0.0635  0.2151  0.0046
  720MOL0     C94928   5.047   2.596   9.196 -0.9510  0.0024  0.7371
  720MOL0     C94929   5.030   2.595   9.046 -0.2043  0.2328 -0.2052
  720MOL0     C94930   5.089   2.458   8.999  0.2041 -1.4569  0.2651
  720MOL0     C94931   5.026   2.412   8.871 -0.3838 -0.7005 -0.3284
  720MOL0     O94932   5.057   2.508   8.770 -0.1527 -0.8168  0.6983
  720MOL0     C94933   4.992   2.501   8.648  0.0858 -0.2115 -0.0658
  720MOL0     C94934   4.929   2.388   8.596 -0.2677 -0.4038  0.3370
  720MOL0     C94935   4.880   2.383   8.461 -0.7889 -0.0793  0.2125
  720MOL0     C94936   4.866   2.508   8.389  0.2472  1.2623 -0.1875
  720MOL0     C94937   4.782   2.515   8.264  0.0219 -0.3170 -0.3427
  720MOL0     O94938   4.760   2.394   8.206  0.5853 -0.4719 -0.1108
  720MOL0     C94939   4.664   2.376   8.104 -0.6654  0.1414 -0.6563
  720MOL0     C94940   4.694   2.312   7.985 -0.2160 -0.6088  0.0004
  720MOL0     C94941   4.600   2.285   7.888  0.1187  0.5639 -0.1835
  720MOL0     C94942   4.469   2.334   7.903  0.6806  0.6880  0.7719
  720MOL0     O94943   4.371   2.314   7.806 -0.7537 -0.3752  0.2307
  720MOL0     C94944   4.376   2.208   7.716  0.4293 -0.0831  0.1440
  720MOL0     C94945   4.237   2.142   7.717  0.3353 -0.1155  0.0313
  720MOL0     C94946   4.140   2.242   7.648 -0.2648  0.5855 -0.5485
  720MOL0     C94947   4.002   2.174   7.614 -0.1238 -0.3055 -0.4736
  720MOL0     C94948   3.914   2.287   7.559  0.3111 -0.7348  1.2672
  720MOL0     C94949   3.763   2.253   7.558  0.1496 -0.5434 -0.0756
  720MOL0     C94950   3.738   2.145   7.449 -0.2078  0.3295 -0.6852
  720MOL0     C94951   3.589   2.140   7.415 -0.0469  0.5128  0.1512
  720MOL0    Cl94952   3.486   2.102   7.555  0.0926  0.2711 -0.2880
  720MOL0     C94953   4.434   2.398   8.018 -0.5694  0.1253  1.6854
  720MOL0     C94954   4.532   2.419   8.115  0.3345 -0.0434 -0.5982
  720MOL0     O94955   4.723   2.623   8.241 -0.2866  0.1004  0.2748
  720MOL0     C94956   4.935   2.620   8.441  0.6314 -0.3760 -0.7755
  720MOL0     C94957   4.998   2.615   8.569  0.2944  0.3378 -0.5638
  720MOL0     N94958   4.939   2.759   9.354 -0.2166  0.2551 -0.0196
  720MOL0     N94959   4.928   2.882   9.373  0.2645 -0.3758  0.4930
  720MOL0     C94960   5.403   3.850   9.719  1.2863 -0.6397 -0.3460
  720MOL0     C94961   5.483   3.918   9.819  0.3451 -0.4282 -0.8937
  720MOL0     C94962   5.529   4.253  10.151 -0.6385  0.0786 -0.5022
  720MOL0     C94963   5.673   4.256  10.127  0.7873 -0.0055 -0.9668
  720MOL0     C94964   5.756   4.338  10.208 -0.7341  0.2580 -0.1757
  720MOL0     C94965   5.697   4.411  10.319 -0.2471  0.3348  0.2686
  720MOL0     O94966   5.788   4.486  10.385  0.0736 -0.8584  0.1886
  720MOL0     C94967   5.772   4.485  10.532  0.2321 -0.8728  0.6325
  720MOL0     C94968   5.900   4.506  10.606 -0.3173 -0.4440  0.1863
  720MOL0     C94969   5.942   4.651  10.591 -0.6741  0.3632  0.5097
  720MOL0     C94970   6.026   4.672  10.466 -0.0640  0.9621  0.9886
  720MOL0     C94971   6.157   4.718  10.503  0.7238 -0.2829 -0.2469
  720MOL0     C94972   6.263   4.760  10.538 -0.1837 -0.5513  0.3694
  720MOL0     C94973   5.561   4.403  10.341  0.0821 -0.4172 -0.4203
  720MOL0     C94974   5.475   4.331  10.257  0.3072 -0.0282  0.5034
  720MOL0     H94975   5.288   4.188   9.856 -2.2785 -0.5703  0.6710
  720MOL0     H94976   5.170   4.094   9.657 -0.4182  0.7216  0.9853
  720MOL0     H94977   5.376   3.797   9.443 -0.6354 -1.1757 -1.2490
  720MOL0     H94978   5.273   3.934   9.415  1.7741 -0.2684  1.2247
  720MOL0     H94979   5.246   3.712   9.255  0.7784 -1.4179  0.6604
  720MOL0     H94980   5.108   3.815   9.300 -0.1037  1.0792  3.1256
  720MOL0     H94981   5.048   3.638   9.494  0.5586  0.7879 -0.1923
  720MOL0     H94982   5.211   3.577   9.446  2.1004  2.0319 -0.8337
  720MOL0     H94983   4.963   3.580   9.285 -0.2576  2.0447  1.2858
  720MOL0     H94984   5.122   3.521   9.224 -0.5023 -1.4832 -0.2978
  720MOL0     H94985   4.938   3.346   9.309  2.2561 -0.7152 -2.3821
  720MOL0     H94986   4.987   3.391   9.476 -0.7058 -0.2749  0.2663
  720MOL0     H94987   5.221   3.333   9.437  0.0648 -1.7586  0.1619
  720MOL0     H94988   5.189   3.290   9.273  3.3189 -2.6134  1.9728
  720MOL0     H94989   5.182   3.098   9.425  1.4721  1.1395 -0.5387
  720MOL0     H94990   5.038   3.158   9.495 -0.9967 -0.4407 -0.0664
  720MOL0     H94991   5.099   3.094   9.188  0.3404  0.3557  0.8006
  720MOL0     H94992   4.935   3.130   9.255 -0.5193 -0.9728 -0.6736
  720MOL0     H94993   5.162   2.866   9.146  1.9268  0.0771  3.1043
  720MOL0     H94994   4.978   2.525   9.241  2.0139 -2.6251  1.5318
  720MOL0     H94995   5.147   2.562   9.226 -0.3796 -0.0416 -1.0843
  720MOL0     H94996   5.069   2.684   8.996 -1.0322  0.1346 -1.0454
  720MOL0     H94997   4.922   2.611   9.048 -0.7702 -2.8734  1.8914
  720MOL0     H94998   5.197   2.470   8.987  0.0491  0.4326  0.3324
  720MOL0     H94999   5.074   2.381   9.074 -2.1593 -3.5264 -2.1270
  720MOL0     H95000   4.921   2.385   8.887 -0.0316 -1.4597  0.8641
  720MOL0     H95001   5.082   2.318   8.862  1.5578 -0.0748  3.2679
  720MOL0     H95002   4.935   2.300   8.658  1.1129  0.2163  1.1216
  720MOL0     H95003   4.831   2.294   8.424 -0.6499  1.1531 -3.3071
  720MOL0     H95004   4.797   2.281   7.968  0.2843 -0.9099  3.0194
  720MOL0     H95005   4.623   2.221   7.804  0.6117 -1.1757  1.2082
  720MOL0     H95006   4.455   2.134   7.731  0.4845 -0.3287 -1.2298
  720MOL0     H95007   4.386   2.252   7.617 -1.5122  2.8383  1.1173
  720MOL0     H95008   4.209   2.116   7.819  1.4109 -1.1790  0.0784
  720MOL0     H95009   4.240   2.051   7.656 -0.9139  0.5856 -1.1363
  720MOL0     H95010   4.189   2.271   7.554 -1.3474  0.3205 -1.2112
  720MOL0     H95011   4.127   2.331   7.710  0.8344  1.0944 -1.0030
  720MOL0     H95012   4.019   2.093   7.544 -1.7682 -1.1297  0.0227
  720MOL0     H95013   3.951   2.139   7.704 -3.0995  2.9765 -0.6727
  720MOL0     H95014   3.957   2.312   7.462  1.0457 -0.1230  1.7442
  720MOL0     H95015   3.917   2.371   7.629 -3.6530  0.1734  0.6166
  720MOL0     H95016   3.704   2.344   7.545 -0.2379 -0.7141  0.4734
  720MOL0     H95017   3.739   2.211   7.656 -1.3045  0.0314 -0.1582
  720MOL0     H95018   3.787   2.180   7.358  0.5171 -1.0943 -0.8701
  720MOL0     H95019   3.766   2.043   7.477  0.0476  0.9180  1.3981
  720MOL0     H95020   3.593   2.055   7.346 -0.0824  0.5182  0.1421
  720MOL0     H95021   3.545   2.228   7.366 -0.3827  0.0324 -0.4396
  720MOL0     H95022   4.335   2.441   8.023 -1.1657 -0.7569 -0.8844
  720MOL0     H95023   4.507   2.472   8.206  0.2037 -0.0537 -0.6283
  720MOL0     H95024   4.933   2.712   8.384 -0.8083  0.2370  0.2119
  720MOL0     H95025   5.063   2.692   8.610  0.6183 -0.5872  0.6968
  720MOL0     H95026   5.433   3.747   9.701  1.3032 -0.6827 -0.0831
  720MOL0     H95027   5.568   3.876   9.872 -0.3810 -0.0255  0.6658
  720MOL0     H95028   5.710   4.193  10.047  3.5166  1.8416 -1.2885
  720MOL0     H95029   5.861   4.351  10.185 -0.9005 -1.4352 -2.1277
  720MOL0     H95030   5.730   4.389  10.565 -0.7854 -1.1287 -1.2549
  720MOL0     H95031   5.701   4.564  10.558 -1.8037 -1.9145 -1.3378
  720MOL0     H95032   5.859   4.488  10.705 -0.9235  1.9638  0.4495
  720MOL0     H95033   5.977   4.433  10.577 -1.0796 -0.7882 -1.0184
  720MOL0     H95034   5.996   4.681  10.680 -0.7008  0.5994  0.4464
  720MOL0     H95035   5.852   4.712  10.576 -1.7587 -0.3918  3.2731
  720MOL0     H95036   6.043   4.579  10.411  0.2840  0.8445  1.2944
  720MOL0     H95037   5.983   4.741  10.393  0.8909  0.7528  0.2171
  720MOL0     H95038   6.354   4.801  10.576 -0.5526  0.4731  0.1677
  720MOL0     H95039   5.517   4.454  10.426 -0.1443 -2.3679  0.6754
  720MOL0     H95040   5.369   4.311  10.273  1.1240 -1.9331  4.8766
  721MOL0     O95041   0.170   2.932   7.721  0.1034  0.1359 -0.6401
  721MOL0     C95042   0.118   2.857   7.802  0.0388 -0.1388 -0.3006
  721MOL0     O95043   0.179   2.771   7.884  0.0128 -0.6853  0.2290
  721MOL0     C95044   0.301   2.719   7.870 -0.7808  0.5509 -0.6348
  721MOL0     C95045   0.340   2.650   7.752  0.6237  0.0733  1.0604
  721MOL0     C95046   0.464   2.591   7.748 -0.8515  0.9500  0.5757
  721MOL0     C95047   0.545   2.587   7.857  0.6561 -0.0567 -0.3224
  721MOL0     O95048   0.667   2.524   7.871 -0.5615  0.5172 -0.6041
  721MOL0     C95049   0.736   2.485   7.746  0.5327 -0.1482 -0.3707
  721MOL0     C95050   0.879   2.435   7.772  0.7228 -0.0707  0.0169
  721MOL0     C95051   0.964   2.529   7.868  0.4295  0.8124 -0.1723
  721MOL0     C95052   1.110   2.479   7.877 -0.3957 -0.1257  0.0867
  721MOL0     C95053   1.201   2.587   7.802 -0.5401  0.2223  0.0144
  721MOL0     C95054   1.352   2.553   7.802  0.0430  0.7939 -0.2662
  721MOL0     C95055   1.423   2.575   7.665  0.3365 -0.3794 -0.5994
  721MOL0     C95056   1.571   2.573   7.667 -0.5393 -0.8382 -0.2690
  721MOL0     N95057   1.637   2.457   7.713 -0.1425  0.9529 -1.4830
  721MOL0     C95058   1.755   2.432   7.788  0.3373 -0.0103  0.2162
  721MOL0     C95059   1.756   2.304   7.805  0.2340 -0.5942 -0.3177
  721MOL0     C95060   1.854   2.225   7.889  0.8682 -0.6537  0.5649
  721MOL0     C95061   1.827   2.237   8.039  0.3743 -0.1635 -0.9873
  721MOL0     C95062   1.739   2.122   8.089 -0.1473  0.7540 -0.1104
  721MOL0     C95063   1.592   2.142   8.072 -0.0993 -0.3866  0.1367
  721MOL0     O95064   1.529   2.045   8.155  0.3741 -0.3234  0.3032
  721MOL0     C95065   1.395   2.062   8.171  0.0715  0.2004  0.4217
  721MOL0     C95066   1.311   2.153   8.109 -0.1946  0.6292 -0.1565
  721MOL0     C95067   1.169   2.154   8.131  0.1811  0.4115  0.0310
  721MOL0     C95068   1.117   2.064   8.224  0.0151  0.4052 -0.6374
  721MOL0     C95069   0.978   2.076   8.270 -1.0162 -1.2270 -0.5351
  721MOL0     O95070   0.955   2.021   8.395  0.2826  0.1601 -0.3579
  721MOL0     C95071   0.831   2.041   8.439 -0.6651  1.1185 -0.4203
  721MOL0     C95072   0.737   1.936   8.442  0.0289 -0.6845 -0.2362
  721MOL0     C95073   0.614   1.943   8.503  0.1991 -0.0330 -0.2063
  721MOL0     C95074   0.578   2.067   8.559 -0.3402  0.3352  0.9466
  721MOL0     O95075   0.463   2.079   8.631  0.0648 -0.1114  0.2044
  721MOL0     C95076   0.355   2.152   8.573 -0.1415  0.2232  0.4058
  721MOL0     C95077   0.282   2.219   8.679  0.7014 -0.0085  0.3404
  721MOL0     C95078   0.159   2.283   8.618 -0.8137 -0.4957  0.0526
  721MOL0     C95079   0.049   2.180   8.606 -0.9145  1.1758 -0.3661
  721MOL0     C95080  -0.070   2.246   8.547 -0.0342  0.8392  0.1494
  721MOL0     C95081  -0.178   2.148   8.523 -0.1266 -0.5881  0.3581
  721MOL0     C95082  -0.271   2.218   8.420  0.1799  0.1016  0.1434
  721MOL0     C95083  -0.369   2.109   8.354 -0.1637  0.4622  0.8852
  721MOL0    Cl95084  -0.479   2.051   8.480  0.2239 -0.1237 -0.1573
  721MOL0     C95085   0.665   2.178   8.553 -0.2785  1.2286 -0.7514
  721MOL0     C95086   0.794   2.166   8.503 -0.0092  0.3435  0.1191
  721MOL0     O95087   0.896   2.127   8.194 -0.0969  0.1697 -0.3269
  721MOL0     C95088   1.203   1.984   8.298 -0.1964 -0.1041 -0.1372
  721MOL0     C95089   1.341   1.984   8.269  0.1732 -0.2419 -0.0234
  721MOL0     N95090   1.649   2.244   7.744 -0.6330  0.1833 -0.3985
  721MOL0     N95091   1.579   2.331   7.683 -0.1407  0.6701 -0.1477
  721MOL0     C95092   0.499   2.641   7.982 -0.4434  1.0065  0.0851
  721MOL0     C95093   0.381   2.702   7.982 -0.2770  0.6139  0.5349
  721MOL0     C95094  -0.029   2.875   7.820  0.3608  0.7769 -0.0678
  721MOL0     C95095  -0.089   2.802   7.921  0.7274  0.2193  0.0324
  721MOL0     C95096  -0.232   2.806   7.940  0.4999  0.7277 -0.5085
  721MOL0     C95097  -0.312   2.881   7.856  0.0126  0.0724 -0.2897
  721MOL0     O95098  -0.450   2.883   7.855 -0.3343 -0.5713  0.1621
  721MOL0     C95099  -0.535   2.823   7.955  0.4430 -0.3792 -0.2586
  721MOL0     C95100  -0.587   2.931   8.045 -0.7013 -0.4860 -0.1741
  721MOL0     C95101  -0.696   2.887   8.137 -0.3105 -0.3926 -0.4914
  721MOL0     C95102  -0.774   3.011   8.187 -0.3098 -0.0329 -0.2402
  721MOL0     C95103  -0.698   3.114   8.255 -0.8454 -0.3094 -0.2313
  721MOL0     C95104  -0.652   3.207   8.323  0.1792 -0.2957 -0.4311
  721MOL0     C95105  -0.256   2.937   7.747 -0.2102 -0.3279 -0.4224
  721MOL0     C95106  -0.111   2.943   7.730 -0.1240 -0.1533  0.1230
  721MOL0     H95107   0.276   2.664   7.666  2.6423  1.4993 -0.3199
  721MOL0     H95108   0.499   2.539   7.659 -0.8018 -2.4884  2.4369
  721MOL0     H95109   0.741   2.578   7.689 -0.9482  1.4103  1.8795
  721MOL0     H95110   0.685   2.408   7.687 -0.5943  0.7895 -0.6509
  721MOL0     H95111   0.936   2.428   7.679 -0.2415  3.0053 -0.9397
  721MOL0     H95112   0.870   2.334   7.814 -1.6320 -0.6826 -1.7594
  721MOL0     H95113   0.918   2.527   7.967 -2.3552 -1.0385 -1.3638
  721MOL0     H95114   0.959   2.635   7.844 -0.7058  0.2276 -3.0348
  721MOL0     H95115   1.145   2.460   7.979  1.0610 -2.2807 -0.7327
  721MOL0     H95116   1.123   2.377   7.839  2.7188 -0.5421  1.9055
  721MOL0     H95117   1.185   2.689   7.838  3.0069  0.9093 -0.0209
  721MOL0     H95118   1.169   2.581   7.697 -0.8845 -1.0937  0.1737
  721MOL0     H95119   1.361   2.451   7.843 -2.2199  1.4619  2.2384
  721MOL0     H95120   1.396   2.622   7.875  0.6840  0.9214 -0.7684
  721MOL0     H95121   1.387   2.502   7.593  0.3844 -0.3028 -0.7022
  721MOL0     H95122   1.390   2.671   7.623  1.3954 -0.0758 -0.7739
  721MOL0     H95123   1.590   2.663   7.726 -1.4685 -1.6710  1.3825
  721MOL0     H95124   1.592   2.597   7.562 -0.0470 -0.0425  0.0020
  721MOL0     H95125   1.816   2.511   7.832 -1.1675  1.3458 -0.0128
  721MOL0     H95126   1.957   2.253   7.864 -0.2874  2.3235 -1.4074
  721MOL0     H95127   1.850   2.122   7.852  2.5839 -0.5311 -0.0600
  721MOL0     H95128   1.782   2.334   8.064 -0.0479 -1.2338  3.1788
  721MOL0     H95129   1.920   2.227   8.096  0.6085 -0.7568 -1.4671
  721MOL0     H95130   1.755   2.027   8.038 -1.2498 -0.6891  2.0623
  721MOL0     H95131   1.771   2.106   8.192 -1.1454 -0.8403 -0.0149
  721MOL0     H95132   1.557   2.147   7.968 -1.4936  0.7984  0.6146
  721MOL0     H95133   1.576   2.247   8.100  4.3176  0.6113 -0.3977
  721MOL0     H95134   1.340   2.229   8.037  0.7374  0.3999 -0.0303
  721MOL0     H95135   1.112   2.231   8.079  0.9577  1.6084  0.8777
  721MOL0     H95136   0.770   1.845   8.393 -2.9915 -0.9365 -2.0197
  721MOL0     H95137   0.544   1.861   8.491 -2.3870  1.8762  0.8566
  721MOL0     H95138   0.294   2.075   8.526  2.1800 -2.2009  1.1265
  721MOL0     H95139   0.386   2.233   8.505  1.8738  1.7247  2.9085
  721MOL0     H95140   0.340   2.300   8.723 -0.0898  0.3894  0.6596
  721MOL0     H95141   0.255   2.142   8.752 -0.6611  1.8518  1.8774
  721MOL0     H95142   0.190   2.310   8.516  2.8435 -0.6333  0.9680
  721MOL0     H95143   0.128   2.372   8.673 -3.6263 -0.4371 -1.4596
  721MOL0     H95144   0.073   2.094   8.543 -2.0089  0.1323  0.5840
  721MOL0     H95145   0.026   2.139   8.705 -1.4029 -0.4427 -1.1092
  721MOL0     H95146  -0.037   2.276   8.447  0.1984  0.5022  0.1216
  721MOL0     H95147  -0.107   2.329   8.607  0.3805  0.9427  0.2656
  721MOL0     H95148  -0.235   2.141   8.616 -3.1709  2.8105 -1.0095
  721MOL0     H95149  -0.143   2.052   8.486 -1.4648 -1.5225  1.4170
  721MOL0     H95150  -0.329   2.294   8.472 -1.7108  0.6491 -2.5299
  721MOL0     H95151  -0.217   2.265   8.337 -0.3795  4.4737  1.9874
  721MOL0     H95152  -0.312   2.022   8.325 -3.5704 -1.9099  0.6908
  721MOL0     H95153  -0.419   2.140   8.262 -1.8708 -0.1803  1.5545
  721MOL0     H95154   0.633   2.269   8.603 -0.8417  1.8292 -2.1578
  721MOL0     H95155   0.859   2.252   8.504 -0.6408  0.8376 -0.4194
  721MOL0     H95156   1.169   1.924   8.382 -0.1190  0.4130  0.2648
  721MOL0     H95157   1.410   1.931   8.333 -1.0232 -1.0753  0.6068
  721MOL0     H95158   0.561   2.635   8.072  0.2732 -0.8142 -0.4735
  721MOL0     H95159   0.358   2.759   8.072  2.1092  1.1816  0.8441
  721MOL0     H95160  -0.029   2.738   7.985 -0.4815  1.2269  2.3191
  721MOL0     H95161  -0.278   2.726   7.998  1.5905 -0.7823 -1.6157
  721MOL0     H95162  -0.486   2.740   8.005  2.0033 -0.2332 -1.4824
  721MOL0     H95163  -0.622   2.787   7.898 -1.0539  0.7011  1.2421
  721MOL0     H95164  -0.509   2.968   8.112 -2.2199  1.0944  0.7971
  721MOL0     H95165  -0.612   3.009   7.972 -1.0048 -0.3269  0.0987
  721MOL0     H95166  -0.652   2.833   8.221 -1.7159 -0.9474 -0.0874
  721MOL0     H95167  -0.757   2.811   8.087  1.8080 -1.4904 -1.5455
  721MOL0     H95168  -0.816   3.066   8.102 -0.7821  0.6760  0.4323
  721MOL0     H95169  -0.861   2.971   8.239  1.8074 -2.3059  1.8140
  721MOL0     H95170  -0.627   3.293   8.382 -4.3241  2.1218 -1.5444
  721MOL0     H95171  -0.317   2.987   7.672  0.1225  0.1023 -0.4142
  721MOL0     H95172  -0.069   3.004   7.650  0.0046 -2.3990 -1.6134
  722MOL0     O95173   4.590   0.307   6.701 -0.2727  0.8070 -0.0396
  722MOL0     C95174   4.599   0.185   6.705  0.9854  0.5165 -0.8473
  722MOL0     O95175   4.484   0.096   6.686  0.3679 -0.4622  0.1005
  722MOL0     C95176   4.361   0.141   6.666  0.1446 -0.1998 -0.2327
  722MOL0     C95177   4.302   0.249   6.737  0.2653 -1.2332  0.3062
  722MOL0     C95178   4.166   0.288   6.707 -0.8503  0.0784  0.0734
  722MOL0     C95179   4.090   0.226   6.614 -0.1168  0.5441 -0.3884
  722MOL0     O95180   3.959   0.268   6.593  0.0926 -0.5672  0.1321
  722MOL0     C95181   3.905   0.254   6.460 -0.5080  0.2158 -0.6249
  722MOL0     C95182   3.785   0.338   6.450 -0.6818  0.0680  0.0530
  722MOL0     C95183   3.668   0.268   6.505 -0.1773 -1.4868  0.7581
  722MOL0     C95184   3.535   0.337   6.471 -0.4410 -0.4483  0.6063
  722MOL0     C95185   3.421   0.271   6.550 -0.1057  0.3845 -1.3558
  722MOL0     C95186   3.301   0.369   6.575  0.3271  0.5218 -0.7812
  722MOL0     C95187   3.178   0.276   6.602  1.1488 -0.6240 -0.0572
  722MOL0     C95188   3.058   0.363   6.627  0.4675 -0.0878  1.1388
  722MOL0     N95189   2.921   0.304   6.642 -0.9094  0.4609  0.5266
  722MOL0     C95190   2.887   0.217   6.743 -0.8966  0.3020  0.8581
  722MOL0     C95191   2.770   0.159   6.703 -0.0945 -0.4652  0.0818
  722MOL0     C95192   2.695   0.048   6.763  0.6736  0.5027  0.5909
  722MOL0     C95193   2.553   0.103   6.810  0.2946 -0.0380 -0.4634
  722MOL0     C95194   2.445   0.087   6.712  1.3204 -0.5643  0.2691
  722MOL0     C95195   2.312   0.123   6.764  0.4395 -0.6655 -0.5596
  722MOL0     O95196   2.263   0.024   6.858  0.0329  0.5595  0.0260
  722MOL0     C95197   2.128   0.012   6.870  0.0624 -0.4558 -0.0199
  722MOL0     C95198   2.040  -0.001   6.761 -0.6512  0.4934 -0.7027
  722MOL0     C95199   1.905  -0.012   6.771 -0.0546 -0.1299  0.8029
  722MOL0     C95200   1.851   0.006   6.903  0.7714  0.3877 -0.4070
  722MOL0     C95201   1.705   0.001   6.933  0.6464  0.6442  0.7871
  722MOL0     O95202   1.663  -0.004   7.059  0.1232 -0.8294  0.3684
  722MOL0     C95203   1.529  -0.007   7.092  0.6967 -0.3417 -1.1563
  722MOL0     C95204   1.371   0.008   6.959  0.4232  0.0353 -0.2059
  722MOL0     C95205   1.167  -0.010   7.027 -0.0319 -0.1000  0.3162
  722MOL0     C95206   1.130  -0.035   7.231  0.9691  0.6734 -0.3409
  722MOL0     O95207   0.999  -0.040   7.275 -0.0276  0.5128 -0.2503
  722MOL0     C95208   0.979  -0.073   7.416 -0.4906 -0.3597 -0.9066
  722MOL0     C95209   0.824  -0.110   7.429 -0.7957  0.0646 -0.6469
  722MOL0     C95210   0.784  -0.248   7.379  0.2847  0.7223 -0.0542
  722MOL0     C95211   0.630  -0.261   7.361 -0.2695 -0.3218 -0.1096
  722MOL0     C95212   0.611  -0.392   7.292 -0.0404  0.0067 -0.9171
  722MOL0     C95213   0.455  -0.416   7.285 -0.8446  0.4499  0.4044
  722MOL0     C95214   0.424  -0.552   7.214 -0.5498 -0.9604 -0.0766
  722MOL0     C95215   0.284  -0.605   7.246 -0.3978  0.4815  0.5511
  722MOL0    Cl95216   0.253  -0.752   7.163  0.3700  0.4915 -0.1952
  722MOL0     C95217   1.284  -0.054   7.368 -0.3403  1.1375  0.3754
  722MOL0     C95218   1.484  -0.043   7.305 -0.6303  0.2263 -0.5227
  722MOL0     O95219   1.629  -0.005   6.837  0.3211 -0.7207  0.8143
  722MOL0     C95220   1.935   0.021   7.015 -0.0251 -0.4905  0.2894
  722MOL0     C95221   2.072   0.029   6.998 -0.0897  0.3753  0.7696
  722MOL0     N95222   2.732   0.222   6.587 -0.1403 -0.0830  0.1700
  722MOL0     N95223   2.823   0.293   6.543 -0.2736  0.0029 -0.6698
  722MOL0     C95224   4.143   0.112   6.548 -0.4340  0.7991  0.6434
  722MOL0     C95225   4.271   0.066   6.595  0.1755 -0.4165 -0.5792
  722MOL0     C95226   4.730   0.113   6.723 -0.5610  0.6967 -0.0029
  722MOL0     C95227   4.842   0.188   6.737 -0.9006 -0.7261 -0.5256
  722MOL0     C95228   4.975   0.135   6.732  0.5665  0.4650 -0.2578
  722MOL0     C95229   4.984  -0.004   6.709 -0.5222  0.4473 -0.9171
  722MOL0     O95230   5.114  -0.053   6.690  0.0230  0.2752  0.4742
  722MOL0     C95231   5.147  -0.186   6.651 -0.3644  0.8237  0.9377
  722MOL0     C95232   5.175  -0.265   6.774  0.0962  0.0834  0.7334
  722MOL0     C95233   5.292  -0.214   6.853 -0.6031 -1.2623 -0.1022
  722MOL0     C95234   5.434  -0.261   6.818  0.0103  0.4364  0.3711
  722MOL0     C95235   5.471  -0.198   6.690  0.0099 -0.4026  0.3421
  722MOL0     C95236   5.495  -0.166   6.577  0.1975 -0.9933  0.7772
  722MOL0     C95237   4.871  -0.082   6.695 -0.4173  0.3666 -0.1412
  722MOL0     C95238   4.740  -0.023   6.697  0.3757 -0.6966 -0.1579
  722MOL0     H95239   4.363   0.308   6.804 -1.4836  1.7319 -0.5301
  722MOL0     H95240   4.142   0.389   6.739  1.6116  1.6648 -2.5441
  722MOL0     H95241   3.887   0.147   6.446  5.1046 -1.2834  0.8957
  722MOL0     H95242   3.979   0.294   6.389 -0.4792 -0.8037 -1.1796
  722MOL0     H95243   3.767   0.358   6.344 -0.3309  0.8891  0.1443
  722MOL0     H95244   3.807   0.433   6.500  0.1626 -0.3212  0.4512
  722MOL0     H95245   3.686   0.275   6.612  1.3184  2.5416  0.4343
  722MOL0     H95246   3.671   0.164   6.472  0.0649 -0.4866 -2.9365
  722MOL0     H95247   3.538   0.442   6.499 -0.4697  0.0592 -1.1884
  722MOL0     H95248   3.504   0.343   6.366  1.7538  1.7927 -0.0023
  722MOL0     H95249   3.455   0.235   6.648 -2.1810 -2.1091 -1.4694
  722MOL0     H95250   3.397   0.175   6.504 -2.1123 -0.5878  1.4453
  722MOL0     H95251   3.279   0.426   6.484  1.5920 -0.1852 -1.5636
  722MOL0     H95252   3.313   0.440   6.657  1.9894 -1.6928  1.0367
  722MOL0     H95253   3.157   0.214   6.514 -0.2145 -1.0561  0.5538
  722MOL0     H95254   3.185   0.212   6.690  0.9810 -0.0391  0.3824
  722MOL0     H95255   3.050   0.418   6.533 -0.3138 -0.3829  1.0302
  722MOL0     H95256   3.081   0.439   6.703  0.2566 -1.5264  2.7219
  722MOL0     H95257   2.948   0.197   6.831 -1.3083  2.0006  1.5723
  722MOL0     H95258   2.742   0.006   6.853 -3.0483  1.9748  3.5118
  722MOL0     H95259   2.672  -0.037   6.699  1.9721 -0.8622  1.8817
  722MOL0     H95260   2.560   0.207   6.843 -0.9891 -0.1310  0.1979
  722MOL0     H95261   2.530   0.034   6.892  3.6984  2.3838  2.8352
  722MOL0     H95262   2.458   0.154   6.627 -0.9345 -1.5946 -1.0013
  722MOL0     H95263   2.447  -0.014   6.669  3.5413 -0.3292 -0.3080
  722MOL0     H95264   2.242   0.140   6.681  0.6517  1.5028 -0.3675
  722MOL0     H95265   2.306   0.221   6.813 -1.6019 -0.6881 -0.6831
  722MOL0     H95266   2.088  -0.027   6.667 -1.0190  1.3299 -1.1328
  722MOL0     H95267   1.840  -0.034   6.686  0.8779  2.5715 -0.7436
  722MOL0     H95268   1.385   0.011   6.851 -2.6509 -1.3864 -0.7600
  722MOL0     H95269   1.081   0.003   6.963  0.5798 -1.0262 -0.7329
  722MOL0     H95270   0.995   0.017   7.475  2.4473 -0.4623 -1.3799
  722MOL0     H95271   1.032  -0.163   7.449 -2.1244 -1.7221 -1.8535
  722MOL0     H95272   0.770  -0.028   7.380  1.2670 -0.0069 -3.3065
  722MOL0     H95273   0.798  -0.109   7.535  1.1936 -0.4888 -0.1212
  722MOL0     H95274   0.817  -0.328   7.446  0.4768  0.8733  0.0326
  722MOL0     H95275   0.846  -0.271   7.292  1.7246  2.2189  0.5175
  722MOL0     H95276   0.586  -0.258   7.461 -1.6676  1.7754 -0.7080
  722MOL0     H95277   0.605  -0.182   7.289  1.8529  0.1035 -0.4396
  722MOL0     H95278   0.663  -0.468   7.351  1.4031  2.0219  0.5741
  722MOL0     H95279   0.663  -0.385   7.196  3.4403 -0.4282  0.7753
  722MOL0     H95280   0.400  -0.342   7.227  2.0406 -0.0037 -3.2746
  722MOL0     H95281   0.425  -0.432   7.389 -0.0988  0.7316  0.6668
  722MOL0     H95282   0.428  -0.541   7.105  3.8612  1.5091  0.1105
  722MOL0     H95283   0.506  -0.618   7.245  0.0378 -1.3778 -2.3562
  722MOL0     H95284   0.210  -0.532   7.209  1.7582  2.1148 -0.7562
  722MOL0     H95285   0.272  -0.615   7.354  0.2699  1.9168  0.7811
  722MOL0     H95286   1.262  -0.061   7.474 -0.2926 -2.0960  0.2748
  722MOL0     H95287   1.569  -0.058   7.370 -0.2773  0.6115 -0.8933
  722MOL0     H95288   1.895   0.029   7.115 -2.1669  2.4230 -0.6799
  722MOL0     H95289   2.128   0.052   7.087 -0.9924 -4.2770  2.8216
  722MOL0     H95290   4.077   0.048   6.490 -0.5030  0.4429  1.1004
  722MOL0     H95291   4.316  -0.023   6.552 -3.0224 -0.4405 -4.6187
  722MOL0     H95292   4.839   0.296   6.749  1.6486 -0.7848  1.3369
  722MOL0     H95293   5.065   0.194   6.725  0.6055  0.1795 -3.0569
  722MOL0     H95294   5.231  -0.198   6.582  0.5842 -0.4562  2.2633
  722MOL0     H95295   5.065  -0.242   6.605  2.1611 -0.9460 -1.7790
  722MOL0     H95296   5.090  -0.263   6.842  1.6636 -0.7302  2.8304
  722MOL0     H95297   5.185  -0.372   6.753  0.4116  0.3964 -0.9028
  722MOL0     H95298   5.276  -0.241   6.958 -0.4752  0.6608  0.4405
  722MOL0     H95299   5.295  -0.105   6.857  2.2583 -1.2999  0.7087
  722MOL0     H95300   5.506  -0.229   6.893  0.6212  2.3901 -0.9787
  722MOL0     H95301   5.422  -0.370   6.816 -3.6691  0.6980 -0.2685
  722MOL0     H95302   5.513  -0.146   6.473  1.5111 -2.5154  0.6699
  722MOL0     H95303   4.873  -0.189   6.674  0.2638 -0.8088  4.5933
  722MOL0     H95304   4.654  -0.083   6.671  0.2992 -1.9170  2.5049
  723MOL0     O95305   9.692   8.184   7.001 -0.1189  0.3056 -1.5093
  723MOL0     C95306   9.780   8.256   7.046 -0.0673 -0.0055 -0.6130
  723MOL0     O95307   9.761   8.374   7.106 -0.0443  0.1187 -0.3251
  723MOL0     C95308   9.633   8.423   7.133 -0.3625 -0.2783 -0.0229
  723MOL0     C95309   9.588   8.415   7.260  0.2482  0.9313 -1.0104
  723MOL0     C95310   9.466   8.465   7.307 -0.3619  0.0218  0.0970
  723MOL0     C95311   9.381   8.521   7.214 -0.1298  0.8872 -0.2693
  723MOL0     O95312   9.254   8.565   7.230  0.3311 -0.0422  0.4698
  723MOL0     C95313   9.179   8.575   7.352  0.0846  0.0412  0.6775
  723MOL0     C95314   9.039   8.634   7.324 -0.4019  1.0274 -0.2068
  723MOL0     C95315   8.946   8.533   7.247 -0.5130  0.7758 -0.1975
  723MOL0     C95316   8.826   8.601   7.198  1.3263 -0.2367  0.2780
  723MOL0     C95317   8.734   8.492   7.138  0.4600  0.2740  0.4283
  723MOL0     C95318   8.597   8.557   7.127 -1.2174  0.0448 -0.5150
  723MOL0     C95319   8.497   8.444   7.098  0.0027  0.1328 -0.5393
  723MOL0     C95320   8.352   8.496   7.089  0.1009  0.1973 -0.4730
  723MOL0     N95321   8.273   8.375   7.121 -0.0464  0.1756 -0.0332
  723MOL0     C95322   8.249   8.328   7.248 -0.1506  0.0916  0.2394
  723MOL0     C95323   8.213   8.198   7.216  0.0674 -0.4296  0.3462
  723MOL0     C95324   8.177   8.092   7.309 -0.1332 -0.6270  0.1707
  723MOL0     C95325   8.024   8.067   7.326 -0.0759  0.2736 -0.6440
  723MOL0     C95326   7.963   7.998   7.208  0.1973 -0.4469 -0.1827
  723MOL0     C95327   7.819   7.963   7.233  0.7465 -0.5542 -0.4833
  723MOL0     O95328   7.746   8.068   7.298 -0.0508 -0.0229 -0.6452
  723MOL0     C95329   7.609   8.054   7.319  0.1370  0.1399  0.5703
  723MOL0     C95330   7.529   7.940   7.291 -0.0642  0.9600  0.1053
  723MOL0     C95331   7.389   7.945   7.315  0.4607 -1.1021  0.3239
  723MOL0     C95332   7.325   8.054   7.380  0.3276  0.0064 -0.5221
  723MOL0     C95333   7.179   8.059   7.413 -0.3927 -0.1258 -0.2330
  723MOL0     O95334   7.113   7.945   7.398 -0.7476 -0.3451  0.7094
  723MOL0     C95335   6.987   7.942   7.456  0.6546  0.6181  0.7806
  723MOL0     C95336   6.883   8.008   7.398  0.1740  0.3678 -0.2016
  723MOL0     C95337   6.752   7.996   7.440  0.0430  0.1329 -0.4032
  723MOL0     C95338   6.718   7.915   7.549 -0.8775 -0.0698  0.0387
  723MOL0     O95339   6.589   7.913   7.577 -0.3493  0.1301 -0.1663
  723MOL0     C95340   6.540   7.795   7.630 -0.1632  0.1197  0.1743
  723MOL0     C95341   6.386   7.810   7.629 -1.0831  0.0912  0.7591
  723MOL0     C95342   6.336   7.812   7.485  0.6380 -0.1362  0.2519
  723MOL0     C95343   6.187   7.778   7.488 -0.0649  0.0285  1.3917
  723MOL0     C95344   6.100   7.857   7.589 -0.9570  0.2290 -0.2119
  723MOL0     C95345   5.952   7.832   7.572  0.7270 -0.0826 -0.3838
  723MOL0     C95346   5.876   7.938   7.659  0.1346  0.5221  0.1603
  723MOL0     C95347   5.725   7.900   7.663 -0.4334  0.2003 -0.2625
  723MOL0    Cl95348   5.708   7.745   7.758 -0.6691 -0.6668  0.3480
  723MOL0     C95349   6.825   7.845   7.621 -1.6005  0.4360 -0.8056
  723MOL0     C95350   6.960   7.865   7.569  0.1130 -0.2181  0.0627
  723MOL0     O95351   7.127   8.170   7.448 -0.0479  0.9666 -0.0293
  723MOL0     C95352   7.405   8.166   7.410 -0.4799  0.4040 -0.2130
  723MOL0     C95353   7.546   8.165   7.380 -0.8855 -0.1798 -0.4206
  723MOL0     N95354   8.207   8.172   7.082 -0.0719 -0.8954 -0.2379
  723MOL0     N95355   8.243   8.283   7.025  0.1631  0.0754  0.9401
  723MOL0     C95356   9.423   8.531   7.082  0.7689 -0.1250 -0.6142
  723MOL0     C95357   9.548   8.488   7.044 -0.1895  0.6172  0.6252
  723MOL0     C95358   9.924   8.213   7.023 -0.7250  1.0282  0.3159
  723MOL0     C95359   9.973   8.087   6.978 -0.2719 -0.1105  0.2160
  723MOL0     C95360  10.108   8.045   6.978 -0.2884  0.6133 -1.1710
  723MOL0     C95361  10.200   8.138   7.025  0.2278  0.4474  0.4813
  723MOL0     O95362  10.329   8.108   7.011  0.2258  0.1667 -0.3351
  723MOL0     C95363  10.401   8.213   6.946 -0.3367 -0.1983 -0.2239
  723MOL0     C95364  10.501   8.164   6.845 -0.4040  0.1907  0.0313
  723MOL0     C95365  10.646   8.138   6.885  0.2829  0.1646 -0.4539
  723MOL0     C95366  10.734   8.075   6.774 -0.1871  0.1323 -0.1227
  723MOL0     C95367  10.749   8.150   6.646  0.0203  0.5775  0.8143
  723MOL0     C95368  10.772   8.206   6.545 -0.2734  0.1372 -0.2397
  723MOL0     C95369  10.161   8.262   7.078  0.4039  0.3756 -0.3219
  723MOL0     C95370  10.025   8.298   7.083 -0.3599  0.2774 -0.9108
  723MOL0     H95371   9.651   8.373   7.337 -0.3743  0.9055 -0.5106
  723MOL0     H95372   9.427   8.461   7.408 -0.3672  2.2858  0.2286
  723MOL0     H95373   9.220   8.651   7.420 -1.6302  1.5591  0.0863
  723MOL0     H95374   9.175   8.475   7.396 -2.6894 -0.2539 -0.0562
  723MOL0     H95375   9.044   8.728   7.269  1.8683  0.7181 -0.6332
  723MOL0     H95376   8.997   8.640   7.425  3.7128  0.7659  1.7536
  723MOL0     H95377   8.909   8.459   7.318 -1.5704 -0.1361 -1.6480
  723MOL0     H95378   8.994   8.486   7.160 -0.9145 -0.6798  0.3478
  723MOL0     H95379   8.774   8.651   7.281 -1.9341 -1.5406 -0.8402
  723MOL0     H95380   8.847   8.680   7.125  1.9003 -0.6334  0.0031
  723MOL0     H95381   8.730   8.405   7.205  1.4257 -2.3137 -2.6220
  723MOL0     H95382   8.774   8.462   7.041 -1.0930 -0.9174  0.1114
  723MOL0     H95383   8.601   8.639   7.055  0.7094  1.1917  0.7714
  723MOL0     H95384   8.563   8.606   7.219 -2.3143  1.4398 -1.6228
  723MOL0     H95385   8.518   8.396   7.002 -0.7800  2.1891 -1.8094
  723MOL0     H95386   8.507   8.363   7.171  0.4094  0.4074 -0.2831
  723MOL0     H95387   8.336   8.539   6.990  3.4693 -1.3745 -1.8784
  723MOL0     H95388   8.325   8.564   7.170  1.5131 -0.8883  0.9907
  723MOL0     H95389   8.267   8.375   7.344  3.0733 -1.4297  0.5071
  723MOL0     H95390   8.231   8.096   7.404  3.8278 -1.7631 -1.8258
  723MOL0     H95391   8.221   7.999   7.275  0.1025 -1.1608  1.8244
  723MOL0     H95392   7.977   8.164   7.343  2.5950  1.2969  1.7139
  723MOL0     H95393   8.011   8.015   7.421  3.2460  1.1844  0.4391
  723MOL0     H95394   7.969   8.074   7.130 -1.5757  1.1937  1.2061
  723MOL0     H95395   8.009   7.903   7.177  1.4836 -0.1646  0.7372
  723MOL0     H95396   7.816   7.877   7.301 -0.7662  1.0036  1.5383
  723MOL0     H95397   7.779   7.934   7.135  1.1615  0.4874 -0.9845
  723MOL0     H95398   7.574   7.847   7.256 -0.5105  1.1963 -1.1708
  723MOL0     H95399   7.325   7.862   7.286  0.2921 -1.1734  0.8744
  723MOL0     H95400   6.905   8.074   7.315  1.6001 -1.3102 -1.2255
  723MOL0     H95401   6.669   8.051   7.396 -1.1042  0.0723  1.5648
  723MOL0     H95402   6.570   7.775   7.733 -1.7839 -3.2797  0.1243
  723MOL0     H95403   6.573   7.708   7.572  2.3540  1.7176 -0.9497
  723MOL0     H95404   6.360   7.902   7.682 -1.0912  1.6996 -1.8670
  723MOL0     H95405   6.346   7.716   7.668  3.1600 -1.8279  1.0608
  723MOL0     H95406   6.390   7.740   7.424  0.4035 -0.0529 -0.0551
  723MOL0     H95407   6.345   7.918   7.457 -1.3629 -0.0007  0.0111
  723MOL0     H95408   6.152   7.798   7.386 -0.0236  0.3822  1.4465
  723MOL0     H95409   6.172   7.671   7.507 -1.0970 -0.3582 -1.1985
  723MOL0     H95410   6.118   7.964   7.582 -0.7094  0.2524  0.6411
  723MOL0     H95411   6.136   7.822   7.687  0.5901 -1.6511 -1.3757
  723MOL0     H95412   5.934   7.727   7.599 -1.5267 -0.2908 -2.3796
  723MOL0     H95413   5.929   7.848   7.466  2.2999 -0.2443 -0.7769
  723MOL0     H95414   5.923   7.946   7.757  1.0470  2.4700 -0.3846
  723MOL0     H95415   5.897   8.034   7.612  0.6016  0.4368  0.1865
  723MOL0     H95416   5.683   7.896   7.563 -0.3473 -0.5553 -0.2716
  723MOL0     H95417   5.664   7.971   7.722 -1.2338  1.0439 -2.0390
  723MOL0     H95418   6.798   7.786   7.708  2.4056 -2.3361 -1.1607
  723MOL0     H95419   7.044   7.810   7.611  2.1966  2.0685 -0.8622
  723MOL0     H95420   7.354   8.256   7.441 -2.1081  0.6641 -3.1722
  723MOL0     H95421   7.596   8.251   7.423 -0.6637  0.1257 -1.2839
  723MOL0     H95422   9.356   8.580   7.013  0.4705  1.3363  0.6430
  723MOL0     H95423   9.579   8.500   6.940 -3.6343  1.7618 -0.4358
  723MOL0     H95424   9.895   8.019   6.945 -2.4255  1.7360  1.2617
  723MOL0     H95425  10.122   7.953   6.921 -2.9336  1.1125 -2.7821
  723MOL0     H95426  10.447   8.288   7.011 -0.4788  1.6215 -2.1267
  723MOL0     H95427  10.328   8.269   6.885  1.1582  0.7788 -1.1809
  723MOL0     H95428  10.468   8.065   6.815  0.9830 -0.0714 -0.7472
  723MOL0     H95429  10.503   8.237   6.764 -0.9157  3.3634  2.6609
  723MOL0     H95430  10.650   8.064   6.965  2.0739 -1.1531 -1.6830
  723MOL0     H95431  10.689   8.237   6.904  2.0683 -0.9951  2.0450
  723MOL0     H95432  10.833   8.071   6.820 -0.8507 -2.1449  1.2471
  723MOL0     H95433  10.697   7.974   6.756  0.6184  0.2842 -3.2634
  723MOL0     H95434  10.794   8.253   6.451  1.1140 -0.2661 -0.1475
  723MOL0     H95435  10.236   8.327   7.122 -0.0817  0.7583 -0.0459
  723MOL0     H95436  10.006   8.394   7.130 -0.8493 -0.9257  1.4955
  724MOL0     O95437   1.686  10.033   2.603 -0.5145 -0.0383  0.6587
  724MOL0     C95438   1.791  10.054   2.671 -0.0224 -0.2072 -0.2749
  724MOL0     O95439   1.818  10.174   2.732  0.1601  0.0257 -0.1919
  724MOL0     C95440   1.733  10.287   2.748  0.0578 -0.0971  0.5598
  724MOL0     C95441   1.686  10.326   2.877 -0.3173  0.5815  0.9380
  724MOL0     C95442   1.592  10.425   2.888  0.0446 -0.5223  1.5478
  724MOL0     C95443   1.546  10.494   2.771  0.2182  0.3599 -0.2996
  724MOL0     O95444   1.455  10.599   2.773 -0.2513  0.3422  0.2461
  724MOL0     C95445   1.378  10.622   2.897 -0.0238 -0.4950  0.0316
  724MOL0     C95446   1.286  10.505   2.950 -0.4264 -0.0295  0.1101
  724MOL0     C95447   1.147  10.518   2.883 -0.2512  0.1762 -1.1045
  724MOL0     C95448   1.067  10.392   2.911 -1.0014 -0.1598  0.1363
  724MOL0     C95449   0.925  10.412   2.871  0.5527 -0.1323  0.3319
  724MOL0     C95450   0.896  10.398   2.719 -0.7685  0.5586 -0.0236
  724MOL0     C95451   0.757  10.364   2.688  0.8738 -0.4436 -0.0901
  724MOL0     C95452   0.654  10.480   2.690 -0.2337  0.6658  0.0328
  724MOL0     N95453   0.518  10.439   2.670 -0.1803 -0.0728 -0.4855
  724MOL0     C95454   0.427  10.467   2.569  0.3749  0.4140  0.4042
  724MOL0     C95455   0.304  10.416   2.608 -0.3920  0.1535  0.8214
  724MOL0     C95456   0.163  10.426   2.559 -0.3983  0.1627 -0.2177
  724MOL0     C95457   0.107  10.291   2.519  0.0139  0.1262  0.0034
  724MOL0     C95458  -0.020  10.307   2.443  0.1711  0.1700  0.0913
  724MOL0     C95459  -0.134  10.370   2.521 -0.4156 -0.7474 -0.0270
  724MOL0     O95460  -0.242  10.406   2.431 -0.1591 -0.4244 -0.3131
  724MOL0     C95461  -0.374  10.426   2.480 -0.5309 -0.3726 -0.2215
  724MOL0     C95462  -0.420  10.422   2.618 -0.3613  0.8621  0.5907
  724MOL0     C95463  -0.551  10.446   2.648 -0.1576  0.6252  0.6315
  724MOL0     C95464  -0.638  10.482   2.553  0.5595  0.8196  0.8282
  724MOL0     C95465  -0.773  10.523   2.598 -0.5807 -0.2172  0.0955
  724MOL0     O95466  -0.834  10.482   2.709  0.0178 -0.3518 -0.0880
  724MOL0     C95467  -0.970  10.509   2.723  0.6927 -1.4129 -0.2376
  724MOL0     C95468  -1.024  10.570   2.836  0.4513  0.6471  0.0960
  724MOL0     C95469  -1.166  10.589   2.844 -0.1304  1.0150 -0.0919
  724MOL0     C95470  -1.248  10.552   2.740 -0.3284  0.0585  0.1715
  724MOL0     O95471  -1.386  10.581   2.733 -0.0708  0.4272 -0.2164
  724MOL0     C95472  -1.432  10.702   2.794  0.1765  0.1049  0.2540
  724MOL0     C95473  -1.586  10.721   2.771 -0.3506  0.3719  0.5125
  724MOL0     C95474  -1.602  10.869   2.783 -0.4523  0.3777 -0.4902
  724MOL0     C95475  -1.749  10.919   2.754  0.1980  0.2796 -0.8981
  724MOL0     C95476  -1.766  11.070   2.789  0.8797  0.6615  0.2304
  724MOL0     C95477  -1.915  11.114   2.812  0.1966  0.5153  0.9397
  724MOL0     C95478  -1.998  11.108   2.671 -0.3734  0.4883 -0.1542
  724MOL0     C95479  -2.150  11.135   2.688  0.5982  0.1382  0.3001
  724MOL0    Cl95480  -2.219  11.126   2.518 -0.0964  0.5792 -0.2676
  724MOL0     C95481  -1.190  10.480   2.624  0.4757 -0.0535  0.1449
  724MOL0     C95482  -1.057  10.466   2.616  0.2402 -0.4594  0.0623
  724MOL0     O95483  -0.821  10.604   2.521 -0.0519 -0.5746  0.0393
  724MOL0     C95484  -0.597  10.495   2.418 -0.8435 -1.4341  0.8288
  724MOL0     C95485  -0.470  10.465   2.384 -0.4096 -0.0301  0.2975
  724MOL0     N95486   0.327  10.356   2.727  0.4488 -0.3804  0.6540
  724MOL0     N95487   0.452  10.372   2.762  0.6311 -0.3667 -0.0696
  724MOL0     C95488   1.580  10.447   2.649 -0.1045 -0.2753 -0.1575
  724MOL0     C95489   1.671  10.339   2.631 -0.3390  0.0992  0.4489
  724MOL0     C95490   1.876   9.937   2.682 -0.0839 -0.3235 -0.2344
  724MOL0     C95491   1.988   9.946   2.774 -0.0897 -0.3737  0.0448
  724MOL0     C95492   2.087   9.843   2.780 -0.4339 -0.3363  0.6949
  724MOL0     C95493   2.084   9.730   2.697  0.2204 -0.0355  0.1297
  724MOL0     O95494   2.178   9.631   2.713  0.7283  0.1751 -1.1018
  724MOL0     C95495   2.125   9.500   2.724 -0.4292  0.6137  0.9192
  724MOL0     C95496   2.165   9.439   2.861 -1.3166 -0.9826 -0.5548
  724MOL0     C95497   2.232   9.311   2.845 -0.1613  0.5019 -0.5128
  724MOL0     C95498   2.278   9.248   2.977  0.8497  0.2980  0.9706
  724MOL0     C95499   2.173   9.200   3.060  0.5541 -0.1671 -0.1302
  724MOL0     C95500   2.086   9.154   3.136 -0.1049  0.3799 -0.1153
  724MOL0     C95501   1.966   9.724   2.615  0.1818  0.0991  0.3945
  724MOL0     C95502   1.866   9.821   2.601 -0.8151  0.1266 -0.0056
  724MOL0     H95503   1.731  10.277   2.962 -0.0944 -3.2916 -1.2078
  724MOL0     H95504   1.562  10.464   2.985 -0.2227  0.3207  1.1378
  724MOL0     H95505   1.312  10.705   2.874 -1.0324 -1.2562  0.1232
  724MOL0     H95506   1.450  10.647   2.976  0.1762  0.7998 -0.5488
  724MOL0     H95507   1.267  10.522   3.056 -1.1507 -0.0727 -0.0094
  724MOL0     H95508   1.335  10.407   2.942  0.0687  0.3037 -1.2662
  724MOL0     H95509   1.172  10.515   2.777  3.6969 -1.2131 -0.2878
  724MOL0     H95510   1.101  10.614   2.907  2.0382  1.2316 -0.7317
  724MOL0     H95511   1.115  10.306   2.862 -1.3382 -0.8247  0.9419
  724MOL0     H95512   1.065  10.366   3.018  0.8628 -0.2189  0.1878
  724MOL0     H95513   0.894  10.506   2.917  1.1615 -1.6858  4.4319
  724MOL0     H95514   0.863  10.335   2.918  0.0253  1.2534  2.0371
  724MOL0     H95515   0.952  10.314   2.678 -2.0832 -0.4798  0.2333
  724MOL0     H95516   0.929  10.496   2.682  1.3153 -0.2751 -0.5281
  724MOL0     H95517   0.750  10.329   2.585 -1.1754  1.7569 -0.7624
  724MOL0     H95518   0.738  10.275   2.749 -0.1701  2.1084  3.6363
  724MOL0     H95519   0.668  10.546   2.604 -1.9368 -0.7631 -1.4132
  724MOL0     H95520   0.664  10.540   2.781 -2.2458  1.0639  0.0380
  724MOL0     H95521   0.449  10.502   2.468 -1.7555  0.8447  0.0329
  724MOL0     H95522   0.166  10.501   2.480  1.4336 -1.6875 -2.0499
  724MOL0     H95523   0.102  10.469   2.639  0.7696  1.2779  0.1095
  724MOL0     H95524   0.097  10.223   2.604  0.6285 -1.6321 -1.2708
  724MOL0     H95525   0.171  10.230   2.454 -1.5901 -3.0482  1.1510
  724MOL0     H95526   0.009  10.384   2.370 -0.0097 -0.1017 -0.2706
  724MOL0     H95527  -0.046  10.216   2.388  0.7340 -0.1430  0.3409
  724MOL0     H95528  -0.093  10.462   2.563  3.0636 -2.8879  1.7010
  724MOL0     H95529  -0.170  10.303   2.600  1.5328  2.2130  3.6588
  724MOL0     H95530  -0.356  10.387   2.698  0.4016  0.1152 -0.3282
  724MOL0     H95531  -0.578  10.439   2.753  1.7857 -1.4083  1.0537
  724MOL0     H95532  -0.948  10.601   2.906 -0.3619 -0.7760  1.6955
  724MOL0     H95533  -1.205  10.646   2.928  0.4764  0.2652  0.7292
  724MOL0     H95534  -1.381  10.789   2.751 -2.1407  1.0781 -0.6700
  724MOL0     H95535  -1.404  10.698   2.899  3.3271 -1.1143 -0.4888
  724MOL0     H95536  -1.650  10.680   2.849 -0.1135 -2.0458 -0.4600
  724MOL0     H95537  -1.621  10.679   2.677  0.6300 -2.5713  1.3605
  724MOL0     H95538  -1.537  10.927   2.718 -1.2478  1.5417 -0.2907
  724MOL0     H95539  -1.580  10.902   2.885  0.6957  1.8332 -1.1789
  724MOL0     H95540  -1.772  10.884   2.653  3.9631 -2.1955 -1.1180
  724MOL0     H95541  -1.816  10.862   2.819  1.1956 -0.1350 -0.1871
  724MOL0     H95542  -1.724  11.134   2.710  2.8200  0.2532  0.8678
  724MOL0     H95543  -1.712  11.098   2.881 -0.6178  1.8454  0.7950
  724MOL0     H95544  -1.919  11.217   2.849  2.1792  0.7175  0.7079
  724MOL0     H95545  -1.972  11.047   2.877 -3.1155  0.4743 -1.7475
  724MOL0     H95546  -1.959  11.180   2.598 -0.9138  1.5951  0.6116
  724MOL0     H95547  -1.977  11.009   2.631  1.2633  0.4192  0.7889
  724MOL0     H95548  -2.159  11.234   2.735  1.5164  0.3569  0.0186
  724MOL0     H95549  -2.203  11.074   2.762 -0.4255  0.6491  0.0196
  724MOL0     H95550  -1.259  10.443   2.550  0.1167 -1.9454  1.3720
  724MOL0     H95551  -1.033  10.429   2.516  0.4186 -0.6281  0.1675
  724MOL0     H95552  -0.660  10.530   2.337  0.1671  2.3843  1.4894
  724MOL0     H95553  -0.441  10.468   2.280 -2.0187  0.5256 -0.1621
  724MOL0     H95554   1.533  10.493   2.562  1.8605 -0.0849 -1.1580
  724MOL0     H95555   1.696  10.309   2.530 -2.0902 -1.6783  0.4775
  724MOL0     H95556   2.012  10.037   2.829 -1.9940  0.5726 -0.6083
  724MOL0     H95557   2.164   9.841   2.857 -0.4186  1.9952  0.8124
  724MOL0     H95558   2.153   9.431   2.644 -1.2385  1.4018 -0.0725
  724MOL0     H95559   2.016   9.507   2.727 -0.6353 -1.0959 -0.5633
  724MOL0     H95560   2.221   9.513   2.919 -0.1454 -1.4535 -1.0463
  724MOL0     H95561   2.076   9.424   2.923 -0.4885 -0.9689  0.6715
  724MOL0     H95562   2.325   9.319   2.787  0.2499 -1.6354 -0.2369
  724MOL0     H95563   2.170   9.242   2.787 -0.0120 -1.1099  1.1660
  724MOL0     H95564   2.357   9.173   2.967 -0.5922 -1.3564  1.4078
  724MOL0     H95565   2.321   9.333   3.031  0.0212  1.1988  0.2404
  724MOL0     H95566   2.000   9.110   3.183 -0.1782 -0.1779 -0.7434
  724MOL0     H95567   1.953   9.634   2.555  0.8980 -0.7395  1.4488
  724MOL0     H95568   1.784   9.807   2.531 -1.1215 -2.3382  0.7427
  725MOL0     O95569   3.629   0.943   7.611 -0.3987 -0.4801 -0.1177
  725MOL0     C95570   3.621   0.928   7.733  1.3228  0.4472 -0.4401
  725MOL0     O95571   3.519   0.861   7.791 -0.1895 -0.0741 -0.6689
  725MOL0     C95572   3.399   0.818   7.725 -1.3725 -0.7170 -0.5497
  725MOL0     C95573   3.291   0.795   7.812  0.2706  0.0045  0.7872
  725MOL0     C95574   3.168   0.777   7.755 -0.2512 -0.5284  1.0924
  725MOL0     C95575   3.155   0.764   7.617  0.0149 -0.0254  0.4189
  725MOL0     O95576   3.037   0.757   7.547 -0.0500  0.3928 -0.1074
  725MOL0     C95577   2.913   0.735   7.612 -0.2124 -0.8113  0.0799
  725MOL0     C95578   2.791   0.791   7.527 -0.6627  1.0067  0.1598
  725MOL0     C95579   2.667   0.772   7.610  0.0035  0.0900 -0.2440
  725MOL0     C95580   2.554   0.868   7.545  0.1218 -0.1224 -0.8637
  725MOL0     C95581   2.414   0.825   7.591 -0.5070  0.3520  0.3731
  725MOL0     C95582   2.393   0.861   7.739  0.8306  0.3574  0.6352
  725MOL0     C95583   2.259   0.819   7.799 -0.6697 -0.2066 -0.3128
  725MOL0     C95584   2.140   0.897   7.736 -0.4271  0.4069  0.1610
  725MOL0     N95585   2.011   0.845   7.776  0.0439  0.3042  0.3821
  725MOL0     C95586   1.986   0.750   7.876  0.0288  0.0408 -0.6228
  725MOL0     C95587   1.851   0.743   7.878 -0.0266 -0.0989  0.1984
  725MOL0     C95588   1.772   0.647   7.968 -0.9666 -0.0881  0.4463
  725MOL0     C95589   1.615   0.664   7.950  0.3911  0.7220 -0.5311
  725MOL0     C95590   1.552   0.646   8.086 -0.0357 -0.5346  0.2398
  725MOL0     C95591   1.574   0.508   8.138  0.5994 -0.2446  0.3066
  725MOL0     O95592   1.479   0.484   8.243  0.3493 -0.9530 -0.3135
  725MOL0     C95593   1.362   0.412   8.211  0.1308 -0.2149  0.2375
  725MOL0     C95594   1.305   0.399   8.078  0.2110  0.2444 -1.1516
  725MOL0     C95595   1.187   0.325   8.063 -0.5943  0.9541 -0.1074
  725MOL0     C95596   1.117   0.271   8.179  0.5966 -0.0458 -0.4508
  725MOL0     C95597   0.997   0.193   8.156  0.1466  0.6718 -0.0486
  725MOL0     O95598   0.952   0.115   8.260 -0.0643 -0.0868  0.2333
  725MOL0     C95599   0.826   0.062   8.268 -0.1272  0.3338 -0.6644
  725MOL0     C95600   0.711   0.084   8.195 -0.2321  0.1115 -0.6972
  725MOL0     C95601   0.588   0.027   8.232  0.1778 -0.3061  0.1701
  725MOL0     C95602   0.574  -0.046   8.348  0.5429 -1.0167  0.2367
  725MOL0     O95603   0.449  -0.084   8.385  0.2589  0.6442  0.4251
  725MOL0     C95604   0.440  -0.200   8.469 -0.3301  0.3655 -0.5478
  725MOL0     C95605   0.299  -0.256   8.474  0.7432  0.5296 -0.1028
  725MOL0     C95606   0.296  -0.364   8.580 -0.2518  0.4470 -0.3751
  725MOL0     C95607   0.166  -0.366   8.655  0.3005 -0.6032  0.3513
  725MOL0     C95608   0.168  -0.489   8.745  0.9782 -0.4091  0.2746
  725MOL0     C95609   0.043  -0.509   8.839 -0.2205 -0.2343  0.7179
  725MOL0     C95610   0.056  -0.596   8.959 -0.4234 -1.0324 -1.1931
  725MOL0     C95611  -0.074  -0.593   9.048 -0.5288 -0.0623  0.2348
  725MOL0    Cl95612  -0.218  -0.632   8.947  0.0288  0.5456  0.0793
  725MOL0     C95613   0.683  -0.063   8.428  0.5263  0.1622  0.3630
  725MOL0     C95614   0.808  -0.008   8.391 -0.8522  1.0080  0.2131
  725MOL0     O95615   0.944   0.208   8.044  0.3997 -0.5719  0.1399
  725MOL0     C95616   1.180   0.281   8.304  0.1139  0.5754 -0.8714
  725MOL0     C95617   1.291   0.360   8.323 -0.7813 -0.8690  0.2436
  725MOL0     N95618   1.798   0.830   7.785 -1.2098  0.9663  0.3884
  725MOL0     N95619   1.896   0.890   7.726  0.7749 -0.8848 -0.1737
  725MOL0     C95620   3.260   0.779   7.532 -0.5424 -0.6974 -0.3555
  725MOL0     C95621   3.390   0.802   7.585 -1.1193 -0.6095  0.4064
  725MOL0     C95622   3.730   0.955   7.821 -0.4556 -0.1621 -0.1868
  725MOL0     C95623   3.857   0.993   7.769 -0.2103 -0.5488 -0.2333
  725MOL0     C95624   3.969   0.993   7.857 -0.1846  0.1358  0.0452
  725MOL0     C95625   3.954   0.978   7.998  0.0215 -0.4402 -0.1210
  725MOL0     O95626   4.062   1.013   8.083  0.1253  0.7797  0.4201
  725MOL0     C95627   4.060   0.980   8.224 -0.0803 -0.4542 -0.1180
  725MOL0     C95628   4.181   1.049   8.281  0.2238  0.0741  0.2900
  725MOL0     C95629   4.302   0.958   8.250 -0.9784  0.5347 -0.0987
  725MOL0     C95630   4.341   0.856   8.368 -0.4620 -0.1275  0.0352
  725MOL0     C95631   4.228   0.794   8.434  0.3574  0.1964  0.3280
  725MOL0     C95632   4.139   0.729   8.495  0.4776  0.0696 -0.2863
  725MOL0     C95633   3.826   0.935   8.049  0.1751  0.6301  0.3641
  725MOL0     C95634   3.721   0.920   7.955  0.2340  0.0768  0.3283
  725MOL0     H95635   3.293   0.806   7.920 -1.5038 -1.7853  1.0456
  725MOL0     H95636   3.076   0.774   7.813  0.2579 -2.9926  1.8947
  725MOL0     H95637   2.909   0.796   7.702  0.1725 -1.8685  0.8347
  725MOL0     H95638   2.904   0.627   7.627  2.0768 -1.1686 -0.7186
  725MOL0     H95639   2.776   0.753   7.426 -1.9953 -3.8135  1.9099
  725MOL0     H95640   2.814   0.898   7.526  3.2890  0.3291  0.9455
  725MOL0     H95641   2.673   0.802   7.715  1.0790  0.4975 -0.4137
  725MOL0     H95642   2.646   0.666   7.593 -0.0827  0.5957 -4.2430
  725MOL0     H95643   2.591   0.966   7.576  1.9075 -1.5016  1.7341
  725MOL0     H95644   2.553   0.857   7.436 -0.2014  0.2089 -0.8964
  725MOL0     H95645   2.394   0.718   7.579 -0.6016  0.5565 -1.6515
  725MOL0     H95646   2.334   0.879   7.539 -2.9914 -3.1314  0.1615
  725MOL0     H95647   2.388   0.970   7.750 -1.0614  0.5539 -1.3997
  725MOL0     H95648   2.470   0.803   7.790  0.3027 -0.4133  0.5814
  725MOL0     H95649   2.252   0.710   7.786  3.0691 -1.0821  3.0186
  725MOL0     H95650   2.249   0.837   7.907 -4.2395 -0.1594 -0.5561
  725MOL0     H95651   2.143   0.877   7.629 -2.2135  1.5500 -0.1508
  725MOL0     H95652   2.144   1.006   7.746 -0.4539  0.5176 -0.8792
  725MOL0     H95653   2.053   0.692   7.938 -0.5788  0.2615  0.2642
  725MOL0     H95654   1.801   0.662   8.072  2.1713  1.4831 -0.5384
  725MOL0     H95655   1.804   0.546   7.942  2.1917  0.7373  0.7422
  725MOL0     H95656   1.581   0.581   7.887 -0.1013 -1.3393  2.2856
  725MOL0     H95657   1.596   0.760   7.902 -2.2721  0.4150 -0.2216
  725MOL0     H95658   1.585   0.731   8.148  1.3416 -1.5252  0.9213
  725MOL0     H95659   1.446   0.668   8.076 -0.0871 -1.4009 -1.4788
  725MOL0     H95660   1.672   0.501   8.185 -0.1298 -0.0336  1.9036
  725MOL0     H95661   1.569   0.432   8.059  0.4970 -0.1029  0.1777
  725MOL0     H95662   1.362   0.447   7.999  2.1456 -0.8561 -0.4971
  725MOL0     H95663   1.152   0.317   7.961  0.1095  2.4130 -0.4843
  725MOL0     H95664   0.713   0.152   8.111 -4.2182  0.8916 -0.3415
  725MOL0     H95665   0.494   0.032   8.176 -0.4824 -0.7676  1.2135
  725MOL0     H95666   0.475  -0.158   8.564  1.4495  0.4791 -1.2003
  725MOL0     H95667   0.512  -0.275   8.434  3.4766  2.1190  2.7532
  725MOL0     H95668   0.267  -0.298   8.378 -0.2930 -1.2354  0.9654
  725MOL0     H95669   0.241  -0.173   8.513  0.4283 -0.1226  0.8712
  725MOL0     H95670   0.358  -0.324   8.660 -1.6397  0.8822  0.5324
  725MOL0     H95671   0.338  -0.462   8.556  0.2096  0.1689  1.4585
  725MOL0     H95672   0.160  -0.273   8.713  1.6096  1.5060 -2.6597
  725MOL0     H95673   0.084  -0.371   8.583  2.4484 -2.2893 -2.1657
  725MOL0     H95674   0.250  -0.472   8.815  2.1470  1.2092 -1.4125
  725MOL0     H95675   0.185  -0.581   8.689 -1.5281 -1.4705  1.0902
  725MOL0     H95676  -0.037  -0.541   8.772  0.2613  1.3993 -0.7327
  725MOL0     H95677   0.026  -0.405   8.869  2.6144  0.0772  1.5658
  725MOL0     H95678   0.082  -0.697   8.927 -0.2699 -0.7311 -2.0490
  725MOL0     H95679   0.133  -0.549   9.020  1.5033 -1.6466 -2.9977
  725MOL0     H95680  -0.087  -0.493   9.092 -1.4215 -0.0784  0.0333
  725MOL0     H95681  -0.067  -0.665   9.130  1.5940  0.0698  0.2297
  725MOL0     H95682   0.669  -0.117   8.521  1.9657  0.6598  0.9128
  725MOL0     H95683   0.895  -0.011   8.457  0.3483 -0.9797 -1.3428
  725MOL0     H95684   1.128   0.242   8.391 -0.7292  0.7376 -1.2936
  725MOL0     H95685   1.319   0.391   8.423  0.0413  1.4238 -0.6479
  725MOL0     H95686   3.247   0.763   7.425  5.6377 -0.1239 -1.5760
  725MOL0     H95687   3.471   0.822   7.516 -2.5320  2.4487 -0.5370
  725MOL0     H95688   3.873   1.021   7.665 -0.8407 -0.6618 -0.3649
  725MOL0     H95689   4.062   1.026   7.812  0.2506 -1.9089 -0.6627
  725MOL0     H95690   4.042   0.874   8.244  2.6805 -0.9875 -0.0300
  725MOL0     H95691   3.978   1.034   8.272  1.8071  2.4603  0.1560
  725MOL0     H95692   4.190   1.147   8.234 -0.1598 -0.1433 -0.2322
  725MOL0     H95693   4.182   1.056   8.391 -0.2685 -2.4249  0.5123
  725MOL0     H95694   4.394   1.018   8.242 -2.2474  3.0704  2.5252
  725MOL0     H95695   4.283   0.905   8.157  2.1174  0.4492 -0.7824
  725MOL0     H95696   4.394   0.770   8.326 -0.0383  0.6500 -1.0797
  725MOL0     H95697   4.405   0.897   8.447 -1.6215 -0.1116  0.9973
  725MOL0     H95698   4.065   0.683   8.558 -0.5907  1.9506 -0.0945
  725MOL0     H95699   3.810   0.912   8.154  0.6280 -2.9027 -0.2262
  725MOL0     H95700   3.637   0.880   8.011  0.6703 -2.5842 -0.7516
  726MOL0     O95701   6.639   8.109   9.379 -0.0335 -0.4826  0.7124
  726MOL0     C95702   6.549   8.038   9.422  0.0274 -1.0567  0.3969
  726MOL0     O95703   6.568   7.927   9.503 -0.5319 -0.2700  0.0452
  726MOL0     C95704   6.692   7.904   9.558 -0.1794  0.9173 -0.4803
  726MOL0     C95705   6.812   7.918   9.489  0.2936 -0.2651  0.2843
  726MOL0     C95706   6.929   7.895   9.546 -0.8247 -0.3399  0.2013
  726MOL0     C95707   6.942   7.846   9.677 -0.7144  0.5176 -0.1226
  726MOL0     O95708   7.057   7.842   9.745  0.6652 -0.2787 -1.1752
  726MOL0     C95709   7.184   7.850   9.686 -0.3357 -0.1727  0.1680
  726MOL0     C95710   7.277   7.809   9.808  0.1272  0.3863 -0.2284
  726MOL0     C95711   7.427   7.798   9.766  0.0278  0.8683  0.7339
  726MOL0     C95712   7.506   7.783   9.898  0.6611 -0.2666  0.7193
  726MOL0     C95713   7.652   7.726   9.866  0.2010  0.3481 -0.3828
  726MOL0     C95714   7.749   7.847   9.839 -0.1209 -0.0808 -0.2122
  726MOL0     C95715   7.897   7.806   9.837 -0.1464  0.2365 -1.2863
  726MOL0     C95716   8.000   7.922   9.868  0.5029  0.4336 -0.3364
  726MOL0     N95717   8.137   7.890   9.827  0.0304  0.0103  0.0809
  726MOL0     C95718   8.164   7.773   9.765 -0.4202  0.3603  1.4489
  726MOL0     C95719   8.291   7.793   9.716  0.6728  0.3291 -0.1614
  726MOL0     C95720   8.355   7.700   9.618  0.0068  0.2130  0.0697
  726MOL0     C95721   8.497   7.742   9.585  0.7874  0.0688  0.1169
  726MOL0     C95722   8.550   7.664   9.467  0.4164  0.0336  0.3770
  726MOL0     C95723   8.694   7.699   9.449  0.4266 -1.0937  0.5672
  726MOL0     O95724   8.745   7.634   9.335 -0.0014  0.3822  0.0030
  726MOL0     C95725   8.877   7.648   9.305  0.2855 -0.6046 -1.3804
  726MOL0     C95726   8.954   7.763   9.334  0.5155 -0.3188  1.0083
  726MOL0     C95727   9.080   7.772   9.278  0.3960  0.9778 -0.5940
  726MOL0     C95728   9.128   7.670   9.198 -0.3459  0.8678  0.0667
  726MOL0     C95729   9.262   7.679   9.144  0.3176 -0.2166  0.2758
  726MOL0     O95730   9.348   7.762   9.226  0.2820 -0.8268  0.8202
  726MOL0     C95731   9.467   7.808   9.173 -0.2632 -0.5535 -0.2616
  726MOL0     C95732   9.495   7.945   9.155 -0.2540  0.3220 -0.2203
  726MOL0     C95733   9.609   7.984   9.098  1.0316 -0.3157  0.3611
  726MOL0     C95734   9.698   7.892   9.053  0.5599 -0.1955  0.6196
  726MOL0     O95735   9.818   7.928   8.997 -0.3473  0.2737 -0.3375
  726MOL0     C95736   9.831   8.065   8.942  0.5197  0.1105 -0.2824
  726MOL0     C95737   9.956   8.073   8.856  0.2597  0.5352  0.5604
  726MOL0     C95738  10.015   8.217   8.846  0.2738 -0.6967  0.1260
  726MOL0     C95739  10.130   8.233   8.746  1.8228 -0.5797  0.0365
  726MOL0     C95740  10.262   8.162   8.781 -0.6128  0.0661  0.5643
  726MOL0     C95741  10.370   8.182   8.672  0.2579  0.0852  0.7379
  726MOL0     C95742  10.504   8.135   8.731  0.2552 -0.4212 -0.7661
  726MOL0     C95743  10.622   8.102   8.636  0.5518  1.0836 -0.1523
  726MOL0    Cl95744  10.587   7.945   8.551 -0.3393 -0.1141 -0.3463
  726MOL0     C95745   9.686   7.756   9.082 -0.2079 -0.6139 -0.5114
  726MOL0     C95746   9.571   7.712   9.140 -0.6473 -0.4701  0.1524
  726MOL0     O95747   9.296   7.610   9.046  0.8864 -0.2141 -0.3546
  726MOL0     C95748   9.051   7.556   9.176 -0.1015 -0.2622  0.0595
  726MOL0     C95749   8.920   7.546   9.232  0.0360  1.2423 -0.6612
  726MOL0     N95750   8.341   7.918   9.751 -0.1966 -0.7011 -0.0229
  726MOL0     N95751   8.241   7.974   9.818 -0.1016 -0.0988 -0.4590
  726MOL0     C95752   6.824   7.827   9.753  0.5653  0.5580 -0.2474
  726MOL0     C95753   6.702   7.859   9.687 -0.9636 -0.8174 -1.1928
  726MOL0     C95754   6.405   8.073   9.396 -0.6489  0.5042  0.5198
  726MOL0     C95755   6.364   8.180   9.318 -0.0896 -0.4297  0.1491
  726MOL0     C95756   6.228   8.218   9.293  0.3192 -0.7594 -1.1708
  726MOL0     C95757   6.128   8.161   9.370  0.0435  0.6987  0.6965
  726MOL0     O95758   5.992   8.189   9.360 -0.2288  0.1679 -0.1801
  726MOL0     C95759   5.948   8.319   9.331 -0.1691 -0.1259  0.0775
  726MOL0     C95760   5.817   8.350   9.404 -0.0180  0.3151 -0.1603
  726MOL0     C95761   5.852   8.353   9.553  0.3942  0.0689 -0.6028
  726MOL0     C95762   5.755   8.410   9.646  0.4940  0.6825  0.9917
  726MOL0     C95763   5.730   8.557   9.636 -0.2799 -0.4267  0.4019
  726MOL0     C95764   5.694   8.669   9.649  1.1543 -0.3498 -0.2424
  726MOL0     C95765   6.170   8.060   9.456 -0.2337  0.8648  0.1833
  726MOL0     C95766   6.302   8.015   9.472 -0.6562  1.1065 -0.1254
  726MOL0     H95767   6.824   7.951   9.386  2.0032  0.0407  0.5547
  726MOL0     H95768   7.021   7.931   9.501  0.0806 -0.7581  1.6701
  726MOL0     H95769   7.220   7.950   9.660  5.7688 -1.8948  0.4512
  726MOL0     H95770   7.187   7.779   9.603  0.5612 -1.4201  1.2122
  726MOL0     H95771   7.247   7.714   9.853 -1.1135  0.1975 -1.3907
  726MOL0     H95772   7.268   7.898   9.871  3.9806  2.3027 -2.0208
  726MOL0     H95773   7.454   7.889   9.712 -0.9425 -0.5046 -2.3311
  726MOL0     H95774   7.437   7.707   9.705 -2.3960  1.3121 -0.4503
  726MOL0     H95775   7.491   7.873   9.958 -1.5745 -0.2974  0.3245
  726MOL0     H95776   7.450   7.705   9.951 -1.8700 -0.8244 -2.4704
  726MOL0     H95777   7.657   7.659   9.780 -0.7868  3.0323 -2.7140
  726MOL0     H95778   7.688   7.678   9.958  3.5412 -1.6776 -2.5204
  726MOL0     H95779   7.731   7.915   9.922 -2.0902  1.7268 -2.0056
  726MOL0     H95780   7.722   7.898   9.746 -0.9192  1.4330  0.8153
  726MOL0     H95781   7.911   7.738   9.920  1.4570  0.6076 -1.2233
  726MOL0     H95782   7.900   7.763   9.736  0.6989 -2.1654 -0.2835
  726MOL0     H95783   8.000   7.935   9.976  2.0630 -0.0222 -0.2536
  726MOL0     H95784   7.956   8.012   9.824 -3.4319 -1.9661 -1.9077
  726MOL0     H95785   8.109   7.681   9.756 -1.4904  1.1817 -2.5753
  726MOL0     H95786   8.288   7.699   9.532 -2.2021 -1.0300  1.6803
  726MOL0     H95787   8.354   7.603   9.669  0.0315  1.0508  1.7403
  726MOL0     H95788   8.559   7.733   9.674  0.3451 -1.4171  0.2962
  726MOL0     H95789   8.498   7.849   9.561 -0.7044  0.7353  2.6194
  726MOL0     H95790   8.545   7.557   9.489  2.4919 -0.0276  0.8084
  726MOL0     H95791   8.498   7.673   9.371  0.2795  0.0181  0.4503
  726MOL0     H95792   8.760   7.692   9.536  1.7497  3.1238  0.1737
  726MOL0     H95793   8.698   7.805   9.419 -1.7022 -0.7923  1.2139
  726MOL0     H95794   8.909   7.845   9.390  2.1356  1.8226 -0.6306
  726MOL0     H95795   9.144   7.854   9.308  0.7587  0.6048 -0.3511
  726MOL0     H95796   9.417   8.016   9.179 -0.4887  0.7411 -2.0605
  726MOL0     H95797   9.620   8.090   9.081 -0.5150 -0.4757 -2.3666
  726MOL0     H95798   9.828   8.128   9.031 -2.9571  0.9871 -0.8647
  726MOL0     H95799   9.742   8.099   8.887  0.5409 -1.1360 -1.1239
  726MOL0     H95800   9.931   8.025   8.761 -0.1760 -1.3706  1.5788
  726MOL0     H95801  10.032   8.006   8.897 -1.1420  0.1750  2.7558
  726MOL0     H95802  10.067   8.245   8.939  0.1475  3.2717 -0.8166
  726MOL0     H95803   9.935   8.289   8.829 -0.5484 -1.3156  1.1963
  726MOL0     H95804  10.097   8.193   8.650 -1.3624  2.3342 -0.2762
  726MOL0     H95805  10.157   8.336   8.723  2.6553 -0.6049  0.8318
  726MOL0     H95806  10.245   8.056   8.800  0.3367 -0.0307  0.9288
  726MOL0     H95807  10.293   8.211   8.874 -0.8673  0.4417  0.4561
  726MOL0     H95808  10.392   8.284   8.637  3.1177 -1.4344 -2.4252
  726MOL0     H95809  10.350   8.127   8.579  0.8284 -0.0280  0.6747
  726MOL0     H95810  10.527   8.217   8.799  0.1855  0.0438 -1.3040
  726MOL0     H95811  10.487   8.043   8.788  0.8055  1.3084  2.4114
  726MOL0     H95812  10.720   8.106   8.684  0.2430  2.4989  0.4033
  726MOL0     H95813  10.628   8.179   8.559  3.5144  0.6828 -0.4313
  726MOL0     H95814   9.767   7.690   9.054  0.0439 -0.3880 -0.3162
  726MOL0     H95815   9.550   7.606   9.151 -3.1506 -0.2067 -1.3137
  726MOL0     H95816   9.088   7.476   9.113 -3.4814 -0.8772 -1.3452
  726MOL0     H95817   8.861   7.455   9.227  1.9621 -0.5068  3.6024
  726MOL0     H95818   6.835   7.785   9.852 -1.8042 -3.5855 -1.4772
  726MOL0     H95819   6.613   7.842   9.746  0.9939 -3.3034  1.2863
  726MOL0     H95820   6.438   8.242   9.269 -1.2071  2.2449  1.6815
  726MOL0     H95821   6.197   8.295   9.223  0.0534 -0.8828 -1.1882
  726MOL0     H95822   5.940   8.328   9.222 -2.1009 -3.6012 -0.2103
  726MOL0     H95823   6.026   8.392   9.355  1.1653 -1.0777 -1.1856
  726MOL0     H95824   5.776   8.443   9.365 -0.9191 -0.2020 -0.4801
  726MOL0     H95825   5.741   8.274   9.385  0.2930  0.0925 -0.5343
  726MOL0     H95826   5.947   8.403   9.570  0.3255  0.0532 -0.1781
  726MOL0     H95827   5.869   8.250   9.584 -1.6140 -0.5506 -1.3596
  726MOL0     H95828   5.660   8.354   9.643  1.8629 -1.7818  1.1016
  726MOL0     H95829   5.783   8.393   9.750 -0.2779 -1.4480  0.9047
  726MOL0     H95830   5.653   8.766   9.668 -3.0093 -1.9251 -0.0548
  726MOL0     H95831   6.081   8.025   9.508 -0.5861  1.6209  0.0913
  726MOL0     H95832   6.321   7.931   9.537  1.1796  1.6914  0.1476
  727MOL0     O95833   5.232   6.149  10.358  0.2834 -0.0954 -0.2061
  727MOL0     C95834   5.272   6.042  10.309  0.0306  0.2627 -0.7354
  727MOL0     O95835   5.199   5.922  10.304 -0.5431  0.4315 -0.4600
  727MOL0     C95836   5.067   5.929  10.346 -0.9455  0.4933  0.4401
  727MOL0     C95837   5.026   5.882  10.479  0.3641  0.5552  0.4020
  727MOL0     C95838   4.891   5.863  10.506  0.0914 -0.7206 -0.8100
  727MOL0     C95839   4.796   5.892  10.407  0.6635 -0.0668 -0.3724
  727MOL0     O95840   4.668   5.864  10.444 -0.0858 -0.6689 -0.2703
  727MOL0     C95841   4.606   5.987  10.491  0.0239 -0.1839  0.2766
  727MOL0     C95842   4.501   5.940  10.596 -0.0628 -0.5504 -0.4122
  727MOL0     C95843   4.490   6.056  10.692 -0.6541 -0.8585 -0.5205
  727MOL0     C95844   4.385   6.047  10.801  0.2948  0.6937  0.1117
  727MOL0     C95845   4.258   6.119  10.757 -0.4924  0.0567  0.6419
  727MOL0     C95846   4.190   6.042  10.644 -0.5841 -0.2583  0.2821
  727MOL0     C95847   4.038   6.066  10.646 -0.5587  0.5259 -0.0513
  727MOL0     C95848   4.019   6.213  10.620  0.0694  0.7973 -0.0586
  727MOL0     N95849   4.083   6.276  10.503 -0.0943 -0.2833 -0.0092
  727MOL0     C95850   4.202   6.344  10.486 -0.0783  0.1754 -0.2089
  727MOL0     C95851   4.195   6.412  10.368 -1.2777 -0.8127 -0.3626
  727MOL0     C95852   4.298   6.510  10.314 -0.1606  0.8555  0.0087
  727MOL0     C95853   4.353   6.459  10.178  0.4921 -0.0319  0.0534
  727MOL0     C95854   4.473   6.359  10.205 -0.2372  0.2694 -0.3929
  727MOL0     C95855   4.596   6.431  10.137 -0.2405 -0.1194  0.5865
  727MOL0     O95856   4.710   6.338  10.149 -0.0530 -0.0699 -0.3773
  727MOL0     C95857   4.831   6.385  10.109  0.3254 -0.0959  0.5990
  727MOL0     C95858   4.935   6.343  10.185 -0.6371  0.4479 -0.0256
  727MOL0     C95859   5.061   6.392  10.164 -0.6476  0.7518 -0.5255
  727MOL0     C95860   5.097   6.467  10.062  0.5853  0.3796  0.5759
  727MOL0     C95861   5.238   6.501  10.026 -0.0245  0.1459  0.2741
  727MOL0     O95862   5.332   6.445  10.113 -0.3901  0.3141 -0.1685
  727MOL0     C95863   5.467   6.467  10.102 -0.3584  0.5407 -0.2509
  727MOL0     C95864   5.536   6.531  10.193 -0.5377  0.4573  0.3575
  727MOL0     C95865   5.680   6.537  10.195  0.5517  1.0330 -0.1188
  727MOL0     C95866   5.752   6.469  10.096 -0.1657  1.1274  0.1134
  727MOL0     O95867   5.890   6.463  10.104  0.0575  0.3214  0.1681
  727MOL0     C95868   5.965   6.469   9.981 -0.0486 -0.4658  1.3924
  727MOL0     C95869   6.088   6.548  10.013  1.0846  0.3666 -0.6948
  727MOL0     C95870   6.189   6.463  10.087 -0.0100 -0.0576 -0.1648
  727MOL0     C95871   6.321   6.522  10.091 -0.7423  0.5512  0.0519
  727MOL0     C95872   6.414   6.405  10.128  0.2885  0.0491 -0.2271
  727MOL0     C95873   6.564   6.443  10.110  0.6462  0.4249  0.3473
  727MOL0     C95874   6.615   6.559  10.191  0.1981  0.1048 -0.7319
  727MOL0     C95875   6.708   6.643  10.104 -0.7683  0.1268 -0.2878
  727MOL0    Cl95876   6.872   6.560  10.094  0.0203 -0.3123 -0.6063
  727MOL0     C95877   5.681   6.403   9.994 -0.4697 -0.5418 -0.4245
  727MOL0     C95878   5.537   6.403   9.998  0.4465 -0.5807  0.1834
  727MOL0     O95879   5.257   6.586   9.940  0.7420 -0.2073  0.5032
  727MOL0     C95880   4.992   6.508   9.972  0.1423  0.2483 -0.6641
  727MOL0     C95881   4.863   6.463   9.998 -0.6851  0.6667  0.5044
  727MOL0     N95882   4.068   6.397  10.323 -0.6668  0.7157 -0.0340
  727MOL0     N95883   4.004   6.312  10.397  0.8254 -0.3151  0.0228
  727MOL0     C95884   4.834   5.936  10.283  0.2338  0.1409 -0.5661
  727MOL0     C95885   4.970   5.944  10.256  0.2878 -1.0015  0.6941
  727MOL0     C95886   5.412   6.041  10.261 -0.1576  0.6522 -0.6409
  727MOL0     C95887   5.499   6.149  10.234 -0.3614  0.2900 -0.7057
  727MOL0     C95888   5.626   6.119  10.182 -0.1709 -0.8046 -0.8155
  727MOL0     C95889   5.671   5.990  10.163  0.1839 -0.2252 -0.2806
  727MOL0     O95890   5.792   5.968  10.114  0.0226  0.4585 -0.0967
  727MOL0     C95891   5.904   6.068  10.118 -0.2527  1.1610  0.0797
  727MOL0     C95892   5.991   6.054   9.990 -0.7645 -0.3294 -0.0451
  727MOL0     C95893   6.091   5.940   9.973 -0.1820 -0.0264 -0.1558
  727MOL0     C95894   6.070   5.869   9.848  0.2209  0.1032 -0.5933
  727MOL0     C95895   5.956   5.775   9.843  0.6906  0.3028  0.0727
  727MOL0     C95896   5.862   5.695   9.827 -0.5553 -0.1032 -0.4984
  727MOL0     C95897   5.591   5.886  10.190  0.3901  0.8986  0.5470
  727MOL0     C95898   5.462   5.910  10.241  0.0375 -0.0231 -1.0867
  727MOL0     H95899   5.112   5.855  10.538  0.0363  0.8399  1.0189
  727MOL0     H95900   4.851   5.827  10.600 -2.0724  0.5438 -1.1780
  727MOL0     H95901   4.556   6.045  10.413  0.1975  3.3478  2.5844
  727MOL0     H95902   4.679   6.050  10.543 -2.0383  2.1207  0.5345
  727MOL0     H95903   4.526   5.860  10.666 -0.2559 -0.1105  0.1743
  727MOL0     H95904   4.408   5.922  10.542 -1.8301  2.8938  1.1358
  727MOL0     H95905   4.460   6.146  10.637 -2.3410 -0.4949  0.9313
  727MOL0     H95906   4.587   6.071  10.741 -0.7485 -1.9511  0.0335
  727MOL0     H95907   4.366   5.944  10.834  0.0042  0.3815 -0.9657
  727MOL0     H95908   4.415   6.100  10.891  3.1715 -0.0566 -0.3185
  727MOL0     H95909   4.268   6.226  10.734 -1.3089 -0.4368 -2.5619
  727MOL0     H95910   4.198   6.114  10.848  0.5676 -2.1815  1.2749
  727MOL0     H95911   4.205   5.937  10.670  2.4283 -0.4900 -1.8474
  727MOL0     H95912   4.241   6.058  10.548 -0.6320 -1.3113  0.0747
  727MOL0     H95913   3.986   6.007  10.571  1.5047 -0.3116 -0.8867
  727MOL0     H95914   3.999   6.039  10.745 -0.3349  2.3028  0.5705
  727MOL0     H95915   4.059   6.277  10.700 -3.2111  2.1826  0.6390
  727MOL0     H95916   3.912   6.234  10.616  0.1912  1.1899 -1.7155
  727MOL0     H95917   4.291   6.339  10.548 -0.2655 -2.7718 -0.0702
  727MOL0     H95918   4.374   6.536  10.388 -0.2131  1.2049 -0.0585
  727MOL0     H95919   4.243   6.602  10.291  0.1899  1.0301 -0.1379
  727MOL0     H95920   4.390   6.536  10.110 -0.4871 -1.1348 -1.7946
  727MOL0     H95921   4.277   6.413  10.114  1.7458 -1.1768 -0.6834
  727MOL0     H95922   4.499   6.353  10.312 -0.8560 -0.3526 -0.2677
  727MOL0     H95923   4.431   6.268  10.160 -0.3868  0.2306 -0.1761
  727MOL0     H95924   4.623   6.528  10.180  1.3230 -0.3865  0.2564
  727MOL0     H95925   4.593   6.446  10.029  3.8125  2.1827  0.5985
  727MOL0     H95926   4.906   6.288  10.274  1.3217 -0.7193 -0.0385
  727MOL0     H95927   5.142   6.361  10.230 -0.7606 -1.2504 -1.2471
  727MOL0     H95928   5.479   6.579  10.272 -0.7686  0.3220  0.2749
  727MOL0     H95929   5.738   6.585  10.273  2.3477 -1.2609  0.0692
  727MOL0     H95930   5.908   6.521   9.903  1.5409  2.0175  1.7617
  727MOL0     H95931   5.998   6.376   9.935 -0.0861  0.3432 -0.3616
  727MOL0     H95932   6.074   6.634  10.080  2.2304  0.0012  0.0437
  727MOL0     H95933   6.127   6.589   9.920 -3.4884  1.7392 -2.2726
  727MOL0     H95934   6.188   6.359  10.056  0.7901 -1.2375  3.2785
  727MOL0     H95935   6.157   6.443  10.190 -2.9738 -2.3499 -1.3909
  727MOL0     H95936   6.349   6.573   9.998  1.0279  0.3394  0.4209
  727MOL0     H95937   6.314   6.592  10.175 -1.6490  0.0945  0.3672
  727MOL0     H95938   6.398   6.313  10.070  1.0271 -0.1763 -0.0828
  727MOL0     H95939   6.391   6.372  10.229 -2.0343  0.9780 -0.4050
  727MOL0     H95940   6.593   6.449  10.005 -1.5946  1.5734 -0.2650
  727MOL0     H95941   6.618   6.364  10.163  1.2989  0.0155 -0.8733
  727MOL0     H95942   6.535   6.617  10.238 -0.3836 -0.1560 -1.3851
  727MOL0     H95943   6.678   6.532  10.276 -0.3381  3.3070  0.8437
  727MOL0     H95944   6.715   6.743  10.146 -2.8078  0.0182  0.4166
  727MOL0     H95945   6.677   6.653   9.999 -0.2281 -0.2337 -0.4879
  727MOL0     H95946   5.728   6.335   9.924 -3.0487 -0.4782 -2.3702
  727MOL0     H95947   5.479   6.345   9.927  0.3930 -0.0218 -0.2369
  727MOL0     H95948   5.005   6.590   9.902  1.0059 -0.0742 -0.8931
  727MOL0     H95949   4.791   6.504   9.928 -1.5652 -0.1678  0.9101
  727MOL0     H95950   4.760   5.946  10.205 -1.1263  2.4857  0.8842
  727MOL0     H95951   5.000   5.968  10.155 -1.2517  0.4532  0.5356
  727MOL0     H95952   5.460   6.245  10.263  1.7413  0.9424  0.1871
  727MOL0     H95953   5.686   6.208  10.163 -1.4934 -0.7717 -6.5966
  727MOL0     H95954   5.966   6.053  10.207 -1.7680 -3.2146  0.6670
  727MOL0     H95955   5.863   6.168  10.134 -2.7443  0.3905 -0.8521
  727MOL0     H95956   5.934   6.065   9.897  1.7840  1.5885 -1.5118
  727MOL0     H95957   6.054   6.143  10.003 -3.9370  2.2227 -0.6160
  727MOL0     H95958   6.102   5.867  10.054  0.7438  0.2433 -0.0165
  727MOL0     H95959   6.191   5.986   9.970 -0.4100  0.7719  2.3121
  727MOL0     H95960   6.057   5.936   9.763 -2.1767 -1.0077 -1.1690
  727MOL0     H95961   6.166   5.821   9.827  0.6940  0.0979  1.3843
  727MOL0     H95962   5.783   5.627   9.805  0.2096 -1.4218  0.5974
  727MOL0     H95963   5.620   5.783  10.175  0.7641  0.7556  2.0831
  727MOL0     H95964   5.400   5.821  10.245 -2.8055  1.8447 -0.4132
  728MOL0     O95965   9.257   8.753   8.955 -0.5420 -0.3200  0.8475
  728MOL0     C95966   9.251   8.788   9.071  0.2615 -1.0069 -0.0436
  728MOL0     O95967   9.357   8.820   9.148  0.7164  0.6218  0.1779
  728MOL0     C95968   9.487   8.848   9.106  0.3268 -1.1007  0.0427
  728MOL0     C95969   9.546   8.780   9.003  0.3754  0.2907 -0.5888
  728MOL0     C95970   9.680   8.803   8.976  0.4973  0.1091  0.3245
  728MOL0     C95971   9.750   8.895   9.055 -0.5115 -0.0487 -0.2096
  728MOL0     O95972   9.880   8.926   9.035 -0.0002 -0.2975  0.9520
  728MOL0     C95973   9.975   8.847   9.117  0.2875  0.2600  0.1441
  728MOL0     C95974   9.992   8.702   9.064 -0.1478  0.7350  0.5957
  728MOL0     C95975  10.055   8.700   8.925 -0.2973 -0.0377  0.0984
  728MOL0     C95976  10.206   8.722   8.944  0.1562  0.6867  0.3378
  728MOL0     C95977  10.285   8.639   8.841 -0.1667  0.0355  0.0964
  728MOL0     C95978  10.432   8.678   8.848  0.2655 -0.3176 -0.7279
  728MOL0     C95979  10.517   8.603   8.746 -0.2283 -1.0005 -0.0005
  728MOL0     C95980  10.664   8.618   8.795 -0.8384 -0.6080 -0.2856
  728MOL0     N95981  10.744   8.523   8.710  0.2327  0.3422  0.0687
  728MOL0     C95982  10.770   8.523   8.574  0.2893  0.6078  0.3662
  728MOL0     C95983  10.832   8.406   8.550 -0.2256  0.7591 -0.2140
  728MOL0     C95984  10.865   8.355   8.415 -0.1537 -0.3313 -0.0523
  728MOL0     C95985  10.985   8.410   8.345 -0.5552  0.1403  0.3382
  728MOL0     C95986  11.112   8.447   8.420 -0.2818  0.2497  0.0460
  728MOL0     C95987  11.189   8.330   8.497  0.4546  0.1033  0.2477
  728MOL0     O95988  11.300   8.372   8.574 -0.0209 -0.1702 -0.6412
  728MOL0     C95989  11.421   8.342   8.526 -0.8064  0.2115 -0.1076
  728MOL0     C95990  11.497   8.451   8.479 -0.4052 -0.3248  0.1735
  728MOL0     C95991  11.630   8.431   8.431 -0.1512  0.8694 -0.1530
  728MOL0     C95992  11.682   8.298   8.446 -0.2216 -0.5204  0.2569
  728MOL0     C95993  11.827   8.281   8.415 -0.3079  0.4503  0.0345
  728MOL0     O95994  11.902   8.220   8.509  0.0200  0.2349 -0.3421
  728MOL0     C95995  12.039   8.213   8.480 -0.7962  0.0775 -0.3867
  728MOL0     C95996  12.115   8.340   8.468 -0.1362  0.7294 -0.5005
  728MOL0     C95997  12.254   8.337   8.436  0.4211 -0.1089 -0.2492
  728MOL0     C95998  12.320   8.218   8.421  0.4419  0.4652 -0.0965
  728MOL0     O95999  12.446   8.196   8.382 -0.3980 -0.5376 -0.0780
  728MOL0     C96000  12.542   8.271   8.456  0.7781 -0.1139  0.0283
  728MOL0     C96001  12.566   8.224   8.600  0.4920 -1.3410  0.2459
  728MOL0     C96002  12.700   8.279   8.653 -0.5368  0.6817 -1.3941
  728MOL0     C96003  12.701   8.270   8.812  0.0434  0.2320 -0.2358
  728MOL0     C96004  12.841   8.247   8.870  0.3281  0.2459 -0.4354
  728MOL0     C96005  12.937   8.354   8.828 -0.7093 -0.2507 -0.4898
  728MOL0     C96006  13.084   8.329   8.873  0.6846  0.3373  0.1696
  728MOL0     C96007  13.160   8.459   8.843  0.0297 -1.2369 -0.9634
  728MOL0    Cl96008  13.155   8.516   8.673  0.2698  0.2915 -0.4150
  728MOL0     C96009  12.244   8.101   8.430  0.5594 -0.1116 -0.0295
  728MOL0     C96010  12.111   8.092   8.462 -0.6060 -0.2104  0.3306
  728MOL0     O96011  11.870   8.346   8.318 -0.0987  0.1434 -0.4373
  728MOL0     C96012  11.605   8.195   8.498 -0.5688  0.1687  0.1688
  728MOL0     C96013  11.478   8.219   8.538  0.1467 -0.2827  0.4496
  728MOL0     N96014  10.861   8.348   8.665  0.4067 -0.6933 -0.9608
  728MOL0     N96015  10.801   8.409   8.764 -0.2894 -0.6778  0.3467
  728MOL0     C96016   9.689   8.966   9.160  0.4242 -0.6807 -0.4249
  728MOL0     C96017   9.561   8.940   9.183  0.2618  0.5292  0.7617
  728MOL0     C96018   9.117   8.785   9.138  1.0275  0.0745  0.1717
  728MOL0     C96019   9.008   8.751   9.061  0.5557 -0.1414  0.2913
  728MOL0     C96020   8.878   8.770   9.110  0.1383  0.1723 -0.7453
  728MOL0     C96021   8.845   8.813   9.237 -0.3544  0.0735  0.8387
  728MOL0     O96022   8.722   8.821   9.286  0.1922  0.0835 -0.3563
  728MOL0     C96023   8.603   8.792   9.215 -0.3082 -0.5536 -0.0046
  728MOL0     C96024   8.488   8.828   9.307  0.3955 -0.1847  1.0106
  728MOL0     C96025   8.362   8.737   9.288 -0.5782 -0.3391 -0.1439
  728MOL0     C96026   8.242   8.796   9.373 -0.2546  0.8687  0.2699
  728MOL0     C96027   8.203   8.931   9.348  0.2119  0.1890  0.0500
  728MOL0     C96028   8.163   9.043   9.347  0.0620  0.8871  0.5172
  728MOL0     C96029   8.953   8.857   9.312  0.6574  0.1468 -0.3433
  728MOL0     C96030   9.091   8.843   9.268 -0.0239 -0.2138  0.2680
  728MOL0     H96031   9.495   8.698   8.954  0.3329 -0.0214 -0.0282
  728MOL0     H96032   9.720   8.746   8.892 -0.7265  1.2128 -1.0713
  728MOL0     H96033   9.948   8.853   9.223  0.1927 -0.2559  0.1485
  728MOL0     H96034  10.072   8.896   9.106  0.5085 -0.5669 -2.0664
  728MOL0     H96035   9.893   8.655   9.069 -1.2940  3.0885  2.5629
  728MOL0     H96036  10.060   8.650   9.132 -1.6800 -0.3194  1.3765
  728MOL0     H96037  10.011   8.776   8.859 -2.0803 -1.6387 -0.6580
  728MOL0     H96038  10.033   8.600   8.885  3.2043 -0.2723 -1.7170
  728MOL0     H96039  10.224   8.829   8.930 -2.5383  0.9983 -1.4225
  728MOL0     H96040  10.240   8.689   9.043 -2.0405 -0.3085  0.8043
  728MOL0     H96041  10.252   8.652   8.738  1.0325 -2.1423 -0.6345
  728MOL0     H96042  10.280   8.532   8.863  0.8366  0.0169  0.2774
  728MOL0     H96043  10.455   8.656   8.953 -2.4050  1.6542  0.3912
  728MOL0     H96044  10.426   8.786   8.831 -1.1194 -0.4320 -1.0645
  728MOL0     H96045  10.491   8.497   8.749  0.5466 -1.1912  2.6617
  728MOL0     H96046  10.518   8.634   8.641 -1.5324 -4.5488 -1.2285
  728MOL0     H96047  10.665   8.587   8.899 -2.8432 -3.4624 -0.9951
  728MOL0     H96048  10.704   8.719   8.787 -0.7986 -0.4850  1.2581
  728MOL0     H96049  10.723   8.592   8.504  1.1432  2.2076  1.3028
  728MOL0     H96050  10.779   8.365   8.348  0.6736  0.9278 -0.9723
  728MOL0     H96051  10.862   8.248   8.438 -1.9398 -0.0636  1.1829
  728MOL0     H96052  10.947   8.487   8.277  0.5929  0.5852  0.1807
  728MOL0     H96053  11.005   8.326   8.277 -1.5635 -0.1246  0.3467
  728MOL0     H96054  11.175   8.491   8.342 -1.2853  3.0080  0.6689
  728MOL0     H96055  11.096   8.531   8.488 -0.8195  2.6803 -2.8674
  728MOL0     H96056  11.210   8.266   8.411 -3.2169  1.5370 -2.0001
  728MOL0     H96057  11.117   8.284   8.565 -0.6456 -2.5745 -2.4975
  728MOL0     H96058  11.469   8.556   8.488  1.8532  0.1345  3.6460
  728MOL0     H96059  11.700   8.508   8.402 -2.6788  2.7619 -1.6491
  728MOL0     H96060  12.066   8.437   8.466 -2.5847 -0.4373 -1.1113
  728MOL0     H96061  12.300   8.435   8.424  1.0831 -0.3491  0.2570
  728MOL0     H96062  12.522   8.378   8.459 -0.1085 -0.2892  1.0157
  728MOL0     H96063  12.640   8.258   8.409  0.2339  1.0561 -1.5291
  728MOL0     H96064  12.572   8.114   8.598  1.7212 -1.3292  1.3926
  728MOL0     H96065  12.495   8.265   8.672 -1.4236  0.6138 -2.5920
  728MOL0     H96066  12.713   8.384   8.628  0.6826  1.3020  1.4027
  728MOL0     H96067  12.775   8.213   8.608 -0.3654  0.2657 -0.5212
  728MOL0     H96068  12.657   8.365   8.844  2.4146  0.3122  3.3622
  728MOL0     H96069  12.637   8.195   8.859 -1.8846  2.6511  1.2038
  728MOL0     H96070  12.873   8.145   8.849  1.2861  0.6277 -0.8827
  728MOL0     H96071  12.829   8.256   8.979 -0.6904 -0.8297 -0.4390
  728MOL0     H96072  12.903   8.447   8.875 -0.7867 -1.1152  1.2548
  728MOL0     H96073  12.937   8.349   8.719  1.6821 -2.4134 -0.5039
  728MOL0     H96074  13.099   8.289   8.974  0.6921  3.1085  1.3744
  728MOL0     H96075  13.124   8.250   8.810 -1.3544  0.2110 -1.0634
  728MOL0     H96076  13.265   8.442   8.871 -0.2420 -2.1292 -0.4514
  728MOL0     H96077  13.117   8.540   8.903 -1.8315 -0.8285 -2.7275
  728MOL0     H96078  12.296   8.006   8.421  0.0233 -0.2862 -1.5111
  728MOL0     H96079  12.070   7.992   8.463  0.6332 -0.7784 -1.3305
  728MOL0     H96080  11.646   8.095   8.502  0.1022  0.3918 -0.9627
  728MOL0     H96081  11.422   8.134   8.576  0.2733 -0.6174 -0.1099
  728MOL0     H96082   9.740   9.050   9.204  3.1831 -0.2602 -4.0357
  728MOL0     H96083   9.528   8.993   9.272  3.5569  2.3114  1.0854
  728MOL0     H96084   9.021   8.721   8.957  0.6007  0.3741  0.1467
  728MOL0     H96085   8.795   8.743   9.045 -0.7819 -1.9770  1.1557
  728MOL0     H96086   8.603   8.684   9.197  3.1899 -0.8394  0.8381
  728MOL0     H96087   8.609   8.850   9.122  1.5272 -1.7001 -0.6555
  728MOL0     H96088   8.522   8.824   9.411 -0.0286 -2.5028  1.1115
  728MOL0     H96089   8.453   8.928   9.278 -4.1037 -1.7418  0.2544
  728MOL0     H96090   8.398   8.640   9.325  1.6051  0.0217 -1.1648
  728MOL0     H96091   8.344   8.714   9.183  2.6685 -0.4392 -0.7753
  728MOL0     H96092   8.154   8.730   9.374 -0.7784  1.5609  0.6305
  728MOL0     H96093   8.271   8.793   9.479 -0.0489  1.7171  0.2383
  728MOL0     H96094   8.128   9.144   9.354  0.7823  1.1477  0.4226
  728MOL0     H96095   8.937   8.903   9.409 -0.4808  1.6086 -1.1805
  728MOL0     H96096   9.173   8.881   9.328 -0.6794  2.5015 -0.4246
  729MOL0     O96097   8.551   5.587   8.095 -0.3253 -0.5284  0.2745
  729MOL0     C96098   8.653   5.523   8.106  0.4564 -0.2586 -0.4903
  729MOL0     O96099   8.674   5.389   8.083 -0.2167  0.8143  0.2746
  729MOL0     C96100   8.570   5.306   8.029 -0.2191 -0.1907 -0.4847
  729MOL0     C96101   8.548   5.313   7.890 -0.2323  0.6860 -0.1149
  729MOL0     C96102   8.441   5.242   7.832 -0.5528 -0.1173 -0.3482
  729MOL0     C96103   8.353   5.171   7.914  0.1563 -0.7459 -0.3649
  729MOL0     O96104   8.248   5.114   7.847  1.1212  0.0695 -0.0100
  729MOL0     C96105   8.122   5.151   7.907  0.1266 -0.2697 -0.0533
  729MOL0     C96106   8.024   5.030   7.901  0.7679 -0.4132  0.3953
  729MOL0     C96107   7.888   5.075   7.974  0.0025 -0.3521 -0.3351
  729MOL0     C96108   7.785   4.968   7.948  0.3063 -0.5269  1.1176
  729MOL0     C96109   7.670   4.991   8.052  0.2309  0.2477 -0.3659
  729MOL0     C96110   7.589   5.119   8.046 -0.5310 -0.2866  0.2948
  729MOL0     C96111   7.461   5.108   8.127  0.2267  0.1014  0.3387
  729MOL0     C96112   7.373   5.237   8.132  0.1343 -0.2699 -0.3628
  729MOL0     N96113   7.236   5.204   8.181 -0.1078  0.4113  0.5429
  729MOL0     C96114   7.126   5.207   8.102 -0.3013  0.5487 -0.0799
  729MOL0     C96115   7.033   5.149   8.187 -0.3760  0.0318 -0.0175
  729MOL0     C96116   6.886   5.145   8.156 -0.3448  0.2727  0.5055
  729MOL0     C96117   6.795   5.146   8.280  0.5336  0.4385 -0.5217
  729MOL0     C96118   6.778   5.287   8.340  0.7179  0.5722  0.2699
  729MOL0     C96119   6.729   5.287   8.482  0.2138 -0.2081  0.1639
  729MOL0     O96120   6.621   5.194   8.507  0.7048  0.1776 -0.8592
  729MOL0     C96121   6.492   5.238   8.489 -0.0742  1.0154 -0.4683
  729MOL0     C96122   6.397   5.136   8.508 -0.5003 -0.1886  0.3571
  729MOL0     C96123   6.266   5.163   8.472 -0.3807  1.1295  0.1788
  729MOL0     C96124   6.220   5.286   8.423  0.2704 -0.0894 -0.0166
  729MOL0     C96125   6.081   5.295   8.368 -0.3775 -0.6356  0.1581
  729MOL0     O96126   6.006   5.180   8.361 -0.2857  0.2230 -0.1554
  729MOL0     C96127   5.890   5.182   8.296 -0.4437  0.3098  0.8787
  729MOL0     C96128   5.879   5.189   8.157 -1.0016  0.2251 -0.8175
  729MOL0     C96129   5.753   5.197   8.102 -0.1739 -0.5603  0.2998
  729MOL0     C96130   5.631   5.206   8.179 -0.0431 -0.5164  0.0920
  729MOL0     O96131   5.502   5.233   8.137 -0.8444 -0.7627 -0.0559
  729MOL0     C96132   5.491   5.297   8.010  0.1360  0.0315 -0.8381
  729MOL0     C96133   5.339   5.305   7.965 -0.2098  0.5676  0.0055
  729MOL0     C96134   5.306   5.399   7.846 -1.2203  0.3171  1.5482
  729MOL0     C96135   5.414   5.364   7.729  0.3744 -0.1241 -1.3403
  729MOL0     C96136   5.415   5.442   7.590 -0.4743  0.5881 -0.9666
  729MOL0     C96137   5.381   5.357   7.476  0.3849  0.8796 -0.2434
  729MOL0     C96138   5.233   5.307   7.482 -1.0732 -0.3474 -0.5978
  729MOL0     C96139   5.180   5.202   7.384 -0.8219  0.6565  0.4235
  729MOL0    Cl96140   5.139   5.289   7.229  0.0432  0.3292 -0.0213
  729MOL0     C96141   5.649   5.224   8.316 -0.0765  0.1455  0.8942
  729MOL0     C96142   5.779   5.203   8.372  0.2706  0.6905 -0.5025
  729MOL0     O96143   6.053   5.408   8.315 -0.4854 -0.7872  0.9795
  729MOL0     C96144   6.316   5.393   8.436 -0.5176  0.4057  0.1383
  729MOL0     C96145   6.451   5.370   8.460 -0.4186 -0.2018 -0.1732
  729MOL0     N96146   7.084   5.115   8.310  0.3416 -0.4173 -0.3910
  729MOL0     N96147   7.208   5.154   8.298  0.1338  0.5389 -0.4980
  729MOL0     C96148   8.363   5.176   8.051 -0.0375 -0.2113  0.0971
  729MOL0     C96149   8.474   5.241   8.103  0.0229 -0.6910 -0.0474
  729MOL0     C96150   8.759   5.600   8.159 -0.5993 -0.0241  0.6341
  729MOL0     C96151   8.774   5.732   8.122  0.4028 -0.3439 -0.8184
  729MOL0     C96152   8.874   5.810   8.178 -0.0036 -0.8226 -0.2547
  729MOL0     C96153   8.971   5.752   8.253  0.0896 -0.0698 -1.3718
  729MOL0     O96154   9.076   5.829   8.295  0.6115 -0.3111 -0.0698
  729MOL0     C96155   9.160   5.789   8.403 -0.1931  0.2044  0.2288
  729MOL0     C96156   9.233   5.904   8.465 -0.5443  0.2695 -0.5959
  729MOL0     C96157   9.285   6.012   8.377  0.3305  0.2709 -0.0742
  729MOL0     C96158   9.332   6.134   8.458  0.0638  0.0532  0.5603
  729MOL0     C96159   9.449   6.121   8.542 -0.3127 -0.6364  0.4857
  729MOL0     C96160   9.539   6.124   8.622  0.1538  0.6319  0.3064
  729MOL0     C96161   8.969   5.608   8.278 -0.1296 -0.7002 -0.7082
  729MOL0     C96162   8.863   5.531   8.232 -0.1340  0.8510  0.2178
  729MOL0     H96163   8.619   5.357   7.820 -0.2159 -0.2326 -0.6963
  729MOL0     H96164   8.419   5.248   7.726 -2.6629  2.5682  0.1484
  729MOL0     H96165   8.071   5.228   7.848 -1.3412 -0.6057  0.7181
  729MOL0     H96166   8.120   5.192   8.009 -2.0632  1.2853 -0.6470
  729MOL0     H96167   8.068   4.937   7.940 -0.8191  0.0600  3.6886
  729MOL0     H96168   8.007   5.004   7.796 -0.8596 -0.8426  0.7321
  729MOL0     H96169   7.847   5.167   7.932  0.2708 -0.9394 -1.9632
  729MOL0     H96170   7.895   5.083   8.083 -1.1932  2.9506 -0.3881
  729MOL0     H96171   7.744   4.979   7.847 -0.0006  2.4167  1.4985
  729MOL0     H96172   7.828   4.868   7.962  1.5809 -0.3742 -1.2429
  729MOL0     H96173   7.722   5.001   8.148  0.1585  0.6802 -0.3717
  729MOL0     H96174   7.622   4.894   8.060  1.8816 -0.6909 -1.2731
  729MOL0     H96175   7.576   5.131   7.938  3.3408 -0.5283 -0.3478
  729MOL0     H96176   7.650   5.196   8.094  1.9495 -0.9433 -1.6365
  729MOL0     H96177   7.399   5.026   8.090 -1.2201  0.7744  1.1918
  729MOL0     H96178   7.487   5.087   8.231  1.6954 -1.5465 -0.3180
  729MOL0     H96179   7.371   5.279   8.031 -3.1110  2.5899  0.6958
  729MOL0     H96180   7.418   5.295   8.213 -0.4303 -1.8683  1.1598
  729MOL0     H96181   7.113   5.247   8.002 -1.1319  2.9390  0.9167
  729MOL0     H96182   6.885   5.055   8.094  0.1020  0.5339  0.1157
  729MOL0     H96183   6.861   5.231   8.093  6.3050  0.6718 -2.3950
  729MOL0     H96184   6.842   5.074   8.347  1.4333 -1.0524 -2.6158
  729MOL0     H96185   6.694   5.109   8.259  0.7865  0.1959 -1.3915
  729MOL0     H96186   6.876   5.336   8.339  1.0575 -0.0509 -1.5302
  729MOL0     H96187   6.704   5.342   8.282  1.8554 -0.7172 -2.6236
  729MOL0     H96188   6.699   5.384   8.523 -0.5534  0.5235 -1.9795
  729MOL0     H96189   6.814   5.251   8.540 -0.3265 -0.2946  0.9200
  729MOL0     H96190   6.438   5.039   8.534  1.0108  0.5790  0.9115
  729MOL0     H96191   6.197   5.081   8.489  1.4484 -0.8666 -1.5046
  729MOL0     H96192   5.968   5.182   8.095 -1.4552  2.8755 -1.9250
  729MOL0     H96193   5.740   5.183   7.995 -0.1129 -0.2218  0.2494
  729MOL0     H96194   5.537   5.236   7.932  1.8951  1.2385 -0.8041
  729MOL0     H96195   5.551   5.389   8.006  2.2785 -1.2613  0.1862
  729MOL0     H96196   5.277   5.329   8.051 -0.4041  0.5101 -0.1166
  729MOL0     H96197   5.297   5.207   7.943 -1.2291  0.1987  3.1432
  729MOL0     H96198   5.327   5.505   7.867 -0.6891  1.4845 -3.4552
  729MOL0     H96199   5.206   5.393   7.802  0.3267  0.8335 -2.5680
  729MOL0     H96200   5.507   5.393   7.781 -1.6422 -0.6258  2.9838
  729MOL0     H96201   5.401   5.257   7.716 -0.3463 -0.0220 -1.4972
  729MOL0     H96202   5.517   5.480   7.575  0.2951 -0.3144  1.4580
  729MOL0     H96203   5.345   5.526   7.590 -2.3239 -0.8443  0.5490
  729MOL0     H96204   5.448   5.272   7.491 -2.5002 -1.0972  2.8594
  729MOL0     H96205   5.402   5.401   7.378  1.1040  1.4816  0.1673
  729MOL0     H96206   5.240   5.244   7.571 -0.7924 -0.5040 -0.7313
  729MOL0     H96207   5.156   5.385   7.483  1.2068  2.1067  2.2319
  729MOL0     H96208   5.092   5.147   7.419  0.4556 -1.4033  0.5723
  729MOL0     H96209   5.257   5.128   7.363 -1.8965 -0.4167  0.1094
  729MOL0     H96210   5.559   5.242   8.374 -1.0145 -0.3956 -0.3432
  729MOL0     H96211   5.792   5.199   8.479  1.2472  1.0331 -0.6007
  729MOL0     H96212   6.288   5.495   8.413  3.0050  2.0559  2.2432
  729MOL0     H96213   6.520   5.453   8.454 -0.5555  0.0177  1.0949
  729MOL0     H96214   8.298   5.124   8.120  1.5829  0.0773  1.9255
  729MOL0     H96215   8.475   5.250   8.212 -1.0784  2.4149 -0.1959
  729MOL0     H96216   8.707   5.781   8.052  2.6517  3.4138 -0.6149
  729MOL0     H96217   8.896   5.914   8.155  3.6152 -1.1704  0.9636
  729MOL0     H96218   9.238   5.723   8.363 -1.3499 -0.5955 -0.7881
  729MOL0     H96219   9.096   5.738   8.475 -0.0852 -1.1330 -0.5834
  729MOL0     H96220   9.161   5.958   8.527  0.3067  3.7041 -2.3677
  729MOL0     H96221   9.307   5.853   8.527 -2.2079 -2.4039 -0.6427
  729MOL0     H96222   9.203   6.038   8.309  1.9366  3.3842 -1.0097
  729MOL0     H96223   9.367   5.987   8.309  0.0951  2.1095 -1.0914
  729MOL0     H96224   9.339   6.220   8.391 -0.5758  0.3733  0.9001
  729MOL0     H96225   9.248   6.168   8.520 -0.5532 -0.4590  0.0121
  729MOL0     H96226   9.606   6.118   8.705  0.6995 -1.4638 -0.2365
  729MOL0     H96227   9.056   5.567   8.329 -0.7009 -0.8027  0.2177
  729MOL0     H96228   8.856   5.427   8.263 -0.8586  0.4891 -1.0646
  730MOL0     O96229   3.430   9.006   6.894  0.1071 -0.1553  0.3067
  730MOL0     C96230   3.467   8.889   6.903 -0.4982 -0.4645 -0.6590
  730MOL0     O96231   3.381   8.783   6.898 -0.4606 -0.8114  0.7530
  730MOL0     C96232   3.250   8.811   6.865  1.3612  0.0268  0.3378
  730MOL0     C96233   3.212   8.877   6.740 -0.7858  0.6041  0.0547
  730MOL0     C96234   3.079   8.888   6.714  0.5656  0.2047 -0.0862
  730MOL0     C96235   2.984   8.868   6.812 -0.0312 -0.0994  0.2554
  730MOL0     O96236   2.852   8.894   6.776  0.8637  0.3629  0.9705
  730MOL0     C96237   2.746   8.912   6.872  0.0343  0.8260 -0.1383
  730MOL0     C96238   2.609   8.900   6.802  0.2671  0.0161  1.1637
  730MOL0     C96239   2.593   8.760   6.726 -0.1889  0.3623 -0.1410
  730MOL0     C96240   2.451   8.732   6.678  0.0769  0.7148  0.1166
  730MOL0     C96241   2.459   8.615   6.584 -0.0821  0.7251  0.0684
  730MOL0     C96242   2.340   8.616   6.490  0.1011  0.2134 -0.7918
  730MOL0     C96243   2.328   8.487   6.418 -0.2329  0.2446  0.9080
  730MOL0     C96244   2.227   8.382   6.476  0.6808 -0.6727 -0.3457
  730MOL0     N96245   2.092   8.438   6.480  0.1146  0.5779  0.5534
  730MOL0     C96246   2.017   8.467   6.369  0.6005  0.0874  0.0698
  730MOL0     C96247   1.894   8.509   6.416 -1.2279 -0.1545 -0.4317
  730MOL0     C96248   1.771   8.532   6.330 -0.6211  0.3654 -0.1752
  730MOL0     C96249   1.712   8.670   6.331  0.8543 -0.2609  0.2683
  730MOL0     C96250   1.791   8.773   6.249 -0.3704  0.0708  0.3682
  730MOL0     C96251   1.733   8.911   6.261  0.4240 -0.3826  0.1465
  730MOL0     O96252   1.813   9.014   6.189 -0.7689  0.4772 -0.2825
  730MOL0     C96253   1.940   9.044   6.244  0.0981  0.9423 -0.6350
  730MOL0     C96254   1.979   9.008   6.374 -0.1120  0.6056 -0.2992
  730MOL0     C96255   2.105   9.033   6.417 -0.5027  1.3052  0.1269
  730MOL0     C96256   2.196   9.099   6.345  0.1796  0.8820  0.5794
  730MOL0     C96257   2.323   9.134   6.404  1.0513  0.4813 -0.6727
  730MOL0     O96258   2.431   9.140   6.320  0.7046  0.3442  0.2084
  730MOL0     C96259   2.551   9.150   6.392 -0.2213  0.2165  0.2224
  730MOL0     C96260   2.588   9.278   6.439 -0.6067 -0.4399 -0.5896
  730MOL0     C96261   2.713   9.297   6.510  0.0264  0.0095 -0.2977
  730MOL0     C96262   2.792   9.186   6.540  0.3235  0.2500 -0.6258
  730MOL0     O96263   2.899   9.209   6.611 -1.0517 -0.0142  0.0635
  730MOL0     C96264   3.031   9.185   6.548 -0.5091  0.9807  0.4808
  730MOL0     C96265   3.142   9.239   6.642  0.6716 -0.3107  0.0043
  730MOL0     C96266   3.267   9.245   6.567 -0.5538  0.7885 -0.1202
  730MOL0     C96267   3.376   9.292   6.662 -0.1091  0.2964 -0.3999
  730MOL0     C96268   3.526   9.261   6.619  0.3784 -0.3040  0.2375
  730MOL0     C96269   3.566   9.342   6.490  0.2370 -0.0800  1.0057
  730MOL0     C96270   3.561   9.494   6.520 -0.5802 -0.4361 -0.7912
  730MOL0     C96271   3.632   9.572   6.410  0.9812  0.6384  0.0629
  730MOL0    Cl96272   3.811   9.541   6.387  0.0543 -0.0362 -0.0402
  730MOL0     C96273   2.750   9.060   6.492  0.4085  0.1013  0.0977
  730MOL0     C96274   2.632   9.046   6.416 -0.1534 -0.0591 -0.0890
  730MOL0     O96275   2.326   9.145   6.528  0.8867 -0.1996  0.0196
  730MOL0     C96276   2.151   9.150   6.216 -0.2696 -0.7499  0.6144
  730MOL0     C96277   2.028   9.119   6.166  0.2961  0.6466  0.5551
  730MOL0     N96278   1.904   8.509   6.557  0.5591  0.1290  0.2996
  730MOL0     N96279   2.020   8.463   6.582  0.7516 -0.8142 -0.0207
  730MOL0     C96280   3.019   8.799   6.924 -0.2046  0.3075 -1.5173
  730MOL0     C96281   3.150   8.755   6.946 -0.5601 -0.0713 -0.5687
  730MOL0     C96282   3.610   8.854   6.948 -0.0997  0.4035  0.7783
  730MOL0     C96283   3.631   8.725   7.008 -0.3793  0.4567  0.1815
  730MOL0     C96284   3.760   8.695   7.045 -0.5439 -0.1997  0.3526
  730MOL0     C96285   3.861   8.794   7.047  0.0633  0.2080 -0.0173
  730MOL0     O96286   3.998   8.767   7.066 -0.0780  0.0269 -0.0875
  730MOL0     C96287   4.041   8.636   7.089 -1.0577 -0.7566 -0.8076
  730MOL0     C96288   4.178   8.636   7.157 -0.8431 -0.3368  0.4496
  730MOL0     C96289   4.283   8.688   7.066 -0.8919 -0.9211 -0.1560
  730MOL0     C96290   4.424   8.689   7.127 -0.7285 -0.4245  0.0780
  730MOL0     C96291   4.423   8.755   7.256 -0.0573  0.9091 -0.8775
  730MOL0     C96292   4.436   8.818   7.359  1.7663 -0.2786 -0.9738
  730MOL0     C96293   3.834   8.921   7.005 -0.3176  0.1291  0.6566
  730MOL0     C96294   3.714   8.946   6.943  1.2165 -0.6509  0.1689
  730MOL0     H96295   3.284   8.909   6.666  0.6849 -1.1050  0.6755
  730MOL0     H96296   3.054   8.911   6.611  1.0900 -0.3680 -0.3464
  730MOL0     H96297   2.755   9.017   6.899 -0.3617  1.4566 -2.2460
  730MOL0     H96298   2.748   8.839   6.953  1.9806  0.5917 -0.3376
  730MOL0     H96299   2.604   8.981   6.729 -0.5057 -0.9543  0.0942
  730MOL0     H96300   2.532   8.913   6.878 -0.9706 -0.3006  0.0057
  730MOL0     H96301   2.622   8.686   6.801 -3.0144 -0.1707  0.5392
  730MOL0     H96302   2.664   8.743   6.645 -2.3776 -2.1728 -1.6784
  730MOL0     H96303   2.376   8.716   6.756 -1.3556  4.6027 -0.2440
  730MOL0     H96304   2.406   8.816   6.624 -0.3448  0.2401 -0.2837
  730MOL0     H96305   2.461   8.521   6.640  0.0391  1.7237  1.8171
  730MOL0     H96306   2.549   8.602   6.523  0.5127  1.5049  0.7534
  730MOL0     H96307   2.363   8.697   6.421  0.2787  1.1555  0.3413
  730MOL0     H96308   2.246   8.643   6.540  0.2060  1.8608 -1.4129
  730MOL0     H96309   2.297   8.517   6.318  1.4822  1.3722  0.6741
  730MOL0     H96310   2.430   8.449   6.405  0.7969  2.7165  1.1624
  730MOL0     H96311   2.248   8.355   6.580  2.4632 -2.5641 -1.1302
  730MOL0     H96312   2.225   8.290   6.417 -1.2416  0.2828 -1.9089
  730MOL0     H96313   2.037   8.458   6.262 -2.1362  0.4331 -0.5549
  730MOL0     H96314   1.692   8.473   6.377 -0.0596 -0.9231 -0.7850
  730MOL0     H96315   1.784   8.504   6.225 -0.1620  1.7567 -0.5131
  730MOL0     H96316   1.705   8.695   6.438 -1.8179  0.7643 -0.0787
  730MOL0     H96317   1.610   8.657   6.294  0.8523 -1.7337  0.7278
  730MOL0     H96318   1.896   8.781   6.280  0.0149  2.8137 -1.3315
  730MOL0     H96319   1.806   8.753   6.143 -0.6929  3.2381 -0.3541
  730MOL0     H96320   1.732   8.931   6.368 -1.6543 -0.0036  0.1016
  730MOL0     H96321   1.627   8.922   6.236  0.1498  1.7957  1.9585
  730MOL0     H96322   1.922   8.942   6.439 -0.9592  0.1717 -1.4384
  730MOL0     H96323   2.119   8.995   6.518  1.9709  2.5045  0.2994
  730MOL0     H96324   2.523   9.363   6.426  0.3530  0.1893 -1.3791
  730MOL0     H96325   2.734   9.397   6.545 -1.9034 -0.5617  2.9913
  730MOL0     H96326   3.036   9.243   6.455 -2.4124  2.0016  0.9515
  730MOL0     H96327   3.051   9.079   6.528 -0.6898  0.7972  1.2557
  730MOL0     H96328   3.155   9.188   6.738 -1.6730 -1.5221 -0.2506
  730MOL0     H96329   3.113   9.341   6.664 -1.0838 -1.2726  2.4957
  730MOL0     H96330   3.263   9.314   6.482  0.0242  0.5193 -0.3794
  730MOL0     H96331   3.288   9.151   6.514  1.5709  1.2595 -0.2167
  730MOL0     H96332   3.357   9.398   6.681 -0.2274  0.3600 -0.8781
  730MOL0     H96333   3.374   9.241   6.759 -0.9040  1.9249  0.4815
  730MOL0     H96334   3.540   9.157   6.586 -2.1876 -0.1193 -1.7826
  730MOL0     H96335   3.593   9.276   6.704 -0.5687 -1.9122  1.3244
  730MOL0     H96336   3.495   9.313   6.412  2.7661 -1.0587 -1.0890
  730MOL0     H96337   3.665   9.309   6.458  0.5320  0.6046  1.1857
  730MOL0     H96338   3.453   9.513   6.528 -0.6972 -1.7253  2.6899
  730MOL0     H96339   3.609   9.506   6.618  2.4444  2.8822 -2.5022
  730MOL0     H96340   3.625   9.680   6.426  0.0556  0.6232 -0.1647
  730MOL0     H96341   3.582   9.546   6.317 -0.3536 -2.6864  1.5454
  730MOL0     H96342   2.812   8.973   6.512 -1.0404 -1.6741 -2.4543
  730MOL0     H96343   2.619   8.943   6.386  0.6046 -0.2927  0.3702
  730MOL0     H96344   2.237   9.193   6.165 -1.1487  0.2479 -0.0884
  730MOL0     H96345   1.992   9.141   6.066  0.3699  0.2677  0.4468
  730MOL0     H96346   2.940   8.759   6.988  0.2673 -0.3654 -1.3486
  730MOL0     H96347   3.199   8.706   7.029 -0.2529 -2.7953 -2.2553
  730MOL0     H96348   3.568   8.637   6.999  0.3979 -0.4970  3.0407
  730MOL0     H96349   3.792   8.592   7.058 -0.0586  0.0884  1.5973
  730MOL0     H96350   4.040   8.567   7.004 -1.7620  0.3121 -1.7023
  730MOL0     H96351   3.985   8.591   7.171  0.3385 -1.3424 -0.1698
  730MOL0     H96352   4.166   8.688   7.253  0.1662  0.3227  0.2383
  730MOL0     H96353   4.193   8.530   7.180 -0.9195 -1.0184 -2.3494
  730MOL0     H96354   4.264   8.791   7.034 -0.9278 -1.1795 -0.9888
  730MOL0     H96355   4.284   8.626   6.976 -0.4203 -1.3315  0.1285
  730MOL0     H96356   4.456   8.585   7.126 -0.9426 -0.4957 -0.9647
  730MOL0     H96357   4.497   8.747   7.069 -0.4803 -0.0588  0.7498
  730MOL0     H96358   4.457   8.878   7.445  0.7794 -0.7074 -0.4203
  730MOL0     H96359   3.906   9.002   7.001  1.0533 -0.9806  1.7487
  730MOL0     H96360   3.697   9.043   6.897  3.1505  1.2292  3.1208
  731MOL0     O96361   4.294   9.940   2.913  0.2699  0.0301  0.3914
  731MOL0     C96362   4.300   9.975   3.027  0.1412  0.3179 -0.6275
  731MOL0     O96363   4.202   9.956   3.113 -0.0099  0.1284 -0.0529
  731MOL0     C96364   4.074   9.901   3.080 -1.1880 -1.0979  0.4210
  731MOL0     C96365   3.967   9.953   3.141 -0.2347 -0.1447  0.3901
  731MOL0     C96366   3.837   9.909   3.118  0.4587  0.2779  0.1107
  731MOL0     C96367   3.819   9.803   3.032 -0.2519  0.3131 -0.0059
  731MOL0     O96368   3.686   9.778   2.999 -0.5947 -0.1641 -0.1551
  731MOL0     C96369   3.654   9.674   2.911 -0.4774 -0.3954  1.1313
  731MOL0     C96370   3.503   9.681   2.905  0.1643 -0.0403 -0.0259
  731MOL0     C96371   3.446   9.557   2.821  0.5340 -0.0399  0.8713
  731MOL0     C96372   3.290   9.545   2.811 -0.2744  0.0479  0.3151
  731MOL0     C96373   3.244   9.603   2.676 -0.6897 -0.9202 -0.2286
  731MOL0     C96374   3.088   9.594   2.644 -0.4743  0.0917  0.0242
  731MOL0     C96375   3.053   9.672   2.515  0.8289  0.2679 -0.8879
  731MOL0     C96376   2.916   9.729   2.532 -0.3109  0.6731  0.0806
  731MOL0     N96377   2.875   9.818   2.417  0.7789 -0.3275  0.7437
  731MOL0     C96378   2.832   9.782   2.291 -0.6217  0.7547 -0.4080
  731MOL0     C96379   2.753   9.886   2.251  0.0250  0.6503  0.3925
  731MOL0     C96380   2.674   9.908   2.129 -0.0044 -0.5402  0.7990
  731MOL0     C96381   2.536   9.853   2.132  1.0478  1.0382  0.4839
  731MOL0     C96382   2.470   9.862   1.996  0.3982  0.1297 -0.0078
  731MOL0     C96383   2.321   9.843   1.993 -0.2264 -0.4130 -0.0378
  731MOL0     O96384   2.287   9.816   1.854 -1.1005 -0.1794 -0.8706
  731MOL0     C96385   2.157   9.828   1.822  0.6745 -0.1255 -0.1441
  731MOL0     C96386   2.110   9.840   1.688 -1.1417  1.1236  0.2573
  731MOL0     C96387   1.981   9.842   1.653  0.7310 -0.5368  0.2270
  731MOL0     C96388   1.878   9.844   1.749 -0.7291  0.0882 -0.2873
  731MOL0     C96389   1.740   9.848   1.703  0.8672 -0.2927  0.3903
  731MOL0     O96390   1.695   9.820   1.574 -0.0980  0.3301 -0.4552
  731MOL0     C96391   1.556   9.834   1.549  0.0945  0.5293  0.8172
  731MOL0     C96392   1.486   9.729   1.496  0.0386  0.4830  0.9535
  731MOL0     C96393   1.352   9.743   1.472 -0.4746 -0.0899  0.2438
  731MOL0     C96394   1.282   9.858   1.505 -0.6118 -0.3904 -0.3263
  731MOL0     O96395   1.150   9.859   1.465  0.2875 -0.0292  0.5680
  731MOL0     C96396   1.063   9.957   1.520  0.2453  0.9678  0.5576
  731MOL0     C96397   0.921   9.906   1.492 -0.3623 -0.6869 -0.0775
  731MOL0     C96398   0.869   9.937   1.344  1.2572  0.0076  0.4454
  731MOL0     C96399   0.721   9.893   1.351  0.3387 -0.7586  0.1229
  731MOL0     C96400   0.651   9.976   1.238  0.5115  0.7383  0.6423
  731MOL0     C96401   0.505   9.949   1.222  0.5092  0.2157 -0.1141
  731MOL0     C96402   0.438  10.034   1.112  0.9070 -0.1541 -0.4420
  731MOL0     C96403   0.336  10.134   1.183 -0.4483  0.4686  0.0462
  731MOL0    Cl96404   0.195  10.058   1.276 -0.6070  0.2391 -0.2274
  731MOL0     C96405   1.348   9.962   1.557 -0.6669  0.0880 -0.4060
  731MOL0     C96406   1.483   9.944   1.579  0.5718 -0.2852  0.7707
  731MOL0     O96407   1.663   9.896   1.791  0.0833  0.1547 -0.5091
  731MOL0     C96408   1.915   9.828   1.883 -0.2525 -0.6907 -0.4668
  731MOL0     C96409   2.050   9.815   1.920  0.3380  0.2948  0.7325
  731MOL0     N96410   2.757   9.988   2.346 -0.3519  0.1784 -0.2950
  731MOL0     N96411   2.810   9.937   2.452 -0.2237 -0.7497  0.2709
  731MOL0     C96412   3.926   9.747   2.967  0.0276 -0.5803  0.8010
  731MOL0     C96413   4.053   9.791   2.996 -0.0179 -0.1354  0.3586
  731MOL0     C96414   4.413  10.050   3.079 -0.4723  0.2044  1.2663
  731MOL0     C96415   4.544  10.042   3.022 -0.0380 -0.0182  0.2049
  731MOL0     C96416   4.647  10.122   3.062  0.6189 -0.2016 -0.5884
  731MOL0     C96417   4.629  10.216   3.159 -0.0871  0.6476  1.2746
  731MOL0     O96418   4.718  10.301   3.203  0.1555 -0.3194  0.2423
  731MOL0     C96419   4.836  10.331   3.133 -0.0887 -0.3975  1.4785
  731MOL0     C96420   4.794  10.447   3.049  0.6847 -0.8676  0.2357
  731MOL0     C96421   4.878  10.472   2.920  0.2081 -0.0927 -0.7278
  731MOL0     C96422   4.818  10.588   2.837 -0.4943 -0.8028  0.2515
  731MOL0     C96423   4.668  10.581   2.827 -0.6344  0.8230 -0.3619
  731MOL0     C96424   4.552  10.576   2.815 -0.0821 -0.1387 -0.1934
  731MOL0     C96425   4.502  10.224   3.230 -0.7032  0.1346  0.3595
  731MOL0     C96426   4.397  10.137   3.195 -0.8353 -0.0766  0.1515
  731MOL0     H96427   3.987  10.041   3.202 -0.5575  0.3259 -0.1712
  731MOL0     H96428   3.752   9.964   3.158 -0.5896  1.3547 -3.2766
  731MOL0     H96429   3.689   9.578   2.950 -0.5957  0.3147  3.0535
  731MOL0     H96430   3.689   9.695   2.809  1.0945  0.8147  1.8712
  731MOL0     H96431   3.455   9.770   2.862 -1.9153  0.3834  2.8941
  731MOL0     H96432   3.464   9.677   3.007  1.7794 -1.7621  0.5769
  731MOL0     H96433   3.473   9.465   2.874 -1.4430 -2.5845 -2.2281
  731MOL0     H96434   3.482   9.543   2.719  0.7564 -2.5832  1.2452
  731MOL0     H96435   3.267   9.438   2.806 -2.7120  0.5586 -0.8576
  731MOL0     H96436   3.235   9.590   2.894  0.7890  0.2051  0.9474
  731MOL0     H96437   3.289   9.555   2.588 -3.3777 -1.2173 -1.5629
  731MOL0     H96438   3.283   9.705   2.683  1.2155 -1.5796 -0.6014
  731MOL0     H96439   3.032   9.648   2.720 -0.3074  0.6205 -0.2183
  731MOL0     H96440   3.056   9.490   2.629 -0.9816 -0.1016  2.1500
  731MOL0     H96441   3.125   9.754   2.508  0.5393  0.6319  0.1865
  731MOL0     H96442   3.065   9.604   2.429  0.8653 -2.8336  1.4054
  731MOL0     H96443   2.908   9.787   2.624 -0.3274 -0.1709  0.6282
  731MOL0     H96444   2.844   9.646   2.529  0.9808 -0.5038  0.6668
  731MOL0     H96445   2.862   9.696   2.231  1.0843  0.6961  0.4553
  731MOL0     H96446   2.735   9.868   2.048 -0.9880 -1.0386  0.2822
  731MOL0     H96447   2.653  10.014   2.118  2.1877 -0.2991 -2.0279
  731MOL0     H96448   2.482   9.904   2.212  0.1886  1.1908 -0.1925
  731MOL0     H96449   2.554   9.749   2.163  1.5599  0.4683 -1.5759
  731MOL0     H96450   2.493   9.959   1.951  0.2005  0.7071  1.0965
  731MOL0     H96451   2.511   9.782   1.935 -0.5224 -0.3392 -0.0232
  731MOL0     H96452   2.284   9.935   2.039 -1.3726 -1.0100  0.2725
  731MOL0     H96453   2.289   9.764   2.062 -1.6860  0.0202 -0.1962
  731MOL0     H96454   2.190   9.842   1.615  0.1285  0.4903  1.5971
  731MOL0     H96455   1.956   9.852   1.549  0.6671 -0.5030  0.2457
  731MOL0     H96456   1.535   9.637   1.465  0.9775  2.2445 -3.5661
  731MOL0     H96457   1.305   9.658   1.424  0.0601  0.2275 -0.8571
  731MOL0     H96458   1.086  10.056   1.480 -3.0900  1.9035  0.6376
  731MOL0     H96459   1.088   9.972   1.625  0.5421 -2.8594  1.1990
  731MOL0     H96460   0.855   9.961   1.560  0.7566 -0.1550  0.6112
  731MOL0     H96461   0.911   9.800   1.515  1.3063 -0.4457  2.0676
  731MOL0     H96462   0.926   9.881   1.269  1.0468  1.8534 -1.1666
  731MOL0     H96463   0.878  10.040   1.310  0.0143 -0.2393 -0.7021
  731MOL0     H96464   0.703   9.785   1.349  0.3672 -1.0215  4.3773
  731MOL0     H96465   0.667   9.914   1.444 -0.2918  0.3283 -0.4640
  731MOL0     H96466   0.697   9.961   1.140  1.6041 -0.8671  1.3576
  731MOL0     H96467   0.656  10.083   1.258 -2.1897  0.7724  1.6121
  731MOL0     H96468   0.455   9.958   1.319  4.1915 -0.8645  2.0956
  731MOL0     H96469   0.482   9.847   1.190 -0.8004  0.7381 -0.9279
  731MOL0     H96470   0.508  10.097   1.057 -0.3758  0.3728 -1.5263
  731MOL0     H96471   0.381   9.972   1.042 -1.9771  1.7331  0.0724
  731MOL0     H96472   0.296  10.204   1.109  0.6505  0.1344 -0.8887
  731MOL0     H96473   0.389  10.199   1.253 -3.5071  2.4941  0.6749
  731MOL0     H96474   1.301  10.058   1.576  2.6850  1.8474 -0.1960
  731MOL0     H96475   1.524  10.028   1.635  2.2357 -0.7794  0.3533
  731MOL0     H96476   1.835   9.837   1.955  1.2733 -2.6976  1.6128
  731MOL0     H96477   2.065   9.810   2.027  1.3185 -0.5811  0.5658
  731MOL0     H96478   3.900   9.668   2.898 -0.0703 -0.4135  0.6471
  731MOL0     H96479   4.141   9.744   2.953  1.9395  1.3006  2.5700
  731MOL0     H96480   4.559   9.970   2.943  2.3014  2.4225 -1.7964
  731MOL0     H96481   4.741  10.100   3.011  1.1049 -0.7085  0.4975
  731MOL0     H96482   4.870  10.252   3.066 -0.9657 -1.6898  2.4968
  731MOL0     H96483   4.924  10.355   3.194 -0.3434  2.0147  0.9720
  731MOL0     H96484   4.693  10.422   3.013  0.8904 -3.0855  1.0017
  731MOL0     H96485   4.797  10.537   3.111 -0.1310 -0.8714  0.2962
  731MOL0     H96486   4.876  10.387   2.851  0.9042  0.0863 -0.9817
  731MOL0     H96487   4.982  10.502   2.933 -0.0854  0.7077 -0.1269
  731MOL0     H96488   4.851  10.682   2.883  1.4597 -0.7347 -1.1787
  731MOL0     H96489   4.857  10.585   2.735 -1.3985  0.4654 -0.1576
  731MOL0     H96490   4.448  10.578   2.791  0.1720 -1.2463 -1.5306
  731MOL0     H96491   4.500  10.293   3.314  0.2158  0.6579 -0.0334
  731MOL0     H96492   4.299  10.138   3.244 -0.5222 -2.6247  0.9346
  732MOL0     O96493   0.987   6.231   8.186  0.2781 -0.4182  0.6413
  732MOL0     C96494   1.105   6.206   8.206  0.1809  0.8257 -0.1134
  732MOL0     O96495   1.170   6.199   8.331  0.2983  0.2774  0.7638
  732MOL0     C96496   1.093   6.233   8.435 -0.5243 -1.3288 -0.8722
  732MOL0     C96497   1.062   6.140   8.534  0.0307  0.6684 -0.1242
  732MOL0     C96498   0.985   6.169   8.649 -0.1400 -0.0444 -0.2432
  732MOL0     C96499   0.953   6.306   8.670  0.6897  0.8210 -0.6274
  732MOL0     O96500   0.880   6.328   8.784 -0.1565  0.0014  0.2868
  732MOL0     C96501   0.783   6.433   8.764  0.9026  0.4191  0.1850
  732MOL0     C96502   0.655   6.414   8.849 -0.5482 -0.2692 -0.2816
  732MOL0     C96503   0.588   6.273   8.864  0.2846  0.0672 -0.0226
  732MOL0     C96504   0.566   6.207   8.721 -0.1480 -0.0771 -0.6523
  732MOL0     C96505   0.511   6.069   8.751 -0.1683 -0.0108 -0.2001
  732MOL0     C96506   0.493   5.989   8.627 -0.3655 -0.3692  0.5900
  732MOL0     C96507   0.634   5.947   8.570  0.0314 -0.6326  0.3938
  732MOL0     C96508   0.641   5.895   8.431 -0.0700  0.4815  0.0334
  732MOL0     N96509   0.617   6.010   8.346  0.3435  0.6767 -0.5086
  732MOL0     C96510   0.696   6.124   8.326  0.3739 -0.3765 -0.1953
  732MOL0     C96511   0.611   6.214   8.255 -0.2778  0.8947 -0.4858
  732MOL0     C96512   0.655   6.351   8.228  0.1111  0.3038  0.2784
  732MOL0     C96513   0.668   6.432   8.365  0.0918  0.0402  0.1317
  732MOL0     C96514   0.565   6.549   8.362 -0.3567  0.3487 -0.0354
  732MOL0     C96515   0.425   6.491   8.368 -0.4453 -0.4946 -0.4786
  732MOL0     O96516   0.334   6.603   8.398  0.4164  0.1292 -0.1241
  732MOL0     C96517   0.206   6.565   8.419  0.2515  1.4919  0.4230
  732MOL0     C96518   0.167   6.427   8.398 -0.1509  0.4475  0.3004
  732MOL0     C96519   0.034   6.391   8.428 -0.0786  0.1720 -0.8508
  732MOL0     C96520  -0.059   6.487   8.488  0.9437 -0.3462  0.8253
  732MOL0     C96521  -0.198   6.448   8.517  0.6043 -0.4035 -0.2352
  732MOL0     O96522  -0.270   6.551   8.562 -0.3367  0.5244  0.2662
  732MOL0     C96523  -0.401   6.538   8.601  1.2224  0.1609 -0.3563
  732MOL0     C96524  -0.468   6.417   8.637  0.2338 -0.5370  0.4400
  732MOL0     C96525  -0.607   6.405   8.658 -0.9191  0.5991 -0.1384
  732MOL0     C96526  -0.675   6.519   8.634  0.0332 -0.8802  0.5531
  732MOL0     O96527  -0.815   6.525   8.655  0.5859  0.0822  0.3639
  732MOL0     C96528  -0.897   6.416   8.603 -0.1002 -0.2559 -0.2325
  732MOL0     C96529  -1.045   6.443   8.631 -0.1137  0.4152 -0.4393
  732MOL0     C96530  -1.134   6.321   8.611  0.6379  0.9146  0.3845
  732MOL0     C96531  -1.122   6.216   8.723  0.7323 -0.4173 -0.0607
  732MOL0     C96532  -1.241   6.120   8.737 -0.3107  0.1471  0.1023
  732MOL0     C96533  -1.190   5.973   8.771 -0.5033  0.1666 -0.0737
  732MOL0     C96534  -1.126   5.984   8.911 -0.7969 -0.3085 -0.1049
  732MOL0     C96535  -1.106   5.844   8.979  0.1166  0.4366 -0.3028
  732MOL0    Cl96536  -1.007   5.737   8.874 -0.1172 -0.6316 -0.3413
  732MOL0     C96537  -0.615   6.642   8.582 -0.4186 -0.9010 -0.5882
  732MOL0     C96538  -0.481   6.651   8.587  0.2486  0.6011 -0.3615
  732MOL0     O96539  -0.241   6.340   8.486  0.4075 -0.1833 -0.2281
  732MOL0     C96540  -0.015   6.622   8.506  0.3694  0.1364  0.1517
  732MOL0     C96541   0.115   6.659   8.459 -0.0445  0.0942  0.1658
  732MOL0     N96542   0.495   6.150   8.226  0.8231 -0.1776  0.2502
  732MOL0     N96543   0.504   6.033   8.276 -0.7136 -0.6847 -0.0150
  732MOL0     C96544   0.986   6.407   8.579  0.2675 -0.5046 -0.1609
  732MOL0     C96545   1.045   6.365   8.459 -0.2207 -1.2893  0.0756
  732MOL0     C96546   1.175   6.170   8.085 -2.3838  0.2802 -0.3876
  732MOL0     C96547   1.307   6.118   8.098  0.1157  0.2765 -0.3172
  732MOL0     C96548   1.368   6.072   7.980 -0.3414 -0.2616  0.0557
  732MOL0     C96549   1.319   6.085   7.853  0.6329  0.5666  0.6102
  732MOL0     O96550   1.394   6.050   7.743  0.0193 -0.4167  0.1691
  732MOL0     C96551   1.313   6.020   7.624 -0.6559  0.3115 -0.3445
  732MOL0     C96552   1.396   5.984   7.495  0.5362  0.6070 -0.6055
  732MOL0     C96553   1.479   6.107   7.461  0.0135  0.1601  0.4570
  732MOL0     C96554   1.598   6.072   7.367 -0.5604 -0.3991 -0.3904
  732MOL0     C96555   1.556   6.027   7.232  0.4410  0.0269  0.2800
  732MOL0     C96556   1.501   6.014   7.120  0.2503  0.7069  0.3651
  732MOL0     C96557   1.195   6.146   7.841 -0.6528 -0.8749 -0.1463
  732MOL0     C96558   1.120   6.186   7.953  0.2200 -0.2676  0.1369
  732MOL0     H96559   1.104   6.043   8.512 -1.2717  0.1799 -0.5654
  732MOL0     H96560   0.971   6.099   8.730  2.7181 -0.4782 -0.0133
  732MOL0     H96561   0.747   6.418   8.661 -1.6363 -2.9495  1.3661
  732MOL0     H96562   0.818   6.536   8.768 -2.9607  2.0802 -2.4507
  732MOL0     H96563   0.585   6.492   8.818 -1.4768 -0.4565  1.2507
  732MOL0     H96564   0.688   6.446   8.948  0.4975 -0.8367 -0.4327
  732MOL0     H96565   0.500   6.281   8.929  3.1753 -0.5496  4.3475
  732MOL0     H96566   0.661   6.210   8.914 -0.0847 -1.5722 -1.4551
  732MOL0     H96567   0.501   6.266   8.656  1.1928  0.4477 -1.5362
  732MOL0     H96568   0.665   6.202   8.675  1.3233 -0.6204  2.3006
  732MOL0     H96569   0.416   6.083   8.803  0.5253 -0.0016  1.0923
  732MOL0     H96570   0.579   6.008   8.811  0.1542  0.4399 -0.1064
  732MOL0     H96571   0.434   6.047   8.556  0.1047  0.1425  0.6029
  732MOL0     H96572   0.444   5.892   8.635 -0.9452 -0.0476  0.9944
  732MOL0     H96573   0.710   6.022   8.595  3.4088 -3.7557  0.4747
  732MOL0     H96574   0.671   5.859   8.625 -2.2190 -2.8003 -1.3155
  732MOL0     H96575   0.570   5.814   8.413  1.6991 -1.1260  0.0327
  732MOL0     H96576   0.743   5.856   8.420 -0.8662 -1.7279  0.0239
  732MOL0     H96577   0.796   6.142   8.363 -0.2573 -1.3188  2.1793
  732MOL0     H96578   0.589   6.387   8.149  2.1519 -1.6173 -2.5417
  732MOL0     H96579   0.758   6.345   8.193  0.1097 -1.6400  0.4606
  732MOL0     H96580   0.767   6.478   8.376 -0.0050  0.3484 -0.2540
  732MOL0     H96581   0.655   6.371   8.455  0.7042 -3.5836 -2.0282
  732MOL0     H96582   0.574   6.622   8.443 -0.5351  0.5960 -0.2374
  732MOL0     H96583   0.572   6.606   8.269 -5.7446  1.5169 -0.0295
  732MOL0     H96584   0.420   6.424   8.454 -0.1935  0.6417  0.4513
  732MOL0     H96585   0.392   6.442   8.276  0.0122 -1.5151 -0.1146
  732MOL0     H96586   0.229   6.350   8.350 -0.8747  0.1786 -0.2197
  732MOL0     H96587   0.003   6.288   8.410 -1.1321  0.0585  1.2050
  732MOL0     H96588  -0.420   6.320   8.650  1.0389 -0.0306  1.4933
  732MOL0     H96589  -0.656   6.312   8.686  0.0228 -0.3398 -1.4456
  732MOL0     H96590  -0.870   6.326   8.659 -0.9572 -0.3124  0.1083
  732MOL0     H96591  -0.879   6.400   8.496 -2.5345  1.4445 -0.9991
  732MOL0     H96592  -1.077   6.519   8.560 -1.6209 -1.2234 -1.6075
  732MOL0     H96593  -1.051   6.486   8.731 -0.1535 -0.2648 -0.1397
  732MOL0     H96594  -1.102   6.280   8.514 -1.6339  2.1177 -0.9585
  732MOL0     H96595  -1.237   6.356   8.598  0.1999 -0.4252  0.0182
  732MOL0     H96596  -1.036   6.150   8.706 -0.1735 -1.4742 -0.6216
  732MOL0     H96597  -1.102   6.260   8.822  0.0159 -2.3603  1.0011
  732MOL0     H96598  -1.293   6.114   8.641  0.9823  1.0547 -0.6819
  732MOL0     H96599  -1.314   6.154   8.811  0.4193  0.1484  0.8334
  732MOL0     H96600  -1.108   5.949   8.704  0.1909 -0.1713  0.8810
  732MOL0     H96601  -1.270   5.899   8.770 -1.4870  1.1987 -0.9629
  732MOL0     H96602  -1.031   6.039   8.909 -0.9539  0.1308  2.2465
  732MOL0     H96603  -1.189   6.039   8.981 -0.5234 -1.0215  0.7164
  732MOL0     H96604  -1.209   5.810   8.992  0.5659 -0.5470  0.8503
  732MOL0     H96605  -1.056   5.866   9.074 -0.1501  1.1917 -0.3337
  732MOL0     H96606  -0.672   6.735   8.576  1.9685  0.6646 -0.3269
  732MOL0     H96607  -0.422   6.733   8.549  0.6983  1.8101  2.6401
  732MOL0     H96608  -0.085   6.698   8.539  0.0912  0.1836 -0.5220
  732MOL0     H96609   0.132   6.766   8.464 -1.2125  0.2530  1.9671
  732MOL0     H96610   0.968   6.512   8.600  0.0725 -0.6843  0.6179
  732MOL0     H96611   1.073   6.440   8.385  0.1748 -0.8092  0.6968
  732MOL0     H96612   1.358   6.106   8.193  2.0091 -1.7213 -1.4913
  732MOL0     H96613   1.467   6.027   7.986  0.1086  0.3695 -2.0302
  732MOL0     H96614   1.259   6.109   7.590 -2.5580 -1.4626 -2.3021
  732MOL0     H96615   1.242   5.942   7.653 -1.8876  0.3754 -2.8449
  732MOL0     H96616   1.452   5.894   7.522 -2.6450 -1.3331  0.0329
  732MOL0     H96617   1.329   5.957   7.413 -2.4079 -1.2006  2.1714
  732MOL0     H96618   1.516   6.160   7.549  2.5206  0.1276 -0.5038
  732MOL0     H96619   1.421   6.186   7.413 -0.4665  0.2721  1.2033
  732MOL0     H96620   1.648   6.169   7.363 -1.4809  0.3235  2.7487
  732MOL0     H96621   1.661   5.990   7.405 -0.4774  1.4024  3.8510
  732MOL0     H96622   1.453   5.994   7.027 -0.9631 -0.5564  1.2317
  732MOL0     H96623   1.147   6.182   7.751  0.1597  0.8716  0.0864
  732MOL0     H96624   1.028   6.243   7.946  0.8199  1.1891  2.7092
  733MOL0     O96625   3.135   0.758   4.940  0.2032 -0.1696 -1.1091
  733MOL0     C96626   3.211   0.667   4.904  0.7917 -0.2500  0.4049
  733MOL0     O96627   3.171   0.550   4.841  0.5228  0.2434 -0.3006
  733MOL0     C96628   3.033   0.534   4.809 -0.6533  0.0541 -0.0113
  733MOL0     C96629   2.934   0.529   4.906  0.0241  0.5905  0.9322
  733MOL0     C96630   2.794   0.513   4.874 -0.8647  0.3134 -0.4010
  733MOL0     C96631   2.765   0.496   4.742  0.9872 -0.1900  0.4454
  733MOL0     O96632   2.629   0.470   4.718 -1.0078 -0.4105 -0.4345
  733MOL0     C96633   2.580   0.549   4.612  0.2121 -0.2720 -0.5724
  733MOL0     C96634   2.427   0.572   4.632 -0.1066 -0.1686 -0.6322
  733MOL0     C96635   2.340   0.443   4.607  0.5426  0.0222  0.0251
  733MOL0     C96636   2.187   0.458   4.569 -0.1619 -1.2091  0.2346
  733MOL0     C96637   2.115   0.580   4.640  0.2834 -0.2084  0.2459
  733MOL0     C96638   1.972   0.598   4.583 -0.0791  0.6635  0.7818
  733MOL0     C96639   1.879   0.678   4.668 -1.0278 -0.8826  0.3108
  733MOL0     C96640   1.733   0.656   4.610 -0.6044  0.2359 -0.2311
  733MOL0     N96641   1.668   0.533   4.645 -1.2765  0.5821 -0.3043
  733MOL0     C96642   1.712   0.400   4.672  0.6964 -0.1141 -0.3390
  733MOL0     C96643   1.599   0.332   4.697 -0.0680 -0.7192 -0.5888
  733MOL0     C96644   1.580   0.184   4.735  0.6419 -0.2095  0.2673
  733MOL0     C96645   1.545   0.101   4.605  0.4027 -0.3600  0.1860
  733MOL0     C96646   1.430  -0.003   4.637  0.0278 -0.0165  1.1904
  733MOL0     C96647   1.463  -0.123   4.714  0.2606 -0.0724  0.0070
  733MOL0     O96648   1.353  -0.186   4.768  0.3381  0.2681 -0.5763
  733MOL0     C96649   1.286  -0.143   4.874  0.2783  0.1598  0.4168
  733MOL0     C96650   1.318  -0.039   4.964  0.0869 -0.5484 -0.9349
  733MOL0     C96651   1.251  -0.020   5.085  0.1646  0.6506 -0.3991
  733MOL0     C96652   1.149  -0.109   5.119  0.6559  0.3175 -0.5794
  733MOL0     C96653   1.093  -0.109   5.255  0.2295  0.2979 -0.2727
  733MOL0     O96654   0.984  -0.185   5.269  0.1550 -0.3022 -0.8191
  733MOL0     C96655   0.888  -0.171   5.377 -0.4955  0.4069 -0.3760
  733MOL0     C96656   0.752  -0.176   5.335 -0.0072 -0.2439 -0.3515
  733MOL0     C96657   0.647  -0.173   5.430 -0.1298 -0.6016  0.3087
  733MOL0     C96658   0.681  -0.175   5.570  0.3133 -0.1488  0.8631
  733MOL0     O96659   0.575  -0.182   5.660  0.2874 -0.5531 -0.7629
  733MOL0     C96660   0.497  -0.058   5.663  0.2870 -0.4282  0.0543
  733MOL0     C96661   0.396  -0.112   5.759 -0.6152  0.2462 -0.3729
  733MOL0     C96662   0.281  -0.013   5.747  0.8433 -0.5736 -0.1056
  733MOL0     C96663   0.174  -0.067   5.845 -0.3779 -0.5613  0.0868
  733MOL0     C96664   0.050   0.018   5.831  0.3490  0.0604  0.0491
  733MOL0     C96665  -0.049  -0.018   5.945 -0.1184  0.2456  0.1815
  733MOL0     C96666  -0.184   0.037   5.912 -0.0632 -0.5230  0.0217
  733MOL0     C96667  -0.269   0.060   6.038 -0.0829  0.2514  0.0507
  733MOL0    Cl96668  -0.448   0.075   6.021  0.2496  0.0129 -0.3396
  733MOL0     C96669   0.817  -0.180   5.609 -0.3468 -0.4240  0.1616
  733MOL0     C96670   0.919  -0.158   5.511 -0.5008 -0.5509  0.1203
  733MOL0     O96671   1.145  -0.045   5.348 -0.8913  0.4920 -0.1013
  733MOL0     C96672   1.110  -0.208   5.028 -0.1351  0.2742  0.0598
  733MOL0     C96673   1.182  -0.227   4.909  0.0423 -0.8267  0.4950
  733MOL0     N96674   1.496   0.422   4.696 -0.9281 -0.0482 -0.8062
  733MOL0     N96675   1.537   0.536   4.667  0.3984  0.2328 -0.2652
  733MOL0     C96676   2.863   0.497   4.642  0.3555  0.3525 -0.5942
  733MOL0     C96677   2.999   0.511   4.675  0.8070  0.2373 -0.2683
  733MOL0     C96678   3.352   0.661   4.927 -0.2162  0.0478 -0.4917
  733MOL0     C96679   3.432   0.592   4.838  0.4702 -0.0578  0.3184
  733MOL0     C96680   3.567   0.570   4.867 -0.7499  0.3751  0.3027
  733MOL0     C96681   3.627   0.612   4.991  0.3215 -0.0438  0.8732
  733MOL0     O96682   3.759   0.604   5.000  0.3997  1.1110  0.2933
  733MOL0     C96683   3.818   0.612   5.134  0.1654 -0.8224  0.2463
  733MOL0     C96684   3.967   0.590   5.124 -0.0371  0.7397  0.5145
  733MOL0     C96685   4.040   0.653   5.236 -0.1054 -0.7339 -0.3602
  733MOL0     C96686   4.187   0.618   5.240  0.5669 -0.6119 -0.4341
  733MOL0     C96687   4.270   0.683   5.141 -0.2682  0.4314  0.4799
  733MOL0     C96688   4.343   0.730   5.057  0.1398 -0.7411  0.4744
  733MOL0     C96689   3.541   0.677   5.078  0.4875  0.4338 -0.6654
  733MOL0     C96690   3.412   0.714   5.042 -0.5930  0.0668 -0.2709
  733MOL0     H96691   2.979   0.532   5.004 -0.0220 -2.1551  1.1347
  733MOL0     H96692   2.717   0.515   4.950  0.3665  0.1489  0.8845
  733MOL0     H96693   2.606   0.509   4.514 -1.6752 -2.6450 -0.1924
  733MOL0     H96694   2.636   0.643   4.605  0.6530 -0.4643  0.2487
  733MOL0     H96695   2.407   0.644   4.551  0.7955  0.0359 -0.6804
  733MOL0     H96696   2.413   0.619   4.730  1.6663  2.0482 -1.3420
  733MOL0     H96697   2.336   0.403   4.709  0.7223 -0.1215 -0.0237
  733MOL0     H96698   2.387   0.372   4.538  0.2729 -1.5537  1.4081
  733MOL0     H96699   2.189   0.476   4.461 -0.9285  1.9141  0.6637
  733MOL0     H96700   2.136   0.362   4.581  0.1506 -1.3108  0.7791
  733MOL0     H96701   2.165   0.676   4.626  0.5661 -0.3775  0.0955
  733MOL0     H96702   2.105   0.555   4.746 -2.3244  1.2614  0.4525
  733MOL0     H96703   1.927   0.502   4.557 -0.8367  1.1408  0.2960
  733MOL0     H96704   1.972   0.638   4.481 -2.9825  1.7861  1.1118
  733MOL0     H96705   1.897   0.653   4.773  2.5913 -3.0871 -0.6593
  733MOL0     H96706   1.902   0.785   4.669 -3.9306 -0.1584 -0.0184
  733MOL0     H96707   1.729   0.665   4.501 -1.0514 -0.5361 -0.2818
  733MOL0     H96708   1.679   0.740   4.656  3.1439  2.2342  0.9746
  733MOL0     H96709   1.810   0.356   4.657  0.2903 -1.0532 -0.3369
  733MOL0     H96710   1.500   0.171   4.808  3.5804  0.4945  3.8970
  733MOL0     H96711   1.671   0.143   4.777 -1.0923 -5.1176 -0.1541
  733MOL0     H96712   1.633   0.042   4.575  0.4914 -1.3169  2.2117
  733MOL0     H96713   1.507   0.173   4.532 -2.0260 -0.0342  1.6790
  733MOL0     H96714   1.347   0.045   4.690  0.1041  0.8849  0.5028
  733MOL0     H96715   1.394  -0.040   4.541  2.4148 -0.8465  0.5413
  733MOL0     H96716   1.531  -0.097   4.796  0.7204  0.9271 -0.6694
  733MOL0     H96717   1.529  -0.183   4.652  0.1066 -0.3990  0.1581
  733MOL0     H96718   1.399   0.027   4.938 -0.6948  0.1462 -1.6607
  733MOL0     H96719   1.272   0.065   5.149  1.2395 -0.5915  0.9574
  733MOL0     H96720   0.737  -0.197   5.230  0.5765 -0.4616 -0.3948
  733MOL0     H96721   0.546  -0.169   5.391 -0.0077 -1.5929 -0.1266
  733MOL0     H96722   0.446  -0.032   5.570  0.2679  2.7080  0.8212
  733MOL0     H96723   0.548   0.029   5.704 -1.4990  1.7631 -2.0986
  733MOL0     H96724   0.447  -0.116   5.855  0.2771  0.5620 -0.8201
  733MOL0     H96725   0.360  -0.211   5.729 -0.6159  0.3198 -0.6180
  733MOL0     H96726   0.243  -0.015   5.644  0.2412 -1.8619  0.1254
  733MOL0     H96727   0.316   0.085   5.780  2.3089 -0.3962 -1.9646
  733MOL0     H96728   0.147  -0.169   5.816  2.5638 -0.6909 -2.7747
  733MOL0     H96729   0.226  -0.070   5.942 -0.1703  1.7814  0.0990
  733MOL0     H96730   0.010   0.006   5.730  0.8738 -0.7391 -0.0738
  733MOL0     H96731   0.072   0.125   5.837  1.4307 -0.1732  0.5744
  733MOL0     H96732  -0.002   0.025   6.034  2.3046  0.6191 -1.1927
  733MOL0     H96733  -0.050  -0.125   5.964 -0.0436 -0.1158 -1.6693
  733MOL0     H96734  -0.170   0.131   5.857  0.9391 -0.2682  0.6869
  733MOL0     H96735  -0.236  -0.033   5.846  1.5772 -2.3035  0.5125
  733MOL0     H96736  -0.226   0.136   6.103 -0.0879 -0.5826  1.0670
  733MOL0     H96737  -0.258  -0.036   6.090 -2.3260  1.4387  2.9867
  733MOL0     H96738   0.842  -0.178   5.715 -2.4719  0.7449  0.7095
  733MOL0     H96739   1.023  -0.140   5.538  0.4115  3.0622 -4.5084
  733MOL0     H96740   1.026  -0.273   5.045 -0.4252  0.9043  1.1410
  733MOL0     H96741   1.149  -0.304   4.841 -0.7055  1.0388 -1.3359
  733MOL0     H96742   2.833   0.484   4.539 -0.4766  1.5960 -0.5208
  733MOL0     H96743   3.079   0.509   4.601  0.3682  0.6255 -0.7586
  733MOL0     H96744   3.383   0.556   4.748 -3.0628  3.6984  0.4606
  733MOL0     H96745   3.618   0.509   4.794 -2.5112 -1.4861  0.5392
  733MOL0     H96746   3.768   0.543   5.203 -0.8042 -1.8104 -1.3958
  733MOL0     H96747   3.808   0.716   5.167  3.4959 -0.0664 -0.7231
  733MOL0     H96748   3.971   0.481   5.129  0.1115  0.5649 -1.9242
  733MOL0     H96749   3.996   0.633   5.027 -1.3451 -1.4269 -0.9295
  733MOL0     H96750   3.984   0.640   5.329 -3.2466  2.9830 -1.4633
  733MOL0     H96751   4.043   0.762   5.242  0.0221 -0.7768  0.5670
  733MOL0     H96752   4.225   0.661   5.333  1.1151 -2.1518  0.0783
  733MOL0     H96753   4.205   0.511   5.240  3.6436 -0.1871 -0.3426
  733MOL0     H96754   4.414   0.771   4.988  2.6743 -1.4625  2.4701
  733MOL0     H96755   3.557   0.704   5.182 -1.5508  0.4986 -0.3226
  733MOL0     H96756   3.355   0.775   5.111  0.8803 -0.5999  1.6609
  734MOL0     O96757   1.511   4.712   5.315 -0.6170  0.1143 -0.2852
  734MOL0     C96758   1.571   4.814   5.353 -0.6332 -0.0154 -0.1755
  734MOL0     O96759   1.523   4.943   5.356  0.0610 -0.3769  0.1914
  734MOL0     C96760   1.407   4.984   5.292  0.4363 -0.3765  0.0353
  734MOL0     C96761   1.374   5.120   5.322  0.0763  0.2216  0.0492
  734MOL0     C96762   1.248   5.174   5.277  0.0992 -0.6296 -0.8512
  734MOL0     C96763   1.173   5.100   5.187  0.9247 -0.4939 -0.6885
  734MOL0     O96764   1.040   5.134   5.145 -0.5698 -0.0438 -0.5256
  734MOL0     C96765   0.993   5.272   5.171 -0.7760  0.1757  0.8329
  734MOL0     C96766   0.862   5.295   5.110 -0.3166  0.1711  0.1117
  734MOL0     C96767   0.870   5.281   4.957  0.6860 -0.0684  0.8617
  734MOL0     C96768   0.736   5.319   4.890  0.5952  0.3121 -0.1851
  734MOL0     C96769   0.606   5.267   4.956  0.8783  0.8579  0.3907
  734MOL0     C96770   0.473   5.299   4.876 -0.0132 -0.4229 -0.4960
  734MOL0     C96771   0.440   5.448   4.894 -0.2504 -0.7140 -0.1861
  734MOL0     C96772   0.338   5.488   4.794  0.1375  0.3110 -0.2071
  734MOL0     N96773   0.206   5.426   4.822 -0.4818  0.2826 -0.0345
  734MOL0     C96774   0.125   5.462   4.927 -0.0901  0.3208  0.7249
  734MOL0     C96775   0.003   5.400   4.899 -0.7454 -0.1764  0.0750
  734MOL0     C96776  -0.114   5.390   4.991  0.4310 -0.2825  1.1665
  734MOL0     C96777  -0.068   5.290   5.089 -0.3093 -0.4841  0.3643
  734MOL0     C96778  -0.164   5.304   5.218  0.5085 -0.8937 -0.4082
  734MOL0     C96779  -0.129   5.180   5.302  0.0233  0.1649 -0.1650
  734MOL0     O96780  -0.222   5.174   5.413 -0.9219  0.0017 -0.0425
  734MOL0     C96781  -0.348   5.131   5.388  0.3711 -0.2918 -0.4432
  734MOL0     C96782  -0.399   5.082   5.267 -0.0638  0.6946 -1.1582
  734MOL0     C96783  -0.535   5.050   5.254  0.0268 -0.6229  0.4591
  734MOL0     C96784  -0.627   5.091   5.352 -0.1629 -0.1209 -0.8184
  734MOL0     C96785  -0.769   5.086   5.314 -0.1921  0.3391 -0.2618
  734MOL0     O96786  -0.852   5.134   5.412  0.0447 -1.0168  0.6277
  734MOL0     C96787  -0.992   5.127   5.400 -1.2510 -0.3795 -0.7033
  734MOL0     C96788  -1.062   5.090   5.510 -0.3188  0.0779 -0.2937
  734MOL0     C96789  -1.199   5.099   5.502  0.5849  0.5130  0.0425
  734MOL0     C96790  -1.274   5.134   5.385  0.4253 -0.7340 -0.4094
  734MOL0     O96791  -1.410   5.113   5.382 -0.2511 -0.2228 -0.1264
  734MOL0     C96792  -1.485   5.198   5.285  0.5064 -0.7159 -0.2188
  734MOL0     C96793  -1.636   5.189   5.297 -0.4760  0.0382  0.3782
  734MOL0     C96794  -1.684   5.041   5.304 -0.1007  0.2770 -0.4320
  734MOL0     C96795  -1.839   5.043   5.294  0.4473 -0.1688 -0.1572
  734MOL0     C96796  -1.897   4.892   5.303 -0.0245 -0.8159  0.5266
  734MOL0     C96797  -2.046   4.900   5.279  0.8855  0.5420 -0.3420
  734MOL0     C96798  -2.111   4.761   5.282  0.5528  0.4734 -0.4373
  734MOL0     C96799  -2.256   4.780   5.258 -0.0388  0.4721 -0.0252
  734MOL0    Cl96800  -2.283   4.863   5.099  0.0762  0.0791  0.4329
  734MOL0     C96801  -1.193   5.176   5.277 -0.4834  0.2647 -0.4858
  734MOL0     C96802  -1.057   5.167   5.287 -0.0354 -0.6210  0.5853
  734MOL0     O96803  -0.808   5.024   5.209 -0.4732  0.4616  0.6510
  734MOL0     C96804  -0.586   5.136   5.475 -0.4198 -0.4472 -0.9142
  734MOL0     C96805  -0.442   5.151   5.493  0.5871 -0.2605 -0.5255
  734MOL0     N96806   0.014   5.341   4.775 -0.1539 -0.0044 -0.1257
  734MOL0     N96807   0.132   5.346   4.738 -0.1963 -0.4336  0.2941
  734MOL0     C96808   1.210   4.974   5.163  0.5636  1.2496 -0.2463
  734MOL0     C96809   1.324   4.914   5.205  0.0240 -0.0167  0.2006
  734MOL0     C96810   1.708   4.787   5.408  0.3845  0.7746 -0.2445
  734MOL0     C96811   1.743   4.666   5.476  0.2351  0.5161 -0.3273
  734MOL0     C96812   1.867   4.636   5.537 -0.4934  0.9405  0.2298
  734MOL0     C96813   1.965   4.739   5.552  0.4405 -0.6094 -0.1013
  734MOL0     O96814   2.094   4.729   5.608 -0.1248  0.2301  0.2699
  734MOL0     C96815   2.134   4.596   5.644 -0.0419 -1.0268  0.5638
  734MOL0     C96816   2.161   4.504   5.525  0.6063 -0.3553 -0.4670
  734MOL0     C96817   2.248   4.572   5.418  0.1571 -1.1810  0.1262
  734MOL0     C96818   2.258   4.500   5.278 -0.6521  0.1422 -0.3221
  734MOL0     C96819   2.349   4.385   5.306  0.0288 -0.5806  0.9943
  734MOL0     C96820   2.430   4.294   5.333 -0.4903 -1.0556  0.1005
  734MOL0     C96821   1.930   4.859   5.485  1.1203 -0.7207  0.0363
  734MOL0     C96822   1.809   4.884   5.413  0.4487  0.3448  0.8480
  734MOL0     H96823   1.431   5.180   5.392  0.5368 -2.0795  1.7786
  734MOL0     H96824   1.216   5.271   5.312 -0.7372 -0.5744 -1.7176
  734MOL0     H96825   1.071   5.336   5.128  0.8031 -1.4068  1.1724
  734MOL0     H96826   0.996   5.302   5.276 -1.7696 -3.3889  2.0323
  734MOL0     H96827   0.843   5.402   5.126  0.0969  0.0143  1.8664
  734MOL0     H96828   0.781   5.234   5.152 -0.8220 -2.0478 -3.5987
  734MOL0     H96829   0.886   5.175   4.932 -0.6701  0.0160 -0.4933
  734MOL0     H96830   0.949   5.336   4.905  0.3502 -0.3122  0.0907
  734MOL0     H96831   0.729   5.428   4.897 -0.1040  0.3287 -0.9989
  734MOL0     H96832   0.739   5.285   4.786 -2.7443 -0.8804 -0.0369
  734MOL0     H96833   0.588   5.286   5.062 -0.9568 -1.0865  0.4919
  734MOL0     H96834   0.616   5.159   4.948 -0.5627  0.6446  1.1270
  734MOL0     H96835   0.392   5.244   4.924 -2.4000  3.8027  0.8786
  734MOL0     H96836   0.496   5.271   4.773 -0.9856  0.3136 -0.9248
  734MOL0     H96837   0.414   5.468   4.998 -1.1845 -0.6784 -0.4115
  734MOL0     H96838   0.531   5.501   4.866 -0.3834 -0.7829 -0.7654
  734MOL0     H96839   0.377   5.456   4.697 -0.3001 -0.8782 -0.0040
  734MOL0     H96840   0.336   5.597   4.801 -0.4118  0.2062  2.1041
  734MOL0     H96841   0.158   5.518   5.014  0.4615 -0.4654  1.0357
  734MOL0     H96842  -0.205   5.358   4.940  1.4252 -1.7236  0.2217
  734MOL0     H96843  -0.121   5.489   5.036  3.2836  0.7876 -0.4655
  734MOL0     H96844   0.036   5.299   5.121  0.7211  2.9767 -3.0915
  734MOL0     H96845  -0.073   5.188   5.050  4.1213 -1.4310  1.7303
  734MOL0     H96846  -0.138   5.396   5.271  1.7023 -1.1205 -0.5673
  734MOL0     H96847  -0.268   5.302   5.186  0.7767 -2.8984 -1.3363
  734MOL0     H96848  -0.029   5.191   5.347 -0.5092  0.5629  0.9567
  734MOL0     H96849  -0.130   5.085   5.247 -0.2704  0.5011 -0.7374
  734MOL0     H96850  -0.330   5.071   5.184  3.1580 -0.1430  1.4276
  734MOL0     H96851  -0.583   5.019   5.161 -2.8820  2.1769  0.8658
  734MOL0     H96852  -1.008   5.066   5.602  1.8771 -0.6107 -1.6883
  734MOL0     H96853  -1.265   5.083   5.586 -0.6218  1.1939 -0.7516
  734MOL0     H96854  -1.467   5.167   5.181  0.2328  0.5118 -0.6497
  734MOL0     H96855  -1.463   5.304   5.290 -1.1576 -0.2021 -2.1406
  734MOL0     H96856  -1.694   5.237   5.217 -4.5511 -0.5694  2.6890
  734MOL0     H96857  -1.665   5.226   5.396  0.5009  1.1936  0.2599
  734MOL0     H96858  -1.634   4.990   5.387  0.6944  1.3811 -0.2045
  734MOL0     H96859  -1.649   4.986   5.216  1.2526 -0.3334  0.4539
  734MOL0     H96860  -1.887   5.102   5.374 -0.3891 -0.8447 -0.1453
  734MOL0     H96861  -1.871   5.087   5.200  0.2466 -0.0949 -0.0550
  734MOL0     H96862  -1.880   4.849   5.402  2.0117  1.6480  1.3617
  734MOL0     H96863  -1.842   4.823   5.237 -1.6394  0.2106 -2.0399
  734MOL0     H96864  -2.058   4.953   5.184 -0.6197  0.8623  0.0065
  734MOL0     H96865  -2.094   4.958   5.358  0.5682  0.9409 -0.8189
  734MOL0     H96866  -2.076   4.706   5.195  0.6859  1.3849 -0.9778
  734MOL0     H96867  -2.091   4.709   5.376  1.1088 -0.0118 -0.8159
  734MOL0     H96868  -2.292   4.851   5.333  2.3563  2.4074 -0.5815
  734MOL0     H96869  -2.310   4.685   5.267 -0.9368  0.8567 -1.0672
  734MOL0     H96870  -1.230   5.210   5.181 -0.0538  0.1171 -0.7093
  734MOL0     H96871  -1.000   5.183   5.196 -0.4670 -2.1718  0.0111
  734MOL0     H96872  -0.647   5.169   5.558  0.6726 -0.7936  0.0433
  734MOL0     H96873  -0.413   5.194   5.588 -0.1148  2.3698 -1.4064
  734MOL0     H96874   1.145   4.932   5.087 -1.6417  1.6845  1.3187
  734MOL0     H96875   1.344   4.811   5.179 -0.5285 -0.9088  2.9665
  734MOL0     H96876   1.655   4.602   5.482  0.1457  0.5307 -1.3430
  734MOL0     H96877   1.881   4.539   5.583 -0.9312  1.0131  0.5224
  734MOL0     H96878   2.077   4.551   5.726  0.9825  0.4430  2.1633
  734MOL0     H96879   2.231   4.616   5.691  0.8491  1.9507 -2.1922
  734MOL0     H96880   2.208   4.411   5.559  0.6730 -1.0168 -2.2749
  734MOL0     H96881   2.068   4.477   5.473 -0.3830  3.1747 -0.7368
  734MOL0     H96882   2.345   4.609   5.451 -1.0505  0.8653  1.6191
  734MOL0     H96883   2.187   4.661   5.403  2.9803  0.8277 -0.2291
  734MOL0     H96884   2.164   4.465   5.236 -0.7329 -2.4389  1.7330
  734MOL0     H96885   2.294   4.569   5.201 -3.3412 -2.6910 -4.5417
  734MOL0     H96886   2.508   4.225   5.357  3.1804  2.3233 -1.1756
  734MOL0     H96887   1.998   4.942   5.505 -1.1282  1.6056 -1.4849
  734MOL0     H96888   1.787   4.981   5.370  1.6787 -0.2000 -1.1214
  735MOL0     O96889   3.660   0.198  10.419  0.0344 -0.0821  0.5304
  735MOL0     C96890   3.717   0.302  10.397  0.0719  0.0413 -0.3847
  735MOL0     O96891   3.667   0.414  10.341  0.0251 -0.1905  0.0453
  735MOL0     C96892   3.529   0.433  10.322  1.8651  1.3030  0.5956
  735MOL0     C96893   3.429   0.389  10.413 -0.9307  0.4615  0.2203
  735MOL0     C96894   3.294   0.415  10.390  0.1398  1.0048 -0.2173
  735MOL0     C96895   3.246   0.481  10.274 -0.4724 -0.0998  0.1945
  735MOL0     O96896   3.110   0.494  10.263 -0.7827  0.4329 -0.5019
  735MOL0     C96897   3.063   0.600  10.169  0.4002 -0.5370  0.5081
  735MOL0     C96898   2.905   0.589  10.171 -0.2242  0.2707 -1.3097
  735MOL0     C96899   2.865   0.671  10.046 -0.5429  0.5692  0.2184
  735MOL0     C96900   2.715   0.673  10.023  0.1657 -0.5710  0.6315
  735MOL0     C96901   2.678   0.741   9.889  0.1247 -0.2175 -0.6520
  735MOL0     C96902   2.745   0.877   9.862  0.9276 -0.3575  0.0294
  735MOL0     C96903   2.688   0.941   9.738 -0.1450 -0.0869 -0.2792
  735MOL0     C96904   2.774   1.037   9.667 -0.3734  0.4517 -0.2717
  735MOL0     N96905   2.798   1.159   9.747  0.2767 -0.5540 -0.8566
  735MOL0     C96906   2.699   1.257   9.747  0.3791 -0.0882  0.0641
  735MOL0     C96907   2.748   1.358   9.831  0.8828 -0.5773  0.2344
  735MOL0     C96908   2.671   1.484   9.874  0.0306 -0.4827  0.9710
  735MOL0     C96909   2.547   1.467   9.968  0.1257 -0.0441 -0.0722
  735MOL0     C96910   2.415   1.452   9.890  0.9709  0.0049  0.3733
  735MOL0     C96911   2.300   1.449   9.994 -0.5864 -0.0133  0.0082
  735MOL0     O96912   2.184   1.421   9.917  0.5528 -0.8837  0.3211
  735MOL0     C96913   2.061   1.409   9.980 -0.1590 -0.1297  0.0798
  735MOL0     C96914   1.966   1.322   9.923 -0.5322 -0.0770 -0.3138
  735MOL0     C96915   1.843   1.285   9.980  0.0917 -1.0292  0.7151
  735MOL0     C96916   1.813   1.345  10.103  0.1397 -0.2547 -0.0139
  735MOL0     C96917   1.678   1.324  10.150  0.7380  0.0397 -0.1580
  735MOL0     O96918   1.608   1.223  10.095  0.1131  0.6793  0.0872
  735MOL0     C96919   1.496   1.175  10.156 -0.0260  1.1303 -1.0740
  735MOL0     C96920   1.491   1.074  10.256 -0.1088  0.1674 -0.0091
  735MOL0     C96921   1.374   1.037  10.321 -0.1911 -0.2754 -0.3776
  735MOL0     C96922   1.255   1.095  10.297  0.0677  0.5212  0.3181
  735MOL0     O96923   1.144   1.047  10.364 -0.4623  0.2078 -0.4009
  735MOL0     C96924   1.112   0.908  10.342 -0.1751 -0.1221 -0.1710
  735MOL0     C96925   0.955   0.898  10.354 -0.6739  0.9068 -0.5073
  735MOL0     C96926   0.906   0.896  10.498 -0.0518  0.5640  0.0716
  735MOL0     C96927   0.764   0.821  10.504 -0.7455 -0.1825  0.6040
  735MOL0     C96928   0.671   0.935  10.476 -0.4035  0.1571  0.8845
  735MOL0     C96929   0.523   0.891  10.487  1.2603  0.6940  1.0580
  735MOL0     C96930   0.495   0.764  10.407  0.6849  0.1915 -0.1515
  735MOL0     C96931   0.354   0.724  10.379  0.1239 -0.8971  0.5555
  735MOL0    Cl96932   0.269   0.731  10.537 -0.2968  0.2441 -0.0754
  735MOL0     C96933   1.257   1.208  10.211 -0.0521 -0.0488  0.3184
  735MOL0     C96934   1.375   1.240  10.142 -1.0803  0.1035  0.2627
  735MOL0     O96935   1.633   1.412  10.219  0.4948  0.2770 -0.4412
  735MOL0     C96936   1.912   1.420  10.171  0.3450 -0.3967 -0.0009
  735MOL0     C96937   2.036   1.449  10.111  0.6681 -0.1967  0.2455
  735MOL0     N96938   2.864   1.310   9.882 -0.4081  0.5988 -0.1039
  735MOL0     N96939   2.896   1.194   9.841  0.1950  0.1972 -0.0954
  735MOL0     C96940   3.346   0.530  10.180  0.3051 -0.1076 -0.1693
  735MOL0     C96941   3.483   0.507  10.202 -0.3029  0.9858 -0.9745
  735MOL0     C96942   3.864   0.294  10.407 -0.0962 -0.1703 -0.8889
  735MOL0     C96943   3.952   0.348  10.314  2.1352  0.3746 -0.4729
  735MOL0     C96944   4.087   0.344  10.334  0.3207 -0.2805 -0.2782
  735MOL0     C96945   4.139   0.278  10.449  0.2713  0.3351 -0.2720
  735MOL0     O96946   4.276   0.283  10.448 -0.2438  0.3705 -0.0183
  735MOL0     C96947   4.359   0.277  10.569 -0.2388 -0.1715  1.0683
  735MOL0     C96948   4.506   0.312  10.529 -0.8731 -0.3274 -0.4537
  735MOL0     C96949   4.606   0.370  10.638 -1.2461 -0.9759 -0.0300
  735MOL0     C96950   4.751   0.401  10.600  0.7650 -0.3168  0.8612
  735MOL0     C96951   4.822   0.450  10.724  0.1449 -0.4351  1.0657
  735MOL0     C96952   4.875   0.503  10.819 -0.0855 -0.2033 -0.2797
  735MOL0     C96953   4.050   0.226  10.548 -0.0384  0.0198  0.1900
  735MOL0     C96954   3.912   0.235  10.523  0.8350  0.2513 -0.4990
  735MOL0     H96955   3.453   0.341  10.508 -3.1387 -3.4928 -0.9863
  735MOL0     H96956   3.216   0.394  10.462  2.0287 -1.4633  1.2632
  735MOL0     H96957   3.100   0.592  10.066  0.6655 -1.7070  0.6751
  735MOL0     H96958   3.080   0.701  10.208  2.7092 -0.9469  0.7020
  735MOL0     H96959   2.866   0.635  10.262  0.9532  0.9183 -1.1050
  735MOL0     H96960   2.877   0.484  10.159  0.0581  0.2988 -2.3291
  735MOL0     H96961   2.916   0.631   9.958  1.6381  3.3085  0.1277
  735MOL0     H96962   2.912   0.769  10.058  1.8799 -0.4949 -0.0782
  735MOL0     H96963   2.666   0.577  10.043 -0.8659 -0.2101 -0.0665
  735MOL0     H96964   2.672   0.732  10.104  2.3398 -0.2979  1.6551
  735MOL0     H96965   2.571   0.760   9.875  0.0495 -0.1972 -0.0549
  735MOL0     H96966   2.701   0.669   9.809  0.6509 -0.0016 -0.6935
  735MOL0     H96967   2.853   0.861   9.848  0.9140 -0.0809 -0.4414
  735MOL0     H96968   2.730   0.951   9.941 -1.3348  1.6243 -2.0993
  735MOL0     H96969   2.671   0.861   9.664 -1.0937 -1.1976  1.0903
  735MOL0     H96970   2.599   0.999   9.765  0.9389  1.5136 -0.0330
  735MOL0     H96971   2.741   1.067   9.567  0.6672  1.4801 -0.3247
  735MOL0     H96972   2.866   0.980   9.652  0.4720  1.2354  1.5390
  735MOL0     H96973   2.606   1.249   9.693 -0.1325 -3.1959  1.1584
  735MOL0     H96974   2.640   1.527   9.778  2.4251 -2.6737 -0.9263
  735MOL0     H96975   2.746   1.546   9.923  2.8217 -0.1279 -3.2196
  735MOL0     H96976   2.537   1.561  10.022 -2.8261 -0.2634 -0.0607
  735MOL0     H96977   2.560   1.386  10.040  2.4093  1.1446  0.9676
  735MOL0     H96978   2.402   1.544   9.832 -3.1687 -1.1780 -0.9444
  735MOL0     H96979   2.419   1.363   9.827  0.4882  0.8291 -0.8634
  735MOL0     H96980   2.291   1.550  10.036  0.5447  0.8120 -1.6395
  735MOL0     H96981   2.323   1.371  10.068  0.7113 -0.2646 -0.6529
  735MOL0     H96982   1.995   1.282   9.826  1.9348 -2.1640  1.1319
  735MOL0     H96983   1.779   1.219   9.923  1.9825 -1.5762 -0.9018
  735MOL0     H96984   1.581   1.016  10.269 -3.1410 -6.6568 -4.0612
  735MOL0     H96985   1.388   0.948  10.383  1.8563  0.1842 -0.1114
  735MOL0     H96986   1.160   0.851  10.423 -0.3095  1.3681  1.0010
  735MOL0     H96987   1.149   0.881  10.243 -0.7019  2.6367 -1.1915
  735MOL0     H96988   0.926   0.804  10.307 -1.3682 -0.5024  2.4626
  735MOL0     H96989   0.905   0.975  10.294 -0.3956 -0.5709 -2.7602
  735MOL0     H96990   0.907   0.994  10.548  1.0594  2.6028 -3.5593
  735MOL0     H96991   0.970   0.825  10.551  0.4951  0.0843 -1.1947
  735MOL0     H96992   0.758   0.735  10.437 -0.0594 -1.4105  2.0582
  735MOL0     H96993   0.746   0.789  10.608  1.3608 -2.1799  0.4303
  735MOL0     H96994   0.681   0.973  10.374  3.8917  0.4745  1.2692
  735MOL0     H96995   0.679   1.021  10.543  0.5743 -0.8884  2.1556
  735MOL0     H96996   0.458   0.972  10.452  1.5809 -0.0722 -1.4416
  735MOL0     H96997   0.501   0.878  10.594  1.9402 -0.4567  1.0667
  735MOL0     H96998   0.548   0.779  10.312 -0.7455 -0.6767 -1.1156
  735MOL0     H96999   0.528   0.676  10.462  3.2573  1.2206  0.1014
  735MOL0     H97000   0.341   0.624  10.338 -0.6382 -0.8865  0.7584
  735MOL0     H97001   0.310   0.797  10.310  0.7034  2.2374  3.2285
  735MOL0     H97002   1.165   1.261  10.189  0.3748  0.5260 -0.1177
  735MOL0     H97003   1.371   1.318  10.067  1.6028 -0.1768 -0.2708
  735MOL0     H97004   1.893   1.458  10.271  2.3854 -3.0926  1.5542
  735MOL0     H97005   2.106   1.502  10.174 -0.4991 -0.2805  1.6712
  735MOL0     H97006   3.307   0.573  10.088 -0.6293  0.2436  0.3774
  735MOL0     H97007   3.555   0.540  10.127  2.0072  1.0591  1.1416
  735MOL0     H97008   3.905   0.393  10.227  0.1194 -3.6516 -1.7255
  735MOL0     H97009   4.140   0.396  10.255  0.0971  2.0141  0.9933
  735MOL0     H97010   4.359   0.183  10.625  0.7715  0.0575  1.4783
  735MOL0     H97011   4.322   0.358  10.632 -1.5725  0.8663 -0.9123
  735MOL0     H97012   4.553   0.225  10.484  2.2539  1.4472 -0.9244
  735MOL0     H97013   4.514   0.388  10.450  0.2820  0.9966  0.8589
  735MOL0     H97014   4.604   0.297  10.719 -2.4129 -2.9645 -1.7523
  735MOL0     H97015   4.555   0.448  10.695 -2.3965 -3.4199  2.5381
  735MOL0     H97016   4.795   0.312  10.555 -1.7215 -1.2891  0.1681
  735MOL0     H97017   4.752   0.470  10.516  1.4813  0.8447  1.7920
  735MOL0     H97018   4.929   0.528  10.908 -1.9345 -2.7119  1.6988
  735MOL0     H97019   4.098   0.178  10.633  1.8574 -4.5073 -3.0269
  735MOL0     H97020   3.845   0.209  10.605 -1.7258  0.5403 -2.3932
  736MOL0     O97021   2.777   8.290   4.607  0.1194 -0.3026 -0.8182
  736MOL0     C97022   2.852   8.318   4.697  0.7847  0.5503 -0.1762
  736MOL0     O97023   2.817   8.391   4.807 -0.5831  0.6167 -0.1345
  736MOL0     C97024   2.701   8.459   4.808 -0.3286  0.4570 -1.3660
  736MOL0     C97025   2.673   8.548   4.715  0.7755 -0.0929  0.6349
  736MOL0     C97026   2.555   8.620   4.718  0.1924 -0.6323 -0.9162
  736MOL0     C97027   2.472   8.614   4.830 -0.6198  0.0701 -0.1936
  736MOL0     O97028   2.349   8.675   4.839  0.3000  0.0306 -1.0459
  736MOL0     C97029   2.270   8.705   4.722 -0.0441 -0.1706 -0.0930
  736MOL0     C97030   2.126   8.720   4.768  0.7887  0.3225  0.9950
  736MOL0     C97031   2.050   8.758   4.640 -0.0555 -0.1743 -0.0873
  736MOL0     C97032   1.905   8.805   4.664  0.0530 -0.7775 -0.2645
  736MOL0     C97033   1.824   8.676   4.706 -0.2902  0.0304 -0.4403
  736MOL0     C97034   1.678   8.700   4.698 -0.2182 -0.0168 -0.2154
  736MOL0     C97035   1.627   8.713   4.551  0.0054 -0.7122 -0.3879
  736MOL0     C97036   1.479   8.679   4.547 -0.2563  0.2886 -0.7897
  736MOL0     N97037   1.453   8.530   4.526  0.8406 -0.4166 -1.3635
  736MOL0     C97038   1.378   8.447   4.604 -0.0923 -0.5274  0.4262
  736MOL0     C97039   1.367   8.330   4.546  0.7755 -0.7590  0.1851
  736MOL0     C97040   1.307   8.205   4.593 -0.6075 -0.1937 -0.9444
  736MOL0     C97041   1.161   8.197   4.598  0.4480 -0.4732  0.3425
  736MOL0     C97042   1.098   8.181   4.462 -0.4941  0.1718  0.1940
  736MOL0     C97043   1.019   8.301   4.421  0.5178 -1.2638  0.1050
  736MOL0     O97044   0.909   8.273   4.332 -0.1652 -0.3279 -0.5078
  736MOL0     C97045   0.799   8.218   4.390  0.0428  1.0607  0.7892
  736MOL0     C97046   0.787   8.149   4.514  0.6754  0.6365 -0.5564
  736MOL0     C97047   0.658   8.108   4.559 -0.5535  0.5311  0.3329
  736MOL0     C97048   0.544   8.112   4.470 -0.2788  0.4003 -0.8135
  736MOL0     C97049   0.412   8.075   4.519  0.5571 -0.0008  0.4633
  736MOL0     O97050   0.303   8.108   4.439 -0.5133  0.3232 -0.4952
  736MOL0     C97051   0.179   8.061   4.469 -0.2001 -0.1150  0.5142
  736MOL0     C97052   0.113   8.074   4.589  0.8445 -0.0264 -0.5256
  736MOL0     C97053  -0.023   8.041   4.605 -0.6291 -0.0363  0.0772
  736MOL0     C97054  -0.101   8.005   4.493 -0.2856 -0.2253 -0.2361
  736MOL0     O97055  -0.228   7.957   4.498 -0.1334  0.9472 -0.3690
  736MOL0     C97056  -0.312   8.013   4.596 -0.2443 -0.3575  0.7269
  736MOL0     C97057  -0.461   7.969   4.566  0.3215 -0.4696 -0.3994
  736MOL0     C97058  -0.518   8.071   4.464 -0.7260 -0.1333 -0.5723
  736MOL0     C97059  -0.667   8.050   4.446 -0.1954 -0.2994  0.8112
  736MOL0     C97060  -0.722   8.151   4.347 -0.2113  0.6709  0.6878
  736MOL0     C97061  -0.750   8.292   4.409 -0.1577 -0.1890  0.1165
  736MOL0     C97062  -0.785   8.394   4.305 -0.1011  0.3854  0.2801
  736MOL0     C97063  -0.893   8.491   4.350 -0.9866  0.6789  0.0855
  736MOL0    Cl97064  -1.049   8.424   4.402 -0.0350  0.0985 -0.1394
  736MOL0     C97065  -0.039   8.005   4.371  0.7358  0.1512 -0.0943
  736MOL0     C97066   0.103   8.028   4.357  0.7159 -0.1900 -0.4621
  736MOL0     O97067   0.412   8.010   4.620 -0.5911 -0.1233 -0.2256
  736MOL0     C97068   0.571   8.148   4.338  0.3430 -0.3211 -0.0209
  736MOL0     C97069   0.693   8.199   4.301 -0.5731 -0.3470 -0.6714
  736MOL0     N97070   1.421   8.341   4.419  0.2491  0.1257  0.2610
  736MOL0     N97071   1.485   8.457   4.416 -0.6537  0.4011  0.4589
  736MOL0     C97072   2.519   8.532   4.941  0.4716 -0.0461  0.2594
  736MOL0     C97073   2.634   8.459   4.932 -0.1433  0.4726  1.1371
  736MOL0     C97074   2.986   8.265   4.696  0.0232 -1.2537 -0.6818
  736MOL0     C97075   3.085   8.324   4.783 -0.3809  0.1575  0.3877
  736MOL0     C97076   3.222   8.291   4.770  0.1034  0.0856  0.1757
  736MOL0     C97077   3.268   8.189   4.682  0.7487  0.4789 -0.5941
  736MOL0     O97078   3.398   8.144   4.667  0.1372 -0.2669 -0.0118
  736MOL0     C97079   3.516   8.221   4.723  0.8618 -0.1081  0.5315
  736MOL0     C97080   3.635   8.237   4.630  0.1740  0.1276  0.3020
  736MOL0     C97081   3.662   8.130   4.527 -0.1292  0.4782  0.7937
  736MOL0     C97082   3.794   8.133   4.457 -0.0554  0.4027 -0.4678
  736MOL0     C97083   3.821   8.259   4.373 -0.2842  0.4442 -0.0659
  736MOL0     C97084   3.829   8.358   4.308  1.0784 -1.1175 -0.0590
  736MOL0     C97085   3.171   8.139   4.592  0.8328  0.1911 -0.1385
  736MOL0     C97086   3.036   8.179   4.595 -0.2937  0.2291 -0.0095
  736MOL0     H97087   2.734   8.563   4.626 -0.5520 -0.9523 -0.4534
  736MOL0     H97088   2.528   8.704   4.655 -2.3604  0.0301  0.8661
  736MOL0     H97089   2.281   8.621   4.654  1.9292 -0.6746  0.7700
  736MOL0     H97090   2.307   8.798   4.677  2.4078 -0.4167  1.2346
  736MOL0     H97091   2.124   8.802   4.839 -0.8290  2.2620 -1.1579
  736MOL0     H97092   2.089   8.624   4.805  1.9412 -0.8131 -0.6355
  736MOL0     H97093   2.044   8.667   4.581 -2.1128  0.5944 -1.1810
  736MOL0     H97094   2.112   8.838   4.598 -0.7339  0.8463  0.7765
  736MOL0     H97095   1.888   8.878   4.744  1.2570 -1.8998  1.0743
  736MOL0     H97096   1.866   8.843   4.569  1.5577  0.6080 -0.3889
  736MOL0     H97097   1.844   8.656   4.812 -0.6676 -1.6230 -0.6464
  736MOL0     H97098   1.844   8.587   4.646 -0.5796 -0.9746  0.8972
  736MOL0     H97099   1.647   8.792   4.747 -1.9214 -0.3275 -0.6610
  736MOL0     H97100   1.625   8.614   4.740  1.0122 -0.0389  1.4114
  736MOL0     H97101   1.650   8.810   4.507 -0.2897  0.7369  2.4145
  736MOL0     H97102   1.673   8.639   4.485  1.8343 -1.7504  1.8707
  736MOL0     H97103   1.448   8.727   4.454  2.9225  1.2747 -1.4545
  736MOL0     H97104   1.424   8.728   4.628 -0.6914 -3.3052  1.2990
  736MOL0     H97105   1.332   8.460   4.701 -1.7126  1.0706 -0.4857
  736MOL0     H97106   1.343   8.190   4.696 -1.1566 -2.4156 -1.0279
  736MOL0     H97107   1.352   8.124   4.535  3.6502  0.5721  0.8858
  736MOL0     H97108   1.118   8.280   4.656 -0.9601 -1.7431  1.1954
  736MOL0     H97109   1.138   8.103   4.649 -3.8944 -0.2055 -0.7816
  736MOL0     H97110   1.167   8.148   4.383  3.4522 -1.8270  4.0330
  736MOL0     H97111   1.022   8.103   4.466 -3.7797  3.1396  0.5868
  736MOL0     H97112   1.085   8.372   4.370  2.1720 -3.2108 -0.6348
  736MOL0     H97113   0.981   8.355   4.508 -1.0559 -2.6710  0.3631
  736MOL0     H97114   0.867   8.163   4.586  0.2212  1.3957 -0.1793
  736MOL0     H97115   0.637   8.060   4.654  0.9401 -1.9599 -0.5092
  736MOL0     H97116   0.173   8.110   4.673  0.5694 -1.7532  0.4613
  736MOL0     H97117  -0.060   8.030   4.706  0.9939  0.8137  0.7994
  736MOL0     H97118  -0.304   8.122   4.605  1.4407 -0.2333 -1.4693
  736MOL0     H97119  -0.286   7.974   4.695 -0.7360 -0.3891  0.8451
  736MOL0     H97120  -0.511   7.973   4.663  0.5722 -1.8414 -0.2072
  736MOL0     H97121  -0.469   7.869   4.522 -0.4012 -0.5485 -0.1008
  736MOL0     H97122  -0.463   8.063   4.370  1.3187 -2.2839  0.7018
  736MOL0     H97123  -0.506   8.170   4.511  3.0034 -1.8884  2.7531
  736MOL0     H97124  -0.686   7.950   4.404  1.3770  0.4973 -2.0751
  736MOL0     H97125  -0.718   8.064   4.542 -0.9174  3.5576  0.0361
  736MOL0     H97126  -0.814   8.102   4.312  2.3806 -3.0671 -1.6186
  736MOL0     H97127  -0.663   8.163   4.256 -2.3413  1.1409 -0.7227
  736MOL0     H97128  -0.655   8.326   4.451 -0.5632  0.0014  0.9221
  736MOL0     H97129  -0.811   8.281   4.500  2.1844  1.3081  2.0010
  736MOL0     H97130  -0.697   8.455   4.283  1.3503 -1.3616  0.9539
  736MOL0     H97131  -0.827   8.350   4.214 -2.4133  0.0569  1.4202
  736MOL0     H97132  -0.909   8.567   4.272 -0.2390  0.4410 -0.3110
  736MOL0     H97133  -0.860   8.550   4.436 -1.2381 -0.0892  0.7105
  736MOL0     H97134  -0.101   7.980   4.285 -1.6690  1.5766  1.1322
  736MOL0     H97135   0.146   8.013   4.259 -0.4722 -0.3502 -0.9744
  736MOL0     H97136   0.488   8.169   4.271  1.7238 -0.5902 -1.9267
  736MOL0     H97137   0.710   8.245   4.204  2.2728 -0.3225 -0.2515
  736MOL0     H97138   2.460   8.518   5.031  0.3624 -1.7624 -0.0453
  736MOL0     H97139   2.667   8.401   5.018 -0.8322  3.1459  3.3498
  736MOL0     H97140   3.056   8.390   4.864 -1.6779  2.3218 -1.6987
  736MOL0     H97141   3.292   8.338   4.838 -1.8907  3.7132 -0.0334
  736MOL0     H97142   3.554   8.169   4.812  1.8362 -0.6169 -0.1739
  736MOL0     H97143   3.478   8.321   4.747  0.5619  0.6341 -2.6457
  736MOL0     H97144   3.622   8.327   4.568 -1.4429 -1.5518 -1.9523
  736MOL0     H97145   3.721   8.260   4.694 -1.2608 -0.1195  2.4168
  736MOL0     H97146   3.582   8.139   4.453  1.8256  1.4527 -1.2985
  736MOL0     H97147   3.648   8.032   4.575  2.0193 -0.0915  0.3557
  736MOL0     H97148   3.874   8.130   4.531 -2.0776 -1.8067  1.8428
  736MOL0     H97149   3.804   8.048   4.389 -0.1453  1.3387 -1.6831
  736MOL0     H97150   3.829   8.446   4.247 -2.1038 -1.5368 -0.8815
  736MOL0     H97151   3.203   8.076   4.509  0.6556  0.5414 -0.4781
  736MOL0     H97152   2.975   8.131   4.520  2.1659  0.8842 -2.5729
  737MOL0     O97153  10.766   3.280   7.745  0.0575 -0.3413 -0.5338
  737MOL0     C97154  10.838   3.349   7.672 -0.7082 -0.5918 -0.0404
  737MOL0     O97155  10.976   3.374   7.682  0.9585  0.4173 -0.9512
  737MOL0     C97156  11.060   3.311   7.769 -0.7258 -0.2784  0.2457
  737MOL0     C97157  11.196   3.342   7.757 -0.7927  0.3241 -0.2113
  737MOL0     C97158  11.296   3.292   7.838  0.3662  0.0491  0.5557
  737MOL0     C97159  11.260   3.209   7.948  0.3135 -0.2109 -0.5519
  737MOL0     O97160  11.348   3.152   8.043  0.1233  0.3183  0.3795
  737MOL0     C97161  11.491   3.160   8.013  0.1691 -0.0847  0.1431
  737MOL0     C97162  11.565   3.106   8.140 -0.8314  0.3151  0.0203
  737MOL0     C97163  11.715   3.059   8.123 -0.5137 -0.2044  0.7007
  737MOL0     C97164  11.752   2.966   8.233 -0.3978 -0.1382  1.0295
  737MOL0     C97165  11.889   2.908   8.221 -0.6538 -0.0967  0.2731
  737MOL0     C97166  11.998   3.018   8.229  0.0874  0.8930  0.3221
  737MOL0     C97167  12.141   2.957   8.272  1.5199  0.6600  0.0025
  737MOL0     C97168  12.178   2.851   8.168  0.3237 -0.6556 -0.3067
  737MOL0     N97169  12.316   2.804   8.192 -1.0408  0.2893 -0.3763
  737MOL0     C97170  12.382   2.800   8.308  0.6646 -0.5667 -0.9479
  737MOL0     C97171  12.513   2.780   8.275  0.0420 -0.3225 -0.1085
  737MOL0     C97172  12.629   2.766   8.368 -0.5838 -0.4858 -0.3220
  737MOL0     C97173  12.674   2.906   8.423 -0.5051 -0.0328 -0.3579
  737MOL0     C97174  12.592   2.965   8.536 -0.6118 -0.1954  1.0144
  737MOL0     C97175  12.555   2.874   8.648 -0.4027 -0.6307  0.1939
  737MOL0     O97176  12.467   2.936   8.742  0.2411  0.3231  0.1084
  737MOL0     C97177  12.329   2.949   8.708 -0.0261  0.7518 -0.7377
  737MOL0     C97178  12.275   3.080   8.675  0.1617 -0.0199 -0.6421
  737MOL0     C97179  12.140   3.105   8.643 -0.0014  0.9230 -0.3528
  737MOL0     C97180  12.054   2.993   8.626 -0.7975 -0.1142 -0.6553
  737MOL0     C97181  11.916   3.014   8.609 -0.3916 -0.3633  0.5186
  737MOL0     O97182  11.880   3.143   8.572  0.2816  0.2160  0.4767
  737MOL0     C97183  11.753   3.185   8.562 -0.3823 -0.4301  0.1355
  737MOL0     C97184  11.648   3.136   8.637  0.4426 -0.2116 -0.0244
  737MOL0     C97185  11.512   3.175   8.614  0.4963  0.4443  1.2043
  737MOL0     C97186  11.491   3.286   8.537 -0.2780  0.8705  0.0539
  737MOL0     O97187  11.360   3.324   8.513 -0.4197  0.6840 -0.3714
  737MOL0     C97188  11.312   3.394   8.392 -0.5825  0.6574  0.0283
  737MOL0     C97189  11.171   3.344   8.352  0.3726 -0.3741 -1.0112
  737MOL0     C97190  11.101   3.420   8.238 -0.0944 -0.1422 -0.5184
  737MOL0     C97191  10.956   3.386   8.229  0.4968  0.1438 -0.3980
  737MOL0     C97192  10.899   3.473   8.113 -1.3803  0.3364 -0.7284
  737MOL0     C97193  10.751   3.453   8.122 -0.3311  0.0416  0.4565
  737MOL0     C97194  10.671   3.535   8.016  0.1704  0.1168 -0.2528
  737MOL0     C97195  10.524   3.552   8.058 -1.0374  0.6458  0.4255
  737MOL0    Cl97196  10.450   3.402   7.989  0.0473  0.4019  0.3768
  737MOL0     C97197  11.604   3.353   8.479  0.2908  0.7326  0.1258
  737MOL0     C97198  11.730   3.302   8.491 -0.0955  0.2002  0.9124
  737MOL0     O97199  11.845   2.915   8.624 -0.1573  0.1475  0.9614
  737MOL0     C97200  12.107   2.866   8.672  0.0711 -0.3721 -0.2326
  737MOL0     C97201  12.246   2.846   8.704  0.4399  0.4737 -0.1962
  737MOL0     N97202  12.519   2.769   8.140 -0.4589 -0.0995 -0.7384
  737MOL0     N97203  12.401   2.790   8.089 -0.2241 -0.8384 -0.4478
  737MOL0     C97204  11.121   3.180   7.964 -0.3626  0.3520  0.2159
  737MOL0     C97205  11.023   3.233   7.877  0.5187 -0.0086 -0.2283
  737MOL0     C97206  10.766   3.425   7.567  0.3698  0.3532 -0.5145
  737MOL0     C97207  10.622   3.442   7.572 -0.5184  0.0952 -0.5888
  737MOL0     C97208  10.565   3.531   7.479 -0.7669 -0.2903  1.3227
  737MOL0     C97209  10.636   3.608   7.383 -0.4598  0.0317 -0.8186
  737MOL0     O97210  10.557   3.703   7.315  0.3217 -0.0220  0.1132
  737MOL0     C97211  10.631   3.761   7.207 -0.0962  0.5187  0.1507
  737MOL0     C97212  10.522   3.825   7.123  0.2127 -0.5467  0.9438
  737MOL0     C97213  10.423   3.921   7.189  0.2709  0.3753 -1.1668
  737MOL0     C97214  10.320   3.971   7.092 -0.1709  1.5467 -0.0976
  737MOL0     C97215  10.182   3.967   7.129  0.3939 -0.1629  0.1797
  737MOL0     C97216  10.062   3.941   7.155  0.9956 -0.8863  0.3314
  737MOL0     C97217  10.780   3.586   7.373  0.7272 -0.4302  0.6128
  737MOL0     C97218  10.836   3.502   7.470  0.2426  0.5902 -0.2732
  737MOL0     H97219  11.213   3.409   7.673 -0.9639 -0.7189 -1.1129
  737MOL0     H97220  11.399   3.325   7.834 -0.0068  1.1626 -0.2708
  737MOL0     H97221  11.503   3.267   7.995 -0.0962 -0.2340 -0.9590
  737MOL0     H97222  11.525   3.112   7.921 -1.0663  1.0510 -0.9415
  737MOL0     H97223  11.509   3.024   8.185 -1.2993  0.4123 -0.3760
  737MOL0     H97224  11.557   3.180   8.220 -0.5794  3.0666 -2.3213
  737MOL0     H97225  11.783   3.144   8.117  1.1313 -1.5194 -3.6276
  737MOL0     H97226  11.736   3.013   8.025 -0.6561  1.9627 -0.3942
  737MOL0     H97227  11.750   3.025   8.325 -0.5463  2.0101 -0.2967
  737MOL0     H97228  11.691   2.875   8.238 -1.4222  0.4381 -0.2884
  737MOL0     H97229  11.898   2.847   8.131 -1.8870 -0.6729  0.5124
  737MOL0     H97230  11.905   2.835   8.301 -2.1242 -1.5700 -0.7209
  737MOL0     H97231  11.983   3.092   8.307 -2.0387  2.1487 -1.1731
  737MOL0     H97232  12.005   3.068   8.132  0.0189 -1.7050 -1.1119
  737MOL0     H97233  12.213   3.034   8.297 -1.4194  2.8568  2.4580
  737MOL0     H97234  12.127   2.898   8.363  0.2237 -0.8027 -1.0563
  737MOL0     H97235  12.157   2.875   8.063 -0.0878 -3.2261 -0.8682
  737MOL0     H97236  12.112   2.768   8.193  0.4248 -0.3664  1.0131
  737MOL0     H97237  12.344   2.826   8.407  0.5798  2.8387 -1.7544
  737MOL0     H97238  12.711   2.721   8.310 -1.8809 -0.7323 -2.0317
  737MOL0     H97239  12.600   2.684   8.434 -2.9527 -2.3166 -3.3641
  737MOL0     H97240  12.675   2.978   8.341 -1.0626  1.6898  1.0698
  737MOL0     H97241  12.775   2.888   8.463 -0.6353  1.0503  0.5162
  737MOL0     H97242  12.654   3.042   8.582  2.3820 -2.4892  1.0570
  737MOL0     H97243  12.505   3.017   8.494  1.5661  2.8065 -0.1149
  737MOL0     H97244  12.649   2.852   8.700  0.1541  1.4352  0.1769
  737MOL0     H97245  12.507   2.782   8.613 -0.4783 -0.8287  0.8042
  737MOL0     H97246  12.344   3.163   8.672  1.6618 -1.2422 -2.0916
  737MOL0     H97247  12.101   3.202   8.616  1.4490  1.4314 -0.6973
  737MOL0     H97248  11.666   3.065   8.717  1.5499 -1.4298 -1.2976
  737MOL0     H97249  11.419   3.135   8.653 -0.8674 -2.2357 -3.9032
  737MOL0     H97250  11.377   3.368   8.308  1.1118  1.9303  0.8776
  737MOL0     H97251  11.309   3.503   8.402  1.9588  0.6802  1.3089
  737MOL0     H97252  11.114   3.360   8.444 -0.5395  0.6168 -1.7218
  737MOL0     H97253  11.171   3.237   8.331 -0.4165 -1.1861  2.5071
  737MOL0     H97254  11.157   3.410   8.144  0.1786 -0.2360 -0.3481
  737MOL0     H97255  11.110   3.528   8.257 -0.0263  0.4498 -3.4245
  737MOL0     H97256  10.948   3.282   8.197 -0.3954  0.9735 -3.0935
  737MOL0     H97257  10.915   3.397   8.331  2.1748  0.9347  0.2221
  737MOL0     H97258  10.933   3.440   8.014  1.7212  2.2998 -0.4696
  737MOL0     H97259  10.935   3.576   8.112  1.1872 -0.3958 -4.0573
  737MOL0     H97260  10.712   3.474   8.222 -2.1042 -1.5990  0.1477
  737MOL0     H97261  10.730   3.347   8.106  0.2012 -0.1476  0.9552
  737MOL0     H97262  10.720   3.633   8.012  1.8285 -0.6217  0.6567
  737MOL0     H97263  10.680   3.483   7.920  0.4143 -0.7580  0.2319
  737MOL0     H97264  10.487   3.642   8.009  1.0524  0.5319 -1.4992
  737MOL0     H97265  10.503   3.566   8.165 -1.5785  1.2285  0.2520
  737MOL0     H97266  11.594   3.442   8.418 -0.0816  0.4185 -0.2774
  737MOL0     H97267  11.806   3.358   8.439  0.6338 -0.3693  1.3462
  737MOL0     H97268  12.034   2.786   8.678 -1.0755  0.5947 -0.7690
  737MOL0     H97269  12.273   2.749   8.745  1.2505  0.2948 -1.1258
  737MOL0     H97270  11.087   3.108   8.038  3.5457  1.1443  3.0216
  737MOL0     H97271  10.921   3.211   7.907  1.0494 -1.1835  0.7750
  737MOL0     H97272  10.571   3.379   7.644  1.3434  0.6372  1.2943
  737MOL0     H97273  10.458   3.551   7.477 -0.4802  1.2520 -0.0410
  737MOL0     H97274  10.686   3.692   7.143 -1.4257  1.0145 -1.5879
  737MOL0     H97275  10.705   3.826   7.254  0.9484 -0.0796 -0.6091
  737MOL0     H97276  10.572   3.887   7.048  1.3508  0.4343  2.4712
  737MOL0     H97277  10.467   3.741   7.080 -1.2419  1.6160 -1.8415
  737MOL0     H97278  10.473   3.996   7.251  1.2043 -1.9773  1.1247
  737MOL0     H97279  10.367   3.854   7.255 -0.6399  0.4631 -1.8245
  737MOL0     H97280  10.342   4.074   7.063 -1.8602  1.3324 -2.3517
  737MOL0     H97281  10.321   3.909   7.002 -1.3711 -1.1270  1.6157
  737MOL0     H97282   9.962   3.920   7.189  0.0373  2.7711  0.1707
  737MOL0     H97283  10.837   3.645   7.302 -1.2980  0.1197 -0.6253
  737MOL0     H97284  10.945   3.503   7.471  0.2428  0.6626  1.1609
  738MOL0     O97285  11.243   9.080  11.061 -0.1166 -0.0766 -0.4128
  738MOL0     C97286  11.240   9.061  10.941  0.7295  0.4170 -0.8337
  738MOL0     O97287  11.127   9.068  10.862 -0.0792  0.2655 -0.6221
  738MOL0     C97288  11.000   9.054  10.909 -0.1184  1.1181 -0.4606
  738MOL0     C97289  10.949   9.088  11.036 -0.0202  0.2437 -0.3761
  738MOL0     C97290  10.817   9.065  11.062 -0.3508  0.7563 -0.4201
  738MOL0     C97291  10.733   9.000  10.977  0.1446  1.5031  0.6995
  738MOL0     O97292  10.606   8.977  11.017 -0.4261 -0.0667 -0.4934
  738MOL0     C97293  10.508   8.979  10.917  0.0904 -1.0246  0.2520
  738MOL0     C97294  10.364   8.976  10.977 -0.2971 -0.3477  0.3161
  738MOL0     C97295  10.247   9.013  10.882 -0.1325  0.3214  0.0746
  738MOL0     C97296  10.117   9.065  10.946  0.1405  0.7054 -0.2455
  738MOL0     C97297  10.047   9.161  10.853 -0.9902  0.2516  0.9504
  738MOL0     C97298   9.905   9.202  10.890 -0.0892  0.8471 -0.2689
  738MOL0     C97299   9.909   9.295  11.016  0.3197 -0.6621  0.0879
  738MOL0     C97300   9.772   9.356  11.055 -0.3832 -0.2484  0.0334
  738MOL0     N97301   9.676   9.259  11.105  0.7386 -0.4800  0.7178
  738MOL0     C97302   9.687   9.195  11.223  0.0633 -0.2067 -0.3440
  738MOL0     C97303   9.577   9.108  11.220 -0.3435 -0.1359  0.6917
  738MOL0     C97304   9.554   9.027  11.352 -1.1617 -0.2559  0.9564
  738MOL0     C97305   9.445   8.934  11.324  0.0740 -0.9287 -0.2871
  738MOL0     C97306   9.483   8.820  11.225 -0.5357 -0.0686  0.3224
  738MOL0     C97307   9.385   8.703  11.231 -0.6975 -0.9612 -0.2406
  738MOL0     O97308   9.257   8.757  11.199  0.3406  0.1048 -0.2840
  738MOL0     C97309   9.146   8.688  11.237  0.2208 -0.4641 -0.1519
  738MOL0     C97310   9.028   8.767  11.255 -0.6391 -0.1572  0.3845
  738MOL0     C97311   8.915   8.699  11.287 -0.1010 -0.3720 -0.2689
  738MOL0     C97312   8.898   8.557  11.296  0.1511 -0.1404 -0.2863
  738MOL0     C97313   8.775   8.486  11.323  0.1024  0.2957 -0.3610
  738MOL0     O97314   8.660   8.556  11.345  0.5548 -0.1483 -0.0956
  738MOL0     C97315   8.566   8.483  11.418 -0.2407  0.0356  0.2974
  738MOL0     C97316   8.488   8.379  11.360  0.0127  0.0198 -0.1471
  738MOL0     C97317   8.387   8.319  11.432 -0.2438  0.3505  0.6036
  738MOL0     C97318   8.348   8.379  11.550  0.6981  0.2079  0.1497
  738MOL0     O97319   8.224   8.364  11.611 -0.4449  0.0365 -0.1196
  738MOL0     C97320   8.182   8.229  11.608 -1.2664 -0.0522 -0.0551
  738MOL0     C97321   8.061   8.209  11.695  0.8962 -0.1426 -0.7869
  738MOL0     C97322   8.003   8.063  11.674 -0.2044 -0.6743 -0.2579
  738MOL0     C97323   8.068   7.967  11.774 -0.5721 -0.0954  0.4846
  738MOL0     C97324   7.996   7.837  11.777  0.3786  0.9368 -0.3233
  738MOL0     C97325   7.844   7.845  11.819  0.0610 -0.3225 -0.0388
  738MOL0     C97326   7.775   7.712  11.841  0.2942  0.0930 -0.5562
  738MOL0     C97327   7.642   7.721  11.927 -0.1545 -0.0119 -0.0693
  738MOL0    Cl97328   7.519   7.814  11.834 -0.1389 -0.7948  0.0037
  738MOL0     C97329   8.424   8.470  11.613 -0.1689 -0.9650 -0.1176
  738MOL0     C97330   8.538   8.520  11.549  0.2539 -0.4430  0.5521
  738MOL0     O97331   8.787   8.365  11.325 -0.5474  0.9045  0.3462
  738MOL0     C97332   9.021   8.484  11.295 -0.8799 -1.7449 -0.0631
  738MOL0     C97333   9.139   8.546  11.275  0.2059 -1.0794  0.2624
  738MOL0     N97334   9.507   9.116  11.103  0.5975 -0.0894 -0.3354
  738MOL0     N97335   9.560   9.211  11.036 -0.8490  0.4682 -0.1725
  738MOL0     C97336  10.783   8.962  10.848  0.4582  0.2420 -0.3468
  738MOL0     C97337  10.913   8.992  10.819  1.0051  0.6259 -0.2756
  738MOL0     C97338  11.367   9.069  10.865  0.6569  1.4966  0.4049
  738MOL0     C97339  11.491   9.087  10.927  0.0982 -0.4675 -0.2878
  738MOL0     C97340  11.611   9.101  10.855  0.2806  0.3060 -0.7871
  738MOL0     C97341  11.602   9.103  10.719  0.5176 -0.1004 -0.6889
  738MOL0     O97342  11.705   9.096  10.636  0.1147  0.0650  0.1237
  738MOL0     C97343  11.812   9.181  10.673  0.2339 -0.2876 -0.1169
  738MOL0     C97344  11.921   9.097  10.734  0.1773  0.5119 -0.5729
  738MOL0     C97345  12.022   9.179  10.825  0.5150  0.2895  0.0486
  738MOL0     C97346  12.130   9.240  10.734  0.3797  0.5016 -0.2726
  738MOL0     C97347  12.165   9.384  10.758  0.3443 -0.2175 -0.0387
  738MOL0     C97348  12.203   9.501  10.781 -0.0490 -0.4619  0.2330
  738MOL0     C97349  11.482   9.074  10.661  0.6149 -0.2809  0.5237
  738MOL0     C97350  11.362   9.061  10.726 -0.3424 -0.8123 -0.6216
  738MOL0     H97351  11.011   9.128  11.115  0.4695  0.8336 -1.0380
  738MOL0     H97352  10.784   9.087  11.163 -0.0330 -0.9588  0.0835
  738MOL0     H97353  10.511   8.904  10.838 -2.6113  0.3673 -1.3422
  738MOL0     H97354  10.519   9.075  10.866  5.1367  0.0521  2.6895
  738MOL0     H97355  10.364   9.052  11.055  1.0568  0.9532 -0.8853
  738MOL0     H97356  10.346   8.877  11.019  1.3426 -0.5803  0.5452
  738MOL0     H97357  10.226   8.924  10.821  0.9745 -1.1432  1.7423
  738MOL0     H97358  10.286   9.086  10.809  1.0123  0.9985  1.3168
  738MOL0     H97359  10.057   8.978  10.974  0.1654 -0.1614 -2.6890
  738MOL0     H97360  10.150   9.114  11.039  2.2354 -3.4114  1.4389
  738MOL0     H97361  10.029   9.114  10.756 -2.6359  1.7283  0.4639
  738MOL0     H97362  10.113   9.248  10.845  2.7843 -2.4387  0.4561
  738MOL0     H97363   9.846   9.114  10.918  2.2310 -0.0131  2.3966
  738MOL0     H97364   9.865   9.252  10.801 -1.7307  0.7693  0.3996
  738MOL0     H97365   9.964   9.250  11.099  1.7661  0.1913 -0.3877
  738MOL0     H97366   9.967   9.381  10.982 -1.9481  0.8570 -0.1572
  738MOL0     H97367   9.731   9.409  10.969 -1.0904 -0.3091  0.3267
  738MOL0     H97368   9.784   9.432  11.132  0.4027 -1.6696  1.3637
  738MOL0     H97369   9.764   9.204  11.298 -0.2312 -2.2069  0.2591
  738MOL0     H97370   9.533   9.090  11.439 -1.1309 -0.1348  0.8743
  738MOL0     H97371   9.642   8.963  11.360 -0.8583 -0.0808 -0.6714
  738MOL0     H97372   9.357   8.990  11.290 -0.8666 -2.2218 -0.0750
  738MOL0     H97373   9.412   8.889  11.418  0.6255  0.7159  0.7338
  738MOL0     H97374   9.492   8.863  11.125 -3.8376 -1.7498 -0.8395
  738MOL0     H97375   9.580   8.777  11.252 -0.8517 -1.2616 -0.3785
  738MOL0     H97376   9.392   8.648  11.325  0.1471 -0.2195  0.1482
  738MOL0     H97377   9.402   8.634  11.147  0.5159  1.4202 -2.0727
  738MOL0     H97378   9.021   8.874  11.237 -0.9587 -0.8657 -6.1215
  738MOL0     H97379   8.836   8.772  11.300  1.2970  1.0306  0.6779
  738MOL0     H97380   8.503   8.333  11.263  2.3410  2.3565 -0.9990
  738MOL0     H97381   8.330   8.239  11.387 -3.3583  1.6513  1.9348
  738MOL0     H97382   8.256   8.166  11.657 -1.4577 -0.4050 -0.2172
  738MOL0     H97383   8.156   8.193  11.508 -0.3190 -0.1872 -0.2621
  738MOL0     H97384   7.980   8.276  11.663 -2.6902 -2.6417  2.1068
  738MOL0     H97385   8.082   8.236  11.799 -0.0229 -0.9249 -0.3813
  738MOL0     H97386   8.018   8.023  11.574 -1.7920  0.5163 -1.0197
  738MOL0     H97387   7.893   8.062  11.678 -0.2405  1.5652  0.3426
  738MOL0     H97388   8.169   7.949  11.736 -0.1247  2.5820  0.2206
  738MOL0     H97389   8.073   8.003  11.877  1.8659  0.6099  0.1663
  738MOL0     H97390   8.046   7.776  11.852 -1.4394 -1.6088 -1.0359
  738MOL0     H97391   7.997   7.776  11.686 -0.0026 -0.3574  0.5073
  738MOL0     H97392   7.784   7.898  11.744  2.9848 -0.5558 -2.7211
  738MOL0     H97393   7.849   7.902  11.913  3.1136 -0.3151 -0.1171
  738MOL0     H97394   7.752   7.671  11.742  1.1019  2.4776 -1.7914
  738MOL0     H97395   7.829   7.638  11.900 -0.4485 -0.5084 -0.6073
  738MOL0     H97396   7.652   7.755  12.030  0.1413  0.2247 -0.1731
  738MOL0     H97397   7.606   7.619  11.945 -3.0723  1.1569  1.3536
  738MOL0     H97398   8.395   8.499  11.713  2.4159  1.1694  0.1366
  738MOL0     H97399   8.594   8.597  11.600 -1.9595 -0.0304  2.5318
  738MOL0     H97400   9.025   8.377  11.312  0.3115 -1.6293  0.5741
  738MOL0     H97401   9.231   8.491  11.263  2.4875  1.6867  3.2963
  738MOL0     H97402  10.718   8.922  10.771 -1.1188  1.4318  0.3186
  738MOL0     H97403  10.948   8.966  10.720 -1.5604  3.0613 -1.9774
  738MOL0     H97404  11.485   9.103  11.035  2.7349  0.1427 -0.1717
  738MOL0     H97405  11.703   9.116  10.910 -0.6978 -0.2264  1.0877
  738MOL0     H97406  11.772   9.262  10.734  1.1166 -0.2471  0.4314
  738MOL0     H97407  11.846   9.230  10.581  0.3555  2.5515  1.3503
  738MOL0     H97408  11.877   9.027  10.805  2.9183  0.0602  0.8395
  738MOL0     H97409  11.973   9.050  10.650  0.3885  2.4543 -1.5798
  738MOL0     H97410  12.070   9.115  10.900  1.2880 -0.2805 -0.9076
  738MOL0     H97411  11.971   9.264  10.872  1.2271  3.0998 -3.8257
  738MOL0     H97412  12.221   9.189  10.767  0.1722  0.6454  0.5399
  738MOL0     H97413  12.101   9.217  10.631 -1.1018 -1.2606  0.4690
  738MOL0     H97414  12.244   9.599  10.794  0.7890 -1.0955  3.4319
  738MOL0     H97415  11.479   9.073  10.552 -1.5471 -1.8465  0.5429
  738MOL0     H97416  11.269   9.059  10.671  1.0354  1.0207 -3.2363
  739MOL0     O97417   3.350  10.268   4.292  0.8398 -0.3147 -0.2307
  739MOL0     C97418   3.257  10.288   4.217  0.8207 -0.5913  0.2545
  739MOL0     O97419   3.260  10.360   4.095  0.6036  0.0747  0.2077
  739MOL0     C97420   3.365  10.427   4.047 -0.5626  0.0718  0.3818
  739MOL0     C97421   3.390  10.421   3.907 -0.8502 -0.6517 -0.8523
  739MOL0     C97422   3.502  10.486   3.852 -0.6743  0.5101  0.3622
  739MOL0     C97423   3.584  10.563   3.930  0.5467 -0.3088  0.4759
  739MOL0     O97424   3.688  10.630   3.870 -0.0293  0.0606  0.4076
  739MOL0     C97425   3.777  10.719   3.947 -0.0786  0.5470 -0.7665
  739MOL0     C97426   3.866  10.797   3.850  0.0536  0.2962  0.2587
  739MOL0     C97427   3.993  10.855   3.911 -0.4417 -0.1762  0.3970
  739MOL0     C97428   4.072  10.934   3.812 -0.2514  0.3579  0.1513
  739MOL0     C97429   4.002  11.031   3.721 -0.1661 -0.0213 -0.9378
  739MOL0     C97430   4.106  11.105   3.645 -1.3437  0.0538  0.3990
  739MOL0     C97431   4.140  11.037   3.505  0.5104 -1.0827 -0.3875
  739MOL0     C97432   4.206  11.147   3.410  0.9330  0.5152  0.2423
  739MOL0     N97433   4.117  11.249   3.369  0.7012 -0.7714  0.0013
  739MOL0     C97434   4.033  11.263   3.262 -0.0613 -0.0873 -0.0156
  739MOL0     C97435   3.973  11.385   3.275  0.2111 -0.1389  0.5890
  739MOL0     C97436   3.901  11.446   3.158 -0.1943  0.8646 -0.4047
  739MOL0     C97437   3.757  11.393   3.152  0.3774  0.2596 -0.0679
  739MOL0     C97438   3.744  11.294   3.038 -0.6826  0.2612  0.0677
  739MOL0     C97439   3.599  11.247   3.015  0.0723 -0.2413 -0.8870
  739MOL0     O97440   3.572  11.118   3.087 -0.3121 -0.0202  0.2487
  739MOL0     C97441   3.436  11.094   3.073  0.3094 -0.0362  1.1178
  739MOL0     C97442   3.384  11.042   3.188  0.9533  0.6795  0.2568
  739MOL0     C97443   3.244  11.034   3.206  0.1103  0.1794  0.2026
  739MOL0     C97444   3.158  11.064   3.103  0.3911 -0.0803  0.5812
  739MOL0     C97445   3.006  11.046   3.113 -1.0369 -0.5671 -1.1642
  739MOL0     O97446   2.958  10.951   3.199  0.1396  0.3000  0.2979
  739MOL0     C97447   2.824  10.931   3.202 -0.2305 -0.0720  0.5484
  739MOL0     C97448   2.726  11.018   3.259 -0.7958 -0.5510  0.5514
  739MOL0     C97449   2.587  10.985   3.260  0.4306  0.3033 -0.0569
  739MOL0     C97450   2.550  10.844   3.238  0.2874 -0.6485  0.3467
  739MOL0     O97451   2.419  10.799   3.231 -1.0075  0.2289 -0.1799
  739MOL0     C97452   2.328  10.875   3.317  0.0938 -0.5088 -0.5399
  739MOL0     C97453   2.193  10.810   3.287  0.4133 -0.4347  1.5357
  739MOL0     C97454   2.076  10.888   3.350 -0.8985 -0.8195 -0.5382
  739MOL0     C97455   1.943  10.816   3.328 -0.2753 -0.0274 -0.1768
  739MOL0     C97456   1.835  10.860   3.418  0.2626 -0.3303  0.7057
  739MOL0     C97457   1.800  11.006   3.382 -0.0772 -0.5184  0.6083
  739MOL0     C97458   1.675  11.027   3.450  0.2769 -1.2655  0.2336
  739MOL0     C97459   1.609  11.160   3.395  0.4967 -0.7704  0.0311
  739MOL0    Cl97460   1.727  11.293   3.411 -0.2806  0.0580 -0.3021
  739MOL0     C97461   2.652  10.763   3.183  0.4537  0.1528 -0.5288
  739MOL0     C97462   2.777  10.807   3.154 -0.8065 -0.8534 -0.6452
  739MOL0     O97463   2.937  11.114   3.035  0.2921 -0.2167 -0.2791
  739MOL0     C97464   3.210  11.111   2.982 -0.4199  0.5754  0.2641
  739MOL0     C97465   3.345  11.133   2.964  0.4010 -0.3774  0.2512
  739MOL0     N97466   4.031  11.450   3.379  0.4764  0.2254  1.0159
  739MOL0     N97467   4.105  11.365   3.440 -0.0221  0.0847  0.0960
  739MOL0     C97468   3.557  10.569   4.075  0.3646 -0.5003  0.6930
  739MOL0     C97469   3.451  10.500   4.129  0.2190  0.4569 -0.4381
  739MOL0     C97470   3.125  10.229   4.245  0.2200 -0.4933 -0.1630
  739MOL0     C97471   3.019  10.226   4.153 -0.3016 -0.1601  0.0283
  739MOL0     C97472   2.890  10.178   4.192 -0.3088  0.3543 -0.0430
  739MOL0     C97473   2.875  10.124   4.320  0.9529  0.5623 -0.3368
  739MOL0     O97474   2.758  10.060   4.348 -0.2696  0.5107 -0.2881
  739MOL0     C97475   2.627  10.123   4.339  0.6979  1.1504  1.4157
  739MOL0     C97476   2.511  10.027   4.354 -0.6792 -0.0479  0.1007
  739MOL0     C97477   2.482   9.992   4.501 -0.3816  0.6128  0.2937
  739MOL0     C97478   2.364   9.896   4.516 -0.5317 -0.0728  0.3789
  739MOL0     C97479   2.237   9.970   4.510  0.3643 -0.0730 -0.4228
  739MOL0     C97480   2.128  10.025   4.513  0.4226 -0.0998  0.1254
  739MOL0     C97481   2.984  10.133   4.412 -0.1168  1.3573 -0.2900
  739MOL0     C97482   3.108  10.188   4.377  0.0086  0.9134 -0.9565
  739MOL0     H97483   3.338  10.364   3.831  2.0015 -2.0739 -1.8804
  739MOL0     H97484   3.531  10.483   3.747  0.6760  0.6888  0.7038
  739MOL0     H97485   3.840  10.667   4.020  0.4619  0.3784 -1.3340
  739MOL0     H97486   3.720  10.789   4.008  1.5168  1.4025 -0.2008
  739MOL0     H97487   3.808  10.882   3.813  0.1185 -0.0256 -0.6007
  739MOL0     H97488   3.892  10.741   3.760 -1.2419 -0.1615  0.1539
  739MOL0     H97489   4.054  10.775   3.955 -2.5954 -1.4507  1.2234
  739MOL0     H97490   3.964  10.926   3.988 -1.1279  1.2904 -1.1443
  739MOL0     H97491   4.158  10.978   3.863  1.0346 -2.3980  0.5778
  739MOL0     H97492   4.116  10.859   3.746  1.7144  1.6265 -0.0483
  739MOL0     H97493   3.937  11.101   3.774  2.6932  1.7975  0.4663
  739MOL0     H97494   3.940  10.980   3.647  1.0988 -1.0722 -1.3069
  739MOL0     H97495   4.203  11.106   3.695 -0.6618 -1.3998 -0.7858
  739MOL0     H97496   4.066  11.205   3.629 -3.0043 -0.7183 -0.6375
  739MOL0     H97497   4.207  10.951   3.515  3.1386  0.8191 -0.7003
  739MOL0     H97498   4.044  11.003   3.465 -0.8452 -0.4754  2.1403
  739MOL0     H97499   4.259  11.098   3.329  3.0090 -0.9409  2.3504
  739MOL0     H97500   4.295  11.183   3.463  0.2594 -1.7514  3.2293
  739MOL0     H97501   4.012  11.195   3.181 -2.2716  0.2801  0.1999
  739MOL0     H97502   3.960  11.438   3.066  0.6643  1.1963  0.0952
  739MOL0     H97503   3.889  11.551   3.187 -0.6791  0.6468  0.2100
  739MOL0     H97504   3.697  11.479   3.123  0.6804  0.6747  0.5250
  739MOL0     H97505   3.729  11.338   3.242  0.2885  0.2722 -0.0883
  739MOL0     H97506   3.776  11.335   2.942 -0.6259 -0.3375 -0.1711
  739MOL0     H97507   3.797  11.203   3.066 -2.3668 -0.1731  2.1496
  739MOL0     H97508   3.586  11.225   2.909  2.3176 -1.3829 -0.9851
  739MOL0     H97509   3.526  11.319   3.053 -2.5609 -2.9196 -0.4754
  739MOL0     H97510   3.445  11.023   3.275  1.1733 -2.4693 -0.4634
  739MOL0     H97511   3.204  10.995   3.299  1.2771 -0.4289  0.4599
  739MOL0     H97512   2.763  11.113   3.296  0.7062 -2.0308  3.1370
  739MOL0     H97513   2.513  11.063   3.274 -0.7079 -0.9789  1.3857
  739MOL0     H97514   2.309  10.978   3.287 -3.3155 -0.9549 -0.2564
  739MOL0     H97515   2.352  10.866   3.423 -2.7622  2.8222  0.5724
  739MOL0     H97516   2.196  10.703   3.313  0.2761 -1.7013 -2.8274
  739MOL0     H97517   2.182  10.808   3.179  0.1597 -0.2455  1.5596
  739MOL0     H97518   2.071  10.985   3.299  0.3419 -0.0560  0.7228
  739MOL0     H97519   2.090  10.914   3.455 -2.3474  2.5721 -1.0489
  739MOL0     H97520   1.910  10.832   3.225  0.5555  0.3541 -0.3913
  739MOL0     H97521   1.963  10.709   3.338 -1.2188 -0.4689 -2.3596
  739MOL0     H97522   1.864  10.863   3.524  1.0505 -0.9951  0.5194
  739MOL0     H97523   1.743  10.803   3.408  0.6849 -0.6264 -2.2280
  739MOL0     H97524   1.781  11.018   3.274  0.8552 -4.4082 -0.1446
  739MOL0     H97525   1.878  11.073   3.417  3.9825 -2.5688 -3.3857
  739MOL0     H97526   1.612  10.944   3.417  2.7496 -2.9195 -0.6790
  739MOL0     H97527   1.685  11.025   3.559 -0.3915 -0.5777  0.3126
  739MOL0     H97528   1.509  11.172   3.440  0.0053  0.8167 -1.4060
  739MOL0     H97529   1.597  11.137   3.289  3.7737 -0.8683 -0.3952
  739MOL0     H97530   2.617  10.669   3.143  0.5842 -0.1257  0.0079
  739MOL0     H97531   2.847  10.735   3.113 -0.9473  0.2070 -2.8945
  739MOL0     H97532   3.161  11.141   2.890 -2.4966 -2.2585  0.3195
  739MOL0     H97533   3.381  11.180   2.873 -0.4836 -1.8128 -0.8645
  739MOL0     H97534   3.619  10.629   4.140  1.3834  0.6253 -1.2171
  739MOL0     H97535   3.441  10.506   4.237  1.2002  0.5099 -0.3412
  739MOL0     H97536   3.038  10.265   4.054 -1.4537  1.4421  0.3870
  739MOL0     H97537   2.812  10.163   4.118 -0.6316  1.1769  0.1246
  739MOL0     H97538   2.613  10.163   4.238  2.3895  0.4836  0.8882
  739MOL0     H97539   2.626  10.205   4.412 -0.6599  1.1321  1.4465
  739MOL0     H97540   2.419  10.078   4.323 -0.3406  0.8886  0.5965
  739MOL0     H97541   2.538   9.940   4.294  2.1299  0.7172  0.1513
  739MOL0     H97542   2.456  10.092   4.538  1.2136  4.2974 -6.6991
  739MOL0     H97543   2.568   9.936   4.539 -2.6828 -3.3631  0.1982
  739MOL0     H97544   2.374   9.821   4.437  1.3803  1.7330 -1.2150
  739MOL0     H97545   2.367   9.834   4.606  3.1626  0.7562  0.9972
  739MOL0     H97546   2.030  10.062   4.536 -1.1133 -2.1797 -2.5475
  739MOL0     H97547   2.990  10.084   4.509  1.1200 -1.1434 -1.5294
  739MOL0     H97548   3.192  10.187   4.445 -1.3473  3.4652  0.9373
  740MOL0     O97549  10.058   8.907   3.877 -0.6627 -1.1934 -0.5864
  740MOL0     C97550  10.055   8.996   3.796 -0.1386 -1.0006 -0.0000
  740MOL0     O97551  10.165   9.038   3.723 -0.2398  0.3524 -0.0593
  740MOL0     C97552  10.287   8.990   3.754 -0.5038 -0.0339 -0.5556
  740MOL0     C97553  10.374   9.061   3.836  0.6815  0.0637 -0.9441
  740MOL0     C97554  10.501   9.017   3.840  0.1080 -0.3067  0.4732
  740MOL0     C97555  10.548   8.904   3.769 -0.1171  0.4097 -0.2372
  740MOL0     O97556  10.672   8.843   3.778 -0.6026 -0.1890  0.2810
  740MOL0     C97557  10.786   8.903   3.849 -1.0328 -0.2023 -0.2769
  740MOL0     C97558  10.918   8.838   3.812  0.0366 -0.0330 -0.2188
  740MOL0     C97559  11.037   8.931   3.815  0.0323 -0.1895 -0.0384
  740MOL0     C97560  11.159   8.851   3.775 -0.1350 -0.4449 -0.0152
  740MOL0     C97561  11.298   8.910   3.791 -0.0808  0.4064 -0.7009
  740MOL0     C97562  11.331   8.938   3.941  0.3229  0.0410  0.4781
  740MOL0     C97563  11.452   9.024   3.958 -0.7718  0.8178  0.9700
  740MOL0     C97564  11.578   8.943   3.935 -0.9223 -0.1855 -0.5559
  740MOL0     N97565  11.698   9.034   3.947  0.1014 -0.0754  0.2033
  740MOL0     C97566  11.803   9.002   4.033  0.4591 -0.5084  0.0436
  740MOL0     C97567  11.885   9.111   4.029  0.5402  0.0504  0.8532
  740MOL0     C97568  12.018   9.134   4.103 -0.2640  0.1214 -0.5454
  740MOL0     C97569  12.102   9.267   4.071  0.3781  0.8309  0.1863
  740MOL0     C97570  12.022   9.401   4.104 -0.4722 -0.1828 -0.6557
  740MOL0     C97571  12.110   9.504   4.168 -0.4335 -0.6041  0.4058
  740MOL0     O97572  12.026   9.617   4.207  1.1678  0.0332  0.2955
  740MOL0     C97573  11.934   9.608   4.311  0.0524  0.2529  0.7117
  740MOL0     C97574  11.916   9.500   4.404  0.1012 -0.1663 -0.3492
  740MOL0     C97575  11.804   9.484   4.481 -0.2838 -0.2825  0.3215
  740MOL0     C97576  11.712   9.590   4.481  0.2756 -0.0057  0.2712
  740MOL0     C97577  11.603   9.595   4.583  0.3074 -0.4085 -0.2452
  740MOL0     O97578  11.494   9.669   4.551  0.6692 -0.1047  0.1124
  740MOL0     C97579  11.391   9.683   4.634 -0.0371  0.9037 -0.6681
  740MOL0     C97580  11.403   9.689   4.776  1.5709  0.0395 -0.0325
  740MOL0     C97581  11.279   9.710   4.848  0.0697 -0.0352  0.5506
  740MOL0     C97582  11.157   9.714   4.784 -0.7624 -0.9118  0.2197
  740MOL0     O97583  11.042   9.740   4.857  0.3802  0.2976  0.2086
  740MOL0     C97584  10.932   9.649   4.864  0.1723 -0.1737 -1.1693
  740MOL0     C97585  10.811   9.711   4.931  0.2851 -0.0281 -0.2171
  740MOL0     C97586  10.719   9.784   4.832  0.6318  0.4685  0.0172
  740MOL0     C97587  10.628   9.878   4.911  0.0391 -0.2125  0.1886
  740MOL0     C97588  10.494   9.887   4.846 -1.1934  0.3740 -0.0533
  740MOL0     C97589  10.403   9.758   4.849 -0.1567 -0.0969 -0.3316
  740MOL0     C97590  10.343   9.721   4.987 -0.2620  0.7597  0.1954
  740MOL0     C97591  10.192   9.748   5.010 -0.2567  0.5398 -0.4947
  740MOL0    Cl97592  10.123   9.644   4.885  0.1679  0.0939  0.0974
  740MOL0     C97593  11.159   9.725   4.643  0.8363 -0.4301 -0.4428
  740MOL0     C97594  11.274   9.701   4.565  0.1276 -0.5025 -0.1913
  740MOL0     O97595  11.621   9.537   4.692 -0.2080 -0.0643  0.7532
  740MOL0     C97596  11.724   9.700   4.395 -0.2756 -0.0732  0.3304
  740MOL0     C97597  11.834   9.703   4.309  0.0203 -0.4526 -0.5880
  740MOL0     N97598  11.821   9.207   3.947  0.2348 -0.0898  1.2237
  740MOL0     N97599  11.709   9.159   3.916 -0.4012 -0.8606 -0.1436
  740MOL0     C97600  10.453   8.835   3.693  0.3917 -0.1180 -0.4713
  740MOL0     C97601  10.322   8.873   3.679  0.5041 -0.0458 -0.3632
  740MOL0     C97602   9.928   9.077   3.780  0.7888 -0.2717 -0.0615
  740MOL0     C97603   9.812   8.997   3.801 -0.8329 -0.7180  0.1930
  740MOL0     C97604   9.685   9.047   3.785 -0.5232  0.4465  0.2774
  740MOL0     C97605   9.663   9.185   3.747  0.3140 -0.4748  0.2632
  740MOL0     O97606   9.541   9.253   3.739  0.2037  0.2899  0.3203
  740MOL0     C97607   9.414   9.183   3.756 -0.4988  0.3618 -0.7462
  740MOL0     C97608   9.296   9.263   3.705  0.3210  0.3254 -0.1298
  740MOL0     C97609   9.254   9.222   3.554 -0.2404  0.1349  0.5828
  740MOL0     C97610   9.134   9.293   3.518  0.2505  0.6460  0.6557
  740MOL0     C97611   9.012   9.235   3.569  0.5941  0.1876 -0.7062
  740MOL0     C97612   8.910   9.172   3.620  0.1410  0.0749  1.0732
  740MOL0     C97613   9.781   9.262   3.724  0.0953  1.1542  0.1731
  740MOL0     C97614   9.910   9.213   3.740 -0.7213 -0.0715 -0.4499
  740MOL0     H97615  10.343   9.150   3.889 -0.2618 -1.2167  0.7486
  740MOL0     H97616  10.579   9.066   3.899  1.1399  0.9439 -1.8012
  740MOL0     H97617  10.760   8.901   3.955 -3.3080  3.8930 -0.5488
  740MOL0     H97618  10.805   9.000   3.801  1.3680 -0.8216 -0.7419
  740MOL0     H97619  10.908   8.793   3.714 -2.5377  2.2244 -1.1219
  740MOL0     H97620  10.942   8.765   3.890  3.6571  0.5482 -0.5959
  740MOL0     H97621  11.053   8.961   3.919  1.2588 -3.1762  0.7288
  740MOL0     H97622  11.031   9.019   3.750  1.0353  1.4576  2.0028
  740MOL0     H97623  11.161   8.753   3.826  0.1315 -1.9635 -2.7695
  740MOL0     H97624  11.145   8.811   3.674 -0.8178 -0.1638 -0.0357
  740MOL0     H97625  11.318   8.999   3.731  1.0379  0.5346 -0.1631
  740MOL0     H97626  11.368   8.834   3.755  0.1596  0.2067  0.1730
  740MOL0     H97627  11.341   8.839   3.988 -4.6872  0.3070  2.7414
  740MOL0     H97628  11.253   8.993   3.994  1.4132  0.6589  1.5012
  740MOL0     H97629  11.441   9.113   3.896 -0.4265  0.5644  0.5423
  740MOL0     H97630  11.452   9.058   4.062 -2.5846  0.8735  0.9860
  740MOL0     H97631  11.570   8.898   3.836 -2.5901 -0.9809 -0.1099
  740MOL0     H97632  11.582   8.864   4.012 -0.8148 -0.2152 -0.5925
  740MOL0     H97633  11.820   8.916   4.096 -0.7228  1.0437  2.6396
  740MOL0     H97634  12.081   9.044   4.098  0.0700  0.1917  1.5291
  740MOL0     H97635  11.994   9.139   4.210 -1.3806  0.7585 -0.8140
  740MOL0     H97636  12.133   9.253   3.967  1.1819 -1.0902  0.6387
  740MOL0     H97637  12.195   9.261   4.127  1.2433 -0.3866 -1.2788
  740MOL0     H97638  11.985   9.444   4.010  2.6047  1.3734 -1.2896
  740MOL0     H97639  11.941   9.372   4.171  0.8290 -0.1227  0.9965
  740MOL0     H97640  12.188   9.532   4.097 -0.5127 -3.6716 -1.0287
  740MOL0     H97641  12.162   9.471   4.259 -0.6205 -0.7459  0.4626
  740MOL0     H97642  11.982   9.414   4.410  0.3292  0.0034 -0.4028
  740MOL0     H97643  11.783   9.397   4.542 -1.4945  0.3273  0.8037
  740MOL0     H97644  11.494   9.667   4.830  1.5793 -1.2098 -0.5226
  740MOL0     H97645  11.295   9.724   4.955  0.6201 -0.1035  0.4817
  740MOL0     H97646  10.950   9.556   4.918 -3.7764  0.2397  1.2512
  740MOL0     H97647  10.891   9.618   4.768 -0.1332 -0.6496 -0.8893
  740MOL0     H97648  10.852   9.778   5.007  2.1615 -1.0375 -0.3023
  740MOL0     H97649  10.754   9.639   4.991 -0.0184  1.0100  0.7865
  740MOL0     H97650  10.672   9.704   4.775  1.8152 -2.2702  2.6477
  740MOL0     H97651  10.770   9.844   4.755 -1.2360  1.2620 -0.6723
  740MOL0     H97652  10.614   9.856   5.017 -0.3227  3.3287  0.9966
  740MOL0     H97653  10.678   9.975   4.911 -1.4843  0.6606  2.3011
  740MOL0     H97654  10.531   9.915   4.746 -0.4569  0.6381  0.2814
  740MOL0     H97655  10.441   9.969   4.894  2.3468  1.6427  2.0837
  740MOL0     H97656  10.465   9.672   4.820  0.0561 -0.3380  0.7884
  740MOL0     H97657  10.324   9.768   4.774  1.0419 -1.6210 -1.8821
  740MOL0     H97658  10.360   9.613   4.998  2.9795  1.0904 -0.4585
  740MOL0     H97659  10.406   9.764   5.066 -0.0609  1.3082 -0.2582
  740MOL0     H97660  10.164   9.853   5.002 -1.9122  0.2039  0.3895
  740MOL0     H97661  10.175   9.715   5.113 -0.9951 -0.5687 -0.9563
  740MOL0     H97662  11.064   9.716   4.591 -0.0238  0.8264  0.8301
  740MOL0     H97663  11.268   9.710   4.457  0.3187  0.9578 -0.1103
  740MOL0     H97664  11.636   9.759   4.372 -1.3857 -1.6971  0.2550
  740MOL0     H97665  11.840   9.786   4.239  0.4701 -0.5270 -0.6416
  740MOL0     H97666  10.497   8.747   3.647 -3.0751 -1.7044 -1.1047
  740MOL0     H97667  10.244   8.823   3.623  0.5889 -1.0216  0.3604
  740MOL0     H97668   9.817   8.891   3.823  0.8990 -0.6497  0.2143
  740MOL0     H97669   9.608   8.975   3.809 -0.3755  0.4165  0.6753
  740MOL0     H97670   9.406   9.152   3.860  2.8558 -0.8020 -0.6879
  740MOL0     H97671   9.412   9.087   3.703  0.6786  0.7604 -1.5512
  740MOL0     H97672   9.203   9.259   3.763 -0.4013  1.4593 -1.1520
  740MOL0     H97673   9.310   9.371   3.705 -1.5917  0.6598  1.9889
  740MOL0     H97674   9.248   9.113   3.547  2.4562 -0.0649  0.2534
  740MOL0     H97675   9.336   9.249   3.487  0.5561  0.3203  1.6013
  740MOL0     H97676   9.153   9.395   3.551  2.6808 -0.1641  2.0794
  740MOL0     H97677   9.126   9.291   3.409 -2.2599 -0.0823  0.7971
  740MOL0     H97678   8.834   9.105   3.652 -2.6363  1.4610 -1.9913
  740MOL0     H97679   9.773   9.360   3.679  2.0579  0.0782 -2.7946
  740MOL0     H97680   9.990   9.282   3.716 -2.9786  3.2954  0.8537
  741MOL0     O97681   1.995   2.797  10.005  0.0670 -0.1964 -0.0526
  741MOL0     C97682   2.012   2.815  10.127  0.7249 -0.1142 -0.3734
  741MOL0     O97683   1.921   2.794  10.226  0.3064 -0.2599  0.0250
  741MOL0     C97684   1.789   2.762  10.191  0.0634  1.3201  0.2910
  741MOL0     C97685   1.697   2.839  10.260  0.1873 -0.9720  0.0250
  741MOL0     C97686   1.557   2.815  10.249 -0.5116 -0.7247  0.3641
  741MOL0     C97687   1.519   2.710  10.165  0.3800  0.1294 -0.1195
  741MOL0     O97688   1.384   2.683  10.158 -0.1524  0.1669 -0.2920
  741MOL0     C97689   1.327   2.673  10.035  0.4255 -0.3724 -0.4976
  741MOL0     C97690   1.179   2.701  10.052 -0.5934 -0.2372  0.3505
  741MOL0     C97691   1.106   2.673   9.929 -1.1663  0.6535 -0.5506
  741MOL0     C97692   0.955   2.716   9.939 -0.0285  0.8452 -0.2895
  741MOL0     C97693   0.897   2.723   9.805  0.0750  0.7017  0.0157
  741MOL0     C97694   0.743   2.694   9.800  0.6078  0.4471  0.2840
  741MOL0     C97695   0.656   2.766   9.909  0.0857 -0.1604  0.5419
  741MOL0     C97696   0.665   2.920   9.922 -0.2150  0.1544  0.4511
  741MOL0     N97697   0.550   2.974   9.997 -0.5699 -1.0793 -0.4403
  741MOL0     C97698   0.465   2.894  10.075 -0.1365  0.1413  0.6838
  741MOL0     C97699   0.375   2.976  10.135  0.1398 -0.3970 -0.6033
  741MOL0     C97700   0.251   2.926  10.200 -0.1431 -0.2338 -0.7367
  741MOL0     C97701   0.132   2.995  10.143 -0.1694  0.7107  0.2751
  741MOL0     C97702   0.016   2.974  10.244 -1.0941 -0.2307  0.0843
  741MOL0     C97703  -0.122   3.015  10.192 -0.4804 -0.4135 -0.7025
  741MOL0     O97704  -0.199   2.909  10.136 -0.4372  0.2282  0.1338
  741MOL0     C97705  -0.334   2.928  10.140  0.7461  0.0720  0.0641
  741MOL0     C97706  -0.409   3.028  10.207  0.5376 -0.3317  0.1237
  741MOL0     C97707  -0.551   3.035  10.200  0.5172 -0.1029 -0.4642
  741MOL0     C97708  -0.612   2.938  10.124  0.2060 -0.2005 -1.1670
  741MOL0     C97709  -0.756   2.947  10.114 -0.4831  0.3669 -0.8610
  741MOL0     O97710  -0.821   2.837  10.059 -1.0545  0.3108  0.1484
  741MOL0     C97711  -0.956   2.833  10.034 -0.2565 -0.2934  0.3138
  741MOL0     C97712  -1.001   2.877   9.899  0.2704  0.7062 -0.4470
  741MOL0     C97713  -1.139   2.909   9.882 -0.3710 -1.3220  1.0255
  741MOL0     C97714  -1.235   2.885   9.985  0.5166 -0.4237  0.7016
  741MOL0     O97715  -1.363   2.931   9.976  0.1264  0.2952  0.0020
  741MOL0     C97716  -1.418   2.938   9.848 -0.5547 -0.1143  0.3213
  741MOL0     C97717  -1.559   2.981   9.855  0.6151  1.0196 -0.8016
  741MOL0     C97718  -1.602   3.040   9.717 -0.0892 -0.5115 -0.0588
  741MOL0     C97719  -1.622   2.924   9.611 -1.0418  0.2281 -0.5685
  741MOL0     C97720  -1.660   2.977   9.483 -0.0243 -0.1226  0.0462
  741MOL0     C97721  -1.680   2.864   9.380 -0.1073 -0.5920  0.1346
  741MOL0     C97722  -1.704   2.927   9.242 -0.5161  0.0542 -0.0064
  741MOL0     C97723  -1.751   2.820   9.144  0.4731  0.1927 -0.3602
  741MOL0    Cl97724  -1.616   2.713   9.082  0.0587 -0.1322 -0.1975
  741MOL0     C97725  -1.188   2.831  10.108 -0.7675 -0.3123  0.4758
  741MOL0     C97726  -1.052   2.804  10.131  0.7043 -0.2542 -0.1909
  741MOL0     O97727  -0.812   3.047  10.146 -0.1212  0.1448 -0.0261
  741MOL0     C97728  -0.539   2.851  10.043 -0.1276  0.0736  0.5623
  741MOL0     C97729  -0.406   2.837  10.061  0.3085  1.3455 -0.1980
  741MOL0     N97730   0.415   3.108  10.099  0.0781 -0.0895 -0.8508
  741MOL0     N97731   0.516   3.105  10.018  0.4009  0.2217  0.4402
  741MOL0     C97732   1.608   2.625  10.106 -0.8817  1.1695 -0.1856
  741MOL0     C97733   1.749   2.655  10.109  1.0463 -0.5438 -0.1654
  741MOL0     C97734   2.138   2.872  10.164 -0.3739  1.1334 -0.4570
  741MOL0     C97735   2.231   2.899  10.063 -0.5651 -0.4328  0.2288
  741MOL0     C97736   2.356   2.952  10.086 -0.4456 -0.3292 -0.2269
  741MOL0     C97737   2.395   2.982  10.211 -0.4596 -0.8149 -0.2592
  741MOL0     O97738   2.523   3.015  10.229 -0.0706 -0.3527  0.4552
  741MOL0     C97739   2.593   3.052  10.354 -0.3518  1.3856  0.6071
  741MOL0     C97740   2.549   3.181  10.413 -0.1053  0.5080 -0.5100
  741MOL0     C97741   2.645   3.244  10.523  0.5344  0.6327 -0.5297
  741MOL0     C97742   2.572   3.349  10.593  0.0039 -0.1633  0.3393
  741MOL0     C97743   2.488   3.295  10.705 -0.4317  0.3345 -0.4809
  741MOL0     C97744   2.412   3.241  10.784  1.3154 -1.0750  0.5271
  741MOL0     C97745   2.303   2.957  10.316  0.1492  0.1379  0.2973
  741MOL0     C97746   2.177   2.905  10.295  0.1178  0.2782 -0.1139
  741MOL0     H97747   1.741   2.906  10.334  0.2202 -1.9621  0.9128
  741MOL0     H97748   1.479   2.875  10.295  0.2605 -0.2172  1.0371
  741MOL0     H97749   1.338   2.577   9.984  2.5962 -1.5166  1.8600
  741MOL0     H97750   1.367   2.757   9.977 -1.0951  1.3277  0.7880
  741MOL0     H97751   1.161   2.808  10.061  1.3420  0.1244  0.4816
  741MOL0     H97752   1.137   2.635  10.128 -1.4848  1.1407  1.0972
  741MOL0     H97753   1.108   2.568   9.900 -2.4507  0.2192  0.7798
  741MOL0     H97754   1.164   2.724   9.852  2.2187 -1.2024  0.5684
  741MOL0     H97755   0.889   2.652   9.998  0.1192  0.8580 -0.1084
  741MOL0     H97756   0.936   2.810   9.991  4.8096  1.0193  1.7258
  741MOL0     H97757   0.960   2.652   9.751  0.1040  0.6568  0.1090
  741MOL0     H97758   0.912   2.821   9.759  1.6355  0.3531 -0.2473
  741MOL0     H97759   0.727   2.587   9.816 -0.5121  0.0378 -2.9442
  741MOL0     H97760   0.703   2.709   9.700  1.7195 -2.2913 -0.6544
  741MOL0     H97761   0.554   2.745   9.875 -1.0354  1.8632  2.4165
  741MOL0     H97762   0.663   2.725  10.011 -2.2776  0.1524  0.8825
  741MOL0     H97763   0.655   2.957   9.820  0.6658 -2.0370 -0.4942
  741MOL0     H97764   0.764   2.949   9.961  0.4788  0.1311 -1.2195
  741MOL0     H97765   0.469   2.786  10.077 -0.4866 -0.0537 -2.9382
  741MOL0     H97766   0.262   2.972  10.298  1.1641  0.1475 -1.0335
  741MOL0     H97767   0.244   2.818  10.211 -0.0743  0.0066  2.5104
  741MOL0     H97768   0.107   2.939  10.052  0.9473 -2.1339  1.5969
  741MOL0     H97769   0.145   3.103  10.130  3.0459  0.3493 -0.4419
  741MOL0     H97770   0.010   2.868  10.269  0.4484 -0.2564  0.4790
  741MOL0     H97771   0.049   3.041  10.325 -0.3555  2.6219 -2.3883
  741MOL0     H97772  -0.097   3.088  10.114  3.2168 -2.8826 -2.1074
  741MOL0     H97773  -0.168   3.058  10.282 -1.7247 -1.5985 -0.7453
  741MOL0     H97774  -0.376   3.113  10.266 -2.0270  1.6117 -1.0646
  741MOL0     H97775  -0.592   3.120  10.253 -0.8110 -1.5449  0.9063
  741MOL0     H97776  -0.926   2.886   9.822 -0.2118 -2.2502 -1.4051
  741MOL0     H97777  -1.158   2.958   9.787  0.1144 -1.8786  0.6396
  741MOL0     H97778  -1.416   2.840   9.801  0.6916 -0.0479  0.2159
  741MOL0     H97779  -1.366   2.997   9.772  1.3424 -2.2412 -0.1128
  741MOL0     H97780  -1.577   3.051   9.936 -0.4580 -1.9437  1.7288
  741MOL0     H97781  -1.621   2.892   9.874 -0.9219  2.3703  0.8581
  741MOL0     H97782  -1.533   3.120   9.689 -1.1781  0.3777 -0.2953
  741MOL0     H97783  -1.699   3.089   9.724  0.4763  0.9923 -2.0369
  741MOL0     H97784  -1.529   2.867   9.604 -1.1941 -0.3377  1.4112
  741MOL0     H97785  -1.699   2.852   9.642 -1.5095  1.3025  0.9391
  741MOL0     H97786  -1.588   3.049   9.445  1.6246 -0.5518  2.1638
  741MOL0     H97787  -1.758   3.025   9.489 -0.9384 -1.3066 -3.2548
  741MOL0     H97788  -1.769   2.803   9.403  0.7910 -2.3891 -0.8883
  741MOL0     H97789  -1.596   2.794   9.384 -0.8156 -1.6372 -1.6935
  741MOL0     H97790  -1.779   3.005   9.255  0.2196  0.6313  0.9122
  741MOL0     H97791  -1.613   2.973   9.202 -0.9520 -1.8760 -3.6242
  741MOL0     H97792  -1.788   2.881   9.062  2.0066 -0.2771 -1.4440
  741MOL0     H97793  -1.825   2.751   9.186  1.0993 -0.5869 -0.5272
  741MOL0     H97794  -1.261   2.818  10.188 -1.8684 -1.0097 -0.6177
  741MOL0     H97795  -1.033   2.776  10.234 -0.0087  1.0588  0.3321
  741MOL0     H97796  -0.587   2.779   9.977  2.0764 -0.5043 -0.5085
  741MOL0     H97797  -0.354   2.754  10.013  2.4411  2.3019  0.3111
  741MOL0     H97798   1.582   2.539  10.046 -0.6782  1.1592 -0.2622
  741MOL0     H97799   1.808   2.585  10.052  1.6863 -0.6537  0.6098
  741MOL0     H97800   2.223   2.866   9.961 -0.8745 -0.1566  0.1614
  741MOL0     H97801   2.438   2.961  10.016 -1.9487 -2.4317 -2.4241
  741MOL0     H97802   2.700   3.047  10.330  0.1480 -0.8534  2.8078
  741MOL0     H97803   2.584   2.972  10.428  2.4190  1.5338  1.2272
  741MOL0     H97804   2.555   3.255  10.333  2.7892  1.4358  0.4185
  741MOL0     H97805   2.447   3.164  10.449  0.0325  0.4816 -0.1284
  741MOL0     H97806   2.735   3.283  10.474 -1.1367  1.0392 -3.5478
  741MOL0     H97807   2.674   3.165  10.593  2.4192  3.1925  1.8115
  741MOL0     H97808   2.640   3.418  10.644  0.3932 -1.2018  1.2637
  741MOL0     H97809   2.512   3.401  10.517  1.1423 -1.6098 -1.6130
  741MOL0     H97810   2.351   3.220  10.870  0.5346  1.8663  0.8280
  741MOL0     H97811   2.332   2.964  10.421  2.1389 -0.0875 -0.2012
  741MOL0     H97812   2.113   2.904  10.384  0.6898  1.6931  0.3532
  742MOL0     O97813   9.113  10.292   5.899 -0.0891 -0.2186 -0.4823
  742MOL0     C97814   9.207  10.259   5.964  0.4920  0.7201 -0.9819
  742MOL0     O97815   9.220  10.277   6.100  0.7411  0.3558  0.1384
  742MOL0     C97816   9.107  10.294   6.172 -0.7329  0.2045  0.7567
  742MOL0     C97817   8.979  10.240   6.146  0.3640  0.6035 -0.7327
  742MOL0     C97818   8.866  10.241   6.237 -0.2848  0.4029 -0.1213
  742MOL0     C97819   8.881  10.308   6.358 -0.1204 -0.1829 -0.1285
  742MOL0     O97820   8.792  10.316   6.457 -0.0476  0.2650 -0.3930
  742MOL0     C97821   8.661  10.254   6.436 -0.1391  0.2122  0.1540
  742MOL0     C97822   8.582  10.263   6.563  0.0177  0.1901 -0.2003
  742MOL0     C97823   8.528  10.411   6.596  0.6914  0.7090  0.1510
  742MOL0     C97824   8.435  10.402   6.723  1.2393 -0.1492 -0.3200
  742MOL0     C97825   8.386  10.546   6.775  1.2618 -0.1904  0.4177
  742MOL0     C97826   8.292  10.536   6.898 -0.5293 -0.0641  0.0982
  742MOL0     C97827   8.248  10.682   6.948 -0.1414  0.7270  0.3454
  742MOL0     C97828   8.158  10.757   6.841 -0.1525  0.3568  0.4391
  742MOL0     N97829   8.032  10.704   6.837  0.2873  0.3029 -0.4580
  742MOL0     C97830   7.970  10.654   6.952  0.3896 -0.0636  0.0816
  742MOL0     C97831   7.849  10.611   6.903  0.0700  0.5123 -0.8141
  742MOL0     C97832   7.726  10.559   6.985  0.2444  0.5209 -0.0510
  742MOL0     C97833   7.595  10.542   6.899 -0.1669 -0.0322 -0.2556
  742MOL0     C97834   7.470  10.519   6.982 -0.1638  0.2004  0.0017
  742MOL0     C97835   7.347  10.476   6.908 -0.4594  0.4430 -0.3127
  742MOL0     O97836   7.246  10.445   7.010  0.2297  0.3057 -0.2342
  742MOL0     C97837   7.125  10.386   6.992 -0.7207  0.2601 -0.0101
  742MOL0     C97838   7.062  10.367   6.867 -0.6618 -0.2606  0.7454
  742MOL0     C97839   6.931  10.320   6.853  0.9951 -0.7164  0.0747
  742MOL0     C97840   6.851  10.295   6.969  0.3665 -0.0397  0.2454
  742MOL0     C97841   6.709  10.237   6.958 -0.4537 -0.2839 -1.3176
  742MOL0     O97842   6.658  10.209   6.833 -0.2928  0.6014  0.5171
  742MOL0     C97843   6.525  10.203   6.812  0.7567 -0.0796  0.7748
  742MOL0     C97844   6.476  10.102   6.722  0.3747  0.2407  0.3777
  742MOL0     C97845   6.338  10.090   6.678 -0.4203 -0.2266  0.5054
  742MOL0     C97846   6.252  10.177   6.740  0.4718  0.2608 -0.1859
  742MOL0     O97847   6.114  10.179   6.717 -0.8610 -0.0811 -0.4709
  742MOL0     C97848   6.054  10.094   6.624 -0.2248 -0.8179  0.1321
  742MOL0     C97849   5.904  10.137   6.621 -0.7209  0.2163 -0.6040
  742MOL0     C97850   5.809  10.042   6.542  0.5210 -0.3303  0.7744
  742MOL0     C97851   5.701  10.129   6.487  0.9367 -0.2248  1.0582
  742MOL0     C97852   5.619  10.037   6.396  1.0603  0.8916  0.0626
  742MOL0     C97853   5.476  10.097   6.360  0.8172  0.1079  1.1767
  742MOL0     C97854   5.384  10.117   6.489  0.8316  0.1763  0.0005
  742MOL0     C97855   5.243  10.134   6.431 -0.5279  0.5339  0.1649
  742MOL0    Cl97856   5.223  10.291   6.355 -0.0258  0.4416 -0.2830
  742MOL0     C97857   6.303  10.286   6.823  0.6923  0.4008 -0.4453
  742MOL0     C97858   6.435  10.301   6.858 -0.9029  0.0254 -0.0484
  742MOL0     O97859   6.653  10.216   7.067  0.2753  0.3321  0.3649
  742MOL0     C97860   6.916  10.295   7.091 -0.0216 -0.1383 -1.0645
  742MOL0     C97861   7.049  10.347   7.094 -0.2347 -0.0519  0.3714
  742MOL0     N97862   7.848  10.630   6.764  0.4444 -0.2562  0.5730
  742MOL0     N97863   7.968  10.673   6.723 -0.8455 -1.1382 -0.1346
  742MOL0     C97864   9.010  10.362   6.391  0.2822  0.3349 -0.0881
  742MOL0     C97865   9.120  10.357   6.297 -0.3040 -0.2670  0.4314
  742MOL0     C97866   9.344  10.243   5.891  0.5461  0.5327 -0.3667
  742MOL0     C97867   9.339  10.236   5.746 -0.2380 -0.1484 -0.2925
  742MOL0     C97868   9.459  10.208   5.680 -0.0331 -0.7288 -0.5042
  742MOL0     C97869   9.586  10.202   5.749 -0.6647  0.0422 -0.5266
  742MOL0     O97870   9.711  10.172   5.696  0.3053  0.0763  0.0521
  742MOL0     C97871   9.708  10.151   5.559  0.4926  0.6927  0.6982
  742MOL0     C97872   9.847  10.104   5.502 -0.1685  0.1166  0.0173
  742MOL0     C97873   9.913   9.981   5.568 -0.1987  0.3766 -0.3488
  742MOL0     C97874  10.043   9.935   5.500  0.3660 -0.3473  1.0971
  742MOL0     C97875  10.145  10.048   5.504 -0.0923  0.1185 -0.1070
  742MOL0     C97876  10.231  10.131   5.499 -0.0316  0.1202  0.7248
  742MOL0     C97877   9.584  10.214   5.885  0.3381 -0.4799  0.1860
  742MOL0     C97878   9.464  10.225   5.959 -0.4314  0.3505  0.2699
  742MOL0     H97879   8.966  10.176   6.059  0.9576  0.0407 -0.4193
  742MOL0     H97880   8.772  10.190   6.218 -0.4304  0.3480  0.7057
  742MOL0     H97881   8.671  10.149   6.408 -0.2705 -0.1173  1.2964
  742MOL0     H97882   8.609  10.313   6.359 -0.8242 -0.2322  0.2698
  742MOL0     H97883   8.646  10.232   6.647 -0.7999 -2.1782 -0.3725
  742MOL0     H97884   8.504  10.188   6.552 -0.0323  0.2859 -0.5026
  742MOL0     H97885   8.489  10.458   6.505  0.2569 -0.5757 -0.3435
  742MOL0     H97886   8.613  10.472   6.628  0.6903  0.8301 -0.0717
  742MOL0     H97887   8.340  10.351   6.705 -1.0042  3.0457  1.4980
  742MOL0     H97888   8.496  10.359   6.803  1.3716  1.9543  0.7773
  742MOL0     H97889   8.343  10.595   6.687 -1.8271  0.0123  1.8862
  742MOL0     H97890   8.473  10.600   6.813  1.2173 -1.0117  1.7757
  742MOL0     H97891   8.351  10.484   6.974  0.9392  0.0201 -0.9577
  742MOL0     H97892   8.200  10.484   6.872 -0.5917 -1.6342  3.0638
  742MOL0     H97893   8.216  10.678   7.053  2.5100  1.4690  1.2809
  742MOL0     H97894   8.341  10.736   6.970 -0.6400  1.3959  0.8682
  742MOL0     H97895   8.202  10.737   6.744 -2.4380 -0.2645 -0.5425
  742MOL0     H97896   8.155  10.866   6.851  0.2362  0.4248 -0.1704
  742MOL0     H97897   8.003  10.655   7.056  0.9133 -0.0685 -0.0808
  742MOL0     H97898   7.722  10.636   7.062  0.6706  0.3263  0.1680
  742MOL0     H97899   7.743  10.466   7.040 -2.4087  0.9074  1.6037
  742MOL0     H97900   7.612  10.453   6.838  1.6630 -0.7106  1.1627
  742MOL0     H97901   7.576  10.632   6.839 -2.9058 -0.4182 -0.0892
  742MOL0     H97902   7.499  10.442   7.055  1.0156  0.4209 -0.2052
  742MOL0     H97903   7.458  10.612   7.039  1.4807  0.1054  0.5755
  742MOL0     H97904   7.359  10.387   6.845  0.9134 -0.3404  0.9867
  742MOL0     H97905   7.298  10.564   6.865 -0.0213  1.2189  0.7265
  742MOL0     H97906   7.100  10.413   6.777 -0.0803  0.9478  1.5778
  742MOL0     H97907   6.890  10.283   6.759  2.1693 -2.5291  0.2199
  742MOL0     H97908   6.553  10.036   6.684 -1.4847 -0.1730 -3.0960
  742MOL0     H97909   6.304  10.016   6.606  0.5946  1.3403 -1.7281
  742MOL0     H97910   6.051   9.987   6.649 -0.0374 -0.6091  1.0773
  742MOL0     H97911   6.105  10.110   6.528  1.4451  2.3486  1.3977
  742MOL0     H97912   5.913  10.237   6.577  4.2530 -0.7557 -2.5247
  742MOL0     H97913   5.867  10.154   6.723  1.4343  1.3389  0.0673
  742MOL0     H97914   5.765   9.958   6.597  0.7689  0.0556  1.5812
  742MOL0     H97915   5.860   9.994   6.458  0.2578 -1.6274  1.3152
  742MOL0     H97916   5.644  10.162   6.574 -3.4597 -0.9032 -1.2543
  742MOL0     H97917   5.741  10.217   6.435 -1.3028  0.5949  0.6259
  742MOL0     H97918   5.599   9.940   6.443  1.8565  1.4175  1.5407
  742MOL0     H97919   5.675  10.015   6.305 -1.1839 -1.2410 -0.9266
  742MOL0     H97920   5.441  10.019   6.291 -0.2065 -1.0720  2.9506
  742MOL0     H97921   5.472  10.193   6.308 -0.5220  0.0530  1.1289
  742MOL0     H97922   5.384  10.031   6.557  2.4982 -0.2233 -0.4488
  742MOL0     H97923   5.410  10.202   6.552  1.3788 -1.5041  2.1781
  742MOL0     H97924   5.171  10.124   6.513  0.0198  1.0881  0.7288
  742MOL0     H97925   5.214  10.058   6.358  0.4588 -0.8982  1.2024
  742MOL0     H97926   6.243  10.357   6.879 -1.0376 -0.2316 -1.4213
  742MOL0     H97927   6.464  10.383   6.923 -1.6393  0.0336  0.2851
  742MOL0     H97928   6.869  10.263   7.184  1.7681 -1.0736 -0.4261
  742MOL0     H97929   7.103  10.367   7.186 -0.5309  2.9257 -0.0080
  742MOL0     H97930   9.027  10.394   6.493 -0.0386 -1.2683  0.4861
  742MOL0     H97931   9.217  10.394   6.328  1.7729 -2.8908 -2.2849
  742MOL0     H97932   9.245  10.244   5.693 -1.1564  0.6418  1.3620
  742MOL0     H97933   9.450  10.183   5.575  0.2896 -1.1333 -0.4415
  742MOL0     H97934   9.684  10.248   5.514 -0.4188  1.0272  1.8697
  742MOL0     H97935   9.633  10.077   5.532  0.5091  0.7667  0.4535
  742MOL0     H97936   9.833  10.083   5.396  1.8992 -1.3539 -0.0018
  742MOL0     H97937   9.906  10.194   5.523 -0.8813  0.3597  1.1227
  742MOL0     H97938   9.855   9.890   5.549  0.2780 -0.0839  0.3801
  742MOL0     H97939   9.933   9.990   5.675 -1.2897 -3.9329  0.4042
  742MOL0     H97940  10.084   9.848   5.553 -1.7175 -0.7494  2.1334
  742MOL0     H97941  10.017   9.898   5.401  0.5825  1.8447  0.1429
  742MOL0     H97942  10.303  10.210   5.506 -0.4315  0.7033 -1.2247
  742MOL0     H97943   9.679  10.225   5.936  1.7810  0.7803 -2.5807
  742MOL0     H97944   9.458  10.229   6.067 -2.5256  0.2860  0.1993
  743MOL0     O97945   3.410   8.420   0.704  0.7033  0.1395 -0.6068
  743MOL0     C97946   3.460   8.380   0.598  0.7914 -0.2984  0.1142
  743MOL0     O97947   3.386   8.297   0.516  0.0939  0.0645 -0.0309
  743MOL0     C97948   3.279   8.221   0.561 -0.1880  0.9577  0.1280
  743MOL0     C97949   3.175   8.194   0.469 -1.0632 -0.5794  0.0871
  743MOL0     C97950   3.065   8.119   0.506 -0.7329 -0.1935  0.1220
  743MOL0     C97951   3.056   8.066   0.635  0.8730 -0.3737 -0.7449
  743MOL0     O97952   2.945   7.998   0.676  0.1598  0.9175  0.0424
  743MOL0     C97953   2.812   8.028   0.619  0.0170 -0.1155 -0.1542
  743MOL0     C97954   2.692   7.982   0.707 -0.1549  0.6036 -0.5152
  743MOL0     C97955   2.557   8.021   0.649 -0.2909 -0.1110 -0.1178
  743MOL0     C97956   2.453   7.916   0.687  0.9539 -0.2131  0.7816
  743MOL0     C97957   2.321   7.926   0.615 -0.1410 -0.0166  0.3094
  743MOL0     C97958   2.219   8.015   0.690  0.3017  0.1854 -0.4151
  743MOL0     C97959   2.076   7.947   0.691 -0.8954 -0.3272 -0.0496
  743MOL0     C97960   2.027   7.930   0.546  0.0881  0.4357 -0.2328
  743MOL0     N97961   1.896   7.854   0.554  0.2422  0.7020 -0.7133
  743MOL0     C97962   1.878   7.722   0.531 -0.2504 -0.0436 -0.4992
  743MOL0     C97963   1.750   7.698   0.535 -0.1254 -0.0118 -0.1539
  743MOL0     C97964   1.681   7.563   0.515 -0.7882  0.4346 -0.0388
  743MOL0     C97965   1.579   7.571   0.408  0.4204  0.4081  0.1067
  743MOL0     C97966   1.496   7.440   0.420 -0.0385 -0.7470 -0.3156
  743MOL0     C97967   1.406   7.431   0.542 -0.8810  0.3536  0.4850
  743MOL0     O97968   1.307   7.536   0.525  0.1240 -0.5255  0.0468
  743MOL0     C97969   1.186   7.501   0.467 -0.6856  0.4609 -0.5625
  743MOL0     C97970   1.088   7.591   0.480  0.4083 -0.7104 -0.7229
  743MOL0     C97971   0.966   7.569   0.419  1.1200 -0.1058  0.0307
  743MOL0     C97972   0.932   7.455   0.334  0.6046 -1.0775 -0.0255
  743MOL0     C97973   0.787   7.442   0.284 -0.2127  0.6234  0.2579
  743MOL0     O97974   0.696   7.542   0.322 -1.0727  0.7728  0.0122
  743MOL0     C97975   0.560   7.530   0.320  0.9291  0.6536  0.4758
  743MOL0     C97976   0.489   7.424   0.383 -0.2654 -0.9717  0.0491
  743MOL0     C97977   0.350   7.431   0.393 -0.1424  0.1484  0.3711
  743MOL0     C97978   0.274   7.537   0.331 -0.0686  0.9190  0.5634
  743MOL0     O97979   0.145   7.523   0.346  0.0002  0.8127  0.4063
  743MOL0     C97980   0.070   7.636   0.346 -0.2419  0.7127  0.6322
  743MOL0     C97981  -0.064   7.603   0.280 -0.9110 -0.4923 -0.0395
  743MOL0     C97982  -0.161   7.729   0.283  0.4759  1.3465 -0.3587
  743MOL0     C97983  -0.292   7.714   0.200  0.7285 -0.4345  0.7572
  743MOL0     C97984  -0.367   7.570   0.209 -0.6604 -0.5439  0.6141
  743MOL0     C97985  -0.434   7.567   0.360 -0.0512  0.0836  0.9715
  743MOL0     C97986  -0.547   7.668   0.375  0.3960  0.3357  0.8383
  743MOL0     C97987  -0.636   7.630   0.501  0.9350 -0.2017 -0.0711
  743MOL0    Cl97988  -0.749   7.761   0.527 -0.4535  0.2768 -0.2855
  743MOL0     C97989   0.351   7.640   0.269 -0.3333  0.2223  0.0397
  743MOL0     C97990   0.491   7.635   0.264 -0.2060  0.0153 -0.2390
  743MOL0     O97991   0.751   7.344   0.217  0.6150  0.6298  0.0412
  743MOL0     C97992   1.033   7.360   0.327 -0.2533 -0.1353 -0.1211
  743MOL0     C97993   1.160   7.381   0.397  0.1375 -1.2251 -0.0704
  743MOL0     N97994   1.683   7.810   0.556 -1.2166 -0.5607  0.0648
  743MOL0     N97995   1.769   7.902   0.573 -0.8605 -0.0474  0.2368
  743MOL0     C97996   3.165   8.077   0.722  0.8302 -0.3047 -0.3081
  743MOL0     C97997   3.278   8.150   0.683 -0.3905 -0.2312  0.5479
  743MOL0     C97998   3.600   8.407   0.568  0.5082 -0.3598 -0.2799
  743MOL0     C97999   3.671   8.519   0.618  0.1286  0.9894  0.4754
  743MOL0     C98000   3.810   8.526   0.598  0.7754 -1.1852 -0.5370
  743MOL0     C98001   3.879   8.444   0.516  1.1142  0.0012  1.4705
  743MOL0     O98002   4.015   8.458   0.478  0.5501 -0.2390 -0.3021
  743MOL0     C98003   4.095   8.571   0.521 -0.1074  0.1847  0.4357
  743MOL0     C98004   4.243   8.558   0.459 -0.4692  0.3320  0.2526
  743MOL0     C98005   4.261   8.562   0.305 -0.4484 -0.2279  0.0459
  743MOL0     C98006   4.388   8.491   0.246  1.0104 -0.2789  0.0968
  743MOL0     C98007   4.518   8.517   0.311 -0.3139  0.0232  0.3953
  743MOL0     C98008   4.619   8.515   0.372 -0.4655 -1.3545  0.7010
  743MOL0     C98009   3.799   8.336   0.463  0.0775  0.2991 -0.1455
  743MOL0     C98010   3.664   8.312   0.493  0.1706  0.2004  0.4493
  743MOL0     H98011   3.186   8.228   0.367  0.1321  1.3077  0.7918
  743MOL0     H98012   2.976   8.107   0.445 -2.0647  1.3956  1.6335
  743MOL0     H98013   2.802   7.981   0.520 -3.5992  0.7898 -0.3538
  743MOL0     H98014   2.807   8.137   0.609  1.0424 -0.0448 -0.0157
  743MOL0     H98015   2.684   8.034   0.803 -0.6004  3.2198 -1.8975
  743MOL0     H98016   2.695   7.874   0.722 -1.2774  0.9275  2.8725
  743MOL0     H98017   2.553   8.037   0.541 -0.4011 -0.7516 -0.2160
  743MOL0     H98018   2.520   8.117   0.686  0.5970  0.4606 -0.6659
  743MOL0     H98019   2.500   7.822   0.658  1.1926 -0.5153  2.0685
  743MOL0     H98020   2.430   7.921   0.794 -0.0665 -1.3128  0.6335
  743MOL0     H98021   2.298   7.819   0.611 -1.2851  0.2452 -2.7118
  743MOL0     H98022   2.330   7.954   0.510 -1.7832 -0.2144  0.0925
  743MOL0     H98023   2.209   8.118   0.653 -2.0628  1.4564  3.1876
  743MOL0     H98024   2.243   8.026   0.797 -2.8513  0.5634  0.3556
  743MOL0     H98025   2.066   7.860   0.757  0.8377  2.0354  3.7030
  743MOL0     H98026   2.002   8.016   0.734 -0.8578 -0.0088 -0.4926
  743MOL0     H98027   2.101   7.878   0.484 -1.1101 -1.3555 -0.2413
  743MOL0     H98028   2.011   8.027   0.498  0.7363 -0.1029 -1.5872
  743MOL0     H98029   1.953   7.647   0.509 -0.1018 -1.0783  2.9218
  743MOL0     H98030   1.643   7.534   0.613  2.0011 -1.7898  0.5189
  743MOL0     H98031   1.752   7.486   0.482 -1.4727 -1.1468  1.9358
  743MOL0     H98032   1.617   7.573   0.305  2.5465  1.1078  0.8613
  743MOL0     H98033   1.516   7.658   0.424  2.3749  1.5984  1.8329
  743MOL0     H98034   1.432   7.434   0.332  2.3028 -0.8364 -2.1071
  743MOL0     H98035   1.542   7.341   0.417 -0.6469 -1.2182  2.7427
  743MOL0     H98036   1.445   7.448   0.643 -0.9040 -3.8016  1.3417
  743MOL0     H98037   1.362   7.332   0.551 -1.2720  0.3792 -0.9738
  743MOL0     H98038   1.105   7.685   0.531  0.2227 -1.6014  1.0788
  743MOL0     H98039   0.896   7.650   0.435 -1.0414 -1.9558  0.4710
  743MOL0     H98040   0.540   7.337   0.422  2.2490 -1.7177 -4.2421
  743MOL0     H98041   0.305   7.343   0.437 -0.5503  1.1843  2.1056
  743MOL0     H98042   0.105   7.719   0.285  0.4966  0.3815  0.5985
  743MOL0     H98043   0.064   7.656   0.453 -1.8766 -2.0498  1.1626
  743MOL0     H98044  -0.107   7.523   0.341  0.4000 -1.3456 -0.2144
  743MOL0     H98045  -0.047   7.569   0.177  2.3904 -2.2792  0.9520
  743MOL0     H98046  -0.104   7.816   0.250  0.6782  1.8793  1.3217
  743MOL0     H98047  -0.185   7.748   0.388  3.1499  0.4962  0.4838
  743MOL0     H98048  -0.363   7.795   0.219 -0.9832 -1.8464  0.6106
  743MOL0     H98049  -0.256   7.725   0.097  1.4664  1.6382  1.1783
  743MOL0     H98050  -0.304   7.484   0.185 -1.2256 -1.0414  0.8816
  743MOL0     H98051  -0.452   7.575   0.140 -2.3493  2.2952  2.6258
  743MOL0     H98052  -0.364   7.601   0.438  0.6140  0.8597  0.0619
  743MOL0     H98053  -0.460   7.465   0.387  1.7276 -0.6841 -0.0512
  743MOL0     H98054  -0.506   7.768   0.386  0.1611  0.2195  3.1364
  743MOL0     H98055  -0.610   7.671   0.285  1.1968  1.0187  0.2882
  743MOL0     H98056  -0.571   7.625   0.590 -1.9742  0.3748  2.2426
  743MOL0     H98057  -0.695   7.541   0.478  1.3333  0.5958 -5.4272
  743MOL0     H98058   0.307   7.721   0.211 -1.6027  0.0573  0.7333
  743MOL0     H98059   0.552   7.710   0.216  0.3173  1.1125  1.9899
  743MOL0     H98060   1.017   7.260   0.288 -0.4680 -0.1963  0.1199
  743MOL0     H98061   1.228   7.297   0.396  1.4023 -0.2398  0.1745
  743MOL0     H98062   3.176   8.016   0.810  1.3773  1.2244  0.7235
  743MOL0     H98063   3.359   8.142   0.756  0.4304  1.2673 -0.1508
  743MOL0     H98064   3.618   8.583   0.688 -0.8712  0.6169  0.0802
  743MOL0     H98065   3.862   8.606   0.650 -1.1916 -0.2687  0.1255
  743MOL0     H98066   4.095   8.571   0.630  1.9296 -1.4638  0.5011
  743MOL0     H98067   4.051   8.667   0.492  0.0431  0.0284 -0.3500
  743MOL0     H98068   4.303   8.637   0.506 -0.8931 -0.9808  3.2289
  743MOL0     H98069   4.286   8.466   0.499  2.3567  0.3183 -2.4450
  743MOL0     H98070   4.275   8.666   0.273 -0.2248 -0.4733 -0.6779
  743MOL0     H98071   4.165   8.522   0.270 -0.7510 -3.8775  4.2069
  743MOL0     H98072   4.378   8.382   0.259  3.3725 -0.9060 -2.5823
  743MOL0     H98073   4.393   8.501   0.138 -3.6632 -0.0439 -0.3175
  743MOL0     H98074   4.707   8.518   0.434 -0.4711 -2.4901  0.7868
  743MOL0     H98075   3.870   8.273   0.410 -0.2931 -1.0557  0.9260
  743MOL0     H98076   3.606   8.231   0.450  1.4448 -2.0284  2.6761
  744MOL0     O98077   8.450  10.296   1.060 -0.0085  0.0970  0.0511
  744MOL0     C98078   8.547  10.237   1.109  0.2590 -0.1546  0.4100
  744MOL0     O98079   8.545  10.111   1.164 -0.3789  0.1589 -0.0084
  744MOL0     C98080   8.428  10.037   1.174 -0.1717 -0.0622  0.0707
  744MOL0     C98081   8.420   9.899   1.160  0.8181 -0.4123  0.5510
  744MOL0     C98082   8.300   9.825   1.160 -0.5339  0.5884  0.8375
  744MOL0     C98083   8.180   9.887   1.194  0.3152 -0.4358  0.0870
  744MOL0     O98084   8.071   9.811   1.192  0.2198 -0.2329 -1.0360
  744MOL0     C98085   7.946   9.868   1.168 -0.6263 -0.6977 -0.6508
  744MOL0     C98086   7.849   9.757   1.132 -0.5014 -0.5337  0.6683
  744MOL0     C98087   7.707   9.800   1.109  1.0548  0.6525  1.4414
  744MOL0     C98088   7.615   9.688   1.085  0.4197  0.5935 -0.2154
  744MOL0     C98089   7.652   9.605   0.963 -0.1340  0.1038  1.1014
  744MOL0     C98090   7.537   9.520   0.915  0.6008  0.1651  0.0697
  744MOL0     C98091   7.522   9.391   1.000 -0.0906  0.0279 -0.6243
  744MOL0     C98092   7.397   9.305   0.963 -0.5575 -0.3883 -0.0254
  744MOL0     N98093   7.268   9.373   0.970  0.0614  0.1562 -0.0883
  744MOL0     C98094   7.221   9.432   1.083 -0.6098 -0.1313 -0.0593
  744MOL0     C98095   7.129   9.525   1.049 -0.0884  0.9107  0.4336
  744MOL0     C98096   7.054   9.609   1.140  0.0423 -0.2573 -0.8029
  744MOL0     C98097   6.948   9.538   1.231  0.2730  1.1363 -0.0027
  744MOL0     C98098   6.853   9.636   1.313 -0.3331 -0.3160  0.0799
  744MOL0     C98099   6.767   9.561   1.413  0.4807  0.0771  0.4998
  744MOL0     O98100   6.676   9.660   1.470 -0.5497  1.0373  0.0246
  744MOL0     C98101   6.560   9.693   1.404  0.4802 -0.3634 -0.1360
  744MOL0     C98102   6.518   9.644   1.279 -0.1010  0.3809 -0.3036
  744MOL0     C98103   6.392   9.675   1.227 -0.7708  0.2910  0.2239
  744MOL0     C98104   6.306   9.755   1.302  0.7149 -0.6521 -0.3142
  744MOL0     C98105   6.169   9.762   1.256 -1.0435 -0.2879 -0.7521
  744MOL0     O98106   6.095   9.863   1.310 -0.7623  0.4441  0.0585
  744MOL0     C98107   5.951   9.861   1.301 -0.4021 -0.9860  0.0828
  744MOL0     C98108   5.883   9.828   1.185 -0.1883 -0.5903 -0.3651
  744MOL0     C98109   5.743   9.826   1.181  0.1735  0.1164  0.3437
  744MOL0     C98110   5.664   9.838   1.293  0.1540 -0.4823 -0.6973
  744MOL0     O98111   5.528   9.819   1.283 -0.4640 -0.3041 -0.0989
  744MOL0     C98112   5.456   9.820   1.162 -0.0581  0.2411 -0.2017
  744MOL0     C98113   5.307   9.840   1.196 -0.6553 -0.6928 -0.0960
  744MOL0     C98114   5.224   9.805   1.080 -0.2214 -0.8339 -0.1137
  744MOL0     C98115   5.080   9.854   1.101 -0.6738  0.0161 -0.6154
  744MOL0     C98116   4.991   9.780   0.998 -0.1297  0.1969 -0.5719
  744MOL0     C98117   4.838   9.806   1.014 -0.6461  0.2288 -0.6830
  744MOL0     C98118   4.748   9.756   0.906  0.7667 -0.7143 -0.5095
  744MOL0     C98119   4.609   9.805   0.932  0.7254 -0.0447 -0.7218
  744MOL0    Cl98120   4.506   9.720   0.813 -0.0638 -0.1746  0.2208
  744MOL0     C98121   5.731   9.854   1.420 -0.2238  1.1536 -0.0061
  744MOL0     C98122   5.875   9.877   1.420 -0.8587  1.0139  0.1166
  744MOL0     O98123   6.137   9.676   1.176 -0.2014 -0.5536  0.2445
  744MOL0     C98124   6.348   9.814   1.425  0.4185  0.8099 -0.0527
  744MOL0     C98125   6.469   9.769   1.480  0.5179 -0.0873  0.4902
  744MOL0     N98126   7.110   9.501   0.912 -0.0217 -0.3429 -0.2918
  744MOL0     N98127   7.197   9.416   0.864 -0.1895  0.8395  0.4643
  744MOL0     C98128   8.191  10.024   1.237 -0.4535  0.0564 -0.1689
  744MOL0     C98129   8.310  10.103   1.225  0.5320 -0.1903 -0.1380
  744MOL0     C98130   8.676  10.316   1.102  0.6342 -0.9568 -0.0430
  744MOL0     C98131   8.675  10.450   1.047 -0.5445 -0.4067  0.0205
  744MOL0     C98132   8.791  10.523   1.052  0.3787  0.2753  0.6544
  744MOL0     C98133   8.908  10.461   1.087  0.5349 -0.4174  0.6987
  744MOL0     O98134   9.025  10.529   1.070  0.0569 -0.6417 -0.4386
  744MOL0     C98135   9.151  10.461   1.055 -0.3549 -0.2404  0.3118
  744MOL0     C98136   9.248  10.565   1.015  0.3859 -0.2659 -0.1727
  744MOL0     C98137   9.384  10.508   0.973 -1.2113 -0.3509 -0.1813
  744MOL0     C98138   9.455  10.610   0.880 -0.1990 -0.9929 -0.1569
  744MOL0     C98139   9.588  10.573   0.835 -0.5531  0.0878 -0.4344
  744MOL0     C98140   9.704  10.528   0.804  0.1224 -0.3241  0.9759
  744MOL0     C98141   8.909  10.330   1.141  0.8728 -1.0131 -0.4799
  744MOL0     C98142   8.792  10.259   1.160 -0.0937 -0.7852  0.2955
  744MOL0     H98143   8.512   9.843   1.146 -0.1245 -2.1689  1.0736
  744MOL0     H98144   8.294   9.717   1.163  0.3315  0.4547 -0.9829
  744MOL0     H98145   7.956   9.949   1.096  0.4574 -0.3005 -0.0827
  744MOL0     H98146   7.906   9.904   1.264  0.1558  1.5858 -1.1288
  744MOL0     H98147   7.848   9.675   1.205 -0.4116 -0.8277  0.3429
  744MOL0     H98148   7.881   9.709   1.039  0.6264 -1.0802  1.3092
  744MOL0     H98149   7.696   9.863   1.020  0.7041  0.0739  1.0658
  744MOL0     H98150   7.674   9.863   1.192 -0.5278 -0.4980  1.7241
  744MOL0     H98151   7.620   9.612   1.164 -0.2381 -0.9493 -1.5951
  744MOL0     H98152   7.517   9.738   1.085 -0.1039 -0.3902  0.2920
  744MOL0     H98153   7.744   9.546   0.968  1.5867  2.7454  2.9314
  744MOL0     H98154   7.671   9.676   0.883 -0.8618 -0.1718  0.6657
  744MOL0     H98155   7.555   9.490   0.812 -1.6139  1.3843 -0.7587
  744MOL0     H98156   7.445   9.581   0.917  0.3429 -0.1923 -0.5425
  744MOL0     H98157   7.618   9.338   0.996  1.7072  2.2554  4.4218
  744MOL0     H98158   7.503   9.416   1.105  0.7799 -1.6878 -0.0088
  744MOL0     H98159   7.388   9.219   1.031  1.9734  0.0829  1.0036
  744MOL0     H98160   7.416   9.255   0.868  2.0711 -0.6076  0.5296
  744MOL0     H98161   7.236   9.404   1.187  0.5288 -0.0380 -0.1801
  744MOL0     H98162   7.004   9.685   1.080 -1.2833 -1.3559 -1.1324
  744MOL0     H98163   7.128   9.647   1.211 -0.9316 -5.4094  3.5415
  744MOL0     H98164   6.998   9.475   1.306 -0.6533 -1.1440 -1.1750
  744MOL0     H98165   6.881   9.477   1.169  1.2281 -0.0462  0.0913
  744MOL0     H98166   6.914   9.715   1.359 -2.5040  2.3499 -1.3057
  744MOL0     H98167   6.794   9.697   1.244  1.7254  1.0968 -0.5273
  744MOL0     H98168   6.816   9.492   1.483  1.9042 -1.9126 -2.2403
  744MOL0     H98169   6.698   9.501   1.354 -0.1505 -0.7668  2.0274
  744MOL0     H98170   6.580   9.577   1.221 -0.9230  0.0656 -0.8418
  744MOL0     H98171   6.356   9.635   1.133  0.3951 -1.0209  0.3105
  744MOL0     H98172   5.943   9.810   1.097  4.9988  3.2307  1.8361
  744MOL0     H98173   5.700   9.803   1.085  2.5883  0.3015 -0.8636
  744MOL0     H98174   5.466   9.726   1.106  1.1111  0.3214 -0.1476
  744MOL0     H98175   5.482   9.899   1.091 -1.7974  0.7252 -0.3466
  744MOL0     H98176   5.292   9.943   1.230 -0.8801 -0.3872 -1.0898
  744MOL0     H98177   5.283   9.788   1.289  2.5700 -1.3175  0.5086
  744MOL0     H98178   5.223   9.697   1.065 -1.9315 -1.0785  1.3687
  744MOL0     H98179   5.265   9.867   1.000  0.3819  1.3579  1.7862
  744MOL0     H98180   5.051   9.817   1.200 -1.4165  1.3060 -0.3387
  744MOL0     H98181   5.062   9.961   1.107  1.8297  0.4695 -0.5125
  744MOL0     H98182   5.021   9.674   1.000  2.7531  0.8933 -1.6753
  744MOL0     H98183   5.039   9.823   0.910  1.9733  1.5337  1.1346
  744MOL0     H98184   4.835   9.914   1.033 -1.6236 -0.0971  1.2914
  744MOL0     H98185   4.807   9.761   1.109  2.6857 -1.9245 -0.4547
  744MOL0     H98186   4.782   9.790   0.808 -0.9359 -0.4971 -1.0549
  744MOL0     H98187   4.733   9.648   0.897 -2.7368 -0.2797 -1.5654
  744MOL0     H98188   4.587   9.912   0.929 -2.2009 -0.5014  0.6041
  744MOL0     H98189   4.576   9.788   1.035  0.8533  0.4972 -0.5878
  744MOL0     H98190   5.670   9.860   1.510  0.3952  2.7390  0.3410
  744MOL0     H98191   5.935   9.899   1.507  0.4949 -1.0607 -0.2438
  744MOL0     H98192   6.282   9.883   1.476 -2.8064 -0.4862 -2.1650
  744MOL0     H98193   6.509   9.793   1.577  2.3986 -2.0134  0.2750
  744MOL0     H98194   8.096  10.058   1.276 -0.8148 -0.4495 -0.5945
  744MOL0     H98195   8.307  10.208   1.250  1.9801  0.0381 -0.8020
  744MOL0     H98196   8.582  10.496   1.015 -0.8061  0.5653  2.0427
  744MOL0     H98197   8.788  10.621   1.005 -1.2013 -0.1826 -0.3092
  744MOL0     H98198   9.127  10.385   0.980  0.2007 -1.8410  1.6904
  744MOL0     H98199   9.184  10.407   1.145  2.8591 -0.0553 -0.6457
  744MOL0     H98200   9.198  10.618   0.933 -2.3576  1.8819  2.6641
  744MOL0     H98201   9.263  10.624   1.106 -0.5358 -2.6399  1.6216
  744MOL0     H98202   9.396  10.405   0.937 -1.2275 -0.3127 -0.2969
  744MOL0     H98203   9.447  10.513   1.063  2.4579  0.0377 -2.5555
  744MOL0     H98204   9.399  10.616   0.786  1.0273 -0.2799 -0.8702
  744MOL0     H98205   9.457  10.708   0.930 -2.3710 -0.7985 -0.3439
  744MOL0     H98206   9.807  10.517   0.776 -0.1607 -0.9064  0.1438
  744MOL0     H98207   8.997  10.274   1.172  0.0724 -1.8617  0.3280
  744MOL0     H98208   8.801  10.161   1.205  1.1028 -0.2841  1.1959
  745MOL0     O98209   0.989  10.856   9.272 -0.4162 -0.0000 -0.3396
  745MOL0     C98210   1.048  10.962   9.279  1.0562 -0.6363 -0.1005
  745MOL0     O98211   1.023  11.053   9.377  0.1132  0.0822 -0.1272
  745MOL0     C98212   0.918  11.046   9.457  0.3730 -0.2812  0.0722
  745MOL0     C98213   0.790  10.985   9.426 -0.2043 -1.4470  0.4080
  745MOL0     C98214   0.695  10.984   9.528  1.2087  0.1321  0.8732
  745MOL0     C98215   0.718  11.038   9.655  0.0519 -0.7589  1.0794
  745MOL0     O98216   0.626  11.034   9.754 -1.1856  0.4292  0.0816
  745MOL0     C98217   0.487  11.031   9.718  0.3961 -0.9110 -0.3722
  745MOL0     C98218   0.411  11.039   9.850  0.0962  0.8096 -0.3599
  745MOL0     C98219   0.269  11.023   9.815 -0.1043 -0.1527 -0.5630
  745MOL0     C98220   0.181  11.027   9.947  0.0859 -0.3853 -0.4323
  745MOL0     C98221   0.034  11.010   9.920 -0.8098  0.7220  0.3655
  745MOL0     C98222  -0.047  10.976  10.043  0.0331 -0.2490  0.0086
  745MOL0     C98223  -0.188  10.934  10.005 -0.2327 -0.2929  0.6018
  745MOL0     C98224  -0.264  10.898  10.129  0.2434  0.3231  0.3392
  745MOL0     N98225  -0.399  10.877  10.100  0.4324  0.8294 -0.2094
  745MOL0     C98226  -0.508  10.963  10.103  0.2051 -0.1253 -1.2883
  745MOL0     C98227  -0.617  10.883  10.070 -0.1724 -0.4666 -0.4505
  745MOL0     C98228  -0.753  10.957  10.064  0.8844  0.0571 -0.6413
  745MOL0     C98229  -0.861  10.848  10.048 -0.5140  0.1977  0.7615
  745MOL0     C98230  -1.001  10.893  10.035 -0.2853 -0.0096  0.0380
  745MOL0     C98231  -1.104  10.778  10.017  0.4634  0.6653  0.2265
  745MOL0     O98232  -1.231  10.830   9.979  0.6331 -0.6287 -0.9160
  745MOL0     C98233  -1.349  10.753   9.998 -0.7000  0.5149 -1.3422
  745MOL0     C98234  -1.344  10.613  10.039  0.5232 -0.5484 -0.2381
  745MOL0     C98235  -1.468  10.550  10.063  0.1667  0.4839 -0.4343
  745MOL0     C98236  -1.588  10.615  10.034  0.5100 -0.3121  0.0917
  745MOL0     C98237  -1.718  10.546  10.021  0.6110 -0.1006 -0.9629
  745MOL0     O98238  -1.830  10.628  10.011 -0.2937  0.2442  0.3827
  745MOL0     C98239  -1.954  10.579   9.991  1.2405  0.3222 -0.6254
  745MOL0     C98240  -1.999  10.545   9.864 -0.5634 -0.5518 -0.0221
  745MOL0     C98241  -2.118  10.484   9.838  0.8044 -0.3842 -0.0014
  745MOL0     C98242  -2.207  10.466   9.946 -0.2847  0.8755  0.8111
  745MOL0     O98243  -2.337  10.416   9.910 -0.1417  0.7840 -0.6744
  745MOL0     C98244  -2.434  10.370  10.009 -0.7040 -0.4101  0.4685
  745MOL0     C98245  -2.482  10.225   9.971 -0.2860  0.7899  0.6836
  745MOL0     C98246  -2.597  10.174  10.046  0.0961  0.5428  0.1470
  745MOL0     C98247  -2.653  10.056   9.977  0.2817 -0.1365  0.0840
  745MOL0     C98248  -2.759   9.990  10.057 -0.5336  0.5317  0.7282
  745MOL0     C98249  -2.816   9.862   9.997 -0.3718 -0.3361 -0.6368
  745MOL0     C98250  -2.926   9.811  10.085  0.2525 -0.6573  0.5158
  745MOL0     C98251  -2.879   9.746  10.216 -0.2624  0.2548 -0.5989
  745MOL0    Cl98252  -3.022   9.649  10.284  0.1342  0.0813 -0.3611
  745MOL0     C98253  -2.167  10.517  10.073  0.1803 -0.3393  0.2109
  745MOL0     C98254  -2.043  10.562  10.089  0.0001  0.1455 -0.6201
  745MOL0     O98255  -1.722  10.421  10.042  0.4489 -0.2548  0.0716
  745MOL0     C98256  -1.591  10.748   9.994  0.0228  0.1924  0.1782
  745MOL0     C98257  -1.471  10.817   9.974  1.6862  0.6755  0.1345
  745MOL0     N98258  -0.578  10.759  10.038 -0.7550 -0.2969  0.2582
  745MOL0     N98259  -0.451  10.760  10.064  0.3307  0.3668 -0.4358
  745MOL0     C98260   0.845  11.102   9.678  0.6047  0.2612  0.0608
  745MOL0     C98261   0.940  11.094   9.582  0.0761  0.0711 -0.1696
  745MOL0     C98262   1.167  10.989   9.193  0.1661  0.9436 -0.5091
  745MOL0     C98263   1.244  11.092   9.224  0.0886  0.4600 -0.9083
  745MOL0     C98264   1.363  11.119   9.151  0.3147 -0.5534  0.9157
  745MOL0     C98265   1.388  11.047   9.035  0.5412  0.7690 -1.1969
  745MOL0     O98266   1.497  11.091   8.967  0.2755 -0.2004  0.0358
  745MOL0     C98267   1.524  11.018   8.848  0.4772 -0.3856  0.2959
  745MOL0     C98268   1.661  11.074   8.785  0.9007 -0.4137  0.1943
  745MOL0     C98269   1.674  11.228   8.787  0.2702  0.3477 -0.1067
  745MOL0     C98270   1.818  11.261   8.764 -1.0521  0.7364 -0.1904
  745MOL0     C98271   1.834  11.404   8.738  0.1190 -0.0486 -0.6184
  745MOL0     C98272   1.852  11.527   8.733  0.4755  0.3704 -0.3946
  745MOL0     C98273   1.300  10.941   9.000  0.2242 -0.2346  0.5630
  745MOL0     C98274   1.193  10.914   9.078 -0.4154  0.4408 -0.3596
  745MOL0     H98275   0.761  10.936   9.333  0.0935 -0.0113 -0.4775
  745MOL0     H98276   0.604  10.928   9.509  3.4461 -2.9269 -1.8969
  745MOL0     H98277   0.459  10.936   9.672  0.1308 -1.1705  0.3121
  745MOL0     H98278   0.465  11.114   9.651  0.7164  2.2747  3.1288
  745MOL0     H98279   0.428  11.138   9.894  1.2139  0.1410  0.8096
  745MOL0     H98280   0.443  10.959   9.918 -1.9896  0.1691 -0.0475
  745MOL0     H98281   0.264  10.930   9.759  4.9853  0.5837 -2.7944
  745MOL0     H98282   0.234  11.096   9.741  0.2351  1.5196  0.8479
  745MOL0     H98283   0.213  10.949  10.017 -0.8599 -1.0833 -0.7665
  745MOL0     H98284   0.196  11.123   9.997 -0.6648  0.7090 -2.2121
  745MOL0     H98285   0.035  10.922   9.855  0.6098 -0.0735  1.4067
  745MOL0     H98286  -0.005  11.102   9.876  2.0596  3.1116  2.4144
  745MOL0     H98287  -0.044  11.056  10.117  2.1971  0.4039 -0.6936
  745MOL0     H98288   0.001  10.894  10.096  1.2688  1.0472  0.9812
  745MOL0     H98289  -0.234  11.012   9.943 -0.9391 -2.3216 -1.6126
  745MOL0     H98290  -0.173  10.842   9.947 -0.5620  0.5431 -0.8607
  745MOL0     H98291  -0.245  10.969  10.211  2.3798 -0.0164  0.1937
  745MOL0     H98292  -0.212  10.809  10.167 -1.0613  0.6587  3.1729
  745MOL0     H98293  -0.498  11.070  10.119 -1.9018 -0.1917  1.1627
  745MOL0     H98294  -0.758  11.023   9.977  1.1597  1.7659  0.5868
  745MOL0     H98295  -0.768  11.021  10.152 -2.0089 -2.3408  0.8217
  745MOL0     H98296  -0.857  10.772  10.127  2.0776  0.5024  0.9874
  745MOL0     H98297  -0.844  10.798   9.952 -4.1370  2.3878 -1.2321
  745MOL0     H98298  -1.025  10.940  10.130 -0.5508 -0.5123  0.2236
  745MOL0     H98299  -1.001  10.965   9.953  2.6001  0.2696  0.1734
  745MOL0     H98300  -1.110  10.732  10.116 -1.6668  1.4883  0.5460
  745MOL0     H98301  -1.063  10.715   9.938  0.4009 -0.0803  0.7789
  745MOL0     H98302  -1.254  10.561  10.072  1.5057  1.4499  0.4499
  745MOL0     H98303  -1.464  10.443  10.080 -0.4010  0.1161 -2.3888
  745MOL0     H98304  -1.932  10.573   9.783 -1.8656 -1.1500 -1.3562
  745MOL0     H98305  -2.139  10.451   9.736  2.7625  0.4013 -0.6917
  745MOL0     H98306  -2.532  10.418   9.998 -0.7203 -1.0039 -3.4047
  745MOL0     H98307  -2.395  10.362  10.111  2.3133  0.9660 -0.4705
  745MOL0     H98308  -2.401  10.154   9.989 -0.5588  0.4321  0.5081
  745MOL0     H98309  -2.504  10.212   9.865 -1.6859 -0.6923  1.1104
  745MOL0     H98310  -2.668  10.257  10.049  0.2718  0.7567 -1.0542
  745MOL0     H98311  -2.561  10.145  10.145 -1.4216 -1.3972  0.1803
  745MOL0     H98312  -2.703  10.090   9.886 -1.3252  1.6166  1.5460
  745MOL0     H98313  -2.570   9.992   9.945 -0.0383 -0.4102 -0.2063
  745MOL0     H98314  -2.841  10.064  10.061 -1.4678 -0.2738 -1.8796
  745MOL0     H98315  -2.724   9.971  10.159  1.5135 -0.9883 -0.2066
  745MOL0     H98316  -2.735   9.788   9.994  0.5777  0.6228  0.3274
  745MOL0     H98317  -2.850   9.876   9.894  0.1149 -0.6596 -0.8454
  745MOL0     H98318  -3.005   9.883  10.108 -3.4219 -3.4718 -1.9001
  745MOL0     H98319  -2.974   9.731  10.026  0.2768 -0.7360  0.6035
  745MOL0     H98320  -2.841   9.822  10.285  0.6761 -0.4565 -0.3068
  745MOL0     H98321  -2.803   9.671  10.190 -0.7039 -0.1476 -0.7422
  745MOL0     H98322  -2.228  10.507  10.162  1.1908 -1.3687  0.8161
  745MOL0     H98323  -2.024  10.597  10.190 -1.1701  0.9335 -0.6470
  745MOL0     H98324  -1.684  10.800   9.977 -2.2960 -4.0864 -1.7352
  745MOL0     H98325  -1.479  10.920   9.939 -1.7114  0.5064  0.0820
  745MOL0     H98326   0.859  11.137   9.780 -1.3296 -3.1935  1.6922
  745MOL0     H98327   1.037  11.143   9.592  0.3475  0.2000 -2.8511
  745MOL0     H98328   1.208  11.159   9.302 -4.6875 -2.3859 -0.3037
  745MOL0     H98329   1.414  11.214   9.163  2.7306 -1.7355  0.7908
  745MOL0     H98330   1.435  11.027   8.786  1.6169  1.8807 -1.1285
  745MOL0     H98331   1.543  10.910   8.858 -0.7432 -0.4824  1.8397
  745MOL0     H98332   1.733  11.033   8.857  0.7103  0.7348  1.0643
  745MOL0     H98333   1.674  11.039   8.683  0.1351  3.2166 -1.2852
  745MOL0     H98334   1.635  11.266   8.882 -2.4474  1.6268 -1.6341
  745MOL0     H98335   1.609  11.263   8.707  1.5689  0.7035 -1.0367
  745MOL0     H98336   1.882  11.227   8.846  1.0838  0.6759 -1.8008
  745MOL0     H98337   1.863  11.192   8.691  1.2367  1.1744  0.7104
  745MOL0     H98338   1.885  11.626   8.708  1.3361 -0.0724 -1.0775
  745MOL0     H98339   1.326  10.866   8.926 -0.0511  0.7510 -0.5764
  745MOL0     H98340   1.117  10.841   9.054 -0.4034 -0.3610  1.8001
  746MOL0     O98341   5.853   5.692   8.610 -0.3919 -0.4405  0.5939
  746MOL0     C98342   5.910   5.727   8.509 -0.1436 -0.9240 -0.5403
  746MOL0     O98343   5.845   5.729   8.384 -0.6234  0.0185 -0.0318
  746MOL0     C98344   5.714   5.698   8.368  1.1973 -0.5446 -0.3121
  746MOL0     C98345   5.616   5.764   8.447 -0.9657 -0.1480  0.3887
  746MOL0     C98346   5.480   5.711   8.442 -0.1721 -0.2501  0.0034
  746MOL0     C98347   5.440   5.612   8.358  0.7965  0.0328  0.5653
  746MOL0     O98348   5.306   5.574   8.367 -1.2535 -0.2165 -0.1155
  746MOL0     C98349   5.272   5.456   8.293 -0.0116  0.0011  0.3007
  746MOL0     C98350   5.131   5.408   8.348  0.4028  0.2736  0.3605
  746MOL0     C98351   5.085   5.296   8.264  0.0481 -0.2929 -0.3377
  746MOL0     C98352   4.933   5.281   8.280  0.6154  0.3475 -0.0872
  746MOL0     C98353   4.887   5.139   8.229 -0.0021 -0.1717  0.2045
  746MOL0     C98354   4.731   5.121   8.264  0.7523 -0.0683  0.0916
  746MOL0     C98355   4.654   5.015   8.168  0.0333 -0.1072 -0.8569
  746MOL0     C98356   4.520   4.980   8.240  0.4815  0.0263  0.1579
  746MOL0     N98357   4.438   4.926   8.130 -1.0569  0.6936 -0.4996
  746MOL0     C98358   4.470   4.809   8.066  0.8248  0.1663 -0.0821
  746MOL0     C98359   4.383   4.807   7.963  0.4417 -0.6903 -0.8290
  746MOL0     C98360   4.395   4.701   7.854  0.4196 -0.8616  0.3619
  746MOL0     C98361   4.256   4.625   7.832 -0.6699  0.2694 -1.2984
  746MOL0     C98362   4.182   4.606   7.967 -0.1623  0.5677  0.1544
  746MOL0     C98363   4.056   4.514   7.933 -1.3931 -0.2439 -1.2958
  746MOL0     O98364   3.946   4.597   7.899 -0.3251 -0.4118  0.1785
  746MOL0     C98365   3.824   4.533   7.872  0.3382 -0.4150 -0.4122
  746MOL0     C98366   3.718   4.613   7.848  0.6815 -0.5622 -0.1787
  746MOL0     C98367   3.597   4.565   7.804 -0.1273  0.1796  0.1467
  746MOL0     C98368   3.568   4.431   7.813 -0.4983 -1.0447 -1.0583
  746MOL0     C98369   3.431   4.384   7.785 -0.1378  0.9377  0.1642
  746MOL0     O98370   3.327   4.479   7.775  0.5267 -0.7095 -0.2167
  746MOL0     C98371   3.196   4.438   7.745  0.0045 -0.6697 -0.7058
  746MOL0     C98372   3.130   4.518   7.659  0.7828 -0.5120  0.3467
  746MOL0     C98373   3.004   4.486   7.602 -0.1745 -0.3299 -0.5163
  746MOL0     C98374   2.939   4.372   7.656  0.7804  0.2660  0.4509
  746MOL0     O98375   2.814   4.328   7.612  0.9549  0.9226 -0.0966
  746MOL0     C98376   2.727   4.420   7.526 -0.1056 -0.1995 -0.1691
  746MOL0     C98377   2.581   4.365   7.494 -0.8870 -0.2816 -0.8387
  746MOL0     C98378   2.503   4.460   7.402 -0.3044  0.2088  0.3553
  746MOL0     C98379   2.369   4.397   7.370  0.2166 -0.3543  0.0282
  746MOL0     C98380   2.298   4.458   7.250 -0.0475  1.3230 -0.4923
  746MOL0     C98381   2.168   4.388   7.221  0.1711  0.7976 -0.3793
  746MOL0     C98382   2.060   4.482   7.228  0.6848  0.0063  0.3163
  746MOL0     C98383   1.920   4.411   7.231  0.6443  0.5446 -0.1229
  746MOL0    Cl98384   1.786   4.514   7.197 -0.1336  0.0812  0.1375
  746MOL0     C98385   3.006   4.294   7.746  0.0739  0.3731 -0.0869
  746MOL0     C98386   3.136   4.323   7.789  0.5782 -1.1435  0.6510
  746MOL0     O98387   3.415   4.263   7.757 -0.5028 -0.3056  0.1700
  746MOL0     C98388   3.670   4.347   7.855  0.1214 -0.4620 -0.2287
  746MOL0     C98389   3.807   4.393   7.878 -0.1108 -0.0231  0.6732
  746MOL0     N98390   4.297   4.917   7.963 -0.0775 -0.1695  0.1241
  746MOL0     N98391   4.352   4.995   8.055 -0.3523 -0.1724  0.6771
  746MOL0     C98392   5.535   5.559   8.272  1.0773 -1.2570  0.5797
  746MOL0     C98393   5.671   5.598   8.281  0.5829  0.9502  0.1173
  746MOL0     C98394   6.060   5.738   8.507 -0.7258 -0.1154 -0.3516
  746MOL0     C98395   6.133   5.753   8.391  0.3276 -0.6436 -0.7879
  746MOL0     C98396   6.269   5.777   8.392  0.2762  0.7545  0.5107
  746MOL0     C98397   6.342   5.779   8.509 -1.1757 -0.3057 -0.5689
  746MOL0     O98398   6.479   5.786   8.495 -1.1381 -0.2308  0.2317
  746MOL0     C98399   6.564   5.779   8.615 -0.6018 -0.2260  0.3151
  746MOL0     C98400   6.703   5.803   8.576 -0.4467  0.0176  0.5018
  746MOL0     C98401   6.767   5.678   8.515 -0.0833  0.0170  0.3040
  746MOL0     C98402   6.915   5.714   8.500 -0.2028  0.4678  0.7984
  746MOL0     C98403   6.988   5.584   8.480 -0.3029 -0.5564  0.1595
  746MOL0     C98404   7.049   5.489   8.463 -0.8676  0.2196 -0.5385
  746MOL0     C98405   6.269   5.771   8.631  0.2236 -0.2674  0.7974
  746MOL0     C98406   6.134   5.745   8.632  0.5712  0.1654  0.3688
  746MOL0     H98407   5.649   5.832   8.524  0.8042  0.3891 -0.7873
  746MOL0     H98408   5.403   5.756   8.503 -0.8781 -1.6290  0.1617
  746MOL0     H98409   5.352   5.381   8.298  0.2832  0.2783 -0.2290
  746MOL0     H98410   5.262   5.490   8.190 -1.3475  0.9984  0.7334
  746MOL0     H98411   5.062   5.492   8.360  1.2599  0.8813  1.0840
  746MOL0     H98412   5.127   5.363   8.448 -2.9215 -0.3823  0.0463
  746MOL0     H98413   5.144   5.206   8.284  1.1121  0.6506  0.9317
  746MOL0     H98414   5.102   5.313   8.157  1.5120 -4.4671 -0.9436
  746MOL0     H98415   4.902   5.293   8.385 -2.7740 -0.2007 -0.8910
  746MOL0     H98416   4.876   5.356   8.224 -0.2449  0.1924  0.5522
  746MOL0     H98417   4.956   5.067   8.272  2.4653  2.0928  0.3172
  746MOL0     H98418   4.892   5.137   8.119 -1.9764  0.1478  0.0690
  746MOL0     H98419   4.674   5.214   8.259  2.0660  0.7519  0.0671
  746MOL0     H98420   4.724   5.075   8.363 -0.6917 -0.3207 -0.1012
  746MOL0     H98421   4.632   5.053   8.068  0.2767  2.2695 -0.0831
  746MOL0     H98422   4.720   4.930   8.151  1.2792  1.3016 -3.6004
  746MOL0     H98423   4.476   5.072   8.279 -0.3009  0.0788 -0.7975
  746MOL0     H98424   4.531   4.908   8.321 -1.1736  2.2149  2.4727
  746MOL0     H98425   4.537   4.726   8.088 -1.8010 -2.1370 -0.1945
  746MOL0     H98426   4.484   4.638   7.860  0.3726 -0.9443  0.2128
  746MOL0     H98427   4.419   4.759   7.764  0.3560 -0.1823  0.7767
  746MOL0     H98428   4.288   4.532   7.784 -1.2359 -0.2401 -0.7026
  746MOL0     H98429   4.188   4.685   7.772 -1.7276  0.5503  0.1292
  746MOL0     H98430   4.246   4.568   8.046  2.0318 -1.1163 -2.2640
  746MOL0     H98431   4.139   4.698   8.009 -0.2251  2.4632 -3.6296
  746MOL0     H98432   4.026   4.459   8.022 -1.2487 -1.7044 -2.1207
  746MOL0     H98433   4.091   4.444   7.857  2.5162 -0.6625  0.6666
  746MOL0     H98434   3.739   4.719   7.847  1.8644 -0.7444 -2.8698
  746MOL0     H98435   3.522   4.636   7.773  1.1173  0.9112 -1.3300
  746MOL0     H98436   3.189   4.594   7.610  0.2939  0.2010  0.8356
  746MOL0     H98437   2.965   4.555   7.529  4.0708  1.7253 -1.1601
  746MOL0     H98438   2.772   4.457   7.433  0.3941 -1.3828 -0.4078
  746MOL0     H98439   2.710   4.511   7.585  0.1223 -0.0242 -0.3665
  746MOL0     H98440   2.533   4.355   7.592 -2.1448  0.8871 -1.3046
  746MOL0     H98441   2.595   4.274   7.436 -2.4833  1.0941 -3.6062
  746MOL0     H98442   2.554   4.460   7.305  0.0274 -0.3068  0.5238
  746MOL0     H98443   2.500   4.564   7.437  1.1297  0.1475  0.7331
  746MOL0     H98444   2.381   4.288   7.368 -1.3091 -0.6334  2.5581
  746MOL0     H98445   2.303   4.415   7.455  0.7787  1.5911  0.0966
  746MOL0     H98446   2.353   4.436   7.158  0.5079 -2.3047  0.5494
  746MOL0     H98447   2.285   4.566   7.267 -1.0216  1.1877 -0.2859
  746MOL0     H98448   2.157   4.313   7.300 -1.3639  2.2473  0.8582
  746MOL0     H98449   2.157   4.338   7.125 -1.4476 -3.1889  1.6488
  746MOL0     H98450   2.078   4.557   7.306  0.1064  0.1906  0.2747
  746MOL0     H98451   2.059   4.540   7.135  1.1204  0.8463  0.8206
  746MOL0     H98452   1.913   4.362   7.329  1.9735 -0.4322 -0.4908
  746MOL0     H98453   1.920   4.322   7.168 -2.6007  0.5137 -0.2261
  746MOL0     H98454   2.958   4.200   7.770  2.2991 -0.3972  1.7931
  746MOL0     H98455   3.178   4.250   7.857  1.3010 -1.1061  0.2609
  746MOL0     H98456   3.655   4.241   7.873  1.4687 -0.2244  3.0637
  746MOL0     H98457   3.885   4.318   7.888 -1.7253 -1.9619 -0.2964
  746MOL0     H98458   5.502   5.487   8.198 -1.6024  0.7871 -0.3597
  746MOL0     H98459   5.748   5.548   8.224 -0.6340  0.6122 -1.3084
  746MOL0     H98460   6.095   5.745   8.290  0.7425 -1.9285 -0.8636
  746MOL0     H98461   6.335   5.792   8.307 -0.7740  1.1588 -0.2625
  746MOL0     H98462   6.559   5.685   8.671 -0.4495  0.4220  1.4488
  746MOL0     H98463   6.534   5.866   8.675  0.8340  0.5925 -0.1169
  746MOL0     H98464   6.708   5.895   8.517 -0.0503  0.1995  0.8117
  746MOL0     H98465   6.761   5.827   8.666  1.3927  0.9792 -0.8726
  746MOL0     H98466   6.719   5.636   8.426 -2.0599 -0.8778  1.7193
  746MOL0     H98467   6.766   5.602   8.593  1.2666  1.8774  2.2340
  746MOL0     H98468   6.924   5.779   8.413  0.4023 -0.7088 -0.0443
  746MOL0     H98469   6.954   5.764   8.589 -2.2996  0.3584  1.8291
  746MOL0     H98470   7.097   5.399   8.431  0.0220 -0.1512  1.6651
  746MOL0     H98471   6.321   5.771   8.727  1.6600  0.8240  0.0438
  746MOL0     H98472   6.079   5.739   8.726 -0.5568 -1.1052 -0.3397
  747MOL0     O98473  10.190   3.389   9.656  0.1603  0.0179 -0.3272
  747MOL0     C98474  10.249   3.327   9.751 -0.1613  0.4676  0.7159
  747MOL0     O98475  10.207   3.326   9.877  0.6392  0.5632  0.3372
  747MOL0     C98476  10.096   3.395   9.913  0.4339 -0.1564 -0.2201
  747MOL0     C98477   9.972   3.352   9.863 -0.3154  0.1308 -0.0804
  747MOL0     C98478   9.860   3.426   9.897 -0.2776  0.8875 -0.2892
  747MOL0     C98479   9.866   3.543   9.966 -0.2237  0.1488 -0.6136
  747MOL0     O98480   9.754   3.623   9.967 -0.1164  0.0479  0.1790
  747MOL0     C98481   9.771   3.765   9.964  0.7537  1.2956  0.7085
  747MOL0     C98482   9.617   3.829   9.969  0.0473  0.5872 -1.0040
  747MOL0     C98483   9.538   3.787   9.842 -0.2639 -0.1763 -0.2992
  747MOL0     C98484   9.406   3.862   9.844 -0.6595  0.1675 -0.0208
  747MOL0     C98485   9.313   3.815   9.957 -0.2955  0.6275 -0.5067
  747MOL0     C98486   9.167   3.821   9.899  0.4041 -0.2024  0.0532
  747MOL0     C98487   9.067   3.789  10.013 -0.9209  0.0786  0.0156
  747MOL0     C98488   8.930   3.841   9.978 -0.4831  0.3884 -0.1038
  747MOL0     N98489   8.853   3.858  10.100 -0.4722 -0.0111  0.8737
  747MOL0     C98490   8.773   3.758  10.158  0.3500  0.6614  0.3810
  747MOL0     C98491   8.732   3.799  10.272 -0.4918  0.2042 -0.0602
  747MOL0     C98492   8.652   3.722  10.367 -0.1096  0.3646  0.0360
  747MOL0     C98493   8.681   3.573  10.372 -0.6223  0.1087  0.3464
  747MOL0     C98494   8.669   3.511  10.514  0.2316  0.7621  0.6077
  747MOL0     C98495   8.531   3.491  10.561  0.6766 -0.0905 -0.3367
  747MOL0     O98496   8.450   3.425  10.465  0.1301  0.8980  0.8263
  747MOL0     C98497   8.313   3.400  10.484 -0.0664  0.0533  0.2817
  747MOL0     C98498   8.209   3.395  10.390 -0.1633 -0.1687 -0.5628
  747MOL0     C98499   8.070   3.384  10.424  0.8292 -0.8568 -0.1518
  747MOL0     C98500   8.031   3.381  10.552  0.3294 -0.1177 -0.6900
  747MOL0     C98501   7.886   3.374  10.593 -0.0403 -0.2830 -0.3715
  747MOL0     O98502   7.800   3.417  10.497  0.2753  0.2612  0.2683
  747MOL0     C98503   7.663   3.416  10.507 -0.0595  0.2656 -0.0229
  747MOL0     C98504   7.590   3.490  10.414  0.5358  0.1431  0.0929
  747MOL0     C98505   7.445   3.478  10.415  0.0885  0.6292  0.8335
  747MOL0     C98506   7.382   3.389  10.494  0.2621  0.2755 -0.4199
  747MOL0     O98507   7.248   3.366  10.489  0.3787 -0.5112 -0.0016
  747MOL0     C98508   7.174   3.438  10.591 -0.2973 -0.7421  0.9381
  747MOL0     C98509   7.155   3.590  10.552 -0.8436 -0.0962  0.6245
  747MOL0     C98510   7.037   3.653  10.624 -1.3163  0.5998 -1.1090
  747MOL0     C98511   7.088   3.685  10.765 -0.0006 -0.6689  0.0166
  747MOL0     C98512   6.988   3.767  10.851 -0.9547  0.3025 -0.2299
  747MOL0     C98513   6.979   3.907  10.795  0.4372 -1.1372 -0.4815
  747MOL0     C98514   6.868   3.994  10.869 -0.3799 -0.8622 -0.5315
  747MOL0     C98515   6.732   3.996  10.801  0.5434  1.2639  0.3810
  747MOL0    Cl98516   6.641   3.853  10.833  0.0394 -0.0800 -0.3247
  747MOL0     C98517   7.456   3.305  10.576 -0.1568 -0.2379  0.0141
  747MOL0     C98518   7.593   3.322  10.582 -0.0412  0.2952  0.4112
  747MOL0     O98519   7.856   3.355  10.705  0.4057  0.3886 -1.0704
  747MOL0     C98520   8.139   3.379  10.651 -1.3575  0.5401  0.3974
  747MOL0     C98521   8.276   3.399  10.617  0.6102 -0.0211  0.0649
  747MOL0     N98522   8.766   3.935  10.284 -0.1488  0.6334 -0.0837
  747MOL0     N98523   8.834   3.968  10.175  0.2731  0.6214 -0.5222
  747MOL0     C98524   9.991   3.595  10.013  0.7781  1.1246 -0.7150
  747MOL0     C98525  10.102   3.514   9.991 -0.1166 -0.7201 -0.9588
  747MOL0     C98526  10.375   3.253   9.720  0.0146 -0.7357  1.3443
  747MOL0     C98527  10.430   3.261   9.587  0.7181  0.2156  0.2634
  747MOL0     C98528  10.562   3.220   9.569 -0.3346  0.0559 -0.3170
  747MOL0     C98529  10.634   3.152   9.666  1.0881  0.2307 -0.5536
  747MOL0     O98530  10.755   3.101   9.629 -0.1665  0.0680 -0.1432
  747MOL0     C98531  10.827   3.019   9.714 -0.5120  0.5559  0.4246
  747MOL0     C98532  10.941   2.951   9.642 -0.2740  0.3693 -0.1835
  747MOL0     C98533  11.070   2.951   9.731  0.1370 -0.1002 -0.0638
  747MOL0     C98534  11.202   2.911   9.658 -0.0847  0.1075  0.2698
  747MOL0     C98535  11.327   2.951   9.728  0.7866 -0.3242  1.2231
  747MOL0     C98536  11.416   3.003   9.786 -0.3690  0.0224  0.1559
  747MOL0     C98537  10.574   3.144   9.796  1.3942  0.3677 -0.4996
  747MOL0     C98538  10.449   3.197   9.822  0.5094  0.9119  0.3716
  747MOL0     H98539   9.972   3.256   9.812 -3.3753  0.9435 -1.8967
  747MOL0     H98540   9.768   3.394   9.850  0.1505 -0.5333 -0.2226
  747MOL0     H98541   9.810   3.785   9.864  2.1871  0.2126  1.0106
  747MOL0     H98542   9.831   3.814  10.041  0.3554 -0.0956  1.9559
  747MOL0     H98543   9.615   3.937   9.983 -0.5091  0.5939 -1.1278
  747MOL0     H98544   9.575   3.780  10.057 -0.2764  0.9057 -0.9788
  747MOL0     H98545   9.530   3.678   9.837 -1.1740 -0.0731 -1.2269
  747MOL0     H98546   9.596   3.825   9.757  2.6247  0.6744  1.8852
  747MOL0     H98547   9.418   3.970   9.853 -1.1385  0.1536  0.8147
  747MOL0     H98548   9.357   3.848   9.747 -0.9345 -0.9318  0.2621
  747MOL0     H98549   9.331   3.875  10.047  1.5902 -0.8791  0.2096
  747MOL0     H98550   9.340   3.715   9.992  0.4268  0.6761 -0.9219
  747MOL0     H98551   9.140   3.760   9.812 -0.7450 -0.7897  0.7848
  747MOL0     H98552   9.149   3.921   9.859 -0.6468 -1.0735 -1.7976
  747MOL0     H98553   9.075   3.682  10.036 -1.1769  0.3107  1.2222
  747MOL0     H98554   9.106   3.835  10.104  3.5266  1.1566 -2.1530
  747MOL0     H98555   8.876   3.777   9.908 -1.8923  1.9245 -0.4796
  747MOL0     H98556   8.939   3.938   9.929  0.7616 -0.4470 -1.6399
  747MOL0     H98557   8.750   3.662  10.111 -0.8048  0.4342  1.3850
  747MOL0     H98558   8.546   3.728  10.338 -0.1016 -2.4276 -0.8873
  747MOL0     H98559   8.652   3.771  10.465 -1.2546  1.3626 -0.4345
  747MOL0     H98560   8.790   3.576  10.366 -0.5728 -2.0118 -0.4948
  747MOL0     H98561   8.628   3.514  10.296  0.8681 -0.2845 -0.4282
  747MOL0     H98562   8.709   3.409  10.509 -1.2309  0.0770  2.1152
  747MOL0     H98563   8.739   3.566  10.577  3.1667 -1.6142 -0.3108
  747MOL0     H98564   8.487   3.590  10.582 -2.0584 -1.1168 -0.8199
  747MOL0     H98565   8.540   3.433  10.653  0.5528  1.2659  0.5604
  747MOL0     H98566   8.240   3.386  10.286 -1.4214 -0.6648 -0.9147
  747MOL0     H98567   7.995   3.387  10.346  0.8847 -3.4956 -0.3941
  747MOL0     H98568   7.643   3.560  10.350  1.1815  0.5712  1.0634
  747MOL0     H98569   7.379   3.538  10.353 -2.2575  0.9605  3.4543
  747MOL0     H98570   7.218   3.422  10.690  0.7839  4.7935  1.6680
  747MOL0     H98571   7.071   3.402  10.597 -0.7726  0.4091  0.0175
  747MOL0     H98572   7.138   3.595  10.444  0.1096 -1.7542  0.3656
  747MOL0     H98573   7.250   3.637  10.580 -0.1065 -1.7949  1.1073
  747MOL0     H98574   6.951   3.586  10.621 -0.4910 -0.6433  1.1319
  747MOL0     H98575   7.013   3.748  10.573 -0.8917  0.5618 -1.3851
  747MOL0     H98576   7.119   3.593  10.815  1.5873 -0.8461 -1.2074
  747MOL0     H98577   7.183   3.741  10.765 -0.1476 -0.4088 -0.4543
  747MOL0     H98578   7.028   3.769  10.953 -0.8838  1.3968 -0.2699
  747MOL0     H98579   6.893   3.712  10.852  0.8952 -3.2090 -1.4507
  747MOL0     H98580   6.976   3.909  10.686 -0.9109 -5.6821 -0.7408
  747MOL0     H98581   7.071   3.960  10.820  0.5252 -1.3297 -0.3922
  747MOL0     H98582   6.858   3.958  10.972 -0.4860  2.4141  0.7259
  747MOL0     H98583   6.913   4.093  10.879  0.7408 -1.5509  2.2871
  747MOL0     H98584   6.749   4.004  10.693 -2.6821  1.0350 -0.2568
  747MOL0     H98585   6.671   4.083  10.828 -0.0976  1.2080 -0.8241
  747MOL0     H98586   7.409   3.231  10.641  0.5945  0.6763  1.6686
  747MOL0     H98587   7.643   3.258  10.654 -0.2995  2.2487  2.4389
  747MOL0     H98588   8.118   3.366  10.756 -2.9044  0.5040  0.0996
  747MOL0     H98589   8.331   3.409  10.710 -2.1228  0.6951  1.7337
  747MOL0     H98590   9.991   3.685  10.074 -1.7651  1.8121 -1.6126
  747MOL0     H98591  10.192   3.557  10.031 -0.2954 -0.1563 -1.1548
  747MOL0     H98592  10.366   3.303   9.509  0.9517 -0.8455 -0.5189
  747MOL0     H98593  10.602   3.233   9.469 -1.2261 -4.2305 -1.4467
  747MOL0     H98594  10.765   2.940   9.758 -1.2241  1.2489  0.7032
  747MOL0     H98595  10.864   3.078   9.798 -0.7646  2.2352 -0.5926
  747MOL0     H98596  10.927   2.843   9.631  0.1163 -0.0691  2.7393
  747MOL0     H98597  10.957   3.004   9.548  0.7988 -1.1715 -0.9135
  747MOL0     H98598  11.058   2.878   9.811  1.7537 -2.1331 -1.5535
  747MOL0     H98599  11.085   3.048   9.778  1.9530  0.2574 -1.2744
  747MOL0     H98600  11.201   2.804   9.635  0.7332  0.0251  0.5925
  747MOL0     H98601  11.203   2.964   9.562 -3.0009  0.0992  0.1360
  747MOL0     H98602  11.494   3.061   9.831 -1.1993  0.6984  0.7900
  747MOL0     H98603  10.621   3.092   9.879  4.3919  2.4411 -0.7392
  747MOL0     H98604  10.400   3.201   9.919 -0.3564  3.0675 -0.1023
  748MOL0     O98605   4.084   0.528   9.363 -0.9933  0.3136  0.0471
  748MOL0     C98606   4.101   0.596   9.468  0.4180  0.4625 -0.1953
  748MOL0     O98607   4.007   0.689   9.523 -0.6400 -0.1005  0.6936
  748MOL0     C98608   3.877   0.695   9.470 -0.4266 -0.0943  0.6982
  748MOL0     C98609   3.807   0.818   9.500 -0.1076  0.5982  0.3930
  748MOL0     C98610   3.666   0.835   9.464 -0.4056 -0.1476  0.2273
  748MOL0     C98611   3.602   0.738   9.402 -0.1236  0.5230  0.5503
  748MOL0     O98612   3.474   0.766   9.366  0.9769  0.1802 -0.1226
  748MOL0     C98613   3.388   0.659   9.316 -0.6031  0.3929  0.0294
  748MOL0     C98614   3.240   0.698   9.331 -0.8038 -0.2970 -0.2018
  748MOL0     C98615   3.207   0.819   9.250  0.0174  0.6922 -0.6034
  748MOL0     C98616   3.068   0.868   9.276 -0.0233  0.7314 -0.0452
  748MOL0     C98617   3.042   0.989   9.189  0.2161  0.7828 -0.0166
  748MOL0     C98618   2.885   0.996   9.175 -0.2406  0.7131 -0.3038
  748MOL0     C98619   2.846   1.135   9.114 -0.2371 -0.9489  0.5401
  748MOL0     C98620   2.846   1.243   9.216  0.0307 -0.0093  0.5047
  748MOL0     N98621   2.714   1.259   9.279 -0.2739 -0.1104 -0.6413
  748MOL0     C98622   2.602   1.321   9.220  0.2064 -0.2842 -0.2344
  748MOL0     C98623   2.501   1.313   9.311 -1.1410 -0.1935  0.9698
  748MOL0     C98624   2.366   1.383   9.291 -1.3679 -0.1013  0.6984
  748MOL0     C98625   2.250   1.317   9.355  0.0872  0.3768  0.8722
  748MOL0     C98626   2.125   1.406   9.331  0.1106 -0.4625 -0.8008
  748MOL0     C98627   1.987   1.328   9.309  0.4102 -0.7090  0.1546
  748MOL0     O98628   1.945   1.285   9.442 -0.6127  0.5152 -0.4571
  748MOL0     C98629   1.814   1.246   9.452 -0.2456  0.1194  1.1114
  748MOL0     C98630   1.712   1.251   9.357 -0.2474  0.4230 -0.5871
  748MOL0     C98631   1.582   1.202   9.378 -0.3653  0.3007 -0.1980
  748MOL0     C98632   1.553   1.119   9.493  0.8139 -1.2018  0.2099
  748MOL0     C98633   1.420   1.057   9.516  0.2623 -0.3281  0.7332
  748MOL0     O98634   1.328   1.069   9.409 -0.9476  0.4593  0.5461
  748MOL0     C98635   1.193   1.067   9.438  0.4945 -0.3861  0.1088
  748MOL0     C98636   1.129   1.105   9.559 -0.1174  0.8558  0.3523
  748MOL0     C98637   0.998   1.100   9.580  0.8362  0.1566  0.4512
  748MOL0     C98638   0.913   1.058   9.479  0.0007 -0.4421 -0.4989
  748MOL0     O98639   0.780   1.053   9.491 -0.1447 -0.0073  0.0246
  748MOL0     C98640   0.730   0.975   9.599 -0.2126 -0.0247  0.6107
  748MOL0     C98641   0.584   0.943   9.575  0.1005 -0.6563  0.3010
  748MOL0     C98642   0.529   0.833   9.661  0.2861 -0.0679 -0.0759
  748MOL0     C98643   0.386   0.825   9.633 -0.5904  0.4369 -0.2269
  748MOL0     C98644   0.312   0.942   9.695 -0.2001  0.3516  0.0851
  748MOL0     C98645   0.160   0.909   9.709  0.1902 -1.0795 -0.0620
  748MOL0     C98646   0.081   0.919   9.580 -0.1166  0.6118  0.1328
  748MOL0     C98647   0.098   1.053   9.504 -0.1979 -0.7876 -0.1165
  748MOL0    Cl98648   0.047   1.192   9.608  0.7704  0.0516  0.1785
  748MOL0     C98649   0.969   1.022   9.357  0.7725 -0.0089  0.6058
  748MOL0     C98650   1.107   1.030   9.336 -0.7487  0.5360  0.5168
  748MOL0     O98651   1.397   1.002   9.620  0.5916 -0.0514  0.6008
  748MOL0     C98652   1.659   1.110   9.585 -0.1658  0.5589 -0.1265
  748MOL0     C98653   1.788   1.180   9.571 -0.3287 -0.7931  0.3354
  748MOL0     N98654   2.548   1.243   9.421 -0.4542  0.1959  0.5368
  748MOL0     N98655   2.680   1.220   9.402 -0.0443  0.9597 -0.5122
  748MOL0     C98656   3.672   0.626   9.363  0.2120 -1.2706  0.0448
  748MOL0     C98657   3.803   0.597   9.400  0.5984 -0.5214 -0.2707
  748MOL0     C98658   4.216   0.588   9.550  0.1869 -0.0466  0.0024
  748MOL0     C98659   4.247   0.691   9.643 -0.2644  0.4029  0.9126
  748MOL0     C98660   4.368   0.666   9.725  1.0111  0.6926 -0.1267
  748MOL0     C98661   4.462   0.560   9.698  0.8134 -0.2954 -0.4340
  748MOL0     O98662   4.568   0.549   9.772 -0.2810  0.0621 -0.2072
  748MOL0     C98663   4.562   0.439   9.853  0.1768 -0.2662 -0.0028
  748MOL0     C98664   4.714   0.410   9.884  0.6784  0.3593 -0.3904
  748MOL0     C98665   4.784   0.370   9.763  0.4389  0.5798  0.9393
  748MOL0     C98666   4.931   0.336   9.795 -0.2050 -0.3070 -0.4370
  748MOL0     C98667   4.989   0.248   9.693 -0.1677  0.3299  0.9752
  748MOL0     C98668   5.016   0.172   9.603  0.2040 -0.5172  0.0415
  748MOL0     C98669   4.430   0.473   9.594  0.4906 -0.3468  1.0713
  748MOL0     C98670   4.307   0.481   9.530 -0.4114 -0.1067  0.6036
  748MOL0     H98671   3.847   0.907   9.546  0.7169 -0.8720  2.7063
  748MOL0     H98672   3.613   0.929   9.478 -0.0723  0.3412 -1.5000
  748MOL0     H98673   3.391   0.569   9.379  1.4762  1.1409  1.0893
  748MOL0     H98674   3.413   0.630   9.213 -0.3220  1.2479 -0.1514
  748MOL0     H98675   3.217   0.716   9.437  0.8575  0.1206  0.1110
  748MOL0     H98676   3.184   0.611   9.295  1.0571  0.0984 -4.7313
  748MOL0     H98677   3.236   0.802   9.146 -1.2842  3.1477 -1.4545
  748MOL0     H98678   3.280   0.893   9.284  1.9256 -1.4797  0.2676
  748MOL0     H98679   2.995   0.788   9.257  0.7674 -0.1524  0.5336
  748MOL0     H98680   3.051   0.895   9.381  1.7926  0.4706  0.3529
  748MOL0     H98681   3.076   0.971   9.086  0.8595  0.2104  0.2936
  748MOL0     H98682   3.080   1.082   9.232  0.6489  0.1949  0.8860
  748MOL0     H98683   2.820   0.965   9.258  0.5398  0.4765  0.2303
  748MOL0     H98684   2.864   0.921   9.099 -3.0348 -0.3003  1.3126
  748MOL0     H98685   2.911   1.162   9.030 -0.6039 -0.6154  0.3583
  748MOL0     H98686   2.745   1.132   9.072 -0.7837  1.1872  1.5657
  748MOL0     H98687   2.866   1.335   9.159  1.1249 -0.3104  0.3911
  748MOL0     H98688   2.915   1.211   9.294 -0.6830  0.5947  1.4129
  748MOL0     H98689   2.607   1.370   9.123  0.1912  0.6576  0.2345
  748MOL0     H98690   2.348   1.395   9.183 -4.0908 -1.4275  0.9288
  748MOL0     H98691   2.369   1.484   9.334 -2.2708  1.7396 -3.0607
  748MOL0     H98692   2.272   1.311   9.462 -0.2445  0.5851  0.9543
  748MOL0     H98693   2.244   1.217   9.311 -1.7298  0.3974  0.9996
  748MOL0     H98694   2.100   1.469   9.417  2.4075 -2.6116  1.6212
  748MOL0     H98695   2.151   1.480   9.256  1.1376  1.9147  1.7526
  748MOL0     H98696   1.996   1.241   9.244 -0.4100 -0.5267 -0.2236
  748MOL0     H98697   1.914   1.406   9.283  0.5134  0.3318  2.7059
  748MOL0     H98698   1.729   1.301   9.262 -1.3884  0.9102 -0.5542
  748MOL0     H98699   1.509   1.208   9.297 -1.5129 -0.0506  0.7818
  748MOL0     H98700   1.185   1.122   9.651  1.5243 -1.7114 -0.0809
  748MOL0     H98701   0.950   1.116   9.676 -1.2337 -0.2343 -0.4816
  748MOL0     H98702   0.734   1.039   9.688  0.5104  2.2465 -0.9547
  748MOL0     H98703   0.792   0.885   9.604 -0.0544 -0.1336 -1.9660
  748MOL0     H98704   0.571   0.923   9.468 -1.1560  1.8827 -0.0918
  748MOL0     H98705   0.535   1.040   9.583  0.2451 -0.5864  0.3389
  748MOL0     H98706   0.559   0.837   9.766  0.3136 -0.7628 -0.0506
  748MOL0     H98707   0.579   0.743   9.623 -0.9448 -0.9619  0.3464
  748MOL0     H98708   0.368   0.818   9.525  3.7390  2.3327 -1.3163
  748MOL0     H98709   0.353   0.732   9.680  0.7453  0.6965  1.3040
  748MOL0     H98710   0.333   1.038   9.647  0.2380  0.0857 -0.2597
  748MOL0     H98711   0.349   0.954   9.798 -0.1150  0.5852  0.0286
  748MOL0     H98712   0.103   0.958   9.788 -1.0378  0.8493 -2.0194
  748MOL0     H98713   0.150   0.806   9.743 -2.1674  0.0970  3.3153
  748MOL0     H98714   0.120   0.838   9.517 -0.0068 -0.4698  1.5374
  748MOL0     H98715  -0.024   0.902   9.606  0.3814  0.9046  2.5561
  748MOL0     H98716   0.027   1.046   9.421  0.8962 -2.7664 -0.9516
  748MOL0     H98717   0.195   1.076   9.458 -1.6186  0.4872 -2.6702
  748MOL0     H98718   0.903   0.991   9.277  2.1351 -2.7585  0.4171
  748MOL0     H98719   1.166   0.993   9.252 -1.5424  1.2624 -0.3886
  748MOL0     H98720   1.633   1.055   9.675 -1.6103 -0.4656 -1.1239
  748MOL0     H98721   1.865   1.177   9.647 -0.5459  0.9918  0.6812
  748MOL0     H98722   3.611   0.551   9.313  0.4880 -1.7213  0.3720
  748MOL0     H98723   3.843   0.498   9.377  0.0097 -1.2889  1.7764
  748MOL0     H98724   4.168   0.763   9.660 -1.0114 -0.5031  1.3471
  748MOL0     H98725   4.386   0.730   9.810 -2.0668 -1.9431  2.7841
  748MOL0     H98726   4.509   0.350   9.818 -1.2596  1.0097 -1.1929
  748MOL0     H98727   4.520   0.469   9.949 -2.6168 -1.9905 -0.5805
  748MOL0     H98728   4.765   0.499   9.921  0.8908  1.1961 -2.5291
  748MOL0     H98729   4.728   0.331   9.958 -0.2145 -0.5528 -1.1647
  748MOL0     H98730   4.772   0.438   9.678 -0.7949  0.0275  0.6510
  748MOL0     H98731   4.736   0.283   9.716 -0.1565  1.1974  0.3732
  748MOL0     H98732   4.994   0.425   9.810 -2.2725  0.9582  1.3215
  748MOL0     H98733   4.944   0.275   9.885  4.6055  0.7545 -0.1503
  748MOL0     H98734   5.026   0.108   9.518  1.3865 -2.5361  1.6105
  748MOL0     H98735   4.479   0.380   9.570 -1.4290 -1.0446 -0.4206
  748MOL0     H98736   4.292   0.407   9.452  2.3367  0.4973 -0.6163
  749MOL0     O98737   9.518   0.519  10.590 -0.4096  1.1560 -0.0166
  749MOL0     C98738   9.511   0.580  10.697 -0.3140 -0.0605 -0.0572
  749MOL0     O98739   9.399   0.616  10.753  0.1335 -0.1787 -0.2333
  749MOL0     C98740   9.283   0.552  10.719 -0.1531 -0.4528 -1.4431
  749MOL0     C98741   9.166   0.628  10.694 -0.1060 -1.1120 -0.4399
  749MOL0     C98742   9.039   0.573  10.662 -0.4067  0.9299 -0.7408
  749MOL0     C98743   9.018   0.432  10.652  0.3416  0.3302 -0.0495
  749MOL0     O98744   8.906   0.354  10.620  0.2426 -0.5281  0.0997
  749MOL0     C98745   8.787   0.422  10.577  0.0653  0.0973 -0.1664
  749MOL0     C98746   8.704   0.325  10.489 -0.0318 -0.1780  0.9025
  749MOL0     C98747   8.559   0.386  10.474  0.2985 -0.1803  0.3449
  749MOL0     C98748   8.464   0.351  10.593  0.1340  0.4438 -0.4543
  749MOL0     C98749   8.321   0.406  10.593 -0.2311 -0.7344  0.2033
  749MOL0     C98750   8.254   0.375  10.728 -0.5281  0.3662 -0.5712
  749MOL0     C98751   8.107   0.401  10.735 -0.1373  0.7011  0.0382
  749MOL0     C98752   8.020   0.280  10.691  0.6629 -0.1096 -0.8873
  749MOL0     N98753   8.003   0.167  10.792 -0.0147 -0.3683  0.0535
  749MOL0     C98754   7.925   0.174  10.912 -0.0377 -0.1004  0.9491
  749MOL0     C98755   7.925   0.052  10.961 -1.0712 -0.2456 -0.3139
  749MOL0     C98756   7.838   0.018  11.075 -0.4832  0.8436  0.6489
  749MOL0     C98757   7.842  -0.129  11.120 -0.1401  1.0305  0.3504
  749MOL0     C98758   7.753  -0.225  11.033 -0.3522  1.0737  0.3083
  749MOL0     C98759   7.738  -0.370  11.105 -0.7693 -0.0140  0.5557
  749MOL0     O98760   7.686  -0.476  11.004  0.4083 -0.2858  0.5852
  749MOL0     C98761   7.553  -0.463  10.991  0.0748  0.4988  0.7566
  749MOL0     C98762   7.472  -0.535  11.073 -0.5953  0.1096 -0.5067
  749MOL0     C98763   7.337  -0.533  11.059  0.1203 -0.2917  0.7880
  749MOL0     C98764   7.277  -0.442  10.961 -0.2400 -0.2551  0.1320
  749MOL0     C98765   7.126  -0.423  10.952 -0.4973 -0.2697  0.5305
  749MOL0     O98766   7.074  -0.359  10.843  0.6574 -0.3148  0.1175
  749MOL0     C98767   6.937  -0.347  10.815 -0.0102 -0.1523  0.0213
  749MOL0     C98768   6.834  -0.373  10.905  0.4708 -0.4562 -0.6257
  749MOL0     C98769   6.705  -0.330  10.878  1.5249 -0.6489 -0.1943
  749MOL0     C98770   6.665  -0.260  10.766 -0.8685  0.4638  0.2214
  749MOL0     O98771   6.539  -0.222  10.736 -0.2630  1.1283  0.1089
  749MOL0     C98772   6.425  -0.303  10.790 -0.0497  0.4053  0.0358
  749MOL0     C98773   6.297  -0.230  10.759  0.6672 -0.3945  0.1789
  749MOL0     C98774   6.180  -0.330  10.750 -0.3114 -0.4045  0.1282
  749MOL0     C98775   6.058  -0.248  10.718  0.1670  0.3799 -0.2879
  749MOL0     C98776   5.932  -0.332  10.691  0.8841 -0.3381  0.8426
  749MOL0     C98777   5.921  -0.401  10.555 -0.0238  0.3070 -0.3022
  749MOL0     C98778   5.808  -0.511  10.537 -0.3259 -0.6473 -0.1665
  749MOL0     C98779   5.677  -0.464  10.584 -0.2538 -0.1128 -0.5416
  749MOL0    Cl98780   5.637  -0.298  10.513  0.5700 -0.2623  0.1124
  749MOL0     C98781   6.767  -0.243  10.680 -0.5309 -0.1196 -0.7727
  749MOL0     C98782   6.900  -0.286  10.693  0.2485 -0.4741  0.2997
  749MOL0     O98783   7.060  -0.476  11.042  0.2766 -0.4254 -0.3423
  749MOL0     C98784   7.361  -0.357  10.891 -0.6497  1.1211 -0.0104
  749MOL0     C98785   7.493  -0.374  10.900 -0.2749  0.7953  0.2391
  749MOL0     N98786   8.017  -0.030  10.890  0.4366 -0.0363  0.3628
  749MOL0     N98787   8.058   0.046  10.792 -0.6258  0.7928 -0.2023
  749MOL0     C98788   9.140   0.361  10.678 -0.1326 -0.3922 -0.1921
  749MOL0     C98789   9.263   0.417  10.715  0.5675  0.3156  0.0396
  749MOL0     C98790   9.636   0.617  10.773 -0.1685 -0.1371  0.5261
  749MOL0     C98791   9.626   0.675  10.898 -1.1263  0.5782 -0.4682
  749MOL0     C98792   9.741   0.700  10.972 -1.1843  1.0471 -0.0095
  749MOL0     C98793   9.862   0.672  10.917 -0.1720 -0.9148  0.5044
  749MOL0     O98794   9.988   0.689  10.982  0.1216  0.3354  0.1181
  749MOL0     C98795  10.001   0.773  11.099  0.0021 -0.1410 -0.5691
  749MOL0     C98796  10.145   0.839  11.084  0.0802  0.1526 -0.7347
  749MOL0     C98797  10.272   0.758  11.105  0.9667 -0.3456  0.1030
  749MOL0     C98798  10.280   0.681  11.237  0.3404  0.1016 -0.0110
  749MOL0     C98799  10.418   0.632  11.246 -0.3518 -0.6314 -0.4472
  749MOL0     C98800  10.519   0.568  11.273 -0.5001  0.2508  0.1142
  749MOL0     C98801   9.877   0.625  10.787  0.0057 -0.5274 -0.1348
  749MOL0     C98802   9.764   0.589  10.715 -1.2382 -0.3068 -0.1610
  749MOL0     H98803   9.175   0.736  10.694 -0.6508 -1.0613 -0.7114
  749MOL0     H98804   8.950   0.633  10.648 -3.9895 -3.2933  1.4854
  749MOL0     H98805   8.824   0.512  10.526  1.5731 -0.5716 -0.2951
  749MOL0     H98806   8.739   0.452  10.670  2.8699 -2.1842  2.1959
  749MOL0     H98807   8.697   0.221  10.522 -0.3305 -0.4552  0.0171
  749MOL0     H98808   8.742   0.314  10.387  1.9081 -0.7370  1.6530
  749MOL0     H98809   8.515   0.354  10.379 -1.8891  1.1272  0.8536
  749MOL0     H98810   8.561   0.495  10.462 -3.2991 -0.1499 -1.0024
  749MOL0     H98811   8.455   0.242  10.592  1.5858  0.3086 -0.0244
  749MOL0     H98812   8.507   0.387  10.686  2.2237  0.8425 -1.5215
  749MOL0     H98813   8.271   0.366  10.505  1.2897  0.7884 -1.4421
  749MOL0     H98814   8.320   0.514  10.573 -2.7374 -0.5121  1.0904
  749MOL0     H98815   8.313   0.432  10.801 -1.7892  3.9293 -2.0956
  749MOL0     H98816   8.260   0.268  10.748  3.0208  0.3448 -1.1582
  749MOL0     H98817   8.072   0.436  10.832  0.9037  1.3375  0.2007
  749MOL0     H98818   8.091   0.490  10.673 -1.2709 -0.6755 -1.7507
  749MOL0     H98819   8.079   0.234  10.611  1.8068 -0.0800 -0.0859
  749MOL0     H98820   7.921   0.316  10.663  0.2135 -1.0384 -0.5635
  749MOL0     H98821   7.866   0.260  10.944 -0.0643  2.2831 -4.4054
  749MOL0     H98822   7.734   0.038  11.047 -1.0851 -2.4939  0.0429
  749MOL0     H98823   7.870   0.070  11.165  1.1601 -0.9476  1.1799
  749MOL0     H98824   7.799  -0.134  11.220  1.1456 -4.8323  0.9538
  749MOL0     H98825   7.947  -0.156  11.129 -0.2449 -1.6621 -3.7554
  749MOL0     H98826   7.651  -0.190  11.016  0.0384  1.0726 -2.4626
  749MOL0     H98827   7.799  -0.247  10.936 -0.5877 -0.0549  0.4340
  749MOL0     H98828   7.674  -0.355  11.192 -2.0957  0.6925 -0.5000
  749MOL0     H98829   7.839  -0.396  11.135  2.0921  3.0993 -4.8102
  749MOL0     H98830   7.536  -0.587  11.144  1.7260  0.6531 -2.1115
  749MOL0     H98831   7.272  -0.614  11.089 -0.1186 -0.4832 -0.2227
  749MOL0     H98832   6.849  -0.410  11.006  0.8680 -2.5951 -1.4165
  749MOL0     H98833   6.631  -0.353  10.954  0.1318 -0.2987 -1.4094
  749MOL0     H98834   6.419  -0.320  10.898 -1.4558 -0.2571 -0.1309
  749MOL0     H98835   6.430  -0.403  10.747  0.0306 -0.0483  1.0611
  749MOL0     H98836   6.308  -0.163  10.673  0.3221 -0.0510  0.4006
  749MOL0     H98837   6.298  -0.161  10.843  1.9426 -1.5930  1.2067
  749MOL0     H98838   6.171  -0.385  10.844  0.4867  1.4590  1.3586
  749MOL0     H98839   6.199  -0.399  10.667  0.4832  0.7317 -0.6745
  749MOL0     H98840   6.045  -0.191  10.811  0.7986 -0.5839  0.4157
  749MOL0     H98841   6.075  -0.177  10.637  1.4819  0.1032 -0.2730
  749MOL0     H98842   5.848  -0.266  10.714  1.3181  0.9276 -0.9665
  749MOL0     H98843   5.923  -0.410  10.767 -2.3417 -1.6778 -0.7316
  749MOL0     H98844   6.009  -0.465  10.540  0.8396  0.8108  2.1343
  749MOL0     H98845   5.921  -0.321  10.481 -3.5604  1.4550  0.7426
  749MOL0     H98846   5.820  -0.542  10.433  0.5090 -0.3857 -0.1581
  749MOL0     H98847   5.835  -0.596  10.599 -1.0905 -0.4325  0.4774
  749MOL0     H98848   5.664  -0.474  10.692 -0.6941 -3.4876 -0.7912
  749MOL0     H98849   5.603  -0.532  10.541  0.1293 -2.5577  2.3870
  749MOL0     H98850   6.742  -0.195  10.586 -0.6941  1.4249  0.0216
  749MOL0     H98851   6.982  -0.266  10.624  3.6035 -1.3718  3.6947
  749MOL0     H98852   7.315  -0.286  10.823  0.7448  0.0875 -2.1501
  749MOL0     H98853   7.556  -0.325  10.827  1.1359  0.6566  1.3084
  749MOL0     H98854   9.139   0.253  10.684  0.6758 -0.3291  1.4140
  749MOL0     H98855   9.344   0.345  10.721  1.8536  1.5205 -1.7328
  749MOL0     H98856   9.530   0.689  10.946 -0.2109  1.5348  1.1585
  749MOL0     H98857   9.727   0.726  11.076  0.6248  0.3340  0.4512
  749MOL0     H98858   9.996   0.723  11.197  2.5509 -0.9267 -0.7591
  749MOL0     H98859   9.927   0.853  11.096 -1.5258 -1.5385 -1.2850
  749MOL0     H98860  10.154   0.885  10.985  4.4451 -0.2581 -0.7043
  749MOL0     H98861  10.151   0.922  11.155  0.8914 -0.6130  0.1136
  749MOL0     H98862  10.361   0.820  11.085 -1.2215  3.2414  0.4915
  749MOL0     H98863  10.273   0.685  11.024  0.0380  2.4882 -2.7046
  749MOL0     H98864  10.254   0.739  11.326 -3.2190 -2.0333  0.5514
  749MOL0     H98865  10.200   0.607  11.236  0.6894 -0.3232  1.2730
  749MOL0     H98866  10.610   0.514  11.293 -0.7087  0.1023  0.6748
  749MOL0     H98867   9.973   0.590  10.750  0.0095 -1.4962  0.7328
  749MOL0     H98868   9.780   0.544  10.617  1.6575 -1.1183  0.5992
  750MOL0     O98869  10.857   3.610   5.552 -0.5494 -0.4658 -0.3095
  750MOL0     C98870  10.850   3.520   5.634  0.7198 -0.9537 -0.1510
  750MOL0     O98871  10.740   3.491   5.711 -0.3410 -0.0674 -0.1369
  750MOL0     C98872  10.620   3.564   5.694  0.3953  0.4317 -0.0496
  750MOL0     C98873  10.583   3.637   5.585  0.3977  0.0642 -0.9020
  750MOL0     C98874  10.462   3.695   5.578 -0.2388  0.3161 -0.0698
  750MOL0     C98875  10.375   3.692   5.692 -0.7203  0.8649 -0.3570
  750MOL0     O98876  10.254   3.753   5.706 -0.2297  0.7127  0.6606
  750MOL0     C98877  10.225   3.839   5.601 -0.4863 -0.4252 -0.9667
  750MOL0     C98878  10.105   3.937   5.636  0.6957  0.5626  0.4751
  750MOL0     C98879   9.970   3.866   5.652  0.0140  0.4956  0.8150
  750MOL0     C98880   9.963   3.790   5.789  0.5997 -0.2697  0.0756
  750MOL0     C98881   9.819   3.737   5.802 -0.2111 -0.9050 -0.4621
  750MOL0     C98882   9.822   3.667   5.932 -0.6995 -0.5309 -0.2836
  750MOL0     C98883   9.675   3.629   5.965  1.0598 -0.4964 -0.1856
  750MOL0     C98884   9.606   3.738   6.055 -1.1389  0.8153 -0.5020
  750MOL0     N98885   9.476   3.697   6.097  0.3174 -0.5523 -0.2609
  750MOL0     C98886   9.446   3.610   6.199  0.0274 -0.4726 -0.6039
  750MOL0     C98887   9.318   3.642   6.236 -0.1029  0.0100  0.6552
  750MOL0     C98888   9.220   3.562   6.311  0.3311 -0.3930  0.5159
  750MOL0     C98889   9.272   3.573   6.463 -0.5036  0.4118 -0.1659
  750MOL0     C98890   9.243   3.713   6.535 -0.3420 -0.1651 -0.8728
  750MOL0     C98891   9.319   3.734   6.664  0.2287  0.6216 -0.5552
  750MOL0     O98892   9.265   3.660   6.771  0.4674  0.5354  0.5171
  750MOL0     C98893   9.131   3.687   6.810  0.3046  0.1097 -0.9434
  750MOL0     C98894   9.065   3.806   6.791  0.7828  0.0584 -0.2122
  750MOL0     C98895   8.931   3.822   6.828 -0.3109  0.0754  0.1219
  750MOL0     C98896   8.868   3.726   6.915 -0.2923 -0.0774  0.1397
  750MOL0     C98897   8.731   3.744   6.976 -0.4309  0.9468  0.5466
  750MOL0     O98898   8.685   3.652   7.059  0.0607  0.9913  0.5305
  750MOL0     C98899   8.551   3.629   7.085 -0.3159 -0.5165  0.4472
  750MOL0     C98900   8.502   3.627   7.211  0.0501 -0.4612 -0.7840
  750MOL0     C98901   8.369   3.601   7.230  0.0802 -0.6282  0.5111
  750MOL0     C98902   8.281   3.572   7.125 -0.2722  0.2777  0.3106
  750MOL0     O98903   8.147   3.557   7.158 -0.4272  0.5964 -0.0042
  750MOL0     C98904   8.068   3.506   7.043 -0.2601  0.2344 -0.8376
  750MOL0     C98905   7.924   3.448   7.079  0.2238  0.4911  0.4419
  750MOL0     C98906   7.824   3.568   7.091  0.1346 -0.2904 -0.1295
  750MOL0     C98907   7.683   3.519   7.116 -0.8227 -0.7084  0.5200
  750MOL0     C98908   7.589   3.638   7.110 -0.0763 -0.0085 -0.4451
  750MOL0     C98909   7.451   3.587   7.147  0.8607 -0.0870 -0.5123
  750MOL0     C98910   7.340   3.690   7.118  0.2620 -0.3853 -0.3957
  750MOL0     C98911   7.199   3.632   7.111 -0.7821  0.5652  0.1568
  750MOL0    Cl98912   7.084   3.762   7.082 -0.6435  0.2502 -0.2431
  750MOL0     C98913   8.336   3.566   6.994  0.0329  0.1190 -0.3538
  750MOL0     C98914   8.474   3.584   6.981  0.7308  0.4531  0.0555
  750MOL0     O98915   8.674   3.848   6.935  0.1525  0.1776 -0.3184
  750MOL0     C98916   8.938   3.602   6.943  0.7468 -0.6725 -0.0834
  750MOL0     C98917   9.066   3.586   6.884 -1.0030 -0.5926 -0.9420
  750MOL0     N98918   9.268   3.744   6.164 -1.1603 -0.7299 -0.7240
  750MOL0     N98919   9.367   3.774   6.082  0.4805 -0.0409  0.3669
  750MOL0     C98920  10.413   3.623   5.805  0.2914 -0.4371  0.0598
  750MOL0     C98921  10.529   3.548   5.806 -0.2404  0.3313  0.2182
  750MOL0     C98922  10.973   3.443   5.662 -0.8137 -1.5181  0.3573
  750MOL0     C98923  10.986   3.359   5.773  0.4909  0.4501 -0.2375
  750MOL0     C98924  11.105   3.298   5.814 -0.0093 -1.0796 -0.0253
  750MOL0     C98925  11.222   3.318   5.736  0.3619 -0.2625 -0.3281
  750MOL0     O98926  11.330   3.265   5.795 -0.0189 -0.3109  0.5547
  750MOL0     C98927  11.455   3.276   5.724  0.1073 -0.1946  0.0085
  750MOL0     C98928  11.557   3.178   5.786 -0.4476  1.0107 -0.5363
  750MOL0     C98929  11.684   3.166   5.693  0.7582 -0.9779  0.1914
  750MOL0     C98930  11.773   3.053   5.732 -0.0475  0.8657 -1.1894
  750MOL0     C98931  11.907   3.055   5.661  0.4178 -1.0949 -0.0365
  750MOL0     C98932  12.020   3.055   5.615  0.4001  0.5806  0.0705
  750MOL0     C98933  11.219   3.402   5.622 -0.2841  0.2683  0.3522
  750MOL0     C98934  11.097   3.463   5.591 -0.3265  0.3794 -0.4196
  750MOL0     H98935  10.640   3.649   5.494 -0.9872  0.1637 -1.7947
  750MOL0     H98936  10.430   3.746   5.487  3.6480 -0.0983 -1.8819
  750MOL0     H98937  10.195   3.788   5.510 -2.5433 -0.5904 -0.2501
  750MOL0     H98938  10.301   3.915   5.582 -3.0780  1.8789 -2.8864
  750MOL0     H98939  10.099   4.015   5.559  1.5750  4.2053  3.7834
  750MOL0     H98940  10.131   3.986   5.730  5.0542  0.3577 -0.4047
  750MOL0     H98941   9.950   3.797   5.568 -0.6809 -1.7332  2.7050
  750MOL0     H98942   9.896   3.946   5.660 -1.7746 -1.0281  0.3912
  750MOL0     H98943  10.035   3.707   5.790  0.6031 -0.2916 -1.0901
  750MOL0     H98944   9.984   3.853   5.876 -0.8397 -1.0575  1.0259
  750MOL0     H98945   9.796   3.666   5.722  1.8059  0.5770 -2.4733
  750MOL0     H98946   9.749   3.821   5.790 -1.0321 -1.2753  1.4336
  750MOL0     H98947   9.854   3.728   6.017 -0.8681 -1.4833  0.4724
  750MOL0     H98948   9.881   3.575   5.927 -1.0151 -0.7417 -0.1712
  750MOL0     H98949   9.606   3.621   5.881 -0.4768  0.3025  0.9537
  750MOL0     H98950   9.674   3.531   6.014 -0.3520 -0.7629 -0.7059
  750MOL0     H98951   9.592   3.832   6.001  0.5086  0.0228 -2.3974
  750MOL0     H98952   9.671   3.751   6.142  0.0683 -3.6914 -0.4546
  750MOL0     H98953   9.499   3.520   6.230 -2.5671 -2.3808 -1.4210
  750MOL0     H98954   9.238   3.457   6.287  0.5652  0.1011 -1.5888
  750MOL0     H98955   9.114   3.584   6.291  0.8844  0.6420 -1.5394
  750MOL0     H98956   9.380   3.556   6.474  0.2292  2.3059 -3.1714
  750MOL0     H98957   9.218   3.495   6.517 -0.4382  0.4629 -0.0255
  750MOL0     H98958   9.263   3.798   6.470 -2.5966  2.2528  1.3422
  750MOL0     H98959   9.138   3.720   6.564  0.8158  2.0940  3.8881
  750MOL0     H98960   9.337   3.837   6.696 -2.0502  1.2281 -1.0212
  750MOL0     H98961   9.422   3.696   6.659  0.5417  1.0976  1.6035
  750MOL0     H98962   9.113   3.887   6.737  0.7404  1.6934  2.0479
  750MOL0     H98963   8.889   3.914   6.788  1.6049  0.6756 -0.6777
  750MOL0     H98964   8.564   3.652   7.296  0.1476  1.1043 -1.2877
  750MOL0     H98965   8.333   3.605   7.332  2.2557 -0.1591  1.2984
  750MOL0     H98966   8.113   3.418   6.996 -0.4182 -0.1259 -0.3264
  750MOL0     H98967   8.054   3.588   6.973  2.6614  1.7811  0.2002
  750MOL0     H98968   7.922   3.391   7.172 -0.9039 -2.6379 -1.3558
  750MOL0     H98969   7.903   3.376   7.000  0.1091  3.7007 -2.7384
  750MOL0     H98970   7.827   3.633   7.003 -1.4948  1.2890  0.9000
  750MOL0     H98971   7.859   3.628   7.175 -2.5201  2.1969 -0.6419
  750MOL0     H98972   7.657   3.455   7.032 -0.8375 -0.4144  0.2970
  750MOL0     H98973   7.673   3.468   7.212  1.4917 -2.5470 -0.1177
  750MOL0     H98974   7.586   3.677   7.007 -1.1089 -1.0158 -0.8125
  750MOL0     H98975   7.622   3.723   7.172  0.4299  1.4868 -2.6305
  750MOL0     H98976   7.463   3.554   7.251  2.0570 -0.8156 -0.8652
  750MOL0     H98977   7.426   3.491   7.101 -0.1343  0.4307 -1.0926
  750MOL0     H98978   7.326   3.771   7.190 -1.9921 -1.1379  0.1098
  750MOL0     H98979   7.367   3.735   7.022  0.6291 -2.4859 -1.3478
  750MOL0     H98980   7.175   3.590   7.209 -1.4089 -0.0258 -0.2432
  750MOL0     H98981   7.202   3.547   7.042  2.0685 -0.3718  1.2920
  750MOL0     H98982   8.283   3.526   6.908 -0.8385 -3.1119  1.5351
  750MOL0     H98983   8.517   3.581   6.881  0.0467  0.2541 -0.2358
  750MOL0     H98984   8.889   3.525   7.001 -0.7455  0.1067 -0.2723
  750MOL0     H98985   9.125   3.499   6.910  1.8702  1.1360 -1.1308
  750MOL0     H98986  10.349   3.609   5.891 -0.1409 -3.1697 -0.5884
  750MOL0     H98987  10.550   3.494   5.897 -1.4727 -0.3369  0.1248
  750MOL0     H98988  10.895   3.335   5.826  0.3999 -0.3344 -0.7327
  750MOL0     H98989  11.106   3.245   5.908  2.1720  0.6355  1.0095
  750MOL0     H98990  11.498   3.376   5.724 -0.9996  0.2952  0.0718
  750MOL0     H98991  11.430   3.241   5.623 -3.4309  0.8498  0.3796
  750MOL0     H98992  11.581   3.206   5.888 -0.7215  0.1311 -0.2227
  750MOL0     H98993  11.500   3.085   5.790  0.4050  0.5170  0.5134
  750MOL0     H98994  11.742   3.258   5.706  2.6128 -2.1939  0.8586
  750MOL0     H98995  11.652   3.150   5.589  1.3221  0.3375 -0.2043
  750MOL0     H98996  11.792   3.062   5.839 -1.7641 -0.0553 -0.7607
  750MOL0     H98997  11.724   2.955   5.727  0.5036 -0.0041  4.1529
  750MOL0     H98998  12.119   3.059   5.574 -0.1294 -0.8430 -1.4707
  750MOL0     H98999  11.315   3.434   5.581  1.2102 -4.3408 -0.3664
  750MOL0     H99000  11.087   3.524   5.501  0.0649 -0.7340 -1.2314
  751MOL0     O99001   4.131   1.339  10.048 -0.5381  0.3743  0.7512
  751MOL0     C99002   4.070   1.412  10.131 -0.2254 -0.0573  0.4794
  751MOL0     O99003   3.994   1.529  10.101  0.2823  0.9281  0.4579
  751MOL0     C99004   3.973   1.575   9.972  0.6392 -0.1771 -0.1308
  751MOL0     C99005   4.057   1.550   9.861  0.9050  0.4391 -0.0461
  751MOL0     C99006   4.034   1.598   9.732 -0.2628  0.7017  0.3133
  751MOL0     C99007   3.922   1.685   9.710  0.3793  0.4591 -0.2291
  751MOL0     O99008   3.914   1.735   9.587 -0.6096 -0.1348  0.5711
  751MOL0     C99009   3.786   1.774   9.535 -0.4490 -0.2925 -0.3024
  751MOL0     C99010   3.767   1.923   9.548  0.4584  0.1360 -0.1813
  751MOL0     C99011   3.621   1.955   9.528  0.2577  0.1169 -0.4372
  751MOL0     C99012   3.605   2.104   9.539 -0.0619 -0.1849 -0.0312
  751MOL0     C99013   3.467   2.143   9.494  0.4457 -0.0772 -0.3077
  751MOL0     C99014   3.444   2.295   9.498  0.4884 -0.1864  0.0019
  751MOL0     C99015   3.304   2.325   9.466  1.1006  0.2506 -0.1629
  751MOL0     C99016   3.283   2.460   9.402 -0.6386 -0.2530 -0.1987
  751MOL0     N99017   3.142   2.483   9.372  0.9999 -0.6467 -0.0416
  751MOL0     C99018   3.069   2.586   9.419  0.0529 -1.0210 -0.0359
  751MOL0     C99019   2.958   2.582   9.343 -0.1784  0.5941  0.2728
  751MOL0     C99020   2.854   2.689   9.358  0.0672 -0.3411 -1.2808
  751MOL0     C99021   2.724   2.664   9.279 -0.0107 -0.1416 -0.8983
  751MOL0     C99022   2.601   2.749   9.306 -0.0717  0.1136  0.3442
  751MOL0     C99023   2.470   2.700   9.229 -0.8775 -0.3968 -0.1300
  751MOL0     O99024   2.363   2.778   9.274  0.1820 -0.5371  0.2315
  751MOL0     C99025   2.234   2.727   9.254 -0.5956  0.5360 -0.6629
  751MOL0     C99026   2.200   2.610   9.187  0.6296 -0.7600  0.2072
  751MOL0     C99027   2.072   2.572   9.176 -0.5184  0.1827  0.3470
  751MOL0     C99028   1.966   2.641   9.243  0.4556  0.8563 -0.3798
  751MOL0     C99029   1.832   2.585   9.250 -0.0352 -0.1279  0.1408
  751MOL0     O99030   1.814   2.469   9.189  0.1257  0.2779  0.5431
  751MOL0     C99031   1.685   2.412   9.192 -0.4133 -0.2378 -0.1571
  751MOL0     C99032   1.574   2.473   9.127  0.5849 -0.2775  0.3340
  751MOL0     C99033   1.437   2.415   9.121 -0.9882  0.1187  0.9187
  751MOL0     C99034   1.418   2.294   9.189 -0.2696 -0.1527  0.2056
  751MOL0     O99035   1.291   2.237   9.180 -0.6121 -0.4336 -0.5281
  751MOL0     C99036   1.252   2.132   9.267  0.1606 -0.2441  0.2167
  751MOL0     C99037   1.114   2.070   9.225 -0.4755 -0.3931 -1.0494
  751MOL0     C99038   1.000   2.175   9.242 -0.2121 -0.4889 -0.0029
  751MOL0     C99039   0.874   2.111   9.178 -0.3506 -0.5506  0.1089
  751MOL0     C99040   0.748   2.192   9.196  0.3338 -1.0351 -0.5117
  751MOL0     C99041   0.633   2.127   9.122  0.0269 -0.3933  0.7361
  751MOL0     C99042   0.489   2.196   9.129 -0.4441  0.2404  0.0436
  751MOL0     C99043   0.473   2.337   9.061 -0.3793  0.3571  0.3156
  751MOL0    Cl99044   0.527   2.343   8.892 -0.1220  0.1300 -0.0747
  751MOL0     C99045   1.524   2.230   9.248  1.0523 -0.3247 -0.0990
  751MOL0     C99046   1.655   2.290   9.257  0.6864  0.7604  0.9608
  751MOL0     O99047   1.739   2.647   9.305 -0.4650  0.3965  0.5777
  751MOL0     C99048   1.996   2.761   9.308 -0.5152  0.1940 -0.1746
  751MOL0     C99049   2.129   2.802   9.314  0.3648 -0.9549  0.7617
  751MOL0     N99050   2.972   2.487   9.244  0.0175  0.5009 -0.2096
  751MOL0     N99051   3.081   2.426   9.261 -0.5347 -0.0651 -0.6507
  751MOL0     C99052   3.831   1.710   9.818 -0.4674 -0.0765 -0.8811
  751MOL0     C99053   3.859   1.647   9.942 -0.0054  0.0576 -0.5518
  751MOL0     C99054   4.065   1.376  10.269 -0.7292  0.3675  0.2061
  751MOL0     C99055   4.067   1.477  10.371 -0.3848 -1.1440  0.5351
  751MOL0     C99056   4.061   1.448  10.507  0.6043  0.3066 -0.3152
  751MOL0     C99057   4.055   1.312  10.544  0.6086 -0.6256 -0.1813
  751MOL0     O99058   4.062   1.270  10.672  1.0461  0.2154  0.3465
  751MOL0     C99059   3.970   1.318  10.760 -0.1991  0.9252 -0.3898
  751MOL0     C99060   3.846   1.233  10.753  1.1356  0.3128  0.4077
  751MOL0     C99061   3.719   1.297  10.799 -0.1124 -0.3247 -0.1138
  751MOL0     C99062   3.669   1.405  10.710  0.5225  0.2575 -0.3622
  751MOL0     C99063   3.707   1.538  10.741  0.4640  0.9809  0.1991
  751MOL0     C99064   3.749   1.651  10.745 -0.3778 -0.1717  0.1163
  751MOL0     C99065   4.063   1.217  10.444  0.0727  0.4394  0.1079
  751MOL0     C99066   4.062   1.247  10.311  1.4449 -0.3400 -0.1243
  751MOL0     H99067   4.140   1.481   9.864 -0.0176 -0.8371 -1.6709
  751MOL0     H99068   4.105   1.568   9.656  2.1000  2.8279  1.5407
  751MOL0     H99069   3.713   1.704   9.577 -0.1775 -0.1041  0.4988
  751MOL0     H99070   3.799   1.750   9.429 -2.0160 -1.5081 -0.2558
  751MOL0     H99071   3.832   1.980   9.481  0.8045  2.4289  1.9462
  751MOL0     H99072   3.788   1.949   9.653  1.0264 -4.2368  0.9833
  751MOL0     H99073   3.572   1.904   9.611  1.5429  1.4956  1.2393
  751MOL0     H99074   3.584   1.920   9.431 -0.1220  1.5504 -0.8363
  751MOL0     H99075   3.618   2.119   9.647 -1.2225 -2.9746  0.5761
  751MOL0     H99076   3.681   2.162   9.485 -0.8183 -0.6336 -1.6124
  751MOL0     H99077   3.387   2.090   9.548 -1.6852 -0.8569 -3.8841
  751MOL0     H99078   3.439   2.110   9.394 -2.8110  1.3128  0.0259
  751MOL0     H99079   3.505   2.337   9.418  0.8465  0.3086  0.5286
  751MOL0     H99080   3.465   2.318   9.603 -0.8073 -2.5871  0.8682
  751MOL0     H99081   3.259   2.241   9.413 -3.0318  0.5882  2.4050
  751MOL0     H99082   3.256   2.320   9.564  2.5103  2.0278  0.6724
  751MOL0     H99083   3.348   2.468   9.315 -1.0411 -0.3541 -0.5098
  751MOL0     H99084   3.315   2.536   9.473  4.6357  0.0115 -2.4169
  751MOL0     H99085   3.102   2.659   9.493 -3.4915  0.8584 -0.0853
  751MOL0     H99086   2.908   2.780   9.334 -0.8014  0.9119  1.1420
  751MOL0     H99087   2.838   2.704   9.465  0.6924 -1.6848 -0.9851
  751MOL0     H99088   2.688   2.568   9.315  0.8751 -1.2894 -2.8888
  751MOL0     H99089   2.754   2.662   9.174  2.1462 -1.6178 -0.3097
  751MOL0     H99090   2.589   2.740   9.415 -1.3100 -1.6924  0.0920
  751MOL0     H99091   2.634   2.847   9.270 -1.5869  0.4494 -0.1993
  751MOL0     H99092   2.460   2.596   9.260  0.6126 -1.0456 -1.6501
  751MOL0     H99093   2.493   2.703   9.122 -1.5017 -0.1488 -0.2624
  751MOL0     H99094   2.278   2.554   9.137  1.1960 -0.9080  1.2246
  751MOL0     H99095   2.055   2.476   9.128 -2.8055  1.6730 -2.0966
  751MOL0     H99096   1.578   2.568   9.075  0.6368 -0.5476 -0.1668
  751MOL0     H99097   1.358   2.464   9.065  1.1218  2.3511 -0.2836
  751MOL0     H99098   1.236   2.167   9.370 -1.8552 -1.1193  0.2515
  751MOL0     H99099   1.323   2.049   9.272 -0.0688 -0.5030 -0.7251
  751MOL0     H99100   1.096   1.989   9.295 -4.2038  2.1629  1.3071
  751MOL0     H99101   1.113   2.030   9.123  0.1536  1.8295 -1.9891
  751MOL0     H99102   1.023   2.272   9.195 -0.2527 -0.7247 -0.5194
  751MOL0     H99103   0.969   2.196   9.345 -0.2730 -0.9996  0.0834
  751MOL0     H99104   0.888   2.103   9.070  1.6666  1.5550  0.1428
  751MOL0     H99105   0.875   2.011   9.222  0.2672  0.1070  1.6600
  751MOL0     H99106   0.761   2.296   9.164 -0.0414 -0.1543  1.9607
  751MOL0     H99107   0.717   2.181   9.300 -0.2528 -1.8472 -0.7611
  751MOL0     H99108   0.614   2.032   9.173  0.1899 -0.2579  1.0513
  751MOL0     H99109   0.656   2.105   9.018 -1.5008  1.4744 -0.0584
  751MOL0     H99110   0.420   2.118   9.094  0.1710  0.7568 -2.5276
  751MOL0     H99111   0.456   2.210   9.233 -0.1720  2.6877 -0.1557
  751MOL0     H99112   0.535   2.406   9.118  1.5606 -2.8666  2.4355
  751MOL0     H99113   0.368   2.370   9.062 -0.1143  1.4844 -1.9961
  751MOL0     H99114   1.510   2.129   9.286 -2.1982 -0.2247 -0.7343
  751MOL0     H99115   1.737   2.238   9.306  1.4206  3.3378  2.6822
  751MOL0     H99116   1.919   2.825   9.350  0.0380  0.3873  0.5545
  751MOL0     H99117   2.157   2.892   9.368 -0.3886 -0.2838  0.0414
  751MOL0     H99118   3.740   1.768   9.824 -1.4536 -1.6916  1.4265
  751MOL0     H99119   3.777   1.661  10.012 -2.8248 -0.0682 -3.5800
  751MOL0     H99120   4.076   1.577  10.330  0.2319 -1.1737  0.5821
  751MOL0     H99121   4.056   1.524  10.585 -0.1807 -0.0855  0.0319
  751MOL0     H99122   3.952   1.421  10.730 -1.4502 -0.2362 -4.3411
  751MOL0     H99123   4.007   1.307  10.863 -2.9775 -3.3990  0.4130
  751MOL0     H99124   3.834   1.198  10.651 -1.1279  0.4928  0.5770
  751MOL0     H99125   3.873   1.148  10.816  2.7520  0.3541 -0.1630
  751MOL0     H99126   3.730   1.329  10.904 -2.7543  1.7458 -0.3392
  751MOL0     H99127   3.630   1.233  10.802 -0.0658 -0.7451 -3.8750
  751MOL0     H99128   3.687   1.377  10.606 -3.0276  3.0826 -1.9348
  751MOL0     H99129   3.561   1.416  10.720  0.4682  0.5560 -1.2161
  751MOL0     H99130   3.776   1.754  10.754 -1.9012  0.2079  0.6152
  751MOL0     H99131   4.072   1.114  10.476  2.7261  1.2418  2.2898
  751MOL0     H99132   4.053   1.170  10.235  0.3158  0.5481 -0.9393
  752MOL0     O99133   4.451   3.458   8.211 -0.6662 -0.0279 -0.0276
  752MOL0     C99134   4.518   3.549   8.158 -0.1645  0.1667  0.4242
  752MOL0     O99135   4.464   3.661   8.103  0.7218 -0.6599  0.5428
  752MOL0     C99136   4.332   3.683   8.114 -0.5509 -0.3959  0.0064
  752MOL0     C99137   4.232   3.612   8.050 -0.5884  0.3680  0.8647
  752MOL0     C99138   4.096   3.660   8.045 -0.1375 -0.7011  0.2605
  752MOL0     C99139   4.065   3.767   8.128 -0.6111 -0.3983 -0.0502
  752MOL0     O99140   3.934   3.811   8.157 -0.3666  0.9429  0.5043
  752MOL0     C99141   3.854   3.704   8.217 -0.2398  0.4829 -0.4720
  752MOL0     C99142   3.727   3.757   8.260 -0.0029 -0.5402 -0.4635
  752MOL0     C99143   3.637   3.788   8.136 -0.3342  0.8682  0.0860
  752MOL0     C99144   3.500   3.847   8.169 -0.9944 -0.6974  0.0336
  752MOL0     C99145   3.428   3.871   8.043 -0.1115 -0.1839  0.7570
  752MOL0     C99146   3.285   3.922   8.082 -0.6873  0.0714 -0.4953
  752MOL0     C99147   3.261   4.067   8.063 -0.8716 -0.5753  0.6759
  752MOL0     C99148   3.330   4.166   8.153 -0.0918 -0.2394 -0.1497
  752MOL0     N99149   3.280   4.300   8.124  0.0023  0.0080  0.2972
  752MOL0     C99150   3.150   4.346   8.135  0.6085  0.9917 -0.2396
  752MOL0     C99151   3.156   4.478   8.124 -1.0204 -0.9515  1.0650
  752MOL0     C99152   3.042   4.568   8.132 -0.1975 -0.2969 -0.6860
  752MOL0     C99153   2.946   4.541   8.012 -0.1474 -0.5745  0.3421
  752MOL0     C99154   2.817   4.620   8.045  0.4278 -0.8675  0.6822
  752MOL0     C99155   2.716   4.578   7.944  0.2214 -0.0815 -0.4164
  752MOL0     O99156   2.624   4.690   7.935 -0.2388 -0.2015  0.4290
  752MOL0     C99157   2.510   4.676   7.855 -0.1290 -0.0531 -0.9652
  752MOL0     C99158   2.421   4.786   7.846 -0.7034 -0.2211 -0.1870
  752MOL0     C99159   2.295   4.776   7.788 -0.2117  1.0062 -0.2238
  752MOL0     C99160   2.256   4.652   7.738  0.1509 -0.6892  0.2061
  752MOL0     C99161   2.118   4.631   7.699 -0.3859  0.2038  0.2066
  752MOL0     O99162   2.037   4.735   7.715 -0.4676  0.0963  0.4844
  752MOL0     C99163   1.906   4.710   7.692  0.3656 -0.4264 -0.5189
  752MOL0     C99164   1.848   4.661   7.576  0.5291  0.5108  0.2660
  752MOL0     C99165   1.711   4.632   7.574  0.4027  0.3221 -1.0985
  752MOL0     C99166   1.631   4.633   7.686 -0.4298 -0.6602  0.3262
  752MOL0     O99167   1.504   4.596   7.672  0.5011  0.1764  0.4918
  752MOL0     C99168   1.421   4.571   7.786  0.4381 -0.2735 -0.2454
  752MOL0     C99169   1.281   4.551   7.734  0.2089  0.1959 -0.4280
  752MOL0     C99170   1.204   4.492   7.850  0.4560 -0.1839  0.1980
  752MOL0     C99171   1.077   4.431   7.786 -0.0470  0.4247 -0.1690
  752MOL0     C99172   0.991   4.394   7.908  0.3617 -0.3557  1.2388
  752MOL0     C99173   0.839   4.364   7.866  0.2228  0.3780 -0.3152
  752MOL0     C99174   0.754   4.270   7.953  0.7872  0.8938 -0.1075
  752MOL0     C99175   0.752   4.318   8.091 -0.4198 -0.4277  0.5033
  752MOL0    Cl99176   0.652   4.201   8.182 -0.2069 -0.3808  0.1179
  752MOL0     C99177   1.685   4.687   7.803  0.3268  0.0622 -0.0619
  752MOL0     C99178   1.818   4.729   7.802  0.0137 -0.7144  0.2581
  752MOL0     O99179   2.084   4.517   7.657  0.9411 -0.2567 -0.3551
  752MOL0     C99180   2.338   4.539   7.755 -0.3809  0.2011 -0.4240
  752MOL0     C99181   2.462   4.553   7.814  0.0807  1.0772  0.3080
  752MOL0     N99182   3.291   4.519   8.109 -0.1169  0.8623 -0.2966
  752MOL0     N99183   3.365   4.407   8.110  0.9529  1.0092  0.2644
  752MOL0     C99184   4.156   3.829   8.206 -0.1277 -0.5595  0.5042
  752MOL0     C99185   4.291   3.787   8.195  0.3616  0.7675  0.1444
  752MOL0     C99186   4.660   3.523   8.144 -1.3430 -0.0905  0.8725
  752MOL0     C99187   4.722   3.397   8.173 -0.5192 -0.6370  0.1119
  752MOL0     C99188   4.863   3.378   8.176  0.0431  0.3495 -0.4842
  752MOL0     C99189   4.946   3.486   8.136 -0.1067 -0.4631 -0.3321
  752MOL0     O99190   5.086   3.478   8.130 -0.5963 -0.6343  0.0907
  752MOL0     C99191   5.151   3.406   8.241 -0.5974  0.6488  0.0075
  752MOL0     C99192   5.299   3.454   8.245  0.8946 -0.4803 -0.0898
  752MOL0     C99193   5.397   3.394   8.140 -0.0290 -0.4891 -0.9195
  752MOL0     C99194   5.543   3.432   8.176 -0.3081 -0.0758 -0.3541
  752MOL0     C99195   5.633   3.330   8.211 -0.2067 -0.1166 -0.6822
  752MOL0     C99196   5.710   3.239   8.224  0.4604 -0.1814 -1.1317
  752MOL0     C99197   4.886   3.597   8.084 -0.2261  0.1685  0.2004
  752MOL0     C99198   4.752   3.622   8.109  0.1712 -0.1904  1.0130
  752MOL0     H99199   4.254   3.532   7.980 -2.3708  2.8632 -2.9258
  752MOL0     H99200   4.021   3.611   7.984 -0.3133  0.9047 -0.8893
  752MOL0     H99201   3.903   3.648   8.297 -1.1130  1.0256  0.4675
  752MOL0     H99202   3.837   3.628   8.139  1.5391 -1.5044  0.9674
  752MOL0     H99203   3.753   3.849   8.314  1.1206 -0.3923 -1.2231
  752MOL0     H99204   3.682   3.685   8.329  1.6061 -0.4043  0.7770
  752MOL0     H99205   3.612   3.695   8.086 -0.0833  0.3380  0.9245
  752MOL0     H99206   3.695   3.858   8.074  0.6439  1.6513  1.7860
  752MOL0     H99207   3.447   3.783   8.240  1.9670 -1.1018  2.1167
  752MOL0     H99208   3.518   3.943   8.218  0.5825  0.1539 -2.0668
  752MOL0     H99209   3.419   3.771   8.001 -2.4351  0.4242 -0.3854
  752MOL0     H99210   3.472   3.941   7.971  0.9252 -2.8127 -1.3273
  752MOL0     H99211   3.269   3.890   8.185 -0.2161  1.9383  0.2058
  752MOL0     H99212   3.208   3.873   8.021 -1.5074  1.2234 -0.4200
  752MOL0     H99213   3.290   4.095   7.962  3.2271 -4.9110  0.3347
  752MOL0     H99214   3.152   4.069   8.072 -1.1593 -2.2756 -1.6104
  752MOL0     H99215   3.439   4.159   8.141 -0.0166 -0.3845  0.5704
  752MOL0     H99216   3.304   4.138   8.256  1.8153  0.0205  0.4472
  752MOL0     H99217   3.058   4.289   8.133  1.2060  0.0115 -1.7628
  752MOL0     H99218   3.074   4.672   8.139  0.3195 -0.4901 -0.0314
  752MOL0     H99219   2.996   4.540   8.227  0.5943  1.8366  0.4024
  752MOL0     H99220   2.914   4.437   8.023  0.4483 -0.5404  3.1265
  752MOL0     H99221   2.999   4.558   7.917  1.6773 -0.5403  1.3253
  752MOL0     H99222   2.775   4.598   8.144 -1.3736 -0.6367  0.0135
  752MOL0     H99223   2.835   4.728   8.043 -2.8058 -0.1605 -3.0173
  752MOL0     H99224   2.677   4.484   7.984  3.3440 -1.0987  0.4850
  752MOL0     H99225   2.767   4.559   7.850  1.4570  1.4102 -0.0853
  752MOL0     H99226   2.456   4.884   7.879  0.5070 -1.6768  3.3037
  752MOL0     H99227   2.238   4.868   7.780 -0.5906  0.9947  1.8256
  752MOL0     H99228   1.909   4.664   7.487  3.9159  2.2727  2.4434
  752MOL0     H99229   1.663   4.599   7.483 -0.5347 -0.3458 -0.3767
  752MOL0     H99230   1.423   4.657   7.854  1.3857 -1.7995  1.7646
  752MOL0     H99231   1.464   4.494   7.851  1.4811  1.5709  1.3923
  752MOL0     H99232   1.285   4.473   7.657 -0.9008 -0.4602  0.1534
  752MOL0     H99233   1.234   4.641   7.692 -4.0707 -1.2697  0.6295
  752MOL0     H99234   1.187   4.572   7.923  1.2539 -0.9142  1.2187
  752MOL0     H99235   1.260   4.408   7.892 -0.5084 -0.2182  1.4832
  752MOL0     H99236   1.023   4.495   7.715 -0.7258  0.5857  0.4746
  752MOL0     H99237   1.103   4.338   7.735 -0.5657 -0.4457  1.0979
  752MOL0     H99238   0.984   4.478   7.978  0.7804  1.6040 -0.9640
  752MOL0     H99239   1.026   4.303   7.957  0.0545 -1.8455 -1.1715
  752MOL0     H99240   0.842   4.324   7.764  0.8796 -0.1885 -0.0799
  752MOL0     H99241   0.793   4.464   7.865 -0.0216  0.2707 -0.0236
  752MOL0     H99242   0.653   4.251   7.914  1.4135  0.6333 -1.7027
  752MOL0     H99243   0.806   4.174   7.965 -0.7232  0.0157 -0.3947
  752MOL0     H99244   0.707   4.417   8.097  0.3657 -0.0789  0.8930
  752MOL0     H99245   0.856   4.325   8.125 -0.1426  2.0624 -0.6487
  752MOL0     H99246   1.625   4.708   7.892 -2.7677 -1.3071 -1.6882
  752MOL0     H99247   1.858   4.766   7.896  0.6772  0.9876 -0.6500
  752MOL0     H99248   2.301   4.437   7.745 -0.6186  0.1930  0.4052
  752MOL0     H99249   2.517   4.462   7.837 -1.6900  0.1278  0.9550
  752MOL0     H99250   4.116   3.909   8.269 -0.0573  1.3822 -1.7588
  752MOL0     H99251   4.364   3.846   8.251  1.8342  1.9269 -2.8027
  752MOL0     H99252   4.660   3.320   8.218 -0.8910  0.5067  1.6097
  752MOL0     H99253   4.895   3.282   8.217 -1.1362  0.3371  0.4609
  752MOL0     H99254   5.149   3.298   8.225  0.1865 -0.0334  3.6958
  752MOL0     H99255   5.108   3.426   8.339  0.3228  1.2271  0.2977
  752MOL0     H99256   5.292   3.563   8.240 -1.3893 -0.6418 -3.5828
  752MOL0     H99257   5.330   3.431   8.347  0.3000  1.3602  0.5490
  752MOL0     H99258   5.362   3.447   8.051 -0.8878  0.2462 -0.1559
  752MOL0     H99259   5.386   3.286   8.129  2.2285 -0.8582 -0.1038
  752MOL0     H99260   5.588   3.488   8.094  0.6218  1.1572  0.9495
  752MOL0     H99261   5.540   3.509   8.254  1.8784  0.2085 -0.4840
  752MOL0     H99262   5.766   3.153   8.254 -0.8081 -0.1048  1.8625
  752MOL0     H99263   4.949   3.679   8.051 -3.4919  1.6203 -3.1861
  752MOL0     H99264   4.705   3.719   8.095 -2.0325 -0.7885  3.5065
  753MOL0     O99265   9.341   2.060   0.871  0.1583  0.2402 -0.2051
  753MOL0     C99266   9.366   2.132   0.970  0.9231 -0.1431  0.4271
  753MOL0     O99267   9.286   2.229   1.012  0.9742  0.2037 -0.7202
  753MOL0     C99268   9.156   2.223   0.966 -0.7135 -0.5829 -0.3995
  753MOL0     C99269   9.075   2.105   0.942 -0.4978 -0.0158 -0.4258
  753MOL0     C99270   8.948   2.107   0.880 -0.1845 -0.2640 -0.2122
  753MOL0     C99271   8.882   2.231   0.860 -0.0269  0.8022 -0.4315
  753MOL0     O99272   8.749   2.246   0.830  0.0177  0.4845  0.2452
  753MOL0     C99273   8.661   2.129   0.806 -0.7242 -0.7115 -1.2476
  753MOL0     C99274   8.527   2.193   0.793  0.8414  0.4095 -0.5646
  753MOL0     C99275   8.408   2.096   0.782  0.8227  0.3892 -0.0242
  753MOL0     C99276   8.275   2.165   0.805 -0.7453 -0.5768 -0.0656
  753MOL0     C99277   8.147   2.077   0.788  0.4165  0.6418  0.3321
  753MOL0     C99278   8.021   2.164   0.793  0.2374 -0.9801 -0.2726
  753MOL0     C99279   7.885   2.083   0.796 -0.1169 -0.6681 -0.0532
  753MOL0     C99280   7.770   2.184   0.783  0.0878  0.3886  0.7761
  753MOL0     N99281   7.631   2.131   0.800 -0.2957  1.2910  0.1256
  753MOL0     C99282   7.580   2.032   0.886 -0.2314  0.3712 -0.1287
  753MOL0     C99283   7.442   2.022   0.860 -0.5982 -0.3234  0.2878
  753MOL0     C99284   7.342   1.943   0.930  0.5773  0.2573 -0.4013
  753MOL0     C99285   7.208   1.934   0.862  0.5822 -0.2662  0.1039
  753MOL0     C99286   7.115   1.835   0.926 -0.1717  0.1378 -0.1948
  753MOL0     C99287   6.969   1.847   0.862  0.0950  0.3149 -0.9076
  753MOL0     O99288   6.879   1.738   0.902 -0.4471  0.1059  0.1969
  753MOL0     C99289   6.758   1.726   0.838  0.3596 -0.4488 -0.1672
  753MOL0     C99290   6.718   1.821   0.744  0.1371 -0.3126 -0.5740
  753MOL0     C99291   6.595   1.814   0.679  0.2149 -0.1612  0.2685
  753MOL0     C99292   6.502   1.715   0.706  0.0751 -0.1693 -0.1698
  753MOL0     C99293   6.370   1.722   0.640  0.5819  0.5174 -0.0091
  753MOL0     O99294   6.333   1.834   0.565 -0.3687 -0.6290 -0.1329
  753MOL0     C99295   6.266   1.815   0.456  0.4438  0.1107  0.3917
  753MOL0     C99296   6.213   1.933   0.393  0.6329  0.4023  0.7057
  753MOL0     C99297   6.124   1.920   0.290 -0.3647  0.0221 -0.3222
  753MOL0     C99298   6.090   1.793   0.235  0.9490  0.3562 -0.1175
  753MOL0     O99299   5.992   1.800   0.143 -0.4224 -0.2912  0.2431
  753MOL0     C99300   5.888   1.705   0.140 -0.8680  0.0099  0.2863
  753MOL0     C99301   5.800   1.707   0.268 -0.2895 -0.3755  0.3169
  753MOL0     C99302   5.733   1.837   0.308  0.9992  0.0074  0.6392
  753MOL0     C99303   5.635   1.878   0.194 -0.7426  0.6906  0.6523
  753MOL0     C99304   5.562   2.007   0.237  0.8479  0.3367 -0.1919
  753MOL0     C99305   5.438   2.043   0.154  0.1706  0.3621  0.2079
  753MOL0     C99306   5.317   1.959   0.188  0.2404 -0.1843  0.4235
  753MOL0     C99307   5.176   2.014   0.145  0.8731  0.3689  0.5892
  753MOL0    Cl99308   5.137   2.022  -0.039 -0.1872 -0.0157  0.1211
  753MOL0     C99309   6.139   1.675   0.285  0.0843 -0.6538 -0.1299
  753MOL0     C99310   6.230   1.691   0.400  0.3136 -0.1451  1.0843
  753MOL0     O99311   6.292   1.625   0.671 -0.5392 -0.1448  0.0963
  753MOL0     C99312   6.532   1.622   0.806 -0.1947 -0.1707  0.0727
  753MOL0     C99313   6.660   1.622   0.868  0.6005 -0.3243  0.5481
  753MOL0     N99314   7.428   2.103   0.753  0.6277  0.4487 -1.0066
  753MOL0     N99315   7.538   2.150   0.708  0.1974  0.9442 -0.1012
  753MOL0     C99316   8.956   2.347   0.873  0.1904 -0.2337 -0.6839
  753MOL0     C99317   9.091   2.343   0.929  1.2248 -0.0915  0.2261
  753MOL0     C99318   9.496   2.113   1.037  0.7689  0.2644  0.1847
  753MOL0     C99319   9.587   2.013   0.986  0.4584  0.6219  0.1806
  753MOL0     C99320   9.714   2.001   1.036  0.6198 -0.4259  0.4315
  753MOL0     C99321   9.764   2.094   1.125  0.3745  0.0817  0.1296
  753MOL0     O99322   9.885   2.110   1.179  0.0077 -0.1284 -0.5006
  753MOL0     C99323   9.979   2.001   1.147 -0.1088  0.1596  0.2594
  753MOL0     C99324  10.105   2.011   1.235  0.3572 -0.1668  0.5842
  753MOL0     C99325  10.214   1.912   1.174  0.0684  0.0989  0.3324
  753MOL0     C99326  10.202   1.775   1.247 -0.3714 -0.3200 -0.3912
  753MOL0     C99327  10.294   1.693   1.179  0.4841 -0.1522 -0.3859
  753MOL0     C99328  10.375   1.622   1.123 -1.1496 -1.1412  0.5265
  753MOL0     C99329   9.676   2.197   1.169  0.4086 -0.1870  0.2683
  753MOL0     C99330   9.540   2.202   1.137 -0.7927 -0.1031 -0.1010
  753MOL0     H99331   9.110   2.006   0.969 -2.7699 -1.0050 -0.8034
  753MOL0     H99332   8.907   2.011   0.849  1.0856  0.0455 -3.1731
  753MOL0     H99333   8.661   2.075   0.901 -0.6261  0.4698 -0.5577
  753MOL0     H99334   8.687   2.069   0.719 -1.0050 -0.1000 -1.7566
  753MOL0     H99335   8.523   2.259   0.706  3.6797  2.6179  0.8081
  753MOL0     H99336   8.512   2.268   0.872  1.8145 -0.7251  0.7558
  753MOL0     H99337   8.417   2.020   0.860  0.0846  4.1528  4.0978
  753MOL0     H99338   8.391   2.046   0.686 -0.2979  0.4486  0.1330
  753MOL0     H99339   8.274   2.199   0.909 -2.1660  1.4150 -0.6663
  753MOL0     H99340   8.270   2.242   0.728 -0.9596  0.0025  0.5186
  753MOL0     H99341   8.148   2.000   0.866 -0.3433  0.7229  0.4253
  753MOL0     H99342   8.143   2.031   0.689 -0.0745  1.6020 -0.1032
  753MOL0     H99343   8.017   2.227   0.704  0.2704  1.0178  1.0655
  753MOL0     H99344   8.032   2.220   0.887  1.1467 -3.4581  1.1836
  753MOL0     H99345   7.886   2.014   0.711  0.9756  1.8063 -2.2188
  753MOL0     H99346   7.869   2.032   0.891  0.7601 -0.8294  0.0125
  753MOL0     H99347   7.775   2.242   0.690 -1.2835 -2.8478 -1.5093
  753MOL0     H99348   7.786   2.253   0.866  0.4667  0.6599  0.4791
  753MOL0     H99349   7.627   1.971   0.963  0.3932 -0.6380 -1.2795
  753MOL0     H99350   7.318   1.988   1.027  1.4376 -0.0435 -0.0422
  753MOL0     H99351   7.382   1.842   0.946  0.6893  0.6231  1.9288
  753MOL0     H99352   7.217   1.911   0.755 -3.9561  0.8607 -0.7237
  753MOL0     H99353   7.159   2.032   0.863 -2.5187 -1.7158  0.2865
  753MOL0     H99354   7.146   1.732   0.904 -1.4002 -0.4243  0.5921
  753MOL0     H99355   7.111   1.841   1.035  1.4318 -1.1271 -0.0175
  753MOL0     H99356   6.974   1.849   0.753 -1.1532 -4.5172 -1.3071
  753MOL0     H99357   6.925   1.942   0.893 -1.7772 -0.8626  0.2487
  753MOL0     H99358   6.771   1.904   0.698  0.7909  1.2140  2.6744
  753MOL0     H99359   6.566   1.899   0.617  0.5160  0.3821  0.8703
  753MOL0     H99360   6.243   2.031   0.427 -1.0070  0.8388  1.0148
  753MOL0     H99361   6.083   2.006   0.238  1.3044 -0.6389 -2.9372
  753MOL0     H99362   5.927   1.606   0.114  2.5467  1.6908 -1.6581
  753MOL0     H99363   5.838   1.741   0.050  2.3607  2.8374 -0.5942
  753MOL0     H99364   5.866   1.675   0.349  0.8761 -2.2698 -1.2559
  753MOL0     H99365   5.734   1.619   0.265  2.4020 -2.5728  0.8739
  753MOL0     H99366   5.809   1.915   0.317  0.6548  0.7326 -1.8537
  753MOL0     H99367   5.685   1.816   0.404  0.3438 -1.0242  0.1123
  753MOL0     H99368   5.694   1.910   0.107 -2.2110  1.0178 -0.2640
  753MOL0     H99369   5.574   1.792   0.165  1.1186 -0.7327  0.7506
  753MOL0     H99370   5.644   2.079   0.220  2.6606 -1.7809 -0.8910
  753MOL0     H99371   5.542   2.011   0.344 -1.2821  0.5173 -0.5583
  753MOL0     H99372   5.462   2.045   0.048 -1.4413  0.1859 -0.1897
  753MOL0     H99373   5.415   2.145   0.187 -1.1209 -0.6766  2.7980
  753MOL0     H99374   5.322   1.855   0.155 -1.4151 -0.1392 -0.0571
  753MOL0     H99375   5.304   1.942   0.295  1.8821 -1.7466  0.4333
  753MOL0     H99376   5.171   2.116   0.183 -0.2233  0.7617 -0.5578
  753MOL0     H99377   5.094   1.952   0.182 -0.1533  1.5704  0.4003
  753MOL0     H99378   6.098   1.579   0.255  0.1081 -0.4321 -0.8947
  753MOL0     H99379   6.267   1.600   0.446 -0.5202 -0.3096  1.4549
  753MOL0     H99380   6.465   1.540   0.827 -2.1034  1.4466  0.5820
  753MOL0     H99381   6.690   1.544   0.938  1.5296 -1.7239 -1.3119
  753MOL0     H99382   8.912   2.446   0.864 -1.2518 -0.9029 -1.2297
  753MOL0     H99383   9.140   2.439   0.931 -2.6955  2.1494 -0.5715
  753MOL0     H99384   9.555   1.932   0.921  2.3312 -0.5208  0.6081
  753MOL0     H99385   9.765   1.907   1.015 -0.0798 -1.1781  1.9480
  753MOL0     H99386  10.007   2.018   1.043 -0.2295  0.1994  0.2333
  753MOL0     H99387   9.928   1.905   1.162 -1.7035  0.5102 -2.2998
  753MOL0     H99388  10.142   2.114   1.229  0.9631 -0.3564  0.9717
  753MOL0     H99389  10.084   1.988   1.340 -2.4422 -1.0734 -0.1106
  753MOL0     H99390  10.318   1.944   1.183  0.3349 -0.0615 -1.6144
  753MOL0     H99391  10.193   1.892   1.068 -1.0553 -2.7212  1.0201
  753MOL0     H99392  10.235   1.786   1.351  4.0829  0.0058 -1.6418
  753MOL0     H99393  10.103   1.728   1.244  0.7520 -2.8359 -0.4650
  753MOL0     H99394  10.444   1.548   1.090  2.1631  0.7279  2.6643
  753MOL0     H99395   9.712   2.271   1.240  2.2228 -3.1197  2.6302
  753MOL0     H99396   9.480   2.290   1.158  1.2293  1.2693  0.3293
  754MOL0     O99397   1.135   7.477   7.477  0.3300 -0.1704 -0.4724
  754MOL0     C99398   1.122   7.427   7.588 -0.5315 -0.0742 -0.3453
  754MOL0     O99399   1.030   7.452   7.689  0.0767 -0.3873  0.7650
  754MOL0     C99400   0.927   7.540   7.679  0.0376  0.6087 -0.1082
  754MOL0     C99401   0.918   7.634   7.783  0.6968 -1.1079  0.5249
  754MOL0     C99402   0.810   7.722   7.786  0.6242 -0.3866  0.0187
  754MOL0     C99403   0.704   7.712   7.693 -0.1772 -0.5881  0.2445
  754MOL0     O99404   0.589   7.790   7.688  0.6745 -0.2391 -0.1247
  754MOL0     C99405   0.555   7.874   7.800 -0.4307  0.4767  0.1888
  754MOL0     C99406   0.419   7.945   7.783  0.5975 -0.3300 -0.1641
  754MOL0     C99407   0.291   7.870   7.816 -0.1451  0.4273  0.2729
  754MOL0     C99408   0.168   7.952   7.794 -0.4217  0.4401  0.8978
  754MOL0     C99409   0.049   7.859   7.802  0.7095  0.4550 -0.4131
  754MOL0     C99410  -0.073   7.944   7.812  0.5063  0.4445 -0.3924
  754MOL0     C99411  -0.212   7.882   7.805  0.3844 -0.0594  0.0284
  754MOL0     C99412  -0.282   7.794   7.916  0.2456  0.2425  0.1767
  754MOL0     N99413  -0.405   7.730   7.859 -0.2802  0.1538  0.4220
  754MOL0     C99414  -0.418   7.598   7.820  0.0607  0.1941 -0.1060
  754MOL0     C99415  -0.545   7.586   7.786  0.2693  0.1421 -0.5068
  754MOL0     C99416  -0.609   7.463   7.729 -0.0073 -0.7573 -0.2448
  754MOL0     C99417  -0.760   7.473   7.719  0.1747  0.1966  0.8052
  754MOL0     C99418  -0.821   7.344   7.659  0.3789  0.3913 -0.1411
  754MOL0     C99419  -0.852   7.356   7.514 -0.0731 -0.0077  0.2461
  754MOL0     O99420  -0.972   7.426   7.469  0.3096 -0.6926  0.8047
  754MOL0     C99421  -1.092   7.402   7.526 -0.4973  0.4407  1.1412
  754MOL0     C99422  -1.195   7.493   7.531  1.2529 -0.2808  0.0505
  754MOL0     C99423  -1.319   7.465   7.583  0.1066 -0.1700 -0.1152
  754MOL0     C99424  -1.347   7.339   7.641  0.5988 -0.2379  0.2310
  754MOL0     C99425  -1.470   7.311   7.718  0.3092  0.5311  0.3226
  754MOL0     O99426  -1.570   7.405   7.721 -0.0949 -0.4748 -0.1012
  754MOL0     C99427  -1.687   7.366   7.787 -0.3778  0.1397 -0.3708
  754MOL0     C99428  -1.737   7.445   7.892 -0.2224 -0.4710 -0.0637
  754MOL0     C99429  -1.851   7.407   7.965 -0.2197  0.5194 -0.2599
  754MOL0     C99430  -1.920   7.286   7.945  1.4762  0.4081 -0.5001
  754MOL0     O99431  -2.037   7.244   8.007  0.7050 -0.7124  0.5302
  754MOL0     C99432  -2.057   7.304   8.129  0.7696 -0.1411  0.1845
  754MOL0     C99433  -2.158   7.232   8.224 -0.5446 -0.1259  0.0152
  754MOL0     C99434  -2.285   7.206   8.143  0.1703 -0.2562  0.8912
  754MOL0     C99435  -2.378   7.127   8.222 -0.1012  0.2828 -0.9713
  754MOL0     C99436  -2.453   7.202   8.332  0.3877 -0.1723  0.2459
  754MOL0     C99437  -2.577   7.125   8.372 -0.2054 -0.2402  0.0160
  754MOL0     C99438  -2.659   7.207   8.476 -0.4681  0.2415  0.2857
  754MOL0     C99439  -2.778   7.128   8.510  0.1642 -0.7743  0.5232
  754MOL0    Cl99440  -2.898   7.222   8.601 -0.1070  0.5447 -0.4844
  754MOL0     C99441  -1.884   7.208   7.837 -0.2874 -0.0417  0.6990
  754MOL0     C99442  -1.772   7.254   7.758  0.2023  0.1015 -0.3569
  754MOL0     O99443  -1.471   7.196   7.767 -0.2893 -0.0633 -0.2452
  754MOL0     C99444  -1.246   7.246   7.635 -0.1367  0.7132  0.2044
  754MOL0     C99445  -1.126   7.277   7.567  0.6488  0.3191 -0.8999
  754MOL0     N99446  -0.602   7.712   7.791 -0.5077  0.0449  0.2852
  754MOL0     N99447  -0.520   7.798   7.828 -0.3527  0.3285  0.7720
  754MOL0     C99448   0.718   7.613   7.592  0.4552 -0.9766 -0.2182
  754MOL0     C99449   0.832   7.541   7.581 -0.0970  0.8732  0.3465
  754MOL0     C99450   1.245   7.351   7.629  0.7693 -0.5811  0.1568
  754MOL0     C99451   1.362   7.338   7.553  0.2055  0.3925  0.8618
  754MOL0     C99452   1.485   7.291   7.599 -0.1255  0.6183 -0.5073
  754MOL0     C99453   1.497   7.268   7.740  0.1881 -0.3645 -0.3744
  754MOL0     O99454   1.604   7.231   7.807 -0.1895 -0.1908 -0.0493
  754MOL0     C99455   1.734   7.197   7.747 -0.2143  0.2485  0.7307
  754MOL0     C99456   1.726   7.080   7.640 -0.1357  0.2313 -0.3738
  754MOL0     C99457   1.870   7.011   7.619 -0.1503 -0.0925 -0.6697
  754MOL0     C99458   1.988   7.118   7.608  0.0215  0.0104  0.0273
  754MOL0     C99459   1.955   7.207   7.492 -0.1810 -0.1854 -0.1033
  754MOL0     C99460   1.924   7.271   7.396  0.3263 -0.3049  0.9055
  754MOL0     C99461   1.377   7.277   7.821 -0.4558  1.2957  0.2033
  754MOL0     C99462   1.257   7.317   7.763  0.5524  0.6475 -0.2635
  754MOL0     H99463   1.010   7.641   7.839  1.4503 -4.0341 -0.2016
  754MOL0     H99464   0.804   7.805   7.856 -0.6350 -1.2985  1.0566
  754MOL0     H99465   0.630   7.954   7.799  0.5336 -0.3657 -1.8615
  754MOL0     H99466   0.552   7.817   7.894 -1.9500  0.1740 -0.0247
  754MOL0     H99467   0.416   7.994   7.685  2.0123 -0.3009 -0.2140
  754MOL0     H99468   0.431   8.021   7.861 -1.4901  1.4772 -1.4458
  754MOL0     H99469   0.301   7.832   7.918  0.9952  1.6177  0.6336
  754MOL0     H99470   0.301   7.779   7.755 -1.8053 -0.4994  1.3061
  754MOL0     H99471   0.150   8.023   7.876 -1.6769  0.6280  0.4711
  754MOL0     H99472   0.172   7.999   7.696  0.1675 -0.2587  0.5784
  754MOL0     H99473   0.042   7.779   7.876 -2.5305  0.1910 -0.8462
  754MOL0     H99474   0.048   7.802   7.708  1.4149 -1.9082  0.9435
  754MOL0     H99475  -0.080   8.024   7.739 -3.8266  0.4413 -0.2278
  754MOL0     H99476  -0.073   7.987   7.913 -0.5713 -2.6428  1.0449
  754MOL0     H99477  -0.279   7.966   7.783  1.0096  0.1634 -1.1340
  754MOL0     H99478  -0.190   7.820   7.718  2.4962  0.1009  0.4054
  754MOL0     H99479  -0.319   7.861   7.994 -0.6934  0.1045 -0.1290
  754MOL0     H99480  -0.214   7.714   7.949  2.2086 -0.4970 -4.8299
  754MOL0     H99481  -0.343   7.520   7.824 -3.2052 -3.3031 -1.3448
  754MOL0     H99482  -0.572   7.372   7.777  1.2301 -0.3334 -0.3472
  754MOL0     H99483  -0.573   7.460   7.626  2.4646  2.6143  0.3555
  754MOL0     H99484  -0.798   7.561   7.666 -1.3152  0.1752  1.7604
  754MOL0     H99485  -0.800   7.478   7.821 -0.1313 -2.2824  0.8747
  754MOL0     H99486  -0.748   7.265   7.677  0.3951  0.9374  2.5858
  754MOL0     H99487  -0.913   7.319   7.713  1.9769  1.0369  3.0844
  754MOL0     H99488  -0.857   7.255   7.473  2.1402  0.4398 -1.3426
  754MOL0     H99489  -0.761   7.397   7.469  1.4491 -0.3006  2.8149
  754MOL0     H99490  -1.159   7.587   7.490  2.4106 -0.4941  0.5363
  754MOL0     H99491  -1.404   7.532   7.589  1.0060  0.8646  2.1034
  754MOL0     H99492  -1.689   7.541   7.907  2.0686 -1.7974  1.8032
  754MOL0     H99493  -1.900   7.489   8.017 -3.7198  0.0262 -2.5019
  754MOL0     H99494  -2.105   7.401   8.113  2.7509  0.5311 -2.3190
  754MOL0     H99495  -1.965   7.329   8.183  0.5721  3.4378 -0.9145
  754MOL0     H99496  -2.177   7.298   8.310 -1.1728 -2.4787  1.7747
  754MOL0     H99497  -2.116   7.139   8.262  1.9695 -0.1397 -2.4725
  754MOL0     H99498  -2.268   7.146   8.053 -0.1577  1.5664 -0.4538
  754MOL0     H99499  -2.328   7.302   8.111  2.4217  0.8453  0.9692
  754MOL0     H99500  -2.452   7.082   8.155 -2.3525  2.5914 -0.1949
  754MOL0     H99501  -2.327   7.042   8.267  1.9875  0.7419 -2.3431
  754MOL0     H99502  -2.489   7.292   8.281 -1.5776 -0.7954  0.4653
  754MOL0     H99503  -2.393   7.220   8.422 -1.0649 -2.5499  1.8002
  754MOL0     H99504  -2.542   7.034   8.422 -1.2472 -0.7683 -0.1865
  754MOL0     H99505  -2.639   7.098   8.286  0.5467 -1.0475 -0.2804
  754MOL0     H99506  -2.601   7.203   8.568 -3.6340 -0.6687  2.3983
  754MOL0     H99507  -2.678   7.307   8.436  2.2071  0.8340  0.3013
  754MOL0     H99508  -2.747   7.039   8.566  0.6521 -2.0687 -1.6577
  754MOL0     H99509  -2.813   7.089   8.414 -0.6094 -0.0311  0.4934
  754MOL0     H99510  -1.949   7.122   7.822 -0.3703 -0.5095  3.2807
  754MOL0     H99511  -1.743   7.195   7.673 -0.9017 -0.8026 -0.1213
  754MOL0     H99512  -1.251   7.145   7.675 -0.6948  1.3486  1.8240
  754MOL0     H99513  -1.053   7.197   7.565  0.9246  0.5665 -0.6928
  754MOL0     H99514   0.647   7.625   7.511  0.7416  1.7778 -0.1806
  754MOL0     H99515   0.838   7.471   7.498  0.4932 -0.9423  1.8294
  754MOL0     H99516   1.351   7.368   7.449  1.0572 -2.8809 -0.3059
  754MOL0     H99517   1.572   7.280   7.535  0.1578  0.9001 -0.1721
  754MOL0     H99518   1.797   7.165   7.830  1.9599 -1.7676 -1.5312
  754MOL0     H99519   1.765   7.296   7.712 -1.3353  0.7098  0.9801
  754MOL0     H99520   1.660   7.004   7.682 -1.0624 -0.2257 -2.5303
  754MOL0     H99521   1.690   7.104   7.540  0.9208 -0.6466 -0.9834
  754MOL0     H99522   1.868   6.943   7.533 -1.6418 -0.5446 -0.3022
  754MOL0     H99523   1.895   6.946   7.704  0.1930  1.4336  0.4413
  754MOL0     H99524   1.999   7.178   7.700 -0.9958  2.9023 -1.6046
  754MOL0     H99525   2.084   7.071   7.584  0.3620 -1.4791  3.5843
  754MOL0     H99526   1.884   7.325   7.312 -0.1514 -1.0903  0.6147
  754MOL0     H99527   1.390   7.257   7.927  2.5384  0.0185 -0.3164
  754MOL0     H99528   1.171   7.331   7.828 -0.3157 -0.6406 -1.0990
  755MOL0     O99529   2.165   4.026  10.790  0.2049  0.4412  0.2452
  755MOL0     C99530   2.247   3.937  10.756  0.6466  1.0933 -0.1256
  755MOL0     O99531   2.211   3.819  10.680 -0.0540 -0.0986  0.5217
  755MOL0     C99532   2.079   3.795  10.668  0.1185 -0.2496  0.8160
  755MOL0     C99533   2.039   3.750  10.541  0.6007 -0.2472 -0.7352
  755MOL0     C99534   1.897   3.724  10.521  0.4467  0.0498  0.2156
  755MOL0     C99535   1.812   3.725  10.635 -0.0381  0.4005 -0.5448
  755MOL0     O99536   1.673   3.701  10.639 -0.5887  0.6633  1.0811
  755MOL0     C99537   1.615   3.621  10.528  0.0122 -0.0534  0.1089
  755MOL0     C99538   1.476   3.651  10.510 -0.0294  0.5879  0.1660
  755MOL0     C99539   1.452   3.797  10.484 -0.3186  0.3090 -0.2939
  755MOL0     C99540   1.313   3.823  10.434 -0.1946 -0.4769 -0.2297
  755MOL0     C99541   1.277   3.961  10.380  0.3113 -0.3282 -0.1355
  755MOL0     C99542   1.125   3.977  10.370 -0.2178  0.6163  1.0205
  755MOL0     C99543   1.043   3.967  10.498 -0.7566  0.1047 -0.6465
  755MOL0     C99544   0.921   4.047  10.492 -0.8821  0.3836  0.8744
  755MOL0     N99545   0.834   3.998  10.387 -0.0454 -0.5148  0.1673
  755MOL0     C99546   0.754   3.886  10.392 -0.3023  0.5737  0.1525
  755MOL0     C99547   0.681   3.885  10.281 -1.4640 -0.4007  0.8035
  755MOL0     C99548   0.575   3.792  10.237  0.4778  0.1082  1.1348
  755MOL0     C99549   0.451   3.805  10.333  0.0812 -0.1745  0.0107
  755MOL0     C99550   0.341   3.709  10.287  0.1178 -0.0753  0.6262
  755MOL0     C99551   0.214   3.716  10.371 -0.0097 -0.9013 -0.0395
  755MOL0     O99552   0.157   3.846  10.345  0.1236 -0.1629 -0.1914
  755MOL0     C99553   0.030   3.882  10.398 -0.1237  0.1263  0.2039
  755MOL0     C99554  -0.058   3.781  10.433  0.0211 -0.2266  0.0712
  755MOL0     C99555  -0.188   3.817  10.470  0.3733  0.0326  0.3924
  755MOL0     C99556  -0.235   3.947  10.463  0.7332 -0.1955  0.6928
  755MOL0     C99557  -0.372   3.985  10.505  0.6413  0.0852 -1.1993
  755MOL0     O99558  -0.463   3.893  10.547 -0.5350  0.9465  0.3941
  755MOL0     C99559  -0.583   3.927  10.602 -0.5012  0.3916 -0.8109
  755MOL0     C99560  -0.618   3.854  10.718  0.5491 -0.3053 -0.1335
  755MOL0     C99561  -0.748   3.876  10.770 -0.2231  0.0326  0.5278
  755MOL0     C99562  -0.828   3.982  10.722  0.4313 -0.1248  0.1374
  755MOL0     O99563  -0.949   3.995  10.779 -0.0668  0.8049 -0.2551
  755MOL0     C99564  -0.941   4.042  10.917  0.0120 -0.0164  0.4208
  755MOL0     C99565  -0.917   4.195  10.912 -0.2101 -0.3547 -0.3848
  755MOL0     C99566  -1.019   4.256  10.811  0.1192  0.1359  0.0829
  755MOL0     C99567  -1.020   4.410  10.826  0.2249  0.5585  0.8903
  755MOL0     C99568  -1.066   4.472  10.957  0.8618  0.2561 -0.2755
  755MOL0     C99569  -1.073   4.621  10.945 -0.0770  0.0677  0.0884
  755MOL0     C99570  -1.173   4.679  11.041  1.2659 -0.0197  1.0613
  755MOL0     C99571  -1.151   4.836  11.061 -0.4078  0.0017  0.1325
  755MOL0    Cl99572  -0.979   4.884  11.075 -0.1681 -0.2168 -0.1355
  755MOL0     C99573  -0.785   4.062  10.619  0.1612  0.9628 -0.2837
  755MOL0     C99574  -0.667   4.023  10.551 -0.1741 -0.7264  0.3727
  755MOL0     O99575  -0.396   4.106  10.513 -0.0321 -0.1776 -0.4220
  755MOL0     C99576  -0.147   4.050  10.431 -0.2352  0.8832 -0.1683
  755MOL0     C99577  -0.016   4.013  10.388  0.2123  0.5386 -0.6221
  755MOL0     N99578   0.721   4.000  10.210  0.8670  0.6007 -0.2877
  755MOL0     N99579   0.808   4.059  10.272  0.2597 -0.3557  0.1436
  755MOL0     C99580   1.857   3.757  10.766  0.6407 -0.3222  0.4913
  755MOL0     C99581   1.991   3.802  10.779  0.4380  0.2206 -0.3793
  755MOL0     C99582   2.382   3.948  10.815  0.0827 -1.2722 -0.8667
  755MOL0     C99583   2.422   4.064  10.891 -0.2407  0.8392 -0.3831
  755MOL0     C99584   2.544   4.069  10.956 -1.1355 -0.9128  0.4551
  755MOL0     C99585   2.636   3.960  10.947 -0.1069 -0.1318 -0.0986
  755MOL0     O99586   2.759   3.954  11.003 -0.4095 -0.9645 -0.0999
  755MOL0     C99587   2.821   4.057  11.088  0.0067 -0.6890 -0.4497
  755MOL0     C99588   2.957   4.013  11.149  0.4359 -0.2200 -0.0104
  755MOL0     C99589   3.078   3.995  11.056 -0.4351 -0.1535  0.0392
  755MOL0     C99590   3.165   4.116  11.039  0.3758  0.3975  0.2052
  755MOL0     C99591   3.100   4.229  10.968  0.0155  0.4367  1.7140
  755MOL0     C99592   3.048   4.316  10.906  0.2108 -0.7389 -0.1068
  755MOL0     C99593   2.603   3.855  10.870 -0.1005 -0.2358 -0.1048
  755MOL0     C99594   2.484   3.845  10.808  0.6289 -0.7493  0.1682
  755MOL0     H99595   2.114   3.734  10.465  1.4854 -1.2580  0.3216
  755MOL0     H99596   1.871   3.685  10.423  0.7211  1.2933 -0.3637
  755MOL0     H99597   1.632   3.518  10.559  2.3031 -0.2704 -1.6461
  755MOL0     H99598   1.665   3.634  10.432  0.1054 -0.5103  0.0950
  755MOL0     H99599   1.417   3.622  10.597  0.4615 -0.4773  0.1555
  755MOL0     H99600   1.437   3.581  10.435  0.3731 -0.7843  1.1949
  755MOL0     H99601   1.525   3.846  10.420  1.1098 -0.9943  0.2827
  755MOL0     H99602   1.457   3.840  10.585  1.7518 -0.2806 -0.0960
  755MOL0     H99603   1.288   3.749  10.358  0.5177  0.2920 -1.2337
  755MOL0     H99604   1.257   3.794  10.523  0.8330 -0.7029  0.3574
  755MOL0     H99605   1.317   3.976  10.279 -0.1761  1.5263 -0.0881
  755MOL0     H99606   1.316   4.037  10.449 -2.6069  0.8334  0.3773
  755MOL0     H99607   1.092   3.905  10.294  3.6705  1.5669 -1.8775
  755MOL0     H99608   1.106   4.074  10.323 -1.4989  0.5282  1.3110
  755MOL0     H99609   1.008   3.866  10.519 -1.0867  0.5728  1.2437
  755MOL0     H99610   1.101   4.001  10.585  2.1025  0.2725 -2.4946
  755MOL0     H99611   0.962   4.147  10.472  0.4042 -0.0716  1.0972
  755MOL0     H99612   0.868   4.058  10.587  0.7410  2.1703  1.6503
  755MOL0     H99613   0.730   3.803  10.458  0.0547  0.4606  0.1405
  755MOL0     H99614   0.623   3.695  10.220  1.6064  1.1119 -2.2391
  755MOL0     H99615   0.539   3.817  10.137 -1.7817  1.6486  2.2419
  755MOL0     H99616   0.422   3.911  10.336 -0.7046 -0.4004  0.9512
  755MOL0     H99617   0.469   3.781  10.439  3.7122 -0.7197 -0.6202
  755MOL0     H99618   0.323   3.717  10.180 -1.1324 -0.2390  0.8047
  755MOL0     H99619   0.381   3.608  10.297 -1.9564 -0.9481  0.6214
  755MOL0     H99620   0.241   3.716  10.477  1.4131  0.7567 -0.3485
  755MOL0     H99621   0.145   3.638  10.337 -2.4955  1.7262 -1.4537
  755MOL0     H99622  -0.030   3.679  10.456 -1.0889 -0.5389  0.0942
  755MOL0     H99623  -0.269   3.749  10.494 -2.7854  3.2473 -0.3867
  755MOL0     H99624  -0.561   3.769  10.755  0.7896 -0.3412 -0.5742
  755MOL0     H99625  -0.791   3.812  10.847 -1.1737 -0.7682 -0.6321
  755MOL0     H99626  -0.845   4.008  10.956  0.6869 -1.2314 -2.0354
  755MOL0     H99627  -1.026   4.013  10.980  1.2064  0.1928  2.1876
  755MOL0     H99628  -0.813   4.209  10.878  0.0165  1.0290  0.7607
  755MOL0     H99629  -0.911   4.242  11.010  2.4292 -0.1469 -0.5626
  755MOL0     H99630  -1.115   4.227  10.856  0.6415 -3.6087 -0.8849
  755MOL0     H99631  -1.018   4.220  10.708 -1.2474  0.1337  0.0416
  755MOL0     H99632  -0.922   4.443  10.789 -1.0939  1.0816 -2.4432
  755MOL0     H99633  -1.087   4.444  10.746 -1.8189  0.7245  2.5909
  755MOL0     H99634  -0.992   4.458  11.036  1.2274  0.4954 -0.5712
  755MOL0     H99635  -1.157   4.420  10.987  1.3308  1.0545  2.8782
  755MOL0     H99636  -1.083   4.645  10.839  0.3107 -0.7818 -0.1463
  755MOL0     H99637  -0.972   4.655  10.973  0.0956  0.3984 -0.8949
  755MOL0     H99638  -1.276   4.670  11.005  0.7097 -1.2573  2.7967
  755MOL0     H99639  -1.161   4.639  11.142 -0.4018 -0.9988  0.9083
  755MOL0     H99640  -1.207   4.871  11.148 -3.0103  2.6216 -2.3599
  755MOL0     H99641  -1.199   4.901  10.987  0.5513 -0.0922 -0.5950
  755MOL0     H99642  -0.837   4.153  10.590 -0.8667  1.1634  1.9473
  755MOL0     H99643  -0.643   4.068  10.455  0.0448  0.2337  0.8704
  755MOL0     H99644  -0.170   4.155  10.444  0.0871  0.9374 -0.0149
  755MOL0     H99645   0.043   4.095  10.350  0.6293  0.6498  0.2461
  755MOL0     H99646   1.791   3.750  10.852  1.4594 -2.4168  0.9888
  755MOL0     H99647   2.031   3.831  10.876 -0.2536  0.0704 -0.0423
  755MOL0     H99648   2.346   4.140  10.906 -1.8484 -0.6767 -0.3914
  755MOL0     H99649   2.568   4.160  11.011 -1.1768 -0.3541 -0.4142
  755MOL0     H99650   2.750   4.083  11.167  1.1078  3.0192 -0.4844
  755MOL0     H99651   2.840   4.140  11.018 -2.0715  1.3311  1.2169
  755MOL0     H99652   2.993   4.089  11.219 -1.3812  0.5549  0.1412
  755MOL0     H99653   2.941   3.922  11.208 -3.9443  1.9716  2.7075
  755MOL0     H99654   3.029   3.971  10.961  0.2607  4.4313 -1.7692
  755MOL0     H99655   3.142   3.913  11.090 -2.0158 -1.4241  0.0599
  755MOL0     H99656   3.189   4.159  11.136  0.6244 -0.2417  0.4332
  755MOL0     H99657   3.255   4.090  10.983  1.0868  1.4165  0.8565
  755MOL0     H99658   3.000   4.393  10.849  2.4821 -0.0474 -1.2060
  755MOL0     H99659   2.669   3.768  10.868  1.8816  1.0979  1.8331
  755MOL0     H99660   2.464   3.746  10.768 -1.6082 -1.4581  2.7603
  756MOL0     O99661  11.261   1.251   4.307  0.3050 -0.5255  0.0198
  756MOL0     C99662  11.238   1.293   4.194  0.6365  0.6485 -0.3399
  756MOL0     O99663  11.113   1.314   4.143  0.1500  0.0788 -0.6028
  756MOL0     C99664  10.999   1.239   4.177 -0.3768 -0.3408  0.3480
  756MOL0     C99665  10.874   1.298   4.148  0.1680 -0.2371  0.3001
  756MOL0     C99666  10.757   1.219   4.145  0.0642  0.3987  0.8668
  756MOL0     C99667  10.758   1.092   4.192 -0.2479  0.0866 -0.2229
  756MOL0     O99668  10.641   1.023   4.196  0.1076  0.5022  0.0950
  756MOL0     C99669  10.618   0.898   4.274  0.8766 -1.4237  0.2244
  756MOL0     C99670  10.482   0.852   4.231  0.5938  0.7369 -0.8105
  756MOL0     C99671  10.379   0.938   4.304 -0.1346 -0.4894 -0.6168
  756MOL0     C99672  10.242   0.886   4.260  0.7387 -0.4881 -0.3411
  756MOL0     C99673  10.124   0.973   4.315 -1.1133  0.5086  0.2981
  756MOL0     C99674  10.097   1.106   4.236  0.1891 -0.5342  0.0704
  756MOL0     C99675   9.987   1.183   4.318  0.0555  0.4239 -0.6181
  756MOL0     C99676   9.933   1.301   4.237  0.3946 -0.1393  0.6039
  756MOL0     N99677   9.831   1.366   4.318 -0.2326 -0.0314 -0.5886
  756MOL0     C99678   9.697   1.326   4.328  0.1196  0.1494  0.4282
  756MOL0     C99679   9.653   1.389   4.438  0.4211  0.8602 -0.6567
  756MOL0     C99680   9.509   1.367   4.485  0.5312  0.3103  0.0141
  756MOL0     C99681   9.483   1.416   4.616 -0.0954 -0.3426  0.4149
  756MOL0     C99682   9.560   1.345   4.722  0.6091  0.0349 -0.4076
  756MOL0     C99683   9.538   1.382   4.868 -0.3518  0.3035  0.2949
  756MOL0     O99684   9.392   1.381   4.903 -0.0822 -0.2781 -0.1297
  756MOL0     C99685   9.354   1.432   5.019 -0.8275 -0.6401 -0.7072
  756MOL0     C99686   9.444   1.452   5.124  0.5233  0.3204 -0.5696
  756MOL0     C99687   9.399   1.486   5.248 -0.5040  0.3141 -0.2835
  756MOL0     C99688   9.257   1.509   5.278 -0.0563 -0.4981  0.5955
  756MOL0     C99689   9.204   1.547   5.407 -0.1295 -0.5259  0.2351
  756MOL0     O99690   9.305   1.571   5.501  1.0104  0.3699 -0.2770
  756MOL0     C99691   9.253   1.603   5.622  0.8399 -0.1741  0.0884
  756MOL0     C99692   9.275   1.511   5.729  0.3539  0.3483  0.7239
  756MOL0     C99693   9.229   1.544   5.859 -0.0807 -0.1423 -0.3227
  756MOL0     C99694   9.171   1.671   5.883 -0.4768  1.9375  0.3528
  756MOL0     O99695   9.134   1.719   6.011  0.0623  0.3397 -0.0030
  756MOL0     C99696   9.152   1.632   6.127 -0.2232 -0.2637 -0.5969
  756MOL0     C99697   9.096   1.708   6.251 -0.3182  0.5022 -0.6580
  756MOL0     C99698   8.940   1.725   6.239 -0.8285 -0.1823  1.3988
  756MOL0     C99699   8.864   1.589   6.253  0.3171 -0.8646  0.1730
  756MOL0     C99700   8.712   1.614   6.281 -0.2434  0.0580 -0.1605
  756MOL0     C99701   8.682   1.705   6.409  0.2485 -0.7191 -0.4735
  756MOL0     C99702   8.746   1.667   6.544  0.1950  0.7568 -0.6825
  756MOL0     C99703   8.716   1.762   6.661 -0.4089  0.5844  0.2087
  756MOL0    Cl99704   8.802   1.923   6.644 -0.2596 -0.1449 -0.1450
  756MOL0     C99705   9.155   1.762   5.778 -0.7940  0.0680  0.8042
  756MOL0     C99706   9.196   1.732   5.647  0.0751  1.0030  1.4447
  756MOL0     O99707   9.077   1.576   5.410 -0.4213 -0.7618  0.7607
  756MOL0     C99708   9.171   1.506   5.165  0.8879  0.9154  0.1239
  756MOL0     C99709   9.215   1.456   5.042 -0.8117 -0.3265 -0.4560
  756MOL0     N99710   9.758   1.470   4.484  0.4498 -0.4533 -0.5997
  756MOL0     N99711   9.866   1.450   4.416 -0.4544 -0.7771 -0.6737
  756MOL0     C99712  10.879   1.029   4.231  0.7072 -0.1364  1.0084
  756MOL0     C99713  10.993   1.104   4.222 -0.3017  0.1788 -0.1182
  756MOL0     C99714  11.351   1.348   4.115 -1.0322  0.0199 -0.1430
  756MOL0     C99715  11.479   1.370   4.178 -0.7092 -0.1167  0.4367
  756MOL0     C99716  11.589   1.424   4.109 -0.0057 -0.9778 -0.0214
  756MOL0     C99717  11.580   1.443   3.970 -1.0275  0.1067 -0.0655
  756MOL0     O99718  11.674   1.505   3.897  0.9256 -0.0137  0.9376
  756MOL0     C99719  11.757   1.422   3.820 -0.5695 -0.5374  0.4951
  756MOL0     C99720  11.850   1.337   3.911 -0.0382  0.7575 -0.2333
  756MOL0     C99721  11.942   1.417   4.006 -0.9455 -0.0732 -0.4665
  756MOL0     C99722  12.090   1.448   3.955  0.2921 -0.7321  0.3900
  756MOL0     C99723  12.094   1.524   3.828  0.2182  0.4814 -0.6453
  756MOL0     C99724  12.084   1.584   3.719 -0.7482 -0.0101 -0.1758
  756MOL0     C99725  11.459   1.408   3.914 -0.3300 -0.6306 -0.0369
  756MOL0     C99726  11.343   1.367   3.978 -0.2585  1.0862 -0.1988
  756MOL0     H99727  10.871   1.400   4.112 -1.5140 -1.2276 -2.6939
  756MOL0     H99728  10.663   1.265   4.116 -0.5485 -1.8918 -1.0588
  756MOL0     H99729  10.618   0.910   4.383  0.0434  0.9861  0.0103
  756MOL0     H99730  10.683   0.816   4.241 -1.1056 -2.7537 -0.5650
  756MOL0     H99731  10.463   0.748   4.259  1.8621  0.3979 -1.1604
  756MOL0     H99732  10.471   0.847   4.123  2.1736 -0.9729 -0.9404
  756MOL0     H99733  10.403   1.038   4.268  2.7504 -1.2419 -1.0383
  756MOL0     H99734  10.393   0.931   4.412 -2.0919 -2.8324 -0.4133
  756MOL0     H99735  10.224   0.879   4.152 -0.9996  1.2340 -0.2112
  756MOL0     H99736  10.226   0.791   4.312  0.5919 -1.3137 -1.8110
  756MOL0     H99737  10.134   0.985   4.423 -0.3898  0.5047  0.2401
  756MOL0     H99738  10.038   0.907   4.297  1.3035 -2.3366 -2.0040
  756MOL0     H99739  10.060   1.091   4.134 -0.0507  0.4566 -0.0043
  756MOL0     H99740  10.192   1.159   4.241 -1.0551  1.7361  3.6521
  756MOL0     H99741   9.903   1.114   4.331  2.6466 -3.1542 -1.3675
  756MOL0     H99742  10.013   1.217   4.418 -2.3374 -0.1356  0.2706
  756MOL0     H99743   9.881   1.263   4.149  0.5991 -0.7674  0.7534
  756MOL0     H99744  10.002   1.377   4.198 -0.9500  0.4051 -0.8209
  756MOL0     H99745   9.638   1.270   4.256  3.0164 -0.8525 -1.3200
  756MOL0     H99746   9.476   1.263   4.493  0.3396  0.4913  1.9562
  756MOL0     H99747   9.443   1.421   4.416  0.4072 -1.2985 -1.1962
  756MOL0     H99748   9.375   1.407   4.636 -0.0089 -1.1448  0.5715
  756MOL0     H99749   9.517   1.519   4.610  2.9328 -1.2319  0.7231
  756MOL0     H99750   9.559   1.238   4.697  2.3845 -0.4912  1.4418
  756MOL0     H99751   9.664   1.377   4.706  1.2878 -1.9618 -0.3057
  756MOL0     H99752   9.562   1.486   4.892 -1.5356  0.5846  0.3301
  756MOL0     H99753   9.602   1.315   4.926  0.8893  0.3260 -1.0127
  756MOL0     H99754   9.550   1.430   5.117  0.9892  1.8267  0.9431
  756MOL0     H99755   9.475   1.502   5.324 -0.6066  2.5259 -0.5528
  756MOL0     H99756   9.333   1.419   5.723  0.3044  0.3498  0.1652
  756MOL0     H99757   9.232   1.471   5.940 -2.1841  0.4077  0.3216
  756MOL0     H99758   9.258   1.611   6.137 -0.0748  0.6553 -0.0429
  756MOL0     H99759   9.092   1.542   6.110  0.1255 -0.3974 -1.1189
  756MOL0     H99760   9.134   1.809   6.269  0.1371  0.2339 -0.0522
  756MOL0     H99761   9.126   1.645   6.336  2.2432  1.4249 -0.7873
  756MOL0     H99762   8.925   1.762   6.137 -0.6866 -2.6456  0.4137
  756MOL0     H99763   8.908   1.795   6.316  2.2688  0.2545  2.4125
  756MOL0     H99764   8.872   1.525   6.164 -2.3395  1.0151 -1.5668
  756MOL0     H99765   8.899   1.545   6.347  0.5322  2.7153  1.9435
  756MOL0     H99766   8.665   1.518   6.305 -0.2385 -0.0779 -0.7001
  756MOL0     H99767   8.655   1.661   6.200 -0.0464  1.2057  0.3430
  756MOL0     H99768   8.579   1.713   6.444 -0.0439  0.3679 -1.5193
  756MOL0     H99769   8.702   1.811   6.391 -2.0868  0.0806  1.1650
  756MOL0     H99770   8.730   1.561   6.567  2.3465  1.1792  4.0514
  756MOL0     H99771   8.854   1.677   6.529  0.1822 -1.3240 -2.7265
  756MOL0     H99772   8.758   1.716   6.751  1.3410  2.5359  0.4614
  756MOL0     H99773   8.608   1.775   6.678 -0.4209 -1.9396  2.8885
  756MOL0     H99774   9.124   1.863   5.799  1.8790  1.3160 -0.7202
  756MOL0     H99775   9.189   1.810   5.572 -0.7307  1.3943  1.9165
  756MOL0     H99776   9.068   1.537   5.177  0.6543  0.3529 -0.3742
  756MOL0     H99777   9.158   1.437   4.951 -1.4768  3.7211 -1.0820
  756MOL0     H99778  10.875   0.928   4.270 -0.8711 -0.3420  0.4031
  756MOL0     H99779  11.091   1.072   4.256 -0.1213  2.1686  1.4222
  756MOL0     H99780  11.483   1.330   4.279 -1.0052 -0.7014  0.2170
  756MOL0     H99781  11.687   1.430   4.155  1.6805  0.5251 -3.3991
  756MOL0     H99782  11.809   1.484   3.745  1.1720  0.0841  2.1371
  756MOL0     H99783  11.700   1.352   3.758  0.3503 -1.6650  0.8957
  756MOL0     H99784  11.792   1.269   3.973 -1.6275  1.6035 -0.7262
  756MOL0     H99785  11.909   1.273   3.846 -1.0248 -2.2577  1.6326
  756MOL0     H99786  11.962   1.377   4.106 -0.7267  0.8911 -0.1099
  756MOL0     H99787  11.886   1.506   4.036 -2.0285  0.2459 -3.1473
  756MOL0     H99788  12.136   1.509   4.034  0.5919 -0.5649  0.0919
  756MOL0     H99789  12.145   1.354   3.942 -1.2987 -1.5160 -0.9108
  756MOL0     H99790  12.058   1.628   3.625 -0.2566 -3.1873 -1.9500
  756MOL0     H99791  11.470   1.423   3.807  0.6125 -0.5914  0.0540
  756MOL0     H99792  11.252   1.354   3.921 -0.4663  0.5599  0.2372
  757MOL0     O99793   8.166   1.690   2.814 -0.4214 -0.3609  0.1761
  757MOL0     C99794   8.191   1.694   2.693  0.7949  0.1837  0.2726
  757MOL0     O99795   8.105   1.675   2.591  0.4594 -0.1480 -0.7919
  757MOL0     C99796   7.979   1.624   2.619  0.2395  1.0777 -1.3707
  757MOL0     C99797   7.972   1.482   2.596  1.1637 -0.1742  0.1597
  757MOL0     C99798   7.846   1.420   2.600  0.8460  0.3958  0.5199
  757MOL0     C99799   7.733   1.487   2.642 -0.2832  0.4474 -0.3494
  757MOL0     O99800   7.622   1.409   2.654  0.0706 -0.7611  0.1100
  757MOL0     C99801   7.550   1.427   2.765 -0.4155 -0.8813 -0.9998
  757MOL0     C99802   7.432   1.326   2.768 -0.7545 -0.7061 -0.0209
  757MOL0     C99803   7.372   1.313   2.915  0.0261 -0.0811 -0.2837
  757MOL0     C99804   7.253   1.221   2.920 -0.4575  0.2674  0.2546
  757MOL0     C99805   7.126   1.281   2.852  0.2920  0.6675 -0.0506
  757MOL0     C99806   7.002   1.188   2.866 -0.1537 -0.0147  0.0280
  757MOL0     C99807   6.869   1.270   2.854  0.4057 -0.6462  0.9416
  757MOL0     C99808   6.756   1.197   2.772 -0.1960  0.0393  0.2061
  757MOL0     N99809   6.708   1.078   2.836 -0.1026 -0.0961  0.7236
  757MOL0     C99810   6.631   1.069   2.951 -0.4783 -0.2189 -0.3274
  757MOL0     C99811   6.558   0.959   2.939  0.8007  0.2770  0.3033
  757MOL0     C99812   6.448   0.902   3.033  0.5894 -0.7277  0.1487
  757MOL0     C99813   6.474   0.761   3.070  0.0430  0.1773 -0.1853
  757MOL0     C99814   6.367   0.692   3.152 -0.7240  0.0109 -0.1002
  757MOL0     C99815   6.412   0.546   3.166 -0.8100  0.4939  0.2857
  757MOL0     O99816   6.370   0.482   3.044 -0.2129 -0.6347 -0.4266
  757MOL0     C99817   6.255   0.408   3.064  0.0208  0.4920  0.7393
  757MOL0     C99818   6.254   0.306   3.163  0.0883  0.0486  0.1928
  757MOL0     C99819   6.147   0.227   3.169  0.3786 -1.1013 -0.2156
  757MOL0     C99820   6.035   0.247   3.091  0.3038 -0.1517  0.6356
  757MOL0     C99821   5.915   0.171   3.108 -0.4729  0.3876 -0.1307
  757MOL0     O99822   5.815   0.215   3.026 -0.5425  0.0762  0.0478
  757MOL0     C99823   5.687   0.171   3.054 -1.4567  0.0706  0.2576
  757MOL0     C99824   5.621   0.222   3.167  0.4241  0.1098  0.6271
  757MOL0     C99825   5.493   0.184   3.182 -0.3824  0.6194 -0.8355
  757MOL0     C99826   5.428   0.097   3.091  0.5525 -0.3291 -0.4244
  757MOL0     O99827   5.296   0.056   3.101 -0.6708  0.1614  0.5271
  757MOL0     C99828   5.206   0.126   3.187  0.0380 -0.2046  0.1532
  757MOL0     C99829   5.073   0.060   3.179  0.1460  0.3249 -0.7021
  757MOL0     C99830   4.965   0.134   3.258  0.1804 -0.5243 -0.6828
  757MOL0     C99831   4.833   0.080   3.222 -0.9428  1.0469 -0.2923
  757MOL0     C99832   4.729   0.158   3.296 -0.0788 -0.2040  0.2612
  757MOL0     C99833   4.589   0.089   3.269  0.3476  0.4947  0.1715
  757MOL0     C99834   4.477   0.173   3.331  0.3663  0.5642  0.0062
  757MOL0     C99835   4.494   0.211   3.480  0.2289 -0.9477  0.2960
  757MOL0    Cl99836   4.516   0.066   3.580  0.0598  0.0310 -0.0105
  757MOL0     C99837   5.495   0.048   2.977  0.3994  0.1450 -0.9663
  757MOL0     C99838   5.626   0.094   2.952  0.2411  0.4372  0.2396
  757MOL0     O99839   5.910   0.076   3.191 -0.0181 -0.1215 -0.0027
  757MOL0     C99840   6.039   0.339   2.990 -0.0390 -0.3052 -0.3898
  757MOL0     C99841   6.154   0.419   2.967  0.5178 -0.1237 -0.3104
  757MOL0     N99842   6.608   0.886   2.831  0.2716 -0.7036 -0.5309
  757MOL0     N99843   6.699   0.957   2.776  0.0716  0.1388  0.3559
  757MOL0     C99844   7.734   1.626   2.653 -0.0069 -0.4115  0.1711
  757MOL0     C99845   7.860   1.691   2.659 -0.8677 -0.0644 -0.4085
  757MOL0     C99846   8.323   1.742   2.648 -1.0703 -0.1001 -0.1889
  757MOL0     C99847   8.406   1.809   2.738 -0.2764 -1.5623  0.4870
  757MOL0     C99848   8.541   1.840   2.697  0.7220 -0.1337  1.0425
  757MOL0     C99849   8.584   1.806   2.570 -0.4796 -0.1359  1.0749
  757MOL0     O99850   8.697   1.865   2.515  0.0015  0.5472 -0.1317
  757MOL0     C99851   8.780   1.942   2.599 -0.2713 -0.9559 -1.3959
  757MOL0     C99852   8.890   2.037   2.550 -0.3561 -0.5790 -0.1146
  757MOL0     C99853   9.015   1.965   2.521 -0.5086 -0.1713  1.3135
  757MOL0     C99854   9.143   2.041   2.476 -0.4463  0.3219 -0.2612
  757MOL0     C99855   9.110   2.133   2.363 -0.4354 -0.4547  0.3927
  757MOL0     C99856   9.085   2.210   2.270  0.0173 -0.0795 -0.2394
  757MOL0     C99857   8.504   1.735   2.486  0.0933 -0.3054  0.2654
  757MOL0     C99858   8.375   1.705   2.526 -0.1280  0.4677  0.0942
  757MOL0     H99859   8.063   1.432   2.565  1.5865  0.6593  0.0313
  757MOL0     H99860   7.830   1.316   2.576  2.1447  0.0690  0.9851
  757MOL0     H99861   7.509   1.527   2.781 -0.2102 -0.5162 -2.6426
  757MOL0     H99862   7.613   1.394   2.848 -0.7031 -1.4194 -0.9937
  757MOL0     H99863   7.465   1.226   2.739  1.9681  0.4968 -1.4139
  757MOL0     H99864   7.359   1.364   2.696  1.1878  1.1968 -1.1185
  757MOL0     H99865   7.356   1.411   2.961  3.5738 -0.4725  2.2408
  757MOL0     H99866   7.442   1.265   2.984  0.3324  1.4750  0.5276
  757MOL0     H99867   7.281   1.123   2.880  0.5101  0.9277 -0.7714
  757MOL0     H99868   7.232   1.197   3.024  2.6511 -3.4986  0.2675
  757MOL0     H99869   7.138   1.305   2.746 -0.9143  2.6512  0.2151
  757MOL0     H99870   7.092   1.372   2.902  1.0089 -0.0390  1.8183
  757MOL0     H99871   7.012   1.129   2.957  0.6810 -1.5640 -1.0258
  757MOL0     H99872   7.008   1.116   2.784 -3.6886  1.8880 -2.1768
  757MOL0     H99873   6.819   1.294   2.949 -2.1547 -2.5047  0.1842
  757MOL0     H99874   6.889   1.363   2.802  2.7866 -0.0809  2.6916
  757MOL0     H99875   6.805   1.162   2.681  3.7023  2.4865  1.1450
  757MOL0     H99876   6.672   1.261   2.743  0.4032 -0.2510 -2.4457
  757MOL0     H99877   6.618   1.139   3.033  1.0200  1.5342 -1.4903
  757MOL0     H99878   6.350   0.908   2.986  0.3696  0.7061  0.7339
  757MOL0     H99879   6.438   0.960   3.126  2.9968  0.3670 -0.1768
  757MOL0     H99880   6.568   0.742   3.122 -1.4421 -2.2919  1.7971
  757MOL0     H99881   6.475   0.703   2.977  0.6805 -1.6016  0.8746
  757MOL0     H99882   6.371   0.736   3.252 -0.3165 -0.2895  0.0159
  757MOL0     H99883   6.266   0.701   3.109 -1.0469  0.8870  0.7942
  757MOL0     H99884   6.358   0.521   3.258 -1.7684  2.8382  0.4376
  757MOL0     H99885   6.516   0.516   3.186 -2.0562 -3.7003  1.5380
  757MOL0     H99886   6.332   0.276   3.231 -1.7429 -3.6793  0.8907
  757MOL0     H99887   6.149   0.143   3.238 -2.2847 -1.7479 -0.8046
  757MOL0     H99888   5.677   0.287   3.233 -1.9900  1.9532  0.9494
  757MOL0     H99889   5.443   0.213   3.274  3.0559 -1.2106  1.8126
  757MOL0     H99890   5.195   0.227   3.149 -2.8120 -0.3339  0.3904
  757MOL0     H99891   5.234   0.128   3.293 -0.7909 -1.9626  0.4458
  757MOL0     H99892   5.074  -0.040   3.222 -1.1843 -0.6516 -2.7884
  757MOL0     H99893   5.043   0.046   3.074  0.7893  1.2381 -1.0276
  757MOL0     H99894   4.971   0.242   3.238  2.3517 -0.2838  0.8600
  757MOL0     H99895   4.997   0.116   3.361  1.6371 -0.6350 -1.1265
  757MOL0     H99896   4.815   0.083   3.114 -0.9969  3.8742 -0.2934
  757MOL0     H99897   4.836  -0.024   3.254 -0.4636  1.5319  1.3710
  757MOL0     H99898   4.730   0.259   3.255  1.2173  0.0389  0.8566
  757MOL0     H99899   4.758   0.168   3.401  1.4707  0.6570 -0.2130
  757MOL0     H99900   4.590  -0.012   3.312 -0.4624  0.7716  0.8670
  757MOL0     H99901   4.572   0.080   3.162 -0.8667 -0.5837  0.4371
  757MOL0     H99902   4.465   0.270   3.281 -2.0340  0.1124 -0.4283
  757MOL0     H99903   4.380   0.123   3.324  0.0823  0.9376  1.1017
  757MOL0     H99904   4.412   0.270   3.520  1.5703  0.1572  1.5047
  757MOL0     H99905   4.581   0.276   3.486  1.7326 -2.8376  0.1014
  757MOL0     H99906   5.444  -0.015   2.905 -2.3480  2.0602 -0.8316
  757MOL0     H99907   5.679   0.053   2.867  1.8488  0.4788  1.1886
  757MOL0     H99908   5.969   0.372   2.914 -1.1892 -2.5661 -0.3743
  757MOL0     H99909   6.152   0.502   2.897  0.7913  1.6366  1.6687
  757MOL0     H99910   7.648   1.680   2.691 -0.5890  0.6926 -2.5311
  757MOL0     H99911   7.852   1.799   2.674  2.5943  0.1680  0.6306
  757MOL0     H99912   8.366   1.839   2.834  0.3716 -1.3326  0.6902
  757MOL0     H99913   8.586   1.895   2.779 -0.5862  0.7407  1.2024
  757MOL0     H99914   8.832   1.881   2.674  0.7112 -0.8504 -1.9687
  757MOL0     H99915   8.718   2.004   2.665  1.3831 -2.7811  2.1965
  757MOL0     H99916   8.855   2.092   2.462 -0.5612  2.2250  1.5844
  757MOL0     H99917   8.920   2.105   2.631  4.3115 -3.5046  0.9771
  757MOL0     H99918   8.990   1.897   2.439  0.1823 -0.1363  1.0650
  757MOL0     H99919   9.033   1.904   2.610 -2.0955  0.1698  1.8982
  757MOL0     H99920   9.186   2.085   2.566 -1.1175  1.0899 -0.3018
  757MOL0     H99921   9.223   1.974   2.444 -0.3550 -0.3891  1.3913
  757MOL0     H99922   9.065   2.272   2.184  0.4876  1.6821  0.8719
  757MOL0     H99923   8.529   1.707   2.384 -1.7755 -2.3902  0.3085
  757MOL0     H99924   8.310   1.645   2.463  0.6596 -0.7971  0.4577
  758MOL0     O99925   5.104   3.371   0.912  0.3473 -0.7519  0.0542
  758MOL0     C99926   5.188   3.322   0.988 -0.5429  0.0473 -0.1352
  758MOL0     O99927   5.187   3.194   1.034 -0.8532  0.1809 -0.5302
  758MOL0     C99928   5.065   3.129   1.013  0.5330 -0.8473  0.8250
  758MOL0     C99929   4.979   3.118   1.123 -0.7285  0.2127 -1.0434
  758MOL0     C99930   4.859   3.048   1.106 -0.6920  0.6448 -0.3602
  758MOL0     C99931   4.822   2.986   0.991  0.4254 -0.0961 -0.0833
  758MOL0     O99932   4.703   2.916   0.968 -0.4588  0.0887 -0.0422
  758MOL0     C99933   4.646   2.843   1.079 -0.0468 -0.3748  0.2987
  758MOL0     C99934   4.543   2.742   1.024  1.2967  0.1286 -0.6046
  758MOL0     C99935   4.435   2.833   0.954 -0.0635 -0.0703  0.3118
  758MOL0     C99936   4.319   2.755   0.911  0.2603 -0.3512 -0.2836
  758MOL0     C99937   4.204   2.851   0.862  0.0715 -0.6759  0.7744
  758MOL0     C99938   4.082   2.752   0.843  0.2378 -0.3948 -0.1114
  758MOL0     C99939   3.950   2.821   0.798 -0.0342 -0.4302  0.2287
  758MOL0     C99940   3.851   2.706   0.760 -0.7842 -0.2135  0.2210
  758MOL0     N99941   3.738   2.767   0.696 -0.6429 -0.1420  0.5352
  758MOL0     C99942   3.651   2.850   0.757  1.8356 -0.0489  0.3589
  758MOL0     C99943   3.571   2.889   0.652 -0.3256 -0.2444  0.7258
  758MOL0     C99944   3.468   2.997   0.642  0.7194  0.0263 -0.2395
  758MOL0     C99945   3.339   2.948   0.584  0.0836  0.2313  0.8405
  758MOL0     C99946   3.244   3.073   0.591  0.2702 -0.3356 -0.1586
  758MOL0     C99947   3.111   3.049   0.512 -0.2272  0.7871 -0.0831
  758MOL0     O99948   3.017   2.981   0.591  0.3852 -0.2224 -0.1325
  758MOL0     C99949   2.901   3.052   0.590 -0.0209  1.0969  0.0484
  758MOL0     C99950   2.785   2.984   0.544 -0.2137 -0.7545  0.6152
  758MOL0     C99951   2.655   3.036   0.555 -0.2934  0.0469 -0.5709
  758MOL0     C99952   2.637   3.161   0.619 -0.6206  0.6407  0.2262
  758MOL0     C99953   2.506   3.215   0.626 -0.4408  0.3539 -0.2124
  758MOL0     O99954   2.410   3.122   0.642  0.4318 -0.3654  0.5675
  758MOL0     C99955   2.272   3.151   0.620 -0.6118  0.4146  0.5954
  758MOL0     C99956   2.214   3.261   0.556  0.6888 -0.4100 -0.9467
  758MOL0     C99957   2.074   3.273   0.540 -0.4304  0.2671 -0.3371
  758MOL0     C99958   1.990   3.191   0.609 -0.6119  0.1102 -0.9654
  758MOL0     O99959   1.856   3.224   0.598 -0.3736 -0.4503 -0.4466
  758MOL0     C99960   1.803   3.349   0.649 -0.2312 -0.1827  0.2845
  758MOL0     C99961   1.671   3.385   0.586  0.6690  0.0135 -0.1443
  758MOL0     C99962   1.571   3.274   0.589 -0.3581  0.5576  0.2583
  758MOL0     C99963   1.454   3.300   0.481  1.1317 -0.4283 -0.3641
  758MOL0     C99964   1.334   3.211   0.514 -0.3857 -0.8836  0.3634
  758MOL0     C99965   1.206   3.251   0.442  0.5796  0.3798  0.0480
  758MOL0     C99966   1.095   3.183   0.533  0.0413  0.8529 -0.6643
  758MOL0     C99967   0.977   3.205   0.447  0.1142  0.5301  0.4528
  758MOL0    Cl99968   0.822   3.163   0.518 -0.1157  0.2609  0.0681
  758MOL0     C99969   2.047   3.079   0.676 -0.0779  0.1351  0.5111
  758MOL0     C99970   2.186   3.054   0.666  0.1687 -0.2414  0.1368
  758MOL0     O99971   2.492   3.330   0.589 -0.9666  0.0441  1.0262
  758MOL0     C99972   2.751   3.236   0.644  0.1694  0.0809 -0.2821
  758MOL0     C99973   2.880   3.185   0.627 -0.3579 -0.3977  0.1138
  758MOL0     N99974   3.600   2.813   0.536 -0.1017  0.0463 -0.0590
  758MOL0     N99975   3.700   2.744   0.570 -0.8828  0.4406 -0.5049
  758MOL0     C99976   4.902   3.009   0.882  0.5079  0.2385  0.5324
  758MOL0     C99977   5.024   3.074   0.889  0.6752  0.0861 -0.4438
  758MOL0     C99978   5.320   3.394   1.016 -0.4536  0.4649  0.2176
  758MOL0     C99979   5.413   3.371   1.121 -1.2478  0.0155 -0.2911
  758MOL0     C99980   5.528   3.448   1.140  1.0144  0.3987  0.7216
  758MOL0     C99981   5.548   3.556   1.057 -0.5405 -0.1772 -0.6122
  758MOL0     O99982   5.666   3.622   1.072 -0.4349  0.0918  0.6864
  758MOL0     C99983   5.703   3.748   1.005  0.8555  0.6158 -0.4900
  758MOL0     C99984   5.814   3.796   1.087 -0.4235 -0.4205 -0.3766
  758MOL0     C99985   5.773   3.878   1.213  0.6830 -0.2312 -0.3592
  758MOL0     C99986   5.795   3.805   1.356 -0.1710  0.6765  0.5465
  758MOL0     C99987   5.713   3.861   1.467  0.2154 -0.1969  0.0602
  758MOL0     C99988   5.664   3.900   1.575  0.3489  0.3708 -0.3041
  758MOL0     C99989   5.451   3.599   0.968 -0.3633  0.4654 -0.2149
  758MOL0     C99990   5.340   3.513   0.941 -0.2765 -0.5363 -0.2148
  758MOL0     H99991   5.010   3.167   1.214  2.3064 -0.8078 -1.4225
  758MOL0     H99992   4.799   3.035   1.195  1.1241 -2.3484  0.5600
  758MOL0     H99993   4.589   2.922   1.129 -0.6331 -1.1219  0.8340
  758MOL0     H99994   4.715   2.788   1.144 -0.7727 -2.9353 -0.9877
  758MOL0     H99995   4.485   2.691   1.102  2.1255 -1.5470 -1.0517
  758MOL0     H99996   4.591   2.665   0.964  0.5342 -1.4549  0.7334
  758MOL0     H99997   4.480   2.863   0.858  0.0673 -0.4720  0.2430
  758MOL0     H99998   4.409   2.916   1.020 -1.2818  0.4417 -0.7591
  758MOL0     H99999   4.351   2.687   0.831 -2.0887 -0.6894 -1.0066
  758MOL0     H    0   4.281   2.692   0.992  2.7599 -0.9507  0.5183
  758MOL0     H    1   4.233   2.904   0.771 -2.2784  0.0917  0.3993
  758MOL0     H    2   4.171   2.936   0.922  0.8342 -0.1216  0.4080
  758MOL0     H    3   4.067   2.703   0.940 -1.0446  0.5040  0.1591
  758MOL0     H    4   4.109   2.669   0.778 -0.8322  0.4159 -1.6448
  758MOL0     H    5   3.914   2.873   0.887  2.4082 -1.7032  2.0961
  758MOL0     H    6   3.966   2.889   0.714 -0.2568 -2.4442 -1.5337
  758MOL0     H    7   3.830   2.656   0.855  0.1652 -0.1091  0.4966
  758MOL0     H    8   3.888   2.624   0.697 -2.0737 -0.1194 -0.6894
  758MOL0     H    9   3.648   2.892   0.857 -2.2744 -0.5658  0.6139
  758MOL0     H   10   3.506   3.084   0.588 -0.4371 -0.4630 -1.9132
  758MOL0     H   11   3.442   3.026   0.744  1.5833 -0.5553  0.1538
  758MOL0     H   12   3.287   2.864   0.632 -2.7816  0.6363 -1.2501
  758MOL0     H   13   3.356   2.920   0.479  0.0353  4.4838 -0.4817
  758MOL0     H   14   3.210   3.093   0.692  0.5225 -1.1239  0.0912
  758MOL0     H   15   3.297   3.159   0.550  1.1654  0.2525  2.1232
  758MOL0     H   16   3.132   2.978   0.431  1.3338 -2.5463  2.9991
  758MOL0     H   17   3.074   3.137   0.458  0.0059  1.5849  1.0255
  758MOL0     H   18   2.784   2.879   0.516 -6.4540 -0.7519 -0.6905
  758MOL0     H   19   2.567   2.979   0.525 -1.0984 -0.4833  2.4269
  758MOL0     H   20   2.276   3.341   0.515  0.2882  0.1453 -0.4909
  758MOL0     H   21   2.023   3.360   0.501 -1.0535  0.4784  0.9104
  758MOL0     H   22   1.867   3.437   0.635 -1.6673  0.8279 -0.1949
  758MOL0     H   23   1.779   3.333   0.754  0.4200  3.0139  1.0257
  758MOL0     H   24   1.680   3.408   0.479  2.2464  1.9917  0.3362
  758MOL0     H   25   1.636   3.474   0.639  0.0363 -0.9639  1.1191
  758MOL0     H   26   1.531   3.273   0.691 -1.9200 -0.2983 -0.3222
  758MOL0     H   27   1.622   3.179   0.574  1.6870  1.4140  1.3757
  758MOL0     H   28   1.424   3.405   0.476  1.6950 -0.2905 -0.9201
  758MOL0     H   29   1.498   3.262   0.388  0.6893  0.7591 -1.0695
  758MOL0     H   30   1.312   3.219   0.620 -0.1671  2.9278  0.2534
  758MOL0     H   31   1.373   3.111   0.496  1.3487 -0.1968  0.1180
  758MOL0     H   32   1.204   3.218   0.337  0.8248  0.4531  0.0179
  758MOL0     H   33   1.198   3.360   0.445  2.5348  0.5628  0.1657
  758MOL0     H   34   1.105   3.074   0.532  0.9837  0.9203  0.2200
  758MOL0     H   35   1.083   3.206   0.639 -0.3017 -0.1182 -0.4892
  758MOL0     H   36   0.985   3.143   0.357  0.1739 -0.8386  1.3796
  758MOL0     H   37   0.970   3.309   0.416  2.6217  1.1078  1.6216
  758MOL0     H   38   1.978   3.006   0.719 -1.5514 -0.7743 -3.0300
  758MOL0     H   39   2.219   2.959   0.707  2.7696  0.6353  0.2277
  758MOL0     H   40   2.726   3.336   0.680  2.4690  2.2875 -4.1310
  758MOL0     H   41   2.963   3.247   0.660  1.1240 -2.6750  0.9157
  758MOL0     H   42   4.860   2.975   0.788  4.1148 -0.2568 -1.0999
  758MOL0     H   43   5.103   3.075   0.815  2.1198 -2.4935  0.9114
  758MOL0     H   44   5.411   3.286   1.189  2.7308 -1.7939 -2.1031
  758MOL0     H   45   5.595   3.417   1.219 -2.4026 -2.2065  2.8677
  758MOL0     H   46   5.618   3.818   0.997  1.4818  1.4686  0.1180
  758MOL0     H   47   5.724   3.730   0.899  0.3843 -1.4370 -0.2720
  758MOL0     H   48   5.879   3.710   1.106 -1.3604 -0.4088  3.9655
  758MOL0     H   49   5.863   3.871   1.024 -2.1639 -1.4643 -3.1541
  758MOL0     H   50   5.671   3.914   1.198  0.1285 -1.7064 -0.1953
  758MOL0     H   51   5.838   3.966   1.213 -1.9131  1.8565  1.4708
  758MOL0     H   52   5.780   3.697   1.348  3.0254  0.2700 -1.5146
  758MOL0     H   53   5.903   3.814   1.364  0.1924 -1.1507 -1.3794
  758MOL0     H   54   5.632   3.949   1.665 -0.5463  0.7452 -0.8196
  758MOL0     H   55   5.468   3.690   0.913  3.0863 -0.5267 -1.0516
  758MOL0     H   56   5.260   3.546   0.876 -1.9126 -0.5434  1.6985
  759MOL0     O   57   7.696   9.435   0.239  0.0329 -0.4123 -0.2811
  759MOL0     C   58   7.708   9.378   0.130  0.4222  0.4892  0.1749
  759MOL0     O   59   7.603   9.309   0.069 -1.3012  0.2697 -0.6407
  759MOL0     C   60   7.472   9.355   0.079 -1.0370  0.8290 -0.4947
  759MOL0     C   61   7.442   9.480   0.137 -0.7749 -0.0615  0.0448
  759MOL0     C   62   7.313   9.527   0.133 -0.2134  0.1127 -0.4271
  759MOL0     C   63   7.212   9.462   0.054 -0.1608  0.3558 -0.8068
  759MOL0     O   64   7.081   9.515   0.046 -0.6670  0.8365 -0.5274
  759MOL0     C   65   7.067   9.645   0.004  0.6868  0.3692 -0.3516
  759MOL0     C   66   7.093   9.671  -0.139 -0.0477 -0.7234  0.2966
  759MOL0     C   67   7.016   9.591  -0.233  0.9432  0.6885  0.5130
  759MOL0     C   68   7.076   9.577  -0.374  0.1961 -0.3730  0.6974
  759MOL0     C   69   7.109   9.714  -0.451 -0.1849  0.2191  0.1372
  759MOL0     C   70   7.151   9.698  -0.598 -1.2118  0.0938  0.1475
  759MOL0     C   71   7.291   9.614  -0.613 -0.8996 -0.0391 -0.8393
  759MOL0     C   72   7.428   9.678  -0.545  0.3932 -0.3520 -0.1022
  759MOL0     N   73   7.460   9.819  -0.584  0.1408  0.0127  0.5091
  759MOL0     C   74   7.404   9.929  -0.541  0.0313  0.2499  0.1745
  759MOL0     C   75   7.479  10.023  -0.612 -0.9590  0.4248 -0.0743
  759MOL0     C   76   7.448  10.166  -0.602 -0.0837  0.5597  0.3502
  759MOL0     C   77   7.308  10.181  -0.674  0.0450 -0.2392  0.2134
  759MOL0     C   78   7.280  10.332  -0.712 -0.0610  0.1470 -0.2698
  759MOL0     C   79   7.155  10.362  -0.788 -0.1844 -0.4329  0.6787
  759MOL0     O   80   7.052  10.400  -0.701 -0.1737  0.0054  0.5730
  759MOL0     C   81   6.956  10.478  -0.760  0.1925 -0.5046  0.3149
  759MOL0     C   82   6.882  10.557  -0.679  0.3854 -1.0147 -1.0319
  759MOL0     C   83   6.779  10.635  -0.729 -0.4814 -0.6157  0.2976
  759MOL0     C   84   6.738  10.615  -0.863 -0.2304 -0.6356 -1.4361
  759MOL0     C   85   6.618  10.684  -0.915 -0.3339 -0.1938  1.0616
  759MOL0     O   86   6.575  10.800  -0.850  0.1180  0.6475  0.1875
  759MOL0     C   87   6.448  10.845  -0.875  0.5015 -1.0806  0.3052
  759MOL0     C   88   6.441  10.986  -0.863 -0.0703  0.1915  0.6750
  759MOL0     C   89   6.320  11.055  -0.880 -0.4548  1.0011 -0.3591
  759MOL0     C   90   6.205  10.982  -0.908  0.2638 -0.7681  0.4934
  759MOL0     O   91   6.095  11.055  -0.949 -0.3693  0.3616  0.5066
  759MOL0     C   92   5.998  10.976  -1.030  0.0389  0.0555  0.1187
  759MOL0     C   93   5.885  11.070  -1.076 -0.6057  0.9462 -0.3159
  759MOL0     C   94   5.930  11.157  -1.191 -0.2832 -0.4617  0.9046
  759MOL0     C   95   5.852  11.136  -1.314 -0.3114 -0.0262  1.0295
  759MOL0     C   96   5.934  11.202  -1.435  0.5534  0.4214  0.0061
  759MOL0     C   97   5.844  11.213  -1.562 -0.1588  0.3822  1.1972
  759MOL0     C   98   5.795  11.078  -1.626 -0.2879  0.4009 -1.0684
  759MOL0     C   99   5.889  10.964  -1.641 -0.0579 -0.1537 -0.0085
  759MOL0    Cl  100   6.028  11.021  -1.741 -0.2812 -0.2780  0.0858
  759MOL0     C  101   6.220  10.840  -0.920 -0.7769 -0.3136 -0.5907
  759MOL0     C  102   6.337  10.773  -0.908  0.8943  0.2224 -0.2149
  759MOL0     O  103   6.575  10.639  -1.022 -0.0716  0.2353 -0.4423
  759MOL0     C  104   6.812  10.533  -0.942 -1.3707 -0.5728  0.3140
  759MOL0     C  105   6.918  10.465  -0.899 -0.1381  0.5937  0.5039
  759MOL0     N  106   7.586   9.959  -0.686  0.2402 -0.8267 -0.2641
  759MOL0     N  107   7.567   9.836  -0.667 -0.0582 -0.5256 -0.6109
  759MOL0     C  108   7.238   9.334   0.010  0.3460 -0.2740 -0.1273
  759MOL0     C  109   7.366   9.279   0.023 -0.4658 -0.2019 -0.9382
  759MOL0     C  110   7.850   9.366   0.074  0.0204  0.0473 -0.2824
  759MOL0     C  111   7.863   9.296  -0.048  0.1521  0.2799  0.1360
  759MOL0     C  112   7.985   9.275  -0.111  0.3831 -0.3587  0.2546
  759MOL0     C  113   8.095   9.337  -0.053  0.2073 -0.0288 -1.0663
  759MOL0     O  114   8.217   9.323  -0.117  0.1713  0.3377 -0.2453
  759MOL0     C  115   8.318   9.425  -0.094 -0.1298  0.8204 -0.8163
  759MOL0     C  116   8.426   9.405  -0.202 -0.4993  0.7866 -0.0948
  759MOL0     C  117   8.544   9.506  -0.207 -0.3534 -0.0991  0.4556
  759MOL0     C  118   8.496   9.652  -0.212 -0.2234 -0.1575  0.5461
  759MOL0     C  119   8.403   9.676  -0.330 -0.3876  0.9859 -0.2184
  759MOL0     C  120   8.319   9.687  -0.420 -0.3579  0.2120 -1.0475
  759MOL0     C  121   8.087   9.407   0.070 -0.8364  0.3239  0.4305
  759MOL0     C  122   7.966   9.417   0.140  0.3319  0.2705  0.6456
  759MOL0     H  123   7.508   9.539   0.200  0.1835 -2.4462  1.4142
  759MOL0     H  124   7.274   9.615   0.183  1.3258  1.2105 -1.0781
  759MOL0     H  125   7.132   9.717   0.053  0.7439  0.5616 -0.7070
  759MOL0     H  126   6.969   9.682   0.035  1.0604  0.6944  0.4462
  759MOL0     H  127   7.200   9.657  -0.155  0.0035 -0.3293  0.2841
  759MOL0     H  128   7.066   9.774  -0.167 -2.7991 -1.4921 -0.1419
  759MOL0     H  129   6.917   9.637  -0.237  0.2260 -0.8047  0.4123
  759MOL0     H  130   7.005   9.489  -0.197 -2.4750  0.2170 -1.4449
  759MOL0     H  131   7.166   9.516  -0.366 -1.2280 -2.8116 -0.6302
  759MOL0     H  132   6.998   9.524  -0.429  0.1593  0.4482 -0.0632
  759MOL0     H  133   7.175   9.780  -0.393 -0.9352  1.9344 -0.8628
  759MOL0     H  134   7.016   9.771  -0.455 -0.7086 -0.1170  3.7970
  759MOL0     H  135   7.163   9.798  -0.641 -3.7841  1.2370  1.8028
  759MOL0     H  136   7.076   9.643  -0.656  0.9125 -4.0032  0.9855
  759MOL0     H  137   7.287   9.516  -0.565  1.0803 -0.1117 -0.7445
  759MOL0     H  138   7.328   9.594  -0.714  3.5090 -0.8571  0.7316
  759MOL0     H  139   7.511   9.610  -0.567  0.8572  0.1149  0.1770
  759MOL0     H  140   7.401   9.690  -0.440 -1.3416  1.3271 -0.6673
  759MOL0     H  141   7.317   9.941  -0.476 -1.2579  1.2555 -1.6567
  759MOL0     H  142   7.519  10.221  -0.665 -1.7092  0.6209 -1.5493
  759MOL0     H  143   7.455  10.213  -0.503 -0.0449  1.2649  0.0218
  759MOL0     H  144   7.228  10.150  -0.606  0.5933  0.5790  1.2508
  759MOL0     H  145   7.288  10.119  -0.762 -0.7688  0.5712 -0.1859
  759MOL0     H  146   7.263  10.386  -0.618 -1.8108 -1.0120  0.1280
  759MOL0     H  147   7.367  10.372  -0.765 -0.5858  1.0835 -0.4500
  759MOL0     H  148   7.131  10.274  -0.848  1.6229 -1.0329  0.7888
  759MOL0     H  149   7.180  10.438  -0.863 -0.3420 -2.7889 -1.9277
  759MOL0     H  150   6.899  10.565  -0.573 -0.8712 -1.4251 -0.7794
  759MOL0     H  151   6.715  10.699  -0.669  1.5732  1.1304  0.7166
  759MOL0     H  152   6.533  11.037  -0.837 -0.4561 -0.2766  3.2626
  759MOL0     H  153   6.311  11.162  -0.861  0.7090  1.8644 -3.8678
  759MOL0     H  154   5.954  10.895  -0.971  0.2952  0.9777  1.6299
  759MOL0     H  155   6.054  10.943  -1.118  2.2247  0.1411  1.3887
  759MOL0     H  156   5.866  11.133  -0.988  0.6469  2.2376 -0.9479
  759MOL0     H  157   5.798  11.006  -1.099  1.6949 -4.1487  3.1930
  759MOL0     H  158   6.035  11.139  -1.216 -0.5527 -0.6454 -0.1165
  759MOL0     H  159   5.940  11.260  -1.154  3.8967 -0.7918  1.1901
  759MOL0     H  160   5.836  11.029  -1.331 -2.1547  0.8231 -4.0636
  759MOL0     H  161   5.754  11.183  -1.308 -1.0290 -1.6609  4.0307
  759MOL0     H  162   6.012  11.129  -1.459  2.2087  1.2991  2.3197
  759MOL0     H  163   5.990  11.292  -1.407  0.5599  0.6298 -0.6615
  759MOL0     H  164   5.894  11.266  -1.644 -1.3701  2.9882  2.0338
  759MOL0     H  165   5.765  11.285  -1.536  2.7382  3.4398  2.3098
  759MOL0     H  166   5.715  11.048  -1.558 -0.3346  1.3890 -0.6802
  759MOL0     H  167   5.752  11.083  -1.727 -2.1253  0.3934 -0.3365
  759MOL0     H  168   5.839  10.877  -1.685 -0.6179 -0.1325  0.5593
  759MOL0     H  169   5.927  10.939  -1.541 -0.5018  1.7800  0.6892
  759MOL0     H  170   6.141  10.777  -0.959 -1.5643  0.0606  0.3850
  759MOL0     H  171   6.334  10.666  -0.886 -0.7050  0.9261  3.7989
  759MOL0     H  172   6.802  10.519  -1.049 -0.8056 -3.6543  0.5786
  759MOL0     H  173   6.979  10.402  -0.962  1.0771  0.9256  1.2994
  759MOL0     H  174   7.154   9.297  -0.047 -1.4031  0.6916  1.7022
  759MOL0     H  175   7.386   9.183  -0.023 -0.4146 -0.2897 -0.7360
  759MOL0     H  176   7.771   9.260  -0.092  0.5411 -0.4267 -0.1099
  759MOL0     H  177   7.991   9.228  -0.208 -2.1558 -0.1706 -0.0459
  759MOL0     H  178   8.363   9.409   0.004 -1.0869  0.3567 -0.4396
  759MOL0     H  179   8.266   9.521  -0.089 -2.6170 -0.5078  2.5235
  759MOL0     H  180   8.477   9.310  -0.181 -4.1808 -1.9040 -2.0387
  759MOL0     H  181   8.398   9.390  -0.307  0.1409 -4.2328  0.1717
  759MOL0     H  182   8.609   9.474  -0.289 -0.9900 -5.5356  1.7048
  759MOL0     H  183   8.603   9.494  -0.115  3.9487 -0.3295 -2.0467
  759MOL0     H  184   8.433   9.681  -0.127 -2.1933  1.3776 -1.2955
  759MOL0     H  185   8.576   9.726  -0.206 -0.2456 -0.1454  0.7102
  759MOL0     H  186   8.245   9.716  -0.491 -1.7761  1.5694  0.9078
  759MOL0     H  187   8.174   9.437   0.127 -0.7619 -2.1435  1.7729
  759MOL0     H  188   7.961   9.469   0.235  2.1798  2.2949 -0.2787
  760MOL0     O  189   8.843   1.589   8.751  0.3769  0.0882  0.2401
  760MOL0     C  190   8.880   1.706   8.740 -0.4746  0.0105  0.1025
  760MOL0     O  191   8.809   1.814   8.765  0.7067  0.4570 -0.4036
  760MOL0     C  192   8.687   1.795   8.818 -0.6220  0.5239  0.6294
  760MOL0     C  193   8.584   1.745   8.737 -0.3872  0.0906 -0.0227
  760MOL0     C  194   8.460   1.707   8.799 -0.3048 -0.8202  0.1750
  760MOL0     C  195   8.433   1.733   8.934 -0.1627 -0.2273 -0.0888
  760MOL0     O  196   8.302   1.715   8.981  0.2532 -0.1477 -0.9791
  760MOL0     C  197   8.270   1.752   9.112  0.0563 -0.7210  0.3235
  760MOL0     C  198   8.113   1.768   9.096 -0.8197  0.7882  0.6445
  760MOL0     C  199   8.048   1.804   9.225  0.1845  0.0136 -0.3188
  760MOL0     C  200   8.010   1.673   9.301 -0.1468  0.2684 -0.6968
  760MOL0     C  201   7.904   1.679   9.418  0.6030 -0.3313  0.8025
  760MOL0     C  202   7.948   1.763   9.541  0.1065 -0.5256 -0.2210
  760MOL0     C  203   7.866   1.755   9.675 -0.2361  0.2339 -0.4573
  760MOL0     C  204   7.902   1.854   9.792  0.4920  0.5592 -0.4598
  760MOL0     N  205   7.904   1.989   9.740 -0.2663  0.2460  0.2742
  760MOL0     C  206   8.018   2.068   9.708 -0.6079 -0.2484 -0.0517
  760MOL0     C  207   7.970   2.184   9.658  0.0000 -0.0018 -0.3044
  760MOL0     C  208   8.042   2.298   9.590  0.8204 -0.3721 -0.2900
  760MOL0     C  209   8.187   2.283   9.586 -0.2947 -0.0703  0.0278
  760MOL0     C  210   8.241   2.183   9.490  1.0360  0.3837 -0.2343
  760MOL0     C  211   8.388   2.199   9.469 -0.3056 -0.7354 -0.3671
  760MOL0     O  212   8.474   2.189   9.581  0.2241  0.3924 -0.3646
  760MOL0     C  213   8.584   2.270   9.580 -1.1018 -0.2920  0.3164
  760MOL0     C  214   8.581   2.384   9.656 -0.6020 -1.3050  0.1164
  760MOL0     C  215   8.709   2.448   9.675 -0.7103  0.3463 -0.2584
  760MOL0     C  216   8.827   2.411   9.615  0.8279 -0.7626 -0.2968
  760MOL0     C  217   8.952   2.480   9.641 -1.0919 -0.1551 -0.0852
  760MOL0     O  218   9.065   2.441   9.566 -0.5023  0.1778 -0.0705
  760MOL0     C  219   9.191   2.487   9.598 -0.2494 -0.3621  0.0515
  760MOL0     C  220   9.232   2.487   9.725 -0.4711 -0.6222 -0.5646
  760MOL0     C  221   9.367   2.518   9.749  0.0889 -0.6830 -0.1980
  760MOL0     C  222   9.460   2.543   9.648  0.2360 -0.7521 -0.3710
  760MOL0     O  223   9.587   2.586   9.674 -0.0565  1.0212 -0.5983
  760MOL0     C  224   9.647   2.541   9.798 -1.1950  0.5518  0.5064
  760MOL0     C  225   9.801   2.506   9.781 -0.0487  0.2079 -1.4565
  760MOL0     C  226   9.864   2.460   9.919  0.2362 -0.5903  0.1859
  760MOL0     C  227  10.019   2.434   9.920  0.4027 -0.2813 -0.7469
  760MOL0     C  228  10.059   2.400  10.061  1.1639 -0.1648  0.0188
  760MOL0     C  229  10.211   2.381  10.070  0.1419  0.1724  0.5414
  760MOL0     C  230  10.248   2.279  10.173  0.2784 -0.8711  0.5587
  760MOL0     C  231  10.354   2.192  10.121 -0.9613  0.4782 -0.7794
  760MOL0    Cl  232  10.519   2.266  10.088 -0.2001  0.5379 -0.1885
  760MOL0     C  233   9.419   2.536   9.514  1.0326 -0.2079  0.3691
  760MOL0     C  234   9.283   2.506   9.493 -0.1642  0.0857  0.6925
  760MOL0     O  235   8.942   2.576   9.715 -0.2762 -0.2269 -0.4124
  760MOL0     C  236   8.821   2.313   9.517 -0.1880  0.5362  0.0537
  760MOL0     C  237   8.703   2.236   9.507 -0.1814  0.1458  0.0029
  760MOL0     N  238   7.835   2.186   9.671  0.4000 -0.1551 -0.2369
  760MOL0     N  239   7.795   2.076   9.727 -0.1554  0.9139  0.0292
  760MOL0     C  240   8.535   1.785   9.014  0.1910 -0.2275 -0.1456
  760MOL0     C  241   8.661   1.816   8.954  0.5999 -0.4027 -0.0342
  760MOL0     C  242   9.024   1.730   8.703  0.3021 -0.2020  0.1872
  760MOL0     C  243   9.120   1.642   8.748 -0.1965  0.1204 -0.5409
  760MOL0     C  244   9.258   1.666   8.737  0.7359  0.5395 -0.5506
  760MOL0     C  245   9.302   1.782   8.660 -1.2953  0.2508 -0.1739
  760MOL0     O  246   9.438   1.802   8.637  0.4934  0.1276 -0.7910
  760MOL0     C  247   9.505   1.877   8.740  0.0819  0.0534  0.2551
  760MOL0     C  248   9.641   1.813   8.786  1.4774 -0.1079  0.5895
  760MOL0     C  249   9.725   1.781   8.662 -0.4552 -0.1340  0.6138
  760MOL0     C  250   9.863   1.718   8.695 -0.0366 -0.3717  0.0549
  760MOL0     C  251   9.949   1.720   8.580  0.4011 -0.5205 -0.8227
  760MOL0     C  252  10.002   1.727   8.469  0.2333 -0.8430 -0.5659
  760MOL0     C  253   9.201   1.869   8.607 -0.2339 -0.5180  1.2892
  760MOL0     C  254   9.064   1.841   8.631 -0.9103  0.4147 -0.1661
  760MOL0     H  255   8.605   1.732   8.631  1.1689  2.0215 -0.0145
  760MOL0     H  256   8.371   1.681   8.744 -1.4345  2.0307  0.5174
  760MOL0     H  257   8.315   1.841   9.156  0.1670 -1.5721  1.9935
  760MOL0     H  258   8.292   1.669   9.180  2.0589 -0.9114 -0.4803
  760MOL0     H  259   8.073   1.683   9.040 -1.1399  0.8671  0.7508
  760MOL0     H  260   8.079   1.842   9.023 -1.0037 -0.8147 -0.9708
  760MOL0     H  261   7.952   1.846   9.195  0.6872  0.2458 -1.6815
  760MOL0     H  262   8.092   1.888   9.280 -2.1964  0.3655  1.2099
  760MOL0     H  263   7.972   1.598   9.230 -4.2322 -0.4220  1.8695
  760MOL0     H  264   8.100   1.632   9.348  0.5676  0.4140 -1.9009
  760MOL0     H  265   7.883   1.577   9.453 -0.2029 -0.3288  0.3471
  760MOL0     H  266   7.805   1.713   9.385  0.3230 -1.6225  0.2402
  760MOL0     H  267   7.949   1.869   9.513 -2.4108  0.1843  1.9574
  760MOL0     H  268   8.051   1.742   9.572  0.1903  3.3071  2.9007
  760MOL0     H  269   7.761   1.765   9.648 -1.1863 -2.2260  1.8787
  760MOL0     H  270   7.880   1.655   9.718 -0.6409  0.4417  0.1718
  760MOL0     H  271   8.000   1.830   9.834 -0.8229  2.5417  4.3454
  760MOL0     H  272   7.842   1.843   9.883  0.6786 -1.1078 -0.4967
  760MOL0     H  273   8.124   2.050   9.719 -0.1455  1.5672 -1.0105
  760MOL0     H  274   8.019   2.397   9.633  2.2573  0.3272 -1.0647
  760MOL0     H  275   7.995   2.290   9.491 -0.8745 -1.5252  0.5570
  760MOL0     H  276   8.216   2.255   9.688  1.4874  0.7066 -0.2087
  760MOL0     H  277   8.235   2.379   9.563 -1.5359  0.2750 -1.2367
  760MOL0     H  278   8.220   2.085   9.532 -0.4954  0.1569 -1.4226
  760MOL0     H  279   8.185   2.190   9.396  0.8432  0.9703 -0.0852
  760MOL0     H  280   8.411   2.288   9.410 -0.4631 -1.2923 -1.2976
  760MOL0     H  281   8.422   2.126   9.394 -0.7666  1.0489 -2.4066
  760MOL0     H  282   8.495   2.421   9.711  1.5981  1.9304  1.6970
  760MOL0     H  283   8.712   2.522   9.755 -0.6377  0.0392  0.0245
  760MOL0     H  284   9.175   2.459   9.813 -1.1282 -0.8929 -1.0655
  760MOL0     H  285   9.408   2.521   9.850 -0.8144  1.2680  0.1621
  760MOL0     H  286   9.595   2.450   9.831 -2.9411  0.3643 -2.4446
  760MOL0     H  287   9.645   2.619   9.875  1.9315  1.8989 -0.6470
  760MOL0     H  288   9.865   2.593   9.761  0.8678  2.0678  6.4706
  760MOL0     H  289   9.810   2.434   9.698  0.2849 -2.1348  0.5034
  760MOL0     H  290   9.819   2.366   9.953  1.6517 -0.7001  1.9056
  760MOL0     H  291   9.831   2.533   9.994 -1.4742 -0.4799 -0.6206
  760MOL0     H  292  10.047   2.354   9.850  0.8936 -1.0046  0.2493
  760MOL0     H  293  10.060   2.532   9.897 -1.9467  0.5235 -1.8391
  760MOL0     H  294  10.014   2.301  10.079  0.2670 -0.3800 -2.9578
  760MOL0     H  295  10.025   2.472  10.137  0.9601  0.5067 -0.6970
  760MOL0     H  296  10.252   2.478  10.095  0.7801  0.4471 -1.3760
  760MOL0     H  297  10.252   2.354   9.972 -0.4989  1.0738  0.0184
  760MOL0     H  298  10.262   2.334  10.267 -0.0478  0.1462  0.0304
  760MOL0     H  299  10.170   2.205  10.192 -0.6355 -0.6870 -2.1103
  760MOL0     H  300  10.331   2.147  10.023 -0.7438 -0.6891 -0.3115
  760MOL0     H  301  10.353   2.109  10.192 -1.0579 -0.3604 -1.7270
  760MOL0     H  302   9.475   2.571   9.428 -1.3381  0.1769 -1.1234
  760MOL0     H  303   9.246   2.505   9.391  0.7964 -1.3560  0.3359
  760MOL0     H  304   8.898   2.279   9.448 -2.0988 -4.1103 -0.1363
  760MOL0     H  305   8.709   2.141   9.455  0.6295  0.9871 -1.4819
  760MOL0     H  306   8.521   1.804   9.119 -1.1708  1.1741 -0.5473
  760MOL0     H  307   8.741   1.851   9.019 -0.4636 -1.2607  1.8264
  760MOL0     H  308   9.100   1.549   8.801 -0.1687  1.4149  1.9022
  760MOL0     H  309   9.324   1.586   8.770  1.7829  0.5750 -2.4416
  760MOL0     H  310   9.433   1.895   8.820  0.3846  1.5243  0.2200
  760MOL0     H  311   9.532   1.972   8.692  2.8554 -1.5599 -1.7424
  760MOL0     H  312   9.696   1.877   8.855  0.3204  0.5199  0.9461
  760MOL0     H  313   9.621   1.721   8.841 -0.6145 -0.1780 -0.2170
  760MOL0     H  314   9.748   1.870   8.602 -0.3083 -0.5276  0.0756
  760MOL0     H  315   9.671   1.710   8.599 -3.2877  1.1801  1.3888
  760MOL0     H  316   9.900   1.770   8.783  0.8575 -0.2217 -0.3999
  760MOL0     H  317   9.847   1.613   8.719 -0.8436 -0.3640 -0.4282
  760MOL0     H  318  10.037   1.740   8.368 -1.2531 -1.1600 -1.1550
  760MOL0     H  319   9.235   1.947   8.540  0.4253  1.7876  4.0849
  760MOL0     H  320   8.983   1.895   8.583 -0.1908 -0.0400 -1.9951
  761MOL0     O  321   1.394   0.409   3.160  0.8697  0.0645  0.6065
  761MOL0     C  322   1.451   0.421   3.054  0.2946  0.2173  0.7707
  761MOL0     O  323   1.392   0.424   2.934 -0.2984  0.1204  0.5346
  761MOL0     C  324   1.261   0.390   2.912 -0.0995 -0.1738  0.2880
  761MOL0     C  325   1.224   0.395   2.778 -0.1640 -0.1364  0.3334
  761MOL0     C  326   1.101   0.340   2.731 -0.1641 -0.0637  0.5426
  761MOL0     C  327   1.015   0.271   2.813  0.1838  0.0706  0.1431
  761MOL0     O  328   0.889   0.217   2.776  0.2912  0.5632  0.0990
  761MOL0     C  329   0.843   0.236   2.640 -0.3831 -0.0239  0.1501
  761MOL0     C  330   0.710   0.174   2.589 -0.0757 -0.1378  0.8552
  761MOL0     C  331   0.585   0.202   2.680 -0.3200  0.0813  0.1148
  761MOL0     C  332   0.458   0.139   2.624 -0.5227 -0.7951  0.9918
  761MOL0     C  333   0.343   0.103   2.722 -0.3139 -0.2528 -0.1344
  761MOL0     C  334   0.271  -0.019   2.692 -0.4488  0.6258 -0.1926
  761MOL0     C  335   0.187  -0.072   2.809  0.8829  0.5324  0.0138
  761MOL0     C  336   0.078   0.030   2.882 -0.2577 -0.7944  0.0494
  761MOL0     N  337   0.001   0.126   2.800  0.4357  0.5069 -0.1843
  761MOL0     C  338  -0.079   0.098   2.691  0.1308 -0.3005  0.3173
  761MOL0     C  339  -0.111   0.215   2.642  0.1546 -0.7468 -0.3802
  761MOL0     C  340  -0.209   0.241   2.529 -0.7525  0.0535 -0.1764
  761MOL0     C  341  -0.359   0.236   2.576  1.4964  0.4374 -0.5990
  761MOL0     C  342  -0.462   0.276   2.461 -0.5797  0.9318  0.6467
  761MOL0     C  343  -0.605   0.259   2.485  0.5117  0.2969 -0.5344
  761MOL0     O  344  -0.663   0.280   2.360 -0.0555 -0.3307  0.0805
  761MOL0     C  345  -0.795   0.312   2.360  0.3866 -0.2385 -0.2535
  761MOL0     C  346  -0.840   0.364   2.235  0.2015  0.0437 -0.1462
  761MOL0     C  347  -0.977   0.385   2.223  0.5846 -0.1364 -0.4593
  761MOL0     C  348  -1.071   0.376   2.332  1.3103 -0.6988  1.0762
  761MOL0     C  349  -1.219   0.395   2.318  0.5415  0.1046 -0.6637
  761MOL0     O  350  -1.270   0.424   2.191  0.5959 -0.1485 -0.7598
  761MOL0     C  351  -1.404   0.462   2.188  0.0293 -0.5676 -0.5166
  761MOL0     C  352  -1.505   0.363   2.216 -0.1278 -0.4527  0.0645
  761MOL0     C  353  -1.639   0.399   2.227  0.2231 -0.0240 -0.2826
  761MOL0     C  354  -1.678   0.529   2.197  1.0228  0.0016  0.2850
  761MOL0     O  355  -1.814   0.554   2.191 -0.3306  0.1879  0.1022
  761MOL0     C  356  -1.905   0.444   2.161 -0.1367  0.2295  0.0294
  761MOL0     C  357  -2.040   0.505   2.115 -0.1236 -0.2907 -0.3705
  761MOL0     C  358  -2.044   0.637   2.037  0.7771 -0.0498 -0.0978
  761MOL0     C  359  -2.184   0.697   2.028  0.4593 -0.3196 -0.9203
  761MOL0     C  360  -2.289   0.605   1.956  0.7525  0.9481  0.5011
  761MOL0     C  361  -2.425   0.661   1.967  0.3421  0.0561  0.4991
  761MOL0     C  362  -2.523   0.561   1.905  0.2430  0.2852 -1.0688
  761MOL0     C  363  -2.647   0.627   1.848 -0.2635  0.6338  0.4966
  761MOL0    Cl  364  -2.737   0.733   1.961  0.2910 -0.2589 -0.7904
  761MOL0     C  365  -1.586   0.626   2.161  1.0027 -0.5659  0.1943
  761MOL0     C  366  -1.451   0.596   2.166  0.5419 -0.1255 -0.6316
  761MOL0     O  367  -1.286   0.373   2.423  0.6506 -0.8393  0.7640
  761MOL0     C  368  -1.016   0.336   2.455 -0.0978  1.2926 -0.6848
  761MOL0     C  369  -0.889   0.300   2.465 -0.1562  0.4650  0.2091
  761MOL0     N  370  -0.054   0.321   2.719  0.5766 -0.9295  0.7055
  761MOL0     N  371   0.007   0.261   2.805  0.3621  0.2139 -0.9912
  761MOL0     C  372   1.046   0.270   2.949  0.2276 -0.0922 -0.1805
  761MOL0     C  373   1.171   0.321   3.000  0.4439  0.0277  0.6497
  761MOL0     C  374   1.598   0.425   3.055 -0.0023  0.0123 -0.2392
  761MOL0     C  375   1.668   0.390   3.174 -0.0935  0.5717  0.3333
  761MOL0     C  376   1.800   0.386   3.177 -0.0013  0.0874 -0.6354
  761MOL0     C  377   1.873   0.428   3.070 -0.6716  0.0736  0.8950
  761MOL0     O  378   2.009   0.417   3.088  0.0122  0.0157  0.5667
  761MOL0     C  379   2.096   0.460   2.979  0.0946  0.0644  0.2054
  761MOL0     C  380   2.238   0.433   3.024 -0.0896 -0.3658 -0.0489
  761MOL0     C  381   2.328   0.481   2.914 -0.6962  0.1921  0.4160
  761MOL0     C  382   2.472   0.425   2.937  0.8096  0.2655 -0.1600
  761MOL0     C  383   2.573   0.486   2.848 -0.1008  0.0446  0.3605
  761MOL0     C  384   2.654   0.537   2.776 -0.2119 -0.3025 -0.0673
  761MOL0     C  385   1.806   0.473   2.947  0.9169 -0.2003 -0.3576
  761MOL0     C  386   1.667   0.475   2.946  0.9538 -0.3764  0.2776
  761MOL0     H  387   1.295   0.437   2.708  0.3180  0.2136  1.0276
  761MOL0     H  388   1.080   0.355   2.626  0.2555  1.2975  0.6379
  761MOL0     H  389   0.927   0.219   2.573 -1.2639  0.3919 -1.0912
  761MOL0     H  390   0.823   0.344   2.647  1.0889  0.2636  0.1520
  761MOL0     H  391   0.722   0.066   2.573 -2.1520 -0.3832  0.7043
  761MOL0     H  392   0.687   0.213   2.490  1.4835  1.1341  0.9523
  761MOL0     H  393   0.573   0.310   2.688 -1.5392 -0.0602  0.3532
  761MOL0     H  394   0.593   0.174   2.786 -2.6840 -0.4330  0.2020
  761MOL0     H  395   0.421   0.192   2.536  1.9335  1.3757  1.1347
  761MOL0     H  396   0.495   0.044   2.584  0.6536 -0.4588  1.2412
  761MOL0     H  397   0.282   0.194   2.712  1.5329  0.9578 -1.0422
  761MOL0     H  398   0.385   0.101   2.823  3.0338  0.7693 -1.3715
  761MOL0     H  399   0.348  -0.091   2.665 -1.1782 -0.4212  0.4484
  761MOL0     H  400   0.199  -0.010   2.610 -2.2413 -0.8844  1.1313
  761MOL0     H  401   0.133  -0.158   2.768 -2.0594  2.5043 -0.6107
  761MOL0     H  402   0.252  -0.108   2.889 -0.4076 -0.2900  0.7289
  761MOL0     H  403   0.138   0.089   2.952  0.2783 -0.2074 -0.8901
  761MOL0     H  404   0.006  -0.026   2.943 -3.7597  1.9184 -1.2138
  761MOL0     H  405  -0.135   0.013   2.652 -3.4386  1.9068  0.2063
  761MOL0     H  406  -0.182   0.166   2.454  1.0909  1.2368 -0.7568
  761MOL0     H  407  -0.196   0.343   2.491  0.8877  0.0821  0.3761
  761MOL0     H  408  -0.370   0.311   2.655  1.3226  0.9947 -1.1468
  761MOL0     H  409  -0.377   0.135   2.616  0.1976  1.1432  0.6935
  761MOL0     H  410  -0.443   0.379   2.431 -0.1252  1.1842  1.7536
  761MOL0     H  411  -0.433   0.213   2.376  0.6496  1.5613  0.5846
  761MOL0     H  412  -0.645   0.330   2.558  1.3267 -0.1153  0.3383
  761MOL0     H  413  -0.628   0.155   2.507  3.4157 -0.1953  0.6857
  761MOL0     H  414  -0.775   0.369   2.148 -0.4868  0.1545 -0.6602
  761MOL0     H  415  -1.019   0.428   2.133  0.1656 -1.4365 -0.9048
  761MOL0     H  416  -1.468   0.262   2.228  1.8832  0.1005 -0.9574
  761MOL0     H  417  -1.711   0.320   2.238 -1.1771  1.3260  0.6404
  761MOL0     H  418  -1.907   0.367   2.238 -1.1401 -1.3717 -1.5317
  761MOL0     H  419  -1.863   0.397   2.071  0.0438  0.3467  0.0509
  761MOL0     H  420  -2.098   0.525   2.206  1.7506 -0.0691  0.8405
  761MOL0     H  421  -2.096   0.426   2.063 -1.2432  1.5356 -2.0465
  761MOL0     H  422  -2.004   0.615   1.938  1.4097 -1.4583  0.4393
  761MOL0     H  423  -1.979   0.715   2.076 -1.1581  0.6961  1.8792
  761MOL0     H  424  -2.215   0.719   2.130 -0.3606 -1.9967 -0.7646
  761MOL0     H  425  -2.171   0.793   1.978  0.7076 -0.0168 -0.2730
  761MOL0     H  426  -2.288   0.501   1.990 -1.1487 -0.5618 -3.3900
  761MOL0     H  427  -2.255   0.607   1.852  2.6652  3.5774  1.0834
  761MOL0     H  428  -2.426   0.758   1.916  1.2027 -0.2736 -0.1716
  761MOL0     H  429  -2.446   0.689   2.070 -1.2385  1.1594 -0.0827
  761MOL0     H  430  -2.460   0.506   1.834  1.4699  0.2077  0.0449
  761MOL0     H  431  -2.549   0.492   1.986 -3.6370  1.2549 -1.2802
  761MOL0     H  432  -2.711   0.547   1.811  4.0545 -1.7524 -2.7281
  761MOL0     H  433  -2.623   0.693   1.764  1.3059  0.5376  0.8259
  761MOL0     H  434  -1.613   0.727   2.130 -1.3225 -0.7144  1.5249
  761MOL0     H  435  -1.376   0.675   2.161 -0.0196  0.5592  0.8866
  761MOL0     H  436  -1.075   0.318   2.545  0.1169  1.3675 -0.5284
  761MOL0     H  437  -0.860   0.257   2.561  1.4841 -0.7854 -0.7952
  761MOL0     H  438   0.976   0.226   3.018  1.5309  3.2533  3.6809
  761MOL0     H  439   1.199   0.306   3.103  1.1327 -0.0177  0.4589
  761MOL0     H  440   1.616   0.345   3.258  2.1123 -1.8431  0.5414
  761MOL0     H  441   1.860   0.355   3.262 -1.0356  1.9846  0.8370
  761MOL0     H  442   2.075   0.560   2.942 -1.7306 -0.7592 -1.1321
  761MOL0     H  443   2.078   0.406   2.886 -0.2258  0.2958  0.1338
  761MOL0     H  444   2.264   0.485   3.116  4.4863  1.0997 -1.8832
  761MOL0     H  445   2.256   0.325   3.026  1.6020 -0.0918  1.2881
  761MOL0     H  446   2.339   0.590   2.909  0.6772  0.0494 -0.0616
  761MOL0     H  447   2.280   0.437   2.826  0.0381  0.7529 -0.2717
  761MOL0     H  448   2.511   0.448   3.036  2.7438 -2.2970 -0.2518
  761MOL0     H  449   2.469   0.317   2.922 -3.6366 -0.4141  3.3909
  761MOL0     H  450   2.723   0.578   2.705 -2.9212 -0.3168 -2.9660
  761MOL0     H  451   1.853   0.509   2.856 -1.8310 -0.9253 -2.2113
  761MOL0     H  452   1.619   0.521   2.859  1.8851 -1.2975 -0.7592
  762MOL0     O  453   2.740   7.082   0.687  0.2985 -0.4058 -0.2239
  762MOL0     C  454   2.850   7.135   0.713  0.4743  0.4343  0.0268
  762MOL0     O  455   2.875   7.195   0.837  0.0031 -0.3118  0.0596
  762MOL0     C  456   2.793   7.174   0.944  0.6645  0.2452 -0.3841
  762MOL0     C  457   2.849   7.120   1.062 -0.7561  0.6557  0.7166
  762MOL0     C  458   2.766   7.097   1.176 -0.1207  0.5030  0.3909
  762MOL0     C  459   2.623   7.105   1.172 -0.2560 -0.1950 -0.4789
  762MOL0     O  460   2.533   7.082   1.278  0.0093 -0.2658  0.1466
  762MOL0     C  461   2.583   7.079   1.413 -0.2092  0.3525  0.9881
  762MOL0     C  462   2.490   7.165   1.508  0.2459 -0.6280 -0.3296
  762MOL0     C  463   2.340   7.127   1.501  0.6805 -0.5442 -0.0656
  762MOL0     C  464   2.296   7.029   1.608  0.0956  0.3355  0.3235
  762MOL0     C  465   2.154   6.994   1.582  0.4608 -0.4048  0.5834
  762MOL0     C  466   2.097   6.904   1.692  0.0660  1.3173 -0.6320
  762MOL0     C  467   1.947   6.878   1.667 -0.0220  0.1483  0.4366
  762MOL0     C  468   1.855   7.006   1.664  0.1004 -0.2191  0.3804
  762MOL0     N  469   1.713   6.977   1.646  0.8045  0.0252  0.5295
  762MOL0     C  470   1.633   6.936   1.747  0.1172  0.2853  0.5163
  762MOL0     C  471   1.512   6.911   1.689  0.7003  0.8436 -0.4171
  762MOL0     C  472   1.391   6.869   1.770 -0.3089  0.1373 -0.6308
  762MOL0     C  473   1.268   6.894   1.682  0.0978  0.4005 -0.1843
  762MOL0     C  474   1.143   6.856   1.768 -0.5352 -0.6098  1.1678
  762MOL0     C  475   1.015   6.871   1.688  0.2766 -0.1321  0.2198
  762MOL0     O  476   0.895   6.840   1.761 -0.2478 -0.2448  1.2083
  762MOL0     C  477   0.781   6.869   1.684  0.8304  0.0139 -0.5251
  762MOL0     C  478   0.671   6.881   1.777  0.2653 -0.4688 -0.3148
  762MOL0     C  479   0.549   6.917   1.720 -0.0634  0.3783 -0.8684
  762MOL0     C  480   0.522   6.934   1.587 -0.0466 -0.1882 -0.4294
  762MOL0     C  481   0.386   6.969   1.531 -0.8899 -0.1918  1.1506
  762MOL0     O  482   0.307   7.019   1.622  0.4628 -0.5041 -0.0260
  762MOL0     C  483   0.171   7.030   1.596 -0.6011  1.1016 -0.1072
  762MOL0     C  484   0.082   6.926   1.633 -0.4802  0.0565 -0.8409
  762MOL0     C  485  -0.052   6.941   1.621  0.1623 -0.8734 -0.4332
  762MOL0     C  486  -0.112   7.047   1.553 -0.0336 -0.2913  0.5345
  762MOL0     O  487  -0.246   7.043   1.537  0.1314  0.4240 -0.2114
  762MOL0     C  488  -0.336   7.162   1.553  0.0317 -0.1601 -0.1823
  762MOL0     C  489  -0.370   7.175   1.707  0.5367  0.3667 -0.1187
  762MOL0     C  490  -0.465   7.286   1.736 -0.7696  0.3512  1.0529
  762MOL0     C  491  -0.592   7.271   1.655  0.6767 -0.0681  0.0021
  762MOL0     C  492  -0.713   7.336   1.728 -0.1461  0.1456  0.9679
  762MOL0     C  493  -0.720   7.487   1.718  0.4512  0.8194  0.4959
  762MOL0     C  494  -0.849   7.533   1.789  0.2331 -0.7931  1.0771
  762MOL0     C  495  -0.883   7.677   1.742  0.8436  0.1384  0.1419
  762MOL0    Cl  496  -1.036   7.708   1.823 -0.1704  0.3946 -0.0333
  762MOL0     C  497  -0.026   7.146   1.508  1.0028  0.1118  0.8618
  762MOL0     C  498   0.112   7.141   1.532 -0.0091  0.0556 -0.3703
  762MOL0     O  499   0.363   6.948   1.413 -0.2401  0.2999  0.2005
  762MOL0     C  500   0.626   6.917   1.493  0.4442  0.4859  0.1907
  762MOL0     C  501   0.759   6.879   1.543 -0.0633  0.2926 -0.7261
  762MOL0     N  502   1.522   6.953   1.556 -0.7224 -0.1182  0.1433
  762MOL0     N  503   1.647   6.993   1.532  0.6653 -0.6146  1.4210
  762MOL0     C  504   2.571   7.152   1.053 -0.3672 -0.8049 -0.2102
  762MOL0     C  505   2.654   7.195   0.948 -0.3913  0.1869  0.2845
  762MOL0     C  506   2.969   7.138   0.630  0.7124  0.0715  0.9495
  762MOL0     C  507   2.964   7.094   0.494  0.1865 -0.0407  0.5652
  762MOL0     C  508   3.071   7.117   0.404  0.0205 -0.0251 -0.6900
  762MOL0     C  509   3.193   7.165   0.453 -0.4271 -0.4787 -0.4417
  762MOL0     O  510   3.291   7.186   0.360 -0.8133  0.2668 -0.3568
  762MOL0     C  511   3.433   7.191   0.399 -0.2071 -0.6325 -1.2285
  762MOL0     C  512   3.525   7.210   0.277  0.5290 -1.0112 -0.7487
  762MOL0     C  513   3.674   7.218   0.316 -0.5590 -0.0663 -0.2411
  762MOL0     C  514   3.756   7.112   0.228 -0.2061  0.5796 -0.0568
  762MOL0     C  515   3.898   7.144   0.233  0.0020 -0.3661  0.3311
  762MOL0     C  516   4.017   7.174   0.227  0.3242  1.0292 -0.3584
  762MOL0     C  517   3.199   7.206   0.593  0.0095  0.2241 -0.4079
  762MOL0     C  518   3.089   7.195   0.679  0.3540 -0.7846  0.0455
  762MOL0     H  519   2.954   7.092   1.061 -0.3813  2.0069  0.8997
  762MOL0     H  520   2.817   7.049   1.258 -0.3109 -1.0039 -0.3419
  762MOL0     H  521   2.683   7.124   1.421 -0.0790  0.3876 -0.6130
  762MOL0     H  522   2.581   6.974   1.444  0.8985  0.5200  1.7193
  762MOL0     H  523   2.507   7.269   1.479 -1.1887 -0.1631  0.3928
  762MOL0     H  524   2.520   7.154   1.613 -0.3485  0.4924 -0.0179
  762MOL0     H  525   2.325   7.066   1.411  0.5446 -1.4443  0.5535
  762MOL0     H  526   2.277   7.217   1.500  2.2020  0.5478 -0.0891
  762MOL0     H  527   2.364   6.944   1.597 -0.7261 -0.5625  1.9649
  762MOL0     H  528   2.312   7.070   1.708 -1.0147  3.7172 -0.7206
  762MOL0     H  529   2.168   6.951   1.482 -0.8540  1.5790 -0.5280
  762MOL0     H  530   2.088   7.081   1.575 -0.5136 -1.1863 -0.2590
  762MOL0     H  531   2.103   6.963   1.785 -0.6336  0.2264  0.1276
  762MOL0     H  532   2.155   6.813   1.707 -0.5396  0.9302 -0.6267
  762MOL0     H  533   1.940   6.835   1.567 -1.9742 -1.3004  1.1144
  762MOL0     H  534   1.907   6.799   1.733  0.7425 -2.5114 -2.0585
  762MOL0     H  535   1.886   7.075   1.585 -3.8045  1.6980  0.2862
  762MOL0     H  536   1.865   7.059   1.760 -0.2845  0.2882  0.1483
  762MOL0     H  537   1.666   6.927   1.850  4.7768 -1.1308 -0.8272
  762MOL0     H  538   1.396   6.935   1.856  1.4618  2.0360 -2.0892
  762MOL0     H  539   1.403   6.767   1.808  0.1429  0.7082  0.8465
  762MOL0     H  540   1.273   6.833   1.592 -1.0579 -1.8633  1.2050
  762MOL0     H  541   1.270   6.998   1.646  0.7470  1.2397  2.0798
  762MOL0     H  542   1.166   6.756   1.808  0.9846  1.0508  4.9196
  762MOL0     H  543   1.129   6.915   1.859 -0.0161  0.4841  0.5523
  762MOL0     H  544   1.019   6.799   1.606  1.4416 -0.0463  0.1838
  762MOL0     H  545   1.013   6.972   1.646  1.3181 -0.8295 -1.6287
  762MOL0     H  546   0.688   6.881   1.885  2.0076  0.9229 -0.5441
  762MOL0     H  547   0.474   6.951   1.791  0.5175 -0.8885  0.3991
  762MOL0     H  548   0.115   6.829   1.668  1.4177  1.1073  0.4268
  762MOL0     H  549  -0.119   6.864   1.656  0.3626 -0.4603  0.8826
  762MOL0     H  550  -0.425   7.154   1.490 -1.3430  1.5063  1.4413
  762MOL0     H  551  -0.294   7.260   1.531  1.3631  0.0026  2.6539
  762MOL0     H  552  -0.274   7.207   1.748  1.3650 -0.5754 -1.2584
  762MOL0     H  553  -0.398   7.078   1.749  0.3541 -0.2966 -1.7170
  762MOL0     H  554  -0.419   7.378   1.701  0.4410 -0.6761 -0.1788
  762MOL0     H  555  -0.479   7.302   1.843  0.3055  3.8389  0.7670
  762MOL0     H  556  -0.588   7.319   1.557 -1.8890  0.9662  0.3215
  762MOL0     H  557  -0.624   7.168   1.637 -0.3253  0.0648  0.8844
  762MOL0     H  558  -0.715   7.303   1.832  1.8255 -1.9392  0.4368
  762MOL0     H  559  -0.793   7.289   1.670 -0.2801  2.3634 -0.7714
  762MOL0     H  560  -0.719   7.516   1.613  1.5912  0.6655  0.4437
  762MOL0     H  561  -0.629   7.536   1.755 -0.4491  2.5644  0.5060
  762MOL0     H  562  -0.931   7.462   1.776  0.6429 -0.9741 -0.8114
  762MOL0     H  563  -0.822   7.540   1.895  0.5587 -1.1677  1.0206
  762MOL0     H  564  -0.886   7.667   1.633 -1.2976 -1.4870  0.2837
  762MOL0     H  565  -0.811   7.753   1.770  0.5409  0.2008  0.7733
  762MOL0     H  566  -0.056   7.241   1.463  0.8972 -0.7891 -1.0788
  762MOL0     H  567   0.181   7.216   1.494  0.0730  0.8309  1.2209
  762MOL0     H  568   0.627   6.930   1.385  0.1693 -0.6395  0.0426
  762MOL0     H  569   0.836   6.848   1.473 -0.1468 -2.8329  0.3790
  762MOL0     H  570   2.463   7.167   1.047 -0.0453  3.9582  1.6614
  762MOL0     H  571   2.608   7.232   0.857  0.3816 -0.4488 -0.3730
  762MOL0     H  572   2.870   7.051   0.461  1.7458 -2.0760 -1.5620
  762MOL0     H  573   3.070   7.096   0.297  0.1405 -1.2014 -0.4715
  762MOL0     H  574   3.466   7.100   0.451  2.2958  0.2552 -1.1068
  762MOL0     H  575   3.443   7.271   0.473 -1.4821 -1.5182 -0.0341
  762MOL0     H  576   3.505   7.120   0.219  1.1564 -2.9014  1.7893
  762MOL0     H  577   3.492   7.297   0.219 -2.3551 -1.5055  0.0002
  762MOL0     H  578   3.695   7.197   0.421  2.4324 -3.7668 -1.3437
  762MOL0     H  579   3.705   7.321   0.298 -1.6797  0.3860  0.2754
  762MOL0     H  580   3.727   7.011   0.258  0.7036 -0.0240 -1.1495
  762MOL0     H  581   3.729   7.123   0.122  2.5228 -1.0075 -1.0163
  762MOL0     H  582   4.124   7.172   0.232  0.2789 -1.7539  2.1755
  762MOL0     H  583   3.293   7.254   0.620  0.3748 -0.4125 -0.5222
  762MOL0     H  584   3.104   7.228   0.782 -1.0702 -2.7238  0.9393
  763MOL0     O  585   3.561   8.272   8.538  1.1879 -0.1718  0.1928
  763MOL0     C  586   3.492   8.360   8.587 -0.2336 -0.7811  0.2850
  763MOL0     O  587   3.356   8.362   8.588 -0.5188 -1.4127 -0.0499
  763MOL0     C  588   3.281   8.246   8.569 -0.2301  0.6884  0.2826
  763MOL0     C  589   3.313   8.125   8.637 -1.4787  0.5907  0.0038
  763MOL0     C  590   3.238   8.009   8.626  0.0719 -0.2882  0.1317
  763MOL0     C  591   3.121   8.007   8.546  0.0829  0.5133  0.1004
  763MOL0     O  592   3.049   7.891   8.549  0.3665  0.3177  0.2344
  763MOL0     C  593   2.939   7.889   8.459  0.4047 -0.5075 -0.5554
  763MOL0     C  594   2.856   7.758   8.481  0.1552 -0.7869 -0.7750
  763MOL0     C  595   2.711   7.767   8.423 -0.8130  0.8116 -0.6693
  763MOL0     C  596   2.648   7.630   8.451 -0.1466 -0.4725  0.9978
  763MOL0     C  597   2.508   7.614   8.383 -0.3576 -0.6834  0.2006
  763MOL0     C  598   2.467   7.474   8.336  0.2551 -1.5257 -0.1265
  763MOL0     C  599   2.337   7.497   8.244 -0.5448  0.7887 -0.0999
  763MOL0     C  600   2.272   7.362   8.209 -0.2707 -0.7658  0.4304
  763MOL0     N  601   2.128   7.357   8.186  0.0703 -0.6012  0.3269
  763MOL0     C  602   2.057   7.445   8.100 -0.8092  0.3042  0.1405
  763MOL0     C  603   1.940   7.389   8.091 -0.5678  0.2452 -0.8754
  763MOL0     C  604   1.843   7.456   8.003 -0.2205  0.2298 -0.7797
  763MOL0     C  605   1.692   7.405   8.027  0.5711  0.1559 -0.1121
  763MOL0     C  606   1.625   7.487   8.143 -0.1188 -0.1439  0.0204
  763MOL0     C  607   1.656   7.438   8.282 -0.2287  0.6799  0.0713
  763MOL0     O  608   1.601   7.511   8.385  0.7983 -0.3463  0.3546
  763MOL0     C  609   1.468   7.502   8.422 -0.3062  0.0799  0.6530
  763MOL0     C  610   1.429   7.578   8.519  1.0336  0.0859 -0.8993
  763MOL0     C  611   1.294   7.583   8.566  0.0407  0.4849 -0.6271
  763MOL0     C  612   1.198   7.510   8.498  0.0226  0.5643  0.2496
  763MOL0     C  613   1.057   7.531   8.528  0.8477 -0.7601 -0.1154
  763MOL0     O  614   1.020   7.577   8.649  0.1491 -0.8829  0.0067
  763MOL0     C  615   0.888   7.603   8.676 -0.4716  1.0901 -0.4779
  763MOL0     C  616   0.824   7.713   8.625 -0.9033 -0.3402 -0.0280
  763MOL0     C  617   0.691   7.738   8.668  0.3260 -0.6664  0.4338
  763MOL0     C  618   0.623   7.650   8.748  0.5804  1.0124 -0.0067
  763MOL0     O  619   0.486   7.647   8.767 -0.2968 -0.0800 -1.0712
  763MOL0     C  620   0.405   7.725   8.679 -0.4413  0.8867 -0.1652
  763MOL0     C  621   0.255   7.699   8.707  0.5666  0.0962 -0.0072
  763MOL0     C  622   0.178   7.781   8.606  0.1682 -0.3507 -0.1741
  763MOL0     C  623   0.025   7.750   8.604  0.1456 -0.1401 -0.3029
  763MOL0     C  624  -0.061   7.862   8.528 -0.3963 -0.0058 -0.0535
  763MOL0     C  625  -0.205   7.813   8.513  0.2296  0.6409  0.1220
  763MOL0     C  626  -0.301   7.926   8.458  0.3291 -0.1824  0.8468
  763MOL0     C  627  -0.289   7.962   8.311 -0.4901  0.5202 -0.3301
  763MOL0    Cl  628  -0.443   8.032   8.248  0.1392  0.0129 -0.1742
  763MOL0     C  629   0.695   7.549   8.808  0.0141 -1.0352 -0.2839
  763MOL0     C  630   0.828   7.532   8.776  0.2287  0.6681  0.0950
  763MOL0     O  631   0.974   7.478   8.444 -0.9864  0.2016 -0.7770
  763MOL0     C  632   1.233   7.435   8.382 -0.9007  0.0360  0.3332
  763MOL0     C  633   1.370   7.427   8.357 -0.1128 -0.2503  0.3049
  763MOL0     N  634   1.932   7.281   8.174  0.7386  0.0928 -0.9546
  763MOL0     N  635   2.045   7.257   8.237  0.2889 -0.2884 -0.0806
  763MOL0     C  636   3.086   8.127   8.486  1.0657 -0.1294 -0.4027
  763MOL0     C  637   3.162   8.243   8.488  0.8890 -0.9852  0.2709
  763MOL0     C  638   3.567   8.473   8.646 -0.2215 -0.7063  0.0582
  763MOL0     C  639   3.498   8.576   8.717 -0.1158  0.0221  0.1504
  763MOL0     C  640   3.571   8.662   8.786 -0.3241 -0.0122  0.1397
  763MOL0     C  641   3.707   8.665   8.775  0.2439 -0.2882 -0.0605
  763MOL0     O  642   3.759   8.778   8.829 -0.5094 -0.7796 -0.5814
  763MOL0     C  643   3.886   8.766   8.905  0.1101 -0.4523 -0.4203
  763MOL0     C  644   3.935   8.902   8.958 -0.2194 -0.4578  0.2576
  763MOL0     C  645   3.855   8.953   9.086  0.0347  0.7469  1.0367
  763MOL0     C  646   3.912   9.074   9.153 -0.2594  1.3930  0.1933
  763MOL0     C  647   4.025   9.034   9.232  0.1598  1.0286  0.0107
  763MOL0     C  648   4.120   9.006   9.297 -0.3696  0.0703 -0.1845
  763MOL0     C  649   3.784   8.571   8.709  0.3536  0.2226 -0.0192
  763MOL0     C  650   3.713   8.470   8.637  0.3465  0.6051 -0.8199
  763MOL0     H  651   3.400   8.133   8.702 -0.6697  2.7702 -1.2497
  763MOL0     H  652   3.253   7.914   8.676  0.5225 -2.2058 -3.3584
  763MOL0     H  653   2.959   7.897   8.352  2.6039 -0.8766 -0.2205
  763MOL0     H  654   2.868   7.964   8.495  2.7656  1.6082  0.0098
  763MOL0     H  655   2.859   7.728   8.586  2.1534 -1.5407 -1.0096
  763MOL0     H  656   2.906   7.677   8.428 -0.7698  0.3678 -3.6557
  763MOL0     H  657   2.714   7.798   8.318  1.4065  3.9793  0.1590
  763MOL0     H  658   2.662   7.839   8.489 -0.6778 -0.0118  0.3561
  763MOL0     H  659   2.709   7.548   8.410  0.1971  1.0027 -1.6337
  763MOL0     H  660   2.629   7.619   8.558 -1.9390  0.2943  0.7970
  763MOL0     H  661   2.510   7.669   8.288  2.4785 -0.9561  0.0309
  763MOL0     H  662   2.432   7.654   8.450 -2.1859 -3.7566  0.1665
  763MOL0     H  663   2.445   7.403   8.417 -3.3376 -1.6008 -1.0319
  763MOL0     H  664   2.548   7.429   8.277  1.4352 -0.7252  0.8294
  763MOL0     H  665   2.255   7.549   8.295 -0.8232  0.4553 -0.2063
  763MOL0     H  666   2.360   7.549   8.150 -0.2130  1.4421  0.3346
  763MOL0     H  667   2.291   7.289   8.289 -0.6896 -2.2119 -0.7277
  763MOL0     H  668   2.321   7.319   8.121  0.3554 -2.8707  1.7238
  763MOL0     H  669   2.097   7.528   8.043  0.4818 -1.1675 -1.2252
  763MOL0     H  670   1.867   7.439   7.898  0.7427  2.9496 -1.0710
  763MOL0     H  671   1.849   7.562   8.030 -0.2415 -0.6999  3.7600
  763MOL0     H  672   1.681   7.297   8.039 -0.7278  0.3221  0.2583
  763MOL0     H  673   1.635   7.447   7.944  1.6631  3.0361  0.4616
  763MOL0     H  674   1.655   7.591   8.127  0.3665 -0.2540  0.1650
  763MOL0     H  675   1.518   7.472   8.128  0.0704 -0.1233 -1.4431
  763MOL0     H  676   1.764   7.449   8.297 -0.3550  0.2935  1.3662
  763MOL0     H  677   1.630   7.333   8.292  2.6963 -0.2212 -0.6394
  763MOL0     H  678   1.503   7.634   8.576  0.5548 -0.2457  0.0588
  763MOL0     H  679   1.274   7.652   8.647  0.7098  0.2165 -0.2215
  763MOL0     H  680   0.875   7.765   8.545  1.7655  0.3573  1.9482
  763MOL0     H  681   0.650   7.820   8.609  4.3773  1.4534  0.1804
  763MOL0     H  682   0.424   7.703   8.573 -0.7261  3.4424 -0.8120
  763MOL0     H  683   0.423   7.833   8.688  1.0207  0.6704 -0.2742
  763MOL0     H  684   0.231   7.721   8.812 -1.6765  1.7415 -0.7809
  763MOL0     H  685   0.228   7.596   8.685 -1.5718  0.2012  1.7658
  763MOL0     H  686   0.225   7.751   8.511  0.0285 -0.6724 -0.1439
  763MOL0     H  687   0.189   7.889   8.614 -2.5133 -0.0898  1.2580
  763MOL0     H  688   0.007   7.650   8.565  0.0604 -0.4684  0.5516
  763MOL0     H  689  -0.011   7.739   8.707 -2.3739  2.1423 -0.8432
  763MOL0     H  690  -0.010   7.873   8.432  1.2854  0.2110  0.8237
  763MOL0     H  691  -0.061   7.955   8.585 -2.6208 -0.1708  0.3007
  763MOL0     H  692  -0.252   7.783   8.607  0.2708  2.8774  0.9348
  763MOL0     H  693  -0.221   7.732   8.441 -0.1011  1.5463 -0.8551
  763MOL0     H  694  -0.402   7.900   8.489 -1.3149  1.7716 -2.3278
  763MOL0     H  695  -0.281   8.020   8.511 -1.4194  2.8315 -3.2621
  763MOL0     H  696  -0.259   7.868   8.263  2.7916  0.3401  1.7250
  763MOL0     H  697  -0.205   8.031   8.303  1.1854 -1.2661  0.8731
  763MOL0     H  698   0.651   7.486   8.884 -0.1798 -1.3261 -0.6321
  763MOL0     H  699   0.885   7.465   8.839 -0.6325  1.2152  1.4887
  763MOL0     H  700   1.163   7.385   8.316 -0.2917  0.3356 -0.5494
  763MOL0     H  701   1.393   7.357   8.278 -1.3228 -1.6208  1.1017
  763MOL0     H  702   2.989   8.140   8.440  0.0369 -2.1784  1.0358
  763MOL0     H  703   3.118   8.323   8.429 -2.7320  0.1360  4.0040
  763MOL0     H  704   3.389   8.571   8.721 -0.0919 -1.1845 -0.3741
  763MOL0     H  705   3.523   8.742   8.841 -2.7523 -1.0865 -0.2405
  763MOL0     H  706   3.956   8.732   8.828 -1.4269 -0.7218 -1.7339
  763MOL0     H  707   3.884   8.695   8.989 -2.6353 -1.5951 -1.3390
  763MOL0     H  708   4.043   8.908   8.979  0.3272 -2.7569 -1.5674
  763MOL0     H  709   3.924   8.969   8.873  0.0028 -1.0646 -0.2525
  763MOL0     H  710   3.853   8.870   9.156  0.8202  0.4004  0.6659
  763MOL0     H  711   3.759   8.986   9.045 -0.1050  0.1265  0.8576
  763MOL0     H  712   3.936   9.153   9.081 -0.1144  2.0459  0.9585
  763MOL0     H  713   3.833   9.119   9.213  0.4407  0.6548  1.7047
  763MOL0     H  714   4.201   8.984   9.363 -2.2457  0.8772  2.5392
  763MOL0     H  715   3.885   8.599   8.681 -0.2011  2.8122  0.3412
  763MOL0     H  716   3.757   8.399   8.568  2.3585 -0.4245  1.3716
  764MOL0     O  717   4.599  11.250   4.103 -0.0433 -0.8561 -0.6092
  764MOL0     C  718   4.479  11.212   4.097 -0.3346 -0.7282  0.3807
  764MOL0     O  719   4.430  11.122   4.018  0.2919  0.7621  0.6408
  764MOL0     C  720   4.514  11.046   3.944 -0.0814 -0.9321  0.6558
  764MOL0     C  721   4.516  10.909   3.968 -0.1129 -0.1750  0.7590
  764MOL0     C  722   4.603  10.839   3.893 -0.3709  1.0230 -0.2664
  764MOL0     C  723   4.700  10.888   3.817  0.4583 -0.1483 -0.7897
  764MOL0     O  724   4.799  10.826   3.754  0.2632  0.2655  0.3290
  764MOL0     C  725   4.816  10.683   3.764 -0.0964  0.8987  0.0054
  764MOL0     C  726   4.747  10.603   3.648 -0.1432  0.3589  0.3250
  764MOL0     C  727   4.770  10.457   3.674  0.0593 -0.0178  0.6932
  764MOL0     C  728   4.711  10.379   3.552 -0.0582  0.4630 -0.2886
  764MOL0     C  729   4.746  10.230   3.557  0.6694 -1.2124  0.6961
  764MOL0     C  730   4.657  10.141   3.638  0.1402  0.6060  0.5834
  764MOL0     C  731   4.540  10.090   3.555  0.2013 -0.0216  0.2424
  764MOL0     C  732   4.453   9.994   3.639  1.2581 -0.9953  0.3962
  764MOL0     N  733   4.323   9.963   3.574 -0.6134  0.5206 -0.3317
  764MOL0     C  734   4.198   9.942   3.643  0.0327 -0.2510  0.7841
  764MOL0     C  735   4.104   9.961   3.540 -1.1528 -0.3389  0.2712
  764MOL0     C  736   3.956   9.974   3.537 -0.7926 -0.5950  0.4932
  764MOL0     C  737   3.905  10.072   3.646  1.2163 -0.1257  0.4054
  764MOL0     C  738   3.890  10.003   3.782 -0.4274  0.6787  0.0607
  764MOL0     C  739   3.765   9.919   3.794 -0.3234 -0.0568 -0.5761
  764MOL0     O  740   3.651  10.004   3.819  0.7419 -0.1785 -0.4521
  764MOL0     C  741   3.524   9.956   3.832 -0.3484 -0.2173 -0.5230
  764MOL0     C  742   3.487   9.824   3.813  0.4010  0.0803 -0.3703
  764MOL0     C  743   3.349   9.787   3.813  0.3224 -0.1129  0.2509
  764MOL0     C  744   3.257   9.887   3.864  0.2932  0.3658  0.2088
  764MOL0     C  745   3.113   9.863   3.890 -0.7370  0.3437 -0.2569
  764MOL0     O  746   3.087   9.744   3.947  0.9461  0.2427 -0.3898
  764MOL0     C  747   2.955   9.723   3.979 -0.2844  0.6232 -0.6609
  764MOL0     C  748   2.885   9.618   3.927 -0.2548  1.6331  0.1006
  764MOL0     C  749   2.769   9.573   3.967  0.2448 -0.0154 -0.7470
  764MOL0     C  750   2.710   9.612   4.081 -0.6182  0.3759  0.2111
  764MOL0     O  751   2.601   9.548   4.119  0.0884 -0.2874  0.5627
  764MOL0     C  752   2.618   9.480   4.242  0.2897  0.1796 -1.0915
  764MOL0     C  753   2.677   9.347   4.232  0.1128  1.9357  1.2659
  764MOL0     C  754   2.686   9.282   4.369  0.1195 -0.8274  0.2793
  764MOL0     C  755   2.773   9.154   4.384  0.2593  0.1898 -0.4374
  764MOL0     C  756   2.782   9.109   4.535  0.6038 -0.1315 -0.7587
  764MOL0     C  757   2.656   9.043   4.593 -0.3643 -0.3509 -0.4603
  764MOL0     C  758   2.692   8.997   4.738  1.5398  0.2281 -0.2666
  764MOL0     C  759   2.560   8.977   4.810 -0.7560  0.7052  0.4456
  764MOL0    Cl  760   2.471   9.128   4.845  0.6429 -0.0713 -0.4337
  764MOL0     C  761   2.777   9.713   4.146 -0.1567 -0.6443  0.4619
  764MOL0     C  762   2.894   9.772   4.098  0.5163  0.2418  0.8580
  764MOL0     O  763   3.033   9.953   3.875 -0.1702 -0.3947  0.3338
  764MOL0     C  764   3.298  10.021   3.888 -0.3747  0.9877  1.0404
  764MOL0     C  765   3.427  10.046   3.877 -0.0006 -0.1797  0.4125
  764MOL0     N  766   4.177   9.977   3.419 -0.5119  0.1106 -0.8727
  764MOL0     N  767   4.295   9.986   3.444 -0.6761 -0.2640  0.6614
  764MOL0     C  768   4.685  11.026   3.777 -0.1551 -0.0242  0.4231
  764MOL0     C  769   4.590  11.106   3.840  0.2685  0.8279  0.1568
  764MOL0     C  770   4.379  11.276   4.191 -0.1201  0.2822  0.3669
  764MOL0     C  771   4.424  11.351   4.305 -0.8121 -1.2940 -0.4033
  764MOL0     C  772   4.336  11.391   4.407  0.2906 -0.1132 -0.5984
  764MOL0     C  773   4.208  11.339   4.410  1.2288 -0.2261 -0.4474
  764MOL0     O  774   4.107  11.373   4.510  0.2018 -0.2751  0.9099
  764MOL0     C  775   4.123  11.496   4.573 -0.3587  0.0394 -0.6291
  764MOL0     C  776   3.990  11.553   4.636  0.0393 -0.5809  0.0811
  764MOL0     C  777   3.876  11.559   4.536 -0.6054  0.5083  0.1255
  764MOL0     C  778   3.793  11.688   4.556 -1.0104  0.7640 -0.1196
  764MOL0     C  779   3.699  11.693   4.448  0.8331 -0.6940 -0.7026
  764MOL0     C  780   3.615  11.677   4.364 -0.4228 -0.0589  1.5235
  764MOL0     C  781   4.163  11.261   4.310 -0.4455  0.2727  0.5006
  764MOL0     C  782   4.247  11.224   4.202  0.5960  0.1195 -0.7450
  764MOL0     H  783   4.446  10.865   4.038 -1.2786  1.0776  0.4236
  764MOL0     H  784   4.585  10.732   3.894  1.2551  0.7216  1.1099
  764MOL0     H  785   4.782  10.640   3.859 -1.1624 -2.4688 -1.7235
  764MOL0     H  786   4.924  10.665   3.762 -0.3995 -1.9553  2.2938
  764MOL0     H  787   4.801  10.638   3.560  0.5158 -1.2838  0.0280
  764MOL0     H  788   4.639  10.623   3.649 -1.2441 -4.0081 -1.9401
  764MOL0     H  789   4.705  10.417   3.752 -0.0683 -1.1968  0.0146
  764MOL0     H  790   4.873  10.432   3.697  0.9540  2.5420 -0.1232
  764MOL0     H  791   4.603  10.396   3.549 -0.1908 -0.3566 -2.9180
  764MOL0     H  792   4.748  10.421   3.458  2.5964 -0.6325  0.1522
  764MOL0     H  793   4.847  10.222   3.597 -0.1928 -1.1670  3.0551
  764MOL0     H  794   4.743  10.193   3.454  1.3675 -1.5581  0.7968
  764MOL0     H  795   4.621  10.198   3.724  2.0653  2.0401  0.4974
  764MOL0     H  796   4.717  10.061   3.681 -1.6910 -0.9716  0.3437
  764MOL0     H  797   4.471  10.172   3.531 -0.9662 -1.2803 -0.9398
  764MOL0     H  798   4.582  10.041   3.467 -0.3801 -2.8610  1.4414
  764MOL0     H  799   4.432  10.027   3.741 -1.0445 -1.4420  0.1014
  764MOL0     H  800   4.508   9.901   3.657  2.7005 -0.1710  0.4381
  764MOL0     H  801   4.178   9.934   3.749 -3.1782 -0.8370  0.2205
  764MOL0     H  802   3.903   9.879   3.548 -2.2785  0.2604  0.9634
  764MOL0     H  803   3.927  10.021   3.442  2.5095  0.2895 -0.2141
  764MOL0     H  804   3.804  10.105   3.619  1.3542 -0.4966 -0.6158
  764MOL0     H  805   3.965  10.162   3.660  0.4298  0.0163  3.5124
  764MOL0     H  806   3.975   9.935   3.791 -2.5363 -2.2569 -0.9164
  764MOL0     H  807   3.887  10.084   3.856  0.1395  0.2779  0.5276
  764MOL0     H  808   3.777   9.861   3.886 -0.8399  0.9657  0.1513
  764MOL0     H  809   3.759   9.845   3.713  0.3224 -1.5354  0.6698
  764MOL0     H  810   3.559   9.747   3.787 -1.1928 -1.0248 -1.7254
  764MOL0     H  811   3.316   9.689   3.780 -0.2324  0.5668 -1.3270
  764MOL0     H  812   2.929   9.563   3.844 -1.5663 -0.7400  0.8766
  764MOL0     H  813   2.736   9.492   3.903 -0.2138  0.2874 -0.9013
  764MOL0     H  814   2.524   9.466   4.295 -0.5758  0.3258 -2.5535
  764MOL0     H  815   2.673   9.540   4.316 -0.2190 -1.7848  0.9901
  764MOL0     H  816   2.774   9.356   4.182  0.6507 -0.6667  1.7360
  764MOL0     H  817   2.615   9.274   4.179  2.0301  1.6704 -0.7414
  764MOL0     H  818   2.587   9.265   4.413 -0.0721 -0.7893 -0.1242
  764MOL0     H  819   2.722   9.363   4.433  3.0660 -0.9954 -0.9875
  764MOL0     H  820   2.724   9.079   4.321 -2.3034 -1.3239  3.0522
  764MOL0     H  821   2.879   9.163   4.359  0.2150 -0.2821 -0.8235
  764MOL0     H  822   2.811   9.195   4.596  5.5986 -1.8713 -0.1805
  764MOL0     H  823   2.860   9.033   4.544 -0.8849 -1.9361 -2.2344
  764MOL0     H  824   2.640   8.959   4.526  1.5901  0.3640 -1.8890
  764MOL0     H  825   2.568   9.108   4.586  0.1224  0.3265 -0.4586
  764MOL0     H  826   2.738   8.897   4.736 -2.3425 -1.8212  1.9556
  764MOL0     H  827   2.760   9.068   4.786  1.5116 -0.9798  1.6352
  764MOL0     H  828   2.575   8.933   4.910  0.4828  1.0844  0.4320
  764MOL0     H  829   2.492   8.903   4.766 -0.5899 -0.6967  2.3721
  764MOL0     H  830   2.742   9.747   4.243 -1.3291 -1.6967  0.4433
  764MOL0     H  831   2.947   9.852   4.150 -1.8840  2.6081 -0.1024
  764MOL0     H  832   3.237  10.107   3.913  1.1560  1.9547  1.6283
  764MOL0     H  833   3.451  10.150   3.894 -2.8096  0.5522  0.3571
  764MOL0     H  834   4.746  11.065   3.697  0.7449 -1.8136  0.1786
  764MOL0     H  835   4.584  11.210   3.812  0.3850  1.8170  3.3256
  764MOL0     H  836   4.528  11.380   4.306 -1.6393  2.1511  0.4429
  764MOL0     H  837   4.368  11.455   4.489 -2.3088 -0.3000  0.6714
  764MOL0     H  838   4.171  11.575   4.515 -0.9296  1.1435  0.3599
  764MOL0     H  839   4.186  11.476   4.661 -0.7206  1.5473 -0.0045
  764MOL0     H  840   3.967  11.482   4.716 -1.4104 -0.3331 -0.0876
  764MOL0     H  841   4.019  11.649   4.679  1.7573 -0.9900 -0.0805
  764MOL0     H  842   3.817  11.468   4.546  0.2979 -0.2066 -0.8163
  764MOL0     H  843   3.926  11.552   4.438  0.3626  2.3044  0.4398
  764MOL0     H  844   3.751  11.688   4.657 -0.6760  0.0350  0.0204
  764MOL0     H  845   3.861  11.774   4.557  0.3994 -0.1964  3.7405
  764MOL0     H  846   3.551  11.663   4.279 -0.1047  0.4901  1.1815
  764MOL0     H  847   4.067  11.212   4.326  0.0489 -2.0873 -2.7088
  764MOL0     H  848   4.218  11.142   4.136 -1.0388  0.4357 -0.4585
  765MOL0     O  849   7.949   0.883   0.198  0.2207  0.5174 -0.2195
  765MOL0     C  850   7.896   0.863   0.092 -0.3304  0.6572 -0.2556
  765MOL0     O  851   7.967   0.845  -0.035  0.1846 -0.2585 -0.7211
  765MOL0     C  852   8.103   0.876  -0.044  0.2797 -0.4395  0.4905
  765MOL0     C  853   8.188   0.803  -0.122 -0.6006 -0.1109 -0.1164
  765MOL0     C  854   8.326   0.833  -0.132  0.1901 -0.0029  0.7980
  765MOL0     C  855   8.378   0.935  -0.068 -1.0367  0.1609 -0.2327
  765MOL0     O  856   8.507   0.962  -0.086 -0.2368  0.6897 -0.3210
  765MOL0     C  857   8.572   1.014   0.032 -0.6954  0.3058 -0.2130
  765MOL0     C  858   8.726   1.013   0.006  0.1954  0.1262 -0.6798
  765MOL0     C  859   8.779   1.114  -0.087 -0.6469 -0.2543 -0.7439
  765MOL0     C  860   8.904   1.181  -0.020  1.0160  0.4158 -0.1653
  765MOL0     C  861   9.004   1.244  -0.114  0.4966  0.5518 -0.9767
  765MOL0     C  862   9.117   1.320  -0.045  0.8634 -0.6367  0.0061
  765MOL0     C  863   9.222   1.371  -0.135 -1.2506  0.0385  0.5573
  765MOL0     C  864   9.328   1.461  -0.066 -0.3803 -0.4090 -0.2389
  765MOL0     N  865   9.470   1.435  -0.091 -0.3769  0.4900 -0.2102
  765MOL0     C  866   9.531   1.482  -0.203  0.0718  1.4743  1.1181
  765MOL0     C  867   9.668   1.475  -0.167  0.1058  0.0011  0.1823
  765MOL0     C  868   9.785   1.504  -0.259  0.3147 -0.8986 -0.1632
  765MOL0     C  869   9.749   1.446  -0.397  0.3361  0.4161  0.1334
  765MOL0     C  870   9.872   1.467  -0.495  0.3402 -0.4883  0.2401
  765MOL0     C  871   9.834   1.409  -0.634 -0.3559  0.6737  0.1912
  765MOL0     O  872   9.942   1.428  -0.732  0.0745  0.5265 -0.1762
  765MOL0     C  873   9.922   1.398  -0.868  0.3334  0.7510  0.3588
  765MOL0     C  874   9.802   1.332  -0.918  0.3503 -0.2680  0.2410
  765MOL0     C  875   9.776   1.332  -1.055  0.4252 -0.6781 -0.2828
  765MOL0     C  876   9.860   1.382  -1.154 -0.7002 -0.0707  0.9569
  765MOL0     C  877   9.839   1.368  -1.302 -0.2410 -0.0763  0.2983
  765MOL0     O  878   9.950   1.383  -1.386  0.1816 -0.0351  0.3845
  765MOL0     C  879   9.942   1.397  -1.523 -0.9690  0.2038 -0.9515
  765MOL0     C  880   9.823   1.411  -1.598 -0.0162 -0.9588  0.4739
  765MOL0     C  881   9.842   1.407  -1.736 -0.9560 -1.1175  0.0862
  765MOL0     C  882   9.963   1.388  -1.796  0.1120  0.5309 -0.2692
  765MOL0     O  883   9.961   1.358  -1.928 -0.2749 -0.0522  0.4642
  765MOL0     C  884  10.060   1.415  -2.012 -0.5474 -1.3070 -0.3964
  765MOL0     C  885   9.999   1.446  -2.149 -0.3264  0.6858  0.1085
  765MOL0     C  886  10.109   1.497  -2.254 -0.6973 -0.6623 -0.4190
  765MOL0     C  887  10.135   1.646  -2.234 -0.3736 -0.1486  0.9308
  765MOL0     C  888  10.233   1.689  -2.343  0.1147  0.0438  0.7284
  765MOL0     C  889  10.234   1.844  -2.374 -0.1691  0.1356  0.4010
  765MOL0     C  890  10.324   1.871  -2.497 -0.5299  0.7542 -0.7273
  765MOL0     C  891  10.358   2.018  -2.512  0.1606 -0.3111 -0.0799
  765MOL0    Cl  892  10.213   2.101  -2.571 -0.2932  0.2050 -0.6034
  765MOL0     C  893  10.077   1.381  -1.721  0.0462  0.0570 -0.2370
  765MOL0     C  894  10.067   1.385  -1.584  0.1726  0.0271 -0.0043
  765MOL0     O  895   9.729   1.351  -1.335  0.8235  0.2208  0.8830
  765MOL0     C  896   9.984   1.436  -1.103  0.9208  0.8110  0.9421
  765MOL0     C  897  10.017   1.439  -0.961  0.0348 -0.0317 -0.7330
  765MOL0     N  898   9.686   1.439  -0.034 -0.5600 -0.2271  0.2081
  765MOL0     N  899   9.569   1.403   0.003 -0.9894 -1.0783 -0.3331
  765MOL0     C  900   8.291   1.014   0.001 -0.7831  0.0038 -0.1578
  765MOL0     C  901   8.157   0.991   0.014  0.1967  0.2583  0.6347
  765MOL0     C  902   7.749   0.831   0.090 -1.0370  0.0080 -0.2768
  765MOL0     C  903   7.688   0.772  -0.022  0.2685 -0.5583 -0.7447
  765MOL0     C  904   7.541   0.749  -0.013  0.0546  0.4210 -0.0949
  765MOL0     C  905   7.466   0.802   0.095  0.3481 -0.2378  0.5388
  765MOL0     O  906   7.335   0.801   0.084  0.2170  0.2720  0.0998
  765MOL0     C  907   7.265   0.910   0.150 -0.2194  0.5051 -0.0968
  765MOL0     C  908   7.127   0.911   0.079  0.0952 -0.1736  0.2563
  765MOL0     C  909   7.041   1.036   0.094 -0.2159  0.6237  0.2543
  765MOL0     C  910   6.927   1.020  -0.003  0.3970 -0.1297  0.5456
  765MOL0     C  911   6.847   1.138   0.002  0.1299  0.2339  0.7514
  765MOL0     C  912   6.794   1.248  -0.018  0.6401 -0.0561  0.2359
  765MOL0     C  913   7.528   0.868   0.194 -0.6131 -0.2298 -0.4787
  765MOL0     C  914   7.669   0.872   0.204  0.0153  0.3336  0.1179
  765MOL0     H  915   8.143   0.729  -0.188 -0.3402  1.1165 -1.7213
  765MOL0     H  916   8.392   0.772  -0.193  0.3272  2.3450 -1.5582
  765MOL0     H  917   8.554   0.940   0.110 -0.3716  3.5631  3.2716
  765MOL0     H  918   8.537   1.110   0.070  0.2320  0.8919 -0.7959
  765MOL0     H  919   8.769   0.916  -0.022 -0.2789  0.1476 -1.5275
  765MOL0     H  920   8.765   1.045   0.103 -0.2176  0.4092 -0.6043
  765MOL0     H  921   8.707   1.192  -0.111  0.7651  1.3889  0.1338
  765MOL0     H  922   8.806   1.067  -0.182  0.1066 -1.2763 -0.0443
  765MOL0     H  923   8.867   1.264   0.041 -4.1040 -1.5606 -0.0546
  765MOL0     H  924   8.962   1.111   0.040  0.3932  0.3763  0.4037
  765MOL0     H  925   8.954   1.316  -0.179 -0.0950  1.0645  0.0269
  765MOL0     H  926   9.054   1.159  -0.163  2.5187  1.2002 -0.1663
  765MOL0     H  927   9.156   1.249   0.030  1.7202 -1.8505 -1.5350
  765MOL0     H  928   9.073   1.404   0.009  0.5123  0.9198 -2.5566
  765MOL0     H  929   9.273   1.286  -0.182  0.2976  0.0877  2.0506
  765MOL0     H  930   9.189   1.435  -0.217 -1.1223 -1.9235 -1.0958
  765MOL0     H  931   9.314   1.434   0.039 -1.3549  2.3053  0.3967
  765MOL0     H  932   9.294   1.562  -0.088 -1.9176 -0.7967  0.2215
  765MOL0     H  933   9.479   1.505  -0.296 -0.8547 -1.5287  0.7777
  765MOL0     H  934   9.878   1.456  -0.227  0.4568 -0.6775 -0.2405
  765MOL0     H  935   9.794   1.613  -0.264  0.1436 -0.8240  0.9335
  765MOL0     H  936   9.666   1.497  -0.446  1.3141 -1.0373 -3.3552
  765MOL0     H  937   9.721   1.343  -0.374 -1.6672  0.9734  0.3816
  765MOL0     H  938   9.886   1.576  -0.496 -0.3723 -0.2632  3.6317
  765MOL0     H  939   9.969   1.433  -0.459  1.4550  1.1713 -1.0647
  765MOL0     H  940   9.740   1.454  -0.666 -0.3078 -0.5743 -1.8543
  765MOL0     H  941   9.824   1.300  -0.627  2.6885  0.3202  0.6430
  765MOL0     H  942   9.733   1.303  -0.839 -0.7170 -1.7231 -1.1573
  765MOL0     H  943   9.683   1.294  -1.096  0.3516  3.1465 -4.5252
  765MOL0     H  944   9.726   1.431  -1.555 -1.3731  0.4987 -2.9384
  765MOL0     H  945   9.759   1.401  -1.807 -1.0160  1.1311 -0.1009
  765MOL0     H  946  10.148   1.350  -2.013  0.7399  0.3630 -0.4021
  765MOL0     H  947  10.100   1.508  -1.971  1.7351 -1.0644 -2.8317
  765MOL0     H  948   9.918   1.517  -2.134 -1.1028  0.1260 -1.1951
  765MOL0     H  949   9.946   1.357  -2.185 -1.9300  1.6772 -0.0906
  765MOL0     H  950  10.064   1.483  -2.352  1.3215 -1.3684 -1.3000
  765MOL0     H  951  10.210   1.454  -2.250  0.2762  1.5736  0.1960
  765MOL0     H  952  10.039   1.698  -2.239  1.1430  2.8452  0.7292
  765MOL0     H  953  10.179   1.683  -2.140 -0.7792 -0.6540  1.3249
  765MOL0     H  954  10.213   1.635  -2.436  0.0610  0.7849  0.3003
  765MOL0     H  955  10.334   1.655  -2.318  0.7442  2.2663  1.4193
  765MOL0     H  956  10.262   1.906  -2.289  0.1682  1.0272 -0.3423
  765MOL0     H  957  10.133   1.874  -2.403 -0.1647 -0.6445 -0.4615
  765MOL0     H  958  10.418   1.817  -2.478  0.4920  2.2914 -1.2417
  765MOL0     H  959  10.273   1.831  -2.585  0.3354 -1.6226 -0.2227
  765MOL0     H  960  10.439   2.036  -2.584  0.2746 -0.9088 -0.1072
  765MOL0     H  961  10.386   2.061  -2.415 -1.2129 -0.4884  0.4136
  765MOL0     H  962  10.172   1.377  -1.774 -0.1257 -0.2616 -0.5254
  765MOL0     H  963  10.153   1.377  -1.519 -1.8318  0.9230  2.9681
  765MOL0     H  964  10.059   1.473  -1.172  0.7884 -3.4572 -1.8641
  765MOL0     H  965  10.108   1.484  -0.920 -1.1097  2.1027 -0.4219
  765MOL0     H  966   8.321   1.106   0.050 -0.7449  0.6950 -1.4163
  765MOL0     H  967   8.089   1.053   0.072 -1.3466  1.1931 -1.9856
  765MOL0     H  968   7.757   0.740  -0.099  4.0340  3.1809  0.6960
  765MOL0     H  969   7.493   0.696  -0.095 -0.6799 -3.3797  2.5399
  765MOL0     H  970   7.316   1.005   0.129  2.2204 -0.7466 -0.2708
  765MOL0     H  971   7.255   0.902   0.259 -1.1740  2.2265 -0.0275
  765MOL0     H  972   7.142   0.892  -0.027 -0.5022  3.5790 -0.6299
  765MOL0     H  973   7.077   0.825   0.125 -0.0359  0.7414  1.8896
  765MOL0     H  974   7.102   1.123   0.071  0.0648  0.2489 -0.4415
  765MOL0     H  975   7.015   1.040   0.200 -3.2973  0.9162 -0.4248
  765MOL0     H  976   6.972   0.999  -0.101  0.3471 -0.1692  0.5314
  765MOL0     H  977   6.866   0.932   0.017 -0.3764 -0.4458 -2.6209
  765MOL0     H  978   6.749   1.344  -0.031 -1.3127 -0.9248  0.1267
  765MOL0     H  979   7.470   0.911   0.275 -1.2637 -1.3044 -0.3643
  765MOL0     H  980   7.720   0.915   0.289 -0.3165 -0.9098  0.9850
  766MOL0     O  981   6.985   0.112   0.045  0.7883  0.3178 -0.2376
  766MOL0     C  982   7.013   0.005  -0.010  0.5047  0.3567 -0.1246
  766MOL0     O  983   6.931  -0.072  -0.090  0.8709  0.1463 -0.0286
  766MOL0     C  984   6.801  -0.032  -0.123 -0.1067  0.0578 -0.0696
  766MOL0     C  985   6.762  -0.045  -0.257 -0.9034 -0.8037  0.7437
  766MOL0     C  986   6.638   0.014  -0.299  0.2833 -0.1974  0.2969
  766MOL0     C  987   6.548   0.069  -0.207 -0.1277  0.1531 -0.6450
  766MOL0     O  988   6.431   0.127  -0.247 -0.6131  1.0435 -0.0181
  766MOL0     C  989   6.335   0.178  -0.156 -0.0965 -0.3809  0.5934
  766MOL0     C  990   6.227   0.247  -0.242  0.0264  0.5677  0.0933
  766MOL0     C  991   6.108   0.283  -0.158 -1.0109  0.8709  0.1101
  766MOL0     C  992   6.010   0.372  -0.232 -0.2498 -0.1966 -0.0189
  766MOL0     C  993   5.922   0.436  -0.126 -0.8389 -0.1836 -0.3431
  766MOL0     C  994   5.801   0.504  -0.182  0.0695  0.0313 -0.6329
  766MOL0     C  995   5.692   0.512  -0.072 -0.1705  0.5930  0.1316
  766MOL0     C  996   5.745   0.608   0.032 -0.1759  0.2666 -0.0066
  766MOL0     N  997   5.631   0.639   0.122 -0.1067 -0.2878  0.9346
  766MOL0     C  998   5.561   0.560   0.208  1.2189 -0.4155  0.2592
  766MOL0     C  999   5.452   0.641   0.243 -0.2436 -0.2217 -0.5909
  766MOL0     C 1000   5.346   0.586   0.330  1.1160 -0.6590  0.1936
  766MOL0     C 1001   5.208   0.586   0.258 -0.4255  0.5916 -0.0455
  766MOL0     C 1002   5.096   0.554   0.359  0.3211  0.4955  0.1348
  766MOL0     C 1003   4.959   0.592   0.287 -0.8838 -1.0764  0.0980
  766MOL0     O 1004   4.851   0.529   0.358 -0.3003 -0.4256 -0.3687
  766MOL0     C 1005   4.720   0.559   0.334 -0.5465 -0.5308 -0.9882
  766MOL0     C 1006   4.671   0.656   0.231 -0.5382  1.1350  0.0780
  766MOL0     C 1007   4.539   0.664   0.202 -0.3261  0.1564 -0.7010
  766MOL0     C 1008   4.444   0.592   0.272 -0.1605 -0.6683 -0.8676
  766MOL0     C 1009   4.305   0.588   0.232  0.3329  0.0816  0.2340
  766MOL0     O 1010   4.206   0.560   0.322  0.1174 -0.7352 -0.1432
  766MOL0     C 1011   4.078   0.525   0.300  0.1851 -0.3183 -0.3745
  766MOL0     C 1012   3.980   0.566   0.384 -0.4226  0.5379  0.1303
  766MOL0     C 1013   3.840   0.532   0.363 -0.0596 -0.4472  0.7811
  766MOL0     C 1014   3.812   0.467   0.243 -0.3256  0.5006  0.0863
  766MOL0     O 1015   3.679   0.446   0.219  0.1610 -0.3579 -0.0656
  766MOL0     C 1016   3.648   0.337   0.132  0.2290 -1.2920 -1.0698
  766MOL0     C 1017   3.500   0.319   0.130  0.6830  0.5525  0.2290
  766MOL0     C 1018   3.447   0.240   0.007  0.4276 -0.0538  1.1285
  766MOL0     C 1019   3.290   0.224   0.000  0.2247  0.4859 -0.1188
  766MOL0     C 1020   3.251   0.146  -0.118  0.6041 -0.1450  0.9846
  766MOL0     C 1021   3.103   0.117  -0.119 -0.1971 -0.0887  1.2629
  766MOL0     C 1022   3.056   0.052  -0.245 -1.2486  0.0310 -0.2142
  766MOL0     C 1023   2.909   0.027  -0.251 -0.7888  0.2139 -0.0341
  766MOL0    Cl 1024   2.849  -0.068  -0.118 -0.3455 -0.1469 -0.5503
  766MOL0     C 1025   3.914   0.415   0.165 -0.5422  0.2996  0.8121
  766MOL0     C 1026   4.050   0.440   0.198  0.2856 -0.6850 -0.1570
  766MOL0     O 1027   4.287   0.610   0.111  0.5142 -0.5455 -0.2790
  766MOL0     C 1028   4.487   0.523   0.383 -0.3658  0.4031 -0.6500
  766MOL0     C 1029   4.622   0.494   0.405 -0.4168  0.7532  0.1402
  766MOL0     N 1030   5.454   0.760   0.167 -0.0227 -0.1681 -0.2627
  766MOL0     N 1031   5.561   0.751   0.104 -0.5447  0.4561 -0.4602
  766MOL0     C 1032   6.587   0.070  -0.076  0.8475  0.5346 -0.3157
  766MOL0     C 1033   6.710   0.024  -0.032 -0.1729  0.2441 -0.5618
  766MOL0     C 1034   7.153  -0.044   0.010  0.2512  0.3965  0.0087
  766MOL0     C 1035   7.241   0.019   0.094  0.6350  0.5767  0.1878
  766MOL0     C 1036   7.369  -0.030   0.106 -0.6611 -0.1979  0.2252
  766MOL0     C 1037   7.412  -0.143   0.045 -0.5616 -0.4289  0.9224
  766MOL0     O 1038   7.529  -0.198   0.073  0.4403 -0.0456 -0.3739
  766MOL0     C 1039   7.530  -0.290   0.179  0.3741  0.2006  0.0089
  766MOL0     C 1040   7.645  -0.264   0.280 -0.9704  0.1930  0.3447
  766MOL0     C 1041   7.787  -0.280   0.231 -0.4943  0.9391  1.0024
  766MOL0     C 1042   7.894  -0.254   0.344  0.2984  0.1579  0.3694
  766MOL0     C 1043   8.027  -0.276   0.285 -0.0575  0.5008  0.0077
  766MOL0     C 1044   8.137  -0.300   0.241 -0.1302 -0.0392 -0.6636
  766MOL0     C 1045   7.335  -0.197  -0.061 -0.1212 -0.0586 -0.3339
  766MOL0     C 1046   7.202  -0.143  -0.081 -1.3403  0.2395 -0.3503
  766MOL0     H 1047   6.831  -0.091  -0.328  0.8527 -0.1866  1.9773
  766MOL0     H 1048   6.628   0.029  -0.406  1.4076  0.9814  0.3382
  766MOL0     H 1049   6.378   0.249  -0.085 -0.6878 -1.7063  2.3399
  766MOL0     H 1050   6.295   0.091  -0.103 -1.2528 -1.0958 -1.3178
  766MOL0     H 1051   6.212   0.190  -0.334 -2.1040  0.6076  0.3677
  766MOL0     H 1052   6.275   0.338  -0.277 -0.3303  1.1305  1.0332
  766MOL0     H 1053   6.144   0.337  -0.071  0.8417 -0.7266  0.4004
  766MOL0     H 1054   6.067   0.189  -0.120  0.6631  0.6259  1.4309
  766MOL0     H 1055   6.060   0.450  -0.290 -1.1624  2.0677  2.0610
  766MOL0     H 1056   5.954   0.310  -0.302 -0.2111 -3.4181  2.5708
  766MOL0     H 1057   5.985   0.507  -0.072 -1.7245 -0.9891  1.8554
  766MOL0     H 1058   5.888   0.359  -0.056 -2.3135 -0.3548 -1.2073
  766MOL0     H 1059   5.768   0.448  -0.270 -0.1768  0.1070 -0.5902
  766MOL0     H 1060   5.826   0.605  -0.215 -0.7862  0.3607 -0.2955
  766MOL0     H 1061   5.598   0.556  -0.109 -0.6798 -0.0774  0.6065
  766MOL0     H 1062   5.666   0.422  -0.016  2.8483  1.4844  3.2821
  766MOL0     H 1063   5.781   0.699  -0.016 -1.0228  0.6268  0.0117
  766MOL0     H 1064   5.818   0.562   0.098 -0.1181 -0.3200 -0.4740
  766MOL0     H 1065   5.578   0.457   0.237  1.5607  0.0932  1.9301
  766MOL0     H 1066   5.341   0.655   0.415 -0.1492 -0.1686 -0.2430
  766MOL0     H 1067   5.379   0.486   0.356 -0.0733 -1.3791 -0.9177
  766MOL0     H 1068   5.199   0.519   0.172  1.0397  0.9711 -0.5281
  766MOL0     H 1069   5.181   0.677   0.204 -0.3282  1.1816  0.8710
  766MOL0     H 1070   5.090   0.445   0.357  0.2907  0.4998 -1.6144
  766MOL0     H 1071   5.107   0.595   0.460 -1.7557 -0.1556  0.6586
  766MOL0     H 1072   4.966   0.544   0.189  1.1497 -4.1795  1.5970
  766MOL0     H 1073   4.942   0.700   0.288  0.4067 -0.8368 -0.9755
  766MOL0     H 1074   4.747   0.714   0.180  0.9244  1.3730  2.3333
  766MOL0     H 1075   4.506   0.706   0.108 -2.7448 -1.1149 -0.5073
  766MOL0     H 1076   4.013   0.622   0.471  0.2889 -2.2534  1.7959
  766MOL0     H 1077   3.753   0.569   0.415 -0.0967 -1.1611  1.2473
  766MOL0     H 1078   3.692   0.239   0.153  0.5091 -0.8280  0.6254
  766MOL0     H 1079   3.670   0.369   0.030  0.5716 -0.2901 -0.6953
  766MOL0     H 1080   3.458   0.419   0.137  1.8011  1.4907 -3.8412
  766MOL0     H 1081   3.457   0.274   0.221 -2.0315  1.4020 -0.5543
  766MOL0     H 1082   3.497   0.142   0.011 -1.0576 -0.9781 -0.7700
  766MOL0     H 1083   3.476   0.299  -0.080 -1.2132 -0.3181  0.3758
  766MOL0     H 1084   3.246   0.183   0.092 -2.3299 -0.1143 -1.5223
  766MOL0     H 1085   3.258   0.328  -0.011 -4.3512 -0.8076 -0.9086
  766MOL0     H 1086   3.299   0.049  -0.129 -0.8508 -0.7356 -0.6675
  766MOL0     H 1087   3.271   0.193  -0.214 -0.5740 -3.1680 -0.8843
  766MOL0     H 1088   3.044   0.202  -0.086  0.1482  0.8065 -0.3428
  766MOL0     H 1089   3.105   0.047  -0.035  1.9274  1.2073  2.3767
  766MOL0     H 1090   3.089   0.118  -0.325  1.9652 -0.6227  0.4352
  766MOL0     H 1091   3.098  -0.048  -0.259  0.4574  0.4647  1.3779
  766MOL0     H 1092   2.881  -0.037  -0.336 -0.9988  0.5378 -0.2111
  766MOL0     H 1093   2.854   0.122  -0.256  0.8043  1.1694 -0.0667
  766MOL0     H 1094   3.884   0.346   0.086 -2.4968  1.2600  0.6466
  766MOL0     H 1095   4.126   0.393   0.136  0.7800 -0.0632 -0.0377
  766MOL0     H 1096   4.410   0.474   0.442 -1.7115  2.0328 -0.9942
  766MOL0     H 1097   4.656   0.408   0.462  1.3391  0.5290 -1.1430
  766MOL0     H 1098   6.523   0.093   0.008  1.6731 -2.1075  1.1705
  766MOL0     H 1099   6.723   0.025   0.076 -1.9373  2.3484 -0.2920
  766MOL0     H 1100   7.218   0.113   0.143  1.7724  3.0976 -3.6714
  766MOL0     H 1101   7.429   0.010   0.187 -0.2183  1.0662 -0.6962
  766MOL0     H 1102   7.534  -0.391   0.137  4.7736  0.2653 -0.1443
  766MOL0     H 1103   7.434  -0.282   0.231 -1.2557  0.1558 -2.7918
  766MOL0     H 1104   7.629  -0.158   0.305 -5.0112  0.5314 -2.6759
  766MOL0     H 1105   7.633  -0.325   0.370  1.3796  0.5881  0.9869
  766MOL0     H 1106   7.799  -0.213   0.146  0.6000 -1.3984 -0.8036
  766MOL0     H 1107   7.798  -0.384   0.197 -1.3548  1.1024  0.1816
  766MOL0     H 1108   7.875  -0.151   0.378 -0.7469 -0.0808  0.5504
  766MOL0     H 1109   7.882  -0.326   0.426  1.5381 -1.5831 -0.9108
  766MOL0     H 1110   8.238  -0.306   0.207 -0.1273 -2.0271 -0.4020
  766MOL0     H 1111   7.367  -0.294  -0.096 -1.7497 -1.8669  2.7602
  766MOL0     H 1112   7.130  -0.178  -0.155 -2.3135 -0.4431  0.8884
  767MOL0     O 1113   0.020   5.821   0.016  0.1093  0.3412 -0.3605
  767MOL0     C 1114   0.089   5.870   0.109 -0.7408  0.5634  0.6415
  767MOL0     O 1115   0.230   5.854   0.122 -0.0924  0.1236 -0.6800
  767MOL0     C 1116   0.305   5.799   0.017  0.8066 -0.2813  0.2571
  767MOL0     C 1117   0.330   5.883  -0.095  0.5828  0.8022  0.2204
  767MOL0     C 1118   0.394   5.829  -0.204 -0.4057 -0.0378  0.1286
  767MOL0     C 1119   0.424   5.694  -0.217 -0.0898 -0.1328 -0.1622
  767MOL0     O 1120   0.462   5.658  -0.344  0.1727  0.4712 -0.4266
  767MOL0     C 1121   0.522   5.527  -0.358 -0.2176  0.7428 -0.4755
  767MOL0     C 1122   0.555   5.499  -0.503  0.4995 -1.0240 -0.2926
  767MOL0     C 1123   0.438   5.529  -0.596 -0.9611  0.2674  0.3288
  767MOL0     C 1124   0.473   5.492  -0.747  0.0931  0.0980 -0.1031
  767MOL0     C 1125   0.499   5.342  -0.776 -0.3271  0.5552 -0.1252
  767MOL0     C 1126   0.374   5.260  -0.752  0.2866 -0.3921  0.4430
  767MOL0     C 1127   0.395   5.111  -0.788  0.2435 -0.4464 -0.7181
  767MOL0     C 1128   0.386   5.084  -0.937 -1.5898 -0.4823  0.5995
  767MOL0     N 1129   0.271   5.149  -0.995  0.5256  0.1243  0.0411
  767MOL0     C 1130   0.139   5.092  -0.999  0.3437  0.0167  0.1689
  767MOL0     C 1131   0.059   5.192  -1.050 -1.0043  0.2910  0.0752
  767MOL0     C 1132  -0.086   5.168  -1.077  0.1309  0.2636 -0.4120
  767MOL0     C 1133  -0.176   5.276  -1.013 -0.3598 -0.5420  0.4166
  767MOL0     C 1134  -0.216   5.236  -0.879 -0.1581 -0.8345  0.0974
  767MOL0     C 1135  -0.329   5.319  -0.822  0.2584  0.0363 -0.5486
  767MOL0     O 1136  -0.450   5.260  -0.855 -0.0494 -0.2281 -0.3701
  767MOL0     C 1137  -0.560   5.304  -0.788  0.3986  0.2164  0.1773
  767MOL0     C 1138  -0.678   5.234  -0.793 -0.2360  0.2348 -0.0336
  767MOL0     C 1139  -0.793   5.265  -0.731  0.9997  0.5141  0.4827
  767MOL0     C 1140  -0.800   5.384  -0.662  0.8157  0.2271  0.1466
  767MOL0     C 1141  -0.932   5.428  -0.604  0.2879  0.3881 -1.0106
  767MOL0     O 1142  -1.045   5.349  -0.648  0.1266 -0.2684  0.1457
  767MOL0     C 1143  -1.169   5.370  -0.607  0.2517 -0.4617  0.1282
  767MOL0     C 1144  -1.254   5.262  -0.615 -0.6526 -0.5356  0.5968
  767MOL0     C 1145  -1.392   5.273  -0.600  0.1590  0.1261 -0.6178
  767MOL0     C 1146  -1.454   5.385  -0.558  0.3248  0.2374 -0.4054
  767MOL0     O 1147  -1.582   5.405  -0.516  0.4184  0.0533 -0.1267
  767MOL0     C 1148  -1.689   5.345  -0.592 -0.4223  0.6326  0.5304
  767MOL0     C 1149  -1.833   5.380  -0.532  0.0007 -0.4981  0.4284
  767MOL0     C 1150  -1.939   5.338  -0.627  0.6008  0.1460 -0.7377
  767MOL0     C 1151  -1.931   5.195  -0.667 -0.5504  0.1451 -0.5980
  767MOL0     C 1152  -2.053   5.154  -0.733 -0.2635  0.8852 -0.8072
  767MOL0     C 1153  -2.145   5.072  -0.644  0.0529 -0.2380 -0.4317
  767MOL0     C 1154  -2.269   5.010  -0.706 -0.9967  0.3293  0.0055
  767MOL0     C 1155  -2.368   4.974  -0.600 -0.1370  1.2654  0.0435
  767MOL0    Cl 1156  -2.442   5.124  -0.534  0.0491 -0.0162  0.6892
  767MOL0     C 1157  -1.374   5.497  -0.553 -0.7457  0.2444 -0.4375
  767MOL0     C 1158  -1.238   5.494  -0.580 -0.2033  0.2295 -0.2477
  767MOL0     O 1159  -0.940   5.530  -0.536  0.0667  0.4046  0.2145
  767MOL0     C 1160  -0.686   5.463  -0.650 -0.3225 -0.2027  0.4660
  767MOL0     C 1161  -0.563   5.414  -0.708 -0.1574 -0.7437 -0.3945
  767MOL0     N 1162   0.139   5.295  -1.089  0.6494 -0.5693  0.2700
  767MOL0     N 1163   0.265   5.269  -1.060  0.0141  0.1865 -0.0539
  767MOL0     C 1164   0.405   5.612  -0.102  1.2144 -0.1440 -0.0349
  767MOL0     C 1165   0.341   5.670   0.015 -0.0018  1.1747  0.0442
  767MOL0     C 1166   0.021   5.945   0.206 -0.1903 -0.5269  0.7076
  767MOL0     C 1167  -0.120   5.962   0.200  0.1130  0.6897 -0.0555
  767MOL0     C 1168  -0.193   6.028   0.298 -0.3260 -0.4859  0.1040
  767MOL0     C 1169  -0.132   6.075   0.413 -0.1305 -0.7176 -0.5035
  767MOL0     O 1170  -0.209   6.121   0.517 -0.2483  0.3208 -0.2334
  767MOL0     C 1171  -0.168   6.067   0.642  0.0362 -0.3603 -0.2818
  767MOL0     C 1172  -0.289   6.074   0.729  0.4709  0.1290 -0.7524
  767MOL0     C 1173  -0.314   6.216   0.786 -0.0352 -0.6017 -0.8665
  767MOL0     C 1174  -0.198   6.264   0.880  0.3989  0.5879  0.2405
  767MOL0     C 1175  -0.174   6.170   0.993 -1.2778  0.6060  0.1622
  767MOL0     C 1176  -0.154   6.102   1.094  0.9860 -1.0457  0.4639
  767MOL0     C 1177   0.010   6.074   0.417  0.6152  0.8254  0.5828
  767MOL0     C 1178   0.087   6.009   0.318 -0.0014  0.5210 -0.3475
  767MOL0     H 1179   0.317   5.990  -0.086  1.1127  1.0879 -1.7531
  767MOL0     H 1180   0.412   5.890  -0.291 -0.5379 -0.7536 -0.4134
  767MOL0     H 1181   0.463   5.439  -0.333  0.7674 -0.5738 -2.5556
  767MOL0     H 1182   0.619   5.534  -0.308 -0.3261 -1.1205  0.0659
  767MOL0     H 1183   0.591   5.397  -0.514  3.0628 -0.1859 -0.2092
  767MOL0     H 1184   0.640   5.560  -0.537 -0.4856  0.3738 -0.3446
  767MOL0     H 1185   0.402   5.630  -0.575  1.0049  1.0469  0.2239
  767MOL0     H 1186   0.363   5.452  -0.574 -1.8647  1.0176 -0.0782
  767MOL0     H 1187   0.390   5.526  -0.809  0.2581 -0.8014 -0.8331
  767MOL0     H 1188   0.560   5.553  -0.775 -1.6622  3.4330  1.1245
  767MOL0     H 1189   0.582   5.303  -0.717 -1.5202  1.3552  2.2215
  767MOL0     H 1190   0.540   5.327  -0.876 -0.6512 -1.8837  0.0481
  767MOL0     H 1191   0.289   5.297  -0.808  1.1213 -0.6845 -1.0815
  767MOL0     H 1192   0.350   5.250  -0.646  0.4062 -2.7682  0.3163
  767MOL0     H 1193   0.495   5.085  -0.753 -0.0617 -2.4695 -1.2232
  767MOL0     H 1194   0.321   5.047  -0.739  0.4938  0.6980  1.2771
  767MOL0     H 1195   0.381   4.976  -0.950  0.1292 -0.5719  0.3898
  767MOL0     H 1196   0.473   5.118  -0.995 -1.3722 -0.5824  0.8692
  767MOL0     H 1197   0.105   5.000  -0.953  1.2850 -0.1369  0.5743
  767MOL0     H 1198  -0.117   5.066  -1.052 -1.6888  0.1397 -2.8754
  767MOL0     H 1199  -0.101   5.174  -1.185  0.5689  2.4199 -0.4047
  767MOL0     H 1200  -0.262   5.287  -1.079 -0.0637  1.8853  0.3455
  767MOL0     H 1201  -0.127   5.374  -1.010 -0.4023 -0.5094  0.0607
  767MOL0     H 1202  -0.241   5.130  -0.885  2.9365 -1.6320 -0.4952
  767MOL0     H 1203  -0.136   5.243  -0.804  1.2045 -0.3906 -1.3569
  767MOL0     H 1204  -0.321   5.426  -0.845 -0.7953  0.2058 -0.1955
  767MOL0     H 1205  -0.322   5.304  -0.714  0.6308 -2.2935 -0.8410
  767MOL0     H 1206  -0.660   5.140  -0.845  3.4889  1.1000 -0.5313
  767MOL0     H 1207  -0.881   5.201  -0.734 -0.6969  2.6676  1.4658
  767MOL0     H 1208  -1.217   5.160  -0.630  3.0612  0.4382  1.9321
  767MOL0     H 1209  -1.451   5.182  -0.607 -1.6169  0.9367  2.3331
  767MOL0     H 1210  -1.658   5.240  -0.602  0.6708  0.6673  2.8713
  767MOL0     H 1211  -1.686   5.381  -0.695  1.8713 -0.6736  0.0709
  767MOL0     H 1212  -1.833   5.490  -0.535  1.2027 -0.3742  2.8535
  767MOL0     H 1213  -1.847   5.336  -0.433 -0.2324  1.1295  1.1621
  767MOL0     H 1214  -1.930   5.396  -0.719  1.6468 -0.5410 -1.0802
  767MOL0     H 1215  -2.045   5.350  -0.599  0.9379  3.6658 -0.5849
  767MOL0     H 1216  -1.842   5.190  -0.730 -0.6127  1.1163 -0.7784
  767MOL0     H 1217  -1.909   5.132  -0.581 -0.5507 -3.2451 -2.9036
  767MOL0     H 1218  -2.029   5.080  -0.810  2.3382  1.0578 -0.2746
  767MOL0     H 1219  -2.111   5.234  -0.780  0.2026  0.5167 -2.0474
  767MOL0     H 1220  -2.177   5.125  -0.554  1.1852 -2.2399  1.2406
  767MOL0     H 1221  -2.089   4.980  -0.624 -0.7656 -0.9006 -1.1038
  767MOL0     H 1222  -2.325   5.075  -0.775 -1.2820 -2.0370 -2.1700
  767MOL0     H 1223  -2.241   4.917  -0.758 -1.5814 -0.7101  1.4748
  767MOL0     H 1224  -2.318   4.914  -0.524 -0.8337 -2.0872 -1.9421
  767MOL0     H 1225  -2.442   4.914  -0.653  0.1282  1.4781 -0.5811
  767MOL0     H 1226  -1.416   5.593  -0.524  1.8885  0.1634  4.9701
  767MOL0     H 1227  -1.189   5.590  -0.593  2.0409 -0.8975 -0.6092
  767MOL0     H 1228  -0.684   5.551  -0.587  0.2117  0.8849 -1.0011
  767MOL0     H 1229  -0.478   5.478  -0.683 -0.9257 -0.3914  1.4477
  767MOL0     H 1230   0.431   5.507  -0.112 -0.0146 -0.3392 -1.8109
  767MOL0     H 1231   0.324   5.599   0.096  1.7658  0.7914  0.1182
  767MOL0     H 1232  -0.179   5.911   0.125 -1.6908  1.6213  0.6840
  767MOL0     H 1233  -0.301   6.026   0.302 -0.3172  0.0192  1.1001
  767MOL0     H 1234  -0.080   6.115   0.686  1.8254 -2.7596 -0.9877
  767MOL0     H 1235  -0.129   5.964   0.637  3.3675  0.7668  0.0325
  767MOL0     H 1236  -0.370   6.045   0.661 -0.8964  0.3697  0.6962
  767MOL0     H 1237  -0.281   5.994   0.804  1.7454 -1.1439 -2.1601
  767MOL0     H 1238  -0.411   6.219   0.838 -0.3037 -0.3217 -1.3786
  767MOL0     H 1239  -0.316   6.282   0.699 -1.1708 -1.7910 -1.7725
  767MOL0     H 1240  -0.102   6.279   0.830  0.7218 -4.3529 -1.1330
  767MOL0     H 1241  -0.235   6.360   0.917  1.2717  1.0307 -0.0158
  767MOL0     H 1242  -0.118   6.043   1.176  2.1392 -1.6555 -0.4486
  767MOL0     H 1243   0.068   6.101   0.505  1.3009  2.4752 -0.3313
  767MOL0     H 1244   0.195   6.000   0.323 -0.0867 -0.6351 -0.3001
  768MOL0     O 1245   2.148   0.399   5.115  0.4113  0.1631  0.0762
  768MOL0     C 1246   2.227   0.406   5.211 -0.4656  0.7262  0.3605
  768MOL0     O 1247   2.206   0.360   5.340 -0.3740 -0.0063  0.1879
  768MOL0     C 1248   2.102   0.282   5.383  1.1671 -0.2398  0.8068
  768MOL0     C 1249   2.022   0.195   5.301 -0.5561  0.6341  0.6661
  768MOL0     C 1250   1.909   0.127   5.351 -0.6820 -0.0290 -0.4103
  768MOL0     C 1251   1.877   0.133   5.488 -0.2876 -0.0772 -0.9708
  768MOL0     O 1252   1.787   0.054   5.551  0.3184 -0.6386 -0.1349
  768MOL0     C 1253   1.749  -0.060   5.480  0.0687  0.4972  0.7825
  768MOL0     C 1254   1.667  -0.156   5.580  0.1234  0.7229 -0.5675
  768MOL0     C 1255   1.524  -0.112   5.605  0.3266 -0.1001 -0.7312
  768MOL0     C 1256   1.452  -0.192   5.716 -0.7799  0.5180 -0.7900
  768MOL0     C 1257   1.301  -0.190   5.726  0.2100 -0.2381  0.0171
  768MOL0     C 1258   1.263  -0.243   5.864  0.9447 -0.0977 -0.7576
  768MOL0     C 1259   1.111  -0.228   5.901 -0.1931 -0.2111 -0.2074
  768MOL0     C 1260   1.084  -0.242   6.046 -0.4186  0.1185  0.0555
  768MOL0     N 1261   0.929  -0.248   6.059 -0.3340  0.1365 -0.0760
  768MOL0     C 1262   0.845  -0.357   6.035  0.2420  0.1731  1.4023
  768MOL0     C 1263   0.721  -0.308   6.056  0.3721 -0.0624 -0.5928
  768MOL0     C 1264   0.592  -0.390   6.038 -0.3188 -0.8698  0.6334
  768MOL0     C 1265   0.481  -0.374   6.138  0.1947 -0.6008  0.1144
  768MOL0     C 1266   0.452  -0.230   6.173  1.0783 -0.6008  0.3657
  768MOL0     C 1267   0.308  -0.212   6.232 -0.8863 -0.3506  0.8415
  768MOL0     O 1268   0.289  -0.095   6.312 -0.2624  0.0823  0.4242
  768MOL0     C 1269   0.161  -0.079   6.356 -0.4713  0.3947 -0.1893
  768MOL0     C 1270   0.051  -0.172   6.347 -0.1246  0.1396  0.4422
  768MOL0     C 1271  -0.073  -0.140   6.398 -0.2008 -0.7817 -0.0063
  768MOL0     C 1272  -0.102  -0.011   6.458  0.0836 -0.0405  0.0949
  768MOL0     C 1273  -0.229   0.016   6.515  0.7014 -0.5904 -0.6385
  768MOL0     O 1274  -0.317  -0.083   6.518  0.3671 -0.1248 -0.6002
  768MOL0     C 1275  -0.455  -0.054   6.510 -0.4683 -0.5356 -0.0769
  768MOL0     C 1276  -0.493   0.034   6.410  0.5088  0.5192  0.7456
  768MOL0     C 1277  -0.632   0.059   6.390 -0.5041 -0.0453 -0.3471
  768MOL0     C 1278  -0.731  -0.017   6.462 -0.2688 -0.7932 -0.1955
  768MOL0     O 1279  -0.866   0.018   6.442  0.0462 -0.0927 -0.1171
  768MOL0     C 1280  -0.920   0.153   6.439 -0.1910 -0.0517  0.2900
  768MOL0     C 1281  -1.064   0.156   6.476  0.4902 -0.0262 -0.4568
  768MOL0     C 1282  -1.097   0.153   6.625  1.2433 -0.8317 -0.2502
  768MOL0     C 1283  -1.055   0.014   6.679 -0.4129 -0.6489 -0.8418
  768MOL0     C 1284  -1.108   0.002   6.827 -0.4617  0.8900  0.8101
  768MOL0     C 1285  -1.074  -0.148   6.866  0.4826 -0.3902 -0.7005
  768MOL0     C 1286  -0.942  -0.214   6.843 -0.1860 -0.0782  0.2048
  768MOL0     C 1287  -0.931  -0.342   6.925  0.2712  0.3816 -0.1922
  768MOL0    Cl 1288  -1.083  -0.446   6.911  0.1048 -0.1299 -0.5677
  768MOL0     C 1289  -0.688  -0.112   6.558  0.8457 -0.7376  0.1293
  768MOL0     C 1290  -0.553  -0.119   6.595  0.1482  0.3445  1.2431
  768MOL0     O 1291  -0.256   0.137   6.536  0.0462  0.4383  0.8446
  768MOL0     C 1292   0.006   0.081   6.455  0.0860 -0.5520 -0.5020
  768MOL0     C 1293   0.136   0.043   6.416 -0.1480  0.6957  0.3832
  768MOL0     N 1294   0.721  -0.169   6.075  0.1655  0.3347 -0.9972
  768MOL0     N 1295   0.851  -0.138   6.084 -0.2938 -0.1897  0.2586
  768MOL0     C 1296   1.951   0.225   5.565 -0.0369  0.0247 -0.8251
  768MOL0     C 1297   2.070   0.293   5.515 -0.1872 -0.3583 -0.3688
  768MOL0     C 1298   2.344   0.485   5.212 -0.0810  0.0885 -0.1020
  768MOL0     C 1299   2.382   0.543   5.094 -0.9028 -0.0959  0.6783
  768MOL0     C 1300   2.494   0.626   5.086 -0.2840 -0.0289 -0.3184
  768MOL0     C 1301   2.553   0.673   5.206  0.5213  0.3948  0.5834
  768MOL0     O 1302   2.665   0.744   5.225 -1.1639 -0.3611 -1.1021
  768MOL0     C 1303   2.784   0.716   5.158 -0.1335  0.2251  0.9169
  768MOL0     C 1304   2.919   0.759   5.223 -0.7064  0.4338  1.0751
  768MOL0     C 1305   2.956   0.670   5.345 -0.1564  0.1336  0.4954
  768MOL0     C 1306   3.104   0.711   5.384  0.7069 -0.7356  0.3214
  768MOL0     C 1307   3.119   0.849   5.441 -0.4698  0.4336  0.2552
  768MOL0     C 1308   3.148   0.961   5.463  0.2014 -0.2241 -0.1736
  768MOL0     C 1309   2.521   0.608   5.320 -0.7156 -0.1498 -0.0101
  768MOL0     C 1310   2.419   0.514   5.322  0.7798 -0.0602 -0.7784
  768MOL0     H 1311   2.055   0.186   5.198  2.5292 -1.3804  1.7163
  768MOL0     H 1312   1.858   0.053   5.291  0.7783 -1.0768 -0.4160
  768MOL0     H 1313   1.834  -0.117   5.439  1.7859  2.0431  2.0190
  768MOL0     H 1314   1.691  -0.035   5.391  3.4476 -0.4513 -1.9417
  768MOL0     H 1315   1.707  -0.171   5.680 -3.4522 -0.4399  0.8367
  768MOL0     H 1316   1.650  -0.254   5.532  2.2626  0.2306 -0.4454
  768MOL0     H 1317   1.459  -0.114   5.517 -0.3758 -2.4148 -0.2287
  768MOL0     H 1318   1.537  -0.007   5.634 -0.0945  0.0814 -1.1818
  768MOL0     H 1319   1.487  -0.295   5.718  0.7758  0.9809  2.6321
  768MOL0     H 1320   1.503  -0.164   5.809 -0.1991 -2.7687  0.0032
  768MOL0     H 1321   1.259  -0.259   5.651 -1.5006  2.1383 -1.3447
  768MOL0     H 1322   1.274  -0.087   5.706  2.1110 -0.0257 -1.8767
  768MOL0     H 1323   1.314  -0.182   5.940 -1.1510  0.9906 -0.1380
  768MOL0     H 1324   1.279  -0.350   5.879  0.5714  0.0087  0.5226
  768MOL0     H 1325   1.080  -0.128   5.867  0.7973  0.1466 -0.0921
  768MOL0     H 1326   1.051  -0.306   5.853 -0.0447 -1.9423  2.2129
  768MOL0     H 1327   1.119  -0.170   6.120  0.9061 -1.2754  0.8303
  768MOL0     H 1328   1.128  -0.335   6.081 -1.1679  0.8302  3.1831
  768MOL0     H 1329   0.873  -0.458   6.009 -0.1455  0.2758  0.5376
  768MOL0     H 1330   0.625  -0.495   6.039 -2.0042 -1.5033 -1.9368
  768MOL0     H 1331   0.563  -0.368   5.935  0.3690 -3.9518 -0.3393
  768MOL0     H 1332   0.518  -0.426   6.227  3.0611 -0.3155 -0.8033
  768MOL0     H 1333   0.394  -0.423   6.095 -0.6929  0.4449  0.6645
  768MOL0     H 1334   0.524  -0.209   6.252 -0.1009 -0.2112  1.3848
  768MOL0     H 1335   0.459  -0.170   6.082  0.0082 -1.7967 -0.5510
  768MOL0     H 1336   0.285  -0.302   6.290 -0.6259 -0.9206  0.0713
  768MOL0     H 1337   0.241  -0.204   6.146 -0.2248 -0.3926  0.3137
  768MOL0     H 1338   0.070  -0.263   6.291  1.4186  2.0118 -2.3060
  768MOL0     H 1339  -0.149  -0.217   6.403 -2.3146  0.9189 -2.7904
  768MOL0     H 1340  -0.416   0.077   6.347 -0.5086  0.2833 -0.6923
  768MOL0     H 1341  -0.656   0.123   6.306 -1.3682 -1.2239 -1.0208
  768MOL0     H 1342  -0.919   0.191   6.336  0.0035 -1.6516 -0.3292
  768MOL0     H 1343  -0.863   0.215   6.509 -2.0160 -0.4615  2.2128
  768MOL0     H 1344  -1.114   0.066   6.439 -0.6292 -0.3593  1.7071
  768MOL0     H 1345  -1.118   0.235   6.423 -2.4654  0.3082  2.7409
  768MOL0     H 1346  -1.204   0.168   6.645  1.1462 -1.2473 -0.4376
  768MOL0     H 1347  -1.043   0.238   6.666 -2.1348  1.2306  0.3086
  768MOL0     H 1348  -1.107  -0.063   6.622 -1.1077  0.4419 -1.7145
  768MOL0     H 1349  -0.946   0.003   6.672 -0.3207 -0.3798  0.0042
  768MOL0     H 1350  -1.216   0.015   6.825 -0.4758  1.2877 -2.7322
  768MOL0     H 1351  -1.050   0.066   6.894 -1.3268  2.2873  0.2506
  768MOL0     H 1352  -1.150  -0.212   6.821 -1.8976  0.7247  1.4879
  768MOL0     H 1353  -1.115  -0.168   6.965 -2.6850 -1.9699 -2.1717
  768MOL0     H 1354  -0.923  -0.247   6.740 -0.2532 -0.6816  0.3847
  768MOL0     H 1355  -0.860  -0.157   6.889 -1.0235  0.0856  1.5310
  768MOL0     H 1356  -0.921  -0.325   7.033 -0.1612 -1.7085  0.2234
  768MOL0     H 1357  -0.839  -0.388   6.887  0.7690  2.3783 -1.5769
  768MOL0     H 1358  -0.762  -0.169   6.613  0.3573  0.4713  0.7701
  768MOL0     H 1359  -0.522  -0.186   6.675  2.6998  0.0957  0.1468
  768MOL0     H 1360  -0.009   0.184   6.486 -0.8408 -0.9993  0.6097
  768MOL0     H 1361   0.211   0.120   6.424  2.4522 -1.6761  0.2915
  768MOL0     H 1362   1.934   0.231   5.672  0.8739  1.3270 -0.7404
  768MOL0     H 1363   2.127   0.364   5.574 -1.6573  0.8909 -0.3819
  768MOL0     H 1364   2.331   0.519   5.001  0.3940  1.9438 -0.6244
  768MOL0     H 1365   2.533   0.656   4.989 -2.4060 -0.6341 -1.4055
  768MOL0     H 1366   2.773   0.760   5.059 -2.0830 -1.9759  0.0634
  768MOL0     H 1367   2.793   0.607   5.146 -0.2592  0.2010  1.0399
  768MOL0     H 1368   3.000   0.760   5.150 -0.4295 -3.8426  1.0939
  768MOL0     H 1369   2.902   0.864   5.248 -1.0302  1.0880 -1.6020
  768MOL0     H 1370   2.953   0.568   5.305 -0.3496  0.4781 -0.4028
  768MOL0     H 1371   2.875   0.682   5.418 -1.0218  1.6744 -0.6511
  768MOL0     H 1372   3.140   0.638   5.457 -0.5521 -2.7493 -0.9880
  768MOL0     H 1373   3.174   0.687   5.303  1.1166  1.6979 -0.1294
  768MOL0     H 1374   3.171   1.063   5.488 -1.8688  0.0415  0.8774
  768MOL0     H 1375   2.578   0.620   5.411 -0.4272  3.4398 -0.5013
  768MOL0     H 1376   2.405   0.461   5.416 -1.2377  0.4941 -0.7208
  769MOL0     O 1377  11.233   8.616   8.102 -0.0276  0.1472 -0.9035
  769MOL0     C 1378  11.283   8.715   8.156 -0.2376 -0.0311  1.1344
  769MOL0     O 1379  11.221   8.808   8.232 -0.6159 -0.0664  0.3100
  769MOL0     C 1380  11.091   8.802   8.272  0.5905  0.3017 -0.0065
  769MOL0     C 1381  11.068   8.815   8.415  0.2949  0.2270 -0.7645
  769MOL0     C 1382  10.938   8.821   8.469 -1.1761 -0.8277 -0.1889
  769MOL0     C 1383  10.833   8.837   8.379 -1.0032  0.2052 -0.2001
  769MOL0     O 1384  10.712   8.824   8.439 -0.5502 -0.0010  0.1468
  769MOL0     C 1385  10.602   8.884   8.374 -0.3545 -0.1623  0.1211
  769MOL0     C 1386  10.470   8.855   8.451 -0.9234  0.1506  0.0944
  769MOL0     C 1387  10.352   8.940   8.399 -0.4301 -0.9152  0.9862
  769MOL0     C 1388  10.231   8.913   8.491  0.3298 -0.3786  0.0761
  769MOL0     C 1389  10.105   8.972   8.432  0.6976  0.7159 -0.1614
  769MOL0     C 1390   9.988   8.927   8.516 -0.1042 -0.2040  0.5568
  769MOL0     C 1391   9.935   9.034   8.611 -0.3506  0.5290  0.5784
  769MOL0     C 1392   9.807   8.977   8.679  0.1212 -0.1388  0.7536
  769MOL0     N 1393   9.694   8.977   8.588  0.6294  0.7976 -0.0256
  769MOL0     C 1394   9.586   8.903   8.617  0.4986  0.0777  0.3784
  769MOL0     C 1395   9.499   8.915   8.511 -0.6976  0.3663 -0.9743
  769MOL0     C 1396   9.369   8.844   8.500 -0.5819 -1.0218 -0.2927
  769MOL0     C 1397   9.280   8.897   8.606 -0.7491 -0.1183  0.4386
  769MOL0     C 1398   9.144   8.823   8.595 -0.9956  0.8265  0.4759
  769MOL0     C 1399   9.046   8.899   8.511  0.1897  0.0141  1.0875
  769MOL0     O 1400   8.924   8.839   8.490  0.8201  0.3163  0.2847
  769MOL0     C 1401   8.819   8.847   8.575  0.7917  0.3287 -0.0483
  769MOL0     C 1402   8.701   8.781   8.542  0.8691 -0.7614  0.3321
  769MOL0     C 1403   8.587   8.793   8.624  0.0093 -0.3028 -0.0682
  769MOL0     C 1404   8.585   8.856   8.747 -0.8327 -0.7107 -0.4016
  769MOL0     C 1405   8.471   8.852   8.830  0.8905  0.0327 -0.6631
  769MOL0     O 1406   8.375   8.756   8.803 -0.3386  0.1263 -1.0842
  769MOL0     C 1407   8.268   8.738   8.888  0.7835  0.5996 -0.5303
  769MOL0     C 1408   8.200   8.844   8.956  0.1913  0.0298  0.7610
  769MOL0     C 1409   8.103   8.812   9.045 -0.4273  0.3712  0.7743
  769MOL0     C 1410   8.047   8.680   9.064  0.3776 -0.9680 -0.3278
  769MOL0     O 1411   7.930   8.653   9.132  1.1179  0.1110  0.1696
  769MOL0     C 1412   7.874   8.522   9.156  0.4873  0.4897  0.6711
  769MOL0     C 1413   7.777   8.500   9.041  0.0394  0.1400 -0.3180
  769MOL0     C 1414   7.642   8.565   9.052  0.2695 -0.3216  0.0919
  769MOL0     C 1415   7.556   8.532   9.174 -0.7825 -0.3885 -0.7172
  769MOL0     C 1416   7.420   8.601   9.160 -0.2318 -0.5831  0.6310
  769MOL0     C 1417   7.418   8.754   9.207 -1.1288 -0.1229  0.4894
  769MOL0     C 1418   7.274   8.822   9.200  0.3794 -0.2022  0.4366
  769MOL0     C 1419   7.196   8.824   9.332  0.4656 -0.2034 -0.2856
  769MOL0    Cl 1420   7.054   8.945   9.312  0.5695 -0.0923 -0.1815
  769MOL0     C 1421   8.108   8.582   8.990  0.1867  0.1491  0.5011
  769MOL0     C 1422   8.212   8.614   8.904 -0.8537  0.0937 -0.0513
  769MOL0     O 1423   8.465   8.936   8.917 -0.2466 -0.1607  0.1221
  769MOL0     C 1424   8.701   8.935   8.771 -0.9026  0.3576  0.1066
  769MOL0     C 1425   8.818   8.922   8.692  0.1676 -0.2619 -0.1504
  769MOL0     N 1426   9.564   8.989   8.419 -0.6286  0.3329  1.2662
  769MOL0     N 1427   9.679   9.022   8.461 -0.3858 -0.7095  0.1488
  769MOL0     C 1428  10.852   8.833   8.242  0.6191  0.6962  0.7733
  769MOL0     C 1429  10.983   8.825   8.186  0.2076 -0.0890  0.0273
  769MOL0     C 1430  11.425   8.721   8.137  0.4739 -0.7192  0.2423
  769MOL0     C 1431  11.496   8.815   8.215  1.0286 -0.3965 -0.0819
  769MOL0     C 1432  11.634   8.820   8.206  0.1974 -0.3931  0.6884
  769MOL0     C 1433  11.711   8.741   8.109 -0.6719  0.1330  0.1000
  769MOL0     O 1434  11.843   8.767   8.101 -0.9932  0.2581 -0.8692
  769MOL0     C 1435  11.931   8.651   8.090 -0.0111  0.0438 -0.0944
  769MOL0     C 1436  12.072   8.699   8.119 -1.0639  0.8547  0.0772
  769MOL0     C 1437  12.181   8.586   8.117  0.0534 -0.0985  0.4765
  769MOL0     C 1438  12.319   8.646   8.119  0.2056 -0.1375 -0.3729
  769MOL0     C 1439  12.420   8.552   8.075 -0.8115  0.7157  0.2726
  769MOL0     C 1440  12.502   8.469   8.030 -0.8754 -1.0424  0.6424
  769MOL0     C 1441  11.641   8.652   8.035 -0.4644 -0.4826  0.5224
  769MOL0     C 1442  11.494   8.634   8.049 -1.2036  1.0029 -0.5244
  769MOL0     H 1443  11.152   8.813   8.484 -0.7897 -0.1712  0.5990
  769MOL0     H 1444  10.926   8.814   8.577  1.5157 -1.6643  0.1238
  769MOL0     H 1445  10.590   8.847   8.271  1.1688  0.2786 -0.2450
  769MOL0     H 1446  10.623   8.990   8.357 -0.1653 -0.2102  0.0518
  769MOL0     H 1447  10.497   8.882   8.554  1.4224  0.8714 -0.6445
  769MOL0     H 1448  10.449   8.752   8.423  0.0928  0.5215 -2.2211
  769MOL0     H 1449  10.327   8.913   8.296 -0.8965 -0.0864  0.8723
  769MOL0     H 1450  10.361   9.049   8.401 -0.0875 -0.9472  1.1784
  769MOL0     H 1451  10.230   8.805   8.509 -1.7432 -0.3770  0.2507
  769MOL0     H 1452  10.250   8.951   8.591 -0.8871 -0.6975  0.4433
  769MOL0     H 1453  10.091   8.915   8.339 -0.6699  0.2573  0.3035
  769MOL0     H 1454  10.118   9.077   8.404  1.7831  0.2328 -1.6239
  769MOL0     H 1455  10.015   8.841   8.578  2.4613 -0.2627 -0.5078
  769MOL0     H 1456   9.909   8.891   8.450 -0.1416  0.4265  0.2518
  769MOL0     H 1457  10.015   9.038   8.685  0.6306  0.0946 -0.4211
  769MOL0     H 1458   9.916   9.130   8.562  0.8916  0.7037  0.4046
  769MOL0     H 1459   9.781   9.040   8.764  1.1938  0.7520  0.4423
  769MOL0     H 1460   9.834   8.878   8.717  0.4326  0.0153  0.9375
  769MOL0     H 1461   9.563   8.838   8.701 -1.4405  1.5771  1.1083
  769MOL0     H 1462   9.381   8.736   8.510  1.5732 -0.9280 -1.1199
  769MOL0     H 1463   9.318   8.870   8.407 -1.6987 -0.6014  0.4300
  769MOL0     H 1464   9.273   9.006   8.594  0.0961  0.0751  1.5637
  769MOL0     H 1465   9.330   8.865   8.698  0.1623 -3.1963 -1.0004
  769MOL0     H 1466   9.147   8.719   8.562  1.1525  0.5070  1.5037
  769MOL0     H 1467   9.110   8.816   8.699 -2.5317 -1.7569 -0.1178
  769MOL0     H 1468   9.094   8.901   8.413  1.6407 -1.7365  1.7044
  769MOL0     H 1469   9.038   9.005   8.536  0.0948  0.7686 -1.7545
  769MOL0     H 1470   8.694   8.724   8.450  0.8689 -0.4132  0.1142
  769MOL0     H 1471   8.506   8.732   8.584 -1.9326  2.7331 -1.0435
  769MOL0     H 1472   8.231   8.946   8.934 -1.3948  0.2226 -0.7363
  769MOL0     H 1473   8.063   8.898   9.098 -0.0744  0.0015  1.6680
  769MOL0     H 1474   7.824   8.503   9.251 -3.3806 -0.2054 -1.3087
  769MOL0     H 1475   7.944   8.438   9.161 -1.1499 -1.0468 -0.6945
  769MOL0     H 1476   7.755   8.395   9.020 -4.5029  0.6664  0.7274
  769MOL0     H 1477   7.818   8.544   8.950 -0.2501  2.3611  0.5543
  769MOL0     H 1478   7.577   8.548   8.966 -1.8767  2.8791  0.8946
  769MOL0     H 1479   7.649   8.674   9.045 -1.8829 -0.2475 -2.8445
  769MOL0     H 1480   7.539   8.424   9.184 -2.8636 -0.0978 -0.6376
  769MOL0     H 1481   7.601   8.580   9.261 -0.8279  0.5688 -1.2136
  769MOL0     H 1482   7.343   8.552   9.220  1.3091 -2.0111  1.5305
  769MOL0     H 1483   7.379   8.609   9.059 -0.7030  1.8195  0.9508
  769MOL0     H 1484   7.487   8.814   9.146 -2.4656  0.7095 -0.2551
  769MOL0     H 1485   7.466   8.765   9.305  1.0925 -0.9547 -0.4348
  769MOL0     H 1486   7.273   8.928   9.173 -0.0201  0.5268  3.0485
  769MOL0     H 1487   7.199   8.770   9.139  1.8030 -1.6074 -0.1657
  769MOL0     H 1488   7.260   8.858   9.414  0.6246 -2.3029  0.5017
  769MOL0     H 1489   7.162   8.723   9.353 -0.4704  0.2940  0.6762
  769MOL0     H 1490   8.069   8.481   8.984 -0.9917  0.6176 -0.3678
  769MOL0     H 1491   8.246   8.535   8.837 -2.7193  0.3614 -1.3719
  769MOL0     H 1492   8.702   8.978   8.871 -1.9158 -1.5494  1.0048
  769MOL0     H 1493   8.914   8.959   8.727  0.4366 -0.5332 -0.6020
  769MOL0     H 1494  10.773   8.840   8.168  1.4538  1.6300 -0.0650
  769MOL0     H 1495  10.991   8.806   8.080  0.0392  0.4223 -0.0800
  769MOL0     H 1496  11.448   8.887   8.280  0.8895  0.7399 -1.4111
  769MOL0     H 1497  11.686   8.880   8.281  1.1873 -1.9648  1.3196
  769MOL0     H 1498  11.928   8.611   7.988 -1.6043  0.5666 -0.2748
  769MOL0     H 1499  11.901   8.569   8.156  0.2852  0.3094  0.3777
  769MOL0     H 1500  12.093   8.764   8.033  0.7356 -1.4527 -1.3300
  769MOL0     H 1501  12.080   8.755   8.213  2.3525 -2.1794  1.8342
  769MOL0     H 1502  12.169   8.513   8.037  2.2143 -0.5964  0.5737
  769MOL0     H 1503  12.165   8.524   8.206 -1.4682  1.4733  1.3781
  769MOL0     H 1504  12.323   8.731   8.050 -1.0475 -1.6537 -2.4224
  769MOL0     H 1505  12.339   8.680   8.221 -1.5762  2.9177 -0.8891
  769MOL0     H 1506  12.574   8.416   7.970 -2.3577  2.1964 -4.7339
  769MOL0     H 1507  11.693   8.583   7.968  0.1472 -1.2828  1.7898
  769MOL0     H 1508  11.443   8.564   7.983 -1.4130  0.3174  0.3429
  770MOL0     O 1509   8.792  11.082   3.987  0.6951 -0.1334  0.3733
  770MOL0     C 1510   8.850  11.069   4.092 -0.9904  0.3018 -0.6780
  770MOL0     O 1511   8.830  10.971   4.179  0.4120  0.7555  0.5371
  770MOL0     C 1512   8.806  10.840   4.135  0.5327  0.2127  0.4397
  770MOL0     C 1513   8.895  10.739   4.169 -0.0297 -0.0359 -0.3662
  770MOL0     C 1514   8.873  10.607   4.130 -0.6880  0.3638 -0.5687
  770MOL0     C 1515   8.756  10.569   4.063  0.3144 -0.1246 -0.8650
  770MOL0     O 1516   8.725  10.435   4.060  0.6970 -0.0541 -0.2970
  770MOL0     C 1517   8.605  10.396   4.127  1.1249 -0.2717 -0.3476
  770MOL0     C 1518   8.497  10.371   4.017  0.3124  0.7880  0.4047
  770MOL0     C 1519   8.369  10.314   4.084  0.6653  0.3193  0.4278
  770MOL0     C 1520   8.245  10.332   3.998 -0.5700  0.2700  0.3454
  770MOL0     C 1521   8.120  10.344   4.074  0.2356  0.2151 -0.0064
  770MOL0     C 1522   8.105  10.463   4.174 -0.7597 -0.1359  0.2955
  770MOL0     C 1523   7.963  10.471   4.237  0.0077 -0.4337 -1.5391
  770MOL0     C 1524   7.876  10.552   4.143  0.2990 -1.0117  0.1631
  770MOL0     N 1525   7.732  10.546   4.176  0.6496 -0.0264  0.2966
  770MOL0     C 1526   7.642  10.445   4.153  0.8037  1.0550  0.0139
  770MOL0     C 1527   7.525  10.489   4.211 -0.7297  0.0531  0.1904
  770MOL0     C 1528   7.391  10.422   4.209  0.3476 -0.1145 -0.6417
  770MOL0     C 1529   7.287  10.495   4.117  0.2095 -0.5389  1.3660
  770MOL0     C 1530   7.157  10.423   4.105  0.2162  0.0559 -0.1638
  770MOL0     C 1531   7.078  10.462   3.976 -0.1127 -0.2399 -0.7173
  770MOL0     O 1532   6.977  10.356   3.944  0.4470  0.5005 -0.9380
  770MOL0     C 1533   6.841  10.361   3.991  0.4599 -0.5200  0.1014
  770MOL0     C 1534   6.753  10.265   3.941  0.2818 -0.8202  0.9603
  770MOL0     C 1535   6.608  10.270   3.958 -1.2019 -0.1915  0.1666
  770MOL0     C 1536   6.560  10.378   4.028  0.9208 -0.2790  0.7906
  770MOL0     C 1537   6.416  10.394   4.062  0.0921 -0.2419  0.2277
  770MOL0     O 1538   6.369  10.511   4.130 -0.2530  0.6118  0.5996
  770MOL0     C 1539   6.234  10.538   4.129  0.8849 -0.0612 -0.3502
  770MOL0     C 1540   6.149  10.547   4.018 -0.6698 -0.9668 -0.1445
  770MOL0     C 1541   6.015  10.578   4.026 -0.7480 -0.0013  0.0239
  770MOL0     C 1542   5.953  10.595   4.148 -0.6002 -0.5217  0.6983
  770MOL0     O 1543   5.821  10.624   4.137  0.1322  0.0844 -0.1599
  770MOL0     C 1544   5.746  10.587   4.248 -1.1222 -0.2402  0.2748
  770MOL0     C 1545   5.597  10.603   4.209  0.1075 -0.4833  0.3271
  770MOL0     C 1546   5.510  10.487   4.258  0.8214  0.4312  0.0185
  770MOL0     C 1547   5.364  10.527   4.229 -0.8789 -0.2985 -0.8383
  770MOL0     C 1548   5.279  10.398   4.229 -1.0810 -0.6986 -0.4350
  770MOL0     C 1549   5.141  10.402   4.168 -0.0911 -0.6954  0.6857
  770MOL0     C 1550   5.153  10.440   4.013  0.5684 -0.8340 -0.1221
  770MOL0     C 1551   5.018  10.393   3.937 -1.1297  0.1403  0.4305
  770MOL0    Cl 1552   4.876  10.421   4.034  0.5469  0.0697  0.0638
  770MOL0     C 1553   6.037  10.585   4.267 -0.3485 -0.4459 -0.1572
  770MOL0     C 1554   6.172  10.556   4.257 -0.7107  1.1119 -0.3784
  770MOL0     O 1555   6.344  10.302   4.025  0.1054  0.8490  0.0615
  770MOL0     C 1556   6.643  10.474   4.091 -0.8467 -0.2793 -0.6939
  770MOL0     C 1557   6.783  10.461   4.067  1.3048  0.3603  0.0001
  770MOL0     N 1558   7.546  10.614   4.268  0.2958  0.0482 -0.1576
  770MOL0     N 1559   7.662  10.646   4.246  0.2379 -0.4781 -0.0656
  770MOL0     C 1560   8.658  10.668   4.045 -0.6851  0.2290  0.3565
  770MOL0     C 1561   8.690  10.801   4.074 -0.4517  0.0344  0.4904
  770MOL0     C 1562   8.935  11.180   4.142 -1.1284  0.2523  0.5373
  770MOL0     C 1563   8.956  11.193   4.280  0.7754  0.2560  0.0658
  770MOL0     C 1564   9.040  11.290   4.330  0.2979  1.1671 -0.0990
  770MOL0     C 1565   9.092  11.392   4.249  0.0524  0.0808 -0.1946
  770MOL0     O 1566   9.173  11.504   4.289  0.1395  0.4224 -0.0500
  770MOL0     C 1567   9.254  11.479   4.406 -0.4863  0.1409 -0.8113
  770MOL0     C 1568   9.372  11.398   4.368 -0.7706  0.7774 -0.0178
  770MOL0     C 1569   9.459  11.383   4.496  0.5335 -0.8471 -0.6088
  770MOL0     C 1570   9.597  11.310   4.474  0.7152  0.0484  0.0664
  770MOL0     C 1571   9.586  11.173   4.432  0.5073  0.1499  0.2589
  770MOL0     C 1572   9.563  11.057   4.408  0.3172 -0.1836 -0.0673
  770MOL0     C 1573   9.057  11.390   4.115 -0.1135  0.3026 -0.1262
  770MOL0     C 1574   8.983  11.281   4.059 -0.7983 -0.1624 -0.0340
  770MOL0     H 1575   8.981  10.768   4.228  0.7075 -1.1088 -0.8975
  770MOL0     H 1576   8.949  10.530   4.133  2.3008  2.7704 -4.5859
  770MOL0     H 1577   8.576  10.465   4.207 -0.3777 -2.3731  1.0471
  770MOL0     H 1578   8.610  10.307   4.190 -3.3543  0.0506  0.8487
  770MOL0     H 1579   8.531  10.289   3.953  0.4968  2.0865 -1.2518
  770MOL0     H 1580   8.469  10.450   3.946  1.6321  0.8033 -0.1232
  770MOL0     H 1581   8.363  10.384   4.168 -0.5180  1.4242 -0.5501
  770MOL0     H 1582   8.378  10.215   4.130 -2.1303  1.8056  4.8443
  770MOL0     H 1583   8.255  10.428   3.947  0.4197  0.1521  0.2982
  770MOL0     H 1584   8.229  10.261   3.916  1.2070  0.7671 -0.4890
  770MOL0     H 1585   8.120  10.257   4.141  1.2162  2.0253  2.5035
  770MOL0     H 1586   8.041  10.329   4.000  2.2416 -1.4335 -1.9835
  770MOL0     H 1587   8.138  10.559   4.133  2.2435 -1.0368  0.3594
  770MOL0     H 1588   8.173  10.448   4.258  3.2005 -0.3598 -2.6588
  770MOL0     H 1589   7.921  10.370   4.241 -2.6486  0.6247 -0.5099
  770MOL0     H 1590   7.971  10.507   4.340 -2.2385 -1.6638 -0.8713
  770MOL0     H 1591   7.881  10.508   4.043 -2.3550 -0.5503 -0.2465
  770MOL0     H 1592   7.898  10.659   4.134  1.8477 -1.0946  2.2862
  770MOL0     H 1593   7.658  10.356   4.093  0.6281  2.9449 -3.0390
  770MOL0     H 1594   7.355  10.423   4.312 -0.4411  2.7998 -0.8524
  770MOL0     H 1595   7.396  10.317   4.178 -1.8284 -1.0091  1.6866
  770MOL0     H 1596   7.333  10.503   4.018 -0.5016 -1.0984  0.9733
  770MOL0     H 1597   7.268  10.596   4.154  0.4515 -0.9012  2.5128
  770MOL0     H 1598   7.172  10.315   4.106  2.3738  0.2860  2.1906
  770MOL0     H 1599   7.103  10.444   4.198  1.2518  0.5318  0.3448
  770MOL0     H 1600   7.147  10.456   3.891  2.1659  1.3441  0.9095
  770MOL0     H 1601   7.039  10.563   3.979  2.9525  1.0271  2.0155
  770MOL0     H 1602   6.793  10.203   3.861  0.4594  4.4178 -3.5859
  770MOL0     H 1603   6.551  10.200   3.898  1.6751  0.0602 -3.2451
  770MOL0     H 1604   6.202  10.539   3.923 -1.2034  1.9491 -0.7964
  770MOL0     H 1605   5.961  10.578   3.931 -2.3169 -2.6596  0.7979
  770MOL0     H 1606   5.767  10.636   4.343  0.1505 -1.3504  0.5904
  770MOL0     H 1607   5.776  10.482   4.256  3.4658  0.7559 -1.2233
  770MOL0     H 1608   5.587  10.591   4.101  2.1634 -1.3565  0.1988
  770MOL0     H 1609   5.569  10.704   4.240  0.4427  0.8486 -3.3406
  770MOL0     H 1610   5.520  10.473   4.366 -0.8421  1.5169  0.3583
  770MOL0     H 1611   5.536  10.391   4.214 -1.3756  0.4349 -1.4675
  770MOL0     H 1612   5.333  10.590   4.313  1.4606 -0.0495 -0.0955
  770MOL0     H 1613   5.346  10.572   4.130 -0.2153 -1.1660 -1.3672
  770MOL0     H 1614   5.286  10.367   4.334  1.5100  4.3474  1.2097
  770MOL0     H 1615   5.332  10.316   4.180 -1.9001 -3.2072  2.5422
  770MOL0     H 1616   5.079  10.484   4.206 -0.5062  0.4483 -2.2248
  770MOL0     H 1617   5.094  10.305   4.189 -2.6979 -0.3628 -2.6787
  770MOL0     H 1618   5.151  10.548   4.000 -0.9731 -1.0457 -2.1641
  770MOL0     H 1619   5.239  10.402   3.958  1.1636  0.8210 -0.3759
  770MOL0     H 1620   5.020  10.284   3.929 -0.3426  0.0889  1.2761
  770MOL0     H 1621   5.016  10.434   3.835 -2.4634 -1.8969 -0.4242
  770MOL0     H 1622   6.003  10.607   4.368  1.3092  0.3257  0.2709
  770MOL0     H 1623   6.240  10.558   4.341  0.1497  0.1436 -1.0136
  770MOL0     H 1624   6.611  10.563   4.143 -0.1570 -0.7545  0.6182
  770MOL0     H 1625   6.846  10.539   4.108 -1.5380  1.9136  1.8192
  770MOL0     H 1626   8.561  10.641   4.004  0.8863 -2.1232 -2.1994
  770MOL0     H 1627   8.616  10.880   4.069  0.0227  0.4550 -0.1890
  770MOL0     H 1628   8.922  11.113   4.346  1.7696  0.8042  1.2839
  770MOL0     H 1629   9.072  11.291   4.434  0.0857  0.9530 -0.0307
  770MOL0     H 1630   9.194  11.427   4.481  3.0061 -1.5003  1.0732
  770MOL0     H 1631   9.291  11.574   4.446  1.6523 -0.9822  0.0249
  770MOL0     H 1632   9.340  11.297   4.341 -1.0370  0.1461  2.3473
  770MOL0     H 1633   9.426  11.446   4.287 -2.2709  3.1923  0.3059
  770MOL0     H 1634   9.412  11.327   4.578  2.9093 -0.6251  0.9879
  770MOL0     H 1635   9.465  11.482   4.541 -2.9064 -0.7386 -0.0908
  770MOL0     H 1636   9.656  11.363   4.398  1.1707 -0.5113  0.0213
  770MOL0     H 1637   9.662  11.319   4.562  0.9386 -0.4135 -0.0509
  770MOL0     H 1638   9.534  10.962   4.369  2.1423 -0.4455 -0.8571
  770MOL0     H 1639   9.099  11.470   4.055 -1.8885  1.0371 -0.4641
  770MOL0     H 1640   8.971  11.274   3.951  1.6620 -4.1838 -0.2808
  771MOL0     O 1641   9.060   7.098   1.836  0.2048 -0.4266 -0.0158
  771MOL0     C 1642   9.025   6.981   1.812  0.1982 -0.0066 -0.5518
  771MOL0     O 1643   9.107   6.875   1.774 -0.5917 -0.0766  0.6110
  771MOL0     C 1644   9.237   6.907   1.742 -0.1740  0.3412  0.1988
  771MOL0     C 1645   9.285   7.013   1.662  0.3368  0.0702  0.4367
  771MOL0     C 1646   9.417   7.031   1.630  0.2975  0.0527  0.1007
  771MOL0     C 1647   9.520   6.950   1.686 -0.1907  0.0774 -0.3997
  771MOL0     O 1648   9.655   6.961   1.654 -0.2973 -0.5001 -0.0296
  771MOL0     C 1649   9.694   7.017   1.531 -0.9306  0.1621  0.2629
  771MOL0     C 1650   9.739   7.157   1.552  0.4585  0.0898 -0.6441
  771MOL0     C 1651   9.741   7.238   1.420  0.9936 -0.3252  0.1296
  771MOL0     C 1652   9.849   7.175   1.319 -0.6008  0.1926 -0.9553
  771MOL0     C 1653   9.850   7.237   1.177 -0.0155  0.1922  0.6459
  771MOL0     C 1654   9.937   7.167   1.071 -0.0933  0.5751  0.2293
  771MOL0     C 1655   9.945   7.262   0.949 -1.2469 -0.3301  0.0110
  771MOL0     C 1656  10.024   7.191   0.836 -0.2787 -0.4153 -0.7177
  771MOL0     N 1657   9.935   7.090   0.770 -0.6416 -0.0303 -0.6140
  771MOL0     C 1658   9.815   7.119   0.705  0.2791 -0.0398  0.1571
  771MOL0     C 1659   9.757   7.002   0.674  1.0861 -0.2833  0.9523
  771MOL0     C 1660   9.625   6.991   0.606  0.4179 -0.1264 -0.2817
  771MOL0     C 1661   9.607   6.861   0.522 -0.3638  0.0860 -0.9858
  771MOL0     C 1662   9.498   6.875   0.410 -0.2455  0.2372  1.5005
  771MOL0     C 1663   9.347   6.900   0.466  0.0547  0.4551  0.0781
  771MOL0     O 1664   9.261   6.869   0.356  0.7952  0.2630  0.2951
  771MOL0     C 1665   9.123   6.888   0.377  1.1993 -0.0325 -0.0211
  771MOL0     C 1666   9.048   6.822   0.478 -0.0982 -0.6488  0.4611
  771MOL0     C 1667   8.913   6.861   0.504 -0.8123  0.1667  0.4549
  771MOL0     C 1668   8.856   6.954   0.422 -0.4594 -0.7609  0.0440
  771MOL0     C 1669   8.710   6.990   0.443  0.3964 -0.0609 -0.6014
  771MOL0     O 1670   8.665   7.117   0.425 -0.2360  0.4856  0.7759
  771MOL0     C 1671   8.540   7.145   0.406 -0.6100  0.1938 -0.1706
  771MOL0     C 1672   8.446   7.061   0.346 -0.4161  0.2379  1.0748
  771MOL0     C 1673   8.306   7.084   0.345 -0.1238  0.1138  0.1174
  771MOL0     C 1674   8.256   7.197   0.404 -0.6734 -0.1112  0.2858
  771MOL0     O 1675   8.121   7.220   0.420  0.4129 -0.2460  0.1385
  771MOL0     C 1676   8.038   7.104   0.455 -0.4365  0.5386 -0.8707
  771MOL0     C 1677   7.889   7.138   0.475  0.0796 -0.2583 -0.1076
  771MOL0     C 1678   7.861   7.236   0.580  0.0320  0.2217 -0.3453
  771MOL0     C 1679   7.712   7.250   0.602  0.5207  0.3122  0.2116
  771MOL0     C 1680   7.670   7.328   0.725  0.3563  0.9019 -0.5964
  771MOL0     C 1681   7.519   7.347   0.739  0.0457  0.3017 -0.6007
  771MOL0     C 1682   7.479   7.394   0.882  0.8550 -0.2041  0.2953
  771MOL0     C 1683   7.504   7.302   0.993  0.0697 -0.5356  1.0950
  771MOL0    Cl 1684   7.472   7.379   1.145  0.2446  0.1570 -0.4852
  771MOL0     C 1685   8.346   7.296   0.457  0.1045  0.6913 -0.4051
  771MOL0     C 1686   8.485   7.263   0.453  0.2627 -0.0714  0.2633
  771MOL0     O 1687   8.641   6.904   0.499 -0.2631 -0.2391  0.2318
  771MOL0     C 1688   8.927   7.017   0.319 -0.4816  0.1702 -0.1203
  771MOL0     C 1689   9.063   6.982   0.302  0.2107  0.0417  0.2874
  771MOL0     N 1690   9.840   6.903   0.717 -0.4580 -0.7321 -0.1496
  771MOL0     N 1691   9.942   6.952   0.774 -0.0481  0.3074  0.0253
  771MOL0     C 1692   9.474   6.851   1.779  0.0174  0.9583  0.2697
  771MOL0     C 1693   9.339   6.834   1.805  0.4617  0.1385  0.1014
  771MOL0     C 1694   8.889   6.948   1.849  0.0320  0.0452 -0.2755
  771MOL0     C 1695   8.819   6.828   1.803 -0.4343 -0.4407 -0.1425
  771MOL0     C 1696   8.691   6.806   1.840  1.1319 -0.0066 -0.0028
  771MOL0     C 1697   8.626   6.898   1.924  0.4481 -0.2438  0.5899
  771MOL0     O 1698   8.486   6.868   1.951 -0.1378  0.3472 -0.1251
  771MOL0     C 1699   8.407   6.929   1.853  0.5509 -0.1731  0.6150
  771MOL0     C 1700   8.267   6.848   1.854  0.3094 -0.6462  0.1075
  771MOL0     C 1701   8.261   6.717   1.777  0.5871  0.4541  1.2363
  771MOL0     C 1702   8.127   6.637   1.783 -0.0730  0.1369  0.5745
  771MOL0     C 1703   8.007   6.724   1.755  0.1112  1.2210 -0.0925
  771MOL0     C 1704   7.907   6.792   1.749 -0.0217  1.4870 -0.7375
  771MOL0     C 1705   8.689   7.001   1.983  0.1218 -0.0101  0.2111
  771MOL0     C 1706   8.822   7.032   1.943 -0.0672 -0.3447 -0.0369
  771MOL0     H 1707   9.222   7.082   1.607  1.8287 -0.4799 -2.1111
  771MOL0     H 1708   9.444   7.106   1.557 -1.8294 -0.8751 -1.7615
  771MOL0     H 1709   9.604   7.013   1.469 -2.1314  1.2818  1.8527
  771MOL0     H 1710   9.772   6.947   1.498 -0.3824  0.1227  1.5552
  771MOL0     H 1711   9.835   7.162   1.603 -0.1300 -1.8510  0.7414
  771MOL0     H 1712   9.669   7.205   1.621  1.4574  1.3749 -0.4839
  771MOL0     H 1713   9.769   7.343   1.431 -0.0466  0.0181 -0.3577
  771MOL0     H 1714   9.644   7.235   1.369  1.5190 -0.5476 -0.8769
  771MOL0     H 1715   9.953   7.174   1.355 -0.7939 -1.8014 -0.3357
  771MOL0     H 1716   9.824   7.070   1.301 -0.7803  0.5571 -3.0699
  771MOL0     H 1717   9.884   7.340   1.190  0.7145  0.4624 -2.6035
  771MOL0     H 1718   9.746   7.247   1.145  0.0111 -2.1837 -0.3821
  771MOL0     H 1719   9.897   7.069   1.046 -2.1313  1.6533 -0.9950
  771MOL0     H 1720  10.038   7.149   1.108 -0.3591  0.4896  0.9264
  771MOL0     H 1721   9.850   7.296   0.907  0.1885  2.5190 -1.2367
  771MOL0     H 1722  10.004   7.344   0.990 -0.6488 -1.3066  1.1594
  771MOL0     H 1723  10.115   7.140   0.868 -1.1841 -3.0491 -1.9898
  771MOL0     H 1724  10.062   7.261   0.761 -0.0168  0.4164  0.1790
  771MOL0     H 1725   9.786   7.223   0.693  1.8628  0.4837  0.7241
  771MOL0     H 1726   9.604   7.077   0.543 -0.8574 -0.4866 -0.3782
  771MOL0     H 1727   9.545   6.992   0.681 -0.1192  2.2040 -0.8199
  771MOL0     H 1728   9.589   6.782   0.595 -3.9270  1.2022 -0.4672
  771MOL0     H 1729   9.709   6.853   0.482 -0.2450  0.7793 -0.8287
  771MOL0     H 1730   9.520   6.969   0.358 -2.2308 -0.3077 -0.4829
  771MOL0     H 1731   9.498   6.788   0.344  2.3889 -1.2398  3.2610
  771MOL0     H 1732   9.335   7.006   0.489  0.3041  0.5315 -0.1358
  771MOL0     H 1733   9.329   6.830   0.549  1.1837  0.1733  0.1098
  771MOL0     H 1734   9.107   6.750   0.534  1.8347 -0.9348 -1.7762
  771MOL0     H 1735   8.868   6.815   0.592 -0.7579 -1.7782 -0.5002
  771MOL0     H 1736   8.474   6.961   0.315 -1.2951  0.4790 -0.6638
  771MOL0     H 1737   8.231   7.015   0.309 -1.4117  2.0299 -1.0403
  771MOL0     H 1738   8.077   7.053   0.544  1.3564  1.7314 -0.9403
  771MOL0     H 1739   8.041   7.021   0.384 -0.0303 -0.3583  0.1654
  771MOL0     H 1740   7.843   7.045   0.509 -1.2536  1.0379  1.8195
  771MOL0     H 1741   7.854   7.165   0.375 -0.6469 -0.9703 -0.0534
  771MOL0     H 1742   7.910   7.333   0.571  3.4185 -1.4029 -0.6728
  771MOL0     H 1743   7.890   7.194   0.677 -0.7583 -0.9934 -0.6045
  771MOL0     H 1744   7.678   7.311   0.518 -0.0093  0.6285  0.6479
  771MOL0     H 1745   7.660   7.155   0.592  0.7570  0.3355 -1.5219
  771MOL0     H 1746   7.707   7.430   0.731  0.4593  0.8525 -0.3546
  771MOL0     H 1747   7.714   7.274   0.810  1.2337  1.8391 -0.4337
  771MOL0     H 1748   7.474   7.251   0.713  1.3670 -0.0911 -1.5604
  771MOL0     H 1749   7.476   7.420   0.669  0.0886 -1.6969 -2.8136
  771MOL0     H 1750   7.535   7.486   0.899 -0.8037  0.8373  0.2714
  771MOL0     H 1751   7.377   7.430   0.891  1.3245  0.9297  1.3669
  771MOL0     H 1752   7.611   7.283   1.005  0.4005  0.3067 -0.2311
  771MOL0     H 1753   7.446   7.211   0.974  0.0515 -0.5909  1.4136
  771MOL0     H 1754   8.307   7.383   0.508 -0.0591 -1.1994  2.9717
  771MOL0     H 1755   8.549   7.339   0.497 -0.5288  2.0537 -2.0200
  771MOL0     H 1756   8.898   7.091   0.245  0.4486  0.1238 -0.5454
  771MOL0     H 1757   9.123   7.024   0.221  0.4314 -0.3835  0.2237
  771MOL0     H 1758   9.552   6.794   1.829  1.3464  0.3947 -2.2891
  771MOL0     H 1759   9.309   6.767   1.885  1.1012 -1.6056 -1.0465
  771MOL0     H 1760   8.876   6.758   1.742  2.1538  1.6901 -0.3291
  771MOL0     H 1761   8.636   6.718   1.808 -0.7398  1.9555 -2.5707
  771MOL0     H 1762   8.456   6.924   1.756  0.8778  0.1101  0.7639
  771MOL0     H 1763   8.390   7.036   1.868 -0.9522 -0.4990  1.4563
  771MOL0     H 1764   8.236   6.839   1.958 -1.1118  2.0451 -0.0012
  771MOL0     H 1765   8.201   6.920   1.806 -0.2345 -1.3780 -0.2698
  771MOL0     H 1766   8.324   6.634   1.810  2.4281  1.0862 -0.4903
  771MOL0     H 1767   8.278   6.751   1.674  0.0184 -2.6213 -0.0044
  771MOL0     H 1768   8.123   6.555   1.711 -1.9313  1.6560 -1.1627
  771MOL0     H 1769   8.113   6.597   1.884 -0.2487  3.3127  1.9080
  771MOL0     H 1770   7.812   6.842   1.750 -2.6768 -3.0280  1.0199
  771MOL0     H 1771   8.633   7.061   2.053  1.2880  0.8887  0.4048
  771MOL0     H 1772   8.863   7.124   1.984  0.0123 -1.6565  3.0904
  772MOL0     O 1773   6.579  11.017   3.423  0.8278 -0.4261 -0.0470
  772MOL0     C 1774   6.564  11.128   3.473 -0.3693 -0.2983  0.5140
  772MOL0     O 1775   6.449  11.195   3.491  0.2043 -0.3074 -0.1558
  772MOL0     C 1776   6.342  11.145   3.435  0.4732 -0.1202  0.7240
  772MOL0     C 1777   6.299  11.185   3.313  0.4492 -0.1213  0.3906
  772MOL0     C 1778   6.189  11.121   3.256 -1.2785  0.2971  0.0964
  772MOL0     C 1779   6.112  11.034   3.323  0.7011  0.1657 -0.0805
  772MOL0     O 1780   5.992  11.003   3.257 -0.2331 -0.3085  0.2934
  772MOL0     C 1781   5.888  10.936   3.316  0.3640 -0.2276 -0.6159
  772MOL0     C 1782   5.811  11.045   3.399  0.4104 -0.1525  0.1114
  772MOL0     C 1783   5.704  10.989   3.496 -0.6199  0.0740 -0.6212
  772MOL0     C 1784   5.597  10.919   3.416  0.6167 -0.2692 -0.1697
  772MOL0     C 1785   5.503  10.850   3.513 -0.2214 -0.5736 -0.5843
  772MOL0     C 1786   5.558  10.721   3.562 -0.3307  0.2248 -0.1448
  772MOL0     C 1787   5.453  10.650   3.641 -0.3707 -0.1265 -0.8846
  772MOL0     C 1788   5.490  10.502   3.664  0.2665 -0.3322  0.2056
  772MOL0     N 1789   5.594  10.483   3.769  0.0982 -0.7456  0.0378
  772MOL0     C 1790   5.726  10.473   3.724 -0.4478 -0.5531 -0.0320
  772MOL0     C 1791   5.784  10.383   3.808  0.0640  0.4382 -0.8866
  772MOL0     C 1792   5.921  10.341   3.808 -0.8912 -0.3917 -0.3440
  772MOL0     C 1793   5.958  10.222   3.719  0.3184 -0.7701 -0.2029
  772MOL0     C 1794   5.898  10.083   3.769  0.1630 -0.5146 -0.5917
  772MOL0     C 1795   5.747  10.071   3.782  0.1088 -0.2068  0.1404
  772MOL0     O 1796   5.678  10.132   3.673  0.3036 -0.0163  0.1536
  772MOL0     C 1797   5.539  10.137   3.677 -1.0286 -0.3231  0.1791
  772MOL0     C 1798   5.476  10.157   3.552  0.2143  0.2651  0.1461
  772MOL0     C 1799   5.343  10.129   3.543 -0.4706 -0.4479  0.6822
  772MOL0     C 1800   5.266  10.096   3.655 -0.1750  0.1663 -0.3692
  772MOL0     C 1801   5.126  10.072   3.638  0.6280 -0.5099  0.2303
  772MOL0     O 1802   5.084  10.042   3.506 -0.2686  0.3824 -0.4420
  772MOL0     C 1803   4.980   9.958   3.485  0.6872  0.2046  0.8919
  772MOL0     C 1804   4.937   9.866   3.580 -0.1171  0.7945  0.8096
  772MOL0     C 1805   4.816   9.785   3.551 -0.0527  0.7516 -0.8095
  772MOL0     C 1806   4.744   9.803   3.431 -0.3019 -0.1816  0.2569
  772MOL0     O 1807   4.630   9.730   3.411 -0.5132  0.2966 -0.6636
  772MOL0     C 1808   4.554   9.735   3.287 -0.3845  0.5012 -0.0470
  772MOL0     C 1809   4.483   9.607   3.266 -0.1581 -0.9058  0.6874
  772MOL0     C 1810   4.397   9.576   3.384 -0.1019  0.1154 -0.2819
  772MOL0     C 1811   4.316   9.441   3.340 -0.0904  0.3804  0.1715
  772MOL0     C 1812   4.205   9.469   3.231  0.1926  0.2844 -0.3778
  772MOL0     C 1813   4.082   9.522   3.295  0.5977  0.2208 -0.0837
  772MOL0     C 1814   3.949   9.483   3.232  0.0100  0.3321  0.4638
  772MOL0     C 1815   3.828   9.514   3.317 -0.5852  0.3502 -0.7174
  772MOL0    Cl 1816   3.674   9.471   3.244 -0.2393  0.4792 -0.1430
  772MOL0     C 1817   4.797   9.883   3.337 -0.1880  0.7764  0.4227
  772MOL0     C 1818   4.914   9.960   3.361 -0.8964  0.3264 -0.2072
  772MOL0     O 1819   5.051  10.086   3.734  0.2851 -0.1366  0.3328
  772MOL0     C 1820   5.318  10.100   3.781  0.1161  0.1146  0.0178
  772MOL0     C 1821   5.458  10.100   3.790  0.7730  0.3392  0.6782
  772MOL0     N 1822   5.694  10.352   3.914 -0.6207 -0.0931  0.0153
  772MOL0     N 1823   5.583  10.410   3.884 -0.5662  0.5970  0.5836
  772MOL0     C 1824   6.145  11.003   3.453  0.4159  0.0045  0.2828
  772MOL0     C 1825   6.268  11.047   3.508  0.4492  0.1376 -0.4266
  772MOL0     C 1826   6.686  11.175   3.546 -0.4915  0.2880 -0.9258
  772MOL0     C 1827   6.791  11.088   3.573 -0.2803  0.4998 -0.9542
  772MOL0     C 1828   6.904  11.138   3.634  0.8799  0.5228  0.8862
  772MOL0     C 1829   6.918  11.272   3.677 -0.1374 -0.0573 -0.7950
  772MOL0     O 1830   7.025  11.336   3.732  0.9766 -0.7261 -0.6738
  772MOL0     C 1831   7.125  11.249   3.767 -0.6657 -0.5612 -0.1033
  772MOL0     C 1832   7.235  11.327   3.840  0.0619 -0.2770 -0.4673
  772MOL0     C 1833   7.353  11.237   3.882  0.7280  0.4367 -0.4862
  772MOL0     C 1834   7.451  11.307   3.976  0.2284 -0.3513  0.5935
  772MOL0     C 1835   7.496  11.432   3.924  0.2236 -0.2292 -0.1861
  772MOL0     C 1836   7.528  11.541   3.877  0.0359  0.2398  0.4820
  772MOL0     C 1837   6.807  11.353   3.646  0.2243 -0.0502  0.5361
  772MOL0     C 1838   6.696  11.308   3.572 -0.1298  0.2644 -0.1103
  772MOL0     H 1839   6.348  11.266   3.260 -1.6089  0.2170 -1.1483
  772MOL0     H 1840   6.150  11.153   3.160  1.8690 -0.0128 -1.4227
  772MOL0     H 1841   5.912  10.853   3.383  0.4660 -1.7872 -2.5070
  772MOL0     H 1842   5.824  10.887   3.243 -0.1544  0.0428 -0.3488
  772MOL0     H 1843   5.756  11.111   3.331  0.0885  1.4553  1.8766
  772MOL0     H 1844   5.891  11.089   3.458  1.2017 -3.1166  1.4327
  772MOL0     H 1845   5.653  11.066   3.553 -0.6556  1.4435 -2.4278
  772MOL0     H 1846   5.753  10.925   3.570  1.0968  0.0217 -1.7376
  772MOL0     H 1847   5.552  11.002   3.360  2.9132 -0.3070 -2.2588
  772MOL0     H 1848   5.632  10.846   3.342 -0.3898 -1.0982  0.1585
  772MOL0     H 1849   5.410  10.823   3.463 -0.4154  1.6208 -1.5033
  772MOL0     H 1850   5.462  10.923   3.583 -0.1079 -0.7166 -0.3681
  772MOL0     H 1851   5.656  10.735   3.609 -0.5443  1.7223 -0.0950
  772MOL0     H 1852   5.579  10.655   3.477 -0.4178  1.5062 -1.1803
  772MOL0     H 1853   5.426  10.705   3.732 -1.4144 -0.5558 -0.9184
  772MOL0     H 1854   5.353  10.656   3.597 -1.4607 -1.7720  1.2108
  772MOL0     H 1855   5.517  10.442   3.577 -0.2098 -2.1602  1.2649
  772MOL0     H 1856   5.395  10.459   3.696 -1.6766  3.5403  0.1626
  772MOL0     H 1857   5.787  10.513   3.643  2.3882 -3.1578  0.6183
  772MOL0     H 1858   5.949  10.318   3.911  1.1783  0.3458 -0.6953
  772MOL0     H 1859   5.984  10.425   3.776  0.8015 -1.1286  0.8874
  772MOL0     H 1860   6.067  10.221   3.708  0.4960 -1.4584  1.3362
  772MOL0     H 1861   5.907  10.236   3.624 -1.0963  2.3197  0.8876
  772MOL0     H 1862   5.937  10.006   3.701 -0.3097 -1.3654  0.0825
  772MOL0     H 1863   5.944  10.062   3.866  0.4466 -0.1621 -0.6488
  772MOL0     H 1864   5.716  10.116   3.877  0.7392 -0.0993  0.2993
  772MOL0     H 1865   5.712   9.967   3.778 -1.0846  0.1840  0.0673
  772MOL0     H 1866   5.533  10.168   3.461 -0.8111 -0.8776 -0.6689
  772MOL0     H 1867   5.305  10.129   3.441  0.7905 -0.5764  0.1991
  772MOL0     H 1868   4.980   9.854   3.679 -1.3215 -0.9304  1.1650
  772MOL0     H 1869   4.788   9.727   3.638  2.6790  2.0579  1.1133
  772MOL0     H 1870   4.615   9.745   3.197 -2.1311 -0.3894 -1.3909
  772MOL0     H 1871   4.477   9.813   3.288 -0.2851  0.7107 -2.6990
  772MOL0     H 1872   4.559   9.529   3.249  1.4380 -0.5168  4.8362
  772MOL0     H 1873   4.421   9.620   3.177 -1.2187 -0.4953  1.4812
  772MOL0     H 1874   4.334   9.656   3.423  0.4695  0.2116  0.4618
  772MOL0     H 1875   4.454   9.549   3.473  0.1651  2.5931  0.3720
  772MOL0     H 1876   4.385   9.369   3.296 -1.1294 -0.8367  0.4768
  772MOL0     H 1877   4.267   9.392   3.424 -1.1206 -2.1306 -1.7540
  772MOL0     H 1878   4.181   9.370   3.193 -0.3556  0.5822 -0.8110
  772MOL0     H 1879   4.244   9.527   3.147  2.7874 -0.7104  0.0361
  772MOL0     H 1880   4.104   9.629   3.308  0.6969  0.0388  1.4532
  772MOL0     H 1881   4.074   9.495   3.401  1.3716 -0.2472 -0.1417
  772MOL0     H 1882   3.932   9.536   3.138 -2.3250  0.4452  0.8869
  772MOL0     H 1883   3.950   9.374   3.221 -1.7311  0.3647 -0.4223
  772MOL0     H 1884   3.822   9.621   3.340 -0.9759  0.3928 -1.0007
  772MOL0     H 1885   3.844   9.454   3.407 -2.4656  1.3387  0.3564
  772MOL0     H 1886   4.742   9.907   3.246  1.2400 -1.0330 -1.0027
  772MOL0     H 1887   4.937  10.031   3.282 -0.4649 -0.7402 -1.0707
  772MOL0     H 1888   5.261  10.081   3.871 -0.8360  2.7753  0.0591
  772MOL0     H 1889   5.503  10.064   3.882  1.4517 -1.5218 -0.3306
  772MOL0     H 1890   6.079  10.949   3.521  2.1184 -1.2169  1.0558
  772MOL0     H 1891   6.298  11.014   3.607 -0.7865  1.2897  0.3695
  772MOL0     H 1892   6.780  10.981   3.556  0.2196 -0.2178  2.5481
  772MOL0     H 1893   6.982  11.062   3.637  0.9211  0.5382  3.7699
  772MOL0     H 1894   7.167  11.202   3.677  0.8083  0.9639 -0.2668
  772MOL0     H 1895   7.085  11.176   3.838 -3.3530  0.6923 -0.2379
  772MOL0     H 1896   7.272  11.402   3.770 -2.5504 -1.1794 -2.9868
  772MOL0     H 1897   7.201  11.379   3.930  3.0763 -0.8857  1.1682
  772MOL0     H 1898   7.405  11.215   3.788  0.3067 -0.4477 -0.5122
  772MOL0     H 1899   7.319  11.145   3.928 -1.0128 -0.7009 -3.7106
  772MOL0     H 1900   7.397  11.330   4.068  0.0513  2.7113 -0.1711
  772MOL0     H 1901   7.523  11.228   4.000  0.6025  0.1037  0.9636
  772MOL0     H 1902   7.573  11.633   3.846  2.9812 -1.3983 -0.4799
  772MOL0     H 1903   6.817  11.454   3.686  2.6049  0.4263 -1.0798
  772MOL0     H 1904   6.607  11.368   3.557 -0.0050  0.2387 -1.0055
  773MOL0     O 1905   7.732   7.303   1.535  0.2741  1.2412  0.8736
  773MOL0     C 1906   7.780   7.242   1.438  0.7490  0.0901  0.3180
  773MOL0     O 1907   7.719   7.136   1.373  0.1080 -0.3322 -0.3067
  773MOL0     C 1908   7.609   7.083   1.436 -1.1631 -0.7646 -1.2319
  773MOL0     C 1909   7.623   6.982   1.539 -0.5714  0.5788  0.1785
  773MOL0     C 1910   7.502   6.934   1.601 -0.2692  0.4587 -0.6895
  773MOL0     C 1911   7.375   6.976   1.567  0.2004 -0.2550  0.3566
  773MOL0     O 1912   7.260   6.938   1.627 -0.7518  0.4890  0.4445
  773MOL0     C 1913   7.237   6.801   1.647  0.0685  0.6826 -0.5032
  773MOL0     C 1914   7.092   6.766   1.698 -0.0346 -0.3463  0.9497
  773MOL0     C 1915   6.980   6.809   1.597 -0.8921 -0.1136  0.8643
  773MOL0     C 1916   6.842   6.761   1.651 -0.2640  0.1467 -0.1801
  773MOL0     C 1917   6.737   6.802   1.552 -0.1159 -0.8402 -0.4152
  773MOL0     C 1918   6.604   6.803   1.618  0.9789 -0.4180  0.0826
  773MOL0     C 1919   6.510   6.900   1.540  0.6861  0.6776 -0.1220
  773MOL0     C 1920   6.370   6.888   1.597 -0.1974 -0.4999  0.3993
  773MOL0     N 1921   6.344   6.895   1.735  0.0474  0.2217 -0.5737
  773MOL0     C 1922   6.375   6.993   1.819 -0.6063  0.5965  0.1333
  773MOL0     C 1923   6.345   6.943   1.941 -0.4148 -1.3847  0.5784
  773MOL0     C 1924   6.357   7.017   2.072  0.2750 -0.5221 -1.1229
  773MOL0     C 1925   6.331   7.165   2.073 -1.0098 -0.2844  0.1932
  773MOL0     C 1926   6.196   7.195   2.015  0.2773 -0.1063  0.4121
  773MOL0     C 1927   6.079   7.097   2.056 -0.2300  0.0383  0.3046
  773MOL0     O 1928   6.026   7.138   2.181 -0.0230 -0.0415 -0.4806
  773MOL0     C 1929   5.901   7.093   2.209 -0.3298 -0.4502 -0.5480
  773MOL0     C 1930   5.821   7.016   2.123  0.5931 -1.7624  1.0815
  773MOL0     C 1931   5.679   6.980   2.160 -0.0926 -0.0325 -0.3300
  773MOL0     C 1932   5.632   7.025   2.284 -0.3290 -0.8989 -0.7757
  773MOL0     C 1933   5.492   7.003   2.317  0.2513 -0.7747  0.5798
  773MOL0     O 1934   5.459   7.030   2.443 -0.7297  0.3181 -1.0583
  773MOL0     C 1935   5.323   7.048   2.469 -0.4862 -0.9795  0.8470
  773MOL0     C 1936   5.268   7.179   2.461 -0.3851  0.2854 -0.8124
  773MOL0     C 1937   5.124   7.188   2.472 -0.3471  0.6264  0.0621
  773MOL0     C 1938   5.047   7.075   2.504  0.2925 -0.0385  0.1284
  773MOL0     O 1939   4.911   7.072   2.509  0.4138  0.7648  0.2764
  773MOL0     C 1940   4.831   7.184   2.461 -0.0358 -0.3419  0.2626
  773MOL0     C 1941   4.695   7.129   2.419  0.3776 -0.4153 -0.2644
  773MOL0     C 1942   4.597   7.120   2.533  0.9092 -0.1362  0.3712
  773MOL0     C 1943   4.551   7.262   2.563 -0.4596 -0.7335 -0.4272
  773MOL0     C 1944   4.449   7.275   2.671  0.3054 -0.0314 -1.1575
  773MOL0     C 1945   4.419   7.428   2.684  0.0631 -0.5199  0.4747
  773MOL0     C 1946   4.319   7.463   2.800 -0.0659 -0.1072 -0.7753
  773MOL0     C 1947   4.335   7.620   2.828  0.5085 -0.3000  0.0852
  773MOL0    Cl 1948   4.201   7.676   2.919 -0.5224  0.0644 -0.0806
  773MOL0     C 1949   5.110   6.955   2.523  0.3485 -0.3066  0.1714
  773MOL0     C 1950   5.249   6.942   2.512 -0.1124 -0.5933 -0.6913
  773MOL0     O 1951   5.414   6.979   2.226 -0.5380  0.8885  0.4732
  773MOL0     C 1952   5.718   7.097   2.372 -0.1719 -0.5978  0.6627
  773MOL0     C 1953   5.847   7.133   2.332 -0.2672 -0.0544  0.8478
  773MOL0     N 1954   6.296   6.825   1.926 -0.1841  0.3273 -0.5995
  773MOL0     N 1955   6.287   6.795   1.806  0.2701  0.1405  0.2623
  773MOL0     C 1956   7.362   7.081   1.476  0.2628 -0.0430 -1.0673
  773MOL0     C 1957   7.487   7.135   1.417  0.7278  0.3284  0.2784
  773MOL0     C 1958   7.908   7.285   1.376 -0.5431  0.5656 -0.5692
  773MOL0     C 1959   7.932   7.252   1.240  1.3805 -0.7727  0.3789
  773MOL0     C 1960   8.056   7.286   1.184  0.2844 -0.3833 -0.2151
  773MOL0     C 1961   8.144   7.368   1.246 -1.7055  0.7092 -0.2848
  773MOL0     O 1962   8.262   7.397   1.181  0.7365  0.0521  0.0627
  773MOL0     C 1963   8.342   7.502   1.238 -0.0185 -0.3397  0.1216
  773MOL0     C 1964   8.463   7.540   1.154 -0.4894 -0.6500  0.0750
  773MOL0     C 1965   8.581   7.448   1.169  0.7544  0.2565  0.3768
  773MOL0     C 1966   8.710   7.519   1.116  0.0662  0.5924 -0.1796
  773MOL0     C 1967   8.836   7.446   1.120  0.4231  0.1436 -0.0820
  773MOL0     C 1968   8.934   7.385   1.109 -0.7880 -1.3841  1.2678
  773MOL0     C 1969   8.119   7.410   1.378 -0.1664  0.4823 -0.6304
  773MOL0     C 1970   8.003   7.364   1.449  0.0443 -0.5428  0.0077
  773MOL0     H 1971   7.720   6.946   1.570  0.2722  3.1671  0.8257
  773MOL0     H 1972   7.505   6.853   1.674 -0.1793  0.8488 -0.2622
  773MOL0     H 1973   7.305   6.770   1.727 -1.4005 -1.6511 -0.0730
  773MOL0     H 1974   7.262   6.739   1.560  1.9092 -2.3241  1.9478
  773MOL0     H 1975   7.069   6.822   1.790  0.5543  1.5470  0.0006
  773MOL0     H 1976   7.071   6.665   1.733 -0.1425  1.0130  5.4862
  773MOL0     H 1977   7.006   6.766   1.500  2.4434  0.8781  1.1913
  773MOL0     H 1978   6.977   6.917   1.581  2.3677 -0.1509 -0.7283
  773MOL0     H 1979   6.847   6.653   1.668  3.0592  0.5444  2.4467
  773MOL0     H 1980   6.824   6.808   1.748 -0.2409  0.1179 -0.1619
  773MOL0     H 1981   6.745   6.750   1.456 -2.3687 -1.4021 -0.3563
  773MOL0     H 1982   6.757   6.907   1.528 -1.6120 -0.4224  0.0710
  773MOL0     H 1983   6.606   6.845   1.719 -0.1050  2.9361 -1.1485
  773MOL0     H 1984   6.559   6.704   1.607 -2.7769  1.2512 -1.2336
  773MOL0     H 1985   6.553   7.000   1.538  1.2894  0.4445  0.5824
  773MOL0     H 1986   6.496   6.862   1.439 -2.3730 -1.2635  0.8975
  773MOL0     H 1987   6.324   6.808   1.538 -1.2894  1.2866 -1.3068
  773MOL0     H 1988   6.327   6.978   1.551  0.3606 -1.7055 -2.7607
  773MOL0     H 1989   6.413   7.093   1.799  0.6032  1.2038  4.5166
  773MOL0     H 1990   6.460   7.005   2.109  0.6827  2.5939 -0.9496
  773MOL0     H 1991   6.294   6.967   2.145 -0.1864 -1.9323 -2.4319
  773MOL0     H 1992   6.402   7.225   2.015 -0.9822 -1.1602 -0.7220
  773MOL0     H 1993   6.339   7.202   2.175 -0.1768 -0.2256  0.1175
  773MOL0     H 1994   6.164   7.296   2.040 -1.1101 -0.5351  0.4779
  773MOL0     H 1995   6.206   7.183   1.907 -0.6448  1.1450  0.1636
  773MOL0     H 1996   6.110   6.992   2.060  1.2417  0.4934  2.3888
  773MOL0     H 1997   6.000   7.096   1.980 -0.1639 -1.2107  0.2250
  773MOL0     H 1998   5.845   6.990   2.020 -0.4702 -0.5052  0.4828
  773MOL0     H 1999   5.615   6.934   2.086 -1.3769  0.4013  0.4708
  773MOL0     H 2000   5.337   7.263   2.463 -1.2585  1.0124 -0.3722
  773MOL0     H 2001   5.081   7.286   2.453  0.3363  0.6793 -1.2857
  773MOL0     H 2002   4.883   7.236   2.380  0.9536  4.0875  3.3715
  773MOL0     H 2003   4.830   7.265   2.535 -3.2564 -2.1249  2.3749
  773MOL0     H 2004   4.704   7.027   2.380 -0.4305 -1.3972  1.9268
  773MOL0     H 2005   4.665   7.198   2.340  0.7969 -1.8296 -1.7186
  773MOL0     H 2006   4.630   7.064   2.621  0.3813 -0.4218  0.3925
  773MOL0     H 2007   4.511   7.067   2.490 -0.2264  0.8251  1.3723
  773MOL0     H 2008   4.635   7.322   2.600 -0.7990 -0.5807  0.1066
  773MOL0     H 2009   4.515   7.301   2.468  0.8097  0.5110 -0.4178
  773MOL0     H 2010   4.482   7.228   2.764 -0.6425  1.7041  0.0999
  773MOL0     H 2011   4.355   7.231   2.638 -0.0181  2.3971 -3.8617
  773MOL0     H 2012   4.375   7.458   2.588  1.6145 -0.7617 -0.3520
  773MOL0     H 2013   4.511   7.484   2.702 -1.3610  2.0116  0.3411
  773MOL0     H 2014   4.216   7.442   2.770  0.3079  0.4781 -2.6025
  773MOL0     H 2015   4.351   7.410   2.890 -2.4674  1.7052  1.3008
  773MOL0     H 2016   4.341   7.679   2.736 -0.6872 -3.4373 -2.1625
  773MOL0     H 2017   4.424   7.651   2.883  1.0982 -1.3052 -0.2800
  773MOL0     H 2018   5.043   6.874   2.549  0.2349 -0.4511 -0.5602
  773MOL0     H 2019   5.302   6.849   2.533 -1.3418 -0.6623  2.8267
  773MOL0     H 2020   5.671   7.136   2.462 -3.5851 -2.3324 -0.2067
  773MOL0     H 2021   5.913   7.196   2.391 -0.4750  0.4247  0.5713
  773MOL0     H 2022   7.259   7.111   1.458 -0.1297 -0.0708  0.9140
  773MOL0     H 2023   7.461   7.216   1.349  1.2833 -2.5473 -3.7664
  773MOL0     H 2024   7.859   7.190   1.189  0.8537  1.3428 -1.5904
  773MOL0     H 2025   8.080   7.263   1.081 -1.2278 -1.3519 -0.3777
  773MOL0     H 2026   8.389   7.468   1.330  1.8951 -1.3668 -1.1734
  773MOL0     H 2027   8.287   7.594   1.259 -0.3270 -0.3414 -0.6305
  773MOL0     H 2028   8.430   7.547   1.050  0.9598 -1.1850 -0.4519
  773MOL0     H 2029   8.493   7.641   1.183 -1.8856  0.4090 -1.8808
  773MOL0     H 2030   8.573   7.360   1.106  1.4606  1.8599 -2.1093
  773MOL0     H 2031   8.597   7.426   1.275  2.1383  1.5360  0.4720
  773MOL0     H 2032   8.687   7.551   1.014 -0.1874 -0.3049 -0.4163
  773MOL0     H 2033   8.727   7.607   1.179  3.0123 -0.3962  0.5560
  773MOL0     H 2034   9.022   7.328   1.086  0.5239  0.5230  1.3093
  773MOL0     H 2035   8.193   7.461   1.440 -0.4070 -0.3417  0.3723
  773MOL0     H 2036   7.994   7.385   1.555 -0.4314 -1.8283  0.2476
  774MOL0     O 2037  10.858   0.767   4.659  0.5723 -0.0671  0.3261
  774MOL0     C 2038  10.897   0.753   4.544 -0.0910  0.1827  0.1315
  774MOL0     O 2039  10.833   0.684   4.445  0.5374 -0.5083 -0.1556
  774MOL0     C 2040  10.717   0.609   4.472  0.8529 -0.2282  0.0746
  774MOL0     C 2041  10.712   0.477   4.440  0.9564  0.5425  0.1456
  774MOL0     C 2042  10.606   0.389   4.478 -0.6891  0.1039  0.4311
  774MOL0     C 2043  10.502   0.444   4.550  0.3807  0.4729  0.1011
  774MOL0     O 2044  10.405   0.359   4.602  0.3436 -0.2046  0.2781
  774MOL0     C 2045  10.414   0.342   4.742  0.4225 -0.2176  0.4194
  774MOL0     C 2046  10.290   0.272   4.804 -0.0550 -0.0883 -0.3711
  774MOL0     C 2047  10.154   0.328   4.747 -0.2045 -0.2654 -1.0507
  774MOL0     C 2048  10.028   0.240   4.763 -0.7583 -0.0027 -0.5085
  774MOL0     C 2049   9.900   0.311   4.706  0.1997 -0.5673 -0.3464
  774MOL0     C 2050   9.920   0.373   4.566  0.0883  0.8597  0.4700
  774MOL0     C 2051   9.784   0.409   4.514 -0.4561  0.0530 -0.4660
  774MOL0     C 2052   9.773   0.465   4.366  0.5706  0.0549 -0.3677
  774MOL0     N 2053   9.633   0.477   4.329  0.3795  0.6095  0.0091
  774MOL0     C 2054   9.584   0.507   4.197 -0.3100  0.2532 -0.2666
  774MOL0     C 2055   9.455   0.508   4.207  0.0400 -0.7629  0.8134
  774MOL0     C 2056   9.377   0.509   4.071 -0.1997 -0.0068  0.0249
  774MOL0     C 2057   9.246   0.598   4.065 -0.8710 -0.5908  0.1271
  774MOL0     C 2058   9.298   0.740   4.046  0.0596 -0.4612 -0.1673
  774MOL0     C 2059   9.246   0.835   4.152  0.0013 -0.7414  0.5211
  774MOL0     O 2060   9.104   0.806   4.158 -0.6183 -0.1856  0.7939
  774MOL0     C 2061   9.020   0.831   4.059  1.0123  0.4202  0.0733
  774MOL0     C 2062   8.903   0.745   4.065  0.0129 -0.3876  0.1572
  774MOL0     C 2063   8.795   0.768   3.976 -0.5054  0.4214 -0.0112
  774MOL0     C 2064   8.802   0.864   3.877  0.0358 -0.3200 -0.3028
  774MOL0     C 2065   8.694   0.895   3.781  0.4264 -0.7459  0.0556
  774MOL0     O 2066   8.722   0.977   3.671 -0.1710  0.4061 -0.5603
  774MOL0     C 2067   8.622   0.999   3.580  0.4245 -0.6502 -0.2140
  774MOL0     C 2068   8.568   1.124   3.585  0.0208 -0.3645  0.2685
  774MOL0     C 2069   8.471   1.164   3.491 -0.2521  0.0076 -1.1899
  774MOL0     C 2070   8.431   1.074   3.385 -0.2273  0.7712 -0.6564
  774MOL0     O 2071   8.344   1.105   3.284 -0.2874 -0.2945  0.2487
  774MOL0     C 2072   8.260   1.221   3.299  0.5160 -0.3541  0.0171
  774MOL0     C 2073   8.184   1.232   3.173  0.2854 -0.0295  0.0796
  774MOL0     C 2074   8.269   1.282   3.048 -0.0384  1.1715  0.3388
  774MOL0     C 2075   8.333   1.419   3.067  0.0480 -0.5173  0.0256
  774MOL0     C 2076   8.435   1.456   2.950  0.7204 -0.3001  0.1460
  774MOL0     C 2077   8.579   1.406   2.970  0.0643  0.0895 -0.3263
  774MOL0     C 2078   8.672   1.433   2.855  0.1022 -1.2975  0.4948
  774MOL0     C 2079   8.817   1.390   2.881 -0.4766  0.2403  0.6037
  774MOL0    Cl 2080   8.918   1.459   2.743 -0.0316 -0.0250 -0.2176
  774MOL0     C 2081   8.497   0.946   3.378  0.4691 -0.5708 -0.2905
  774MOL0     C 2082   8.593   0.910   3.480  0.6242 -0.4166  1.7734
  774MOL0     O 2083   8.584   0.851   3.798  0.5632 -0.1692 -0.0374
  774MOL0     C 2084   8.919   0.943   3.874 -0.4248  0.4845 -0.7861
  774MOL0     C 2085   9.030   0.927   3.957 -0.7916  0.2140  0.0741
  774MOL0     N 2086   9.417   0.496   4.342  0.0557 -1.0454 -0.3370
  774MOL0     N 2087   9.517   0.484   4.415  0.1581  0.2824  0.3550
  774MOL0     C 2088  10.514   0.576   4.595  0.6465 -0.1304 -0.6369
  774MOL0     C 2089  10.618   0.657   4.550  0.3353  0.1710 -0.9908
  774MOL0     C 2090  11.032   0.806   4.528  0.0600 -0.9347 -0.4518
  774MOL0     C 2091  11.080   0.910   4.618 -0.2859 -0.9019 -0.6747
  774MOL0     C 2092  11.199   0.982   4.587 -0.1175  0.1112 -0.2101
  774MOL0     C 2093  11.277   0.931   4.488 -0.1247 -0.1939 -0.5379
  774MOL0     O 2094  11.407   0.994   4.468  0.7502 -0.1556 -0.4212
  774MOL0     C 2095  11.504   0.947   4.372  1.5188 -0.1325  0.2687
  774MOL0     C 2096  11.646   0.963   4.419  1.3972  0.8151  0.3070
  774MOL0     C 2097  11.684   1.104   4.418  0.3060 -0.8786  0.4055
  774MOL0     C 2098  11.837   1.111   4.451  0.1656  0.1737  0.8152
  774MOL0     C 2099  11.920   1.108   4.330  0.0726 -0.5164 -0.3757
  774MOL0     C 2100  11.983   1.102   4.231 -0.2693  0.1932  0.4935
  774MOL0     C 2101  11.225   0.840   4.398  0.4423 -0.4639  0.4772
  774MOL0     C 2102  11.098   0.785   4.405  0.4858  0.4676 -0.6229
  774MOL0     H 2103  10.789   0.437   4.374 -0.1766 -0.6079 -0.5198
  774MOL0     H 2104  10.589   0.290   4.438 -2.3152  1.2526 -1.9648
  774MOL0     H 2105  10.427   0.441   4.785 -1.2655 -0.3949  1.4162
  774MOL0     H 2106  10.504   0.284   4.766 -0.5627 -2.7940 -1.5971
  774MOL0     H 2107  10.284   0.278   4.914  0.8833 -1.8513 -0.1805
  774MOL0     H 2108  10.298   0.165   4.787  1.3094  0.2239 -1.8593
  774MOL0     H 2109  10.169   0.355   4.642  1.9129 -0.3967 -0.8257
  774MOL0     H 2110  10.127   0.424   4.793 -0.7854  0.1652 -2.2427
  774MOL0     H 2111  10.054   0.144   4.719 -0.0049 -0.6672  1.2891
  774MOL0     H 2112  10.004   0.233   4.869  0.6911  0.0125 -0.1592
  774MOL0     H 2113   9.878   0.394   4.775  0.2183 -0.5359 -0.3778
  774MOL0     H 2114   9.813   0.245   4.705 -0.8936  0.7967  0.1887
  774MOL0     H 2115   9.961   0.299   4.497 -0.7375  0.9628 -0.1597
  774MOL0     H 2116   9.986   0.460   4.554  0.0871  0.7322 -0.5968
  774MOL0     H 2117   9.708   0.331   4.525 -2.0683  0.7443 -4.6257
  774MOL0     H 2118   9.744   0.490   4.576 -0.3087 -0.9655  1.0102
  774MOL0     H 2119   9.812   0.395   4.292 -3.3739 -3.1560  0.2599
  774MOL0     H 2120   9.829   0.560   4.363 -0.4037  0.7838  2.0467
  774MOL0     H 2121   9.635   0.512   4.102 -0.4753 -0.8643 -0.4241
  774MOL0     H 2122   9.355   0.404   4.053  1.0589 -0.0441 -1.4292
  774MOL0     H 2123   9.444   0.532   3.988  1.7071  0.3066  1.5776
  774MOL0     H 2124   9.191   0.588   4.159 -1.3009  4.4239  0.6923
  774MOL0     H 2125   9.181   0.555   3.988 -1.8888  0.7961  0.1750
  774MOL0     H 2126   9.406   0.742   4.034  0.1713 -1.2897  0.6063
  774MOL0     H 2127   9.265   0.772   3.947  0.6024  0.5504 -0.0312
  774MOL0     H 2128   9.257   0.936   4.110  0.3518 -1.7452 -1.9930
  774MOL0     H 2129   9.302   0.835   4.246  0.4412  2.3594  0.3906
  774MOL0     H 2130   8.905   0.650   4.116  0.1443 -1.4151 -1.6878
  774MOL0     H 2131   8.718   0.694   3.961 -0.8666  0.3799  1.7940
  774MOL0     H 2132   8.595   1.190   3.666  0.0674  2.2877 -1.7798
  774MOL0     H 2133   8.439   1.267   3.498 -0.6893 -0.1128 -1.4113
  774MOL0     H 2134   8.315   1.312   3.323  1.5372 -1.4316  2.0449
  774MOL0     H 2135   8.190   1.208   3.383 -0.0015  1.6268 -0.0436
  774MOL0     H 2136   8.108   1.311   3.184  3.3156  3.0171  1.0288
  774MOL0     H 2137   8.131   1.138   3.155  1.0636 -0.0891 -2.2158
  774MOL0     H 2138   8.192   1.282   2.970 -3.6143  2.2972  3.5385
  774MOL0     H 2139   8.345   1.207   3.027 -1.5930  0.1229 -1.8938
  774MOL0     H 2140   8.261   1.499   3.083  3.0323  2.0795  1.7758
  774MOL0     H 2141   8.382   1.438   3.163 -0.8386  3.9582 -0.2135
  774MOL0     H 2142   8.452   1.561   2.923 -0.2991 -0.3989 -0.9360
  774MOL0     H 2143   8.396   1.413   2.858 -0.0776  2.2872 -0.8235
  774MOL0     H 2144   8.563   1.298   2.977 -1.7688  0.0196 -3.6206
  774MOL0     H 2145   8.619   1.438   3.067 -2.0473 -1.7714  1.2854
  774MOL0     H 2146   8.639   1.381   2.765  0.2865 -1.8537  0.7449
  774MOL0     H 2147   8.665   1.538   2.824 -1.0117 -1.8756 -1.3951
  774MOL0     H 2148   8.811   1.281   2.882 -0.6027  0.2266 -0.3094
  774MOL0     H 2149   8.853   1.417   2.980 -0.8837  0.1021  0.7899
  774MOL0     H 2150   8.483   0.875   3.297  0.5518 -1.4152  0.4122
  774MOL0     H 2151   8.650   0.818   3.477  0.1118 -0.7249  1.2278
  774MOL0     H 2152   8.932   1.025   3.803  4.3082 -0.1812 -1.0540
  774MOL0     H 2153   9.110   1.000   3.949 -0.3470 -0.2531  0.1620
  774MOL0     H 2154  10.434   0.616   4.657  1.0199 -0.2170 -0.0926
  774MOL0     H 2155  10.628   0.761   4.581 -2.7480  0.0190  0.9712
  774MOL0     H 2156  11.029   0.934   4.711 -0.6593  2.9487 -1.7115
  774MOL0     H 2157  11.236   1.066   4.646  0.6513  0.2595 -0.8949
  774MOL0     H 2158  11.480   0.992   4.275  1.5624 -1.1017 -0.2090
  774MOL0     H 2159  11.483   0.841   4.352 -1.3404  0.2782  0.6367
  774MOL0     H 2160  11.653   0.908   4.513 -1.8971 -2.2971 -1.0028
  774MOL0     H 2161  11.709   0.905   4.351  1.7115  1.1950  0.2753
  774MOL0     H 2162  11.633   1.164   4.494  2.3391  0.8309  0.5502
  774MOL0     H 2163  11.656   1.152   4.323  1.4551 -1.1341 -0.0803
  774MOL0     H 2164  11.840   1.209   4.497  1.1837  0.6696 -0.2437
  774MOL0     H 2165  11.878   1.035   4.518  1.3853 -0.3476 -0.4459
  774MOL0     H 2166  12.039   1.110   4.140  0.2413 -2.8107  0.4501
  774MOL0     H 2167  11.284   0.814   4.310 -0.4231 -1.6224  0.2076
  774MOL0     H 2168  11.057   0.712   4.336 -1.5763 -1.7238  2.6127
  775MOL0     O 2169   9.772   2.830   6.310  0.4717 -0.0254  0.1876
  775MOL0     C 2170   9.802   2.775   6.419  0.1956 -0.1494 -0.1900
  775MOL0     O 2171   9.808   2.640   6.441 -0.0241  0.1242  0.9147
  775MOL0     C 2172   9.827   2.557   6.326  1.1684 -0.7222 -0.1442
  775MOL0     C 2173   9.873   2.590   6.200 -0.6156  0.6195 -0.1708
  775MOL0     C 2174   9.893   2.494   6.105 -0.4335 -0.2908  0.1078
  775MOL0     C 2175   9.863   2.370   6.126  0.5315  0.1371 -0.5373
  775MOL0     O 2176   9.880   2.289   6.018  0.2461  0.3616  0.4591
  775MOL0     C 2177   9.888   2.144   6.041  0.7190  0.0793  0.4409
  775MOL0     C 2178   9.954   2.063   5.924  0.4191 -0.4495 -0.8969
  775MOL0     C 2179   9.968   1.912   5.951 -0.6097 -0.8020  0.0362
  775MOL0     C 2180  10.046   1.849   5.842  0.8329  0.1368 -0.2739
  775MOL0     C 2181  10.080   1.703   5.872 -0.6207  0.1052  0.2496
  775MOL0     C 2182  10.124   1.624   5.748  0.0445  1.2151  0.9423
  775MOL0     C 2183  10.173   1.485   5.788  0.0181 -0.3781  0.2314
  775MOL0     C 2184  10.328   1.487   5.813  0.1287 -0.2930 -0.1718
  775MOL0     N 2185  10.415   1.488   5.693  1.0135 -0.6597  0.1505
  775MOL0     C 2186  10.517   1.580   5.684 -0.0524  0.1083  0.5037
  775MOL0     C 2187  10.580   1.545   5.566 -0.6364  0.4325 -0.6164
  775MOL0     C 2188  10.717   1.586   5.520 -0.2835  0.7753  0.4430
  775MOL0     C 2189  10.696   1.730   5.458  0.3173 -0.2769 -0.1282
  775MOL0     C 2190  10.825   1.803   5.424  0.3965 -0.3595 -0.3098
  775MOL0     C 2191  10.810   1.929   5.330  0.6312  0.3341  0.1829
  775MOL0     O 2192  10.836   1.910   5.192 -0.3427  1.1912 -0.2463
  775MOL0     C 2193  10.963   1.907   5.147 -0.3380 -0.4751 -0.6489
  775MOL0     C 2194  11.079   1.951   5.220 -0.2099 -0.3653  0.0196
  775MOL0     C 2195  11.199   1.950   5.148 -0.2637  0.0911 -0.7768
  775MOL0     C 2196  11.208   1.888   5.017  0.3593 -0.0710 -0.5164
  775MOL0     C 2197  11.340   1.855   4.958  0.0040 -0.4213 -0.1089
  775MOL0     O 2198  11.450   1.905   5.025  0.6726  0.1321 -0.4754
  775MOL0     C 2199  11.565   1.880   4.963 -0.8403  0.0173 -0.3336
  775MOL0     C 2200  11.639   1.770   5.003 -0.2592 -0.3744 -0.3737
  775MOL0     C 2201  11.767   1.747   4.956 -0.2038  0.2148 -0.5044
  775MOL0     C 2202  11.824   1.828   4.862 -0.3500  0.5419 -0.0740
  775MOL0     O 2203  11.958   1.803   4.847  0.0624 -0.0530 -0.2709
  775MOL0     C 2204  12.045   1.906   4.798  0.0327 -0.6775 -0.2139
  775MOL0     C 2205  12.194   1.869   4.780 -0.3726 -0.2380  0.4861
  775MOL0     C 2206  12.254   1.792   4.901 -0.6690  0.4981 -0.1856
  775MOL0     C 2207  12.265   1.881   5.030 -0.1911  0.1599 -0.3383
  775MOL0     C 2208  12.361   1.824   5.130  1.0086 -0.1398 -0.4848
  775MOL0     C 2209  12.359   1.903   5.263 -0.0424  0.8694  0.3713
  775MOL0     C 2210  12.485   1.885   5.337  0.1298  0.6445 -0.1903
  775MOL0     C 2211  12.498   1.949   5.468 -0.8899 -0.5363  0.7552
  775MOL0    Cl 2212  12.363   1.895   5.580 -0.3185 -0.7000  0.2850
  775MOL0     C 2213  11.756   1.946   4.817 -0.3089  0.1474  0.2416
  775MOL0     C 2214  11.625   1.970   4.870  0.4593  0.5502  0.1972
  775MOL0     O 2215  11.345   1.798   4.849 -0.1150  0.7851 -0.1719
  775MOL0     C 2216  11.091   1.835   4.958  0.4349  0.0590 -1.3161
  775MOL0     C 2217  10.969   1.855   5.023  0.0982  0.1798 -0.2995
  775MOL0     N 2218  10.502   1.455   5.503 -0.1562 -0.1210  0.4551
  775MOL0     N 2219  10.396   1.425   5.574  0.0118 -0.4562 -0.0818
  775MOL0     C 2220   9.796   2.329   6.246 -0.3622  0.5649  0.8997
  775MOL0     C 2221   9.793   2.422   6.352 -0.1965 -0.2497 -0.6901
  775MOL0     C 2222   9.804   2.879   6.532 -0.7655  0.8124 -0.0099
  775MOL0     C 2223   9.802   3.015   6.498 -1.2024 -1.2031  0.7526
  775MOL0     C 2224   9.805   3.108   6.602  0.8221 -0.6345 -0.0205
  775MOL0     C 2225   9.816   3.063   6.735 -0.2683 -0.5250 -0.5831
  775MOL0     O 2226   9.840   3.160   6.835  0.3443  0.8848  0.2171
  775MOL0     C 2227   9.822   3.121   6.969  0.0321  0.1082 -0.7371
  775MOL0     C 2228   9.842   3.243   7.056 -0.0837 -0.1667 -0.5442
  775MOL0     C 2229   9.869   3.209   7.201 -0.4729 -0.4944 -0.1327
  775MOL0     C 2230  10.016   3.157   7.240 -0.2152  0.2578 -0.0561
  775MOL0     C 2231  10.068   3.031   7.182  1.1456  0.9708  0.6346
  775MOL0     C 2232  10.112   2.926   7.133 -1.2028 -0.0567 -0.0150
  775MOL0     C 2233   9.816   2.923   6.767 -0.1186 -0.0990 -0.6429
  775MOL0     C 2234   9.810   2.835   6.666  0.4563 -0.2101 -0.0780
  775MOL0     H 2235   9.909   2.686   6.167  1.7510 -0.9212 -2.4593
  775MOL0     H 2236   9.944   2.526   6.015  1.4732  1.7715  1.7832
  775MOL0     H 2237   9.784   2.115   6.055  0.2869  0.5847 -1.4585
  775MOL0     H 2238   9.939   2.117   6.134 -0.1819  0.5145  1.0747
  775MOL0     H 2239  10.055   2.103   5.911  0.5244 -0.2573  0.3305
  775MOL0     H 2240   9.878   2.073   5.846 -0.8195 -0.5407  0.2611
  775MOL0     H 2241   9.867   1.872   5.962 -1.4496  1.0014 -0.6804
  775MOL0     H 2242  10.018   1.892   6.046 -1.4085 -1.7214  0.2779
  775MOL0     H 2243   9.994   1.861   5.747  2.4994 -0.1083 -1.2594
  775MOL0     H 2244  10.143   1.900   5.841  1.0970 -0.0824  3.2207
  775MOL0     H 2245   9.994   1.655   5.919 -0.7564  2.5478  2.7201
  775MOL0     H 2246  10.158   1.704   5.948  1.1249  0.0450 -1.4612
  775MOL0     H 2247  10.202   1.680   5.697 -0.0864  0.1531 -0.5000
  775MOL0     H 2248  10.043   1.608   5.677  1.3827  3.2731 -1.1857
  775MOL0     H 2249  10.122   1.455   5.879  2.8378 -0.0418  2.0510
  775MOL0     H 2250  10.155   1.411   5.709 -1.4718  0.1547  0.0476
  775MOL0     H 2251  10.353   1.395   5.867 -0.8287 -1.5465 -1.7640
  775MOL0     H 2252  10.353   1.564   5.887 -2.8924 -0.9091  1.7138
  775MOL0     H 2253  10.550   1.654   5.756 -2.3086  0.3063  1.3916
  775MOL0     H 2254  10.750   1.510   5.448 -1.7159 -2.0201  2.5281
  775MOL0     H 2255  10.803   1.586   5.587  0.5711  0.0702 -0.6195
  775MOL0     H 2256  10.647   1.788   5.537  1.3974 -0.4485  0.6893
  775MOL0     H 2257  10.635   1.728   5.367  0.8438  2.0209 -0.5763
  775MOL0     H 2258  10.872   1.833   5.518 -0.2485 -0.6609  0.1165
  775MOL0     H 2259  10.902   1.737   5.381 -1.6358 -1.6438 -2.1618
  775MOL0     H 2260  10.853   2.023   5.367 -0.6868  2.0560 -2.3843
  775MOL0     H 2261  10.706   1.962   5.336  1.9043  4.7707  2.1534
  775MOL0     H 2262  11.077   1.990   5.321  2.6812 -1.6150  0.6395
  775MOL0     H 2263  11.286   2.002   5.187 -0.3966 -0.7503  0.6939
  775MOL0     H 2264  11.604   1.705   5.082  1.5850  0.9896  1.7033
  775MOL0     H 2265  11.828   1.672   5.006 -1.0257  0.4865  0.9608
  775MOL0     H 2266  12.048   1.987   4.872 -0.8491 -1.2980  0.5203
  775MOL0     H 2267  12.015   1.958   4.706  0.0177  0.1577  0.2485
  775MOL0     H 2268  12.256   1.956   4.756 -1.1410  1.0472  2.9052
  775MOL0     H 2269  12.202   1.796   4.699 -0.3411  0.6685 -0.3441
  775MOL0     H 2270  12.358   1.771   4.875 -0.3033  2.6178 -0.6548
  775MOL0     H 2271  12.186   1.708   4.917 -1.6945  0.7710 -2.6136
  775MOL0     H 2272  12.312   1.977   5.008  1.7926 -0.5426  0.5968
  775MOL0     H 2273  12.167   1.902   5.073 -1.1833 -0.2269 -2.2864
  775MOL0     H 2274  12.460   1.832   5.086  0.8325  4.6927 -0.5000
  775MOL0     H 2275  12.337   1.719   5.150  1.3757  0.2011  2.0469
  775MOL0     H 2276  12.271   1.878   5.323 -0.7238 -0.4266 -1.1125
  775MOL0     H 2277  12.365   2.007   5.229 -3.0862  0.1871 -2.8125
  775MOL0     H 2278  12.505   1.782   5.367 -0.2009 -0.2458 -2.7942
  775MOL0     H 2279  12.573   1.919   5.281  0.7303 -2.0146 -1.0251
  775MOL0     H 2280  12.485   2.058   5.459  0.7644 -0.4576 -1.8164
  775MOL0     H 2281  12.593   1.935   5.520 -0.2040 -2.1347 -0.8304
  775MOL0     H 2282  11.813   2.013   4.753 -1.3163  0.0573 -0.7895
  775MOL0     H 2283  11.573   2.061   4.839 -1.2789 -0.1090  1.0766
  775MOL0     H 2284  11.079   1.780   4.865 -3.4568  0.8220 -1.4498
  775MOL0     H 2285  10.884   1.814   4.971 -0.3773 -0.5679  1.0181
  775MOL0     H 2286   9.769   2.225   6.259 -0.4322 -0.2162 -3.8272
  775MOL0     H 2287   9.758   2.393   6.450  4.1001 -1.7873  0.6384
  775MOL0     H 2288   9.808   3.044   6.393 -0.5342  0.4663  1.2014
  775MOL0     H 2289   9.821   3.215   6.604 -1.3397 -0.2765  0.8561
  775MOL0     H 2290   9.884   3.036   7.000 -0.9252 -0.5673 -0.6467
  775MOL0     H 2291   9.718   3.094   6.985  0.1831  0.2737  0.6557
  775MOL0     H 2292   9.929   3.304   7.033  0.7334 -0.2384  2.0791
  775MOL0     H 2293   9.758   3.312   7.048  1.3626  2.1447  2.4180
  775MOL0     H 2294   9.814   3.120   7.232  0.4943 -0.8001  0.7701
  775MOL0     H 2295   9.848   3.297   7.263  1.4454 -0.0783  0.0144
  775MOL0     H 2296  10.088   3.234   7.211 -0.2374  0.9765  1.6914
  775MOL0     H 2297  10.024   3.149   7.349  1.6088  0.1616 -0.1698
  775MOL0     H 2298  10.144   2.830   7.098 -2.5582 -1.5456  2.5051
  775MOL0     H 2299   9.834   2.887   6.868  0.3752 -0.5737 -0.8959
  775MOL0     H 2300   9.799   2.728   6.682 -1.7928 -0.1873 -1.1469
  776MOL0     O 2301  10.854   3.893   1.325  0.1370  0.2057 -0.7845
  776MOL0     C 2302  10.750   3.823   1.314 -0.4029 -0.0110  1.2886
  776MOL0     O 2303  10.746   3.699   1.272 -0.5825  0.4549  0.3401
  776MOL0     C 2304  10.852   3.628   1.234 -0.4576  0.3310  0.3734
  776MOL0     C 2305  10.860   3.501   1.288 -0.4326  0.1929 -0.4968
  776MOL0     C 2306  10.962   3.406   1.251 -0.0162  0.5770  0.0461
  776MOL0     C 2307  11.056   3.456   1.160 -0.0831 -0.0838 -0.1390
  776MOL0     O 2308  11.164   3.384   1.122 -0.1792  0.5599 -0.0726
  776MOL0     C 2309  11.184   3.252   1.163 -0.7246 -0.3476  0.3156
  776MOL0     C 2310  11.283   3.167   1.092 -0.3936  0.0730 -0.5316
  776MOL0     C 2311  11.429   3.212   1.117 -0.5704  0.7190 -0.3378
  776MOL0     C 2312  11.534   3.170   1.003  0.2122 -0.7063 -0.5607
  776MOL0     C 2313  11.669   3.251   1.016  0.0646  0.0661 -0.5903
  776MOL0     C 2314  11.775   3.177   0.940 -1.1426  0.2259  0.0192
  776MOL0     C 2315  11.903   3.256   0.917  0.2775  0.0343  1.0977
  776MOL0     C 2316  11.990   3.283   1.045  0.2915  0.4462 -0.4404
  776MOL0     N 2317  12.119   3.352   1.023  0.1412  0.0981 -0.1930
  776MOL0     C 2318  12.209   3.326   0.923 -0.5437  0.0606 -0.8326
  776MOL0     C 2319  12.323   3.399   0.956 -0.4724  0.4809 -0.0819
  776MOL0     C 2320  12.458   3.425   0.886 -0.2861  0.4775  0.3605
  776MOL0     C 2321  12.447   3.512   0.765  0.5592  0.0084 -0.7314
  776MOL0     C 2322  12.579   3.553   0.708 -0.3135 -0.3219 -0.6993
  776MOL0     C 2323  12.655   3.655   0.794  0.1941  0.5534  0.6044
  776MOL0     O 2324  12.630   3.793   0.744  0.8045 -0.6834  0.2912
  776MOL0     C 2325  12.515   3.831   0.688 -0.3603 -0.1207  0.8155
  776MOL0     C 2326  12.413   3.887   0.763 -0.2633  0.0125  0.2904
  776MOL0     C 2327  12.304   3.930   0.704  1.1974 -1.1878  1.0540
  776MOL0     C 2328  12.279   3.921   0.565  0.4488 -0.2252  1.3211
  776MOL0     C 2329  12.151   3.963   0.510  0.5543 -0.3193 -0.3699
  776MOL0     O 2330  12.046   4.006   0.590  0.3570  0.3529 -0.3313
  776MOL0     C 2331  11.923   4.050   0.543  0.4087  0.2047  0.6376
  776MOL0     C 2332  11.796   3.997   0.588 -0.7238 -0.0138  0.3322
  776MOL0     C 2333  11.679   4.016   0.518  0.3639  0.0480  0.0761
  776MOL0     C 2334  11.671   4.106   0.417 -0.4607 -0.2641  0.7068
  776MOL0     O 2335  11.541   4.136   0.373 -0.7040 -0.3233  0.2942
  776MOL0     C 2336  11.525   4.227   0.261 -0.2762  0.2761  0.0193
  776MOL0     C 2337  11.505   4.162   0.128 -0.4406 -0.5049 -0.0244
  776MOL0     C 2338  11.402   4.055   0.098 -0.4523 -0.2695  0.1028
  776MOL0     C 2339  11.270   4.088   0.152  0.0124 -0.0486  0.2113
  776MOL0     C 2340  11.207   4.202   0.077 -0.1955 -0.1994 -0.1597
  776MOL0     C 2341  11.075   4.249   0.147 -0.3534 -0.9626  0.5468
  776MOL0     C 2342  10.961   4.148   0.138  0.4310  0.3104  0.5011
  776MOL0     C 2343  10.821   4.206   0.126 -0.2379  0.1615 -0.3729
  776MOL0    Cl 2344  10.785   4.349   0.233 -0.2593 -0.0548 -0.0529
  776MOL0     C 2345  11.794   4.167   0.374 -0.1471  0.5761  0.5555
  776MOL0     C 2346  11.921   4.141   0.432  0.7122 -0.4166 -0.3976
  776MOL0     O 2347  12.139   3.949   0.391 -0.0181 -0.1604 -0.4845
  776MOL0     C 2348  12.383   3.870   0.483 -0.4788  0.2254 -0.4395
  776MOL0     C 2349  12.502   3.827   0.539 -0.1680  0.8348 -1.2864
  776MOL0     N 2350  12.292   3.460   1.075  0.1663  0.5738 -0.7976
  776MOL0     N 2351  12.174   3.439   1.111  0.0867 -0.2498  0.7412
  776MOL0     C 2352  11.059   3.590   1.112 -0.1015 -0.1144  0.1569
  776MOL0     C 2353  10.952   3.675   1.142 -0.6999  0.1759 -0.2375
  776MOL0     C 2354  10.618   3.896   1.335 -0.7319 -0.0997 -0.0092
  776MOL0     C 2355  10.504   3.819   1.367  1.4191 -0.4980  0.3409
  776MOL0     C 2356  10.380   3.879   1.382 -0.1576  0.5012 -0.1373
  776MOL0     C 2357  10.368   4.016   1.378 -0.9627 -0.3639 -0.8917
  776MOL0     O 2358  10.244   4.079   1.401 -0.2956  0.2884 -0.2008
  776MOL0     C 2359  10.130   4.004   1.448  0.1466 -0.3840  0.3318
  776MOL0     C 2360  10.010   4.097   1.473  0.3241  0.9363 -0.3740
  776MOL0     C 2361   9.892   4.012   1.528  0.1545  0.0889  0.3571
  776MOL0     C 2362   9.768   4.088   1.541  0.5939 -0.4769 -0.4274
  776MOL0     C 2363   9.699   4.098   1.410  0.0603 -0.0955 -0.5321
  776MOL0     C 2364   9.658   4.106   1.292 -0.1170  0.8763  0.8890
  776MOL0     C 2365  10.485   4.090   1.358 -0.8542  0.1145  0.0551
  776MOL0     C 2366  10.611   4.032   1.328 -0.7483 -0.2709 -0.0041
  776MOL0     H 2367  10.770   3.477   1.344 -0.9454  4.3950  0.8244
  776MOL0     H 2368  10.963   3.300   1.273  0.8773 -0.1599 -3.0753
  776MOL0     H 2369  11.093   3.195   1.146 -1.2805  1.0158 -1.5934
  776MOL0     H 2370  11.199   3.250   1.272 -1.2430 -0.3043  0.3913
  776MOL0     H 2371  11.261   3.164   0.985  1.3388 -0.7711 -0.8873
  776MOL0     H 2372  11.271   3.063   1.124  0.0050 -0.0292 -0.7119
  776MOL0     H 2373  11.463   3.169   1.211 -0.1331  1.8278  0.0271
  776MOL0     H 2374  11.428   3.320   1.136 -0.0171  0.5688  0.5679
  776MOL0     H 2375  11.545   3.062   0.993 -0.1972 -0.7169 -0.9995
  776MOL0     H 2376  11.497   3.205   0.906 -2.5708  0.8913  0.9591
  776MOL0     H 2377  11.699   3.271   1.120 -0.7033  0.8578 -0.5077
  776MOL0     H 2378  11.648   3.347   0.968  0.0244 -0.3970 -1.5164
  776MOL0     H 2379  11.728   3.150   0.845 -2.9182  0.9153  0.6732
  776MOL0     H 2380  11.802   3.083   0.989 -2.4137 -0.6172 -0.8325
  776MOL0     H 2381  11.963   3.189   0.855  0.2800 -1.6117  2.7662
  776MOL0     H 2382  11.882   3.353   0.873 -0.9730 -0.1188  1.3313
  776MOL0     H 2383  12.012   3.194   1.104  2.9145  1.0984 -0.3207
  776MOL0     H 2384  11.932   3.354   1.106  2.5628  0.1455  2.2965
  776MOL0     H 2385  12.206   3.249   0.846 -0.9093  0.6098 -1.3717
  776MOL0     H 2386  12.506   3.332   0.857  0.6569  1.2440 -0.6475
  776MOL0     H 2387  12.531   3.470   0.954 -0.8981  1.9272  0.0976
  776MOL0     H 2388  12.384   3.600   0.782 -2.4056 -1.7042 -2.0107
  776MOL0     H 2389  12.405   3.437   0.697  0.5669 -0.7397  0.0800
  776MOL0     H 2390  12.654   3.472   0.712  1.3953  1.2024 -0.4795
  776MOL0     H 2391  12.564   3.583   0.605 -0.7811  1.1971 -0.2069
  776MOL0     H 2392  12.762   3.631   0.797  0.3564  1.3551  2.0517
  776MOL0     H 2393  12.626   3.650   0.899  1.9121  0.1436  1.0903
  776MOL0     H 2394  12.411   3.896   0.871 -0.3494  0.0345  0.2870
  776MOL0     H 2395  12.222   3.972   0.762 -0.7680  3.4199 -4.1498
  776MOL0     H 2396  11.789   3.917   0.660 -0.2914  0.4260  0.8764
  776MOL0     H 2397  11.591   3.959   0.548 -1.0909  1.1259 -1.9409
  776MOL0     H 2398  11.608   4.297   0.246  0.1935 -0.0041  1.2412
  776MOL0     H 2399  11.439   4.288   0.287 -0.7770  0.2356 -1.4438
  776MOL0     H 2400  11.602   4.117   0.105  1.7603  3.8737 -0.3444
  776MOL0     H 2401  11.479   4.235   0.051 -0.2165  0.4701  0.8108
  776MOL0     H 2402  11.446   3.960   0.130 -0.9174 -0.8535 -0.9533
  776MOL0     H 2403  11.394   4.036  -0.009  0.1825  3.6409 -0.7656
  776MOL0     H 2404  11.209   3.999   0.133  3.1361 -2.0519 -1.3574
  776MOL0     H 2405  11.276   4.113   0.258  1.0892 -0.8155  0.3491
  776MOL0     H 2406  11.202   4.167  -0.027 -1.0379  1.6708 -0.7945
  776MOL0     H 2407  11.274   4.288   0.087 -1.1940  0.4162  1.4531
  776MOL0     H 2408  11.043   4.331   0.082 -0.0537 -1.7796 -0.6661
  776MOL0     H 2409  11.092   4.272   0.253  3.2902 -0.5482 -0.0280
  776MOL0     H 2410  10.990   4.093   0.048 -0.3856 -2.4855  1.8063
  776MOL0     H 2411  10.974   4.083   0.225 -0.4880  0.3172  0.6503
  776MOL0     H 2412  10.751   4.124   0.140 -1.3085  1.1874  0.5303
  776MOL0     H 2413  10.810   4.244   0.024 -0.1240 -0.8740 -0.7797
  776MOL0     H 2414  11.791   4.230   0.285  0.8420 -0.1597 -0.0102
  776MOL0     H 2415  12.017   4.170   0.392  0.5715  0.1848 -0.3112
  776MOL0     H 2416  12.366   3.864   0.376 -0.6724 -2.0579 -0.3283
  776MOL0     H 2417  12.591   3.791   0.489  1.3883 -0.3406  2.0509
  776MOL0     H 2418  11.142   3.629   1.055 -2.4763  1.5861 -2.4170
  776MOL0     H 2419  10.944   3.777   1.108  1.6435  1.1126  1.6989
  776MOL0     H 2420  10.513   3.711   1.372 -1.3645 -0.7507  3.3946
  776MOL0     H 2421  10.283   3.832   1.389 -0.8606  1.9561  0.1719
  776MOL0     H 2422  10.155   3.949   1.539  0.5250 -1.2130 -0.2692
  776MOL0     H 2423  10.099   3.929   1.374 -2.2451  0.8966 -0.0847
  776MOL0     H 2424  10.039   4.178   1.540  1.4103 -0.2557  0.6684
  776MOL0     H 2425   9.984   4.150   1.381 -0.4893  1.1546 -0.0237
  776MOL0     H 2426   9.921   3.966   1.623  0.6281 -0.1269  0.1129
  776MOL0     H 2427   9.890   3.925   1.461  2.1107 -0.3919  0.8625
  776MOL0     H 2428   9.695   4.038   1.605 -0.7297  0.9436 -0.7688
  776MOL0     H 2429   9.782   4.187   1.584 -0.1548 -1.7957  3.1876
  776MOL0     H 2430   9.624   4.109   1.190  2.4429 -1.3444 -0.1485
  776MOL0     H 2431  10.459   4.196   1.364 -3.8316 -0.5301 -0.2161
  776MOL0     H 2432  10.704   4.087   1.317 -1.3639  0.9955  0.8778
  777MOL0     O 2433   6.044   4.035   0.923  0.0600  0.6030 -0.0182
  777MOL0     C 2434   6.050   4.132   0.847  0.2371 -0.0942 -0.1384
  777MOL0     O 2435   5.947   4.181   0.770 -0.4586  0.6817  0.1385
  777MOL0     C 2436   5.819   4.142   0.798 -0.2167  0.6843  1.0066
  777MOL0     C 2437   5.765   4.145   0.925 -0.0250  0.3733  0.4291
  777MOL0     C 2438   5.631   4.105   0.944  0.9373 -0.7877 -0.1615
  777MOL0     C 2439   5.542   4.073   0.841 -0.6483 -0.3065  0.3609
  777MOL0     O 2440   5.419   4.024   0.871 -0.3812 -0.1448 -0.7197
  777MOL0     C 2441   5.353   3.952   0.775  0.2984 -0.1201 -0.4173
  777MOL0     C 2442   5.223   3.903   0.841  0.0725 -0.5812  0.3692
  777MOL0     C 2443   5.133   3.807   0.760 -0.5271 -0.3067 -0.4484
  777MOL0     C 2444   4.988   3.805   0.804 -0.3044 -0.7910 -0.8845
  777MOL0     C 2445   4.977   3.714   0.935 -0.4714 -0.0842  0.1385
  777MOL0     C 2446   4.842   3.749   1.004 -1.1204 -0.4420 -0.1874
  777MOL0     C 2447   4.848   3.690   1.151 -0.5338 -0.3084 -0.1687
  777MOL0     C 2448   4.891   3.539   1.149  0.0761  0.3070  0.6338
  777MOL0     N 2449   4.784   3.472   1.079 -0.1974 -0.8892  0.3285
  777MOL0     C 2450   4.782   3.439   0.946  1.0339  0.4449  0.4269
  777MOL0     C 2451   4.660   3.390   0.928 -0.7003 -0.0172 -0.5277
  777MOL0     C 2452   4.615   3.339   0.792  0.2174  0.1394 -0.1163
  777MOL0     C 2453   4.562   3.199   0.819  0.3962  0.1166  0.1658
  777MOL0     C 2454   4.403   3.202   0.839  0.4525 -1.2214  1.0033
  777MOL0     C 2455   4.323   3.238   0.715  0.0579 -0.5045  0.2194
  777MOL0     O 2456   4.190   3.206   0.741  0.9514 -0.2233 -0.7795
  777MOL0     C 2457   4.099   3.198   0.639  0.1932 -0.3000 -0.0772
  777MOL0     C 2458   3.969   3.172   0.678  0.1792 -0.3425  1.2255
  777MOL0     C 2459   3.869   3.175   0.583  0.3634  0.2106  0.5449
  777MOL0     C 2460   3.895   3.191   0.443  0.4763 -0.6094  0.3330
  777MOL0     C 2461   3.794   3.178   0.338  0.4375 -0.7859  0.0502
  777MOL0     O 2462   3.673   3.128   0.372 -0.4311  0.4882  0.0583
  777MOL0     C 2463   3.559   3.136   0.291 -0.4673  0.2283 -0.2820
  777MOL0     C 2464   3.506   3.257   0.240 -0.4463  0.2809 -1.1140
  777MOL0     C 2465   3.387   3.260   0.164  0.4675 -0.0930 -1.0923
  777MOL0     C 2466   3.324   3.137   0.137  0.6058 -0.3367 -0.5316
  777MOL0     O 2467   3.195   3.128   0.083 -0.7724  0.7659 -0.1638
  777MOL0     C 2468   3.105   3.222   0.128  0.4217 -0.2031  0.4514
  777MOL0     C 2469   2.965   3.165   0.131  0.0619  0.8953 -0.2605
  777MOL0     C 2470   2.866   3.256   0.200  0.4258  0.0921  1.3537
  777MOL0     C 2471   2.719   3.225   0.172 -0.0986 -0.1679  0.1316
  777MOL0     C 2472   2.641   3.342   0.235 -0.2409  0.1280  0.6637
  777MOL0     C 2473   2.493   3.353   0.185  0.5399  0.1778 -0.3167
  777MOL0     C 2474   2.417   3.477   0.248 -0.1505 -0.0185 -0.6271
  777MOL0     C 2475   2.270   3.492   0.194  0.5482 -0.2473  0.8247
  777MOL0    Cl 2476   2.173   3.342   0.187  0.3714  0.2144 -0.0788
  777MOL0     C 2477   3.384   3.016   0.178 -0.6534  0.0575  0.6521
  777MOL0     C 2478   3.502   3.011   0.255 -1.0846 -0.6098  0.5014
  777MOL0     O 2479   3.809   3.223   0.226 -0.5355 -0.1453 -0.1887
  777MOL0     C 2480   4.028   3.216   0.407  0.1020  0.2190 -0.0059
  777MOL0     C 2481   4.130   3.225   0.503 -0.8438  0.6719  0.4160
  777MOL0     N 2482   4.598   3.394   1.050  0.1913  0.4390 -0.0446
  777MOL0     N 2483   4.662   3.446   1.142 -0.6442  0.0049  0.0899
  777MOL0     C 2484   5.600   4.076   0.715  0.3761 -0.1271  1.2976
  777MOL0     C 2485   5.739   4.104   0.693  0.5292  0.4306 -0.1189
  777MOL0     C 2486   6.180   4.201   0.834  0.2649 -0.3453 -0.5846
  777MOL0     C 2487   6.203   4.313   0.740  0.5794 -0.4922 -0.4179
  777MOL0     C 2488   6.331   4.366   0.744  0.4251 -0.9146  0.3477
  777MOL0     C 2489   6.438   4.329   0.829  0.4904 -0.3717 -0.1568
  777MOL0     O 2490   6.565   4.389   0.813  0.0734  0.6521  0.1833
  777MOL0     C 2491   6.567   4.522   0.858  0.2069  0.0740  0.6298
  777MOL0     C 2492   6.558   4.537   1.008  0.0897  0.5536  0.2351
  777MOL0     C 2493   6.436   4.594   1.072  0.2088  0.8765  0.4059
  777MOL0     C 2494   6.452   4.609   1.225 -0.3732  0.5959  0.4816
  777MOL0     C 2495   6.489   4.751   1.262 -0.0012  1.0857 -0.2490
  777MOL0     C 2496   6.504   4.870   1.278  0.5054  0.4996  0.0731
  777MOL0     C 2497   6.411   4.235   0.922  0.2154  0.3663  0.2491
  777MOL0     C 2498   6.285   4.171   0.922 -0.0682  0.3550 -0.4981
  777MOL0     H 2499   5.826   4.164   1.012  0.2825 -1.3682  0.6312
  777MOL0     H 2500   5.603   4.100   1.049  0.6547 -2.0078 -0.2810
  777MOL0     H 2501   5.410   3.863   0.749  1.1532 -0.0782  1.1552
  777MOL0     H 2502   5.337   4.015   0.687  3.8698 -2.3071 -2.9236
  777MOL0     H 2503   5.156   3.987   0.861  0.9266 -0.4059  2.8936
  777MOL0     H 2504   5.241   3.848   0.934  0.7475 -0.0764  0.5474
  777MOL0     H 2505   5.161   3.701   0.759 -3.0316 -1.0526 -0.5806
  777MOL0     H 2506   5.150   3.837   0.656  2.1275 -0.2347 -0.0561
  777MOL0     H 2507   4.958   3.907   0.830  3.4630 -0.1116  1.5532
  777MOL0     H 2508   4.926   3.759   0.726  0.1137 -0.0458 -1.6876
  777MOL0     H 2509   5.060   3.743   1.000 -2.1034  3.0566  1.0179
  777MOL0     H 2510   4.980   3.612   0.896 -0.9637 -0.4507  1.0295
  777MOL0     H 2511   4.759   3.706   0.947 -2.4140  1.2766  0.3124
  777MOL0     H 2512   4.828   3.858   1.006 -2.6979 -0.6235  0.6013
  777MOL0     H 2513   4.917   3.745   1.215  0.3195 -0.4298 -0.9592
  777MOL0     H 2514   4.750   3.704   1.198  0.5858  0.7779  1.9870
  777MOL0     H 2515   4.912   3.505   1.250  1.0967  1.9137  1.0080
  777MOL0     H 2516   4.986   3.525   1.097  0.1349 -1.6999  1.2189
  777MOL0     H 2517   4.854   3.448   0.865 -0.4530 -0.0267 -0.9800
  777MOL0     H 2518   4.704   3.343   0.729  0.9467 -1.3010  0.7498
  777MOL0     H 2519   4.536   3.402   0.752  0.3649  0.3156 -0.1317
  777MOL0     H 2520   4.621   3.163   0.904 -1.5493  0.4036  1.7069
  777MOL0     H 2521   4.586   3.130   0.738 -0.0155 -0.0675  0.2006
  777MOL0     H 2522   4.368   3.113   0.891  2.3009 -3.6843 -1.6405
  777MOL0     H 2523   4.397   3.278   0.918  1.0202 -0.5561  0.4307
  777MOL0     H 2524   4.369   3.184   0.631  0.8837 -0.9763  0.9619
  777MOL0     H 2525   4.326   3.346   0.696 -0.8024 -0.8330 -2.1125
  777MOL0     H 2526   3.941   3.159   0.782 -2.2800  3.3147  1.1875
  777MOL0     H 2527   3.772   3.146   0.624 -0.2992 -0.0851 -1.1790
  777MOL0     H 2528   3.564   3.346   0.261 -0.5611  0.2000 -0.4037
  777MOL0     H 2529   3.341   3.348   0.122 -0.3263 -0.4149 -0.9071
  777MOL0     H 2530   3.097   3.302   0.054  1.1572 -0.3676  0.1822
  777MOL0     H 2531   3.126   3.269   0.224 -0.2368 -3.2891  2.2491
  777MOL0     H 2532   2.969   3.077   0.196  0.8913  3.1699  3.0266
  777MOL0     H 2533   2.939   3.142   0.027  0.3780  0.2432 -0.1980
  777MOL0     H 2534   2.876   3.355   0.156 -2.7313 -0.2262 -0.3711
  777MOL0     H 2535   2.885   3.261   0.308 -4.0126  0.5840  2.3166
  777MOL0     H 2536   2.708   3.217   0.063  0.8540  0.4371 -0.0242
  777MOL0     H 2537   2.693   3.130   0.218  1.3670 -1.3088 -1.2534
  777MOL0     H 2538   2.691   3.437   0.213  0.8630 -0.9230 -1.7271
  777MOL0     H 2539   2.639   3.339   0.344 -0.3282  0.2995  0.6671
  777MOL0     H 2540   2.430   3.264   0.201 -2.0436  1.6998 -1.3770
  777MOL0     H 2541   2.494   3.367   0.076 -0.0928  0.2399 -0.3175
  777MOL0     H 2542   2.407   3.454   0.355 -1.6604  0.6850 -0.6018
  777MOL0     H 2543   2.479   3.565   0.234  2.6194 -1.5940  0.7965
  777MOL0     H 2544   2.266   3.529   0.091  3.8973 -2.0152 -0.0934
  777MOL0     H 2545   2.222   3.565   0.259 -0.6159  1.5742 -1.8898
  777MOL0     H 2546   3.339   2.926   0.139  0.2611  0.4575 -1.4756
  777MOL0     H 2547   3.551   2.922   0.293  1.2713  0.1148 -0.6614
  777MOL0     H 2548   4.046   3.222   0.300 -0.8264  2.3474 -0.1032
  777MOL0     H 2549   4.230   3.247   0.467 -1.3005 -0.9431 -2.0412
  777MOL0     H 2550   5.555   4.042   0.623 -2.4196 -1.1916  2.9638
  777MOL0     H 2551   5.771   4.088   0.591 -3.1300 -1.0131 -1.1885
  777MOL0     H 2552   6.118   4.346   0.680 -0.8898 -1.5424  1.0210
  777MOL0     H 2553   6.368   4.434   0.668  1.2160  0.1433  1.6463
  777MOL0     H 2554   6.491   4.574   0.798  2.6784  3.5583  0.2367
  777MOL0     H 2555   6.657   4.571   0.823  0.8933 -2.0145 -0.7356
  777MOL0     H 2556   6.561   4.434   1.044  1.1489 -0.4885 -2.5534
  777MOL0     H 2557   6.649   4.592   1.033  0.4236  1.2589 -2.3072
  777MOL0     H 2558   6.357   4.520   1.054  0.8665 -0.6340  3.1991
  777MOL0     H 2559   6.401   4.689   1.031  0.8574  2.3612  3.0771
  777MOL0     H 2560   6.364   4.572   1.278  0.0151 -3.1373 -1.1556
  777MOL0     H 2561   6.533   4.541   1.253 -2.7248 -2.3222  0.6668
  777MOL0     H 2562   6.525   4.971   1.309  0.8458  0.4810 -0.0970
  777MOL0     H 2563   6.490   4.219   0.995 -1.1481 -0.0242  1.7041
  777MOL0     H 2564   6.276   4.089   0.992  0.6976  0.5897 -0.1094
  778MOL0     O 2565   3.577   1.496   0.243 -0.7272  0.5636 -0.0290
  778MOL0     C 2566   3.681   1.524   0.183 -0.6555  0.5515 -0.2736
  778MOL0     O 2567   3.699   1.568   0.062  0.0544 -0.5494  0.4188
  778MOL0     C 2568   3.592   1.596  -0.013 -1.1162  0.4894  0.7677
  778MOL0     C 2569   3.479   1.672   0.027 -0.2576 -0.6304 -0.3432
  778MOL0     C 2570   3.376   1.699  -0.055 -0.1948 -0.4285 -0.2667
  778MOL0     C 2571   3.373   1.655  -0.185 -0.5251  0.6905 -0.1233
  778MOL0     O 2572   3.268   1.695  -0.261  1.3823 -0.3108  0.2227
  778MOL0     C 2573   3.268   1.664  -0.404  0.1583 -0.1477 -0.4882
  778MOL0     C 2574   3.149   1.708  -0.480 -0.3611  0.2674  0.1596
  778MOL0     C 2575   3.166   1.675  -0.631  0.2059 -0.0322  1.1994
  778MOL0     C 2576   3.165   1.534  -0.665 -0.6648  0.6483  0.5033
  778MOL0     C 2577   3.136   1.521  -0.813 -0.4764  0.5645  0.6812
  778MOL0     C 2578   3.128   1.374  -0.856  0.4886 -0.5680 -0.3382
  778MOL0     C 2579   3.102   1.354  -1.006 -0.4470  0.1514 -0.6080
  778MOL0     C 2580   3.062   1.210  -1.039  0.1425 -0.3859  0.6894
  778MOL0     N 2581   2.932   1.163  -0.996 -0.4726  0.5800 -0.0276
  778MOL0     C 2582   2.813   1.215  -1.033 -1.2639 -0.8328 -0.0631
  778MOL0     C 2583   2.717   1.154  -0.963 -0.2318 -0.0775 -0.5078
  778MOL0     C 2584   2.570   1.182  -0.975 -0.6092  0.1859 -0.2272
  778MOL0     C 2585   2.498   1.078  -1.063 -0.0759 -0.3641  0.1167
  778MOL0     C 2586   2.345   1.090  -1.093 -0.4975  0.2646  0.1608
  778MOL0     C 2587   2.262   1.161  -0.990 -0.1164  0.0167  0.0898
  778MOL0     O 2588   2.140   1.199  -1.056 -1.1748  0.0235  0.1287
  778MOL0     C 2589   2.048   1.094  -1.052  0.5380  0.0239 -0.7686
  778MOL0     C 2590   2.012   1.021  -1.168  0.1400 -0.3959  0.0585
  778MOL0     C 2591   1.930   0.911  -1.158  0.3257 -0.3073 -1.1588
  778MOL0     C 2592   1.861   0.892  -1.038 -0.5087  0.2638 -0.4995
  778MOL0     C 2593   1.758   0.790  -1.034 -0.1229  0.3622 -0.3498
  778MOL0     O 2594   1.743   0.710  -1.139 -1.0111 -0.2025 -0.9559
  778MOL0     C 2595   1.628   0.634  -1.138  0.4828  0.2810  0.3426
  778MOL0     C 2596   1.649   0.504  -1.173 -0.2099  0.2475 -0.2904
  778MOL0     C 2597   1.534   0.420  -1.188 -0.5104 -0.5237 -0.6144
  778MOL0     C 2598   1.403   0.465  -1.164  0.5086 -0.4967  1.2951
  778MOL0     O 2599   1.304   0.369  -1.182  0.4934 -0.4866 -0.4432
  778MOL0     C 2600   1.170   0.412  -1.215  0.5385  0.4506 -0.4720
  778MOL0     C 2601   1.094   0.425  -1.080 -0.1096  0.0456  0.4954
  778MOL0     C 2602   0.944   0.427  -1.102  0.1223  0.6765  0.1130
  778MOL0     C 2603   0.876   0.494  -0.987  0.3544 -0.2135 -0.0646
  778MOL0     C 2604   0.728   0.501  -1.010 -1.3344  0.7158 -0.2709
  778MOL0     C 2605   0.658   0.365  -1.008  0.0153 -0.1626 -0.6980
  778MOL0     C 2606   0.517   0.398  -0.970  0.5559 -0.3548  0.4526
  778MOL0     C 2607   0.435   0.273  -0.959  0.0103 -0.5174  0.4114
  778MOL0    Cl 2608   0.282   0.311  -0.896 -0.0164  0.1394 -0.6391
  778MOL0     C 2609   1.385   0.601  -1.140 -0.4097  0.1588 -0.2729
  778MOL0     C 2610   1.496   0.679  -1.120 -0.1941 -0.4673  0.2223
  778MOL0     O 2611   1.708   0.771  -0.924 -0.2415 -0.9095  0.6406
  778MOL0     C 2612   1.895   0.960  -0.921 -0.4929 -0.5810  0.2292
  778MOL0     C 2613   1.992   1.063  -0.934  0.8511 -0.4418  0.9570
  778MOL0     N 2614   2.780   1.060  -0.887  0.9353 -0.1142  0.2286
  778MOL0     N 2615   2.907   1.071  -0.903  0.4233 -0.6856 -0.7317
  778MOL0     C 2616   3.484   1.577  -0.234 -0.3904  0.2896 -0.5284
  778MOL0     C 2617   3.590   1.550  -0.144  0.9770 -0.0794  0.6317
  778MOL0     C 2618   3.811   1.513   0.266 -0.0166  0.1729  0.0350
  778MOL0     C 2619   3.798   1.500   0.406  0.1860  0.0033 -0.1244
  778MOL0     C 2620   3.907   1.509   0.492 -0.0940  0.2469 -0.8762
  778MOL0     C 2621   4.035   1.543   0.437 -0.1950 -0.0717 -0.1802
  778MOL0     O 2622   4.152   1.560   0.505  0.1394 -0.4736 -0.3680
  778MOL0     C 2623   4.148   1.533   0.643  1.1871 -0.3508 -0.0340
  778MOL0     C 2624   4.277   1.590   0.706  0.1681 -0.0342  0.2422
  778MOL0     C 2625   4.399   1.528   0.643 -0.7303  0.3949  0.1623
  778MOL0     C 2626   4.530   1.580   0.706  0.0985 -0.3741  0.3280
  778MOL0     C 2627   4.526   1.534   0.847  0.0821 -0.2708 -0.2253
  778MOL0     C 2628   4.532   1.499   0.959  0.1212  0.3604  0.9580
  778MOL0     C 2629   4.049   1.552   0.302 -0.5087  0.2143 -0.8356
  778MOL0     C 2630   3.941   1.532   0.220 -0.4773 -0.1773 -0.5063
  778MOL0     H 2631   3.489   1.725   0.121 -2.9416  1.5823 -1.1434
  778MOL0     H 2632   3.310   1.773  -0.012  0.6442  0.5251 -0.5736
  778MOL0     H 2633   3.266   1.555  -0.402 -1.2509 -0.2130 -2.4612
  778MOL0     H 2634   3.360   1.697  -0.455  0.0558  1.3385  0.2372
  778MOL0     H 2635   3.136   1.813  -0.454 -2.6205 -0.0160  0.3887
  778MOL0     H 2636   3.056   1.660  -0.447 -0.6794  2.1932  2.2885
  778MOL0     H 2637   3.252   1.725  -0.677  0.8565 -1.8474  0.3753
  778MOL0     H 2638   3.074   1.722  -0.668 -0.1671 -0.2818  1.7999
  778MOL0     H 2639   3.267   1.495  -0.655 -0.8877 -0.1549 -0.3242
  778MOL0     H 2640   3.091   1.473  -0.613  1.0776 -2.3625 -0.2819
  778MOL0     H 2641   3.220   1.565  -0.867  1.3837 -0.7010  2.4160
  778MOL0     H 2642   3.039   1.571  -0.826 -0.0468  1.4459  0.7808
  778MOL0     H 2643   3.052   1.320  -0.798  0.9515  0.3389  1.1667
  778MOL0     H 2644   3.227   1.342  -0.824  0.7436 -1.3283 -1.8313
  778MOL0     H 2645   3.027   1.418  -1.054 -0.0596  3.3657  2.6527
  778MOL0     H 2646   3.195   1.385  -1.055 -0.5791  1.5220 -0.0429
  778MOL0     H 2647   3.136   1.141  -0.996  2.2242 -0.4044 -2.5292
  778MOL0     H 2648   3.065   1.199  -1.148  2.0852 -1.0418  0.7571
  778MOL0     H 2649   2.787   1.295  -1.100 -0.1203  0.6411  1.1758
  778MOL0     H 2650   2.548   1.278  -1.024  1.5118 -0.0086 -1.6856
  778MOL0     H 2651   2.529   1.183  -0.874 -0.1286  1.4916 -0.0162
  778MOL0     H 2652   2.517   0.980  -1.019  2.0741  0.3216  0.8794
  778MOL0     H 2653   2.543   1.080  -1.163  1.4099  0.1144  0.7644
  778MOL0     H 2654   2.340   1.149  -1.185  1.4204 -0.7936 -0.6839
  778MOL0     H 2655   2.299   0.994  -1.117  0.1042  0.3936 -1.6709
  778MOL0     H 2656   2.321   1.241  -0.944 -1.6171 -1.0594  4.4086
  778MOL0     H 2657   2.236   1.097  -0.905 -0.4034  0.3756  0.2728
  778MOL0     H 2658   2.049   1.045  -1.267 -1.0425 -1.4070 -0.6554
  778MOL0     H 2659   1.905   0.841  -1.237  3.5374 -4.0533  0.8249
  778MOL0     H 2660   1.750   0.467  -1.188 -1.0023 -1.2367 -2.6184
  778MOL0     H 2661   1.544   0.320  -1.229 -0.7464 -0.3011 -1.2393
  778MOL0     H 2662   1.119   0.332  -1.270  3.2633 -3.0538  1.6541
  778MOL0     H 2663   1.165   0.502  -1.277 -2.0822  0.8025  0.1650
  778MOL0     H 2664   1.117   0.520  -1.031  2.4332  0.8846 -2.0073
  778MOL0     H 2665   1.132   0.349  -1.011 -0.4856 -2.1337 -1.5545
  778MOL0     H 2666   0.906   0.325  -1.118  3.3782 -0.6768  0.0909
  778MOL0     H 2667   0.917   0.491  -1.186 -0.6932  1.5379  1.0066
  778MOL0     H 2668   0.895   0.450  -0.889 -0.9558  1.4922  1.0042
  778MOL0     H 2669   0.924   0.592  -0.980 -2.3592  1.1617  0.5100
  778MOL0     H 2670   0.712   0.542  -1.110 -0.1993 -1.5622 -1.4714
  778MOL0     H 2671   0.686   0.565  -0.932  0.6837  0.3701  1.1861
  778MOL0     H 2672   0.711   0.310  -0.930  2.6251  1.7384 -0.9937
  778MOL0     H 2673   0.658   0.318  -1.106  1.0382 -0.3693 -0.6031
  778MOL0     H 2674   0.526   0.457  -0.878  0.0621 -0.0243  0.2957
  778MOL0     H 2675   0.462   0.462  -1.039 -0.5103 -0.7338  0.9305
  778MOL0     H 2676   0.474   0.189  -0.902  2.3448 -0.6316 -1.2216
  778MOL0     H 2677   0.415   0.222  -1.054  0.4552  1.9661 -1.1260
  778MOL0     H 2678   1.289   0.649  -1.124 -1.5907 -2.5335  1.6053
  778MOL0     H 2679   1.491   0.787  -1.116 -2.9092 -0.2333 -3.5874
  778MOL0     H 2680   1.844   0.937  -0.827 -1.5402  0.1841 -0.1378
  778MOL0     H 2681   2.023   1.120  -0.847 -2.7601 -2.3860  3.8292
  778MOL0     H 2682   3.492   1.524  -0.329 -3.0158 -0.9911 -0.1238
  778MOL0     H 2683   3.675   1.488  -0.172  0.7666 -1.1592  2.2878
  778MOL0     H 2684   3.696   1.497   0.443 -0.5190  3.6285 -1.3215
  778MOL0     H 2685   3.885   1.492   0.597 -0.0770 -0.1865 -0.9398
  778MOL0     H 2686   4.150   1.429   0.675  0.1376 -0.3149  0.1960
  778MOL0     H 2687   4.065   1.587   0.690  0.0179 -0.0368 -2.2885
  778MOL0     H 2688   4.279   1.699   0.706 -0.3959  0.0489 -2.6250
  778MOL0     H 2689   4.285   1.545   0.805  5.9198 -0.0251  0.1182
  778MOL0     H 2690   4.406   1.563   0.539 -4.3511 -1.3137 -0.8363
  778MOL0     H 2691   4.406   1.419   0.650  3.5892  0.2782 -2.2658
  778MOL0     H 2692   4.617   1.540   0.652  0.8902  0.7762  0.7175
  778MOL0     H 2693   4.540   1.687   0.691  1.9878 -0.6458 -0.7538
  778MOL0     H 2694   4.538   1.451   1.055 -0.2363  0.6724  1.1365
  778MOL0     H 2695   4.142   1.579   0.252 -0.7027 -0.1739 -1.4241
  778MOL0     H 2696   3.956   1.536   0.113  2.5415  1.1437 -0.1345
  779MOL0     O 2697   3.502   4.013   5.919  0.0731  0.9845  0.3256
  779MOL0     C 2698   3.524   4.062   6.029  0.2581 -0.1827  0.4401
  779MOL0     O 2699   3.424   4.106   6.121 -0.2664  0.9099  0.3171
  779MOL0     C 2700   3.293   4.100   6.067 -0.1276  0.4134 -0.8379
  779MOL0     C 2701   3.259   4.195   5.976  0.0723 -0.4361  0.7294
  779MOL0     C 2702   3.134   4.216   5.932 -0.0351 -0.5925 -0.2584
  779MOL0     C 2703   3.021   4.133   5.967 -0.7562 -0.9247  0.4309
  779MOL0     O 2704   2.903   4.158   5.911 -0.0512 -0.5600  0.1840
  779MOL0     C 2705   2.818   4.043   5.899  0.1145  0.1812 -0.6917
  779MOL0     C 2706   2.697   4.073   5.815  0.7303 -0.9804  0.2965
  779MOL0     C 2707   2.608   3.954   5.823 -0.0048 -0.6947  0.8917
  779MOL0     C 2708   2.472   3.981   5.741 -0.3997 -0.1052 -0.4388
  779MOL0     C 2709   2.358   3.881   5.778 -0.3158  0.7957 -0.4499
  779MOL0     C 2710   2.220   3.913   5.720  0.5068  0.2437 -0.0666
  779MOL0     C 2711   2.206   3.945   5.565 -0.1201 -0.5286 -0.5484
  779MOL0     C 2712   2.212   4.088   5.523 -0.2032 -0.2115 -0.1565
  779MOL0     N 2713   2.070   4.135   5.508 -0.9784  0.0939  0.1903
  779MOL0     C 2714   1.984   4.114   5.401 -0.4230 -0.3776  0.5974
  779MOL0     C 2715   1.873   4.192   5.426  0.7469 -0.8712 -0.3192
  779MOL0     C 2716   1.750   4.209   5.343  0.1035  0.5260 -0.2681
  779MOL0     C 2717   1.764   4.313   5.227  0.8038  0.2103 -1.3931
  779MOL0     C 2718   1.653   4.309   5.118  0.2036  0.2040  0.2147
  779MOL0     C 2719   1.515   4.341   5.182 -0.0493  0.2572 -1.1396
  779MOL0     O 2720   1.454   4.230   5.249 -0.1181 -0.3108 -0.0067
  779MOL0     C 2721   1.335   4.258   5.321 -0.5727 -0.3449 -0.5943
  779MOL0     C 2722   1.275   4.150   5.374  0.2368 -0.2000 -0.4837
  779MOL0     C 2723   1.157   4.156   5.448 -0.2952 -0.1398  0.4341
  779MOL0     C 2724   1.096   4.280   5.461  0.5496 -0.3023 -0.3787
  779MOL0     C 2725   0.965   4.295   5.527  0.8522  0.2304 -0.6741
  779MOL0     O 2726   0.918   4.428   5.539 -0.7516  0.4213  0.0587
  779MOL0     C 2727   0.795   4.454   5.592  0.2835  0.0132  0.5472
  779MOL0     C 2728   0.696   4.372   5.652 -0.3926 -0.6411  0.5169
  779MOL0     C 2729   0.586   4.424   5.713  0.3648  0.0811 -0.1076
  779MOL0     C 2730   0.546   4.559   5.681  0.6092  0.3273 -0.7094
  779MOL0     O 2731   0.434   4.625   5.710  0.5634  0.2245 -0.6706
  779MOL0     C 2732   0.342   4.545   5.782 -0.1665 -0.3680 -0.4327
  779MOL0     C 2733   0.220   4.633   5.805  0.0820 -0.2992  0.7847
  779MOL0     C 2734   0.128   4.567   5.911 -0.3344 -0.2601 -0.5843
  779MOL0     C 2735   0.015   4.675   5.933 -0.3789  0.3179  0.5583
  779MOL0     C 2736  -0.115   4.629   6.015  0.0735  1.3321 -0.1533
  779MOL0     C 2737  -0.240   4.688   5.959 -0.1036  0.0340 -0.1982
  779MOL0     C 2738  -0.349   4.648   6.057  0.2429  0.1101  0.1295
  779MOL0     C 2739  -0.361   4.752   6.170  0.9370 -0.1505  0.1172
  779MOL0    Cl 2740  -0.506   4.703   6.270  0.3214 -0.0867  0.1410
  779MOL0     C 2741   0.627   4.626   5.597 -0.4780 -0.1193  0.1510
  779MOL0     C 2742   0.755   4.590   5.573  0.2114  0.3247  0.2027
  779MOL0     O 2743   0.915   4.202   5.582  0.0126  0.5830  0.1089
  779MOL0     C 2744   1.166   4.394   5.404  0.4497  0.4357  0.2161
  779MOL0     C 2745   1.287   4.388   5.339  0.1242  0.1150 -0.5201
  779MOL0     N 2746   1.894   4.256   5.546  0.4876  0.1700  0.0366
  779MOL0     N 2747   2.005   4.217   5.598 -0.2427  0.1600 -0.1520
  779MOL0     C 2748   3.057   4.024   6.050  0.2609  0.3794  0.8058
  779MOL0     C 2749   3.190   4.013   6.100  0.4568 -0.2545 -1.0289
  779MOL0     C 2750   3.653   4.074   6.085 -0.1380 -0.2304  0.5904
  779MOL0     C 2751   3.754   4.116   5.995 -0.8311 -0.7572  1.7633
  779MOL0     C 2752   3.886   4.135   6.042 -0.0315 -0.4610  0.2312
  779MOL0     C 2753   3.916   4.135   6.181  0.5045 -0.2418  0.4138
  779MOL0     O 2754   4.041   4.164   6.228  0.5598  0.3599  0.4414
  779MOL0     C 2755   4.160   4.121   6.148  0.6349  0.8396 -0.7697
  779MOL0     C 2756   4.286   4.188   6.216 -0.2114 -0.0883  1.2594
  779MOL0     C 2757   4.315   4.126   6.350 -0.5481 -0.2654 -0.6481
  779MOL0     C 2758   4.425   4.204   6.421 -0.4206 -0.1010 -0.1545
  779MOL0     C 2759   4.558   4.193   6.349 -0.5648 -0.2080  0.2326
  779MOL0     C 2760   4.671   4.195   6.298  0.3625 -0.1695  0.1852
  779MOL0     C 2761   3.813   4.099   6.269  0.1341 -0.2998  0.3919
  779MOL0     C 2762   3.689   4.063   6.220  0.3618 -1.0352  0.1443
  779MOL0     H 2763   3.337   4.257   5.933  0.2969 -0.2508  1.3933
  779MOL0     H 2764   3.108   4.288   5.855  0.8501 -1.2525 -1.1919
  779MOL0     H 2765   2.783   4.017   5.999  2.3822 -0.1610  0.0647
  779MOL0     H 2766   2.871   3.956   5.858  0.5292 -0.1732  0.5619
  779MOL0     H 2767   2.732   4.086   5.712  0.6538  0.3580  0.4202
  779MOL0     H 2768   2.651   4.162   5.860  0.4428 -1.4920  1.0252
  779MOL0     H 2769   2.591   3.918   5.925 -2.0427  0.7433  1.1234
  779MOL0     H 2770   2.653   3.871   5.768 -1.9076 -1.4330  0.3494
  779MOL0     H 2771   2.434   4.078   5.775 -1.7392 -0.4690 -0.8025
  779MOL0     H 2772   2.496   3.977   5.634  1.3719  1.4955 -0.1428
  779MOL0     H 2773   2.347   3.868   5.886 -0.1914  0.6350 -0.4565
  779MOL0     H 2774   2.396   3.789   5.732  0.5445  1.1759 -0.5342
  779MOL0     H 2775   2.181   3.989   5.788 -1.1593  0.0647 -0.7755
  779MOL0     H 2776   2.164   3.823   5.747  1.1360 -0.0787  0.2066
  779MOL0     H 2777   2.284   3.890   5.512 -2.0433 -3.5725 -0.4584
  779MOL0     H 2778   2.111   3.897   5.539 -0.3674  0.2663 -1.1434
  779MOL0     H 2779   2.272   4.108   5.434 -2.4310  1.6453 -1.3589
  779MOL0     H 2780   2.259   4.155   5.596 -1.8962  1.6770 -0.6904
  779MOL0     H 2781   2.011   4.061   5.310  1.1357 -0.1298  0.8897
  779MOL0     H 2782   1.667   4.227   5.412 -0.1321 -2.8729  0.5496
  779MOL0     H 2783   1.720   4.115   5.295 -2.4465  1.2965 -0.3466
  779MOL0     H 2784   1.862   4.278   5.196  2.1935  0.1580  2.4706
  779MOL0     H 2785   1.765   4.410   5.277 -0.2610 -1.0210  1.2291
  779MOL0     H 2786   1.668   4.388   5.043  0.7010  1.4194  1.5593
  779MOL0     H 2787   1.652   4.219   5.055 -2.6653  0.1075  0.2466
  779MOL0     H 2788   1.440   4.374   5.110  0.4041  0.1313 -1.6738
  779MOL0     H 2789   1.529   4.419   5.258 -2.1134  0.2255 -0.6659
  779MOL0     H 2790   1.314   4.050   5.354 -1.4107 -1.0101  0.1718
  779MOL0     H 2791   1.117   4.061   5.482  1.6408 -0.5758  1.6798
  779MOL0     H 2792   0.718   4.267   5.664 -0.4686 -0.9415 -1.5324
  779MOL0     H 2793   0.523   4.350   5.762  1.0876 -0.5798 -0.1683
  779MOL0     H 2794   0.384   4.532   5.883 -1.0039  1.2787  0.1637
  779MOL0     H 2795   0.304   4.460   5.725 -3.4134  1.8018 -1.8099
  779MOL0     H 2796   0.172   4.655   5.709 -0.3964  0.6796  1.2362
  779MOL0     H 2797   0.252   4.731   5.841  1.5037  0.5350 -2.3652
  779MOL0     H 2798   0.185   4.538   6.000  1.6749  0.7377 -1.4814
  779MOL0     H 2799   0.073   4.481   5.873 -1.6292  0.1233  0.3407
  779MOL0     H 2800   0.051   4.767   5.979 -0.2944  0.0791  0.9702
  779MOL0     H 2801  -0.021   4.707   5.834 -0.8136 -3.1631 -0.5666
  779MOL0     H 2802  -0.099   4.654   6.120  1.0719 -1.4481  0.4312
  779MOL0     H 2803  -0.125   4.520   6.023 -2.2344  1.4011 -1.4489
  779MOL0     H 2804  -0.246   4.656   5.854 -1.6184 -0.2424 -0.0543
  779MOL0     H 2805  -0.228   4.796   5.947 -0.3934 -0.0987 -2.0526
  779MOL0     H 2806  -0.447   4.649   6.008  0.3815 -1.7854 -0.2748
  779MOL0     H 2807  -0.338   4.555   6.113  0.1222  0.3052  0.4783
  779MOL0     H 2808  -0.378   4.856   6.140  2.0238  0.0875  0.2810
  779MOL0     H 2809  -0.276   4.739   6.238  0.4626  4.6433  1.9730
  779MOL0     H 2810   0.597   4.724   5.560 -1.0158  0.3384  1.7157
  779MOL0     H 2811   0.835   4.657   5.543  0.1575  0.8584  1.2064
  779MOL0     H 2812   1.127   4.492   5.426  0.1476  0.6957 -1.3361
  779MOL0     H 2813   1.351   4.468   5.303 -0.8846  2.1876  2.0121
  779MOL0     H 2814   2.986   3.948   6.082 -1.9810  0.8570 -2.4681
  779MOL0     H 2815   3.205   3.936   6.174 -2.1254  0.3614  0.2508
  779MOL0     H 2816   3.725   4.126   5.890  1.2331  1.1823  1.3024
  779MOL0     H 2817   3.961   4.175   5.975 -0.7686 -0.3677 -0.5515
  779MOL0     H 2818   4.148   4.166   6.049  1.2597  2.7685 -0.0103
  779MOL0     H 2819   4.166   4.013   6.158 -3.1720  0.7033  2.6418
  779MOL0     H 2820   4.369   4.182   6.145 -1.0804 -0.3240  0.2325
  779MOL0     H 2821   4.271   4.297   6.222 -0.4380  0.0954 -1.2904
  779MOL0     H 2822   4.343   4.022   6.332  1.2738 -0.2920  1.8326
  779MOL0     H 2823   4.227   4.139   6.414 -0.9672  2.0752 -1.6113
  779MOL0     H 2824   4.397   4.309   6.426 -0.3573 -0.0978  0.1987
  779MOL0     H 2825   4.447   4.165   6.521  0.7463  0.4622 -0.1802
  779MOL0     H 2826   4.776   4.188   6.278  1.3047  2.8717  3.1321
  779MOL0     H 2827   3.845   4.105   6.373  1.0570  1.2987  0.0331
  779MOL0     H 2828   3.627   4.033   6.304  1.2312 -0.0819  1.1682
  780MOL0     O 2829   6.045   2.704   5.676  0.3557  0.1716  0.6585
  780MOL0     C 2830   6.081   2.620   5.755  0.1748 -0.3591  0.4800
  780MOL0     O 2831   5.989   2.552   5.844 -0.4171 -0.6047  0.1579
  780MOL0     C 2832   5.849   2.565   5.832 -0.0610 -0.3025  0.3199
  780MOL0     C 2833   5.775   2.536   5.718 -0.1496 -0.1043  0.0567
  780MOL0     C 2834   5.635   2.532   5.724 -0.0324 -0.3478 -0.5999
  780MOL0     C 2835   5.564   2.560   5.848  0.2417  0.3273  1.6589
  780MOL0     O 2836   5.424   2.569   5.851 -0.1127  0.4752 -0.3773
  780MOL0     C 2837   5.373   2.616   5.973  0.1442  1.5243  0.0008
  780MOL0     C 2838   5.218   2.625   5.971  0.7895  0.6671 -0.4954
  780MOL0     C 2839   5.151   2.488   5.957  0.4158  1.0448 -0.3839
  780MOL0     C 2840   4.996   2.470   5.959 -0.0093 -1.1671 -0.1539
  780MOL0     C 2841   4.925   2.517   5.836  0.0277  0.1191  0.4297
  780MOL0     C 2842   4.801   2.435   5.800 -0.0441  1.0376  0.7749
  780MOL0     C 2843   4.709   2.403   5.916  0.0315  0.0446  0.0287
  780MOL0     C 2844   4.594   2.317   5.864 -0.1185  0.3667 -0.5656
  780MOL0     N 2845   4.494   2.289   5.965  0.0480  0.7304  0.0282
  780MOL0     C 2846   4.412   2.374   6.035 -0.6272 -0.5907  0.1535
  780MOL0     C 2847   4.340   2.294   6.109 -0.2613 -0.0438 -0.2445
  780MOL0     C 2848   4.238   2.332   6.227  0.3993  0.4539  0.4642
  780MOL0     C 2849   4.102   2.249   6.231 -1.4591 -0.6736  1.3591
  780MOL0     C 2850   4.018   2.259   6.106  0.9427 -1.4421  0.3876
  780MOL0     C 2851   3.876   2.189   6.117  0.4216 -0.6300  1.0577
  780MOL0     O 2852   3.816   2.238   6.232 -0.4396 -0.4416 -0.1625
  780MOL0     C 2853   3.698   2.299   6.237  1.1236  0.3281  0.4707
  780MOL0     C 2854   3.621   2.334   6.122  0.5423  0.3190 -0.1336
  780MOL0     C 2855   3.485   2.384   6.137 -0.1997  0.1150 -0.1265
  780MOL0     C 2856   3.432   2.398   6.263  0.0563 -0.6041  0.3726
  780MOL0     C 2857   3.283   2.421   6.283 -0.2328 -0.3286 -0.1360
  780MOL0     O 2858   3.213   2.442   6.170  0.1355 -0.6827  0.1255
  780MOL0     C 2859   3.071   2.465   6.177 -1.0606  0.0922  0.7063
  780MOL0     C 2860   3.025   2.568   6.095  0.4561  0.0216  0.3854
  780MOL0     C 2861   2.891   2.593   6.078 -0.1592  0.2648 -0.3649
  780MOL0     C 2862   2.797   2.523   6.159 -0.7616 -0.6588 -0.0465
  780MOL0     O 2863   2.666   2.552   6.174 -0.3894  0.0058 -0.1627
  780MOL0     C 2864   2.603   2.636   6.063 -0.3051  0.3339  0.8387
  780MOL0     C 2865   2.452   2.624   6.073  0.5102  0.0490  0.0133
  780MOL0     C 2866   2.369   2.720   5.984  0.0663  0.4961 -0.0857
  780MOL0     C 2867   2.229   2.691   6.027 -0.2412 -0.5169 -0.6678
  780MOL0     C 2868   2.140   2.795   5.972  0.1389  0.2610  0.4391
  780MOL0     C 2869   2.000   2.741   5.963 -1.0521 -0.0835 -0.3335
  780MOL0     C 2870   1.949   2.691   6.096 -0.5099  0.3628 -0.3979
  780MOL0     C 2871   1.798   2.661   6.098 -0.2134  0.9268 -0.0312
  780MOL0    Cl 2872   1.691   2.811   6.095 -0.2976  0.0779  0.2459
  780MOL0     C 2873   2.840   2.425   6.247  0.8178  0.7001 -0.6160
  780MOL0     C 2874   2.978   2.393   6.250  0.0219  0.3357 -0.2654
  780MOL0     O 2875   3.240   2.426   6.399  0.3697  0.7926  0.5622
  780MOL0     C 2876   3.503   2.356   6.379 -0.4339  0.0294 -0.4498
  780MOL0     C 2877   3.632   2.307   6.359 -0.2377  0.6662  0.1789
  780MOL0     N 2878   4.385   2.166   6.084  0.2704 -0.2504 -0.1745
  780MOL0     N 2879   4.470   2.160   5.991  0.2035  0.1614 -1.1165
  780MOL0     C 2880   5.643   2.587   5.955  0.2636 -0.3958  0.2034
  780MOL0     C 2881   5.783   2.602   5.944 -0.4930  0.7433  0.2882
  780MOL0     C 2882   6.228   2.588   5.756  0.9987 -0.7248 -0.2458
  780MOL0     C 2883   6.285   2.496   5.841 -0.2253 -0.6199 -0.2861
  780MOL0     C 2884   6.420   2.478   5.835 -1.4224  0.7848 -0.2924
  780MOL0     C 2885   6.504   2.537   5.740  0.8288 -0.8996 -0.6631
  780MOL0     O 2886   6.629   2.495   5.733 -0.4238  0.1792 -0.3284
  780MOL0     C 2887   6.727   2.526   5.622  0.1715 -0.1262 -0.6108
  780MOL0     C 2888   6.853   2.451   5.642 -0.0725 -0.2782 -0.6214
  780MOL0     C 2889   6.940   2.471   5.520 -0.1420  0.9243 -0.5654
  780MOL0     C 2890   7.066   2.381   5.532  0.1710 -0.5898  0.4089
  780MOL0     C 2891   7.159   2.436   5.636  0.2442 -0.0401 -0.6045
  780MOL0     C 2892   7.227   2.468   5.737  0.0645  0.1989  0.5119
  780MOL0     C 2893   6.446   2.629   5.655 -0.8657 -0.3605 -0.1446
  780MOL0     C 2894   6.310   2.647   5.660  0.0651 -0.0424 -0.6676
  780MOL0     H 2895   5.835   2.514   5.630  2.0780 -0.9329  1.6947
  780MOL0     H 2896   5.570   2.489   5.649 -2.1622  1.0023  0.3520
  780MOL0     H 2897   5.415   2.714   5.998  1.2142  2.3086 -4.0858
  780MOL0     H 2898   5.391   2.550   6.058 -0.8064 -1.1617 -1.7359
  780MOL0     H 2899   5.184   2.677   5.881  0.1405  0.2154 -0.5218
  780MOL0     H 2900   5.179   2.681   6.056 -0.3487  1.4057 -1.4758
  780MOL0     H 2901   5.190   2.428   6.040 -1.9608 -0.4964 -0.2829
  780MOL0     H 2902   5.181   2.442   5.862  0.7262 -0.3130  0.3419
  780MOL0     H 2903   4.971   2.364   5.969 -0.1214 -1.1670 -0.4200
  780MOL0     H 2904   4.956   2.525   6.044  2.4750  2.2100 -0.9723
  780MOL0     H 2905   4.995   2.513   5.753 -0.7176 -1.5543 -0.1647
  780MOL0     H 2906   4.891   2.619   5.857 -0.1537  0.1449  0.0188
  780MOL0     H 2907   4.821   2.347   5.739 -0.8657  1.0579  0.4669
  780MOL0     H 2908   4.750   2.500   5.728  0.9178 -0.1512 -1.0595
  780MOL0     H 2909   4.761   2.351   5.997 -1.5695 -0.3753  0.8094
  780MOL0     H 2910   4.662   2.493   5.957 -3.4970 -2.5584  2.1716
  780MOL0     H 2911   4.644   2.229   5.824  0.1531  0.2230  0.0889
  780MOL0     H 2912   4.540   2.369   5.784 -0.3177  0.5899 -0.2889
  780MOL0     H 2913   4.412   2.483   6.037  1.3271 -0.1270 -5.5778
  780MOL0     H 2914   4.224   2.440   6.228  0.1909  0.4363 -0.1971
  780MOL0     H 2915   4.292   2.311   6.320  1.4799 -1.0775 -0.4671
  780MOL0     H 2916   4.045   2.287   6.316 -0.4833 -0.0310  1.7400
  780MOL0     H 2917   4.134   2.145   6.238  2.0415 -0.1537 -2.5126
  780MOL0     H 2918   3.998   2.364   6.081 -1.0456 -1.3630  2.0676
  780MOL0     H 2919   4.073   2.214   6.023  1.0759  1.1074 -1.0186
  780MOL0     H 2920   3.898   2.082   6.124  0.9694 -0.5754  0.3774
  780MOL0     H 2921   3.821   2.202   6.023  1.4492  0.3822  0.5621
  780MOL0     H 2922   3.673   2.332   6.026 -2.7236  1.8369 -2.0885
  780MOL0     H 2923   3.426   2.399   6.047 -2.3021 -2.0465  0.7944
  780MOL0     H 2924   3.104   2.638   6.067  0.5799  0.0758  0.8511
  780MOL0     H 2925   2.865   2.687   6.029  2.1849  1.0664 -0.1814
  780MOL0     H 2926   2.629   2.598   5.964  1.2504  0.0538  1.3284
  780MOL0     H 2927   2.636   2.740   6.052  1.4158 -0.1366  1.2383
  780MOL0     H 2928   2.422   2.631   6.178 -1.9673 -1.4322 -0.5055
  780MOL0     H 2929   2.426   2.520   6.052 -0.8320 -0.1008  2.1255
  780MOL0     H 2930   2.369   2.704   5.876 -1.7627  1.0335 -0.1920
  780MOL0     H 2931   2.394   2.820   6.020  0.2758 -0.3758  2.3985
  780MOL0     H 2932   2.206   2.589   5.993  0.6113 -1.5323  1.5518
  780MOL0     H 2933   2.227   2.696   6.137  1.4568  2.6636 -0.6622
  780MOL0     H 2934   2.175   2.825   5.872  1.1163 -0.3853  0.5697
  780MOL0     H 2935   2.144   2.888   6.028 -0.0726  1.7247 -1.8701
  780MOL0     H 2936   2.012   2.662   5.889 -0.9068  0.6568 -1.1175
  780MOL0     H 2937   1.932   2.819   5.926  0.2483  1.0339 -0.4723
  780MOL0     H 2938   1.990   2.598   6.137  0.5596  1.7734  1.9383
  780MOL0     H 2939   1.969   2.775   6.164 -0.2286 -0.1498  0.1575
  780MOL0     H 2940   1.769   2.604   6.186  0.4866  0.5973 -0.0110
  780MOL0     H 2941   1.785   2.595   6.011  3.0130 -1.7277  1.2894
  780MOL0     H 2942   2.777   2.366   6.313  2.1257  1.1798  1.1347
  780MOL0     H 2943   3.008   2.323   6.327 -0.2210 -0.3595 -0.7926
  780MOL0     H 2944   3.463   2.361   6.480 -0.0371  2.1219 -0.3386
  780MOL0     H 2945   3.684   2.274   6.448 -0.4596 -1.8676 -0.5410
  780MOL0     H 2946   5.609   2.590   6.057 -0.3105  1.4583 -0.0194
  780MOL0     H 2947   5.849   2.600   6.030  0.7265 -1.4258 -0.6161
  780MOL0     H 2948   6.224   2.440   5.910  0.7244 -0.2391  0.8954
  780MOL0     H 2949   6.480   2.420   5.905 -0.1552  1.4544 -0.8009
  780MOL0     H 2950   6.763   2.629   5.627  1.3226 -0.5729  2.3311
  780MOL0     H 2951   6.679   2.504   5.527  0.6193 -1.9826 -0.4608
  780MOL0     H 2952   6.903   2.490   5.731  2.5687 -0.6904 -1.8281
  780MOL0     H 2953   6.839   2.343   5.654  0.6660 -0.2853  0.2057
  780MOL0     H 2954   6.974   2.575   5.526 -1.2222  1.2079  3.2083
  780MOL0     H 2955   6.894   2.439   5.426 -0.5191 -0.6352  0.1250
  780MOL0     H 2956   7.032   2.281   5.560  0.8648 -0.8757  0.2604
  780MOL0     H 2957   7.120   2.387   5.436  0.3076  1.4227  0.5536
  780MOL0     H 2958   7.291   2.483   5.821  1.3575  0.4441 -0.4861
  780MOL0     H 2959   6.494   2.689   5.578 -1.9490 -2.3428 -2.5084
  780MOL0     H 2960   6.260   2.719   5.596  1.2501  2.2482  0.8210
  781MOL0     O 2961   9.569   6.659   7.224 -0.4082 -0.8171 -1.3116
  781MOL0     C 2962   9.608   6.765   7.179  0.4434  0.5869  0.2372
  781MOL0     O 2963   9.573   6.893   7.233  0.3765  0.5120  0.3321
  781MOL0     C 2964   9.455   6.890   7.314 -0.4232 -1.0110 -0.6560
  781MOL0     C 2965   9.322   6.853   7.268  0.4303 -0.0262 -0.2486
  781MOL0     C 2966   9.207   6.853   7.358 -0.2204  0.0991  0.7610
  781MOL0     C 2967   9.207   6.927   7.476  0.1616 -0.0336  0.0300
  781MOL0     O 2968   9.088   6.942   7.548  0.1061  0.3960 -0.0095
  781MOL0     C 2969   9.096   6.988   7.689 -0.7939  0.4334 -0.9481
  781MOL0     C 2970   9.101   7.141   7.700  0.3329 -0.7984  0.3069
  781MOL0     C 2971   8.978   7.220   7.665 -0.1432  0.0721  0.6441
  781MOL0     C 2972   8.921   7.291   7.792  0.7245 -0.3028 -1.0233
  781MOL0     C 2973   8.789   7.367   7.777  0.6370  0.0002 -0.0281
  781MOL0     C 2974   8.672   7.267   7.777  0.2692  0.2101  0.4502
  781MOL0     C 2975   8.543   7.337   7.747 -0.1352  0.6274  0.5792
  781MOL0     C 2976   8.422   7.245   7.763  0.2994  0.2823 -0.2355
  781MOL0     N 2977   8.398   7.204   7.902 -0.0103  1.0246 -0.1671
  781MOL0     C 2978   8.345   7.086   7.952 -0.8910  0.2894  0.2211
  781MOL0     C 2979   8.335   7.104   8.086 -0.6313 -0.3994 -0.9856
  781MOL0     C 2980   8.256   7.003   8.173 -0.3843  0.0812  0.0812
  781MOL0     C 2981   8.109   7.047   8.178  0.6008 -0.0821  0.4155
  781MOL0     C 2982   8.090   7.134   8.301  1.2760 -0.1318  0.0746
  781MOL0     C 2983   8.066   7.061   8.436  0.4228  0.1645  0.7565
  781MOL0     O 2984   8.048   7.156   8.538 -0.1753  0.2590 -0.4981
  781MOL0     C 2985   7.926   7.217   8.571 -0.1079 -0.0914 -0.5081
  781MOL0     C 2986   7.799   7.187   8.512 -0.1937 -0.7959  0.6603
  781MOL0     C 2987   7.684   7.254   8.563 -0.1282 -0.0642 -0.9174
  781MOL0     C 2988   7.693   7.356   8.656 -0.1226  0.1502 -0.4572
  781MOL0     C 2989   7.577   7.427   8.708  0.2741 -0.2102 -0.2090
  781MOL0     O 2990   7.593   7.520   8.805  0.7398  0.0073 -0.1943
  781MOL0     C 2991   7.481   7.588   8.841  0.8185 -0.3470  0.0499
  781MOL0     C 2992   7.402   7.557   8.949 -0.4833 -0.4356 -0.2672
  781MOL0     C 2993   7.280   7.624   8.989 -0.8712 -0.5136  1.3849
  781MOL0     C 2994   7.237   7.727   8.906 -0.4500 -0.9231  0.2349
  781MOL0     O 2995   7.123   7.806   8.947  0.0812  0.3893 -0.9816
  781MOL0     C 2996   7.026   7.829   8.844  0.6279 -0.5347 -0.5752
  781MOL0     C 2997   6.895   7.886   8.898 -0.2752 -0.5972  0.4374
  781MOL0     C 2998   6.884   8.035   8.856 -0.5189  1.2073  0.1016
  781MOL0     C 2999   6.732   8.080   8.845  1.4786 -0.4696 -0.6742
  781MOL0     C 3000   6.703   8.230   8.820 -0.8784 -0.5092  0.0966
  781MOL0     C 3001   6.701   8.315   8.948 -0.3335 -0.1312  0.1684
  781MOL0     C 3002   6.644   8.453   8.930  0.1079 -0.0156  0.3862
  781MOL0     C 3003   6.651   8.535   9.055 -0.6777 -0.0410 -0.3647
  781MOL0    Cl 3004   6.548   8.463   9.183  0.1293  0.2058 -0.2215
  781MOL0     C 3005   7.320   7.759   8.791  0.0728 -1.0761 -0.6861
  781MOL0     C 3006   7.440   7.696   8.762  0.3226 -0.3416 -0.4318
  781MOL0     O 3007   7.471   7.405   8.654 -0.0993  0.1233  0.1412
  781MOL0     C 3008   7.826   7.405   8.695  0.8403  0.4982 -0.2259
  781MOL0     C 3009   7.935   7.324   8.661  0.6146  0.9019 -0.3794
  781MOL0     N 3010   8.407   7.221   8.118  0.0118 -1.4591  0.0101
  781MOL0     N 3011   8.423   7.281   8.007  0.5206 -0.5285 -0.0106
  781MOL0     C 3012   9.337   6.975   7.514  0.8826  0.8685 -0.8198
  781MOL0     C 3013   9.455   6.953   7.442 -0.2213 -0.6580 -1.0984
  781MOL0     C 3014   9.711   6.765   7.077 -0.4743  0.3161  1.2990
  781MOL0     C 3015   9.769   6.646   7.037  0.7552  1.0119  0.2874
  781MOL0     C 3016   9.871   6.638   6.947  0.3114 -0.0541 -0.0177
  781MOL0     C 3017   9.925   6.749   6.885  0.4601  0.0249  0.0621
  781MOL0     O 3018  10.018   6.746   6.783  0.5043  0.3501 -0.3503
  781MOL0     C 3019  10.096   6.627   6.775 -0.2726  0.4199  0.6805
  781MOL0     C 3020  10.203   6.659   6.668  0.1218  0.5991  1.1367
  781MOL0     C 3021  10.289   6.533   6.638  0.6700 -0.3094  0.2347
  781MOL0     C 3022  10.424   6.576   6.562 -0.0949  0.1209  1.0828
  781MOL0     C 3023  10.493   6.459   6.511  0.0406 -1.4733  0.0654
  781MOL0     C 3024  10.538   6.354   6.471  0.9586 -0.5979 -0.3786
  781MOL0     C 3025   9.870   6.879   6.929  0.2332 -0.5172 -0.1020
  781MOL0     C 3026   9.770   6.882   7.020  0.3429  0.2411 -1.1771
  781MOL0     H 3027   9.308   6.805   7.172 -0.2359 -1.7297  0.6554
  781MOL0     H 3028   9.120   6.802   7.319 -0.0364  1.6214 -1.9228
  781MOL0     H 3029   9.178   6.944   7.746 -0.6107  0.4838 -1.1679
  781MOL0     H 3030   9.005   6.955   7.738  0.6965 -2.0676  0.3105
  781MOL0     H 3031   9.182   7.186   7.641 -1.9188  2.7978 -0.2937
  781MOL0     H 3032   9.113   7.159   7.807  0.2910  1.0446  0.0351
  781MOL0     H 3033   8.890   7.170   7.624 -1.0196  0.4838  1.9774
  781MOL0     H 3034   9.022   7.295   7.598  3.0727 -2.9726 -0.9559
  781MOL0     H 3035   8.897   7.206   7.857 -1.8803 -0.2047 -1.7753
  781MOL0     H 3036   9.001   7.354   7.833  2.0036 -0.9071 -2.4806
  781MOL0     H 3037   8.771   7.414   7.680 -1.5806 -1.1625 -0.2443
  781MOL0     H 3038   8.782   7.429   7.867 -1.0513  1.1386 -0.8828
  781MOL0     H 3039   8.681   7.222   7.876 -0.2364  0.9298  0.8301
  781MOL0     H 3040   8.676   7.191   7.698 -2.4073  0.2061  0.2424
  781MOL0     H 3041   8.535   7.425   7.811 -1.7767  0.0364  1.2579
  781MOL0     H 3042   8.548   7.376   7.645 -0.6118 -0.7063  0.0176
  781MOL0     H 3043   8.440   7.155   7.703 -2.2473 -1.1693  1.0050
  781MOL0     H 3044   8.333   7.296   7.726  0.7309  0.6868 -0.7263
  781MOL0     H 3045   8.313   7.000   7.894 -0.5694  0.5400 -0.3238
  781MOL0     H 3046   8.309   6.994   8.269  1.0737  0.2860 -0.6730
  781MOL0     H 3047   8.260   6.903   8.128 -1.1835  0.7896 -1.6264
  781MOL0     H 3048   8.044   6.959   8.190  0.3308 -0.7125 -3.9856
  781MOL0     H 3049   8.083   7.094   8.083 -2.1362 -0.9854  0.6261
  781MOL0     H 3050   8.176   7.199   8.320 -0.2340  1.6285  1.2444
  781MOL0     H 3051   8.008   7.203   8.274  1.5368  0.2710  0.2950
  781MOL0     H 3052   8.154   6.997   8.451  0.8684  0.8054  0.9241
  781MOL0     H 3053   7.976   6.999   8.432  1.2564 -1.1663  1.6543
  781MOL0     H 3054   7.782   7.109   8.439 -1.7116  0.0844  0.0207
  781MOL0     H 3055   7.588   7.241   8.516 -1.1961 -2.4310  1.6266
  781MOL0     H 3056   7.448   7.474   9.002  1.1038 -1.8043 -3.5163
  781MOL0     H 3057   7.227   7.592   9.078  1.0689 -2.6754  1.8334
  781MOL0     H 3058   7.015   7.735   8.790 -3.3190 -0.7023  0.2065
  781MOL0     H 3059   7.075   7.894   8.771  2.0610  0.5683  1.2514
  781MOL0     H 3060   6.911   7.887   9.006 -1.8005  0.2601  0.6829
  781MOL0     H 3061   6.810   7.824   8.866 -2.9435  2.9662  0.0069
  781MOL0     H 3062   6.942   8.053   8.764  4.0689 -3.2532  1.6224
  781MOL0     H 3063   6.928   8.102   8.931 -3.0710  0.7922  2.0921
  781MOL0     H 3064   6.682   8.022   8.767  0.2780 -0.2273 -0.1118
  781MOL0     H 3065   6.682   8.061   8.940 -0.4310  2.3716 -0.9970
  781MOL0     H 3066   6.605   8.235   8.771 -0.6908  0.9438 -0.1902
  781MOL0     H 3067   6.771   8.272   8.745  0.2463 -0.7433  0.9698
  781MOL0     H 3068   6.807   8.321   8.976  0.9922 -2.7837 -3.5543
  781MOL0     H 3069   6.650   8.259   9.026  0.4787 -1.0772  0.0372
  781MOL0     H 3070   6.708   8.498   8.853  1.2144 -2.4387 -0.2099
  781MOL0     H 3071   6.537   8.454   8.908  0.0023  3.3789  0.5646
  781MOL0     H 3072   6.620   8.635   9.023  0.5718 -0.2463 -2.4056
  781MOL0     H 3073   6.755   8.544   9.086 -0.6825 -2.4021  0.5033
  781MOL0     H 3074   7.297   7.854   8.743 -1.0169 -0.9893 -0.0339
  781MOL0     H 3075   7.504   7.736   8.683  0.6461  0.2964  0.1425
  781MOL0     H 3076   7.843   7.486   8.765 -0.6799  0.0613  0.6819
  781MOL0     H 3077   8.027   7.350   8.713 -0.7122  0.4307  2.4021
  781MOL0     H 3078   9.350   7.022   7.610 -0.1704  3.3193 -1.8051
  781MOL0     H 3079   9.546   6.996   7.483 -2.2690  2.1033  0.9037
  781MOL0     H 3080   9.731   6.553   7.079  0.6348  0.8011 -0.2797
  781MOL0     H 3081   9.898   6.535   6.926 -0.5077 -0.0007 -1.4257
  781MOL0     H 3082  10.026   6.551   6.739  1.1311  0.0413 -1.4306
  781MOL0     H 3083  10.132   6.585   6.869  1.1814 -0.2919 -0.1610
  781MOL0     H 3084  10.158   6.684   6.571  0.9362 -2.6952 -0.2319
  781MOL0     H 3085  10.265   6.744   6.696  0.7886  0.8703 -0.9650
  781MOL0     H 3086  10.238   6.461   6.574  0.2893 -1.0493  1.3443
  781MOL0     H 3087  10.310   6.479   6.731 -0.8692  0.9618  1.3833
  781MOL0     H 3088  10.402   6.637   6.474 -2.0095 -2.1449 -0.1183
  781MOL0     H 3089  10.494   6.626   6.630 -2.5678  2.2713  2.2002
  781MOL0     H 3090  10.571   6.266   6.420 -0.1079  0.3947 -2.9212
  781MOL0     H 3091   9.918   6.968   6.890 -0.3567 -0.4311 -0.6584
  781MOL0     H 3092   9.733   6.981   7.045  0.2990 -0.4706  2.0652
  782MOL0     O 3093   2.267   7.680   0.213 -0.3186 -0.4363  0.3412
  782MOL0     C 3094   2.285   7.789   0.161  0.0073  0.6636 -0.0969
  782MOL0     O 3095   2.185   7.871   0.108 -0.8670  0.4293  1.1120
  782MOL0     C 3096   2.063   7.826   0.085  0.1396  0.0991  0.5367
  782MOL0     C 3097   1.957   7.837   0.181  0.1516 -0.0421 -0.0316
  782MOL0     C 3098   1.829   7.791   0.155 -0.0586 -0.1510  0.5425
  782MOL0     C 3099   1.804   7.727   0.031  0.2927 -0.7628  0.0576
  782MOL0     O 3100   1.676   7.706  -0.012  0.9218 -0.2091  0.0246
  782MOL0     C 3101   1.591   7.828  -0.023 -0.1282 -0.1246 -0.0031
  782MOL0     C 3102   1.463   7.812   0.067  1.0204 -0.3878 -0.0992
  782MOL0     C 3103   1.386   7.693   0.011  0.0959  0.2774 -0.1114
  782MOL0     C 3104   1.259   7.664   0.087  0.1997 -0.3812  0.6407
  782MOL0     C 3105   1.181   7.542   0.021 -0.0989  0.2896 -0.0267
  782MOL0     C 3106   1.061   7.587  -0.062 -0.7856 -0.5473 -0.3988
  782MOL0     C 3107   0.948   7.489  -0.085 -0.2198  0.1384  0.2803
  782MOL0     C 3108   0.985   7.359  -0.166  1.3558 -0.1686  0.9535
  782MOL0     N 3109   0.866   7.285  -0.208  0.0925  0.0546 -0.4247
  782MOL0     C 3110   0.831   7.161  -0.161  0.7641 -0.4103  0.3234
  782MOL0     C 3111   0.695   7.158  -0.188  0.4904 -1.1663 -0.9489
  782MOL0     C 3112   0.599   7.044  -0.163  0.5925  0.7996  0.2377
  782MOL0     C 3113   0.447   7.080  -0.128 -0.4555  0.0481 -0.0820
  782MOL0     C 3114   0.358   6.948  -0.110  0.7104  0.6349  0.5373
  782MOL0     C 3115   0.202   6.971  -0.121 -0.1798  0.0165 -0.5042
  782MOL0     O 3116   0.140   6.840  -0.142  0.5623  0.2565 -0.1447
  782MOL0     C 3117   0.004   6.832  -0.128 -0.5784 -0.1112  0.1841
  782MOL0     C 3118  -0.060   6.731  -0.194 -0.0806 -0.9004  0.4080
  782MOL0     C 3119  -0.192   6.705  -0.173 -0.3359  0.6560  0.4655
  782MOL0     C 3120  -0.264   6.788  -0.086 -0.5274  0.0945 -0.7463
  782MOL0     C 3121  -0.397   6.762  -0.058  0.2532  0.1379 -0.3069
  782MOL0     O 3122  -0.475   6.872  -0.033  0.8549 -0.2332 -0.1028
  782MOL0     C 3123  -0.603   6.857   0.006  0.1482 -0.3181 -0.2617
  782MOL0     C 3124  -0.630   6.886   0.142  0.4248 -0.8320 -0.5209
  782MOL0     C 3125  -0.764   6.861   0.197 -0.1257 -0.5232  0.0896
  782MOL0     C 3126  -0.855   6.788   0.126 -0.3468 -0.5090  0.2898
  782MOL0     O 3127  -0.980   6.756   0.170 -0.0301  0.2052 -0.4637
  782MOL0     C 3128  -1.078   6.852   0.133 -0.2693  0.8035 -0.5741
  782MOL0     C 3129  -1.160   6.830   0.005 -0.6920  0.0514  0.5757
  782MOL0     C 3130  -1.294   6.898  -0.003 -0.7753  0.0487 -0.1316
  782MOL0     C 3131  -1.382   6.858  -0.122 -0.2309 -0.3336 -0.6611
  782MOL0     C 3132  -1.517   6.929  -0.108  0.0759  0.8491  0.1943
  782MOL0     C 3133  -1.630   6.826  -0.055 -1.2148  0.0928 -0.4014
  782MOL0     C 3134  -1.744   6.903   0.020  0.1788  0.1856 -0.2298
  782MOL0     C 3135  -1.869   6.812   0.047 -0.7340 -0.8201  0.3484
  782MOL0    Cl 3136  -1.955   6.763  -0.097 -0.4165  0.1555 -0.0945
  782MOL0     C 3137  -0.824   6.770  -0.009  0.3474  1.1017 -0.2006
  782MOL0     C 3138  -0.702   6.803  -0.074 -0.8865 -0.4242  0.3717
  782MOL0     O 3139  -0.445   6.646  -0.063  0.0363 -0.4900  0.2349
  782MOL0     C 3140  -0.208   6.896  -0.026  0.7470 -0.1626 -0.2396
  782MOL0     C 3141  -0.071   6.921  -0.047 -0.0329 -0.1133 -0.9465
  782MOL0     N 3142   0.667   7.270  -0.268 -0.0713  0.6569 -0.1853
  782MOL0     N 3143   0.762   7.347  -0.269  0.4674 -0.1166 -0.4982
  782MOL0     C 3144   1.911   7.714  -0.055 -0.2804  0.6053  0.1829
  782MOL0     C 3145   2.045   7.764  -0.032 -0.3842  0.7090  0.5934
  782MOL0     C 3146   2.418   7.844   0.141 -0.1567  0.0590 -0.8089
  782MOL0     C 3147   2.452   7.984   0.171  0.3520  0.6413  0.0875
  782MOL0     C 3148   2.586   8.027   0.173  0.3321 -0.6972 -0.6080
  782MOL0     C 3149   2.691   7.943   0.128  0.6997 -0.0653  0.2617
  782MOL0     O 3150   2.820   7.993   0.124  0.1869  1.5780  0.2323
  782MOL0     C 3151   2.937   7.912   0.102  0.6287  0.4801 -0.4431
  782MOL0     C 3152   3.050   8.004   0.128  0.7978  0.4249  0.0912
  782MOL0     C 3153   3.188   7.928   0.142 -0.1696 -0.4343 -0.4969
  782MOL0     C 3154   3.313   8.016   0.127 -0.0409 -1.1196 -0.0681
  782MOL0     C 3155   3.337   8.067  -0.007 -0.3663  0.1829  0.7911
  782MOL0     C 3156   3.343   8.103  -0.119 -0.6510 -0.1621  0.9953
  782MOL0     C 3157   2.660   7.805   0.115 -0.5184  0.0415 -0.2910
  782MOL0     C 3158   2.527   7.758   0.114  0.0137  0.8999  0.4830
  782MOL0     H 3159   1.974   7.894   0.272 -0.5108 -1.6424  1.1533
  782MOL0     H 3160   1.757   7.810   0.234  1.3912  2.6316  1.3371
  782MOL0     H 3161   1.562   7.853  -0.126  0.9363  1.9801  0.1348
  782MOL0     H 3162   1.637   7.924   0.003 -0.1357  0.1192 -0.8589
  782MOL0     H 3163   1.400   7.901   0.057  0.3142 -0.7289  1.0862
  782MOL0     H 3164   1.487   7.804   0.173  0.5076 -0.1181  0.0439
  782MOL0     H 3165   1.452   7.606   0.019 -0.4384  0.0361  3.3018
  782MOL0     H 3166   1.362   7.716  -0.093  1.2775 -2.7876 -1.1555
  782MOL0     H 3167   1.289   7.646   0.191 -2.3693  1.8468  1.9224
  782MOL0     H 3168   1.195   7.753   0.095  0.0810 -0.3246 -0.7394
  782MOL0     H 3169   1.149   7.477   0.102  1.6476 -0.5635  0.0374
  782MOL0     H 3170   1.252   7.487  -0.043  2.5412  2.6728  0.6378
  782MOL0     H 3171   1.110   7.624  -0.153 -2.3594 -0.9453 -1.4461
  782MOL0     H 3172   1.006   7.664  -0.009 -1.9646 -3.5714  3.2034
  782MOL0     H 3173   0.911   7.441   0.006  1.7986 -4.1409 -0.9159
  782MOL0     H 3174   0.866   7.541  -0.134 -1.3046 -0.5872  1.2757
  782MOL0     H 3175   1.048   7.289  -0.110  1.5942 -1.3591 -0.7590
  782MOL0     H 3176   1.050   7.376  -0.252 -0.7398  1.4476 -0.3791
  782MOL0     H 3177   0.889   7.082  -0.115  0.4057 -0.8228  0.0696
  782MOL0     H 3178   0.641   6.974  -0.091  1.7594 -0.9882 -2.0334
  782MOL0     H 3179   0.596   6.980  -0.251 -1.7145  0.9109  0.1858
  782MOL0     H 3180   0.403   7.135  -0.211  0.3491 -0.2112 -0.6853
  782MOL0     H 3181   0.442   7.133  -0.032  1.5115 -0.8423  0.5606
  782MOL0     H 3182   0.383   6.883  -0.195  0.4335 -0.8560  1.5569
  782MOL0     H 3183   0.386   6.887  -0.024 -0.3531 -1.2544 -0.3772
  782MOL0     H 3184   0.185   7.041  -0.204 -0.9778  1.5288  0.8739
  782MOL0     H 3185   0.168   7.017  -0.028  0.0333 -1.1268  0.1614
  782MOL0     H 3186  -0.008   6.684  -0.277  0.0886 -0.9866  0.5595
  782MOL0     H 3187  -0.259   6.640  -0.229 -3.4710  2.4452  1.9214
  782MOL0     H 3188  -0.548   6.927   0.199  0.0570 -0.3019 -0.3624
  782MOL0     H 3189  -0.792   6.888   0.299 -1.0412  1.0273 -0.5312
  782MOL0     H 3190  -1.019   6.944   0.125  0.9879  0.6664  4.1111
  782MOL0     H 3191  -1.154   6.859   0.211  0.7965  2.0375  0.4052
  782MOL0     H 3192  -1.184   6.724   0.002 -0.6059 -0.0220  1.9491
  782MOL0     H 3193  -1.094   6.853  -0.079  1.5002 -1.4753  1.7881
  782MOL0     H 3194  -1.270   7.004  -0.018  1.4715 -0.4770 -0.7533
  782MOL0     H 3195  -1.335   6.873   0.095 -1.1778 -4.2476 -1.1794
  782MOL0     H 3196  -1.345   6.877  -0.223  0.2701 -1.1074 -0.6276
  782MOL0     H 3197  -1.400   6.751  -0.111  0.9662 -0.3625  1.6391
  782MOL0     H 3198  -1.550   6.965  -0.206 -1.1616 -0.8209 -0.0420
  782MOL0     H 3199  -1.516   7.012  -0.037 -3.1825  0.7231  0.5488
  782MOL0     H 3200  -1.592   6.762   0.025  1.5313  0.5533 -1.2455
  782MOL0     H 3201  -1.666   6.761  -0.136  0.1746  0.6410 -1.4849
  782MOL0     H 3202  -1.713   6.935   0.120  0.3495  1.6464 -0.7369
  782MOL0     H 3203  -1.774   6.985  -0.045 -0.0442  0.0038 -0.3575
  782MOL0     H 3204  -1.926   6.869   0.121  4.8862  2.7957  2.5611
  782MOL0     H 3205  -1.835   6.714   0.083 -1.7229 -2.3209 -2.4865
  782MOL0     H 3206  -0.896   6.724  -0.076  0.8141  2.3536 -1.6451
  782MOL0     H 3207  -0.677   6.780  -0.177  1.8111 -1.4731  1.1473
  782MOL0     H 3208  -0.256   6.948   0.057  4.4323  2.8919  0.3064
  782MOL0     H 3209  -0.038   7.012   0.002 -1.3032  1.8740 -3.5171
  782MOL0     H 3210   1.885   7.662  -0.146 -1.3030 -1.0689  1.3782
  782MOL0     H 3211   2.123   7.751  -0.105 -2.6750  0.2669 -1.9430
  782MOL0     H 3212   2.359   8.037   0.193 -0.4253 -0.8188  0.4429
  782MOL0     H 3213   2.599   8.133   0.192 -1.3532 -0.3829 -0.9490
  782MOL0     H 3214   2.952   7.874   0.000  1.6818 -0.5871  0.0831
  782MOL0     H 3215   2.938   7.823   0.166  0.5095 -1.3894 -2.8911
  782MOL0     H 3216   3.055   8.059   0.034 -1.2696 -0.1741 -0.4180
  782MOL0     H 3217   3.025   8.065   0.216 -1.9267  0.3836 -0.5902
  782MOL0     H 3218   3.197   7.844   0.072  2.0072  0.0733 -0.8969
  782MOL0     H 3219   3.188   7.887   0.243 -0.8664 -0.6454 -0.5779
  782MOL0     H 3220   3.313   8.102   0.195  0.1949 -1.2460  0.0954
  782MOL0     H 3221   3.396   7.955   0.164 -1.7023 -2.7311  1.1854
  782MOL0     H 3222   3.330   8.140  -0.219  1.0682 -0.8844  0.4589
  782MOL0     H 3223   2.740   7.734   0.099 -2.4348 -2.1567 -0.7256
  782MOL0     H 3224   2.508   7.651   0.123  0.4895  0.9776  2.9212
  783MOL0     O 3225   3.466   6.378   1.441 -0.1897 -0.0808 -0.6895
  783MOL0     C 3226   3.463   6.293   1.359 -0.5636  0.1599 -0.4538
  783MOL0     O 3227   3.351   6.238   1.312  0.2616  0.1605  1.3009
  783MOL0     C 3228   3.228   6.294   1.346 -0.0439 -0.4558  0.8360
  783MOL0     C 3229   3.131   6.316   1.246  0.5817 -0.4090  0.9622
  783MOL0     C 3230   3.001   6.347   1.278  0.1930 -0.3232 -1.0688
  783MOL0     C 3231   2.960   6.360   1.402  0.4115  1.0817  0.4823
  783MOL0     O 3232   2.832   6.388   1.429  0.1320  0.2707  0.1022
  783MOL0     C 3233   2.742   6.418   1.331 -0.0034  0.6932  0.4021
  783MOL0     C 3234   2.602   6.436   1.386 -0.0738 -0.2731  0.5673
  783MOL0     C 3235   2.554   6.310   1.460  0.6149  0.3577 -0.6199
  783MOL0     C 3236   2.416   6.330   1.509  0.2471  0.3290  0.1313
  783MOL0     C 3237   2.348   6.210   1.576 -0.7240  0.1846 -0.2938
  783MOL0     C 3238   2.309   6.098   1.477 -0.0819  0.5066  0.3238
  783MOL0     C 3239   2.300   5.959   1.533  0.8194 -0.7083 -0.3384
  783MOL0     C 3240   2.230   5.949   1.668  0.8935 -0.4212  0.1867
  783MOL0     N 3241   2.100   6.022   1.668  0.4612  0.6620  0.2058
  783MOL0     C 3242   1.995   6.011   1.574 -0.2405 -0.5103  0.2854
  783MOL0     C 3243   1.895   6.092   1.616  0.0928 -0.6553 -0.9934
  783MOL0     C 3244   1.753   6.126   1.564 -0.8351 -0.2257  0.0062
  783MOL0     C 3245   1.726   6.073   1.426  0.6257 -0.1010 -0.5767
  783MOL0     C 3246   1.772   6.177   1.327  0.1870  0.1041 -2.0527
  783MOL0     C 3247   1.764   6.135   1.188  0.5759  0.0686  0.0896
  783MOL0     O 3248   1.838   6.234   1.110  0.2115  0.3336  0.1185
  783MOL0     C 3249   1.978   6.220   1.094  1.0702 -0.4403 -0.0124
  783MOL0     C 3250   2.055   6.128   1.161  0.0213 -0.2845  0.3760
  783MOL0     C 3251   2.195   6.118   1.125  0.1172  0.0937  0.1650
  783MOL0     C 3252   2.257   6.213   1.036  0.9164  0.1671  1.2062
  783MOL0     C 3253   2.398   6.193   1.007 -0.5758 -0.6551  0.0439
  783MOL0     O 3254   2.454   6.071   1.020  0.9204 -0.6709 -0.6464
  783MOL0     C 3255   2.593   6.053   1.036 -0.9496 -0.6146  0.5180
  783MOL0     C 3256   2.618   5.932   1.095 -0.4288  0.0463 -0.2693
  783MOL0     C 3257   2.738   5.890   1.132  0.0846 -1.3862  0.6889
  783MOL0     C 3258   2.848   5.968   1.092 -0.0308  1.0790  0.7256
  783MOL0     O 3259   2.975   5.917   1.118 -0.6068 -0.0715 -0.1124
  783MOL0     C 3260   3.096   5.969   1.055  0.3091  0.2099  0.1214
  783MOL0     C 3261   3.202   5.878   1.079 -0.1299 -0.1993 -0.5364
  783MOL0     C 3262   3.330   5.924   1.015  0.0719  0.4065 -0.0990
  783MOL0     C 3263   3.338   5.895   0.864 -0.1370 -0.0626  1.1074
  783MOL0     C 3264   3.437   5.984   0.789  0.6097 -0.1602  0.2559
  783MOL0     C 3265   3.442   5.946   0.647 -0.0031 -0.4103  0.3401
  783MOL0     C 3266   3.535   6.051   0.575  0.1195 -0.0567  0.9995
  783MOL0     C 3267   3.522   6.024   0.420  0.3149  0.7123  0.3989
  783MOL0    Cl 3268   3.360   6.025   0.358 -0.2436 -0.2816  0.0182
  783MOL0     C 3269   2.828   6.101   1.040  0.0309 -0.0367 -0.5771
  783MOL0     C 3270   2.700   6.147   1.010  0.0916  0.2325 -0.3994
  783MOL0     O 3271   2.457   6.297   0.979  0.7699  0.9801  0.0845
  783MOL0     C 3272   2.175   6.322   0.985  0.1507  1.0876  0.6152
  783MOL0     C 3273   2.035   6.318   1.016 -0.3796  0.2775  0.9441
  783MOL0     N 3274   1.951   6.154   1.726  0.4126 -0.5705  0.2201
  783MOL0     N 3275   2.061   6.106   1.762  0.1742  0.5658 -0.1208
  783MOL0     C 3276   3.052   6.332   1.500  0.9104 -0.7201  0.0048
  783MOL0     C 3277   3.181   6.305   1.476  0.3384 -1.1154 -0.7777
  783MOL0     C 3278   3.588   6.231   1.305  0.0393  0.3526  0.5089
  783MOL0     C 3279   3.584   6.109   1.232  0.2134 -1.0178 -0.1705
  783MOL0     C 3280   3.699   6.061   1.167 -0.3977 -0.3058  0.2199
  783MOL0     C 3281   3.818   6.135   1.181 -0.0234 -0.4111  0.7544
  783MOL0     O 3282   3.925   6.111   1.101 -0.0478  1.2097 -0.9003
  783MOL0     C 3283   3.921   6.117   0.951  0.3685 -0.1008 -0.4654
  783MOL0     C 3284   3.964   5.985   0.887 -0.8162  0.2001  0.7725
  783MOL0     C 3285   3.945   5.980   0.737 -0.0193  0.2035  0.1781
  783MOL0     C 3286   3.956   5.838   0.675  0.8560 -0.2670 -0.7742
  783MOL0     C 3287   3.889   5.825   0.537 -0.5015 -0.6920 -0.0373
  783MOL0     C 3288   3.840   5.839   0.433  0.4215 -0.0641  0.6519
  783MOL0     C 3289   3.826   6.254   1.256  0.2933 -0.0244 -0.1349
  783MOL0     C 3290   3.708   6.300   1.317  0.1326 -0.3967  0.1453
  783MOL0     H 3291   3.161   6.313   1.142  1.3100  3.5599  0.9236
  783MOL0     H 3292   2.940   6.381   1.194  0.1390  1.1605 -0.4535
  783MOL0     H 3293   2.729   6.329   1.268 -0.8346  1.8941 -1.2005
  783MOL0     H 3294   2.772   6.505   1.272 -2.1701  0.9972 -0.3383
  783MOL0     H 3295   2.546   6.459   1.295 -0.8985  1.4422  1.4589
  783MOL0     H 3296   2.613   6.521   1.454 -1.9612 -0.4330  1.1219
  783MOL0     H 3297   2.622   6.291   1.543  1.1022 -0.0966 -1.1117
  783MOL0     H 3298   2.551   6.227   1.388  3.0968 -1.6027  1.3806
  783MOL0     H 3299   2.421   6.409   1.585 -2.5838  1.3924 -0.6469
  783MOL0     H 3300   2.353   6.370   1.429  0.1378  1.7682  0.8959
  783MOL0     H 3301   2.259   6.234   1.635 -1.7416 -0.2633 -1.5912
  783MOL0     H 3302   2.413   6.173   1.656 -1.9705 -1.4206  0.0450
  783MOL0     H 3303   2.385   6.086   1.400  0.1406 -0.4161  0.6772
  783MOL0     H 3304   2.215   6.129   1.431 -1.5010 -1.4067  1.7368
  783MOL0     H 3305   2.254   5.884   1.467 -2.7160  0.5316  0.5058
  783MOL0     H 3306   2.405   5.928   1.535  1.5954  1.7082 -0.8736
  783MOL0     H 3307   2.280   5.996   1.754 -0.6340 -1.8743  1.9456
  783MOL0     H 3308   2.219   5.844   1.695  2.5452 -0.6814 -0.0048
  783MOL0     H 3309   1.992   5.942   1.491  1.7220 -0.4381  0.1182
  783MOL0     H 3310   1.741   6.235   1.565 -1.4068 -0.2355 -1.7156
  783MOL0     H 3311   1.685   6.082   1.638  1.0975  0.6770  2.4568
  783MOL0     H 3312   1.617   6.063   1.424  0.4540  1.5029 -0.2916
  783MOL0     H 3313   1.775   5.976   1.418  2.2759  0.8065 -2.0953
  783MOL0     H 3314   1.704   6.261   1.346  0.6428 -0.1436  1.3729
  783MOL0     H 3315   1.872   6.206   1.359 -0.1471 -1.7368  1.2137
  783MOL0     H 3316   1.660   6.124   1.157  1.4728 -0.1237 -3.2116
  783MOL0     H 3317   1.812   6.037   1.182  0.5139 -0.2042  2.7701
  783MOL0     H 3318   2.014   6.057   1.231  0.9081  1.9616  3.3681
  783MOL0     H 3319   2.245   6.033   1.169  1.2287 -0.2178 -1.5969
  783MOL0     H 3320   2.535   5.865   1.114 -1.4966  1.3676 -0.1157
  783MOL0     H 3321   2.752   5.797   1.186 -0.3980 -2.1288 -0.4216
  783MOL0     H 3322   3.124   6.066   1.099  2.2135  0.5590 -1.6950
  783MOL0     H 3323   3.075   5.979   0.948  0.0532  0.1099  0.1632
  783MOL0     H 3324   3.171   5.777   1.049 -3.1673 -0.5548  2.9582
  783MOL0     H 3325   3.220   5.876   1.187  0.9254  3.2240 -0.5658
  783MOL0     H 3326   3.418   5.874   1.056  2.0944  1.8548 -2.4175
  783MOL0     H 3327   3.341   6.031   1.030  0.4507  1.0719 -4.0406
  783MOL0     H 3328   3.363   5.789   0.853 -0.2864 -0.2112  2.0800
  783MOL0     H 3329   3.241   5.915   0.818  0.0876  1.5991  1.2957
  783MOL0     H 3330   3.533   5.986   0.841 -0.5779  2.2997  2.6569
  783MOL0     H 3331   3.394   6.085   0.794 -1.3451 -0.5917 -3.9554
  783MOL0     H 3332   3.343   5.955   0.602 -0.1795  1.5917  1.0122
  783MOL0     H 3333   3.483   5.847   0.624  1.5173  0.4259 -0.7620
  783MOL0     H 3334   3.515   6.157   0.592 -0.3480  0.3506 -1.6391
  783MOL0     H 3335   3.640   6.036   0.603  0.3889 -2.0639 -0.7507
  783MOL0     H 3336   3.557   5.921   0.406 -1.9352 -0.2150  1.0078
  783MOL0     H 3337   3.583   6.091   0.359 -0.8162  2.6546  1.3018
  783MOL0     H 3338   2.905   6.174   1.018  0.5832 -1.0222 -2.1139
  783MOL0     H 3339   2.691   6.249   0.973 -3.5896 -0.0063 -0.4953
  783MOL0     H 3340   2.223   6.391   0.917  0.9643  2.3617  2.3989
  783MOL0     H 3341   1.971   6.388   0.962 -0.8763 -0.5829  0.3883
  783MOL0     H 3342   3.018   6.321   1.603 -0.0138 -1.2845 -0.3474
  783MOL0     H 3343   3.250   6.294   1.559  1.0977 -2.3348 -1.5433
  783MOL0     H 3344   3.494   6.049   1.229 -1.0676  0.8462 -1.0124
  783MOL0     H 3345   3.688   5.981   1.095 -0.8526  2.1624 -2.6545
  783MOL0     H 3346   3.992   6.193   0.917  0.8835 -0.2339  0.2880
  783MOL0     H 3347   3.825   6.158   0.917 -1.1313  0.4816  3.8188
  783MOL0     H 3348   4.069   5.968   0.913 -0.0468 -0.4665 -2.3136
  783MOL0     H 3349   3.911   5.903   0.936 -1.5631  1.7287  2.6346
  783MOL0     H 3350   4.017   6.048   0.689 -1.1625  0.5596 -1.0992
  783MOL0     H 3351   3.848   6.022   0.711  0.5392  0.2881 -2.0481
  783MOL0     H 3352   4.062   5.810   0.671  1.3007  1.2152 -0.1668
  783MOL0     H 3353   3.907   5.778   0.751 -1.5553  2.9793  0.4734
  783MOL0     H 3354   3.808   5.858   0.332  1.9578 -1.2032 -0.0982
  783MOL0     H 3355   3.917   6.313   1.262  0.4293  0.2666 -3.3775
  783MOL0     H 3356   3.726   6.391   1.373  3.6454 -0.7317 -0.2430
  784MOL0     O 3357   0.641   5.559   5.139 -0.0050  0.5908  0.1325
  784MOL0     C 3358   0.602   5.674   5.129 -0.0412 -1.0551  0.5384
  784MOL0     O 3359   0.491   5.735   5.184  0.1741  0.5399 -0.0248
  784MOL0     C 3360   0.397   5.656   5.266 -0.0870  0.5682 -0.0610
  784MOL0     C 3361   0.307   5.728   5.344 -0.2735 -0.0204  0.5230
  784MOL0     C 3362   0.215   5.671   5.430  0.8968  0.7552  0.5971
  784MOL0     C 3363   0.203   5.533   5.434  0.2157 -0.2744  0.0314
  784MOL0     O 3364   0.114   5.463   5.507 -0.0146  0.0751  0.5228
  784MOL0     C 3365  -0.012   5.533   5.528 -0.1430  0.4308 -0.1125
  784MOL0     C 3366  -0.084   5.450   5.636  0.7536  0.2435 -1.1997
  784MOL0     C 3367  -0.226   5.508   5.647  0.7043 -0.0856  0.4272
  784MOL0     C 3368  -0.290   5.460   5.785  0.1894 -0.3464 -0.1813
  784MOL0     C 3369  -0.436   5.505   5.796 -0.3730  0.4534 -0.6806
  784MOL0     C 3370  -0.528   5.433   5.700  0.3251  0.3308  0.4840
  784MOL0     C 3371  -0.664   5.504   5.684  0.8749  0.4409 -0.5574
  784MOL0     C 3372  -0.787   5.406   5.683 -0.0192 -0.2803 -0.6947
  784MOL0     N 3373  -0.912   5.484   5.686 -0.7107  0.2953 -0.2608
  784MOL0     C 3374  -0.997   5.482   5.580 -0.0630 -0.3992 -0.3387
  784MOL0     C 3375  -1.094   5.566   5.615  0.1014  0.0591 -0.4257
  784MOL0     C 3376  -1.217   5.592   5.541  0.4270  1.1724 -0.7362
  784MOL0     C 3377  -1.341   5.592   5.633  0.2509 -0.2364 -0.7253
  784MOL0     C 3378  -1.468   5.568   5.545  0.2262  0.6905 -0.0391
  784MOL0     C 3379  -1.597   5.617   5.618  0.3962 -0.8177 -0.6081
  784MOL0     O 3380  -1.645   5.548   5.732  0.3369 -0.5913  0.2471
  784MOL0     C 3381  -1.779   5.498   5.731 -0.3892  0.6896  0.7458
  784MOL0     C 3382  -1.883   5.553   5.802  0.7942 -0.2234  0.2262
  784MOL0     C 3383  -2.015   5.515   5.785 -0.3588 -0.1470  0.1596
  784MOL0     C 3384  -2.051   5.440   5.672  0.7113  0.2752  0.3295
  784MOL0     C 3385  -2.193   5.394   5.645 -0.2645  1.0413  0.2366
  784MOL0     O 3386  -2.222   5.294   5.541 -0.2655 -0.4638  0.1872
  784MOL0     C 3387  -2.344   5.245   5.556 -0.6580 -0.7990 -0.0026
  784MOL0     C 3388  -2.362   5.113   5.596  0.4338  0.0891 -0.3001
  784MOL0     C 3389  -2.492   5.075   5.632 -1.4864 -0.1004 -0.3004
  784MOL0     C 3390  -2.603   5.160   5.616 -0.4629 -0.5541  0.0394
  784MOL0     O 3391  -2.731   5.123   5.635  0.1511 -0.2629  0.2233
  784MOL0     C 3392  -2.753   5.008   5.728 -0.4355  0.2247  0.4683
  784MOL0     C 3393  -2.906   4.983   5.742  0.1463 -0.4748  0.9111
  784MOL0     C 3394  -2.938   4.868   5.833  0.5799  0.6554  0.5568
  784MOL0     C 3395  -3.086   4.845   5.814  0.8629  1.1552 -0.3783
  784MOL0     C 3396  -3.130   4.720   5.889 -0.1714 -0.0986 -0.1647
  784MOL0     C 3397  -3.082   4.701   6.037 -0.3830 -0.0166  0.3560
  784MOL0     C 3398  -3.132   4.571   6.104 -0.4244 -0.3494  0.0346
  784MOL0     C 3399  -3.279   4.569   6.121  0.0124  0.2896 -0.4029
  784MOL0    Cl 3400  -3.339   4.712   6.213  0.2019 -0.7148  0.1004
  784MOL0     C 3401  -2.577   5.286   5.567 -0.6706 -0.0893 -0.1524
  784MOL0     C 3402  -2.452   5.332   5.534  0.1489  0.5791  0.4009
  784MOL0     O 3403  -2.277   5.448   5.723 -1.1690  0.6759 -0.0244
  784MOL0     C 3404  -1.945   5.366   5.611 -0.1097 -0.8987 -0.0133
  784MOL0     C 3405  -1.818   5.388   5.648 -0.4951 -0.0178  0.2931
  784MOL0     N 3406  -1.064   5.614   5.743  0.3376  0.0242 -0.5282
  784MOL0     N 3407  -0.957   5.566   5.788 -0.4621 -0.1436  1.1042
  784MOL0     C 3408   0.296   5.458   5.362  0.2702  0.3987 -0.5007
  784MOL0     C 3409   0.385   5.517   5.273 -0.1466  0.6122 -0.3171
  784MOL0     C 3410   0.694   5.778   5.062 -0.1380 -0.4198 -1.1725
  784MOL0     C 3411   0.769   5.740   4.949  0.4298 -0.1664 -0.9329
  784MOL0     C 3412   0.856   5.832   4.898  0.2401  0.2376  0.3987
  784MOL0     C 3413   0.865   5.959   4.942 -0.1775  0.6241 -0.3685
  784MOL0     O 3414   0.965   6.036   4.889  0.3177 -0.0427 -0.2730
  784MOL0     C 3415   0.998   6.160   4.947  0.7546  0.3007  1.2999
  784MOL0     C 3416   1.148   6.178   4.925 -0.2573  0.5534 -0.5487
  784MOL0     C 3417   1.190   6.203   4.784  0.0142 -1.2205 -0.0752
  784MOL0     C 3418   1.121   6.329   4.712 -0.8608  0.5950 -0.2160
  784MOL0     C 3419   1.159   6.335   4.577  0.3830  0.2751  0.1798
  784MOL0     C 3420   1.179   6.337   4.456  0.4512 -0.5453 -0.0687
  784MOL0     C 3421   0.783   6.001   5.048 -0.6378 -0.3628  0.8014
  784MOL0     C 3422   0.703   5.906   5.108  0.4737 -0.2566 -0.9157
  784MOL0     H 3423   0.318   5.834   5.322 -1.4296 -0.4571 -2.6411
  784MOL0     H 3424   0.153   5.736   5.491  1.9195  0.9830  1.4229
  784MOL0     H 3425  -0.081   5.537   5.443 -1.3706  2.3698  0.8878
  784MOL0     H 3426   0.001   5.628   5.580 -1.4433 -1.5280  4.2896
  784MOL0     H 3427  -0.024   5.461   5.727  1.6501 -1.4121 -1.5452
  784MOL0     H 3428  -0.073   5.342   5.623  0.1698 -0.0860  0.7300
  784MOL0     H 3429  -0.288   5.471   5.565 -3.0867  0.4158  2.8100
  784MOL0     H 3430  -0.220   5.616   5.636 -0.0086 -0.2111 -1.5263
  784MOL0     H 3431  -0.295   5.351   5.790  0.1671 -0.2820  2.3403
  784MOL0     H 3432  -0.230   5.495   5.869  2.0455 -2.2421 -0.6171
  784MOL0     H 3433  -0.449   5.612   5.781 -0.0088  0.9535  2.0078
  784MOL0     H 3434  -0.471   5.492   5.899 -0.0434  2.4817 -0.2686
  784MOL0     H 3435  -0.553   5.333   5.738  1.1500  0.1303  0.5192
  784MOL0     H 3436  -0.489   5.418   5.598 -0.6905  0.3880  0.0730
  784MOL0     H 3437  -0.672   5.578   5.764  2.1601 -1.3008  1.2710
  784MOL0     H 3438  -0.667   5.564   5.592 -3.6671  0.9316 -0.2982
  784MOL0     H 3439  -0.774   5.348   5.775  1.8912  1.6651  0.3728
  784MOL0     H 3440  -0.781   5.339   5.597 -0.5975  0.1530 -1.0791
  784MOL0     H 3441  -0.986   5.436   5.483  1.1029 -2.6350  0.8017
  784MOL0     H 3442  -1.224   5.509   5.471 -0.7999  1.6686 -1.2242
  784MOL0     H 3443  -1.209   5.682   5.479 -0.1244  1.1705 -0.8123
  784MOL0     H 3444  -1.344   5.695   5.670  3.6218  0.2931 -1.6270
  784MOL0     H 3445  -1.317   5.518   5.710  0.7742  0.7508  0.1019
  784MOL0     H 3446  -1.454   5.611   5.445  0.6727 -0.8465 -0.6664
  784MOL0     H 3447  -1.461   5.460   5.527  0.8067  0.4537  1.4694
  784MOL0     H 3448  -1.669   5.614   5.535 -0.1349  0.9803 -0.2464
  784MOL0     H 3449  -1.596   5.724   5.639 -0.8297 -0.2542 -3.0528
  784MOL0     H 3450  -1.865   5.626   5.880  0.2208  1.4031 -1.1140
  784MOL0     H 3451  -2.092   5.562   5.846 -0.4359 -0.0719  0.0046
  784MOL0     H 3452  -2.273   5.052   5.606  2.3476  2.3461 -2.2372
  784MOL0     H 3453  -2.495   4.968   5.647  1.7948 -0.3644 -0.7700
  784MOL0     H 3454  -2.702   5.029   5.823  0.2796  2.0646 -0.2719
  784MOL0     H 3455  -2.707   4.916   5.690 -2.6254 -0.3370 -1.0184
  784MOL0     H 3456  -2.952   4.968   5.644 -0.5906  3.1295  0.5487
  784MOL0     H 3457  -2.956   5.069   5.787 -1.2372 -0.6163 -0.2917
  784MOL0     H 3458  -2.914   4.901   5.934  1.0865  0.2755  0.5637
  784MOL0     H 3459  -2.885   4.776   5.807  0.6007  0.3951  1.4798
  784MOL0     H 3460  -3.149   4.924   5.854  0.6517  1.1539 -0.7068
  784MOL0     H 3461  -3.111   4.832   5.709  2.9947 -1.2472 -0.7061
  784MOL0     H 3462  -3.097   4.629   5.837 -1.1853 -0.4724 -0.1704
  784MOL0     H 3463  -3.239   4.715   5.881 -0.2366 -0.9387  0.9536
  784MOL0     H 3464  -3.108   4.785   6.101  1.5284 -1.1087  2.7081
  784MOL0     H 3465  -2.974   4.696   6.022 -0.5164 -0.1836 -0.6170
  784MOL0     H 3466  -3.091   4.495   6.037  0.4782  0.5996 -0.5181
  784MOL0     H 3467  -3.082   4.548   6.199 -1.4856  1.7045  1.1757
  784MOL0     H 3468  -3.310   4.477   6.173 -0.4292 -1.2402 -3.1734
  784MOL0     H 3469  -3.327   4.576   6.023  2.7443  1.3423 -1.7409
  784MOL0     H 3470  -2.658   5.358   5.565 -0.7897 -0.2090  0.2473
  784MOL0     H 3471  -2.437   5.435   5.504  1.8070  0.1103 -0.5328
  784MOL0     H 3472  -1.952   5.289   5.534  0.3582  0.3895 -1.3823
  784MOL0     H 3473  -1.739   5.348   5.585  0.4744  1.0346  0.8022
  784MOL0     H 3474   0.285   5.351   5.379  0.1424 -0.1640 -3.6026
  784MOL0     H 3475   0.453   5.451   5.220  3.0330  0.8646  3.0329
  784MOL0     H 3476   0.763   5.634   4.926  0.9359 -1.0866  2.6374
  784MOL0     H 3477   0.923   5.807   4.816 -0.8239 -0.1399 -0.3718
  784MOL0     H 3478   0.991   6.154   5.056  4.5320 -0.4221  1.6290
  784MOL0     H 3479   0.944   6.249   4.912 -1.2160 -1.9718 -1.9556
  784MOL0     H 3480   1.180   6.263   4.986 -2.7971  1.2630 -0.0721
  784MOL0     H 3481   1.197   6.082   4.946  1.3057  1.6754  1.2187
  784MOL0     H 3482   1.166   6.118   4.721  0.6138 -2.3910  1.2151
  784MOL0     H 3483   1.297   6.224   4.785 -0.0912 -0.6721  0.3027
  784MOL0     H 3484   1.013   6.313   4.716 -0.6361 -1.5299 -1.3565
  784MOL0     H 3485   1.134   6.425   4.764  1.2848 -0.4392  1.3149
  784MOL0     H 3486   1.199   6.340   4.351  1.3352 -0.1179  0.1042
  784MOL0     H 3487   0.796   6.102   5.085  1.8957  0.4103 -1.8143
  784MOL0     H 3488   0.652   5.919   5.203  0.0422 -3.5411 -0.5974
  785MOL0     O 3489   0.740   5.458  10.223  1.0941  0.5261  0.3559
  785MOL0     C 3490   0.754   5.568  10.273  1.0256 -0.5455 -0.8087
  785MOL0     O 3491   0.678   5.686  10.256  0.4062  0.5286 -0.2562
  785MOL0     C 3492   0.564   5.680  10.181 -0.1339  0.5923 -0.2135
  785MOL0     C 3493   0.530   5.799  10.121  0.1865  0.7580 -0.9934
  785MOL0     C 3494   0.417   5.814  10.042 -0.1177  0.4030 -0.3545
  785MOL0     C 3495   0.326   5.706  10.032 -0.3181 -0.6074 -0.3698
  785MOL0     O 3496   0.207   5.731   9.974 -0.0619  0.2840 -0.4731
  785MOL0     C 3497   0.128   5.618   9.934  1.0657 -0.4346  0.2097
  785MOL0     C 3498   0.033   5.668   9.824 -0.5150  0.2119 -0.3064
  785MOL0     C 3499  -0.035   5.542   9.762  0.6137  0.7618 -0.3192
  785MOL0     C 3500  -0.119   5.577   9.639 -0.4927  0.2650  0.6175
  785MOL0     C 3501  -0.251   5.637   9.678  1.1200  0.5768  1.1779
  785MOL0     C 3502  -0.335   5.680   9.559  0.0017 -0.7052 -0.8430
  785MOL0     C 3503  -0.482   5.708   9.601  0.3209 -0.8124  1.5951
  785MOL0     C 3504  -0.495   5.860   9.631 -0.9213 -0.2602 -0.3236
  785MOL0     N 3505  -0.639   5.900   9.630  0.0917  0.4043 -0.6287
  785MOL0     C 3506  -0.742   5.883   9.539 -0.1559  0.3478  0.1391
  785MOL0     C 3507  -0.859   5.933   9.594 -0.0992 -1.5207 -1.2484
  785MOL0     C 3508  -0.995   5.942   9.532  0.1396 -0.5915  0.5318
  785MOL0     C 3509  -1.099   5.844   9.572  0.1643  0.0977 -1.0495
  785MOL0     C 3510  -1.137   5.851   9.728  0.4638 -0.0989 -1.2459
  785MOL0     C 3511  -1.241   5.749   9.772  0.5778  0.6297  0.2776
  785MOL0     O 3512  -1.369   5.791   9.732 -0.3428 -0.7286 -0.1484
  785MOL0     C 3513  -1.442   5.709   9.646 -1.3181  0.0337  1.0302
  785MOL0     C 3514  -1.572   5.746   9.636  0.3888  0.1933  0.0452
  785MOL0     C 3515  -1.668   5.677   9.564 -0.3742  0.1879 -0.2556
  785MOL0     C 3516  -1.625   5.572   9.482  0.1668 -0.7165  0.1348
  785MOL0     C 3517  -1.717   5.509   9.385 -0.1551 -0.3628 -0.5279
  785MOL0     O 3518  -1.855   5.524   9.407 -0.2305 -0.4819 -0.6548
  785MOL0     C 3519  -1.939   5.461   9.322 -0.0679  0.3043 -0.1679
  785MOL0     C 3520  -2.040   5.380   9.377 -0.0530  0.4132 -0.1350
  785MOL0     C 3521  -2.123   5.303   9.297  0.9105 -0.3063 -0.7443
  785MOL0     C 3522  -2.112   5.317   9.160 -0.1284  1.2121  0.5440
  785MOL0     O 3523  -2.196   5.245   9.074 -0.5422 -0.5171 -0.6580
  785MOL0     C 3524  -2.192   5.099   9.083 -0.5025 -0.8802 -0.3577
  785MOL0     C 3525  -2.263   5.040   8.960  0.4753 -0.1371 -0.5724
  785MOL0     C 3526  -2.209   5.076   8.817 -0.6170  0.5941 -0.3287
  785MOL0     C 3527  -2.073   5.003   8.802 -0.6694  0.5482 -0.0028
  785MOL0     C 3528  -1.971   5.090   8.725 -0.4437 -0.0679  0.1683
  785MOL0     C 3529  -2.020   5.116   8.582 -0.4740 -0.2729 -0.3514
  785MOL0     C 3530  -1.907   5.127   8.474 -0.1066  0.1737  0.8381
  785MOL0     C 3531  -1.892   5.259   8.394  0.2112 -0.3505 -0.5777
  785MOL0    Cl 3532  -2.032   5.282   8.289  0.4136 -0.0810 -0.3824
  785MOL0     C 3533  -2.029   5.414   9.104  0.0168  0.0712  0.3632
  785MOL0     C 3534  -1.939   5.483   9.188 -0.1554  0.0945 -0.3709
  785MOL0     O 3535  -1.672   5.424   9.307  0.0728 -0.1110  0.0661
  785MOL0     C 3536  -1.489   5.528   9.498 -0.2874 -0.2410  0.0797
  785MOL0     C 3537  -1.393   5.600   9.572  0.8847  0.5091  0.6935
  785MOL0     N 3538  -0.823   5.975   9.719  0.2879 -0.6179 -0.0467
  785MOL0     N 3539  -0.695   5.964   9.736  0.7577 -0.1694  0.5911
  785MOL0     C 3540   0.354   5.584  10.089  0.0387  0.3433  0.0392
  785MOL0     C 3541   0.475   5.571  10.159 -0.7127  0.7085  0.2220
  785MOL0     C 3542   0.856   5.587  10.366  0.2147  0.0292 -0.1911
  785MOL0     C 3543   0.975   5.509  10.368  1.0586 -0.3834  0.1091
  785MOL0     C 3544   1.071   5.534  10.465  0.1390 -0.0966 -0.0386
  785MOL0     C 3545   1.067   5.634  10.556  0.0879 -0.1400 -0.2943
  785MOL0     O 3546   1.159   5.667  10.647 -1.0894  0.0008 -0.4432
  785MOL0     C 3547   1.280   5.590  10.668 -0.5246 -0.3374  0.2706
  785MOL0     C 3548   1.381   5.659  10.757  0.2576 -0.1713  0.6342
  785MOL0     C 3549   1.321   5.661  10.906  0.0602  0.0967 -0.2855
  785MOL0     C 3550   1.408   5.766  10.983  0.1119  0.3475  0.6919
  785MOL0     C 3551   1.559   5.736  10.977  0.7212  0.6420 -0.5818
  785MOL0     C 3552   1.672   5.704  10.961  0.0821 -0.1956 -0.7744
  785MOL0     C 3553   0.955   5.725  10.547  0.4717 -0.0442 -0.3992
  785MOL0     C 3554   0.844   5.692  10.456  0.1079  0.8553 -0.7048
  785MOL0     H 3555   0.603   5.879  10.135 -0.7301  1.4494 -0.0738
  785MOL0     H 3556   0.388   5.904   9.989  0.6568  1.2865  0.6965
  785MOL0     H 3557   0.083   5.569  10.020 -0.9017  1.9237  0.6185
  785MOL0     H 3558   0.194   5.545   9.886  1.5044  0.1018 -0.0231
  785MOL0     H 3559   0.098   5.718   9.752 -2.3754 -1.6623 -3.4935
  785MOL0     H 3560  -0.048   5.732   9.859 -2.0378 -0.3768 -2.5424
  785MOL0     H 3561  -0.103   5.493   9.833  1.1902  0.4737  0.0440
  785MOL0     H 3562   0.046   5.475   9.732  0.7205 -0.5102  2.4444
  785MOL0     H 3563  -0.062   5.650   9.582  1.4457 -0.5644  1.4027
  785MOL0     H 3564  -0.133   5.488   9.576  0.9077 -0.4531  1.2824
  785MOL0     H 3565  -0.230   5.730   9.730 -0.5159  3.0226 -2.1184
  785MOL0     H 3566  -0.302   5.557   9.732  0.1347 -0.6910 -1.4407
  785MOL0     H 3567  -0.329   5.590   9.497  1.5836 -1.2083 -0.0042
  785MOL0     H 3568  -0.287   5.755   9.495 -0.6279 -0.1066 -0.6242
  785MOL0     H 3569  -0.555   5.686   9.522  0.7887 -0.9734  1.2019
  785MOL0     H 3570  -0.518   5.650   9.687 -1.0855 -0.6434  1.1428
  785MOL0     H 3571  -0.436   5.911   9.554 -0.2091 -1.4085 -0.5658
  785MOL0     H 3572  -0.451   5.886   9.728 -0.8440 -0.5862 -0.2717
  785MOL0     H 3573  -0.739   5.852   9.435 -1.9182 -2.3335  0.7825
  785MOL0     H 3574  -0.974   5.934   9.425  0.3213 -1.1060  0.6032
  785MOL0     H 3575  -1.029   6.044   9.553 -2.8718 -2.0277  3.5881
  785MOL0     H 3576  -1.040   5.756   9.545  0.4149 -0.4900  1.2107
  785MOL0     H 3577  -1.187   5.853   9.508 -1.8686  0.9731  1.6537
  785MOL0     H 3578  -1.053   5.830   9.795 -1.8299 -0.0492  1.8667
  785MOL0     H 3579  -1.185   5.947   9.750 -1.3463 -0.9451 -1.3243
  785MOL0     H 3580  -1.239   5.737   9.881 -1.8773 -1.5533  0.2049
  785MOL0     H 3581  -1.202   5.658   9.726  0.8098  1.5106 -1.3370
  785MOL0     H 3582  -1.613   5.827   9.696  1.7385  1.8472 -1.1769
  785MOL0     H 3583  -1.771   5.709   9.560  0.3081  2.7993  0.7102
  785MOL0     H 3584  -2.027   5.366   9.484  1.0654  0.6337 -0.2340
  785MOL0     H 3585  -2.196   5.231   9.334 -1.5112  1.4044 -1.9667
  785MOL0     H 3586  -2.257   5.080   9.169 -0.0128  1.9245  0.7651
  785MOL0     H 3587  -2.090   5.059   9.086  0.1991  0.7237 -1.2684
  785MOL0     H 3588  -2.371   5.058   8.959  0.3969 -0.6055 -1.9441
  785MOL0     H 3589  -2.257   4.933   8.981 -4.1983 -0.6075 -0.6637
  785MOL0     H 3590  -2.195   5.184   8.819  0.5567  0.4623 -0.7068
  785MOL0     H 3591  -2.279   5.048   8.738  0.3212 -2.6407 -0.1404
  785MOL0     H 3592  -2.032   4.972   8.899 -1.3755  0.9282  0.4195
  785MOL0     H 3593  -2.073   4.912   8.741  1.6278  0.4660  0.0198
  785MOL0     H 3594  -1.881   5.028   8.723  1.2178  2.2355 -1.6003
  785MOL0     H 3595  -1.942   5.187   8.766  0.1881  1.3304 -3.2447
  785MOL0     H 3596  -2.081   5.206   8.574 -1.5075 -0.7726  1.3710
  785MOL0     H 3597  -2.094   5.042   8.552  0.3424 -0.5587 -1.7605
  785MOL0     H 3598  -1.815   5.106   8.531  0.3818 -0.1299 -0.0511
  785MOL0     H 3599  -1.912   5.046   8.401  3.7267  1.0306 -0.6385
  785MOL0     H 3600  -1.796   5.257   8.341 -0.4840 -1.5843 -1.8605
  785MOL0     H 3601  -1.880   5.341   8.465  1.7769 -2.5042  1.7916
  785MOL0     H 3602  -2.028   5.444   8.999  1.9920 -2.0209 -0.3122
  785MOL0     H 3603  -1.866   5.544   9.137  1.4061 -2.7449 -1.7828
  785MOL0     H 3604  -1.456   5.444   9.437  1.4907 -0.3096  1.0880
  785MOL0     H 3605  -1.289   5.568   9.562 -0.2904 -3.1695 -1.5203
  785MOL0     H 3606   0.293   5.496  10.076 -0.5799  1.1358 -3.5592
  785MOL0     H 3607   0.496   5.483  10.219 -0.3909  1.1783  0.8201
  785MOL0     H 3608   0.998   5.433  10.294 -1.3513 -0.6874 -0.4015
  785MOL0     H 3609   1.156   5.467  10.461  0.4797  0.2852  0.7785
  785MOL0     H 3610   1.333   5.571  10.575  0.2668  2.4564  0.0526
  785MOL0     H 3611   1.248   5.496  10.713  0.9597 -0.2865  1.5399
  785MOL0     H 3612   1.474   5.602  10.746  0.8980  0.6737  1.4907
  785MOL0     H 3613   1.407   5.756  10.715  1.0201 -1.3082 -1.6903
  785MOL0     H 3614   1.337   5.564  10.953  2.5712  0.1939 -0.7554
  785MOL0     H 3615   1.218   5.694  10.916  0.1799  0.0404  1.4552
  785MOL0     H 3616   1.394   5.860  10.929  2.5237  2.9036  4.0917
  785MOL0     H 3617   1.365   5.781  11.083  1.5596  1.8874  1.1187
  785MOL0     H 3618   1.770   5.660  10.954 -0.1104 -0.6352 -0.7616
  785MOL0     H 3619   0.958   5.804  10.622  2.4080  1.2225 -1.7168
  785MOL0     H 3620   0.764   5.764  10.451 -0.2230  0.4615 -1.1244
  786MOL0     O 3621   2.033   7.349  10.964 -0.1716  0.5717 -0.5953
  786MOL0     C 3622   2.139   7.335  10.900  0.5313  0.3988 -0.1832
  786MOL0     O 3623   2.150   7.245  10.809 -0.3971 -0.6289 -0.3301
  786MOL0     C 3624   2.041   7.198  10.739  0.1597  0.4619 -0.2537
  786MOL0     C 3625   1.911   7.257  10.731 -0.4450  0.7335 -0.4147
  786MOL0     C 3626   1.800   7.208  10.671  0.1428 -0.1333 -0.5015
  786MOL0     C 3627   1.813   7.095  10.599  0.2321  0.0739 -0.3399
  786MOL0     O 3628   1.707   7.048  10.524  0.3140  0.1891  0.2302
  786MOL0     C 3629   1.576   7.049  10.589 -0.2295  0.8194 -0.5619
  786MOL0     C 3630   1.482   6.940  10.538 -0.7817 -0.0329 -0.6990
  786MOL0     C 3631   1.516   6.811  10.618  0.9816 -0.9422  0.2192
  786MOL0     C 3632   1.456   6.686  10.555  0.2124  0.2304 -0.9208
  786MOL0     C 3633   1.476   6.562  10.636 -0.4866 -0.0134  0.0365
  786MOL0     C 3634   1.402   6.537  10.764 -0.0169 -1.5892  0.1927
  786MOL0     C 3635   1.255   6.555  10.751  0.1538 -0.6818 -0.0443
  786MOL0     C 3636   1.198   6.439  10.660  0.3246  0.2542  0.1035
  786MOL0     N 3637   1.052   6.450  10.657  0.2150  0.5396 -0.8923
  786MOL0     C 3638   0.985   6.539  10.573 -0.0242 -0.0728  0.5425
  786MOL0     C 3639   0.871   6.474  10.542 -0.1992  0.3665  0.1483
  786MOL0     C 3640   0.781   6.534  10.434 -0.0812  0.8430  0.0282
  786MOL0     C 3641   0.833   6.526  10.292 -1.0119 -1.2381  1.3102
  786MOL0     C 3642   0.766   6.622  10.195 -0.4268 -1.4200  0.5324
  786MOL0     C 3643   0.624   6.594  10.155  0.3367  0.0756 -0.0093
  786MOL0     O 3644   0.572   6.667  10.046  0.2428  0.6398  0.4365
  786MOL0     C 3645   0.449   6.639  10.002 -0.1095 -0.0967 -1.0610
  786MOL0     C 3646   0.369   6.543  10.072  0.5576  0.7350 -0.1263
  786MOL0     C 3647   0.227   6.533  10.036 -0.5092  0.6442 -0.2197
  786MOL0     C 3648   0.183   6.595   9.926  0.7722 -0.4081  0.2252
  786MOL0     C 3649   0.051   6.566   9.868 -0.1196 -0.2020  0.7348
  786MOL0     O 3650   0.033   6.579   9.734 -0.2508 -0.0061  0.4120
  786MOL0     C 3651  -0.086   6.528   9.679 -0.8390 -0.3251 -0.4179
  786MOL0     C 3652  -0.205   6.612   9.693  0.6487 -0.2662  0.2162
  786MOL0     C 3653  -0.329   6.558   9.642 -0.4111 -0.8472  1.2940
  786MOL0     C 3654  -0.324   6.432   9.575  0.4228  0.5197  0.0905
  786MOL0     O 3655  -0.438   6.369   9.525  0.4726  0.1431 -0.0008
  786MOL0     C 3656  -0.559   6.415   9.576  0.1669  0.0116 -0.4852
  786MOL0     C 3657  -0.666   6.333   9.519  0.5273 -0.1027 -0.7546
  786MOL0     C 3658  -0.679   6.328   9.361 -0.3037 -0.2933 -0.0314
  786MOL0     C 3659  -0.779   6.215   9.334 -0.0244  0.3873  0.2575
  786MOL0     C 3660  -0.808   6.191   9.191 -0.0014 -0.3660 -0.1362
  786MOL0     C 3661  -0.691   6.116   9.119  0.0336  0.2451  0.2477
  786MOL0     C 3662  -0.731   6.037   8.994 -0.0617  0.6048 -0.1731
  786MOL0     C 3663  -0.736   6.121   8.871 -0.4272  0.3016 -0.6820
  786MOL0    Cl 3664  -0.807   6.030   8.735 -0.7179 -0.3250 -0.1872
  786MOL0     C 3665  -0.208   6.357   9.563  0.0970 -0.2209  0.1659
  786MOL0     C 3666  -0.091   6.410   9.607  0.5662  0.2332 -0.2508
  786MOL0     O 3667  -0.038   6.536   9.944 -0.4401 -0.0030 -0.4680
  786MOL0     C 3668   0.265   6.683   9.860  0.5521 -0.7373  0.6445
  786MOL0     C 3669   0.393   6.713   9.897  0.4624 -1.2138  0.8382
  786MOL0     N 3670   0.870   6.346  10.598 -0.0324  0.0857  0.6636
  786MOL0     N 3671   0.972   6.341  10.681  0.3995  0.4785 -0.3416
  786MOL0     C 3672   1.939   7.028  10.600 -0.8817 -0.5750  0.5456
  786MOL0     C 3673   2.048   7.073  10.669 -0.0568 -0.4744 -1.0236
  786MOL0     C 3674   2.259   7.413  10.930 -0.9958  0.7420  0.0069
  786MOL0     C 3675   2.382   7.387  10.866  0.3612 -0.4361 -0.0814
  786MOL0     C 3676   2.498   7.454  10.915  0.1658 -0.5500 -0.2416
  786MOL0     C 3677   2.480   7.561  11.012 -0.3356 -0.2987 -1.0947
  786MOL0     O 3678   2.583   7.640  11.056  0.3891 -0.9270  0.1744
  786MOL0     C 3679   2.713   7.590  11.068 -0.2374  0.8422 -0.3599
  786MOL0     C 3680   2.814   7.678  11.003  0.1342 -0.3739  0.2177
  786MOL0     C 3681   2.831   7.635  10.859  0.2892  0.0605  0.4816
  786MOL0     C 3682   2.915   7.498  10.848  0.1908  0.4021 -0.2836
  786MOL0     C 3683   2.860   7.420  10.730 -0.0899  0.0360 -0.3327
  786MOL0     C 3684   2.826   7.369  10.630  0.2352  1.4418  0.3126
  786MOL0     C 3685   2.360   7.582  11.074 -0.8331  0.0536 -0.4461
  786MOL0     C 3686   2.251   7.504  11.034 -0.2772 -0.1430 -0.6162
  786MOL0     H 3687   1.894   7.353  10.780 -1.5490 -1.1748  3.3289
  786MOL0     H 3688   1.710   7.269  10.679  0.8238  0.5933  2.8673
  786MOL0     H 3689   1.525   7.142  10.560 -1.2299  0.0365 -1.3586
  786MOL0     H 3690   1.583   7.047  10.698 -2.4065  1.5970 -0.3575
  786MOL0     H 3691   1.506   6.926  10.432 -0.8551  0.7441 -0.8230
  786MOL0     H 3692   1.380   6.979  10.536 -0.0468  2.3454  2.2273
  786MOL0     H 3693   1.476   6.826  10.719  1.4670  0.3313  0.2347
  786MOL0     H 3694   1.623   6.799  10.638  1.2071  0.0996 -0.3315
  786MOL0     H 3695   1.350   6.711  10.541  0.5513  1.9200 -0.7017
  786MOL0     H 3696   1.493   6.667  10.454  0.4511  1.1937 -1.0207
  786MOL0     H 3697   1.585   6.562  10.649 -0.5325  2.0065  0.6310
  786MOL0     H 3698   1.453   6.478  10.569  0.7743  0.5853 -1.2031
  786MOL0     H 3699   1.440   6.613  10.833 -1.1253 -0.1544 -0.7300
  786MOL0     H 3700   1.425   6.443  10.815 -0.8256 -1.9964 -0.1776
  786MOL0     H 3701   1.205   6.539  10.846 -1.1669  0.5744 -0.4848
  786MOL0     H 3702   1.235   6.650  10.701 -0.0565 -1.2796 -1.1331
  786MOL0     H 3703   1.233   6.343  10.699 -1.0886  0.1953  1.3108
  786MOL0     H 3704   1.232   6.454  10.557 -0.2356 -1.0428 -0.2876
  786MOL0     H 3705   1.014   6.637  10.536  0.1127 -0.5525 -0.6790
  786MOL0     H 3706   0.775   6.638  10.465  3.4201  0.5749  2.0985
  786MOL0     H 3707   0.676   6.502  10.433 -0.7589  2.8919 -1.3363
  786MOL0     H 3708   0.839   6.424  10.253  3.3739 -1.4897  2.1030
  786MOL0     H 3709   0.938   6.558  10.286 -0.5657 -2.4345  2.4145
  786MOL0     H 3710   0.762   6.718  10.249 -1.0819 -0.4625 -1.1571
  786MOL0     H 3711   0.824   6.641  10.104 -2.3880 -0.1591 -0.5361
  786MOL0     H 3712   0.563   6.608  10.245  0.6524  1.8470 -0.0302
  786MOL0     H 3713   0.631   6.487  10.133  0.7362 -0.3726  2.0176
  786MOL0     H 3714   0.401   6.469  10.144  0.7611 -0.0498 -1.0043
  786MOL0     H 3715   0.155   6.471  10.089  0.4718 -0.7992 -0.5158
  786MOL0     H 3716  -0.204   6.709   9.741 -0.0943  0.0867 -0.4715
  786MOL0     H 3717  -0.417   6.619   9.658 -0.0279  0.6989 -1.8530
  786MOL0     H 3718  -0.572   6.519   9.544 -0.4896 -0.0946 -0.5940
  786MOL0     H 3719  -0.557   6.409   9.685  1.7650  0.9548 -0.4388
  786MOL0     H 3720  -0.756   6.368   9.570  2.0065  1.6534  0.8262
  786MOL0     H 3721  -0.650   6.230   9.552  1.3493 -0.4767 -2.2267
  786MOL0     H 3722  -0.581   6.308   9.317  1.2590  1.8068  2.2093
  786MOL0     H 3723  -0.718   6.420   9.316  1.3838 -0.7667 -2.7538
  786MOL0     H 3724  -0.757   6.116   9.375 -1.4852 -0.1813 -0.2747
  786MOL0     H 3725  -0.875   6.250   9.373  0.5143  0.3342  1.6763
  786MOL0     H 3726  -0.831   6.279   9.130 -0.4217 -2.1457 -2.6607
  786MOL0     H 3727  -0.897   6.129   9.183 -0.3908  0.4009 -2.3263
  786MOL0     H 3728  -0.662   6.035   9.186  0.4535 -0.3773 -0.6579
  786MOL0     H 3729  -0.602   6.179   9.109  0.6881 -0.4534  1.5242
  786MOL0     H 3730  -0.649   5.965   8.984 -0.5230 -0.2811  2.0386
  786MOL0     H 3731  -0.828   5.986   9.000 -0.6488  1.4960 -1.5198
  786MOL0     H 3732  -0.636   6.151   8.840 -1.3458  1.5375 -2.6973
  786MOL0     H 3733  -0.792   6.213   8.892  3.8649  2.7248  1.5308
  786MOL0     H 3734  -0.209   6.265   9.505  1.6359 -0.2307  0.1267
  786MOL0     H 3735  -0.006   6.347   9.581 -0.8949 -1.7832 -0.4473
  786MOL0     H 3736   0.225   6.745   9.781  3.6189  0.8993  0.2123
  786MOL0     H 3737   0.453   6.781   9.838  0.6654 -3.3716 -1.6641
  786MOL0     H 3738   1.965   6.931  10.559 -2.8144 -0.1791 -1.8439
  786MOL0     H 3739   2.143   7.021  10.671  0.8680  1.1712  0.8564
  786MOL0     H 3740   2.388   7.306  10.794  1.5253 -1.0482  0.6645
  786MOL0     H 3741   2.593   7.434  10.866  0.1874  1.9275 -1.3448
  786MOL0     H 3742   2.718   7.491  11.021 -0.7560  1.9584 -2.9724
  786MOL0     H 3743   2.721   7.584  11.176  0.3779  3.7263 -0.1619
  786MOL0     H 3744   2.794   7.786  11.007  0.3943 -0.2829 -0.7174
  786MOL0     H 3745   2.900   7.662  11.068 -0.1036 -2.3016  0.1097
  786MOL0     H 3746   2.882   7.719  10.811 -1.2037  0.1248 -1.1201
  786MOL0     H 3747   2.738   7.625  10.802  0.9254 -3.0250 -0.1887
  786MOL0     H 3748   3.022   7.511  10.829 -0.1417  4.6708 -0.0950
  786MOL0     H 3749   2.910   7.431  10.934 -0.5731 -1.9879 -2.0592
  786MOL0     H 3750   2.794   7.309  10.547 -0.4451  0.5207  1.2056
  786MOL0     H 3751   2.356   7.657  11.153  3.6593 -0.4548  0.5155
  786MOL0     H 3752   2.151   7.498  11.076 -0.3665 -1.6442 -0.9811
  787MOL0     O 3753   7.933   1.687   0.599 -0.0157  0.6758  0.0686
  787MOL0     C 3754   7.978   1.670   0.709  0.9580  0.3830 -0.6550
  787MOL0     O 3755   7.903   1.632   0.823  0.5156  0.3627  0.2103
  787MOL0     C 3756   7.766   1.615   0.797 -0.5164  0.3448  0.4464
  787MOL0     C 3757   7.683   1.720   0.741  0.3179 -0.0617 -0.4137
  787MOL0     C 3758   7.549   1.713   0.753 -0.3683  0.1007  0.8553
  787MOL0     C 3759   7.492   1.602   0.820 -0.1439  0.0112  0.8758
  787MOL0     O 3760   7.357   1.609   0.839 -0.3065 -0.5229  0.2393
  787MOL0     C 3761   7.278   1.512   0.767  0.2137 -0.5798 -0.4412
  787MOL0     C 3762   7.196   1.429   0.866  0.2483 -0.2776 -0.8185
  787MOL0     C 3763   7.085   1.349   0.806  0.1751  0.1212 -0.8969
  787MOL0     C 3764   6.997   1.306   0.921  0.2169  0.2951 -0.3059
  787MOL0     C 3765   6.853   1.270   0.893 -0.4545  0.2795  0.4345
  787MOL0     C 3766   6.782   1.201   1.015 -0.0437  0.5780 -0.7436
  787MOL0     C 3767   6.622   1.198   0.991  0.7698 -1.2022  0.8812
  787MOL0     C 3768   6.593   1.080   0.908  0.2403  0.0347 -0.9238
  787MOL0     N 3769   6.452   1.073   0.864  0.2916  0.1484 -1.5213
  787MOL0     C 3770   6.411   1.121   0.749  0.3194 -0.6794  0.0548
  787MOL0     C 3771   6.276   1.108   0.745  0.2272 -0.4026 -0.5192
  787MOL0     C 3772   6.162   1.145   0.649  0.1377  0.0200  0.0658
  787MOL0     C 3773   6.186   1.293   0.610 -0.2601 -1.0046  0.1965
  787MOL0     C 3774   6.077   1.344   0.518  0.9447  0.5439 -0.3423
  787MOL0     C 3775   5.927   1.345   0.573  0.3497 -0.2506 -0.3820
  787MOL0     O 3776   5.843   1.411   0.486 -0.2257  0.1515  0.3816
  787MOL0     C 3777   5.716   1.424   0.539  0.8418  0.2545  0.5236
  787MOL0     C 3778   5.622   1.322   0.522 -0.1870  0.0580  0.2493
  787MOL0     C 3779   5.489   1.331   0.580  0.5389  0.0637 -0.4814
  787MOL0     C 3780   5.459   1.442   0.658 -0.0599 -1.2412  0.2599
  787MOL0     C 3781   5.335   1.447   0.733  0.4472  0.9454  0.5298
  787MOL0     O 3782   5.264   1.326   0.731  0.1001 -0.6752  0.1650
  787MOL0     C 3783   5.137   1.306   0.778  0.6986  1.0338 -0.1520
  787MOL0     C 3784   5.033   1.402   0.791  0.3193  0.3169  0.1487
  787MOL0     C 3785   4.910   1.359   0.851 -0.2572 -1.8268 -0.6192
  787MOL0     C 3786   4.887   1.228   0.887 -0.2944  0.4764 -0.4973
  787MOL0     O 3787   4.767   1.181   0.935 -0.4654  0.2342  0.1367
  787MOL0     C 3788   4.733   1.038   0.921  0.1077  0.1466  1.6001
  787MOL0     C 3789   4.585   1.005   0.947  0.3287  0.1977 -0.4492
  787MOL0     C 3790   4.491   1.053   0.831  0.7586  0.3981 -0.2814
  787MOL0     C 3791   4.351   1.016   0.856  0.3575 -0.1227 -0.6956
  787MOL0     C 3792   4.259   1.108   0.783  0.4357 -0.4313 -0.8596
  787MOL0     C 3793   4.111   1.072   0.789  0.1181 -0.2977  0.4384
  787MOL0     C 3794   4.025   1.159   0.689  0.2919  1.3488  0.0952
  787MOL0     C 3795   3.900   1.093   0.638  0.4993 -0.2476 -0.4118
  787MOL0    Cl 3796   3.785   1.052   0.766  0.3065  0.1438  0.1629
  787MOL0     C 3797   4.995   1.136   0.865  0.0858  0.4827 -0.7184
  787MOL0     C 3798   5.117   1.174   0.807  0.2526  0.1602  0.0531
  787MOL0     O 3799   5.297   1.551   0.779  0.6917 -1.0192  0.1319
  787MOL0     C 3800   5.557   1.539   0.688  0.0894  0.4880 -0.1090
  787MOL0     C 3801   5.683   1.533   0.626 -0.5332 -0.1149  0.2856
  787MOL0     N 3802   6.240   1.044   0.864 -1.2478 -0.5668 -0.4985
  787MOL0     N 3803   6.347   1.033   0.941  0.5471 -0.2587 -0.1909
  787MOL0     C 3804   7.569   1.502   0.855 -0.0082  0.1381  0.1046
  787MOL0     C 3805   7.709   1.506   0.853  0.3174  0.3171 -0.5056
  787MOL0     C 3806   8.118   1.715   0.715  0.0062  1.1172  0.7450
  787MOL0     C 3807   8.183   1.708   0.838 -0.1811  0.3614 -0.5050
  787MOL0     C 3808   8.325   1.719   0.851  0.1648 -0.2845  0.2436
  787MOL0     C 3809   8.397   1.731   0.736 -0.0661 -0.1618  0.5160
  787MOL0     O 3810   8.523   1.766   0.758  0.4675 -0.0441 -1.0388
  787MOL0     C 3811   8.622   1.775   0.661  0.0910  1.0425  0.8067
  787MOL0     C 3812   8.756   1.789   0.733 -0.9517  1.6951  0.0626
  787MOL0     C 3813   8.813   1.651   0.775 -0.8179  0.2744  0.2566
  787MOL0     C 3814   8.957   1.656   0.841  0.0551 -0.5047  0.6757
  787MOL0     C 3815   9.041   1.723   0.748 -0.6653 -0.2509 -0.7848
  787MOL0     C 3816   9.093   1.792   0.665 -0.4452  0.1169  0.2075
  787MOL0     C 3817   8.341   1.737   0.610  0.1557  0.3903 -0.4725
  787MOL0     C 3818   8.200   1.710   0.597  0.2036 -0.2361  0.4246
  787MOL0     H 3819   7.725   1.809   0.694 -1.2700 -0.8140 -3.5187
  787MOL0     H 3820   7.489   1.798   0.722  0.4850 -0.0876 -1.4925
  787MOL0     H 3821   7.340   1.462   0.691 -1.8569 -4.7366  0.2986
  787MOL0     H 3822   7.201   1.570   0.716 -1.9715 -0.6466  2.5406
  787MOL0     H 3823   7.154   1.484   0.951  1.8119 -1.5399  0.8661
  787MOL0     H 3824   7.269   1.361   0.911  0.1390  0.1565  0.0368
  787MOL0     H 3825   7.104   1.258   0.750 -0.8413 -1.1215  0.6929
  787MOL0     H 3826   7.031   1.415   0.738 -0.0023  0.5661 -0.3422
  787MOL0     H 3827   7.048   1.222   0.968 -0.6964  0.4475  1.0096
  787MOL0     H 3828   6.989   1.383   0.998 -0.0877  1.1480 -1.1677
  787MOL0     H 3829   6.849   1.208   0.803 -0.5780 -0.1903  0.7594
  787MOL0     H 3830   6.804   1.364   0.867  1.3556  2.3096  3.6499
  787MOL0     H 3831   6.800   1.261   1.104 -1.6318  0.3623 -0.2442
  787MOL0     H 3832   6.822   1.103   1.043 -1.7945  0.3823  1.2991
  787MOL0     H 3833   6.561   1.197   1.082  2.5813 -1.3974  2.1380
  787MOL0     H 3834   6.597   1.295   0.946  0.9865 -1.7655 -0.5165
  787MOL0     H 3835   6.616   0.997   0.976  1.0147  1.3982  0.5502
  787MOL0     H 3836   6.660   1.079   0.821  2.4057  0.3233  0.6576
  787MOL0     H 3837   6.465   1.144   0.658  0.5520  0.1652  0.4061
  787MOL0     H 3838   6.062   1.129   0.691 -0.0238 -1.4559 -0.8079
  787MOL0     H 3839   6.161   1.082   0.559  0.6440  0.0292  0.0526
  787MOL0     H 3840   6.282   1.290   0.557 -1.0923 -1.4147 -1.3460
  787MOL0     H 3841   6.188   1.355   0.700 -1.9458 -1.2229  0.4268
  787MOL0     H 3842   6.099   1.448   0.495 -1.7956  1.0946 -0.8593
  787MOL0     H 3843   6.074   1.295   0.420 -0.1509  1.5455 -0.8277
  787MOL0     H 3844   5.936   1.402   0.666  0.0195 -0.5249 -0.1796
  787MOL0     H 3845   5.891   1.243   0.591  1.1559 -0.1977  1.8998
  787MOL0     H 3846   5.652   1.232   0.468 -1.1844 -2.4676  3.6001
  787MOL0     H 3847   5.417   1.251   0.565  2.7691 -2.9430  3.1269
  787MOL0     H 3848   5.036   1.503   0.752 -0.9557  0.4158  0.2737
  787MOL0     H 3849   4.824   1.426   0.855 -0.4763 -2.0121 -1.7922
  787MOL0     H 3850   4.802   0.975   0.979  3.4002  0.3935 -1.6403
  787MOL0     H 3851   4.747   1.007   0.817  1.7492  0.5589  1.6664
  787MOL0     H 3852   4.566   1.050   1.045  1.5502  1.5360 -0.7964
  787MOL0     H 3853   4.567   0.898   0.955  1.0868  0.1142  0.2995
  787MOL0     H 3854   4.511   1.012   0.732 -2.0771  0.1105 -0.8212
  787MOL0     H 3855   4.507   1.159   0.811  1.0596  0.3560 -0.2701
  787MOL0     H 3856   4.341   0.909   0.835  0.9135  0.1120 -2.2571
  787MOL0     H 3857   4.329   1.046   0.959 -5.0673 -0.1810 -1.5363
  787MOL0     H 3858   4.274   1.111   0.675 -4.9661 -2.2525 -1.9218
  787MOL0     H 3859   4.274   1.212   0.814 -0.8518  0.3859 -2.7983
  787MOL0     H 3860   4.074   1.095   0.889  0.0540  0.7312  0.1871
  787MOL0     H 3861   4.105   0.966   0.764 -1.3624 -1.2806  4.2961
  787MOL0     H 3862   3.999   1.246   0.750 -0.9550 -0.7469  2.7533
  787MOL0     H 3863   4.083   1.194   0.603  0.9517 -1.6364 -0.8040
  787MOL0     H 3864   3.940   1.001   0.595  1.9817 -0.0062  0.3831
  787MOL0     H 3865   3.843   1.150   0.564 -1.4804  0.2985  1.4454
  787MOL0     H 3866   5.000   1.031   0.892  1.7446  1.0255  1.4285
  787MOL0     H 3867   5.187   1.093   0.792 -0.6667 -0.6059 -0.1828
  787MOL0     H 3868   5.535   1.624   0.752  2.8959  2.0373 -1.0181
  787MOL0     H 3869   5.752   1.614   0.644 -0.7930 -0.0636  1.1104
  787MOL0     H 3870   7.510   1.415   0.883 -2.9181  0.2516 -4.5598
  787MOL0     H 3871   7.769   1.421   0.882  1.4022  2.2236  3.5688
  787MOL0     H 3872   8.121   1.698   0.926  0.6420 -0.8410 -0.0298
  787MOL0     H 3873   8.364   1.707   0.952 -0.7301 -0.8143  0.5455
  787MOL0     H 3874   8.603   1.866   0.604 -2.0541  0.8006  1.0387
  787MOL0     H 3875   8.624   1.698   0.583 -0.3805  1.1533  0.6783
  787MOL0     H 3876   8.819   1.853   0.672  2.9067  0.7785  2.6933
  787MOL0     H 3877   8.744   1.843   0.827 -0.1091  0.6412  0.8147
  787MOL0     H 3878   8.823   1.586   0.688 -0.9359  0.9141 -0.2407
  787MOL0     H 3879   8.756   1.601   0.853  0.7374 -0.4880  0.9570
  787MOL0     H 3880   8.944   1.710   0.936  2.1572  1.4268 -0.0326
  787MOL0     H 3881   9.003   1.560   0.866 -2.1090 -1.4162  1.4392
  787MOL0     H 3882   9.143   1.867   0.606  1.2625 -1.5066 -0.5024
  787MOL0     H 3883   8.395   1.747   0.516 -1.3434  2.1799 -1.2175
  787MOL0     H 3884   8.148   1.691   0.504  1.2335  1.6424 -0.5943
  788MOL0     O 3885   4.160   5.128   8.921  0.5564 -0.1751  1.0822
  788MOL0     C 3886   4.135   5.086   9.033 -0.6796 -0.1683  0.7782
  788MOL0     O 3887   4.011   5.071   9.092 -0.2418 -0.5785  0.2170
  788MOL0     C 3888   3.924   5.164   9.034  0.4353  0.9030  0.2158
  788MOL0     C 3889   3.812   5.121   8.965 -0.9051 -0.3957  0.1141
  788MOL0     C 3890   3.722   5.206   8.906  0.0750  0.3070  0.2401
  788MOL0     C 3891   3.734   5.341   8.934  0.4738 -1.3263 -0.9794
  788MOL0     O 3892   3.633   5.418   8.883  0.3323  0.1862 -0.5633
  788MOL0     C 3893   3.634   5.560   8.891 -0.3954  0.7614  0.1319
  788MOL0     C 3894   3.489   5.603   8.870  0.0221  0.0898 -0.2393
  788MOL0     C 3895   3.435   5.529   8.753 -0.3786 -0.0223  0.7026
  788MOL0     C 3896   3.310   5.587   8.689  0.0515 -0.1316 -0.5389
  788MOL0     C 3897   3.258   5.514   8.568  0.5494  0.2592  0.5399
  788MOL0     C 3898   3.137   5.574   8.500  0.5657  0.8404  0.2516
  788MOL0     C 3899   3.073   5.490   8.386 -0.4446  0.7811  0.3166
  788MOL0     C 3900   3.000   5.370   8.440  1.0857 -0.2710  0.6460
  788MOL0     N 3901   2.886   5.322   8.354 -0.5804 -0.6260 -0.4643
  788MOL0     C 3902   2.878   5.201   8.292 -0.4635  1.1559  0.0432
  788MOL0     C 3903   2.767   5.207   8.220 -0.8053  1.2495  0.6790
  788MOL0     C 3904   2.722   5.106   8.121  0.4937  0.2501  0.5275
  788MOL0     C 3905   2.572   5.105   8.098  0.0918  0.5210 -0.2253
  788MOL0     C 3906   2.495   5.058   8.227 -1.2584  0.3830  0.1305
  788MOL0     C 3907   2.349   5.036   8.198 -0.3643 -0.0783  0.6309
  788MOL0     O 3908   2.307   5.146   8.123  0.0295  0.9459  0.8217
  788MOL0     C 3909   2.181   5.144   8.066  0.5222 -0.6526  0.3611
  788MOL0     C 3910   2.106   5.035   8.019 -0.3250 -0.1173  0.5622
  788MOL0     C 3911   1.985   5.058   7.957  0.2731 -0.5240 -0.2158
  788MOL0     C 3912   1.925   5.191   7.959 -0.6673 -0.1633 -0.3364
  788MOL0     C 3913   1.784   5.210   7.914  0.3220  0.0046 -1.1109
  788MOL0     O 3914   1.713   5.097   7.875 -0.0264  0.5058  0.1795
  788MOL0     C 3915   1.594   5.117   7.804  0.3371  0.4007  1.1628
  788MOL0     C 3916   1.488   5.025   7.822 -0.5162 -0.2213 -0.4935
  788MOL0     C 3917   1.363   5.031   7.760  0.3256  0.3181 -0.0428
  788MOL0     C 3918   1.339   5.151   7.687  0.2654 -0.0772 -0.6989
  788MOL0     O 3919   1.211   5.148   7.633 -0.1615 -0.4468 -0.1028
  788MOL0     C 3920   1.180   5.244   7.529  0.6694  0.3240 -0.1262
  788MOL0     C 3921   1.090   5.171   7.419 -0.5812 -0.6988  0.2350
  788MOL0     C 3922   0.955   5.109   7.463 -0.1347 -0.9469 -0.1252
  788MOL0     C 3923   0.869   5.033   7.356 -0.1815 -0.0259 -0.7647
  788MOL0     C 3924   0.728   5.010   7.415 -0.2957 -0.2770  0.2327
  788MOL0     C 3925   0.651   4.922   7.311  0.2007 -0.2778  0.5176
  788MOL0     C 3926   0.495   4.935   7.355 -0.3968 -0.0982 -0.5439
  788MOL0     C 3927   0.388   4.865   7.267  0.1099 -0.3468 -0.3013
  788MOL0    Cl 3928   0.411   4.681   7.264 -0.2541 -0.1837 -0.2601
  788MOL0     C 3929   1.441   5.240   7.659 -0.9796  0.1633  0.4849
  788MOL0     C 3930   1.569   5.225   7.715 -0.3179  0.2435 -0.3099
  788MOL0     O 3931   1.732   5.322   7.935 -0.0361 -0.0184  0.7839
  788MOL0     C 3932   2.001   5.299   8.008 -0.7380  0.9266 -0.0508
  788MOL0     C 3933   2.129   5.277   8.054  0.4928  0.0481 -0.0308
  788MOL0     N 3934   2.706   5.333   8.242  0.3219  0.5477 -0.8688
  788MOL0     N 3935   2.780   5.401   8.325 -0.6904 -0.0923  0.2543
  788MOL0     C 3936   3.848   5.392   8.999  0.9872  0.2096 -0.0799
  788MOL0     C 3937   3.943   5.300   9.052  0.1631 -0.5376 -0.3361
  788MOL0     C 3938   4.255   5.041   9.112 -0.3301 -0.6350 -0.0300
  788MOL0     C 3939   4.386   5.053   9.073 -0.2907  0.4154  0.5002
  788MOL0     C 3940   4.492   4.997   9.146  0.0958  0.3073  0.0294
  788MOL0     C 3941   4.466   4.951   9.275  0.4859  0.6563 -0.8580
  788MOL0     O 3942   4.567   4.912   9.367 -0.0096  0.4020 -0.4744
  788MOL0     C 3943   4.626   5.027   9.436  0.5419 -0.1615 -0.7254
  788MOL0     C 3944   4.714   4.982   9.549 -0.0743 -0.1904  0.4855
  788MOL0     C 3945   4.656   4.884   9.658 -0.1461 -1.8504  0.7557
  788MOL0     C 3946   4.763   4.846   9.758  0.0994 -0.1366 -0.2024
  788MOL0     C 3947   4.706   4.742   9.846  0.5092  0.3734  0.1313
  788MOL0     C 3948   4.674   4.650   9.918 -0.2639  0.0900 -0.6829
  788MOL0     C 3949   4.336   4.942   9.321  0.5929  0.6477 -0.0835
  788MOL0     C 3950   4.234   4.991   9.242  0.3031 -0.4017 -0.0327
  788MOL0     H 3951   3.797   5.015   8.947  0.3582 -0.0328 -4.4223
  788MOL0     H 3952   3.626   5.174   8.867 -1.4598  1.1973  2.9400
  788MOL0     H 3953   3.704   5.585   8.811 -2.6842 -0.8390 -2.5314
  788MOL0     H 3954   3.663   5.606   8.986 -1.3290  1.3225  0.1612
  788MOL0     H 3955   3.483   5.709   8.845  1.9517  0.4168  0.4818
  788MOL0     H 3956   3.435   5.588   8.964  0.7949 -0.1152  0.1820
  788MOL0     H 3957   3.408   5.424   8.765  1.6349 -0.7572 -0.5811
  788MOL0     H 3958   3.514   5.531   8.677 -0.9058  1.1526  0.1639
  788MOL0     H 3959   3.238   5.594   8.771  2.3621  1.7446  1.4998
  788MOL0     H 3960   3.330   5.690   8.658 -0.8315  1.1560  2.7494
  788MOL0     H 3961   3.225   5.411   8.589  0.3462  0.1115 -0.4560
  788MOL0     H 3962   3.337   5.496   8.495 -0.1877  0.6162 -0.3699
  788MOL0     H 3963   3.164   5.669   8.453 -0.7449  0.0603 -2.2539
  788MOL0     H 3964   3.067   5.586   8.583  1.0177 -0.1998  0.7993
  788MOL0     H 3965   2.997   5.556   8.342  0.4787  2.2191  0.7869
  788MOL0     H 3966   3.142   5.452   8.310  0.8109  0.6628  1.4611
  788MOL0     H 3967   2.973   5.393   8.544  0.6377 -2.4240  1.0486
  788MOL0     H 3968   3.071   5.288   8.455  2.0296  0.5551  0.7842
  788MOL0     H 3969   2.948   5.118   8.302 -1.8141  0.1551  1.9840
  788MOL0     H 3970   2.744   5.005   8.156 -1.3713 -0.8598 -1.2736
  788MOL0     H 3971   2.770   5.126   8.025  3.1622  0.8390  1.8707
  788MOL0     H 3972   2.549   5.033   8.019  0.3186 -0.8031  0.8881
  788MOL0     H 3973   2.541   5.206   8.069  0.1953  1.0565  1.4325
  788MOL0     H 3974   2.532   4.960   8.262 -0.1533  1.1963  1.3520
  788MOL0     H 3975   2.514   5.129   8.308  0.6292 -1.1420  1.1349
  788MOL0     H 3976   2.291   5.020   8.290 -1.8536  1.6891  0.0648
  788MOL0     H 3977   2.334   4.941   8.148  3.5262 -0.9557  0.8491
  788MOL0     H 3978   2.145   4.937   8.045  1.8133  0.5708  0.1148
  788MOL0     H 3979   1.913   4.982   7.926  0.0999 -0.3358 -0.2807
  788MOL0     H 3980   1.500   4.943   7.892 -3.1088 -0.0468  0.2606
  788MOL0     H 3981   1.279   4.963   7.772  0.0712 -0.6612 -5.2026
  788MOL0     H 3982   1.265   5.286   7.475  1.0705  1.5725  1.4213
  788MOL0     H 3983   1.127   5.329   7.573  1.4527  0.4764  0.5374
  788MOL0     H 3984   1.153   5.084   7.401  0.0380 -0.4186  0.9891
  788MOL0     H 3985   1.074   5.241   7.337  4.2795 -0.3855 -0.7255
  788MOL0     H 3986   0.892   5.183   7.514 -2.0521 -2.2247 -0.5422
  788MOL0     H 3987   0.983   5.031   7.535  1.4703  1.3958  1.9504
  788MOL0     H 3988   0.853   5.090   7.264 -1.0364  2.8015  1.0166
  788MOL0     H 3989   0.926   4.944   7.328  0.8085  0.5362 -0.5980
  788MOL0     H 3990   0.677   5.103   7.443  1.2935  0.2752  1.4783
  788MOL0     H 3991   0.738   4.960   7.512  0.6902 -0.3871  0.0821
  788MOL0     H 3992   0.675   4.815   7.317 -1.7349 -0.7170  1.1054
  788MOL0     H 3993   0.675   4.959   7.211 -0.9346 -1.0911 -0.0772
  788MOL0     H 3994   0.483   4.903   7.459 -1.0706 -0.7417 -0.8145
  788MOL0     H 3995   0.461   5.039   7.362 -2.7045 -0.8819  1.0320
  788MOL0     H 3996   0.412   4.900   7.166  1.4620 -1.9224 -0.5832
  788MOL0     H 3997   0.286   4.893   7.295  0.9140  1.0181  1.4147
  788MOL0     H 3998   1.429   5.329   7.599 -1.4263 -1.2432 -1.6300
  788MOL0     H 3999   1.640   5.298   7.679  0.5433  0.1561  1.1286
  788MOL0     H 4000   1.964   5.401   8.000  2.9730  2.3204 -2.3320
  788MOL0     H 4001   2.179   5.366   8.088 -0.7591  0.6900  0.1853
  788MOL0     H 4002   3.854   5.499   9.019  0.3954  0.2483 -0.0791
  788MOL0     H 4003   4.027   5.343   9.106  0.2300 -2.2185  1.0125
  788MOL0     H 4004   4.397   5.098   8.975  0.0118  0.9704  0.7824
  788MOL0     H 4005   4.594   4.990   9.110 -0.0938  1.8006 -0.8656
  788MOL0     H 4006   4.545   5.071   9.494  0.6041 -3.1424  1.8944
  788MOL0     H 4007   4.686   5.090   9.370  3.0963 -0.5327  1.0804
  788MOL0     H 4008   4.798   4.930   9.501 -1.5826 -0.3280 -2.2238
  788MOL0     H 4009   4.741   5.072   9.604 -0.6458 -1.0191  2.1770
  788MOL0     H 4010   4.596   4.803   9.616 -3.7537  0.3543  1.2505
  788MOL0     H 4011   4.578   4.936   9.713 -0.4545 -1.3519 -0.1223
  788MOL0     H 4012   4.852   4.803   9.710  0.5347  1.0543 -0.4888
  788MOL0     H 4013   4.801   4.922   9.827 -1.3552 -1.6305  2.4273
  788MOL0     H 4014   4.652   4.574   9.990  0.4491 -0.1865 -0.7491
  788MOL0     H 4015   4.328   4.903   9.422 -2.0695 -2.2176 -1.2060
  788MOL0     H 4016   4.133   4.992   9.282 -0.1233  1.4093 -1.0835
  789MOL0     O 4017   9.123  10.464   7.863  0.1998 -0.3975 -0.1358
  789MOL0     C 4018   9.178  10.512   7.960 -0.1651 -0.2533 -0.6133
  789MOL0     O 4019   9.117  10.539   8.078  0.3205  0.0558  0.7582
  789MOL0     C 4020   8.976  10.526   8.080  0.1690  0.5155 -0.4131
  789MOL0     C 4021   8.921  10.404   8.131  0.1955  1.2215  0.2634
  789MOL0     C 4022   8.791  10.384   8.140  0.2650 -0.6289  0.1470
  789MOL0     C 4023   8.704  10.483   8.094 -0.8558  0.4612  0.6878
  789MOL0     O 4024   8.566  10.470   8.091  0.0506  0.1789 -0.0795
  789MOL0     C 4025   8.503  10.480   8.220 -0.4895  0.2634  0.5514
  789MOL0     C 4026   8.362  10.418   8.225 -0.3572  0.5409 -0.5471
  789MOL0     C 4027   8.256  10.518   8.192  0.4484  0.2366 -0.3093
  789MOL0     C 4028   8.111  10.481   8.234  0.0392  0.0125 -0.0978
  789MOL0     C 4029   8.017  10.594   8.199 -0.5735  0.8368 -0.3230
  789MOL0     C 4030   7.879  10.575   8.265  0.6913 -0.0849  0.1221
  789MOL0     C 4031   7.803  10.435   8.222 -0.1484 -0.4195  0.3370
  789MOL0     C 4032   7.652  10.455   8.210  0.1744 -0.2557 -0.6826
  789MOL0     N 4033   7.593  10.339   8.149  0.5742  0.7555  0.6462
  789MOL0     C 4034   7.463  10.323   8.104  0.7922 -0.9216  0.2857
  789MOL0     C 4035   7.434  10.187   8.108 -0.0656  0.0540 -0.1374
  789MOL0     C 4036   7.291  10.125   8.092 -0.7426 -0.1536  0.5077
  789MOL0     C 4037   7.203  10.143   8.213  0.3027 -0.6269 -0.0303
  789MOL0     C 4038   7.245  10.093   8.347 -0.7382 -0.0854  0.4183
  789MOL0     C 4039   7.130  10.054   8.438  0.4789 -0.7739 -0.5766
  789MOL0     O 4040   7.051  10.164   8.469 -0.6232  0.3314  0.3654
  789MOL0     C 4041   7.096  10.256   8.569  0.9280 -0.3185 -0.2985
  789MOL0     C 4042   7.201  10.244   8.654 -0.3482  0.2847 -1.2958
  789MOL0     C 4043   7.239  10.342   8.742  0.1554 -0.0847  0.0524
  789MOL0     C 4044   7.159  10.454   8.757 -0.4880 -0.3599  0.0957
  789MOL0     C 4045   7.200  10.564   8.856 -0.8763  0.2044  0.5152
  789MOL0     O 4046   7.312  10.537   8.932 -0.1158 -0.1217  0.1489
  789MOL0     C 4047   7.355  10.637   9.018  0.0383 -0.4074 -0.8824
  789MOL0     C 4048   7.478  10.701   9.008 -1.0758 -0.3617  0.3830
  789MOL0     C 4049   7.520  10.789   9.106 -0.7879  0.1489 -0.1534
  789MOL0     C 4050   7.459  10.792   9.228  0.4241  0.3723  0.0537
  789MOL0     O 4051   7.524  10.855   9.335  1.0308  0.3007 -0.3918
  789MOL0     C 4052   7.461  10.864   9.466  0.7298 -0.3091  0.1282
  789MOL0     C 4053   7.563  10.920   9.563  0.1587  0.0760  0.2988
  789MOL0     C 4054   7.620  11.059   9.531  0.0117 -0.2404 -0.0641
  789MOL0     C 4055   7.511  11.152   9.474 -0.7489 -0.5182  0.3370
  789MOL0     C 4056   7.551  11.290   9.476  0.6551 -0.6434  0.1916
  789MOL0     C 4057   7.446  11.386   9.411  0.0348  0.9960  0.4671
  789MOL0     C 4058   7.466  11.379   9.255  0.0625 -0.4150  0.5748
  789MOL0     C 4059   7.421  11.502   9.172  0.2837 -0.4953 -0.1706
  789MOL0    Cl 4060   7.272  11.583   9.240  0.1765 -0.7842 -0.0580
  789MOL0     C 4061   7.336  10.730   9.243  0.5227  1.1784 -0.9965
  789MOL0     C 4062   7.294  10.642   9.144  0.3723 -0.2870 -0.1108
  789MOL0     O 4063   7.126  10.663   8.865  0.1042 -0.2232 -0.3234
  789MOL0     C 4064   7.037  10.465   8.682 -0.0661 -0.1266 -0.3855
  789MOL0     C 4065   7.011  10.364   8.594  0.2593 -0.2075  0.4453
  789MOL0     N 4066   7.552  10.124   8.131 -0.6090 -0.1292  0.4375
  789MOL0     N 4067   7.638  10.213   8.159 -1.2785 -0.4365 -0.8974
  789MOL0     C 4068   8.761  10.597   8.033 -0.0918  0.7056  0.7870
  789MOL0     C 4069   8.894  10.622   8.026 -0.8814 -0.0257 -0.2720
  789MOL0     C 4070   9.319  10.532   7.951  0.1135  0.5327  1.1546
  789MOL0     C 4071   9.379  10.611   8.044 -0.6157 -0.3224 -1.0050
  789MOL0     C 4072   9.515  10.639   8.028 -0.2343 -0.3432  0.2178
  789MOL0     C 4073   9.589  10.575   7.930  0.5007  0.4387  0.2745
  789MOL0     O 4074   9.721  10.608   7.915  0.1591 -0.5153 -0.1211
  789MOL0     C 4075   9.810  10.504   7.886 -0.2392 -0.3148 -0.9852
  789MOL0     C 4076   9.938  10.530   7.948 -0.4775  0.5220 -0.2851
  789MOL0     C 4077   9.932  10.502   8.091  0.4627  0.2506  0.2894
  789MOL0     C 4078  10.057  10.549   8.164  0.2918  1.0156  0.0778
  789MOL0     C 4079  10.052  10.508   8.302 -0.3120  0.0599  0.1421
  789MOL0     C 4080  10.040  10.471   8.415 -0.0265 -0.8590 -0.0790
  789MOL0     C 4081   9.530  10.480   7.842  0.2129  0.2085 -0.6346
  789MOL0     C 4082   9.394  10.459   7.856 -0.0020  0.0787  0.2159
  789MOL0     H 4083   8.985  10.320   8.154 -1.2029  0.2208  0.6218
  789MOL0     H 4084   8.749  10.294   8.183 -0.9822  0.0246  0.3476
  789MOL0     H 4085   8.500  10.583   8.258  0.2430 -0.2387  2.0789
  789MOL0     H 4086   8.570  10.426   8.287  2.2646 -0.5190 -2.5862
  789MOL0     H 4087   8.338  10.398   8.330 -0.3561  1.9038 -0.2705
  789MOL0     H 4088   8.353  10.324   8.169 -1.5584  1.3495 -1.7554
  789MOL0     H 4089   8.263  10.530   8.083 -3.1568 -0.7322 -0.7751
  789MOL0     H 4090   8.290  10.610   8.241 -0.3937 -0.0077  0.7689
  789MOL0     H 4091   8.084  10.398   8.168  1.6107  0.8227 -1.8649
  789MOL0     H 4092   8.088  10.449   8.336  1.8685  0.0545  0.3680
  789MOL0     H 4093   8.004  10.601   8.091 -2.4704 -2.2340 -0.4127
  789MOL0     H 4094   8.053  10.695   8.224  0.4716  1.8323 -4.8689
  789MOL0     H 4095   7.810  10.657   8.244 -0.5456 -0.9462  0.6722
  789MOL0     H 4096   7.894  10.567   8.373 -1.8675  0.4271  0.5887
  789MOL0     H 4097   7.843  10.407   8.124  0.7134  0.9566  0.2627
  789MOL0     H 4098   7.830  10.356   8.293 -1.3558 -0.9880  0.1853
  789MOL0     H 4099   7.629  10.533   8.137  2.7489  0.2304 -1.0546
  789MOL0     H 4100   7.601  10.471   8.306 -0.6281 -3.5687 -0.4210
  789MOL0     H 4101   7.386  10.399   8.098  1.0678 -0.6076  0.6140
  789MOL0     H 4102   7.308  10.018   8.076 -1.0625 -0.2435  0.7548
  789MOL0     H 4103   7.246  10.152   7.996  1.7607 -0.1807 -0.7420
  789MOL0     H 4104   7.110  10.088   8.200  0.2178 -1.0001  1.9097
  789MOL0     H 4105   7.179  10.250   8.221  0.6220 -0.4662 -0.9780
  789MOL0     H 4106   7.313  10.008   8.338 -0.7071 -0.4317  3.0723
  789MOL0     H 4107   7.308  10.177   8.379  0.1277 -0.0751 -1.1901
  789MOL0     H 4108   7.157  10.001   8.530 -1.1666 -4.6271 -2.1028
  789MOL0     H 4109   7.075   9.978   8.382 -2.2640 -0.8877  2.0095
  789MOL0     H 4110   7.285  10.175   8.643  0.1285  0.7319 -0.5793
  789MOL0     H 4111   7.333  10.339   8.797  0.5747 -0.9398 -0.6866
  789MOL0     H 4112   7.535  10.692   8.916  1.9157 -2.0928  2.2058
  789MOL0     H 4113   7.604  10.854   9.083 -0.7811  1.5702  3.3040
  789MOL0     H 4114   7.410  10.774   9.503  0.3703  0.9506  2.8792
  789MOL0     H 4115   7.380  10.937   9.455  2.1783  1.1801 -1.2049
  789MOL0     H 4116   7.648  10.851   9.567 -0.9165 -1.3666 -0.7541
  789MOL0     H 4117   7.526  10.922   9.666  0.2480  3.0348  0.3624
  789MOL0     H 4118   7.701  11.046   9.459  1.7245 -0.2826  1.7952
  789MOL0     H 4119   7.672  11.100   9.617  0.0438  1.1554 -0.7248
  789MOL0     H 4120   7.490  11.123   9.371 -1.8997  0.7891  0.1690
  789MOL0     H 4121   7.420  11.142   9.533 -0.8418 -1.9599 -0.0131
  789MOL0     H 4122   7.650  11.304   9.431  1.0321 -2.6104  0.3505
  789MOL0     H 4123   7.540  11.322   9.580 -3.9072  2.8383 -1.0128
  789MOL0     H 4124   7.475  11.486   9.444  0.2048  1.3104 -0.6029
  789MOL0     H 4125   7.342  11.362   9.432  0.1489 -2.0882 -1.8180
  789MOL0     H 4126   7.573  11.360   9.237 -0.1908 -1.8398  0.4987
  789MOL0     H 4127   7.413  11.298   9.205 -1.4897  1.4636 -1.0301
  789MOL0     H 4128   7.404  11.474   9.068 -0.7957  0.9144 -0.4050
  789MOL0     H 4129   7.504  11.572   9.168  0.2350 -0.4929 -3.0070
  789MOL0     H 4130   7.281  10.735   9.337  0.0877  0.7011 -1.2180
  789MOL0     H 4131   7.202  10.588   9.163  1.6958 -2.0048  1.8789
  789MOL0     H 4132   6.968  10.545   8.707  1.0411 -0.8148  7.8591
  789MOL0     H 4133   6.921  10.382   8.535 -0.4521  1.6673  1.9891
  789MOL0     H 4134   8.683  10.669   8.010 -0.6373  0.4688  1.8364
  789MOL0     H 4135   8.933  10.715   7.987 -0.1179 -1.2540 -2.6984
  789MOL0     H 4136   9.327  10.660   8.126  1.1559  1.2730 -0.7612
  789MOL0     H 4137   9.554  10.706   8.104 -1.8210  1.1270 -0.1908
  789MOL0     H 4138   9.835  10.499   7.779  2.9818 -1.9344 -0.2697
  789MOL0     H 4139   9.774  10.403   7.909  3.7757 -1.7040  0.1071
  789MOL0     H 4140  10.018  10.472   7.900  1.5225  1.7890  1.3874
  789MOL0     H 4141   9.963  10.636   7.947  1.4593  0.2624  3.3291
  789MOL0     H 4142   9.892  10.404   8.117 -1.8678  0.7086 -1.2899
  789MOL0     H 4143   9.849  10.552   8.141  0.6047 -1.4565  2.3579
  789MOL0     H 4144  10.142  10.506   8.110 -0.0694 -1.9252  1.6183
  789MOL0     H 4145  10.062  10.658   8.158  2.6462  0.9366 -0.4363
  789MOL0     H 4146  10.042  10.424   8.512  0.2540  1.9317  1.3781
  789MOL0     H 4147   9.588  10.442   7.758 -2.5835  3.5240 -4.4337
  789MOL0     H 4148   9.354  10.380   7.793  1.0115  0.7565 -1.3277
  790MOL0     O 4149   0.856   1.418   8.247 -0.0102 -0.0600  0.6414
  790MOL0     C 4150   0.894   1.511   8.324 -0.3095  0.5105 -0.1936
  790MOL0     O 4151   0.812   1.582   8.412  0.0272  0.6760 -0.1643
  790MOL0     C 4152   0.691   1.541   8.451  0.2189  0.6559  1.1745
  790MOL0     C 4153   0.573   1.583   8.379 -0.0883  0.0534 -0.1092
  790MOL0     C 4154   0.448   1.529   8.407  0.0500  0.2536  0.7374
  790MOL0     C 4155   0.434   1.423   8.500 -0.6289  0.8448 -0.0143
  790MOL0     O 4156   0.310   1.363   8.523  0.1121 -0.0245  0.1411
  790MOL0     C 4157   0.299   1.277   8.640  0.3351  0.1203 -0.0308
  790MOL0     C 4158   0.150   1.255   8.674 -0.0462  0.0706  0.2156
  790MOL0     C 4159   0.130   1.172   8.797  0.3733 -0.5985  1.0851
  790MOL0     C 4160  -0.016   1.143   8.815 -0.6219  0.2443 -0.0212
  790MOL0     C 4161  -0.107   1.262   8.824 -0.8283 -0.3989  0.4672
  790MOL0     C 4162  -0.235   1.213   8.899  0.2322 -0.2431  0.4301
  790MOL0     C 4163  -0.321   1.118   8.815  0.1790 -0.3352  0.3232
  790MOL0     C 4164  -0.383   1.164   8.685  0.5000 -0.3109 -0.1881
  790MOL0     N 4165  -0.288   1.178   8.570 -0.1001 -0.7792 -0.1394
  790MOL0     C 4166  -0.216   1.080   8.503  0.4249  0.2423 -1.3764
  790MOL0     C 4167  -0.179   1.137   8.392 -0.2382 -0.3704  0.6465
  790MOL0     C 4168  -0.098   1.057   8.288 -0.7756  0.3529  0.0688
  790MOL0     C 4169   0.059   1.069   8.295  0.4105  0.6453  0.1266
  790MOL0     C 4170   0.089   1.205   8.239 -0.0906  0.3140 -0.0479
  790MOL0     C 4171   0.233   1.224   8.204  0.2109 -0.7009 -0.0918
  790MOL0     O 4172   0.287   1.119   8.127 -0.1984  0.4062  1.3907
  790MOL0     C 4173   0.416   1.133   8.072 -0.0018  0.5826  0.3710
  790MOL0     C 4174   0.499   1.246   8.073 -0.9445  0.0508 -0.4256
  790MOL0     C 4175   0.628   1.246   8.018  0.5499  0.0695  0.1246
  790MOL0     C 4176   0.684   1.124   7.967  0.5430 -1.5732 -0.4897
  790MOL0     C 4177   0.820   1.136   7.906  0.5515 -0.0881 -0.4959
  790MOL0     O 4178   0.892   1.256   7.896  0.4836 -0.2242 -0.4348
  790MOL0     C 4179   0.996   1.263   7.815  0.6480  0.2610 -0.7875
  790MOL0     C 4180   1.007   1.196   7.691  0.3403  0.3040 -0.7585
  790MOL0     C 4181   1.115   1.219   7.609  0.1660  0.1047  1.2442
  790MOL0     C 4182   1.224   1.285   7.665  0.3564  0.1256 -0.5181
  790MOL0     O 4183   1.343   1.277   7.593 -0.1527 -0.0368  0.0020
  790MOL0     C 4184   1.461   1.305   7.672 -0.2206 -0.2072  0.4678
  790MOL0     C 4185   1.579   1.228   7.611 -0.4762  0.1723  0.1172
  790MOL0     C 4186   1.713   1.246   7.689 -0.7520  0.3587  0.4571
  790MOL0     C 4187   1.829   1.212   7.600  0.7831  0.1645  0.1259
  790MOL0     C 4188   1.958   1.257   7.666 -0.7172  0.4111 -0.1909
  790MOL0     C 4189   2.074   1.240   7.568  0.0345 -0.2355 -0.2642
  790MOL0     C 4190   2.207   1.260   7.639  0.0903 -0.1378  0.1081
  790MOL0     C 4191   2.213   1.394   7.708  0.7622  0.3745  0.1425
  790MOL0    Cl 4192   2.193   1.526   7.597  0.0441  0.4055 -0.4608
  790MOL0     C 4193   1.210   1.347   7.783 -0.5885 -0.5314  1.4412
  790MOL0     C 4194   1.101   1.337   7.859 -0.1249 -1.2770 -0.1059
  790MOL0     O 4195   0.862   1.026   7.871  0.4158  0.4121 -0.1237
  790MOL0     C 4196   0.600   1.009   7.967  0.8636 -1.0206 -0.8473
  790MOL0     C 4197   0.454   1.022   8.003  0.2714  0.3394 -0.3685
  790MOL0     N 4198  -0.217   1.267   8.390  0.4748 -0.0355  0.0285
  790MOL0     N 4199  -0.276   1.295   8.501 -0.0248 -0.3480 -0.5534
  790MOL0     C 4200   0.557   1.381   8.563 -0.1835 -0.0341 -0.0021
  790MOL0     C 4201   0.680   1.448   8.547  0.8650 -0.4172  1.1213
  790MOL0     C 4202   1.033   1.541   8.319 -0.7071  0.2641 -0.2769
  790MOL0     C 4203   1.132   1.479   8.246 -0.2891  0.8741 -0.3071
  790MOL0     C 4204   1.265   1.514   8.253  0.2159 -0.0751 -0.4028
  790MOL0     C 4205   1.309   1.612   8.347 -0.7518  0.4445 -0.3203
  790MOL0     O 4206   1.443   1.648   8.365 -0.3194 -0.3537  0.1219
  790MOL0     C 4207   1.550   1.586   8.296  0.1842 -0.0694  1.7347
  790MOL0     C 4208   1.687   1.636   8.359  0.3476  1.4609 -0.0189
  790MOL0     C 4209   1.712   1.783   8.323 -0.5760 -0.3592 -0.0536
  790MOL0     C 4210   1.851   1.813   8.363 -0.0147 -0.2218 -0.3454
  790MOL0     C 4211   1.875   1.821   8.507  0.8114  0.0067 -0.2808
  790MOL0     C 4212   1.900   1.837   8.625 -0.7695 -0.3267 -0.4605
  790MOL0     C 4213   1.211   1.662   8.435 -0.7940 -0.0066  0.1718
  790MOL0     C 4214   1.078   1.627   8.422  0.7735 -0.2294  0.9269
  790MOL0     H 4215   0.585   1.667   8.311 -1.9526 -0.6322 -1.3741
  790MOL0     H 4216   0.359   1.550   8.348  0.6430 -2.1650 -1.2049
  790MOL0     H 4217   0.341   1.317   8.732 -1.0201  1.2545  0.1284
  790MOL0     H 4218   0.331   1.175   8.614 -0.3102 -0.2580  0.6130
  790MOL0     H 4219   0.103   1.202   8.591  0.8410 -0.5141  0.0747
  790MOL0     H 4220   0.105   1.355   8.674  2.2619  1.1898  0.4757
  790MOL0     H 4221   0.173   1.224   8.883  0.4859 -2.1131  1.9886
  790MOL0     H 4222   0.178   1.075   8.781  2.2268  0.6002 -1.2724
  790MOL0     H 4223  -0.058   1.078   8.738  4.3589  0.2635 -3.1685
  790MOL0     H 4224  -0.016   1.104   8.917 -4.7463  0.8685  0.3811
  790MOL0     H 4225  -0.139   1.296   8.725 -1.9324 -1.4367  0.4412
  790MOL0     H 4226  -0.068   1.344   8.884 -2.8246  1.5333 -0.6949
  790MOL0     H 4227  -0.305   1.295   8.920  0.1905 -0.6071  1.8109
  790MOL0     H 4228  -0.200   1.169   8.993 -0.6164 -1.6043  0.1500
  790MOL0     H 4229  -0.267   1.027   8.789  0.4384  0.2139 -1.1364
  790MOL0     H 4230  -0.406   1.087   8.877 -0.5791  0.5165 -0.2634
  790MOL0     H 4231  -0.433   1.261   8.696 -0.6205 -1.0870  2.1713
  790MOL0     H 4232  -0.447   1.086   8.643  1.1475 -0.7222 -0.4269
  790MOL0     H 4233  -0.200   0.982   8.547 -1.4783  0.9443  1.1013
  790MOL0     H 4234  -0.135   1.065   8.186  0.5145  1.4866 -0.3399
  790MOL0     H 4235  -0.112   0.950   8.310 -1.1229  0.0208 -1.6358
  790MOL0     H 4236   0.110   0.993   8.236  1.6265 -0.3017  2.3204
  790MOL0     H 4237   0.091   1.071   8.399  1.2543 -0.0856 -0.1114
  790MOL0     H 4238   0.022   1.217   8.153 -0.2939  0.7703  0.1723
  790MOL0     H 4239   0.069   1.274   8.322  2.9429 -2.0004  2.8915
  790MOL0     H 4240   0.302   1.228   8.289 -0.4236  1.3585  0.3718
  790MOL0     H 4241   0.244   1.322   8.158  4.0646 -0.7231  0.4764
  790MOL0     H 4242   0.462   1.338   8.117 -0.7964  0.3855 -0.9985
  790MOL0     H 4243   0.687   1.337   8.022  3.0113 -1.2169 -2.7721
  790MOL0     H 4244   0.915   1.156   7.648 -1.6427 -0.0530  3.3186
  790MOL0     H 4245   1.115   1.206   7.502 -0.4897 -0.7429  1.3400
  790MOL0     H 4246   1.444   1.267   7.772  0.8175 -1.2927  0.2530
  790MOL0     H 4247   1.485   1.411   7.685  1.1981 -0.6454  1.7778
  790MOL0     H 4248   1.594   1.267   7.510  1.3995 -0.0368  0.2699
  790MOL0     H 4249   1.552   1.123   7.601 -2.1745  0.7820 -3.1885
  790MOL0     H 4250   1.719   1.181   7.777 -0.1950 -1.0852 -0.6079
  790MOL0     H 4251   1.717   1.351   7.719 -2.2945 -0.0616  2.3265
  790MOL0     H 4252   1.832   1.107   7.569 -0.2982  0.1569  0.0337
  790MOL0     H 4253   1.828   1.277   7.512  0.9571 -0.5948 -0.4515
  790MOL0     H 4254   1.964   1.196   7.757  0.3585  1.2528  0.3159
  790MOL0     H 4255   1.948   1.356   7.710 -1.0698 -0.5692  2.0796
  790MOL0     H 4256   2.056   1.315   7.491 -2.6396 -0.5348 -0.0142
  790MOL0     H 4257   2.081   1.140   7.526  1.1046 -0.6835  0.9091
  790MOL0     H 4258   2.230   1.176   7.705  0.5770 -0.0351  0.0760
  790MOL0     H 4259   2.277   1.264   7.554 -0.0735 -1.6530 -0.1332
  790MOL0     H 4260   2.314   1.402   7.748  1.3353 -1.6605 -0.7342
  790MOL0     H 4261   2.142   1.408   7.790  1.0799 -0.1263  0.5080
  790MOL0     H 4262   1.272   1.426   7.825 -0.1299  0.1379 -0.3818
  790MOL0     H 4263   1.091   1.388   7.955  0.9205  1.3518 -1.3155
  790MOL0     H 4264   0.642   0.913   7.938  4.3818 -0.1575  0.8558
  790MOL0     H 4265   0.390   0.934   7.994 -0.2968  0.9750 -3.6447
  790MOL0     H 4266   0.563   1.308   8.643  1.6377  1.3604  1.2126
  790MOL0     H 4267   0.770   1.419   8.601  2.9557 -1.0671 -2.4002
  790MOL0     H 4268   1.099   1.399   8.181 -0.4728  0.3391  0.4380
  790MOL0     H 4269   1.342   1.467   8.194  1.0734  0.5770  0.1814
  790MOL0     H 4270   1.557   1.607   8.189 -4.0498  0.6200  1.4220
  790MOL0     H 4271   1.545   1.478   8.308  2.4367 -0.3144  0.9043
  790MOL0     H 4272   1.676   1.623   8.467 -2.9152  0.0999 -0.4026
  790MOL0     H 4273   1.762   1.563   8.327 -1.8394 -1.9061  1.8313
  790MOL0     H 4274   1.640   1.854   8.365 -0.2740 -1.2721  2.1570
  790MOL0     H 4275   1.736   1.795   8.217 -0.2710  0.8267  0.1360
  790MOL0     H 4276   1.922   1.741   8.323  2.4423  1.6403  0.3543
  790MOL0     H 4277   1.878   1.910   8.320 -1.7250  0.2818 -0.3531
  790MOL0     H 4278   1.916   1.850   8.730  6.3257  1.9858 -1.3132
  790MOL0     H 4279   1.239   1.734   8.511 -0.4058 -0.4326  0.4409
  790MOL0     H 4280   1.018   1.677   8.496  1.0407  1.5849 -0.0175
  791MOL0     O 4281   5.617   9.423   2.548  0.9333  0.0471 -0.5957
  791MOL0     C 4282   5.733   9.398   2.505  0.2375  0.3535 -0.4648
  791MOL0     O 4283   5.817   9.296   2.556 -0.2523 -0.7659  0.0302
  791MOL0     C 4284   5.762   9.216   2.665 -0.9266 -0.6740  0.2685
  791MOL0     C 4285   5.791   9.075   2.667  0.5337 -0.0663  0.3980
  791MOL0     C 4286   5.786   9.003   2.783  0.9197 -0.8284  0.1103
  791MOL0     C 4287   5.748   9.070   2.897 -0.2295 -0.3749 -0.9862
  791MOL0     O 4288   5.727   9.011   3.023 -0.1187 -0.5871  0.0908
  791MOL0     C 4289   5.768   8.877   3.037  0.4000  0.4381 -0.2066
  791MOL0     C 4290   5.699   8.805   3.154 -0.5103  0.2356 -0.3280
  791MOL0     C 4291   5.742   8.878   3.286  0.1940  0.2781  0.2493
  791MOL0     C 4292   5.700   8.820   3.415  0.2941  0.3360  0.8132
  791MOL0     C 4293   5.726   8.920   3.529  0.4178  0.2874 -0.2937
  791MOL0     C 4294   5.673   8.878   3.668  0.0520  0.0323  0.4791
  791MOL0     C 4295   5.680   8.984   3.777 -0.4281  0.3683 -0.9949
  791MOL0     C 4296   5.597   9.109   3.745 -1.2015 -0.6114 -0.5995
  791MOL0     N 4297   5.457   9.080   3.715 -0.9683  0.4625  1.4436
  791MOL0     C 4298   5.354   9.103   3.803 -0.4533  0.5603 -0.8328
  791MOL0     C 4299   5.244   9.097   3.730  0.1993  0.3287  0.2020
  791MOL0     C 4300   5.096   9.110   3.774  0.1884  0.6206 -0.0338
  791MOL0     C 4301   5.083   9.137   3.924  0.6619  1.5099  0.6709
  791MOL0     C 4302   4.945   9.193   3.951  0.4140 -0.0465  0.2912
  791MOL0     C 4303   4.825   9.101   3.929 -0.0091  0.0242  0.2962
  791MOL0     O 4304   4.706   9.172   3.969  0.0196  0.5097  0.1615
  791MOL0     C 4305   4.577   9.124   3.960  0.9320 -1.0975 -1.2534
  791MOL0     C 4306   4.469   9.200   4.018 -0.0285 -0.2762  0.2258
  791MOL0     C 4307   4.334   9.160   4.000  0.0102  0.1381  0.0554
  791MOL0     C 4308   4.301   9.042   3.925 -0.1924  0.4529 -0.6686
  791MOL0     C 4309   4.169   8.997   3.893  0.7522  0.4721  0.2915
  791MOL0     O 4310   4.067   9.051   3.981  0.3775 -0.2591  0.0315
  791MOL0     C 4311   3.942   9.006   3.960  0.6930 -1.1261 -1.0419
  791MOL0     C 4312   3.913   8.868   3.968 -0.7299 -0.0771 -0.0736
  791MOL0     C 4313   3.783   8.824   3.931 -0.0195 -0.4794 -0.4953
  791MOL0     C 4314   3.688   8.913   3.884 -0.1026 -0.4871 -0.0152
  791MOL0     O 4315   3.564   8.867   3.838  0.2374 -0.0043 -0.3235
  791MOL0     C 4316   3.447   8.941   3.856  0.3055  0.4528 -0.1933
  791MOL0     C 4317   3.342   8.829   3.865  0.2366  0.5025  0.0516
  791MOL0     C 4318   3.365   8.735   3.979  0.0041 -0.3361 -0.6290
  791MOL0     C 4319   3.232   8.684   4.036 -0.1786  0.0179  0.3337
  791MOL0     C 4320   3.252   8.603   4.167 -0.4743  0.8517 -0.0350
  791MOL0     C 4321   3.296   8.462   4.135 -0.7798  0.3797  0.3532
  791MOL0     C 4322   3.331   8.383   4.264  0.2294 -0.1325 -0.1922
  791MOL0     C 4323   3.433   8.458   4.349 -0.0406  0.4178  0.2089
  791MOL0    Cl 4324   3.330   8.533   4.485 -0.3237  0.0430 -0.3255
  791MOL0     C 4325   3.721   9.049   3.896  0.9595  0.2874  0.2087
  791MOL0     C 4326   3.845   9.097   3.936 -0.1098  0.2346 -0.2371
  791MOL0     O 4327   4.146   8.920   3.800 -0.4356 -0.1529  0.1412
  791MOL0     C 4328   4.406   8.972   3.871 -0.0512  0.0557  0.6539
  791MOL0     C 4329   4.540   9.010   3.893  0.9169 -0.3214  1.0468
  791MOL0     N 4330   5.284   9.079   3.596 -0.0490 -0.3715  0.3505
  791MOL0     N 4331   5.415   9.062   3.589  0.6904  0.5195  0.2174
  791MOL0     C 4332   5.722   9.206   2.902 -0.1725  0.2846 -1.1174
  791MOL0     C 4333   5.729   9.276   2.786  0.4717 -0.5475 -0.1212
  791MOL0     C 4334   5.786   9.469   2.392  0.1143 -0.7374  0.9389
  791MOL0     C 4335   5.707   9.576   2.333 -0.5454 -0.3988  0.3039
  791MOL0     C 4336   5.749   9.649   2.217  0.1868  0.0111  0.5638
  791MOL0     C 4337   5.872   9.609   2.162  0.2305  0.3929  0.6153
  791MOL0     O 4338   5.933   9.657   2.044  0.3440  0.3586 -0.4144
  791MOL0     C 4339   5.879   9.786   2.017 -0.8251  0.2520  0.7821
  791MOL0     C 4340   5.974   9.840   1.908  0.4788 -0.3238  0.1609
  791MOL0     C 4341   6.106   9.883   1.971  0.0442 -0.4747 -0.0482
  791MOL0     C 4342   6.200   9.940   1.866 -0.3333 -0.1125  0.4539
  791MOL0     C 4343   6.314  10.002   1.934  0.1400 -0.0202  0.4573
  791MOL0     C 4344   6.412  10.062   1.991 -0.5772  0.6292  0.1371
  791MOL0     C 4345   5.946   9.503   2.213 -0.2119 -0.0258 -0.1620
  791MOL0     C 4346   5.906   9.435   2.327 -0.2106 -1.1754  0.3378
  791MOL0     H 4347   5.817   9.036   2.569  0.2116  2.1522 -0.6152
  791MOL0     H 4348   5.812   8.898   2.779  0.7109 -0.8559 -2.8403
  791MOL0     H 4349   5.876   8.869   3.051  0.8570  4.4823 -0.4641
  791MOL0     H 4350   5.736   8.823   2.947 -1.1270 -0.7641  0.9924
  791MOL0     H 4351   5.720   8.698   3.151 -2.0724 -0.1109  0.1604
  791MOL0     H 4352   5.593   8.817   3.133 -0.3169  1.0244 -0.8954
  791MOL0     H 4353   5.711   8.983   3.283 -1.4287 -0.1647 -2.7149
  791MOL0     H 4354   5.851   8.878   3.283  0.2548  3.0711 -1.7842
  791MOL0     H 4355   5.598   8.780   3.408  1.5816 -2.9509 -2.0633
  791MOL0     H 4356   5.771   8.737   3.422  0.5882  0.6447  1.6163
  791MOL0     H 4357   5.680   9.014   3.499 -0.5653 -0.3045 -0.6856
  791MOL0     H 4358   5.834   8.927   3.541  0.4850 -1.7693  0.9133
  791MOL0     H 4359   5.727   8.791   3.706 -0.4156  0.4951  2.2575
  791MOL0     H 4360   5.565   8.863   3.653 -0.2401  1.6487  0.7670
  791MOL0     H 4361   5.638   8.944   3.870  0.6103 -0.1947 -0.7537
  791MOL0     H 4362   5.784   9.010   3.801 -0.8202  1.3260 -0.2611
  791MOL0     H 4363   5.646   9.162   3.663  0.1537  0.2979  0.7230
  791MOL0     H 4364   5.603   9.165   3.839  1.2161 -1.3152 -0.2496
  791MOL0     H 4365   5.365   9.120   3.910 -2.1689  1.4515 -0.7503
  791MOL0     H 4366   5.046   9.021   3.735 -0.0961  0.3499  0.9466
  791MOL0     H 4367   5.058   9.190   3.711 -0.6248 -0.7495 -1.3638
  791MOL0     H 4368   5.159   9.204   3.965  0.0082  1.9636  1.1682
  791MOL0     H 4369   5.093   9.043   3.977 -1.6523  1.7829  1.6760
  791MOL0     H 4370   4.936   9.213   4.058 -0.7443 -0.3712  0.2761
  791MOL0     H 4371   4.938   9.283   3.889 -5.4051 -0.5578 -0.3862
  791MOL0     H 4372   4.852   9.021   3.998  0.6464  1.1045  1.3219
  791MOL0     H 4373   4.825   9.059   3.827 -3.0527 -1.9242  0.9646
  791MOL0     H 4374   4.493   9.292   4.071 -0.3294 -0.1371  0.1244
  791MOL0     H 4375   4.254   9.221   4.040  1.3819  2.1525 -0.1319
  791MOL0     H 4376   3.999   8.804   3.984  0.1087  0.6166 -1.6420
  791MOL0     H 4377   3.775   8.716   3.922 -0.4911 -0.3737 -1.4118
  791MOL0     H 4378   3.421   9.010   3.775  1.1524 -0.0238 -0.8881
  791MOL0     H 4379   3.457   8.992   3.952  0.6024 -1.3170  0.7519
  791MOL0     H 4380   3.346   8.765   3.777 -2.9103 -1.7688  1.3646
  791MOL0     H 4381   3.245   8.880   3.862 -1.9412 -3.1538  1.2477
  791MOL0     H 4382   3.419   8.787   4.058  1.1475 -0.3344 -1.4005
  791MOL0     H 4383   3.417   8.646   3.943 -0.1360  0.1336 -2.0617
  791MOL0     H 4384   3.173   8.773   4.060  1.2527  1.3642 -0.9105
  791MOL0     H 4385   3.169   8.636   3.960 -1.2705  1.6843  0.1181
  791MOL0     H 4386   3.164   8.578   4.226  0.1821  0.8208  0.9551
  791MOL0     H 4387   3.329   8.661   4.219  1.6425 -0.9932 -0.9707
  791MOL0     H 4388   3.389   8.472   4.077 -1.7213  2.6438 -0.8765
  791MOL0     H 4389   3.226   8.402   4.077 -0.3563 -1.8234  1.9661
  791MOL0     H 4390   3.245   8.358   4.326  2.2066 -1.6680  2.1148
  791MOL0     H 4391   3.371   8.295   4.212 -1.5049  1.6919 -5.2260
  791MOL0     H 4392   3.476   8.530   4.278 -1.9126  1.0597 -0.3229
  791MOL0     H 4393   3.520   8.401   4.383 -1.5725 -3.3834 -1.6097
  791MOL0     H 4394   3.640   9.120   3.885  1.5498  1.7768  3.7995
  791MOL0     H 4395   3.857   9.205   3.938 -1.0313  0.4071 -2.1528
  791MOL0     H 4396   4.387   8.881   3.816 -2.1379 -0.0612  1.4441
  791MOL0     H 4397   4.620   8.955   3.844  2.2614  0.7312  2.0031
  791MOL0     H 4398   5.685   9.263   2.986 -1.2079  1.0850 -2.0811
  791MOL0     H 4399   5.721   9.384   2.793 -1.8539 -0.7501  1.3836
  791MOL0     H 4400   5.619   9.612   2.387 -0.7824 -0.4201 -0.0642
  791MOL0     H 4401   5.693   9.737   2.187  0.0101 -0.5202 -0.7333
  791MOL0     H 4402   5.863   9.847   2.106 -3.4625  0.7355  0.0547
  791MOL0     H 4403   5.778   9.778   1.975 -2.3479  0.5570  4.0717
  791MOL0     H 4404   5.996   9.757   1.840 -1.6586  0.5987 -1.8145
  791MOL0     H 4405   5.921   9.925   1.864  0.2973 -0.1516  0.6970
  791MOL0     H 4406   6.149   9.797   2.024  1.1914 -0.8009 -1.4349
  791MOL0     H 4407   6.087   9.964   2.042 -1.5693 -2.0748  1.4466
  791MOL0     H 4408   6.232   9.860   1.798 -1.8589  1.8767 -2.8568
  791MOL0     H 4409   6.142  10.016   1.813  4.1059  2.5912 -1.1254
  791MOL0     H 4410   6.494  10.120   2.029  0.6298  1.5966 -3.5416
  791MOL0     H 4411   6.047   9.482   2.181 -0.6125  0.0375 -1.5304
  791MOL0     H 4412   5.968   9.352   2.359  4.5117  2.1173  0.7450
  792MOL0     O 4413   8.697   7.786   1.411 -0.4303 -0.2179  0.6008
  792MOL0     C 4414   8.766   7.692   1.456  0.2376  0.5464 -0.4564
  792MOL0     O 4415   8.721   7.588   1.541 -0.1541  0.1229 -0.4344
  792MOL0     C 4416   8.599   7.595   1.601  0.0246 -0.4028  0.2057
  792MOL0     C 4417   8.568   7.704   1.683 -0.2886 -0.8237  0.6118
  792MOL0     C 4418   8.445   7.729   1.746 -0.1036  0.4305 -1.0831
  792MOL0     C 4419   8.356   7.614   1.750 -0.7145  0.3151  0.5293
  792MOL0     O 4420   8.237   7.607   1.815 -0.9441  0.0388 -1.0413
  792MOL0     C 4421   8.239   7.652   1.953 -0.2600  0.2076 -0.1475
  792MOL0     C 4422   8.141   7.588   2.043  0.2471  0.4314  1.1023
  792MOL0     C 4423   8.004   7.649   2.045 -0.1185  0.3708 -0.6500
  792MOL0     C 4424   7.914   7.544   2.107  0.4799  0.7032  0.6218
  792MOL0     C 4425   7.766   7.585   2.104  0.3226 -0.6514  0.2003
  792MOL0     C 4426   7.665   7.472   2.148 -0.4517 -0.6466  0.6265
  792MOL0     C 4427   7.524   7.528   2.175  0.7209  0.7101 -0.6452
  792MOL0     C 4428   7.452   7.602   2.058 -0.6361 -0.7872  0.8269
  792MOL0     N 4429   7.316   7.653   2.091 -0.5773  1.0099 -0.4075
  792MOL0     C 4430   7.283   7.754   2.165  0.0404  0.8583  0.4127
  792MOL0     C 4431   7.146   7.754   2.162 -0.3178  0.0531  0.0707
  792MOL0     C 4432   7.074   7.842   2.256  0.3793  0.3025  0.3369
  792MOL0     C 4433   6.932   7.887   2.211  0.0252  0.1947  1.6095
  792MOL0     C 4434   6.885   8.003   2.295 -0.4960  0.3482 -0.1679
  792MOL0     C 4435   6.748   8.049   2.251 -0.6108  0.2794 -0.1952
  792MOL0     O 4436   6.696   8.147   2.340  0.7823  0.9512 -0.0382
  792MOL0     C 4437   6.561   8.178   2.312 -0.0096 -0.3875  0.2454
  792MOL0     C 4438   6.500   8.281   2.385  0.0756  0.4189  0.9398
  792MOL0     C 4439   6.367   8.317   2.361 -0.5097  0.2687 -0.1547
  792MOL0     C 4440   6.281   8.246   2.279  0.0643  0.1680 -0.0483
  792MOL0     C 4441   6.135   8.277   2.265  0.7463 -0.1519  0.4700
  792MOL0     O 4442   6.078   8.355   2.361 -0.4356  0.1432  0.1694
  792MOL0     C 4443   5.944   8.389   2.338  0.5577 -0.4907 -0.7062
  792MOL0     C 4444   5.856   8.349   2.434  0.3648 -0.4364  0.0572
  792MOL0     C 4445   5.718   8.368   2.422  0.0340  0.6306 -0.0925
  792MOL0     C 4446   5.671   8.451   2.312 -0.3434  0.3249  0.4089
  792MOL0     O 4447   5.532   8.472   2.310  0.2303 -0.6514 -0.7341
  792MOL0     C 4448   5.472   8.539   2.201 -0.3724  0.2659  0.6642
  792MOL0     C 4449   5.324   8.547   2.221  0.2338  0.2883 -0.1623
  792MOL0     C 4450   5.301   8.646   2.337 -0.1693 -0.2231 -0.5791
  792MOL0     C 4451   5.157   8.661   2.373  0.6813 -0.0694 -0.3589
  792MOL0     C 4452   5.127   8.757   2.485 -0.0094 -0.3748  0.6470
  792MOL0     C 4453   4.974   8.771   2.478  0.7619  0.0312  0.0977
  792MOL0     C 4454   4.924   8.820   2.618  0.2724  0.0141  0.2929
  792MOL0     C 4455   4.774   8.829   2.621  0.2419  0.6656  0.1094
  792MOL0    Cl 4456   4.706   8.668   2.669 -0.1822 -0.1464 -0.4639
  792MOL0     C 4457   5.760   8.489   2.211  0.1424 -0.5345  0.5248
  792MOL0     C 4458   5.895   8.463   2.224  0.1155  0.8593 -0.9814
  792MOL0     O 4459   6.072   8.250   2.162 -0.6157 -0.0562  0.5222
  792MOL0     C 4460   6.350   8.154   2.198  0.1727 -0.0223 -0.8778
  792MOL0     C 4461   6.484   8.121   2.214 -0.1934  0.7662 -0.4434
  792MOL0     N 4462   7.101   7.652   2.086 -0.8648 -0.0519  0.6251
  792MOL0     N 4463   7.200   7.586   2.037 -0.1780  0.1012 -0.4649
  792MOL0     C 4464   8.384   7.506   1.670 -0.5372  0.6804  0.4331
  792MOL0     C 4465   8.503   7.496   1.594  0.2728  1.3410  0.3841
  792MOL0     C 4466   8.905   7.684   1.413 -0.0265 -0.0754 -0.1181
  792MOL0     C 4467   9.005   7.602   1.472  0.4784 -0.3538  0.4213
  792MOL0     C 4468   9.134   7.607   1.427 -0.3263 -0.3970  0.4732
  792MOL0     C 4469   9.172   7.687   1.317  1.0788  0.3742  0.6077
  792MOL0     O 4470   9.299   7.671   1.284  1.2523  1.0376  0.6125
  792MOL0     C 4471   9.350   7.746   1.172 -0.7843 -0.2311  0.9699
  792MOL0     C 4472   9.469   7.684   1.110 -0.1125  0.6397 -1.3032
  792MOL0     C 4473   9.468   7.532   1.069  0.8360  0.2975 -0.2826
  792MOL0     C 4474   9.331   7.478   1.023 -0.9913 -0.3127 -0.3586
  792MOL0     C 4475   9.348   7.375   0.924  0.5403  0.6160 -0.6546
  792MOL0     C 4476   9.351   7.273   0.868 -0.3839  0.1397 -0.2967
  792MOL0     C 4477   9.072   7.772   1.259 -0.7771 -0.6160 -0.0133
  792MOL0     C 4478   8.939   7.776   1.313 -0.3177  0.4059  0.6129
  792MOL0     H 4479   8.636   7.788   1.692 -1.3484  0.2560 -1.1609
  792MOL0     H 4480   8.419   7.812   1.811  0.3771 -0.2335 -0.0108
  792MOL0     H 4481   8.217   7.759   1.954 -0.1994  0.4326 -4.7721
  792MOL0     H 4482   8.337   7.633   1.998 -0.0945 -2.8790 -1.5445
  792MOL0     H 4483   8.188   7.572   2.140 -1.4202 -0.1269  1.8488
  792MOL0     H 4484   8.127   7.486   2.006 -0.6947  0.6308  0.8933
  792MOL0     H 4485   7.972   7.682   1.945  2.5094  0.2028 -1.6266
  792MOL0     H 4486   7.995   7.737   2.109  1.5401 -0.8967  1.4256
  792MOL0     H 4487   7.924   7.458   2.041  1.5205  1.5303 -0.3423
  792MOL0     H 4488   7.942   7.506   2.206 -0.3532 -2.7199 -0.3258
  792MOL0     H 4489   7.737   7.634   2.011 -1.1350 -0.7803  0.5660
  792MOL0     H 4490   7.758   7.664   2.180  1.9296 -0.0084 -0.2473
  792MOL0     H 4491   7.696   7.416   2.236  0.1206  0.0156  0.8602
  792MOL0     H 4492   7.655   7.400   2.066 -0.6457  0.7106 -0.5845
  792MOL0     H 4493   7.456   7.447   2.205  0.1138  1.3485 -0.2719
  792MOL0     H 4494   7.526   7.593   2.263 -0.1519 -0.6847  0.4568
  792MOL0     H 4495   7.446   7.542   1.967  0.8689  0.3556 -0.0670
  792MOL0     H 4496   7.501   7.695   2.026 -1.3874 -1.3246 -2.1961
  792MOL0     H 4497   7.340   7.829   2.221 -1.4065  0.4252  2.6044
  792MOL0     H 4498   7.136   7.933   2.250  3.2434 -1.5673 -0.5918
  792MOL0     H 4499   7.067   7.813   2.361 -0.0027  2.7852  1.0667
  792MOL0     H 4500   6.865   7.800   2.207  1.2084 -0.7125  0.6307
  792MOL0     H 4501   6.942   7.923   2.108 -3.0504  0.0452  1.1677
  792MOL0     H 4502   6.876   7.971   2.399 -1.4498 -2.9916 -1.1788
  792MOL0     H 4503   6.960   8.083   2.288  0.9653 -1.0646 -1.2020
  792MOL0     H 4504   6.685   7.959   2.254 -0.0167 -0.1699  3.7759
  792MOL0     H 4505   6.750   8.091   2.150  0.6499 -0.2071 -0.3802
  792MOL0     H 4506   6.566   8.341   2.447  1.3126 -1.5491  1.6115
  792MOL0     H 4507   6.328   8.405   2.411 -3.1378 -1.1011  0.3901
  792MOL0     H 4508   5.876   8.290   2.523 -2.3925 -0.0083  1.0408
  792MOL0     H 4509   5.655   8.312   2.491 -0.2790  0.7544 -0.2763
  792MOL0     H 4510   5.488   8.483   2.109 -1.6145  2.1258 -0.7620
  792MOL0     H 4511   5.512   8.641   2.198  1.3558 -0.2928  2.4432
  792MOL0     H 4512   5.295   8.444   2.241 -0.2021 -0.5614 -4.3873
  792MOL0     H 4513   5.272   8.593   2.136  0.3530  1.3768  0.3262
  792MOL0     H 4514   5.346   8.743   2.312 -0.3872  0.3441  1.1025
  792MOL0     H 4515   5.341   8.617   2.434 -1.3051  0.8624  0.2591
  792MOL0     H 4516   5.109   8.698   2.282  2.3730  0.2530 -1.1758
  792MOL0     H 4517   5.118   8.562   2.398 -0.1739  0.2378 -0.4442
  792MOL0     H 4518   5.172   8.853   2.459 -3.2491  1.3314  0.7303
  792MOL0     H 4519   5.172   8.712   2.574 -0.0978  1.3554  1.6272
  792MOL0     H 4520   4.918   8.678   2.463  2.2701 -0.4580 -3.8169
  792MOL0     H 4521   4.955   8.843   2.398  4.2084  0.4836 -0.4552
  792MOL0     H 4522   4.957   8.750   2.695  1.4424 -3.1540 -2.8136
  792MOL0     H 4523   4.976   8.914   2.640 -0.0677  0.1842  0.3876
  792MOL0     H 4524   4.732   8.867   2.528 -1.1398 -1.4894 -0.2093
  792MOL0     H 4525   4.742   8.900   2.698 -0.0434 -0.6230  1.2069
  792MOL0     H 4526   5.719   8.539   2.124 -1.9811  0.0081  1.7608
  792MOL0     H 4527   5.964   8.479   2.142  0.4234  0.1370 -0.8735
  792MOL0     H 4528   6.287   8.114   2.120 -0.0675 -0.2037 -0.5927
  792MOL0     H 4529   6.523   8.041   2.153  1.2709  1.7385 -0.8295
  792MOL0     H 4530   8.307   7.430   1.671  0.1348 -0.0852 -1.6105
  792MOL0     H 4531   8.508   7.407   1.532 -1.2271  3.0217 -2.3358
  792MOL0     H 4532   8.967   7.536   1.549 -0.0345 -1.0318 -0.3974
  792MOL0     H 4533   9.207   7.535   1.463 -2.0085 -2.3346  0.1880
  792MOL0     H 4534   9.396   7.836   1.215 -0.5810 -1.6203  3.9184
  792MOL0     H 4535   9.272   7.770   1.100  1.2063  1.2074 -0.8413
  792MOL0     H 4536   9.487   7.744   1.020 -0.3864  2.1857 -0.3633
  792MOL0     H 4537   9.555   7.691   1.177  0.9191 -2.1630 -2.2353
  792MOL0     H 4538   9.503   7.471   1.153  1.1249 -0.0950 -0.6805
  792MOL0     H 4539   9.544   7.518   0.991  0.6432  0.6894 -0.5402
  792MOL0     H 4540   9.277   7.431   1.105 -2.1715  1.2519 -0.1836
  792MOL0     H 4541   9.267   7.562   0.994  0.6077  1.2415  0.4632
  792MOL0     H 4542   9.365   7.183   0.811 -0.5813  1.0333 -1.8181
  792MOL0     H 4543   9.094   7.823   1.166 -2.2500 -1.3590 -0.8133
  792MOL0     H 4544   8.872   7.843   1.259 -1.9227 -1.3212  0.3492
  793MOL0     O 4545   2.933   1.644   9.814  0.2317  0.8775  0.6006
  793MOL0     C 4546   3.013   1.697   9.883  0.3591 -0.9666 -0.3242
  793MOL0     O 4547   2.999   1.826   9.916 -0.1623 -0.0505  0.2094
  793MOL0     C 4548   2.906   1.909   9.860 -0.3273 -0.3364 -1.0546
  793MOL0     C 4549   2.880   1.918   9.721  0.9887  0.2157  0.8525
  793MOL0     C 4550   2.781   2.001   9.681  0.8728 -0.7171  0.2718
  793MOL0     C 4551   2.720   2.096   9.764 -0.5536  0.4913 -0.1279
  793MOL0     O 4552   2.617   2.176   9.718 -0.4155  0.0894 -0.6499
  793MOL0     C 4553   2.536   2.253   9.798  0.2455 -0.5575 -0.2043
  793MOL0     C 4554   2.402   2.282   9.728  0.2639  0.1820  0.3576
  793MOL0     C 4555   2.302   2.161   9.707  0.2453  0.3157 -0.2479
  793MOL0     C 4556   2.160   2.215   9.725  0.1897  0.9346 -0.4611
  793MOL0     C 4557   2.052   2.114   9.699 -0.0960  0.4642 -0.9476
  793MOL0     C 4558   1.916   2.187   9.683 -0.0233  0.3850  0.6543
  793MOL0     C 4559   1.797   2.091   9.669  0.4253 -0.2081 -0.6017
  793MOL0     C 4560   1.665   2.175   9.677 -0.1138  0.0192  0.1147
  793MOL0     N 4561   1.547   2.085   9.652  0.2591  0.3039  0.0801
  793MOL0     C 4562   1.479   2.032   9.752  0.2710  0.1930 -0.4127
  793MOL0     C 4563   1.387   1.955   9.693 -0.1089  0.5881 -0.0213
  793MOL0     C 4564   1.307   1.844   9.752  0.2490  0.7268 -0.1585
  793MOL0     C 4565   1.158   1.880   9.754  0.0246 -0.1610 -0.0591
  793MOL0     C 4566   1.095   1.848   9.611 -0.1873  0.8600 -0.4477
  793MOL0     C 4567   0.956   1.910   9.599  0.5052 -0.0999 -0.0427
  793MOL0     O 4568   0.862   1.877   9.704 -0.2694  0.6084  0.3882
  793MOL0     C 4569   0.724   1.909   9.686 -0.0966  0.3444 -0.7519
  793MOL0     C 4570   0.659   1.934   9.564 -0.4183 -0.0385 -0.3067
  793MOL0     C 4571   0.519   1.967   9.573 -0.2108  0.9803  0.6919
  793MOL0     C 4572   0.451   1.971   9.700  0.1120  0.2541 -0.6628
  793MOL0     C 4573   0.301   2.001   9.707  0.1825  0.7689  0.3796
  793MOL0     O 4574   0.236   1.987   9.592  0.0888 -0.3462 -0.9037
  793MOL0     C 4575   0.109   2.043   9.589 -0.7568  0.0125  0.0076
  793MOL0     C 4576   0.084   2.178   9.618 -0.9522 -0.4145  0.5275
  793MOL0     C 4577  -0.043   2.235   9.606  0.3111  1.0934  0.3254
  793MOL0     C 4578  -0.147   2.154   9.560 -0.2339  0.3647 -0.4508
  793MOL0     O 4579  -0.272   2.212   9.548  0.1715  0.2494  0.0540
  793MOL0     C 4580  -0.379   2.148   9.480  0.1670 -0.1124 -0.2944
  793MOL0     C 4581  -0.489   2.251   9.475 -0.9015  0.1108 -0.4632
  793MOL0     C 4582  -0.600   2.201   9.382 -0.5341  0.4721 -0.4596
  793MOL0     C 4583  -0.719   2.303   9.393  0.1597  0.1450 -0.2473
  793MOL0     C 4584  -0.845   2.269   9.304  0.4075  0.5326 -0.3309
  793MOL0     C 4585  -0.890   2.123   9.327  0.5160 -0.6660 -0.3331
  793MOL0     C 4586  -1.015   2.081   9.241 -0.1963  0.3838  0.3121
  793MOL0     C 4587  -1.077   1.951   9.281 -0.3083  0.1337  0.1681
  793MOL0    Cl 4588  -1.219   1.924   9.177 -0.7434  0.0156  0.2617
  793MOL0     C 4589  -0.122   2.016   9.535 -1.0379  2.0418 -1.0010
  793MOL0     C 4590   0.007   1.960   9.535 -0.3410 -0.5848  0.8371
  793MOL0     O 4591   0.261   2.071   9.799 -0.8398  0.6288 -0.5081
  793MOL0     C 4592   0.517   1.937   9.813  0.3481 -0.4484  0.0937
  793MOL0     C 4593   0.652   1.913   9.807  0.7453  0.4421  0.5955
  793MOL0     N 4594   1.410   1.952   9.559 -1.1781  0.8797  1.0152
  793MOL0     N 4595   1.512   2.029   9.534  0.0926 -0.0742  0.0997
  793MOL0     C 4596   2.754   2.089   9.896 -0.0914  0.4457 -0.7413
  793MOL0     C 4597   2.850   1.995   9.948 -0.0075 -0.0447 -0.1573
  793MOL0     C 4598   3.130   1.621   9.944 -0.3817 -0.0091  0.8043
  793MOL0     C 4599   3.202   1.683  10.038  0.2304  0.3546  0.0549
  793MOL0     C 4600   3.320   1.631  10.086  1.0636 -0.3501 -0.2620
  793MOL0     C 4601   3.372   1.510  10.041  0.7334 -0.2254  0.1997
  793MOL0     O 4602   3.490   1.455  10.088  0.2758 -0.2343  0.5595
  793MOL0     C 4603   3.547   1.334  10.037  0.2166  0.3054  0.7082
  793MOL0     C 4604   3.656   1.285  10.128 -0.1721 -0.1351 -0.4378
  793MOL0     C 4605   3.617   1.238  10.272  0.2222 -0.1547 -0.4358
  793MOL0     C 4606   3.482   1.282  10.334 -0.2667 -0.6693  0.0741
  793MOL0     C 4607   3.459   1.211  10.463  1.1278 -0.4503  0.0016
  793MOL0     C 4608   3.441   1.157  10.577  0.3780 -0.2529  0.4945
  793MOL0     C 4609   3.303   1.456   9.930  0.4698 -0.1442 -0.0160
  793MOL0     C 4610   3.180   1.508   9.886  0.2535 -0.7829  0.2681
  793MOL0     H 4611   2.937   1.862   9.647 -0.3343  0.5568 -0.4682
  793MOL0     H 4612   2.747   2.007   9.578  2.5689 -1.3829 -0.3648
  793MOL0     H 4613   2.585   2.349   9.817 -0.9410 -0.1972  1.3158
  793MOL0     H 4614   2.518   2.198   9.892  1.2339  2.3492  1.8393
  793MOL0     H 4615   2.415   2.330   9.631 -1.1835  0.2612  0.1899
  793MOL0     H 4616   2.348   2.357   9.788  0.1512 -1.5152  2.5301
  793MOL0     H 4617   2.311   2.073   9.773 -2.3231 -1.5533 -2.1405
  793MOL0     H 4618   2.318   2.115   9.609 -3.2154  0.5119 -1.0500
  793MOL0     H 4619   2.149   2.263   9.823  1.4533 -1.7347  1.1218
  793MOL0     H 4620   2.163   2.300   9.657 -2.0668  1.0846 -0.4359
  793MOL0     H 4621   2.043   2.039   9.778 -0.9328  1.3916 -0.1342
  793MOL0     H 4622   2.071   2.049   9.612 -0.3465  0.1932 -0.8028
  793MOL0     H 4623   1.922   2.246   9.591  0.4457  1.9229  1.6229
  793MOL0     H 4624   1.881   2.264   9.753 -2.5189  0.7228 -0.8343
  793MOL0     H 4625   1.804   2.048   9.568 -1.2635 -1.3086 -0.2995
  793MOL0     H 4626   1.787   2.014   9.746  2.0616 -0.1964 -0.3556
  793MOL0     H 4627   1.681   2.248   9.596  0.6352 -0.0823  0.1633
  793MOL0     H 4628   1.646   2.241   9.761 -3.1997  0.3192 -0.7130
  793MOL0     H 4629   1.488   2.059   9.857 -0.0697 -0.9195 -0.0797
  793MOL0     H 4630   1.346   1.816   9.850  0.2731  2.1880  0.2709
  793MOL0     H 4631   1.306   1.753   9.691 -0.3738 -1.1722  2.4879
  793MOL0     H 4632   1.140   1.984   9.779 -1.4117 -0.6609  1.1054
  793MOL0     H 4633   1.108   1.815   9.827  0.6626 -0.2630  0.3049
  793MOL0     H 4634   1.153   1.884   9.525  1.4468  2.8515  1.3761
  793MOL0     H 4635   1.084   1.739   9.606  1.6067  0.5611  0.9284
  793MOL0     H 4636   0.912   1.868   9.508 -2.4082  1.4008  0.5255
  793MOL0     H 4637   0.961   2.019   9.591 -0.7010 -0.0100  0.1699
  793MOL0     H 4638   0.712   1.940   9.470  0.9846 -0.0637  0.4505
  793MOL0     H 4639   0.449   1.969   9.490 -2.1815 -0.5721  2.2074
  793MOL0     H 4640   0.174   2.232   9.646  1.2484 -2.5974 -1.8253
  793MOL0     H 4641  -0.055   2.341   9.624 -0.5861  0.4283  4.6956
  793MOL0     H 4642  -0.413   2.055   9.527  0.3340 -0.4347 -0.7945
  793MOL0     H 4643  -0.344   2.138   9.377  3.0211  1.2772  0.4280
  793MOL0     H 4644  -0.445   2.344   9.438  1.2621 -0.9605 -0.6987
  793MOL0     H 4645  -0.537   2.270   9.571 -0.6430  1.4923 -0.5838
  793MOL0     H 4646  -0.628   2.102   9.419  0.2903 -0.5241 -2.3871
  793MOL0     H 4647  -0.565   2.186   9.280  0.7129 -0.1057  0.0248
  793MOL0     H 4648  -0.756   2.310   9.496 -0.2795  1.6073 -0.4820
  793MOL0     H 4649  -0.693   2.405   9.365 -0.2084  0.0346 -1.0395
  793MOL0     H 4650  -0.823   2.289   9.199  0.7021  0.9050 -0.1998
  793MOL0     H 4651  -0.923   2.337   9.340  1.8582  1.3201  1.4426
  793MOL0     H 4652  -0.912   2.105   9.432 -0.4451 -0.2315 -0.4487
  793MOL0     H 4653  -0.806   2.056   9.306  1.6335 -0.2615  2.4688
  793MOL0     H 4654  -1.096   2.153   9.254  0.3662  0.7135  2.4815
  793MOL0     H 4655  -0.986   2.077   9.135  2.6761 -2.7938  1.0173
  793MOL0     H 4656  -1.114   1.966   9.382  2.2214 -1.3927  1.4280
  793MOL0     H 4657  -1.017   1.860   9.288 -2.6538 -1.3570  4.1725
  793MOL0     H 4658  -0.209   1.952   9.520  1.4508 -1.7662 -0.3766
  793MOL0     H 4659   0.029   1.859   9.501 -1.2663 -0.3146 -0.6187
  793MOL0     H 4660   0.478   1.930   9.914  1.1027 -1.6418  0.3273
  793MOL0     H 4661   0.700   1.912   9.904  1.5671 -1.0264  0.1989
  793MOL0     H 4662   2.700   2.157   9.961 -0.7777 -0.9245  0.1872
  793MOL0     H 4663   2.868   1.993  10.055  0.4723 -0.8837 -0.2472
  793MOL0     H 4664   3.166   1.774  10.085  0.5993  1.7173 -2.1438
  793MOL0     H 4665   3.379   1.677  10.165  0.3367 -0.8737  0.6098
  793MOL0     H 4666   3.575   1.354   9.933  1.3571  0.2479  0.9825
  793MOL0     H 4667   3.475   1.253  10.026  0.1188  0.4375  0.3934
  793MOL0     H 4668   3.704   1.203  10.074 -1.4631  0.0838 -1.9940
  793MOL0     H 4669   3.725   1.365  10.156  1.3241 -1.9820  1.5204
  793MOL0     H 4670   3.697   1.256  10.344  0.4554 -1.8180 -0.2372
  793MOL0     H 4671   3.596   1.131  10.262 -0.1469 -0.0181 -1.1931
  793MOL0     H 4672   3.475   1.388  10.361  1.1786 -0.7876  1.0468
  793MOL0     H 4673   3.396   1.266  10.268 -1.0263  2.5043  0.1173
  793MOL0     H 4674   3.435   1.094  10.663 -0.0878 -0.6871  0.1528
  793MOL0     H 4675   3.336   1.362   9.887 -1.7973 -1.8966  1.8245
  793MOL0     H 4676   3.129   1.458   9.805 -2.3594  0.9773  0.6982
  794MOL0     O 4677   1.601   8.385   3.610 -0.0536 -0.2882 -0.1663
  794MOL0     C 4678   1.594   8.328   3.717 -1.4815 -0.5617  0.0163
  794MOL0     O 4679   1.517   8.211   3.741 -0.2360 -0.4975 -0.2878
  794MOL0     C 4680   1.432   8.170   3.636  0.1046 -0.3975 -0.6269
  794MOL0     C 4681   1.294   8.195   3.629  0.3502 -0.7662 -0.4531
  794MOL0     C 4682   1.221   8.132   3.534 -0.1836 -0.6756  1.0721
  794MOL0     C 4683   1.282   8.045   3.435  0.6528 -0.0988 -0.4297
  794MOL0     O 4684   1.213   7.969   3.339  0.8813 -0.7231  0.1284
  794MOL0     C 4685   1.165   8.042   3.222 -0.2521 -0.2546 -0.6331
  794MOL0     C 4686   1.142   7.953   3.108 -0.3407  0.0808 -0.2009
  794MOL0     C 4687   1.030   7.851   3.123  0.2643  1.3505  0.2100
  794MOL0     C 4688   1.027   7.750   3.000 -1.1683 -0.5312 -0.7065
  794MOL0     C 4689   0.958   7.816   2.875  0.2758 -0.7146 -0.5279
  794MOL0     C 4690   0.965   7.726   2.753  0.3942 -0.0831 -0.5593
  794MOL0     C 4691   0.882   7.776   2.638  0.4202 -0.8685  0.6623
  794MOL0     C 4692   0.918   7.723   2.495  0.3465  0.3229 -0.3949
  794MOL0     N 4693   0.955   7.583   2.487 -0.2004  0.2310 -0.2909
  794MOL0     C 4694   0.902   7.483   2.563  0.2981  0.0098  0.3031
  794MOL0     C 4695   0.981   7.378   2.532  0.3441  0.1399  0.4050
  794MOL0     C 4696   0.966   7.241   2.595  0.5384  0.1860  0.0551
  794MOL0     C 4697   0.821   7.192   2.609 -0.4994 -0.2497  0.3398
  794MOL0     C 4698   0.810   7.034   2.605 -1.0353 -0.0638 -0.4577
  794MOL0     C 4699   0.663   7.001   2.590 -0.9847  0.1045  0.0418
  794MOL0     O 4700   0.587   7.063   2.694 -0.3645  0.7194  0.5483
  794MOL0     C 4701   0.456   7.016   2.710  0.5181 -0.3221  0.1003
  794MOL0     C 4702   0.392   6.942   2.618 -0.4573 -0.1777 -0.1363
  794MOL0     C 4703   0.258   6.910   2.625  0.4193  0.2084 -0.6644
  794MOL0     C 4704   0.185   6.945   2.736 -0.1315 -0.3374 -0.4851
  794MOL0     C 4705   0.037   6.937   2.750 -0.5545  0.2209  0.0256
  794MOL0     O 4706  -0.010   6.865   2.644  0.3980  0.0276 -0.1691
  794MOL0     C 4707  -0.141   6.833   2.644 -0.5879  0.1380 -0.4587
  794MOL0     C 4708  -0.248   6.919   2.609 -0.2679  0.6154 -0.1629
  794MOL0     C 4709  -0.382   6.882   2.615  0.0642 -0.3348  0.0622
  794MOL0     C 4710  -0.415   6.753   2.652  0.0887  0.3753 -0.5479
  794MOL0     O 4711  -0.546   6.717   2.640  0.0094 -0.4279  1.0303
  794MOL0     C 4712  -0.634   6.781   2.735  0.0211  0.2246 -0.2008
  794MOL0     C 4713  -0.759   6.690   2.760 -0.2649 -0.5752  0.4078
  794MOL0     C 4714  -0.718   6.562   2.837  0.1004  0.5110  0.7770
  794MOL0     C 4715  -0.844   6.466   2.861  0.9830  0.0989  0.0895
  794MOL0     C 4716  -0.887   6.384   2.736  0.3408  1.3584 -0.3280
  794MOL0     C 4717  -1.026   6.324   2.748 -0.4876 -0.4761 -0.1146
  794MOL0     C 4718  -1.031   6.219   2.850  0.3166  0.1772 -0.1309
  794MOL0     C 4719  -1.169   6.145   2.856 -0.5551 -0.1139  0.0846
  794MOL0    Cl 4720  -1.191   6.055   2.704  0.0709 -0.3593 -0.0218
  794MOL0     C 4721  -0.311   6.662   2.683  0.2987  0.3100  0.1094
  794MOL0     C 4722  -0.176   6.711   2.689 -0.3299  0.5725  0.9401
  794MOL0     O 4723  -0.034   6.992   2.842 -0.5478  0.1007  0.2184
  794MOL0     C 4724   0.253   6.995   2.845  0.5891 -0.6096 -0.4000
  794MOL0     C 4725   0.384   7.034   2.830 -0.1605 -0.4127 -0.1685
  794MOL0     N 4726   1.077   7.408   2.444  0.3246  0.9595 -0.6134
  794MOL0     N 4727   1.065   7.535   2.427 -0.2498  0.5712  0.3135
  794MOL0     C 4728   1.417   8.025   3.438  0.5961 -0.3894 -0.3277
  794MOL0     C 4729   1.490   8.084   3.541 -0.2039 -0.8147 -0.3187
  794MOL0     C 4730   1.680   8.387   3.830 -0.4303 -0.4007  0.3770
  794MOL0     C 4731   1.780   8.484   3.803  0.0079 -0.8721  0.4775
  794MOL0     C 4732   1.877   8.520   3.901 -0.0485  0.5648 -0.1639
  794MOL0     C 4733   1.861   8.471   4.029 -0.4333  0.3943 -0.2109
  794MOL0     O 4734   1.947   8.501   4.139  0.5943 -0.3899 -0.0956
  794MOL0     C 4735   2.045   8.603   4.119 -0.4314 -0.5315 -0.0934
  794MOL0     C 4736   2.116   8.653   4.248 -0.2154  1.2117 -0.0508
  794MOL0     C 4737   2.195   8.542   4.328 -0.9534 -0.1828 -0.3328
  794MOL0     C 4738   2.346   8.570   4.332 -0.4661 -0.6500 -0.0778
  794MOL0     C 4739   2.437   8.470   4.368 -0.5335  0.0641  0.1702
  794MOL0     C 4740   2.536   8.404   4.403 -0.2694  0.6461 -0.8313
  794MOL0     C 4741   1.759   8.377   4.059 -0.7676 -0.0791 -0.3585
  794MOL0     C 4742   1.669   8.333   3.960 -0.3184 -0.0221 -0.4179
  794MOL0     H 4743   1.250   8.256   3.706 -0.3577 -0.3905 -1.1354
  794MOL0     H 4744   1.115   8.146   3.549 -0.4090 -2.1858  0.9984
  794MOL0     H 4745   1.241   8.113   3.189 -0.2960 -1.5049 -3.7079
  794MOL0     H 4746   1.080   8.105   3.250  0.4817  0.6496 -0.4046
  794MOL0     H 4747   1.232   7.894   3.091 -0.1225  0.1972  0.5030
  794MOL0     H 4748   1.120   8.019   3.024  5.6464 -1.0328 -3.1396
  794MOL0     H 4749   0.932   7.896   3.137 -1.8096 -2.1654 -1.5609
  794MOL0     H 4750   1.045   7.794   3.215  1.6228  1.2654 -0.0386
  794MOL0     H 4751   1.131   7.726   2.976 -0.4476  0.0146  1.6217
  794MOL0     H 4752   0.981   7.658   3.036 -0.9135  0.2165  1.7224
  794MOL0     H 4753   1.000   7.915   2.854 -1.7261 -0.0796 -1.8358
  794MOL0     H 4754   0.851   7.824   2.897  0.4126  1.8937 -0.4177
  794MOL0     H 4755   0.922   7.632   2.788  0.6243 -0.4634 -1.2878
  794MOL0     H 4756   1.069   7.710   2.724  1.0195  2.9571 -0.3518
  794MOL0     H 4757   0.783   7.746   2.672 -0.1621  0.5081  0.2781
  794MOL0     H 4758   0.892   7.885   2.641  3.3849 -1.0107 -0.1501
  794MOL0     H 4759   1.003   7.783   2.461  0.1178  2.1302  1.9474
  794MOL0     H 4760   0.832   7.743   2.430 -0.5745  0.6193  0.8825
  794MOL0     H 4761   0.812   7.479   2.624  0.1617 -1.0436  0.0490
  794MOL0     H 4762   1.021   7.249   2.689 -1.2124  1.2599  1.0326
  794MOL0     H 4763   1.019   7.166   2.536  2.3364  0.5021  1.1899
  794MOL0     H 4764   0.773   7.227   2.517  0.2045 -2.0696 -0.7578
  794MOL0     H 4765   0.780   7.234   2.701 -0.0714 -1.3916  1.0664
  794MOL0     H 4766   0.858   6.992   2.516  1.6289  1.0777  0.3339
  794MOL0     H 4767   0.855   6.987   2.693  0.4491 -0.7640 -1.5201
  794MOL0     H 4768   0.649   6.894   2.605 -0.9047  0.0915  0.0247
  794MOL0     H 4769   0.631   7.028   2.489  1.3491  1.4694 -0.4151
  794MOL0     H 4770   0.436   6.926   2.520 -1.1636  2.4231 -0.9675
  794MOL0     H 4771   0.223   6.853   2.539  0.6440 -0.4990 -0.2990
  794MOL0     H 4772  -0.219   7.021   2.586 -1.6792  1.6068  2.1008
  794MOL0     H 4773  -0.464   6.941   2.575  0.3952 -0.6242 -1.0989
  794MOL0     H 4774  -0.677   6.872   2.694 -2.7906 -0.9667 -0.1572
  794MOL0     H 4775  -0.585   6.796   2.832  1.9201  1.3434 -1.2895
  794MOL0     H 4776  -0.796   6.656   2.662 -2.3190 -1.7650  1.5233
  794MOL0     H 4777  -0.837   6.747   2.812  0.5272  0.6420  0.3010
  794MOL0     H 4778  -0.662   6.585   2.927  1.7485  2.6311 -0.6960
  794MOL0     H 4779  -0.647   6.496   2.786  0.1750  0.8693  0.4172
  794MOL0     H 4780  -0.818   6.405   2.948 -1.6404  2.5768  2.8403
  794MOL0     H 4781  -0.929   6.515   2.908 -1.3067 -2.9961 -0.5193
  794MOL0     H 4782  -0.813   6.307   2.714 -0.3991 -0.0922  1.9540
  794MOL0     H 4783  -0.882   6.445   2.645 -1.1105  1.6339 -0.2535
  794MOL0     H 4784  -1.055   6.293   2.647  1.9046 -4.0660  0.1147
  794MOL0     H 4785  -1.098   6.399   2.783 -1.4716 -2.2072  1.8046
  794MOL0     H 4786  -0.943   6.157   2.829  1.4166  2.0663 -1.3963
  794MOL0     H 4787  -1.023   6.268   2.947  1.0673  0.4577 -0.3209
  794MOL0     H 4788  -1.248   6.221   2.863 -0.1868  0.4161 -1.1597
  794MOL0     H 4789  -1.178   6.080   2.943  1.1190 -1.1758 -0.4952
  794MOL0     H 4790  -0.337   6.558   2.704 -1.5893  0.6035 -0.5615
  794MOL0     H 4791  -0.100   6.638   2.712 -1.4604 -0.1748  2.4930
  794MOL0     H 4792   0.196   7.010   2.936 -3.0808 -0.3174 -2.5289
  794MOL0     H 4793   0.438   7.075   2.915  2.1487 -1.9730 -0.7950
  794MOL0     H 4794   1.457   7.976   3.350 -2.5367 -1.4696 -1.3110
  794MOL0     H 4795   1.597   8.080   3.560 -0.5885  1.2017  3.0478
  794MOL0     H 4796   1.792   8.525   3.703 -1.2221  3.8897  2.0138
  794MOL0     H 4797   1.958   8.587   3.874  1.9238 -1.3985  0.5688
  794MOL0     H 4798   2.001   8.689   4.069 -1.4643 -0.0828  1.5221
  794MOL0     H 4799   2.128   8.569   4.056  2.5688  3.2672  1.4078
  794MOL0     H 4800   2.191   8.729   4.225 -1.9132  2.6133 -1.2175
  794MOL0     H 4801   2.042   8.692   4.318  0.9375  1.0047  1.3433
  794MOL0     H 4802   2.179   8.449   4.274  1.7564  0.6232 -2.7587
  794MOL0     H 4803   2.151   8.527   4.427 -3.6001 -0.1230 -1.4047
  794MOL0     H 4804   2.386   8.612   4.239  1.7543 -0.5168  0.8651
  794MOL0     H 4805   2.360   8.644   4.411 -2.6905  0.7797 -0.9538
  794MOL0     H 4806   2.619   8.347   4.441 -1.6884 -0.4050  0.8639
  794MOL0     H 4807   1.754   8.350   4.164  2.2150  3.7982  1.0019
  794MOL0     H 4808   1.603   8.253   3.992 -0.6528 -0.0016 -1.0294
  795MOL0     O 4809   2.868   8.288   7.597 -0.2919  0.0912 -0.7798
  795MOL0     C 4810   2.882   8.404   7.622 -0.8202 -0.1323 -0.3571
  795MOL0     O 4811   2.777   8.492   7.637 -0.7647  0.0490 -0.1985
  795MOL0     C 4812   2.652   8.442   7.592 -0.8629 -0.1993  0.9640
  795MOL0     C 4813   2.565   8.369   7.666 -0.2570 -0.2101  0.7576
  795MOL0     C 4814   2.457   8.317   7.615  1.0863  0.5421  0.4030
  795MOL0     C 4815   2.420   8.321   7.480  0.0913 -0.7470  0.0476
  795MOL0     O 4816   2.312   8.261   7.434  0.3835 -0.0221  0.4707
  795MOL0     C 4817   2.253   8.150   7.508  0.4935 -0.0212  0.5054
  795MOL0     C 4818   2.161   8.081   7.411 -0.6213 -0.2676  0.5476
  795MOL0     C 4819   2.245   8.008   7.297 -1.2131 -0.0673  1.0851
  795MOL0     C 4820   2.154   7.943   7.196 -0.7704  0.0106 -0.1958
  795MOL0     C 4821   2.111   8.030   7.080  0.3062  1.3920  0.0527
  795MOL0     C 4822   1.991   7.966   7.011 -0.5400  0.7248  0.9487
  795MOL0     C 4823   2.018   7.837   6.933  0.2809 -0.0184 -0.5333
  795MOL0     C 4824   1.902   7.824   6.833  0.4739  0.0331 -0.4220
  795MOL0     N 4825   1.907   7.704   6.753 -0.2910  0.5520 -0.4576
  795MOL0     C 4826   2.013   7.661   6.684 -0.4650 -0.3061 -0.1467
  795MOL0     C 4827   1.975   7.547   6.622  0.7251  0.4781  0.1930
  795MOL0     C 4828   2.027   7.457   6.517  0.0821  0.1399  0.4482
  795MOL0     C 4829   1.942   7.445   6.385 -0.5399 -1.0968  0.1565
  795MOL0     C 4830   1.955   7.569   6.294  0.1161  0.0377 -0.0699
  795MOL0     C 4831   1.858   7.680   6.331  0.0704 -0.4785 -0.1909
  795MOL0     O 4832   1.718   7.646   6.316  0.4575 -0.2588 -0.7634
  795MOL0     C 4833   1.619   7.741   6.335 -0.1501  0.6413 -0.3387
  795MOL0     C 4834   1.604   7.811   6.451  0.6244 -0.0406 -0.0579
  795MOL0     C 4835   1.492   7.888   6.485  0.3427 -0.2406  0.6566
  795MOL0     C 4836   1.387   7.890   6.398  1.1419 -0.8261  0.7033
  795MOL0     C 4837   1.253   7.953   6.438 -0.5158  0.2333 -0.9515
  795MOL0     O 4838   1.162   7.963   6.339  0.4137  0.2131  0.6511
  795MOL0     C 4839   1.034   7.989   6.372 -0.6499  1.1628  0.4352
  795MOL0     C 4840   0.959   7.918   6.472 -0.2402  0.0215 -0.0691
  795MOL0     C 4841   0.831   7.961   6.504 -0.2912  0.7398  0.6544
  795MOL0     C 4842   0.770   8.064   6.427 -0.4225  0.4658 -0.6077
  795MOL0     O 4843   0.648   8.112   6.453 -0.3710 -0.7157  0.8109
  795MOL0     C 4844   0.561   8.034   6.540  0.5402  0.0743 -0.2465
  795MOL0     C 4845   0.420   8.082   6.555 -0.1106 -1.0057  0.0073
  795MOL0     C 4846   0.336   8.059   6.425 -0.1134  0.4377 -1.8483
  795MOL0     C 4847   0.183   8.063   6.441 -0.5506 -0.7769  0.3874
  795MOL0     C 4848   0.108   8.059   6.313  0.6690 -0.6102  0.9816
  795MOL0     C 4849   0.157   7.944   6.209  0.7014 -0.5725 -0.2903
  795MOL0     C 4850   0.120   7.805   6.265 -0.0310  0.3394  0.3794
  795MOL0     C 4851   0.143   7.694   6.162  0.8461  0.9851  0.5326
  795MOL0    Cl 4852   0.044   7.709   6.016  0.2235  0.1784 -0.1967
  795MOL0     C 4853   0.843   8.124   6.328 -0.9575  0.0702 -0.0557
  795MOL0     C 4854   0.978   8.089   6.299  0.3910  0.0470 -0.5499
  795MOL0     O 4855   1.246   8.007   6.548 -0.0626  0.8671 -0.9809
  795MOL0     C 4856   1.396   7.817   6.272 -0.8574  0.3566 -0.5697
  795MOL0     C 4857   1.515   7.746   6.245 -0.4388 -0.2382  0.5478
  795MOL0     N 4858   1.847   7.521   6.673 -0.2407 -0.3036  0.6652
  795MOL0     N 4859   1.805   7.617   6.749 -0.4337  1.1292  0.5244
  795MOL0     C 4860   2.503   8.399   7.402  0.1992  1.1593 -0.5185
  795MOL0     C 4861   2.619   8.453   7.451  0.4070 -0.1085 -0.4905
  795MOL0     C 4862   3.014   8.460   7.667 -0.2279 -0.7143  0.0219
  795MOL0     C 4863   3.031   8.608   7.681 -1.0853  0.2815 -0.5270
  795MOL0     C 4864   3.149   8.666   7.738 -0.5286  0.4339  0.0057
  795MOL0     C 4865   3.253   8.579   7.783  0.0178 -0.4287  0.5760
  795MOL0     O 4866   3.366   8.612   7.850 -0.3612 -0.0691  0.1713
  795MOL0     C 4867   3.419   8.741   7.833  1.0436 -0.2976 -0.2458
  795MOL0     C 4868   3.544   8.748   7.914 -0.0454 -0.2334 -0.5199
  795MOL0     C 4869   3.610   8.885   7.886 -0.0694  0.0003  0.3837
  795MOL0     C 4870   3.568   9.001   7.977 -0.4483  0.2854  0.1032
  795MOL0     C 4871   3.452   9.068   7.930  0.3356  0.0663  0.0237
  795MOL0     C 4872   3.363   9.127   7.871 -0.0792  0.4740  0.1658
  795MOL0     C 4873   3.236   8.443   7.776  0.0439  0.3139 -0.7745
  795MOL0     C 4874   3.122   8.381   7.714 -0.5568 -0.2566  0.2348
  795MOL0     H 4875   2.598   8.359   7.769  2.3745 -1.1617 -0.1107
  795MOL0     H 4876   2.412   8.252   7.689 -0.5230 -0.5339 -1.4246
  795MOL0     H 4877   2.188   8.178   7.591  0.9951 -0.1202  0.9434
  795MOL0     H 4878   2.333   8.084   7.543 -0.5922 -1.3428  0.5678
  795MOL0     H 4879   2.105   8.160   7.360  0.1317  0.6476  1.0980
  795MOL0     H 4880   2.091   8.015   7.463  0.3494 -1.2557  0.6330
  795MOL0     H 4881   2.313   7.933   7.337 -0.6626 -2.7727 -4.0324
  795MOL0     H 4882   2.308   8.085   7.250  1.5577 -1.6368  2.0272
  795MOL0     H 4883   2.198   7.857   7.145  1.6466  1.0329 -0.0078
  795MOL0     H 4884   2.056   7.917   7.237 -1.7968 -1.6581 -3.3330
  795MOL0     H 4885   2.192   8.046   7.008  0.6039  2.3375  0.5785
  795MOL0     H 4886   2.081   8.122   7.131 -0.6359  0.6144  0.9454
  795MOL0     H 4887   1.966   8.040   6.934  1.1844 -0.0061 -0.3884
  795MOL0     H 4888   1.899   7.960   7.070 -0.7868  0.0422  0.5040
  795MOL0     H 4889   2.120   7.835   6.891  0.5402 -4.4281 -0.1250
  795MOL0     H 4890   2.011   7.754   7.003 -3.6990  0.8604  0.3149
  795MOL0     H 4891   1.895   7.914   6.771  0.8086  0.1349 -0.3146
  795MOL0     H 4892   1.799   7.819   6.870 -1.1507 -0.7470 -4.5666
  795MOL0     H 4893   2.108   7.711   6.670  0.8566 -2.5378  0.4726
  795MOL0     H 4894   2.029   7.357   6.561 -2.2231 -0.7736 -1.3193
  795MOL0     H 4895   2.125   7.488   6.480  1.7198 -4.2916  0.5049
  795MOL0     H 4896   1.837   7.427   6.407 -0.5509  1.9126  3.4470
  795MOL0     H 4897   1.988   7.358   6.338 -1.1052 -2.6810  2.3702
  795MOL0     H 4898   2.058   7.605   6.287 -0.2827  1.1822 -0.3878
  795MOL0     H 4899   1.921   7.537   6.195 -3.6167  1.3933  0.6077
  795MOL0     H 4900   1.888   7.770   6.275 -2.0458 -1.4253 -3.1400
  795MOL0     H 4901   1.877   7.708   6.435 -1.4022  1.7019 -0.4394
  795MOL0     H 4902   1.686   7.796   6.519  1.3712  0.3300 -0.8534
  795MOL0     H 4903   1.490   7.926   6.587  1.7682 -2.7117  1.6991
  795MOL0     H 4904   1.019   7.848   6.529  0.1653 -0.3098 -0.8988
  795MOL0     H 4905   0.785   7.918   6.592 -1.6230  0.4540 -0.1568
  795MOL0     H 4906   0.600   8.020   6.641 -0.6079 -3.7625 -0.1633
  795MOL0     H 4907   0.552   7.934   6.497  1.0409  0.0497 -0.2987
  795MOL0     H 4908   0.425   8.188   6.581  0.7551 -0.4784 -2.0916
  795MOL0     H 4909   0.380   8.025   6.639 -1.0040 -0.4061 -0.0075
  795MOL0     H 4910   0.361   7.959   6.391 -0.5004 -1.2155  2.1509
  795MOL0     H 4911   0.356   8.142   6.356 -2.8764  1.3774 -1.6430
  795MOL0     H 4912   0.159   7.975   6.502 -0.8750 -2.0926 -1.5521
  795MOL0     H 4913   0.161   8.153   6.499  0.5573  0.0434 -0.4119
  795MOL0     H 4914   0.125   8.160   6.273 -0.3152 -0.4154  1.0257
  795MOL0     H 4915   0.004   8.035   6.336 -0.2059 -0.2202 -2.2262
  795MOL0     H 4916   0.261   7.952   6.175  0.9789 -1.5299  0.2932
  795MOL0     H 4917   0.101   7.951   6.116 -0.6120  2.3940  0.6068
  795MOL0     H 4918   0.179   7.792   6.356 -3.4306 -0.0775  2.7348
  795MOL0     H 4919   0.021   7.797   6.311  0.5438 -2.0752  1.3304
  795MOL0     H 4920   0.118   7.605   6.222 -1.1233  1.0614 -0.1141
  795MOL0     H 4921   0.247   7.687   6.129  1.0024 -0.5580  1.2483
  795MOL0     H 4922   0.798   8.205   6.271  1.0048  1.8774  0.7881
  795MOL0     H 4923   1.047   8.146   6.238  0.5308  0.8613  0.3427
  795MOL0     H 4924   1.319   7.823   6.195  1.1516  3.7056 -2.6056
  795MOL0     H 4925   1.536   7.680   6.162  2.4877 -3.0566  3.2038
  795MOL0     H 4926   2.498   8.400   7.293  2.3420  2.3571 -0.6671
  795MOL0     H 4927   2.687   8.496   7.378 -0.3718  2.7605  0.3601
  795MOL0     H 4928   2.963   8.683   7.641 -1.0179  0.4503 -0.3241
  795MOL0     H 4929   3.163   8.773   7.745  1.7284  0.2889 -1.1451
  795MOL0     H 4930   3.344   8.815   7.863 -2.5159 -2.3638 -3.1297
  795MOL0     H 4931   3.437   8.759   7.726 -1.2270 -3.9958 -1.4422
  795MOL0     H 4932   3.534   8.728   8.021  2.3120  1.1706  0.0320
  795MOL0     H 4933   3.606   8.675   7.862  1.9032  0.2006  1.0889
  795MOL0     H 4934   3.587   8.920   7.785 -0.4477  0.7142  0.7175
  795MOL0     H 4935   3.718   8.869   7.894 -0.3298 -4.0162 -1.2825
  795MOL0     H 4936   3.560   8.967   8.081  0.6822 -0.7686 -0.1306
  795MOL0     H 4937   3.640   9.082   7.977  0.5789 -0.5994  1.1107
  795MOL0     H 4938   3.281   9.172   7.820  0.8678  2.8414  0.5883
  795MOL0     H 4939   3.315   8.380   7.815 -0.9673 -0.0835  0.7288
  795MOL0     H 4940   3.129   8.273   7.706  0.0168 -0.2515  0.6243
  796MOL0     O 4941   8.647   6.618   1.103 -0.8286 -0.3757  0.4554
  796MOL0     C 4942   8.683   6.511   1.053 -0.2218 -1.3858  0.2622
  796MOL0     O 4943   8.594   6.422   1.001  0.3602  0.9115 -0.0166
  796MOL0     C 4944   8.466   6.461   0.972  0.6499  0.4047  0.2110
  796MOL0     C 4945   8.379   6.544   1.057 -0.8691 -0.5625  0.8664
  796MOL0     C 4946   8.247   6.575   1.004  0.0773  0.8516 -0.8471
  796MOL0     C 4947   8.197   6.501   0.889  0.1874  0.5483 -1.1117
  796MOL0     O 4948   8.066   6.517   0.847 -0.2679  0.7707 -0.6476
  796MOL0     C 4949   7.960   6.551   0.944 -0.1346  0.2810 -0.0815
  796MOL0     C 4950   7.829   6.486   0.904 -0.9523  0.3186 -0.5732
  796MOL0     C 4951   7.704   6.562   0.937 -0.5562  0.2350  0.1768
  796MOL0     C 4952   7.579   6.490   0.895  0.1638 -0.0976 -0.3212
  796MOL0     C 4953   7.460   6.581   0.897  0.3013  0.1108  0.9304
  796MOL0     C 4954   7.348   6.526   0.806  0.6424 -0.0474 -0.2865
  796MOL0     C 4955   7.223   6.618   0.807 -0.4416  0.3327 -0.1774
  796MOL0     C 4956   7.096   6.545   0.752 -0.5520 -0.1801 -1.5187
  796MOL0     N 4957   6.980   6.629   0.773  0.2594 -0.1506 -1.0866
  796MOL0     C 4958   6.910   6.698   0.678 -0.5109  0.3489 -0.3661
  796MOL0     C 4959   6.804   6.738   0.749  1.7925 -0.3300  0.7747
  796MOL0     C 4960   6.678   6.803   0.678 -1.2109 -1.0490 -0.3353
  796MOL0     C 4961   6.634   6.925   0.761  0.1638  0.0823  0.9315
  796MOL0     C 4962   6.538   7.018   0.672 -1.0206  0.9087  0.1133
  796MOL0     C 4963   6.552   7.158   0.725 -0.1439  0.4015 -0.3646
  796MOL0     O 4964   6.455   7.250   0.658  0.4589  0.5717  0.2344
  796MOL0     C 4965   6.324   7.244   0.693  1.0999 -1.1307 -0.8208
  796MOL0     C 4966   6.237   7.311   0.603 -0.4146  0.3696 -0.2635
  796MOL0     C 4967   6.099   7.318   0.630 -0.3653 -0.5131 -0.7914
  796MOL0     C 4968   6.035   7.259   0.739  0.1136 -0.3101  0.2943
  796MOL0     C 4969   5.890   7.249   0.751  0.1204  0.3769 -0.7158
  796MOL0     O 4970   5.814   7.349   0.695  0.0254  0.2002  0.2673
  796MOL0     C 4971   5.693   7.384   0.745  0.1720 -0.1058 -0.1543
  796MOL0     C 4972   5.600   7.293   0.779  0.3154  0.7457 -0.8630
  796MOL0     C 4973   5.484   7.330   0.835  0.6218 -0.8152  0.2566
  796MOL0     C 4974   5.441   7.471   0.840  0.1566  0.3638 -0.4380
  796MOL0     O 4975   5.321   7.521   0.890 -0.6229  0.1701 -0.1173
  796MOL0     C 4976   5.198   7.466   0.861  0.0394  0.3261  0.4254
  796MOL0     C 4977   5.097   7.558   0.922 -0.0406 -0.0526 -1.2470
  796MOL0     C 4978   5.044   7.670   0.834 -0.4795  0.3736 -0.4252
  796MOL0     C 4979   5.155   7.770   0.790  0.5561 -0.2979  0.3266
  796MOL0     C 4980   5.102   7.917   0.776  0.4780  0.4565 -0.3422
  796MOL0     C 4981   4.986   7.924   0.677  0.2057 -0.4208  0.3003
  796MOL0     C 4982   4.978   8.065   0.615  0.2576 -0.3152  0.6789
  796MOL0     C 4983   4.873   8.085   0.508 -0.5549 -0.2071 -0.2404
  796MOL0    Cl 4984   4.725   8.060   0.586 -0.0550 -0.0162 -0.1529
  796MOL0     C 4985   5.536   7.565   0.804  0.5280  0.2740 -1.0406
  796MOL0     C 4986   5.666   7.517   0.755  0.3260  0.0430  0.1403
  796MOL0     O 4987   5.850   7.159   0.819 -0.0183 -0.1128  0.0474
  796MOL0     C 4988   6.123   7.189   0.826 -0.5232 -0.6767  0.8226
  796MOL0     C 4989   6.264   7.178   0.805 -0.7424  0.8328 -0.4641
  796MOL0     N 4990   6.808   6.704   0.884  0.1856  0.1814  0.4585
  796MOL0     N 4991   6.908   6.627   0.895 -0.0946 -0.1743  0.8698
  796MOL0     C 4992   8.283   6.419   0.816  0.9771  0.2297 -0.3958
  796MOL0     C 4993   8.413   6.391   0.862  1.0898  0.0640 -0.4513
  796MOL0     C 4994   8.834   6.473   1.051 -0.8042  0.3073  0.2354
  796MOL0     C 4995   8.920   6.552   1.127 -0.5692 -0.4573  0.4652
  796MOL0     C 4996   9.059   6.541   1.117  0.2205  0.0881  0.3541
  796MOL0     C 4997   9.114   6.425   1.047 -0.4477 -0.4332  0.0251
  796MOL0     O 4998   9.244   6.386   1.062  0.2889  0.2902 -0.3733
  796MOL0     C 4999   9.336   6.485   1.100 -0.3535  0.0249 -0.1767
  796MOL0     C 5000   9.468   6.432   1.076 -0.0398 -0.3523  0.3536
  796MOL0     C 5001   9.521   6.340   1.189 -0.2063 -0.2289 -0.5780
  796MOL0     C 5002   9.668   6.335   1.179 -0.0683  0.2586 -0.5433
  796MOL0     C 5003   9.718   6.248   1.288 -0.2971 -0.4458 -0.1845
  796MOL0     C 5004   9.759   6.174   1.368  0.0041  0.2233 -0.3197
  796MOL0     C 5005   9.027   6.342   0.979 -0.0840 -0.2563  0.0731
  796MOL0     C 5006   8.889   6.365   0.976  0.6153 -0.4994 -0.1205
  796MOL0     H 5007   8.420   6.603   1.139 -1.5666  1.9511 -0.4804
  796MOL0     H 5008   8.182   6.651   1.047  0.7688 -0.0224  1.9464
  796MOL0     H 5009   7.943   6.657   0.966 -1.0200 -0.2241  1.8836
  796MOL0     H 5010   7.986   6.513   1.043  1.8753 -1.3496 -1.1666
  796MOL0     H 5011   7.822   6.394   0.963  0.3719  0.2610 -0.4562
  796MOL0     H 5012   7.825   6.466   0.796 -3.1892  0.2629 -0.5214
  796MOL0     H 5013   7.722   6.655   0.882  0.8685 -0.2557 -0.2225
  796MOL0     H 5014   7.697   6.586   1.043 -0.0538  1.7284 -0.1047
  796MOL0     H 5015   7.593   6.457   0.792 -0.1673  1.0157 -0.7369
  796MOL0     H 5016   7.553   6.404   0.958 -0.0911 -2.4655 -3.4216
  796MOL0     H 5017   7.495   6.675   0.853  1.6292 -1.2888 -1.1305
  796MOL0     H 5018   7.425   6.597   1.000 -2.3297 -1.7512  0.4199
  796MOL0     H 5019   7.318   6.428   0.844 -0.1076  0.2103 -0.2104
  796MOL0     H 5020   7.398   6.517   0.709  0.7788 -0.1284 -0.2085
  796MOL0     H 5021   7.201   6.663   0.904 -0.8868  3.5196 -1.6116
  796MOL0     H 5022   7.237   6.702   0.738  0.1608  0.8070  0.5075
  796MOL0     H 5023   7.072   6.448   0.796  0.0719  0.6671  0.8881
  796MOL0     H 5024   7.114   6.524   0.646 -2.3038  2.5804 -2.4849
  796MOL0     H 5025   6.922   6.705   0.570 -0.9908  4.5966 -0.3056
  796MOL0     H 5026   6.595   6.732   0.688 -0.7352 -1.5431  0.2184
  796MOL0     H 5027   6.703   6.821   0.574  1.4590 -2.7884 -0.1059
  796MOL0     H 5028   6.722   6.980   0.796  1.9295 -1.2176 -1.2343
  796MOL0     H 5029   6.574   6.899   0.849 -2.3785  1.3245 -0.3043
  796MOL0     H 5030   6.569   7.015   0.567 -1.1292  0.0970  0.0965
  796MOL0     H 5031   6.434   6.983   0.680 -1.5125  1.7375 -2.0732
  796MOL0     H 5032   6.653   7.189   0.699  0.6852  0.7321  2.8254
  796MOL0     H 5033   6.543   7.167   0.834 -0.3475  1.2689 -0.4500
  796MOL0     H 5034   6.270   7.346   0.505  0.6288 -0.6367 -0.2894
  796MOL0     H 5035   6.048   7.375   0.553  0.4742 -2.5654 -2.9914
  796MOL0     H 5036   5.613   7.186   0.790  0.6186  0.8999  0.5025
  796MOL0     H 5037   5.417   7.258   0.881  0.0457  0.3808  1.3625
  796MOL0     H 5038   5.203   7.361   0.888  2.9527  0.7148  1.7064
  796MOL0     H 5039   5.175   7.470   0.754 -3.0089 -0.8929  0.9437
  796MOL0     H 5040   5.136   7.611   1.009  0.2054  2.0491 -2.5590
  796MOL0     H 5041   5.009   7.504   0.958  2.0467 -1.4268  2.2936
  796MOL0     H 5042   4.961   7.718   0.888 -1.3440  2.1304 -3.1159
  796MOL0     H 5043   5.004   7.614   0.749 -1.0187 -1.7368  1.1352
  796MOL0     H 5044   5.234   7.782   0.864  1.2249  0.9016 -0.5550
  796MOL0     H 5045   5.201   7.747   0.693 -0.3876 -1.7635  0.1909
  796MOL0     H 5046   5.179   7.995   0.767  0.7081  0.4343  1.1025
  796MOL0     H 5047   5.065   7.959   0.871  1.2990  0.1264  0.1371
  796MOL0     H 5048   4.887   7.905   0.721 -1.2164  2.1812 -1.5220
  796MOL0     H 5049   5.003   7.861   0.589  0.8616  3.1478 -2.3137
  796MOL0     H 5050   4.968   8.150   0.683  0.7643  0.6550 -0.4202
  796MOL0     H 5051   5.068   8.077   0.554 -0.6214  0.3064 -0.5278
  796MOL0     H 5052   4.892   8.019   0.423 -0.5264  0.6650 -0.9383
  796MOL0     H 5053   4.873   8.190   0.476 -0.8346 -0.4886 -1.1772
  796MOL0     H 5054   5.504   7.668   0.817 -3.9515 -1.0996  0.4733
  796MOL0     H 5055   5.735   7.596   0.728 -0.6571  1.6829  2.1191
  796MOL0     H 5056   6.094   7.133   0.914 -3.0050 -2.3876 -0.9445
  796MOL0     H 5057   6.325   7.139   0.886  0.1671  0.3779 -1.3395
  796MOL0     H 5058   8.230   6.375   0.732  0.3393 -3.3556  1.6831
  796MOL0     H 5059   8.473   6.319   0.807  1.7239 -0.9400  1.4824
  796MOL0     H 5060   8.887   6.637   1.186  0.0226  1.3967 -1.7097
  796MOL0     H 5061   9.112   6.614   1.176 -0.3551  1.3757 -0.6603
  796MOL0     H 5062   9.315   6.529   1.198  0.6717  2.2581 -0.8892
  796MOL0     H 5063   9.326   6.575   1.039 -3.2840  0.3492  0.6139
  796MOL0     H 5064   9.465   6.380   0.979  1.3895 -0.1147  0.1647
  796MOL0     H 5065   9.539   6.516   1.072  0.0318 -0.2365  2.7407
  796MOL0     H 5066   9.466   6.245   1.194 -1.8596  0.7423  1.6659
  796MOL0     H 5067   9.491   6.383   1.285 -0.5444 -0.4267 -0.5941
  796MOL0     H 5068   9.696   6.297   1.081 -0.1087 -0.1323 -0.4039
  796MOL0     H 5069   9.704   6.437   1.194  0.0334  0.3174 -1.1675
  796MOL0     H 5070   9.802   6.130   1.456 -0.7435 -1.3725 -0.7266
  796MOL0     H 5071   9.079   6.259   0.932 -0.0541  0.0358 -0.4147
  796MOL0     H 5072   8.831   6.301   0.911 -2.0830  1.6888 -0.0779
  797MOL0     O 5073   2.218   9.750   5.603  0.3143 -0.4899 -0.5676
  797MOL0     C 5074   2.246   9.636   5.634 -0.0608  0.4284  1.0147
  797MOL0     O 5075   2.158   9.542   5.655 -0.1278 -0.5223 -0.1809
  797MOL0     C 5076   2.020   9.576   5.687 -0.0073  0.2924 -0.0160
  797MOL0     C 5077   1.940   9.683   5.640  0.5907 -0.5284  0.1100
  797MOL0     C 5078   1.803   9.680   5.655  0.8248 -0.2195 -0.5807
  797MOL0     C 5079   1.748   9.578   5.734  0.0693 -0.5234  0.4569
  797MOL0     O 5080   1.614   9.573   5.738  0.1951  0.4448 -0.3604
  797MOL0     C 5081   1.549   9.540   5.866  0.6740 -0.1913  0.2570
  797MOL0     C 5082   1.406   9.532   5.859  0.0691  0.4438 -0.2310
  797MOL0     C 5083   1.361   9.429   5.763  0.9810 -0.1399  0.6533
  797MOL0     C 5084   1.205   9.424   5.754 -1.3699  0.1266 -1.3708
  797MOL0     C 5085   1.150   9.309   5.660 -0.3901  0.5719 -0.1256
  797MOL0     C 5086   1.183   9.164   5.708 -0.1732 -0.2273  0.0965
  797MOL0     C 5087   1.297   9.109   5.634 -0.5629 -0.0025 -0.4479
  797MOL0     C 5088   1.296   8.958   5.658  0.3871 -0.5397 -0.2145
  797MOL0     N 5089   1.227   8.897   5.544 -0.5438 -0.5170  0.5859
  797MOL0     C 5090   1.095   8.903   5.506 -0.5362  0.1115  0.4515
  797MOL0     C 5091   1.086   8.836   5.394  0.1582  0.3843  0.0152
  797MOL0     C 5092   0.966   8.803   5.322  0.5588 -0.2549 -0.0603
  797MOL0     C 5093   0.990   8.664   5.258 -0.4354  0.1746 -0.5192
  797MOL0     C 5094   1.010   8.546   5.351 -0.3644  0.9114 -0.1326
  797MOL0     C 5095   0.896   8.535   5.451 -0.2861  0.7262 -0.4369
  797MOL0     O 5096   0.781   8.519   5.363 -0.2079 -0.3963 -0.2193
  797MOL0     C 5097   0.659   8.495   5.418  1.1265 -0.1732  0.4404
  797MOL0     C 5098   0.559   8.471   5.331 -0.8150 -0.3022 -0.0540
  797MOL0     C 5099   0.432   8.459   5.369  0.8980 -0.2285  0.0908
  797MOL0     C 5100   0.398   8.458   5.504 -0.6981 -0.0790  0.0573
  797MOL0     C 5101   0.263   8.422   5.546 -0.4075  0.0826 -0.6721
  797MOL0     O 5102   0.164   8.386   5.452  0.1831  0.0608 -0.1931
  797MOL0     C 5103   0.034   8.367   5.498  0.0895 -0.5380 -0.2339
  797MOL0     C 5104  -0.042   8.457   5.584 -0.2965 -0.5067  0.1220
  797MOL0     C 5105  -0.175   8.431   5.608 -1.1082 -0.8579  0.4552
  797MOL0     C 5106  -0.234   8.322   5.550 -1.7604  0.0441  0.5066
  797MOL0     O 5107  -0.362   8.292   5.569  0.4021  0.3602 -0.1278
  797MOL0     C 5108  -0.452   8.399   5.596 -0.0374  0.5999 -0.5559
  797MOL0     C 5109  -0.589   8.335   5.582 -1.0776  0.1884  0.6343
  797MOL0     C 5110  -0.687   8.453   5.567  0.0971  0.8394 -0.5386
  797MOL0     C 5111  -0.827   8.408   5.525 -0.0244 -0.0463 -0.1337
  797MOL0     C 5112  -0.905   8.347   5.638  0.0658 -0.4042  0.5036
  797MOL0     C 5113  -1.046   8.308   5.575 -0.7634 -0.7470 -0.8807
  797MOL0     C 5114  -1.154   8.293   5.685  0.3751  0.0378 -0.6590
  797MOL0     C 5115  -1.284   8.222   5.652 -0.1254 -0.0302 -0.0318
  797MOL0    Cl 5116  -1.408   8.339   5.593 -0.1359 -0.0872  0.1720
  797MOL0     C 5117  -0.152   8.226   5.482  0.1519  0.5954  0.3426
  797MOL0     C 5118  -0.024   8.254   5.447 -0.1761  0.0438  0.7052
  797MOL0     O 5119   0.246   8.432   5.667  0.5086 -0.2129  0.0704
  797MOL0     C 5120   0.506   8.486   5.591  0.3302  0.2708 -1.0862
  797MOL0     C 5121   0.629   8.507   5.545 -0.0385  0.0928  0.4049
  797MOL0     N 5122   1.210   8.799   5.356 -0.8925 -0.4073  0.3664
  797MOL0     N 5123   1.294   8.829   5.449  0.5592 -1.1590 -0.1489
  797MOL0     C 5124   1.827   9.482   5.808  0.2055 -0.3258  0.2766
  797MOL0     C 5125   1.964   9.483   5.779 -1.1371 -0.5026 -0.3896
  797MOL0     C 5126   2.389   9.595   5.632 -0.0192 -0.4194  0.3903
  797MOL0     C 5127   2.428   9.463   5.679  0.5731 -0.5698 -0.5709
  797MOL0     C 5128   2.559   9.427   5.671 -0.4365 -0.7179  0.5167
  797MOL0     C 5129   2.662   9.516   5.644  0.4106  0.0600 -0.0468
  797MOL0     O 5130   2.791   9.470   5.668 -0.4430  0.0187  0.3189
  797MOL0     C 5131   2.901   9.570   5.656 -0.0302  0.3220  0.1656
  797MOL0     C 5132   3.035   9.506   5.696  0.1146  0.3833  0.2290
  797MOL0     C 5133   3.070   9.377   5.608  0.2256  0.4203  0.0855
  797MOL0     C 5134   3.185   9.286   5.672 -1.1669 -0.0383 -0.6854
  797MOL0     C 5135   3.299   9.366   5.720  0.6653  0.2695  0.7323
  797MOL0     C 5136   3.395   9.445   5.734 -0.2360 -0.0290  0.4808
  797MOL0     C 5137   2.620   9.647   5.603  0.3338  0.6912 -0.0211
  797MOL0     C 5138   2.491   9.681   5.594 -0.5013 -0.0557  0.3308
  797MOL0     H 5139   1.980   9.760   5.576 -1.8912 -1.8892 -3.3928
  797MOL0     H 5140   1.741   9.747   5.597  0.0981  2.1057  2.6061
  797MOL0     H 5141   1.559   9.629   5.929 -3.2275  0.4746  0.1431
  797MOL0     H 5142   1.592   9.454   5.918  0.8258  0.8251  1.8966
  797MOL0     H 5143   1.367   9.631   5.833  1.2485  1.1809  0.6822
  797MOL0     H 5144   1.367   9.517   5.960 -1.3652  5.4573  0.2244
  797MOL0     H 5145   1.409   9.333   5.787 -0.4742 -0.1941  3.8473
  797MOL0     H 5146   1.395   9.451   5.661 -3.1628 -1.3657 -1.2042
  797MOL0     H 5147   1.166   9.409   5.855 -1.6576 -0.0226 -1.5014
  797MOL0     H 5148   1.160   9.517   5.716 -2.8215 -0.6858 -1.7268
  797MOL0     H 5149   1.179   9.323   5.556 -1.0973 -3.0267 -0.9352
  797MOL0     H 5150   1.041   9.315   5.666 -0.7444 -0.2062 -3.6628
  797MOL0     H 5151   1.093   9.108   5.682 -0.5696  1.1935 -1.8332
  797MOL0     H 5152   1.193   9.165   5.817 -1.1433  1.2022  0.2012
  797MOL0     H 5153   1.293   9.139   5.529 -2.7418  0.8070 -0.1661
  797MOL0     H 5154   1.388   9.153   5.676 -2.3764  1.1228  2.5659
  797MOL0     H 5155   1.245   8.927   5.750  0.2688 -3.8773 -1.2583
  797MOL0     H 5156   1.400   8.927   5.672  0.6037  0.5916  0.8246
  797MOL0     H 5157   1.011   8.956   5.550  0.0050  1.0132  0.4169
  797MOL0     H 5158   0.926   8.872   5.248 -3.3490 -0.9750  1.1443
  797MOL0     H 5159   0.880   8.798   5.390 -0.1252  3.0901 -0.5408
  797MOL0     H 5160   1.077   8.670   5.192  0.2634 -0.3342  0.3445
  797MOL0     H 5161   0.899   8.653   5.199 -1.6270 -0.7019  1.3725
  797MOL0     H 5162   1.004   8.457   5.289  0.0619 -0.6696  1.9630
  797MOL0     H 5163   1.106   8.551   5.404 -0.7927  1.3879  0.6144
  797MOL0     H 5164   0.889   8.623   5.516 -0.4949  0.9848 -0.8107
  797MOL0     H 5165   0.904   8.443   5.509 -0.6640  1.0009  0.0623
  797MOL0     H 5166   0.567   8.477   5.223 -1.5334 -1.8655 -0.2200
  797MOL0     H 5167   0.364   8.451   5.284  2.1659  0.8615 -1.0860
  797MOL0     H 5168  -0.004   8.553   5.617 -0.0216 -0.1503 -1.1642
  797MOL0     H 5169  -0.229   8.504   5.667  1.2412  0.3262  1.2758
  797MOL0     H 5170  -0.428   8.478   5.524 -1.2532 -1.2099 -3.1296
  797MOL0     H 5171  -0.433   8.447   5.692  2.1214 -0.6458 -0.3019
  797MOL0     H 5172  -0.629   8.275   5.664 -2.3702 -0.9930 -0.8045
  797MOL0     H 5173  -0.591   8.266   5.497  1.6682  0.2873  0.3992
  797MOL0     H 5174  -0.655   8.536   5.503 -1.3014  1.7758 -0.0966
  797MOL0     H 5175  -0.689   8.483   5.672  4.0330  2.1675 -0.6806
  797MOL0     H 5176  -0.878   8.502   5.500 -3.0631 -1.1283  1.5347
  797MOL0     H 5177  -0.826   8.334   5.445 -0.5361 -2.1912  1.7393
  797MOL0     H 5178  -0.931   8.422   5.713 -2.7073 -0.5595 -0.2048
  797MOL0     H 5179  -0.852   8.265   5.688  1.8124  0.4238  0.0836
  797MOL0     H 5180  -1.031   8.221   5.511  0.2290 -0.3082 -1.2694
  797MOL0     H 5181  -1.076   8.393   5.514 -4.0684 -1.4529 -0.4634
  797MOL0     H 5182  -1.102   8.228   5.755  1.0008  1.7157  0.4999
  797MOL0     H 5183  -1.171   8.384   5.743 -0.6989 -0.7189  0.2481
  797MOL0     H 5184  -1.323   8.179   5.744 -1.6923 -0.5220 -0.8858
  797MOL0     H 5185  -1.261   8.140   5.583 -1.0245  0.9894 -1.6175
  797MOL0     H 5186  -0.198   8.132   5.455 -2.7887  1.1137  2.9427
  797MOL0     H 5187   0.036   8.179   5.397 -0.4844  1.0096 -1.1857
  797MOL0     H 5188   0.485   8.485   5.698  1.8065  0.4793 -0.7707
  797MOL0     H 5189   0.701   8.530   5.623 -0.5821  1.2151  0.5829
  797MOL0     H 5190   1.782   9.394   5.852 -0.6127 -0.9585 -1.6755
  797MOL0     H 5191   2.037   9.414   5.820 -0.6000 -0.3018 -0.9898
  797MOL0     H 5192   2.358   9.386   5.711 -0.3175  1.4194  2.6889
  797MOL0     H 5193   2.593   9.328   5.702  1.2509  0.2882  2.0982
  797MOL0     H 5194   2.878   9.652   5.724  1.9000  0.7159  0.3965
  797MOL0     H 5195   2.908   9.610   5.554  0.8553 -2.8239 -1.1506
  797MOL0     H 5196   3.111   9.585   5.686 -0.8562  1.2923 -0.0659
  797MOL0     H 5197   3.037   9.463   5.797  0.4721 -0.1894 -0.0138
  797MOL0     H 5198   3.106   9.409   5.510 -0.3806  0.1524 -0.2281
  797MOL0     H 5199   2.987   9.314   5.575  0.8357  1.0773 -2.9819
  797MOL0     H 5200   3.137   9.238   5.758  0.3366 -0.8520 -0.2637
  797MOL0     H 5201   3.229   9.212   5.604  0.5422 -1.1014  1.4657
  797MOL0     H 5202   3.481   9.505   5.756 -0.3691 -0.7394  3.3718
  797MOL0     H 5203   2.688   9.724   5.568 -0.7327  2.9439  2.5007
  797MOL0     H 5204   2.450   9.780   5.576 -2.4650 -0.8833 -0.0066
  798MOL0     O 5205   5.642  10.415   8.486 -0.1421  0.0198 -0.0040
  798MOL0     C 5206   5.676  10.325   8.404  0.1652  0.6437  0.0445
  798MOL0     O 5207   5.581  10.241   8.337  0.2881 -0.9804  0.1507
  798MOL0     C 5208   5.455  10.282   8.321  0.3017  0.5741 -0.4324
  798MOL0     C 5209   5.349  10.189   8.317 -0.6328 -0.1022 -0.6378
  798MOL0     C 5210   5.212  10.222   8.298  0.3914  0.2091  0.4374
  798MOL0     C 5211   5.168  10.358   8.300 -0.6502  0.6205  0.0922
  798MOL0     O 5212   5.033  10.385   8.295  0.8632 -0.4384  0.2305
  798MOL0     C 5213   5.005  10.486   8.196 -0.9021  0.1702 -0.8392
  798MOL0     C 5214   4.858  10.472   8.155 -0.2580 -0.4556  0.1585
  798MOL0     C 5215   4.822  10.590   8.065 -0.3532 -0.7383 -0.0923
  798MOL0     C 5216   4.675  10.587   8.037 -0.6832  0.3424 -0.2710
  798MOL0     C 5217   4.638  10.699   7.939  1.0238 -0.6197  0.7635
  798MOL0     C 5218   4.485  10.730   7.931  0.2460 -0.7015 -0.1833
  798MOL0     C 5219   4.432  10.856   7.843  0.5626  0.1850 -0.5182
  798MOL0     C 5220   4.419  10.826   7.686 -0.1099  0.2641  0.1498
  798MOL0     N 5221   4.355  10.934   7.613 -0.5370  0.0080  0.5791
  798MOL0     C 5222   4.232  10.994   7.643 -0.6512  0.3768 -0.2277
  798MOL0     C 5223   4.206  11.066   7.531  0.1654  0.1410 -0.0790
  798MOL0     C 5224   4.104  11.167   7.499  0.0009 -0.3665  0.1504
  798MOL0     C 5225   4.003  11.104   7.410 -0.3324 -0.2251  0.7299
  798MOL0     C 5226   3.932  11.212   7.339  1.4293 -0.1153 -0.0913
  798MOL0     C 5227   3.821  11.152   7.258 -0.3176 -0.2828  1.5893
  798MOL0     O 5228   3.684  11.177   7.306  0.2138  0.3096 -0.0839
  798MOL0     C 5229   3.591  11.195   7.206  0.5980 -0.1925 -0.3276
  798MOL0     C 5230   3.593  11.147   7.074 -0.5051  0.0891 -0.2767
  798MOL0     C 5231   3.498  11.181   6.974  0.3516 -1.0009  0.4327
  798MOL0     C 5232   3.381  11.251   7.019 -0.3626  0.1158 -1.3452
  798MOL0     C 5233   3.264  11.265   6.935  0.5136  0.6423 -0.1948
  798MOL0     O 5234   3.267  11.195   6.815 -0.5073  0.8937 -0.7857
  798MOL0     C 5235   3.148  11.179   6.745 -0.0339  0.8084  0.3381
  798MOL0     C 5236   3.137  11.219   6.609  0.2244  0.3463  0.8341
  798MOL0     C 5237   3.018  11.183   6.541  0.6132  0.9526 -0.0501
  798MOL0     C 5238   2.915  11.109   6.597 -0.4908  0.8875  0.3513
  798MOL0     O 5239   2.799  11.094   6.526  0.0459  0.6067  1.5449
  798MOL0     C 5240   2.747  10.959   6.543  0.5719  0.4853 -0.4660
  798MOL0     C 5241   2.605  10.966   6.487 -0.7488 -0.6087 -0.3784
  798MOL0     C 5242   2.540  10.826   6.512  0.1386  0.0508  0.4812
  798MOL0     C 5243   2.554  10.730   6.388  0.0271 -0.2090  0.0740
  798MOL0     C 5244   2.485  10.588   6.409  0.3094 -0.2867  0.0327
  798MOL0     C 5245   2.407  10.528   6.291 -0.5890 -0.1895 -0.3441
  798MOL0     C 5246   2.510  10.498   6.177 -0.4560  0.6905  0.0566
  798MOL0     C 5247   2.455  10.420   6.062 -0.0083  0.2684  0.3174
  798MOL0    Cl 5248   2.313  10.491   5.984 -0.0712  0.5256  0.3837
  798MOL0     C 5249   2.928  11.079   6.734  1.0137 -0.2000  0.5517
  798MOL0     C 5250   3.040  11.116   6.806 -0.1512  0.2456 -0.4956
  798MOL0     O 5251   3.169  11.338   6.968 -0.4746 -0.3972 -0.3527
  798MOL0     C 5252   3.373  11.278   7.159 -0.5616  0.3078  0.4579
  798MOL0     C 5253   3.476  11.255   7.252 -0.3448 -0.4973  0.4472
  798MOL0     N 5254   4.318  11.058   7.452 -0.0436  0.1832  0.4782
  798MOL0     N 5255   4.410  10.982   7.503 -0.2612 -0.5098 -0.9630
  798MOL0     C 5256   5.276  10.455   8.313  0.0894 -0.6031 -0.5466
  798MOL0     C 5257   5.413  10.415   8.323 -0.6521 -0.1694 -0.0216
  798MOL0     C 5258   5.822  10.287   8.387  1.3155 -0.3416 -0.3804
  798MOL0     C 5259   5.923  10.371   8.437  0.6507  0.0443  0.2293
  798MOL0     C 5260   6.058  10.345   8.408  0.0190  0.5523  0.8039
  798MOL0     C 5261   6.092  10.237   8.320  0.6707  0.4484 -0.0254
  798MOL0     O 5262   6.221  10.209   8.293  0.1206  0.4691  0.9031
  798MOL0     C 5263   6.310  10.320   8.260  0.2470 -0.4702 -0.6932
  798MOL0     C 5264   6.449  10.273   8.266 -0.8835 -0.2062  0.0476
  798MOL0     C 5265   6.476  10.203   8.396 -0.6528  0.4022 -0.2733
  798MOL0     C 5266   6.630  10.184   8.412 -0.6333 -0.9042 -0.4979
  798MOL0     C 5267   6.682  10.080   8.319  0.0487  0.4148 -0.8949
  798MOL0     C 5268   6.721   9.989   8.253 -0.4994 -0.5781 -0.0073
  798MOL0     C 5269   5.990  10.145   8.277 -0.0439 -0.0938 -0.7739
  798MOL0     C 5270   5.855  10.175   8.311 -0.5398 -0.4096 -0.8419
  798MOL0     H 5271   5.397  10.093   8.330 -2.6829 -1.4925 -2.4829
  798MOL0     H 5272   5.138  10.142   8.294 -1.8275  1.9775  2.7988
  798MOL0     H 5273   5.064  10.479   8.105 -2.0774  0.1573 -1.6179
  798MOL0     H 5274   5.022  10.583   8.243 -2.3194  0.7914 -1.5611
  798MOL0     H 5275   4.790  10.469   8.241 -1.2744 -0.2066 -0.6106
  798MOL0     H 5276   4.849  10.379   8.097  0.6236 -0.8758  0.6775
  798MOL0     H 5277   4.873  10.590   7.968  0.3599  1.8806  0.2038
  798MOL0     H 5278   4.849  10.687   8.108 -3.2841  1.3438 -2.5821
  798MOL0     H 5279   4.643  10.493   7.990 -0.6753  1.3647 -2.4520
  798MOL0     H 5280   4.619  10.597   8.131  0.8395 -1.7747  0.9326
  798MOL0     H 5281   4.687  10.676   7.843  0.6623  0.0523  0.4090
  798MOL0     H 5282   4.681  10.797   7.964 -1.0443  0.5237  0.0484
  798MOL0     H 5283   4.454  10.748   8.034 -2.6678 -0.2348 -1.0312
  798MOL0     H 5284   4.428  10.639   7.911  0.4823 -1.8899  3.7680
  798MOL0     H 5285   4.335  10.889   7.884  0.7257 -0.7230  0.6645
  798MOL0     H 5286   4.498  10.942   7.855  0.4444  0.5013 -1.9169
  798MOL0     H 5287   4.359  10.737   7.666 -2.3624  0.8569  3.4166
  798MOL0     H 5288   4.520  10.807   7.650 -0.3391  0.8890 -0.8574
  798MOL0     H 5289   4.164  10.987   7.727  1.7984 -0.6744  1.8125
  798MOL0     H 5290   4.151  11.259   7.462  1.5698 -1.3779 -0.4845
  798MOL0     H 5291   4.044  11.190   7.588 -1.3278  0.6480 -0.9758
  798MOL0     H 5292   3.931  11.042   7.463 -1.2167 -1.6142 -1.9219
  798MOL0     H 5293   4.048  11.032   7.341  1.4611  0.2629  1.3243
  798MOL0     H 5294   3.888  11.282   7.411  1.6062  0.3954 -0.4794
  798MOL0     H 5295   4.005  11.264   7.277 -1.5424  2.3480 -1.8128
  798MOL0     H 5296   3.841  11.046   7.235  1.5808  0.4147 -0.2849
  798MOL0     H 5297   3.838  11.207   7.166  0.3547 -0.9295  1.3148
  798MOL0     H 5298   3.678  11.086   7.047 -1.8270 -0.9714 -2.2494
  798MOL0     H 5299   3.510  11.155   6.869  1.8908 -0.7799  0.5290
  798MOL0     H 5300   3.219  11.267   6.556  0.9239 -3.6398 -2.1609
  798MOL0     H 5301   3.000  11.204   6.436  0.0849  3.5200  0.4831
  798MOL0     H 5302   2.741  10.937   6.650  3.6624  0.9016 -0.1025
  798MOL0     H 5303   2.813  10.886   6.495 -1.4823 -1.8629  0.0998
  798MOL0     H 5304   2.595  11.004   6.385 -0.2739 -0.4597 -0.3728
  798MOL0     H 5305   2.544  11.030   6.552 -0.7088 -3.2293  2.4772
  798MOL0     H 5306   2.437  10.843   6.544 -0.2436 -3.6801  1.7111
  798MOL0     H 5307   2.592  10.782   6.598  1.6425  1.4386  0.3307
  798MOL0     H 5308   2.517  10.788   6.302  2.0772  1.7327  0.3895
  798MOL0     H 5309   2.663  10.725   6.373 -0.2017  0.6341 -2.3823
  798MOL0     H 5310   2.416  10.600   6.494  3.0726  1.0128  2.2567
  798MOL0     H 5311   2.563  10.522   6.447  1.4678  1.1749  0.2640
  798MOL0     H 5312   2.337  10.606   6.259  0.0062  1.0341  1.2146
  798MOL0     H 5313   2.349  10.436   6.306  0.1527 -0.4486  1.0979
  798MOL0     H 5314   2.563  10.588   6.144 -1.9703  1.5097 -0.2416
  798MOL0     H 5315   2.586  10.425   6.208 -0.0704  0.2460 -1.8100
  798MOL0     H 5316   2.454  10.314   6.089  0.2607  0.3362  0.6014
  798MOL0     H 5317   2.540  10.419   5.993 -0.8385 -0.5706 -0.7277
  798MOL0     H 5318   2.850  11.029   6.790  0.7808 -2.5465 -1.6526
  798MOL0     H 5319   3.048  11.070   6.904  2.6460 -1.2210 -1.2848
  798MOL0     H 5320   3.283  11.322   7.201 -0.9149  2.6647 -2.4705
  798MOL0     H 5321   3.473  11.288   7.355  0.5862 -2.1889  1.0606
  798MOL0     H 5322   5.269  10.563   8.308  2.2728 -0.4399 -0.9167
  798MOL0     H 5323   5.478  10.502   8.331  0.5357 -1.0993  0.8034
  798MOL0     H 5324   5.902  10.459   8.498 -1.0675  0.3334 -0.7159
  798MOL0     H 5325   6.135  10.408   8.451 -0.6769 -0.4558  3.8128
  798MOL0     H 5326   6.298  10.411   8.320  0.4528  0.6469 -2.2835
  798MOL0     H 5327   6.290  10.346   8.156  0.7765 -2.1279 -1.2292
  798MOL0     H 5328   6.456  10.202   8.184 -2.1559  1.5900 -1.6990
  798MOL0     H 5329   6.519  10.356   8.255 -1.4334  0.2228 -0.2269
  798MOL0     H 5330   6.428  10.105   8.392 -0.3483  0.2686 -0.7971
  798MOL0     H 5331   6.448  10.268   8.479  2.2876  3.1049 -1.1663
  798MOL0     H 5332   6.688  10.277   8.408  0.0591 -1.3698 -1.8052
  798MOL0     H 5333   6.637  10.142   8.512 -4.0751  0.7990  0.6267
  798MOL0     H 5334   6.756   9.914   8.185  0.1022 -0.3881  0.0890
  798MOL0     H 5335   6.011  10.049   8.231 -2.0606 -1.6150  1.2297
  798MOL0     H 5336   5.769  10.112   8.292 -0.1834 -0.3984 -2.6295
  799MOL0     O 5337  10.736   2.803   5.380  0.5096 -0.2329  0.8141
  799MOL0     C 5338  10.728   2.710   5.459  0.0705  0.2817 -0.7012
  799MOL0     O 5339  10.617   2.644   5.483  0.1593  0.0444  1.0650
  799MOL0     C 5340  10.505   2.681   5.428  0.4127 -0.0525 -0.1210
  799MOL0     C 5341  10.434   2.586   5.355  0.1335 -0.2847 -0.5195
  799MOL0     C 5342  10.314   2.610   5.289  0.1417 -0.4341 -0.1051
  799MOL0     C 5343  10.241   2.725   5.320 -0.4671  0.1895 -0.6331
  799MOL0     O 5344  10.106   2.739   5.303  0.0353 -1.1217 -0.4828
  799MOL0     C 5345  10.045   2.872   5.288  0.5136 -0.2115 -0.6285
  799MOL0     C 5346   9.909   2.843   5.246 -0.7257 -0.6384  0.1931
  799MOL0     C 5347   9.824   2.974   5.230  0.4658 -0.0418 -0.3101
  799MOL0     C 5348   9.678   2.951   5.194 -0.9090 -0.7158 -0.1422
  799MOL0     C 5349   9.603   3.081   5.221  0.7337  0.9325  0.5521
  799MOL0     C 5350   9.450   3.058   5.187  0.6143 -0.4432  0.6224
  799MOL0     C 5351   9.367   3.170   5.241  0.2137 -0.0563  0.3807
  799MOL0     C 5352   9.218   3.165   5.195 -0.3477 -0.0475 -0.0995
  799MOL0     N 5353   9.133   3.267   5.259  0.4999  0.6252  0.2664
  799MOL0     C 5354   9.027   3.224   5.334  0.3801 -0.3058  0.8428
  799MOL0     C 5355   8.983   3.339   5.394 -1.0261 -0.6089  0.6343
  799MOL0     C 5356   8.874   3.341   5.503 -0.0516 -0.1315  0.5035
  799MOL0     C 5357   8.749   3.413   5.452  0.7663 -0.8096 -0.1365
  799MOL0     C 5358   8.656   3.329   5.365  0.6935 -1.0045 -0.0159
  799MOL0     C 5359   8.511   3.375   5.398  0.2131 -0.0466  1.0744
  799MOL0     O 5360   8.486   3.507   5.346  0.2528  0.1358  0.8003
  799MOL0     C 5361   8.349   3.543   5.350 -0.7488 -0.1844 -1.1366
  799MOL0     C 5362   8.318   3.668   5.290 -0.3635  0.7312 -0.4439
  799MOL0     C 5363   8.188   3.720   5.270  0.5465  0.2488  0.0290
  799MOL0     C 5364   8.080   3.654   5.324 -0.5876  0.0783  0.1556
  799MOL0     C 5365   7.951   3.713   5.299  0.7566  0.3789 -0.0132
  799MOL0     O 5366   7.843   3.667   5.369  0.2680  0.3912  0.1709
  799MOL0     C 5367   7.720   3.720   5.357 -0.2428 -0.9375  0.5688
  799MOL0     C 5368   7.697   3.857   5.390 -0.5187  0.0055 -0.2659
  799MOL0     C 5369   7.566   3.906   5.377  0.4467 -0.6346  0.1413
  799MOL0     C 5370   7.463   3.828   5.334 -0.0532  0.2613  0.3727
  799MOL0     O 5371   7.342   3.881   5.338 -0.2173 -0.6981 -0.3475
  799MOL0     C 5372   7.266   3.879   5.222  0.5805  0.0470  0.1770
  799MOL0     C 5373   7.124   3.935   5.264 -0.0974 -0.2527 -0.3161
  799MOL0     C 5374   7.021   3.945   5.151 -1.2345 -0.3543 -0.0982
  799MOL0     C 5375   6.877   3.956   5.197 -0.5732  0.7600 -0.1436
  799MOL0     C 5376   6.767   3.988   5.081  0.3315 -0.7139 -0.0300
  799MOL0     C 5377   6.619   4.003   5.140 -0.7105  0.3121  0.9663
  799MOL0     C 5378   6.521   4.054   5.033  0.1740  0.0019 -0.7772
  799MOL0     C 5379   6.525   4.198   5.018  0.0734 -0.8371  0.4568
  799MOL0    Cl 5380   6.406   4.232   4.902 -0.1939 -0.0368  0.0701
  799MOL0     C 5381   7.492   3.694   5.295 -0.6150  0.2563  0.5921
  799MOL0     C 5382   7.619   3.643   5.306  0.1826 -0.5427  0.1588
  799MOL0     O 5383   7.944   3.799   5.211  0.1221  0.0411  0.3588
  799MOL0     C 5384   8.112   3.530   5.390  0.3856  0.3194  0.1040
  799MOL0     C 5385   8.239   3.471   5.395  0.1472 -0.1741 -0.2900
  799MOL0     N 5386   9.056   3.445   5.348 -0.1636  0.0647 -0.3275
  799MOL0     N 5387   9.148   3.403   5.271 -0.1494  0.2757  0.1987
  799MOL0     C 5388  10.313   2.827   5.394  0.8456  0.8700 -0.3691
  799MOL0     C 5389  10.437   2.799   5.452 -0.6080 -0.2444  0.1633
  799MOL0     C 5390  10.852   2.650   5.522 -0.5169  0.7867  0.7424
  799MOL0     C 5391  10.838   2.553   5.622 -0.0428  0.1469  0.4067
  799MOL0     C 5392  10.953   2.496   5.689 -0.1056  1.3743 -0.2442
  799MOL0     C 5393  11.081   2.546   5.655  0.1214 -0.4824  1.0735
  799MOL0     O 5394  11.187   2.494   5.719 -0.7083 -0.1485  0.0367
  799MOL0     C 5395  11.306   2.568   5.742  0.8049 -0.2260 -0.9781
  799MOL0     C 5396  11.389   2.506   5.859 -0.0480  0.4837 -0.1457
  799MOL0     C 5397  11.314   2.530   5.988 -0.0468 -0.0106  0.4207
  799MOL0     C 5398  11.385   2.490   6.117  0.1762 -0.0775  0.0364
  799MOL0     C 5399  11.295   2.483   6.231  0.2496 -0.8040  0.3856
  799MOL0     C 5400  11.216   2.490   6.317  0.3198  0.3795  1.0520
  799MOL0     C 5401  11.092   2.644   5.548 -0.5542 -0.2955  0.4425
  799MOL0     C 5402  10.979   2.697   5.481 -0.2850  0.6384 -0.0386
  799MOL0     H 5403  10.488   2.492   5.349  0.6920  0.1297 -2.6990
  799MOL0     H 5404  10.276   2.533   5.223 -0.6273 -0.6136  0.5207
  799MOL0     H 5405  10.098   2.930   5.212  1.4842  0.5072  0.5669
  799MOL0     H 5406  10.051   2.924   5.384 -3.0450 -2.0304  0.7813
  799MOL0     H 5407   9.864   2.786   5.328 -1.4030 -0.3126  0.0494
  799MOL0     H 5408   9.905   2.795   5.148 -0.2047  2.2580 -1.3719
  799MOL0     H 5409   9.870   3.041   5.157 -0.9036  0.5176 -0.6870
  799MOL0     H 5410   9.824   3.034   5.322 -2.7306  0.3436 -0.4526
  799MOL0     H 5411   9.665   2.918   5.091  1.0570  2.1889 -1.4654
  799MOL0     H 5412   9.636   2.877   5.262  0.0056 -0.2341  1.0039
  799MOL0     H 5413   9.631   3.171   5.165  0.7304  0.3528 -0.4189
  799MOL0     H 5414   9.610   3.102   5.328  1.4015 -0.2025  0.7441
  799MOL0     H 5415   9.399   2.964   5.212 -1.1334  0.0346 -0.9766
  799MOL0     H 5416   9.450   3.053   5.078 -1.6869 -2.4088  0.6118
  799MOL0     H 5417   9.370   3.155   5.349  0.8880 -1.2212  0.2057
  799MOL0     H 5418   9.419   3.262   5.212  0.2721 -0.4659 -0.8431
  799MOL0     H 5419   9.184   3.063   5.219  2.2374 -0.7326  0.9115
  799MOL0     H 5420   9.217   3.177   5.087  0.8448  1.5335  0.0422
  799MOL0     H 5421   8.998   3.120   5.344 -0.1701 -0.2157  0.2211
  799MOL0     H 5422   8.904   3.391   5.596  3.6062 -2.5740  0.8723
  799MOL0     H 5423   8.857   3.236   5.529  0.5326 -0.3411  0.0577
  799MOL0     H 5424   8.780   3.505   5.402 -1.8799 -0.6737 -1.7133
  799MOL0     H 5425   8.697   3.433   5.545 -0.6281  4.6527 -1.7351
  799MOL0     H 5426   8.683   3.359   5.263  2.1293 -1.2527  0.2676
  799MOL0     H 5427   8.674   3.223   5.383  0.9374 -0.8684  0.5576
  799MOL0     H 5428   8.499   3.385   5.506  1.5809  2.3994  1.0623
  799MOL0     H 5429   8.447   3.300   5.351  1.2836 -0.7316  0.6915
  799MOL0     H 5430   8.395   3.734   5.251 -0.1455  1.1740  0.7007
  799MOL0     H 5431   8.188   3.816   5.220  1.2003  1.9292  3.0049
  799MOL0     H 5432   7.766   3.926   5.437  0.3029 -0.8309 -0.2207
  799MOL0     H 5433   7.546   4.006   5.412 -0.0681 -0.7726  0.2427
  799MOL0     H 5434   7.249   3.779   5.183  0.3443 -0.3834  1.3296
  799MOL0     H 5435   7.316   3.949   5.154 -1.3739 -1.3864 -2.9400
  799MOL0     H 5436   7.122   4.033   5.312 -0.1981 -0.6740  0.5731
  799MOL0     H 5437   7.079   3.872   5.343  0.2764  1.0064  0.9444
  799MOL0     H 5438   7.032   3.853   5.093  0.6207  0.2436 -0.7726
  799MOL0     H 5439   7.048   4.028   5.085  1.3766  0.2432  1.5644
  799MOL0     H 5440   6.830   3.873   5.250  0.3088  0.2146 -0.2053
  799MOL0     H 5441   6.871   4.038   5.269  0.3281 -0.7656  1.7750
  799MOL0     H 5442   6.773   3.916   5.000  1.6786  0.9919 -1.5471
  799MOL0     H 5443   6.801   4.087   5.049 -2.8317  0.0546 -1.4764
  799MOL0     H 5444   6.624   4.072   5.224  0.9620  0.6379  0.6319
  799MOL0     H 5445   6.584   3.910   5.186 -0.0796  0.7488  2.3740
  799MOL0     H 5446   6.541   4.004   4.938  0.4699 -0.5902 -0.4073
  799MOL0     H 5447   6.424   4.023   5.074  0.5672 -0.0681  0.1271
  799MOL0     H 5448   6.621   4.237   4.982  0.2569 -1.8938 -0.2694
  799MOL0     H 5449   6.501   4.245   5.113 -1.1082 -0.4163 -0.0332
  799MOL0     H 5450   7.414   3.625   5.265  0.4023 -1.1111  0.9797
  799MOL0     H 5451   7.635   3.537   5.291  0.6684 -0.7804  2.1224
  799MOL0     H 5452   8.033   3.463   5.425  0.0451 -0.3080 -1.7543
  799MOL0     H 5453   8.245   3.367   5.425  0.0526  0.3439  1.6585
  799MOL0     H 5454  10.257   2.918   5.416 -0.8474  0.1921 -1.6038
  799MOL0     H 5455  10.493   2.870   5.512  3.5993 -1.9569 -1.3624
  799MOL0     H 5456  10.743   2.513   5.655  0.4121 -0.2149  1.3015
  799MOL0     H 5457  10.962   2.407   5.749  2.9425  2.1455  0.5883
  799MOL0     H 5458  11.271   2.666   5.776 -0.2856 -0.9183 -0.0511
  799MOL0     H 5459  11.364   2.557   5.650  1.0845 -1.4362 -0.6690
  799MOL0     H 5460  11.411   2.401   5.837 -3.1819 -0.2465 -0.2557
  799MOL0     H 5461  11.479   2.566   5.874 -2.2537  4.3106 -0.8618
  799MOL0     H 5462  11.246   2.444   5.984  1.4034 -1.3504  2.3720
  799MOL0     H 5463  11.254   2.619   6.008 -0.1336 -0.8432  4.7966
  799MOL0     H 5464  11.440   2.398   6.092  1.4578  1.1516 -1.9414
  799MOL0     H 5465  11.460   2.566   6.139  1.6062 -0.9711 -1.4981
  799MOL0     H 5466  11.130   2.501   6.380  0.1834 -0.8118  1.1008
  799MOL0     H 5467  11.188   2.686   5.521 -0.2113 -0.9321  0.6591
  799MOL0     H 5468  10.985   2.775   5.406  3.2842 -0.4020 -1.0401
  800MOL0     O 5469   2.827  11.067   2.017  0.5217  0.6705  0.0607
  800MOL0     C 5470   2.884  11.130   2.106  0.7354  0.2419  0.9717
  800MOL0     O 5471   2.819  11.193   2.204  0.1085 -0.5072  0.0378
  800MOL0     C 5472   2.683  11.173   2.238 -0.0942 -0.1740  0.4049
  800MOL0     C 5473   2.644  11.204   2.369 -0.4729 -0.5600 -0.0015
  800MOL0     C 5474   2.512  11.180   2.408 -0.7226  1.4576 -1.1375
  800MOL0     C 5475   2.415  11.135   2.324  0.0899  0.7091 -1.0311
  800MOL0     O 5476   2.292  11.105   2.370  0.1675  0.0341 -0.1042
  800MOL0     C 5477   2.185  11.105   2.281  0.3168  0.2512 -0.8077
  800MOL0     C 5478   2.058  11.089   2.367  0.0576 -0.3574 -0.1987
  800MOL0     C 5479   2.053  10.963   2.459  0.2861 -0.7089  0.3642
  800MOL0     C 5480   1.921  10.965   2.550 -0.7837  0.3781 -0.3199
  800MOL0     C 5481   1.920  10.827   2.622 -0.6912 -0.0678  1.0708
  800MOL0     C 5482   1.987  10.842   2.752  0.4997 -0.8950  0.3706
  800MOL0     C 5483   2.004  10.712   2.816 -0.3738 -0.1880  0.5617
  800MOL0     C 5484   2.100  10.739   2.932 -0.0462 -0.4362  0.5841
  800MOL0     N 5485   2.138  10.610   2.999  0.1762 -0.2683 -0.8185
  800MOL0     C 5486   2.265  10.551   2.991  0.3749  0.6196  0.6877
  800MOL0     C 5487   2.270  10.459   3.086 -0.6012 -1.0475 -1.2630
  800MOL0     C 5488   2.383  10.366   3.128  0.5663  0.1433  1.0308
  800MOL0     C 5489   2.399  10.258   3.014  0.3255 -0.6804 -0.7940
  800MOL0     C 5490   2.274  10.172   2.995  0.4152  0.5800  0.6150
  800MOL0     C 5491   2.223  10.085   3.117 -1.0225 -1.3216  1.1482
  800MOL0     O 5492   2.107  10.018   3.080 -0.4351  0.6689 -0.7723
  800MOL0     C 5493   1.982  10.058   3.124 -1.0124 -0.0275  0.2626
  800MOL0     C 5494   1.954  10.193   3.158  1.2295  0.8066  0.5581
  800MOL0     C 5495   1.829  10.237   3.198  0.5150 -0.1322 -0.6454
  800MOL0     C 5496   1.722  10.142   3.225 -0.1579 -0.0835  0.0330
  800MOL0     C 5497   1.584  10.194   3.258  0.1802 -0.4842 -0.2537
  800MOL0     O 5498   1.488  10.102   3.298  0.7543 -0.5528  0.6938
  800MOL0     C 5499   1.369  10.137   3.345 -0.2240  0.7687  0.6050
  800MOL0     C 5500   1.327  10.075   3.464 -0.9186 -0.3288  0.5876
  800MOL0     C 5501   1.211  10.110   3.524  0.7597  0.4348 -0.6473
  800MOL0     C 5502   1.113  10.175   3.448 -0.8141 -0.5491  0.1314
  800MOL0     O 5503   0.986  10.208   3.490 -0.4899  0.9498  0.0682
  800MOL0     C 5504   0.950  10.199   3.631  0.3167  0.1723  0.1506
  800MOL0     C 5505   0.948  10.338   3.694  0.2769 -0.6770 -0.2408
  800MOL0     C 5506   0.824  10.411   3.642  0.4557 -0.0164  0.2395
  800MOL0     C 5507   0.814  10.550   3.696 -0.6192  0.0556  0.3698
  800MOL0     C 5508   0.760  10.640   3.585 -0.4530  0.5338  0.0647
  800MOL0     C 5509   0.772  10.796   3.629  0.5602 -0.0067  0.3685
  800MOL0     C 5510   0.753  10.874   3.492 -0.3434  0.2828  0.3875
  800MOL0     C 5511   0.765  11.019   3.518  0.4270 -0.2985 -0.6235
  800MOL0    Cl 5512   0.938  11.054   3.530 -0.4625 -0.2135 -0.1295
  800MOL0     C 5513   1.151  10.228   3.325  0.0861 -1.0211  0.1380
  800MOL0     C 5514   1.277  10.216   3.270 -0.0845 -0.2453 -0.0821
  800MOL0     O 5515   1.567  10.315   3.239 -0.5656  0.2152  0.1127
  800MOL0     C 5516   1.750  10.011   3.203  0.0860 -0.5240 -0.4566
  800MOL0     C 5517   1.872   9.972   3.146 -0.6964 -0.0213 -0.4034
  800MOL0     N 5518   2.149  10.462   3.158 -1.3599  0.5556  0.2051
  800MOL0     N 5519   2.072  10.545   3.105  0.0503 -0.1880  0.4775
  800MOL0     C 5520   2.453  11.121   2.184  0.0876 -0.5553  0.2423
  800MOL0     C 5521   2.580  11.139   2.148  0.5214  0.5050  0.0711
  800MOL0     C 5522   3.027  11.153   2.088  0.3235  0.4183 -0.4329
  800MOL0     C 5523   3.099  11.078   1.986 -0.4531  0.0129 -0.0143
  800MOL0     C 5524   3.240  11.103   1.964  0.3898 -0.7193  0.9255
  800MOL0     C 5525   3.293  11.213   2.037 -0.0807  0.1290 -0.0716
  800MOL0     O 5526   3.426  11.243   2.027  0.6567 -0.3210  0.1068
  800MOL0     C 5527   3.519  11.152   1.966 -0.3050  0.2246 -0.0524
  800MOL0     C 5528   3.653  11.224   1.924 -0.4506  0.0619  1.0305
  800MOL0     C 5529   3.770  11.131   1.906 -0.6320 -0.4532 -0.8376
  800MOL0     C 5530   3.909  11.208   1.894  0.0963  0.7602  0.0559
  800MOL0     C 5531   3.946  11.280   2.014 -0.7113 -0.1123  0.0838
  800MOL0     C 5532   3.987  11.349   2.112  0.3069  0.4642  0.7807
  800MOL0     C 5533   3.213  11.296   2.116  0.6517 -0.0185 -0.0196
  800MOL0     C 5534   3.081  11.271   2.143  0.0790 -0.7789  0.1623
  800MOL0     H 5535   2.713  11.232   2.448 -1.9401 -1.2382  1.5790
  800MOL0     H 5536   2.491  11.181   2.514 -0.0636  2.2017 -1.0117
  800MOL0     H 5537   2.186  11.021   2.211 -0.9462 -1.4489  1.0658
  800MOL0     H 5538   2.181  11.192   2.215 -0.0457  0.0404 -1.0651
  800MOL0     H 5539   1.975  11.092   2.296 -2.5657 -0.1754  2.6528
  800MOL0     H 5540   2.024  11.174   2.428  0.5579 -1.9146  2.3575
  800MOL0     H 5541   2.146  10.955   2.516  1.8774  0.9959 -1.8178
  800MOL0     H 5542   2.048  10.877   2.391  2.4972  0.4116 -1.3460
  800MOL0     H 5543   1.912  11.043   2.627  1.7476 -1.7592  2.3884
  800MOL0     H 5544   1.833  10.964   2.486  0.1735 -1.6474 -1.6806
  800MOL0     H 5545   1.969  10.751   2.560 -2.0093 -1.6017  1.8445
  800MOL0     H 5546   1.815  10.796   2.624 -1.3875  1.0054 -3.9927
  800MOL0     H 5547   1.931  10.903   2.824  2.5518  0.0268  1.2782
  800MOL0     H 5548   2.083  10.894   2.742 -0.7651  1.9353  1.7043
  800MOL0     H 5549   1.904  10.686   2.854 -0.5084 -2.2334 -1.0269
  800MOL0     H 5550   2.044  10.633   2.751  0.4498  0.3055  0.4588
  800MOL0     H 5551   2.056  10.807   3.006 -0.4450  1.9231 -1.6795
  800MOL0     H 5552   2.190  10.784   2.889 -0.8510  1.6013  0.8945
  800MOL0     H 5553   2.350  10.560   2.924 -0.7919 -1.6691 -1.2564
  800MOL0     H 5554   2.368  10.319   3.225  0.8158 -0.1781  0.9158
  800MOL0     H 5555   2.476  10.423   3.135  0.2169  0.8942 -0.1406
  800MOL0     H 5556   2.490  10.207   3.046 -1.0748 -1.1414  2.9327
  800MOL0     H 5557   2.438  10.292   2.917 -0.8054 -2.2246 -1.8351
  800MOL0     H 5558   2.201  10.249   2.967  0.0026  0.6657  1.8689
  800MOL0     H 5559   2.293  10.103   2.912  3.7314  0.8796  0.9748
  800MOL0     H 5560   2.200  10.144   3.207  1.2553  0.5115  0.6082
  800MOL0     H 5561   2.308  10.017   3.130  0.1598 -0.6072 -1.9783
  800MOL0     H 5562   2.030  10.271   3.161  2.5869 -0.5007  2.5975
  800MOL0     H 5563   1.814  10.342   3.221  2.5036 -0.5077  3.2256
  800MOL0     H 5564   1.393  10.006   3.514 -0.9740 -1.9873 -1.5120
  800MOL0     H 5565   1.205  10.070   3.625  1.4052  1.5864 -0.1332
  800MOL0     H 5566   1.010  10.130   3.691  0.3175 -0.8746 -1.0009
  800MOL0     H 5567   0.845  10.167   3.639 -0.1201  1.7151  0.8933
  800MOL0     H 5568   1.038  10.391   3.662  0.5546 -0.9231  0.1221
  800MOL0     H 5569   0.953  10.344   3.803  0.9920 -2.0361 -0.1801
  800MOL0     H 5570   0.736  10.357   3.679 -0.2404 -0.7792 -2.3052
  800MOL0     H 5571   0.809  10.406   3.534  1.6300 -2.6854  0.1118
  800MOL0     H 5572   0.748  10.557   3.784 -0.2153  0.5381  0.6393
  800MOL0     H 5573   0.912  10.586   3.729 -1.7820  2.8847  1.0077
  800MOL0     H 5574   0.658  10.608   3.563  1.2164 -3.7470 -2.8043
  800MOL0     H 5575   0.815  10.626   3.491 -1.2340  2.3910 -0.7283
  800MOL0     H 5576   0.873  10.815   3.666  0.8801  0.1233 -0.5449
  800MOL0     H 5577   0.698  10.819   3.706 -1.8167 -2.5884 -0.9337
  800MOL0     H 5578   0.805  10.845   3.400 -1.8683  1.4142 -0.8810
  800MOL0     H 5579   0.648  10.858   3.467 -0.3868  3.5986 -2.4630
  800MOL0     H 5580   0.712  11.044   3.610  2.5578 -2.6614  1.3969
  800MOL0     H 5581   0.714  11.080   3.442 -1.7916  0.1107  1.0645
  800MOL0     H 5582   1.084  10.287   3.263 -0.4369  0.4220  1.9696
  800MOL0     H 5583   1.288  10.262   3.172 -0.3973  0.6358  0.2897
  800MOL0     H 5584   1.673   9.936   3.207  0.7791 -1.3145  3.7631
  800MOL0     H 5585   1.902   9.871   3.120  2.4092  1.1678 -1.9282
  800MOL0     H 5586   2.380  11.089   2.110  0.9244 -2.3768  0.1445
  800MOL0     H 5587   2.600  11.126   2.042  1.0690 -0.7705  0.3120
  800MOL0     H 5588   3.051  11.001   1.927  0.2977  0.5921 -1.4338
  800MOL0     H 5589   3.298  11.039   1.899  1.3133 -0.7460  1.7534
  800MOL0     H 5590   3.487  11.100   1.875 -1.9551 -2.6549  2.0190
  800MOL0     H 5591   3.553  11.077   2.038  1.8274  0.2127 -0.9782
  800MOL0     H 5592   3.633  11.278   1.831 -1.7514 -2.8600 -0.5258
  800MOL0     H 5593   3.680  11.300   1.998 -1.7356 -0.1696  1.7562
  800MOL0     H 5594   3.767  11.075   1.812  2.2168 -2.1880 -0.0240
  800MOL0     H 5595   3.771  11.063   1.991  0.6020  0.0228 -0.4478
  800MOL0     H 5596   3.993  11.139   1.884  0.1328  0.7663  0.3060
  800MOL0     H 5597   3.910  11.271   1.805  0.7816 -0.5257 -0.8852
  800MOL0     H 5598   4.003  11.411   2.198  2.0359 -0.9319  1.5174
  800MOL0     H 5599   3.260  11.377   2.171 -2.3396  2.3276 -0.6043
  800MOL0     H 5600   3.025  11.344   2.202 -0.7848 -2.2523  1.2343
  801MOL0     O 5601   7.046  10.551   7.625 -0.0002 -0.1986 -0.3540
  801MOL0     C 5602   7.088  10.515   7.516 -0.4583 -0.4695  0.2838
  801MOL0     O 5603   7.015  10.470   7.408 -0.0054 -0.1505 -0.2838
  801MOL0     C 5604   6.885  10.442   7.438  0.1563 -0.1365  0.1082
  801MOL0     C 5605   6.790  10.534   7.421  0.2638 -0.7124  0.9847
  801MOL0     C 5606   6.650  10.506   7.438  0.2786  0.8613 -0.4229
  801MOL0     C 5607   6.618  10.373   7.467 -0.0954  1.0610 -0.3811
  801MOL0     O 5608   6.491  10.322   7.473 -0.2879 -0.2305 -0.3053
  801MOL0     C 5609   6.405  10.369   7.370  0.0983  0.5833 -0.0970
  801MOL0     C 5610   6.293  10.265   7.352  0.2396  0.1391 -0.9680
  801MOL0     C 5611   6.204  10.289   7.478 -0.5436  0.1211 -0.4213
  801MOL0     C 5612   6.123  10.162   7.501 -0.5939 -0.1103  0.0186
  801MOL0     C 5613   6.001  10.137   7.424  0.1685  0.5488  0.0820
  801MOL0     C 5614   5.917  10.254   7.412  0.1702  0.1920  0.1923
  801MOL0     C 5615   5.765  10.215   7.402  0.2559 -0.2431  1.3614
  801MOL0     C 5616   5.687  10.320   7.328  0.3318  0.0721  0.3570
  801MOL0     N 5617   5.543  10.289   7.323 -0.6511 -0.7762 -0.2062
  801MOL0     C 5618   5.438  10.330   7.407  0.0950 -0.6538  0.4495
  801MOL0     C 5619   5.328  10.272   7.351  0.3634 -0.2112  0.0079
  801MOL0     C 5620   5.179  10.296   7.381 -0.1800  0.3673  0.6162
  801MOL0     C 5621   5.108  10.386   7.285 -0.5139 -0.7363  0.0747
  801MOL0     C 5622   5.035  10.309   7.170  1.0327  0.3079 -1.0036
  801MOL0     C 5623   4.926  10.394   7.099 -1.1364 -0.3051 -0.7455
  801MOL0     O 5624   4.820  10.307   7.049 -0.2254  0.6257 -0.3061
  801MOL0     C 5625   4.690  10.355   7.039 -0.1555  0.7798 -0.1737
  801MOL0     C 5626   4.664  10.475   6.976  0.1317 -1.0058  0.3172
  801MOL0     C 5627   4.535  10.530   6.970  0.2190  0.0923 -0.6620
  801MOL0     C 5628   4.430  10.473   7.037 -0.5141 -0.2428  0.0767
  801MOL0     C 5629   4.304  10.542   7.043  0.8671  0.6279  0.0259
  801MOL0     O 5630   4.203  10.469   7.116 -1.1843  0.6888  0.1020
  801MOL0     C 5631   4.072  10.507   7.120  0.3897 -0.2826  0.2828
  801MOL0     C 5632   3.988  10.450   7.215  0.5476  1.2414 -0.3401
  801MOL0     C 5633   3.852  10.479   7.224 -0.2606  0.6955  0.3288
  801MOL0     C 5634   3.791  10.579   7.149  0.5428  0.1746 -0.5545
  801MOL0     O 5635   3.667  10.620   7.186  0.4571  0.4778  0.2727
  801MOL0     C 5636   3.642  10.758   7.178 -0.2878  0.0415  0.1283
  801MOL0     C 5637   3.503  10.783   7.157  0.3346 -0.6157  0.6471
  801MOL0     C 5638   3.466  10.762   7.013 -0.3698 -0.7234  0.8206
  801MOL0     C 5639   3.334  10.839   6.979 -0.1397  0.3185 -0.9716
  801MOL0     C 5640   3.309  10.868   6.827  0.6446  0.7636  0.1577
  801MOL0     C 5641   3.328  10.746   6.742  0.1056 -0.3439  0.6715
  801MOL0     C 5642   3.226  10.726   6.633 -0.9827  0.5558  0.1824
  801MOL0     C 5643   3.275  10.633   6.523 -0.1669  0.2369  0.5424
  801MOL0    Cl 5644   3.138  10.558   6.414 -0.3158  0.0305  0.1288
  801MOL0     C 5645   3.868  10.634   7.045  0.0092 -0.1089  0.6994
  801MOL0     C 5646   4.007  10.604   7.038  0.0534  0.3472  0.0976
  801MOL0     O 5647   4.291  10.654   6.994 -0.3403  0.4390  0.3341
  801MOL0     C 5648   4.452  10.345   7.095  0.3705 -0.4448 -0.3870
  801MOL0     C 5649   4.583  10.288   7.094  0.7674  1.1922 -0.1430
  801MOL0     N 5650   5.361  10.201   7.236  1.1657 -0.0911  0.4605
  801MOL0     N 5651   5.491  10.223   7.221  0.5515  0.2369  0.1430
  801MOL0     C 5652   6.715  10.273   7.479  0.0910  0.3211  0.5970
  801MOL0     C 5653   6.846  10.308   7.459 -0.2902  0.3254 -0.3224
  801MOL0     C 5654   7.232  10.541   7.490  0.2662 -0.2764 -0.1181
  801MOL0     C 5655   7.300  10.627   7.582  0.1177 -0.1939  0.8984
  801MOL0     C 5656   7.442  10.629   7.576  0.0828 -0.1234  0.0159
  801MOL0     C 5657   7.511  10.559   7.477 -0.1196  0.2601 -0.1675
  801MOL0     O 5658   7.650  10.571   7.469  0.2973 -0.2484  0.4888
  801MOL0     C 5659   7.727  10.531   7.355  0.7860  1.1742 -0.0878
  801MOL0     C 5660   7.875  10.563   7.372  0.4819  0.3409  0.1066
  801MOL0     C 5661   7.939  10.466   7.482  0.5915  0.3262  0.1331
  801MOL0     C 5662   8.083  10.510   7.507  0.4148  0.3822 -0.0296
  801MOL0     C 5663   8.166  10.453   7.398 -0.9871 -0.5027 -0.1113
  801MOL0     C 5664   8.224  10.403   7.303 -0.9074  1.0098 -0.8253
  801MOL0     C 5665   7.444  10.472   7.388  0.8832 -0.4609 -0.4519
  801MOL0     C 5666   7.307  10.468   7.398 -0.2804  0.0656 -0.4893
  801MOL0     H 5667   6.825  10.636   7.405  0.6770 -1.1437 -1.2306
  801MOL0     H 5668   6.576  10.582   7.416 -0.4148  0.0986 -0.7712
  801MOL0     H 5669   6.470  10.384   7.283  1.4307  1.6403  1.0243
  801MOL0     H 5670   6.357  10.465   7.391  1.5378  1.4797 -0.7547
  801MOL0     H 5671   6.344  10.169   7.350  3.9915  1.9334 -0.3353
  801MOL0     H 5672   6.226  10.296   7.270 -0.3589  1.9003  0.1251
  801MOL0     H 5673   6.142  10.379   7.464  0.3450  0.4509 -2.6216
  801MOL0     H 5674   6.264  10.304   7.568 -0.8409  0.3944 -0.2617
  801MOL0     H 5675   6.188  10.077   7.481 -0.6208 -0.2880  0.6560
  801MOL0     H 5676   6.090  10.159   7.606 -1.1831 -1.2059 -0.1880
  801MOL0     H 5677   5.938  10.071   7.485  0.5129 -0.9985 -1.1703
  801MOL0     H 5678   6.022  10.094   7.326 -1.4063  0.2965 -0.1828
  801MOL0     H 5679   5.958  10.326   7.340  1.6872  0.6268  1.4429
  801MOL0     H 5680   5.930  10.302   7.509  0.3457 -0.7816  0.6516
  801MOL0     H 5681   5.754  10.121   7.347  3.6203 -0.7534  1.3607
  801MOL0     H 5682   5.722  10.201   7.502  2.2460 -0.6394  2.1994
  801MOL0     H 5683   5.732  10.336   7.229 -1.1408  1.2209 -0.1761
  801MOL0     H 5684   5.700  10.415   7.380 -0.3726  0.0927  0.5123
  801MOL0     H 5685   5.435  10.399   7.490 -3.3920  0.1579 -0.1881
  801MOL0     H 5686   5.177  10.351   7.476 -1.9025 -0.8933  1.3544
  801MOL0     H 5687   5.130  10.198   7.383 -0.4628  0.4182 -1.5469
  801MOL0     H 5688   5.180  10.459   7.246 -1.1380  0.8308  1.6844
  801MOL0     H 5689   5.036  10.448   7.340  0.0232  0.3043 -0.3747
  801MOL0     H 5690   5.107  10.275   7.095 -1.2600 -0.5980 -2.9139
  801MOL0     H 5691   4.986  10.223   7.217  1.2358  0.1338 -1.1065
  801MOL0     H 5692   4.969  10.439   7.009 -1.2532 -3.0247 -2.2877
  801MOL0     H 5693   4.902  10.478   7.165 -0.8414 -0.8926  0.1298
  801MOL0     H 5694   4.751  10.526   6.936  2.2098 -2.2111  2.9857
  801MOL0     H 5695   4.531  10.620   6.909 -1.4258 -1.1850 -2.5496
  801MOL0     H 5696   4.027  10.381   7.289  1.6413  1.3274 -0.8149
  801MOL0     H 5697   3.788  10.442   7.303  1.2535 -2.9086  0.0475
  801MOL0     H 5698   3.699  10.818   7.107 -2.2703  1.4563 -0.3609
  801MOL0     H 5699   3.687  10.797   7.270 -0.3123  1.1149 -0.3025
  801MOL0     H 5700   3.482  10.884   7.193  0.1910 -0.3671 -0.0976
  801MOL0     H 5701   3.447  10.724   7.230  3.1520 -2.6351  1.3148
  801MOL0     H 5702   3.451  10.654   7.005 -3.3992 -0.3612  0.5170
  801MOL0     H 5703   3.548  10.803   6.954  1.8016 -1.5190  3.0842
  801MOL0     H 5704   3.242  10.787   7.007 -0.7756  2.9099  2.2965
  801MOL0     H 5705   3.342  10.937   7.027 -0.0279 -1.2910  2.6019
  801MOL0     H 5706   3.377  10.948   6.800 -1.1635  3.2581  2.4373
  801MOL0     H 5707   3.205  10.898   6.811  1.1802  2.2207 -0.7263
  801MOL0     H 5708   3.321  10.657   6.805 -1.5317  0.7604  2.1388
  801MOL0     H 5709   3.427  10.749   6.696  0.3401 -1.2802  1.0891
  801MOL0     H 5710   3.139  10.686   6.685  0.1391 -3.2140 -0.5790
  801MOL0     H 5711   3.192  10.826   6.604 -1.8010  0.7449  1.6941
  801MOL0     H 5712   3.318  10.546   6.574 -0.3456  0.9391  1.9295
  801MOL0     H 5713   3.361  10.670   6.466  0.5036 -1.8510  0.1200
  801MOL0     H 5714   3.844  10.712   6.974 -0.8008 -1.4000 -0.4917
  801MOL0     H 5715   4.060  10.659   6.961  1.3866 -0.0067  0.7114
  801MOL0     H 5716   4.368  10.290   7.137  0.1374  0.0939 -0.1348
  801MOL0     H 5717   4.595  10.194   7.149 -0.1316  0.1554 -1.6468
  801MOL0     H 5718   6.698  10.166   7.482  1.3783  0.0780 -0.1116
  801MOL0     H 5719   6.927  10.236   7.450  0.5918  1.2450 -0.0117
  801MOL0     H 5720   7.246  10.684   7.657  0.3662  0.7521  0.3809
  801MOL0     H 5721   7.501  10.692   7.642  0.0311 -0.9402  0.8643
  801MOL0     H 5722   7.686  10.583   7.268  1.4041 -0.2085 -1.2648
  801MOL0     H 5723   7.720  10.424   7.331 -0.6364  1.2240  0.0669
  801MOL0     H 5724   7.931  10.568   7.279  0.1533  2.1694 -0.0330
  801MOL0     H 5725   7.883  10.665   7.412 -1.8536  0.3168  0.7807
  801MOL0     H 5726   7.943  10.362   7.448  0.4416  1.2254 -2.9245
  801MOL0     H 5727   7.870  10.475   7.566 -0.6529  3.0899 -1.0562
  801MOL0     H 5728   8.102  10.617   7.515  1.5352  0.1905  0.0586
  801MOL0     H 5729   8.108  10.457   7.599  0.0877  0.5642  0.1647
  801MOL0     H 5730   8.280  10.354   7.225  0.6579  1.2786  0.0783
  801MOL0     H 5731   7.491  10.423   7.304 -0.7528  0.0191 -1.6949
  801MOL0     H 5732   7.258  10.383   7.352 -3.3164  2.1635 -1.4286
  802MOL0     O 5733   0.369   6.385   1.993 -0.4970  0.7185 -0.3752
  802MOL0     C 5734   0.430   6.279   2.008 -0.4861 -0.1150  0.6122
  802MOL0     O 5735   0.386   6.154   1.967  0.0386 -0.1706  0.0194
  802MOL0     C 5736   0.249   6.157   1.928  0.5085 -0.6791  0.3636
  802MOL0     C 5737   0.145   6.119   2.018 -1.0605 -0.3422  0.0992
  802MOL0     C 5738   0.006   6.131   1.980  1.2325  0.4363 -1.2739
  802MOL0     C 5739  -0.030   6.179   1.860 -1.4245 -0.6692  0.3112
  802MOL0     O 5740  -0.158   6.198   1.823  0.2471 -0.3760  0.1936
  802MOL0     C 5741  -0.273   6.154   1.900  0.1622  0.1364  0.5596
  802MOL0     C 5742  -0.407   6.184   1.830  0.1950  0.5286  0.2363
  802MOL0     C 5743  -0.518   6.201   1.927 -0.4466 -0.0987 -0.8939
  802MOL0     C 5744  -0.647   6.265   1.864 -0.3321 -0.2070  0.5585
  802MOL0     C 5745  -0.775   6.254   1.954 -0.3116 -0.8171 -0.2163
  802MOL0     C 5746  -0.895   6.326   1.894 -0.4320  0.7593  0.6938
  802MOL0     C 5747  -1.021   6.286   1.956 -0.6104 -0.7071  0.0483
  802MOL0     C 5748  -1.105   6.176   1.887  0.1749  0.2285 -0.0089
  802MOL0     N 5749  -1.177   6.249   1.781  0.9709 -0.1755  0.2154
  802MOL0     C 5750  -1.280   6.342   1.802  0.4011 -0.5945  0.2291
  802MOL0     C 5751  -1.282   6.418   1.692 -1.1164  0.6315 -0.3820
  802MOL0     C 5752  -1.373   6.527   1.651  0.7617  0.2062  0.6972
  802MOL0     C 5753  -1.504   6.465   1.611  0.4087 -0.9012 -0.3991
  802MOL0     C 5754  -1.593   6.571   1.547 -0.0888  0.5403 -0.5308
  802MOL0     C 5755  -1.740   6.514   1.542  0.0043  0.2934  0.7492
  802MOL0     O 5756  -1.818   6.601   1.463  0.1982 -0.0160 -0.1718
  802MOL0     C 5757  -1.954   6.589   1.468 -0.3772  0.5088 -0.3091
  802MOL0     C 5758  -2.033   6.479   1.486 -0.1859 -0.0784  0.1764
  802MOL0     C 5759  -2.165   6.477   1.485  0.7725 -0.9970 -0.8662
  802MOL0     C 5760  -2.237   6.595   1.468 -0.0201  0.4325  0.0085
  802MOL0     C 5761  -2.384   6.591   1.480 -0.1287 -0.3193 -0.0897
  802MOL0     O 5762  -2.433   6.471   1.499 -0.1524  0.4499  0.3248
  802MOL0     C 5763  -2.559   6.458   1.548  1.0641 -0.0082 -0.0270
  802MOL0     C 5764  -2.675   6.506   1.492  0.7114  0.8603  0.0189
  802MOL0     C 5765  -2.808   6.478   1.545 -0.7808 -1.1329  0.5346
  802MOL0     C 5766  -2.823   6.388   1.650 -0.5432 -0.2332  0.4014
  802MOL0     O 5767  -2.944   6.353   1.695  0.5692 -0.8381  0.8735
  802MOL0     C 5768  -2.988   6.212   1.710 -0.3478 -0.6293 -0.2806
  802MOL0     C 5769  -3.076   6.173   1.584 -0.0528  0.9608 -0.0957
  802MOL0     C 5770  -3.214   6.249   1.579  0.0564 -0.9696 -0.3551
  802MOL0     C 5771  -3.317   6.205   1.673 -0.8242  0.7274  0.0709
  802MOL0     C 5772  -3.464   6.265   1.677 -0.1971  0.9064  0.0701
  802MOL0     C 5773  -3.465   6.413   1.703  0.0264 -0.1306  0.2614
  802MOL0     C 5774  -3.614   6.459   1.743 -0.2884 -0.2572 -0.4041
  802MOL0     C 5775  -3.614   6.594   1.813 -0.1051  0.3990 -0.2950
  802MOL0    Cl 5776  -3.766   6.633   1.892  0.0752 -0.4149  0.5327
  802MOL0     C 5777  -2.703   6.341   1.710  0.4758 -0.5281 -0.0612
  802MOL0     C 5778  -2.579   6.365   1.656  0.0951 -0.2268  0.2281
  802MOL0     O 5779  -2.448   6.695   1.472 -0.7720  0.1369  0.0143
  802MOL0     C 5780  -2.163   6.709   1.443 -0.5610  0.8555  0.9093
  802MOL0     C 5781  -2.026   6.702   1.444  0.1637  0.3284  0.4302
  802MOL0     N 5782  -1.186   6.375   1.602  0.3036  0.3695 -0.2899
  802MOL0     N 5783  -1.129   6.273   1.655  0.2511 -0.1422 -0.4318
  802MOL0     C 5784   0.067   6.218   1.770 -0.0772  0.2233 -0.9173
  802MOL0     C 5785   0.206   6.207   1.805 -0.8226  0.3344 -0.0666
  802MOL0     C 5786   0.558   6.289   2.077  0.0112  0.5494 -0.4893
  802MOL0     C 5787   0.633   6.410   2.069  0.8176 -0.0622 -0.5975
  802MOL0     C 5788   0.761   6.418   2.128  0.1837  0.9746 -0.0474
  802MOL0     C 5789   0.818   6.309   2.186 -0.7380 -0.9242  0.0638
  802MOL0     O 5790   0.949   6.316   2.229  0.0501 -0.2228 -0.5954
  802MOL0     C 5791   1.027   6.189   2.242 -0.0688 -0.6453  0.2025
  802MOL0     C 5792   1.178   6.199   2.275 -0.3329 -0.5863 -0.0619
  802MOL0     C 5793   1.261   6.073   2.241  0.3812 -0.2800  0.6812
  802MOL0     C 5794   1.411   6.082   2.285  0.4737 -0.1747  0.4916
  802MOL0     C 5795   1.430   6.131   2.423  0.1241  0.0458 -0.4583
  802MOL0     C 5796   1.432   6.167   2.540 -0.8045  0.0757  0.2167
  802MOL0     C 5797   0.753   6.186   2.179  1.1886 -0.6085 -0.2635
  802MOL0     C 5798   0.619   6.183   2.135  0.1845 -0.8456  0.7736
  802MOL0     H 5799   0.175   6.082   2.116 -2.0181 -0.7127  0.2698
  802MOL0     H 5800  -0.061   6.097   2.058  0.0931 -2.7966 -3.4364
  802MOL0     H 5801  -0.273   6.214   1.992 -1.4409 -0.6205  1.0822
  802MOL0     H 5802  -0.273   6.049   1.932  0.5554  0.3152  1.1757
  802MOL0     H 5803  -0.416   6.101   1.759  1.1376 -0.4595  1.2285
  802MOL0     H 5804  -0.395   6.278   1.774 -0.0977 -0.1751 -1.0415
  802MOL0     H 5805  -0.483   6.263   2.011 -2.7554 -3.8310  3.1965
  802MOL0     H 5806  -0.540   6.104   1.972 -0.4602  0.2192 -0.1894
  802MOL0     H 5807  -0.617   6.368   1.842  2.7133 -0.6499  2.1527
  802MOL0     H 5808  -0.678   6.226   1.767 -2.3010  2.6838 -0.1224
  802MOL0     H 5809  -0.761   6.298   2.053 -0.8529  0.1274 -0.5427
  802MOL0     H 5810  -0.787   6.146   1.973 -0.1785 -0.5153  1.7900
  802MOL0     H 5811  -0.896   6.314   1.785 -1.4136 -2.0689  0.9485
  802MOL0     H 5812  -0.879   6.432   1.916  0.7387  1.2998 -2.3605
  802MOL0     H 5813  -0.994   6.247   2.055  0.8158  3.0049  1.3000
  802MOL0     H 5814  -1.085   6.372   1.981 -0.7571 -1.0146  0.7480
  802MOL0     H 5815  -1.181   6.139   1.956 -0.6309  0.6440 -0.6447
  802MOL0     H 5816  -1.048   6.089   1.854  0.5559 -0.8222  3.1729
  802MOL0     H 5817  -1.330   6.359   1.897  0.7463 -0.6740  0.4257
  802MOL0     H 5818  -1.332   6.583   1.567  0.6693  1.5721  1.5296
  802MOL0     H 5819  -1.391   6.598   1.733  1.0429 -0.7132  1.5825
  802MOL0     H 5820  -1.542   6.410   1.698  1.3677 -0.0820  0.5683
  802MOL0     H 5821  -1.481   6.392   1.533  1.3097  0.0508 -1.0524
  802MOL0     H 5822  -1.601   6.669   1.596  2.0667  0.9896 -0.9810
  802MOL0     H 5823  -1.573   6.602   1.444 -3.3957  3.0979 -0.5920
  802MOL0     H 5824  -1.780   6.512   1.644  0.4363 -1.8756  0.9323
  802MOL0     H 5825  -1.740   6.410   1.506  1.1055  0.3925  0.4425
  802MOL0     H 5826  -1.992   6.381   1.507 -0.0872  0.1158  0.9174
  802MOL0     H 5827  -2.220   6.385   1.502 -0.4444 -0.1902 -0.3076
  802MOL0     H 5828  -2.658   6.557   1.398  0.9519 -0.6305 -0.7687
  802MOL0     H 5829  -2.897   6.516   1.495 -1.3129 -0.4660  1.9298
  802MOL0     H 5830  -3.049   6.214   1.801  1.1135  0.6666  0.7393
  802MOL0     H 5831  -2.905   6.141   1.714 -0.3301 -0.6545 -1.0671
  802MOL0     H 5832  -3.104   6.067   1.585 -1.1487  1.1424 -2.6483
  802MOL0     H 5833  -3.016   6.201   1.497 -3.6941  3.7561 -2.0004
  802MOL0     H 5834  -3.245   6.242   1.474 -1.5619  0.6285 -0.0285
  802MOL0     H 5835  -3.200   6.358   1.581  0.8143 -1.0628 -0.2897
  802MOL0     H 5836  -3.331   6.097   1.657  0.4543  0.6525 -0.6573
  802MOL0     H 5837  -3.274   6.222   1.772 -1.4674  0.3497  0.4254
  802MOL0     H 5838  -3.524   6.209   1.750 -0.4596 -0.6801 -1.2922
  802MOL0     H 5839  -3.516   6.240   1.584 -1.7164  3.9165  0.0019
  802MOL0     H 5840  -3.430   6.472   1.617  1.3932 -0.3774  0.6253
  802MOL0     H 5841  -3.395   6.436   1.784  2.4925 -2.3133 -1.0915
  802MOL0     H 5842  -3.674   6.456   1.652 -4.2640 -2.0303  2.0166
  802MOL0     H 5843  -3.656   6.389   1.816  1.3216  0.0561  0.8857
  802MOL0     H 5844  -3.602   6.667   1.733 -0.1838  1.1133  0.3279
  802MOL0     H 5845  -3.530   6.608   1.882  0.4816  1.1231 -1.1329
  802MOL0     H 5846  -2.707   6.279   1.800  0.9209 -0.2894  0.1246
  802MOL0     H 5847  -2.487   6.334   1.704 -0.0182  0.2341  0.7464
  802MOL0     H 5848  -2.213   6.800   1.410 -1.3231  0.4719  0.9873
  802MOL0     H 5849  -1.975   6.796   1.431 -0.8101  0.5999 -1.7492
  802MOL0     H 5850   0.037   6.268   1.679 -0.7961  0.8472 -0.3533
  802MOL0     H 5851   0.274   6.244   1.728 -1.1602 -1.8557 -1.5193
  802MOL0     H 5852   0.594   6.499   2.022 -1.2680 -0.5651  0.0764
  802MOL0     H 5853   0.820   6.509   2.138 -1.2455  1.8983  0.2406
  802MOL0     H 5854   1.015   6.145   2.143 -4.2673 -1.4540  0.9050
  802MOL0     H 5855   0.982   6.133   2.324 -2.4010  2.8188  1.5493
  802MOL0     H 5856   1.223   6.287   2.229  0.0218 -0.4928  0.4511
  802MOL0     H 5857   1.184   6.210   2.384 -1.2664  3.0452 -0.2592
  802MOL0     H 5858   1.261   6.061   2.133 -1.4832 -1.0734  0.7361
  802MOL0     H 5859   1.202   5.993   2.287 -0.3540 -0.5657 -0.7026
  802MOL0     H 5860   1.455   5.984   2.264  1.3635  0.2171  0.5099
  802MOL0     H 5861   1.453   6.156   2.217  2.1489 -1.3821  0.1579
  802MOL0     H 5862   1.440   6.161   2.647 -1.1611  1.3957  0.3348
  802MOL0     H 5863   0.797   6.100   2.228  0.9930  0.7224  2.4544
  802MOL0     H 5864   0.555   6.096   2.146  0.6314 -1.2230  0.4437
  803MOL0     O 5865   5.672   2.260  10.613 -0.3600  0.4186 -0.3218
  803MOL0     C 5866   5.787   2.280  10.638 -0.9785  0.2335  0.4414
  803MOL0     O 5867   5.861   2.220  10.745 -0.2946 -0.1162  0.5659
  803MOL0     C 5868   5.784   2.133  10.830  0.5094 -0.8578  1.1503
  803MOL0     C 5869   5.784   1.997  10.819 -0.0479 -0.5744  0.0817
  803MOL0     C 5870   5.730   1.910  10.914  0.5749 -0.7137 -0.1003
  803MOL0     C 5871   5.667   1.960  11.033  0.0569 -0.7097  0.6431
  803MOL0     O 5872   5.622   1.887  11.133 -0.2898  0.4380 -0.1651
  803MOL0     C 5873   5.506   1.815  11.087 -0.0730 -0.7765 -0.1251
  803MOL0     C 5874   5.472   1.693  11.169 -0.1031 -0.1705 -0.0851
  803MOL0     C 5875   5.335   1.636  11.129 -0.2728 -0.2372 -0.3068
  803MOL0     C 5876   5.301   1.530  11.244 -1.0738 -0.6993 -1.1859
  803MOL0     C 5877   5.167   1.474  11.222 -0.0646 -0.5633 -0.1374
  803MOL0     C 5878   5.155   1.393  11.086 -0.0673 -0.4153 -0.3970
  803MOL0     C 5879   5.025   1.326  11.053 -0.4448 -0.0916  0.2441
  803MOL0     C 5880   5.001   1.211  11.144  0.1166  0.8230 -0.4752
  803MOL0     N 5881   4.881   1.138  11.098 -0.6659  0.5284  0.1116
  803MOL0     C 5882   4.868   1.062  10.984  0.2839 -0.2213 -0.1024
  803MOL0     C 5883   4.741   1.010  10.997 -0.8735 -0.2533  0.0220
  803MOL0     C 5884   4.689   0.916  10.897 -0.9119 -0.4438 -0.5017
  803MOL0     C 5885   4.543   0.878  10.920  0.3864  0.1451  0.2241
  803MOL0     C 5886   4.498   0.773  10.830  0.1262 -1.1084 -0.3827
  803MOL0     C 5887   4.482   0.817  10.688  0.3572  0.0828  0.3767
  803MOL0     O 5888   4.402   0.719  10.628 -0.4524  0.2380 -0.0054
  803MOL0     C 5889   4.265   0.726  10.626 -0.6842 -0.0426  0.0982
  803MOL0     C 5890   4.194   0.825  10.683  0.5546 -0.2749  0.7343
  803MOL0     C 5891   4.056   0.835  10.666 -0.4984  0.4392  0.2429
  803MOL0     C 5892   3.984   0.751  10.582  0.2603  0.5501 -0.1511
  803MOL0     C 5893   3.836   0.764  10.556 -0.1955 -0.2329  0.0763
  803MOL0     O 5894   3.748   0.758  10.662 -0.2803 -0.4734 -0.2469
  803MOL0     C 5895   3.610   0.768  10.641  0.3985  0.3990 -0.4153
  803MOL0     C 5896   3.525   0.754  10.531 -0.5540  0.2071  0.5698
  803MOL0     C 5897   3.388   0.791  10.530 -0.1721  0.1979  0.6970
  803MOL0     C 5898   3.327   0.830  10.651 -0.6443  0.8838  0.5722
  803MOL0     O 5899   3.195   0.853  10.665 -0.0528 -0.6146 -0.9208
  803MOL0     C 5900   3.112   0.897  10.562 -0.1687 -0.3875  1.3739
  803MOL0     C 5901   2.967   0.864  10.618 -1.1078 -0.2353  0.4952
  803MOL0     C 5902   2.957   0.714  10.630  0.7139  0.3432 -0.8345
  803MOL0     C 5903   2.841   0.675  10.717  0.1012 -0.4806  0.3549
  803MOL0     C 5904   2.714   0.745  10.686  0.0124  0.8448 -0.2801
  803MOL0     C 5905   2.654   0.694  10.561  0.1881 -0.1916  0.0932
  803MOL0     C 5906   2.517   0.761  10.521 -0.1849  0.5634  0.4552
  803MOL0     C 5907   2.450   0.691  10.408 -0.2568  0.4997  0.2456
  803MOL0    Cl 5908   2.303   0.774  10.337 -0.0149  0.1376  0.0284
  803MOL0     C 5909   3.408   0.842  10.767  0.7426  0.2066  0.0948
  803MOL0     C 5910   3.549   0.816  10.758 -0.2759 -0.8615  0.6574
  803MOL0     O 5911   3.808   0.778  10.439  0.0204 -0.2357 -0.6285
  803MOL0     C 5912   4.055   0.654  10.508  0.1171 -0.1405  0.2298
  803MOL0     C 5913   4.196   0.649  10.533 -0.7542  0.7969 -0.8631
  803MOL0     N 5914   4.684   1.047  11.115  0.6474  0.5130 -0.0898
  803MOL0     N 5915   4.765   1.131  11.171  0.3199 -0.4089  0.0989
  803MOL0     C 5916   5.649   2.099  11.037 -0.2769  0.0049 -0.0898
  803MOL0     C 5917   5.705   2.188  10.939  0.0182 -0.0320  0.3068
  803MOL0     C 5918   5.862   2.359  10.537  0.0660 -0.0262 -0.0037
  803MOL0     C 5919   6.006   2.346  10.545  0.9031  0.0881  0.8041
  803MOL0     C 5920   6.079   2.414  10.449  0.4987  1.2848  0.7405
  803MOL0     C 5921   6.030   2.509  10.371  0.3854  0.1979  1.3142
  803MOL0     O 5922   6.113   2.589  10.292 -0.2237  0.5499  0.6746
  803MOL0     C 5923   6.062   2.654  10.173 -0.2058  0.3759  0.2991
  803MOL0     C 5924   6.180   2.737  10.118 -0.0722 -0.0156  0.3712
  803MOL0     C 5925   6.157   2.792   9.979 -0.4556  0.3980  0.0365
  803MOL0     C 5926   6.193   2.685   9.862 -0.7714  0.0555  0.1542
  803MOL0     C 5927   6.152   2.726   9.725  0.1514 -0.8738 -0.5507
  803MOL0     C 5928   6.132   2.768   9.613  0.3878 -0.5287 -0.0221
  803MOL0     C 5929   5.886   2.529  10.370  0.3978  0.0871  0.7608
  803MOL0     C 5930   5.800   2.457  10.456 -0.6455 -0.1406 -0.2330
  803MOL0     H 5931   5.841   1.941  10.746 -0.5415  1.6277 -2.1323
  803MOL0     H 5932   5.747   1.804  10.894  0.1462 -1.7337  3.9893
  803MOL0     H 5933   5.514   1.793  10.981  2.1889 -0.5618 -0.0575
  803MOL0     H 5934   5.422   1.882  11.109 -0.9570 -1.8907 -0.0278
  803MOL0     H 5935   5.464   1.710  11.276  2.0399 -1.7456  0.3732
  803MOL0     H 5936   5.547   1.617  11.149 -0.9039 -0.8561 -0.5495
  803MOL0     H 5937   5.352   1.578  11.038  1.6440 -0.9849  0.4899
  803MOL0     H 5938   5.255   1.711  11.124  1.3106  1.5185 -0.6477
  803MOL0     H 5939   5.376   1.452  11.233  1.0831  0.5714  2.5631
  803MOL0     H 5940   5.321   1.576  11.341  3.1865 -0.3569 -2.0491
  803MOL0     H 5941   5.102   1.562  11.232 -0.2220 -0.7168  0.1993
  803MOL0     H 5942   5.150   1.411  11.309  0.0829 -3.2639 -1.9448
  803MOL0     H 5943   5.231   1.315  11.077  1.3548  1.0278 -1.2685
  803MOL0     H 5944   5.174   1.461  11.003  2.4796  0.1788  0.5846
  803MOL0     H 5945   4.938   1.391  11.051  0.8606  1.7337 -0.8701
  803MOL0     H 5946   5.033   1.298  10.947 -0.5285  1.5947 -0.2322
  803MOL0     H 5947   4.975   1.254  11.241 -1.7433 -0.5382 -0.3293
  803MOL0     H 5948   5.084   1.141  11.157 -0.6568 -0.0122  0.0865
  803MOL0     H 5949   4.941   1.031  10.910  0.2139 -1.4119  0.2983
  803MOL0     H 5950   4.749   0.830  10.928  0.4583  1.6451  3.3342
  803MOL0     H 5951   4.714   0.927  10.792 -2.4872  1.1292 -0.7570
  803MOL0     H 5952   4.467   0.957  10.918 -0.8200 -0.9997 -0.5028
  803MOL0     H 5953   4.526   0.851  11.024 -2.0494  4.2818  1.1513
  803MOL0     H 5954   4.573   0.694  10.837  1.9372  0.7002  3.1673
  803MOL0     H 5955   4.405   0.737  10.874 -1.0710  2.9303  0.8692
  803MOL0     H 5956   4.579   0.827  10.638 -0.2913  0.6733 -0.7901
  803MOL0     H 5957   4.432   0.914  10.676  0.4271  0.0155 -0.4786
  803MOL0     H 5958   4.231   0.903  10.750 -0.6383  1.8766 -0.9683
  803MOL0     H 5959   3.993   0.903  10.721 -0.1153 -1.4639  3.2833
  803MOL0     H 5960   3.576   0.715  10.444 -1.1916  0.5313  0.0454
  803MOL0     H 5961   3.325   0.770  10.444 -2.2930 -1.2216  2.4853
  803MOL0     H 5962   3.133   0.843  10.469 -0.1343 -2.3361  2.4663
  803MOL0     H 5963   3.124   1.005  10.545  1.4395 -0.8324 -0.9617
  803MOL0     H 5964   2.888   0.900  10.552 -0.3202 -2.2320 -1.7003
  803MOL0     H 5965   2.949   0.907  10.717 -1.3682 -2.4607  1.4793
  803MOL0     H 5966   3.040   0.664  10.681 -1.1329  1.3822  3.6590
  803MOL0     H 5967   2.939   0.664  10.535 -3.0691 -0.1552 -0.0247
  803MOL0     H 5968   2.827   0.567  10.718 -0.9517 -0.3787  3.3156
  803MOL0     H 5969   2.867   0.697  10.821  1.8467  2.8610 -0.6260
  803MOL0     H 5970   2.714   0.854  10.690 -1.2673  0.8243  2.1903
  803MOL0     H 5971   2.649   0.714  10.768  0.3642 -4.3331 -1.5977
  803MOL0     H 5972   2.650   0.586  10.547  2.3260 -0.4817  1.3140
  803MOL0     H 5973   2.721   0.739  10.488  1.0269 -1.2255  0.2076
  803MOL0     H 5974   2.462   0.755  10.615  2.3208 -1.5243  1.9522
  803MOL0     H 5975   2.530   0.867  10.498 -0.0018  0.0190 -2.1735
  803MOL0     H 5976   2.409   0.594  10.440 -0.7144 -0.2431 -2.3657
  803MOL0     H 5977   2.525   0.672  10.331 -1.1264  1.9753 -0.9968
  803MOL0     H 5978   3.376   0.869  10.867  0.4423  0.2859 -0.0213
  803MOL0     H 5979   3.624   0.842  10.832  3.0348 -0.3583 -2.5648
  803MOL0     H 5980   4.006   0.584  10.440 -1.3111  1.5306 -0.5346
  803MOL0     H 5981   4.250   0.576  10.473 -2.2464  2.3075 -4.3095
  803MOL0     H 5982   5.584   2.136  11.115  1.3620  0.7663  0.9790
  803MOL0     H 5983   5.703   2.292  10.970 -1.8906 -0.7716  3.0897
  803MOL0     H 5984   6.057   2.277  10.612  0.1079 -0.0450  1.2954
  803MOL0     H 5985   6.186   2.400  10.453  0.0366 -3.8903  2.0198
  803MOL0     H 5986   5.976   2.719  10.191 -0.9362  0.4157 -2.7153
  803MOL0     H 5987   6.023   2.573  10.111 -1.1751 -0.8854  2.4484
  803MOL0     H 5988   6.187   2.818  10.191 -3.2928  1.2497 -0.5707
  803MOL0     H 5989   6.269   2.674  10.130  0.3149  0.7575  1.8798
  803MOL0     H 5990   6.205   2.890   9.973  0.5641 -0.1671 -1.6991
  803MOL0     H 5991   6.052   2.821   9.970 -1.1391 -1.2746  1.9436
  803MOL0     H 5992   6.302   2.675   9.861 -0.8216 -0.5316 -1.0339
  803MOL0     H 5993   6.155   2.586   9.889  2.6781 -1.1280  1.1339
  803MOL0     H 5994   6.125   2.800   9.512 -1.9490 -0.7947  0.0034
  803MOL0     H 5995   5.838   2.599  10.304  0.1445 -2.6471 -2.1833
  803MOL0     H 5996   5.692   2.457  10.466 -0.9212 -0.1677 -2.5652
  804MOL0     O 5997   8.934   6.278   0.473 -0.0276 -0.4331  0.5839
  804MOL0     C 5998   8.967   6.358   0.561  0.4700  1.0534 -0.0921
  804MOL0     O 5999   8.887   6.456   0.621  1.0336  0.2388 -0.0524
  804MOL0     C 6000   8.767   6.497   0.562 -0.5675 -0.5519 -0.7770
  804MOL0     C 6001   8.711   6.456   0.440  0.3363  0.1008  0.4214
  804MOL0     C 6002   8.575   6.468   0.410 -0.3454 -0.2973  0.0468
  804MOL0     C 6003   8.502   6.556   0.492 -0.6991 -0.3892 -0.0277
  804MOL0     O 6004   8.371   6.579   0.445 -0.3404  0.3644 -0.4947
  804MOL0     C 6005   8.288   6.683   0.504 -0.1826 -0.7641  0.0726
  804MOL0     C 6006   8.160   6.643   0.436 -0.1809 -0.0080 -0.6616
  804MOL0     C 6007   8.045   6.711   0.513 -0.8629 -0.1197  0.1104
  804MOL0     C 6008   7.920   6.653   0.454 -0.5711 -0.0048  0.1972
  804MOL0     C 6009   7.798   6.722   0.527  0.0252  0.1746  0.4531
  804MOL0     C 6010   7.679   6.737   0.439 -0.2109  0.1131  0.6621
  804MOL0     C 6011   7.558   6.787   0.514  0.8253 -0.4025 -1.0102
  804MOL0     C 6012   7.430   6.808   0.417 -0.9908  0.5171 -0.7860
  804MOL0     N 6013   7.312   6.857   0.495 -0.8799  0.1900 -0.7692
  804MOL0     C 6014   7.320   6.931   0.610  0.5394 -0.7783  0.4204
  804MOL0     C 6015   7.189   6.937   0.650 -0.0092  0.1808 -0.1777
  804MOL0     C 6016   7.169   7.005   0.782 -0.3235 -0.3919  0.4470
  804MOL0     C 6017   7.106   7.144   0.763  1.0227 -0.4615 -0.1572
  804MOL0     C 6018   7.067   7.185   0.904 -0.5586  0.0418  0.2430
  804MOL0     C 6019   7.043   7.337   0.928  0.6031  0.8028  0.4147
  804MOL0     O 6020   6.942   7.381   0.833  0.0808  0.3317 -0.9965
  804MOL0     C 6021   6.822   7.427   0.871  0.8019 -0.3984 -0.0193
  804MOL0     C 6022   6.774   7.535   0.796  0.0530 -0.1960 -0.4289
  804MOL0     C 6023   6.656   7.597   0.811 -0.4299 -0.0478 -0.1781
  804MOL0     C 6024   6.567   7.535   0.909  0.6193 -0.0002 -0.0033
  804MOL0     C 6025   6.430   7.591   0.923 -0.4204 -0.3666  0.3078
  804MOL0     O 6026   6.340   7.517   0.995  0.7075 -0.5345  0.2670
  804MOL0     C 6027   6.224   7.583   1.020 -0.2641 -0.2604 -0.1088
  804MOL0     C 6028   6.212   7.679   1.119 -0.0805  1.0557 -0.3509
  804MOL0     C 6029   6.090   7.745   1.131  0.0670  0.0615  0.3370
  804MOL0     C 6030   5.985   7.722   1.043  0.1000 -0.3020  0.0036
  804MOL0     O 6031   5.863   7.787   1.044  0.2158 -0.3910 -0.6546
  804MOL0     C 6032   5.865   7.909   1.118  0.1887  0.0610  0.4905
  804MOL0     C 6033   5.728   7.977   1.095  0.2177 -0.3483 -0.1695
  804MOL0     C 6034   5.596   7.897   1.134 -1.0936  0.6031  0.5006
  804MOL0     C 6035   5.475   7.988   1.116  0.5067  0.3858  0.9192
  804MOL0     C 6036   5.345   7.921   1.171 -0.1125  0.0150 -0.0315
  804MOL0     C 6037   5.238   8.019   1.212 -0.2471  0.9012  0.3010
  804MOL0     C 6038   5.209   8.120   1.104 -0.2456 -0.1691  0.8338
  804MOL0     C 6039   5.067   8.178   1.111  0.4476  0.5150 -0.4985
  804MOL0    Cl 6040   4.926   8.079   1.072 -0.4001  0.1684  0.0492
  804MOL0     C 6041   5.999   7.620   0.949 -0.4951 -0.1767 -0.8970
  804MOL0     C 6042   6.117   7.552   0.938  0.5562 -0.1563 -0.6123
  804MOL0     O 6043   6.407   7.696   0.866 -0.2663 -0.4211  0.3844
  804MOL0     C 6044   6.614   7.422   0.992 -0.7877 -0.0058 -0.4993
  804MOL0     C 6045   6.743   7.378   0.964 -0.5514  0.9310 -0.3549
  804MOL0     N 6046   7.106   6.881   0.552  0.4519  0.0958 -0.0807
  804MOL0     N 6047   7.188   6.820   0.469  0.3704  0.1774 -0.2080
  804MOL0     C 6048   8.562   6.615   0.604  0.3984  0.1779  0.3506
  804MOL0     C 6049   8.690   6.581   0.641 -0.1104  0.3102  0.6192
  804MOL0     C 6050   9.111   6.383   0.589  0.2918 -0.7816 -0.1504
  804MOL0     C 6051   9.214   6.295   0.541  0.3721 -0.1666  0.0611
  804MOL0     C 6052   9.351   6.315   0.570 -0.5542  0.9231 -0.2528
  804MOL0     C 6053   9.393   6.418   0.656 -0.6596 -0.7287 -0.4824
  804MOL0     O 6054   9.523   6.457   0.696  0.3733  0.3003 -0.7426
  804MOL0     C 6055   9.632   6.413   0.614 -0.3863 -0.6201 -0.3736
  804MOL0     C 6056   9.757   6.499   0.644  0.5413 -0.2923  0.8704
  804MOL0     C 6057   9.794   6.517   0.795 -0.4263 -0.4659 -0.3224
  804MOL0     C 6058   9.944   6.563   0.802  0.4284 -0.7091 -0.2504
  804MOL0     C 6059  10.026   6.451   0.746  0.0730  0.2602 -0.7620
  804MOL0     C 6060  10.089   6.360   0.706  0.2728  0.1504  0.3522
  804MOL0     C 6061   9.292   6.505   0.693  0.4227 -0.5188  0.4310
  804MOL0     C 6062   9.164   6.491   0.662  0.6185  0.6471  0.1932
  804MOL0     H 6063   8.773   6.402   0.369  4.5506  1.0721  2.9829
  804MOL0     H 6064   8.531   6.441   0.314 -1.2097  0.3045  0.2587
  804MOL0     H 6065   8.328   6.781   0.474 -1.7668  0.3891  1.5325
  804MOL0     H 6066   8.288   6.683   0.614  0.2555 -2.0654  0.0885
  804MOL0     H 6067   8.147   6.536   0.417  2.4195 -0.2064 -1.7395
  804MOL0     H 6068   8.158   6.691   0.337 -0.6006 -2.8394 -2.1180
  804MOL0     H 6069   8.044   6.820   0.506 -1.1174 -0.0819  0.6756
  804MOL0     H 6070   8.045   6.681   0.619 -1.2658 -0.8143 -0.0758
  804MOL0     H 6071   7.900   6.668   0.348  0.9493  2.3078  0.1677
  804MOL0     H 6072   7.911   6.548   0.484 -3.4714 -0.6624 -2.4622
  804MOL0     H 6073   7.831   6.820   0.562  0.4194 -0.7385  2.7663
  804MOL0     H 6074   7.777   6.667   0.619  4.1704 -2.2171  0.2295
  804MOL0     H 6075   7.656   6.637   0.400  0.1446  0.5510 -0.6872
  804MOL0     H 6076   7.702   6.797   0.351 -0.4223  1.5817  1.5725
  804MOL0     H 6077   7.536   6.711   0.589  0.3975 -0.6531 -1.3888
  804MOL0     H 6078   7.589   6.873   0.574  2.0771 -0.1947 -1.9030
  804MOL0     H 6079   7.407   6.712   0.370  0.1943  0.2711 -0.9104
  804MOL0     H 6080   7.460   6.883   0.344 -0.8547  2.0115  0.7565
  804MOL0     H 6081   7.404   6.977   0.660  1.8478 -2.6648  0.0523
  804MOL0     H 6082   7.269   7.020   0.824  0.9134  0.1414 -2.4772
  804MOL0     H 6083   7.111   6.943   0.852 -0.2370 -1.5460 -0.4692
  804MOL0     H 6084   7.012   7.144   0.707 -0.8584  1.2319  2.7185
  804MOL0     H 6085   7.175   7.212   0.713 -0.9465  0.2239 -2.1108
  804MOL0     H 6086   6.975   7.130   0.925  0.2539 -1.6475 -0.4999
  804MOL0     H 6087   7.138   7.154   0.981  1.4481 -0.9062 -1.8747
  804MOL0     H 6088   7.134   7.395   0.916 -0.6847  2.8421  0.0585
  804MOL0     H 6089   7.018   7.355   1.033 -1.5246  0.4128  0.0214
  804MOL0     H 6090   6.840   7.577   0.722 -1.3443 -0.2416 -1.7475
  804MOL0     H 6091   6.613   7.671   0.745 -2.2928  0.0725  1.0735
  804MOL0     H 6092   6.296   7.706   1.183  1.0772  0.4790 -1.5585
  804MOL0     H 6093   6.097   7.831   1.197 -0.7183 -0.6133  1.3318
  804MOL0     H 6094   5.949   7.976   1.095  1.1324 -2.2501 -3.8499
  804MOL0     H 6095   5.871   7.906   1.228 -0.6787  1.1797  0.5839
  804MOL0     H 6096   5.712   8.008   0.991 -1.6029  1.9489  0.7031
  804MOL0     H 6097   5.726   8.069   1.154 -2.8651 -1.1827  1.2420
  804MOL0     H 6098   5.613   7.861   1.236 -2.3074  0.3952  0.6413
  804MOL0     H 6099   5.592   7.811   1.068 -1.8187  0.5880  0.5517
  804MOL0     H 6100   5.491   8.081   1.171  1.1814 -1.0091  3.2094
  804MOL0     H 6101   5.457   8.021   1.013 -3.0496  1.1646  1.6636
  804MOL0     H 6102   5.376   7.853   1.250 -1.8390  0.1496  0.8080
  804MOL0     H 6103   5.305   7.850   1.097 -1.4555 -0.9513  1.5521
  804MOL0     H 6104   5.261   8.065   1.309 -2.0018 -1.1153  1.7733
  804MOL0     H 6105   5.145   7.962   1.217 -0.1969  0.5664 -1.6513
  804MOL0     H 6106   5.282   8.200   1.092  0.4628 -1.1886 -2.5013
  804MOL0     H 6107   5.214   8.074   1.005 -0.6358  1.9298 -0.2108
  804MOL0     H 6108   5.064   8.246   1.026  2.1416  0.1297 -0.9081
  804MOL0     H 6109   5.044   8.238   1.200 -1.3965  0.3134 -0.8002
  804MOL0     H 6110   5.917   7.603   0.881 -0.6451  1.6572 -1.2411
  804MOL0     H 6111   6.122   7.491   0.849  1.8650 -0.5819 -0.2638
  804MOL0     H 6112   6.558   7.378   1.074  2.2413 -0.9809  1.2407
  804MOL0     H 6113   6.763   7.290   1.025 -0.8962  1.7992  1.0654
  804MOL0     H 6114   8.508   6.675   0.677 -0.8838  0.8637 -1.0996
  804MOL0     H 6115   8.727   6.608   0.740 -0.4761 -0.4820  0.9773
  804MOL0     H 6116   9.184   6.230   0.459 -2.1588  2.6084 -1.4128
  804MOL0     H 6117   9.415   6.249   0.513  0.3347 -0.0954  1.7970
  804MOL0     H 6118   9.618   6.416   0.506 -0.6281  3.2391 -0.3914
  804MOL0     H 6119   9.645   6.310   0.647 -0.9619  0.1960  2.8194
  804MOL0     H 6120   9.837   6.453   0.584 -0.7618 -2.9029  0.9816
  804MOL0     H 6121   9.733   6.597   0.601 -2.3543 -0.7355  1.2896
  804MOL0     H 6122   9.786   6.415   0.833 -1.7902  0.7509  3.1101
  804MOL0     H 6123   9.730   6.582   0.856  1.4053  2.1043 -0.9518
  804MOL0     H 6124   9.945   6.652   0.739 -2.8347  0.3530  0.9604
  804MOL0     H 6125   9.972   6.587   0.905 -1.1715 -0.7574  0.2217
  804MOL0     H 6126  10.145   6.273   0.676 -2.6899 -1.1135 -1.9569
  804MOL0     H 6127   9.321   6.588   0.757  2.5568 -0.1639 -0.8958
  804MOL0     H 6128   9.095   6.562   0.707 -0.2541  0.3639 -0.6673
  805MOL0     O 6129   1.761   5.831   6.969 -0.0862 -0.0190  0.3678
  805MOL0     C 6130   1.852   5.763   7.016  0.3294  0.0992 -0.3174
  805MOL0     O 6131   1.856   5.626   7.021  0.2198 -0.4095 -0.2347
  805MOL0     C 6132   1.767   5.572   6.924 -0.0083 -0.1519  0.0742
  805MOL0     C 6133   1.822   5.555   6.790 -0.4813 -0.8935 -0.8505
  805MOL0     C 6134   1.751   5.494   6.688 -0.2013  0.6363  0.7151
  805MOL0     C 6135   1.624   5.445   6.719 -0.7775 -0.1606 -0.2334
  805MOL0     O 6136   1.565   5.376   6.619 -0.3961 -0.0322  0.8050
  805MOL0     C 6137   1.433   5.321   6.637  0.0803  0.4010  0.1438
  805MOL0     C 6138   1.385   5.256   6.500 -0.4858 -0.2884  0.9118
  805MOL0     C 6139   1.269   5.156   6.519 -0.3647 -0.1078 -0.0274
  805MOL0     C 6140   1.143   5.240   6.527  0.2729  0.8136 -0.5308
  805MOL0     C 6141   1.027   5.152   6.582 -0.3112 -0.1305  1.2793
  805MOL0     C 6142   0.985   5.038   6.480 -0.4661 -0.8266  0.0262
  805MOL0     C 6143   0.875   4.947   6.528 -0.6390 -0.1623 -0.0460
  805MOL0     C 6144   0.859   4.818   6.438 -0.8894 -0.0620  0.2056
  805MOL0     N 6145   0.975   4.732   6.425 -0.1002 -0.3957  0.3597
  805MOL0     C 6146   1.065   4.721   6.327 -0.1623 -0.7333 -0.2837
  805MOL0     C 6147   1.163   4.637   6.377 -0.3261 -0.0992  0.1930
  805MOL0     C 6148   1.291   4.623   6.286  1.0283  0.2596 -0.3299
  805MOL0     C 6149   1.387   4.735   6.313  0.3606  0.0874  0.5565
  805MOL0     C 6150   1.442   4.710   6.449  1.1390 -0.3839  0.5088
  805MOL0     C 6151   1.583   4.766   6.472  0.1992  0.1443 -0.3252
  805MOL0     O 6152   1.676   4.724   6.374  0.4941  0.5351  0.2783
  805MOL0     C 6153   1.805   4.770   6.387 -0.2162 -0.3536 -0.6825
  805MOL0     C 6154   1.862   4.779   6.512 -0.2416  0.3666 -0.3407
  805MOL0     C 6155   1.995   4.823   6.530  1.1052  0.6418  0.2328
  805MOL0     C 6156   2.066   4.879   6.420  0.0913  0.2169  0.1647
  805MOL0     C 6157   2.212   4.915   6.436 -0.1692  0.1205  0.3958
  805MOL0     O 6158   2.255   4.920   6.570 -0.5304  0.0366  0.3185
  805MOL0     C 6159   2.392   4.947   6.599  0.0859  0.0161 -1.0498
  805MOL0     C 6160   2.506   4.941   6.520  0.7107 -0.6655 -0.2549
  805MOL0     C 6161   2.636   4.967   6.567  0.2483  0.0763 -1.2981
  805MOL0     C 6162   2.652   4.981   6.705 -0.0353  0.8512 -1.2155
  805MOL0     O 6163   2.775   5.004   6.763  0.6249  0.3945 -0.3870
  805MOL0     C 6164   2.837   4.886   6.821 -0.7379  0.0033  0.1177
  805MOL0     C 6165   2.944   4.929   6.921 -0.4200 -0.5941 -0.3572
  805MOL0     C 6166   3.040   5.050   6.876 -0.0870 -0.5192  0.2518
  805MOL0     C 6167   3.134   5.014   6.762  0.4486  0.0915 -0.3597
  805MOL0     C 6168   3.266   5.098   6.761  0.9715  1.1695  0.0707
  805MOL0     C 6169   3.333   5.086   6.625 -0.2135 -0.6144 -0.1024
  805MOL0     C 6170   3.242   5.136   6.513  0.1266  0.5289 -0.4064
  805MOL0     C 6171   3.320   5.209   6.399 -0.0184  0.0463 -0.1734
  805MOL0    Cl 6172   3.399   5.349   6.476 -0.0144 -0.0457 -0.4323
  805MOL0     C 6173   2.541   4.973   6.786  0.4653 -0.4466  0.2111
  805MOL0     C 6174   2.415   4.962   6.733  0.0091 -0.5705 -0.0772
  805MOL0     O 6175   2.272   4.950   6.329  0.0959  0.1719 -0.8513
  805MOL0     C 6176   2.003   4.874   6.293 -0.1660 -0.5892 -0.5655
  805MOL0     C 6177   1.873   4.823   6.277 -0.5454 -0.2980  0.2752
  805MOL0     N 6178   1.138   4.617   6.507 -0.2131  0.0503  0.6935
  805MOL0     N 6179   1.024   4.670   6.539  0.5834  0.0754 -0.4634
  805MOL0     C 6180   1.564   5.460   6.845  0.1781 -1.0614  0.0507
  805MOL0     C 6181   1.637   5.533   6.944  0.7428 -0.1334  0.3892
  805MOL0     C 6182   1.963   5.834   7.085  0.2383  0.0275 -0.9984
  805MOL0     C 6183   1.932   5.970   7.128 -0.0135 -0.8680 -0.1767
  805MOL0     C 6184   2.032   6.043   7.192  1.2109 -0.0171 -0.4980
  805MOL0     C 6185   2.156   5.987   7.228 -0.3592 -0.3016 -0.4931
  805MOL0     O 6186   2.250   6.073   7.279 -0.6688  0.6765  0.2851
  805MOL0     C 6187   2.379   6.022   7.334  0.5715  0.2485  0.2274
  805MOL0     C 6188   2.496   6.004   7.234  0.2343  0.0275  0.1195
  805MOL0     C 6189   2.605   5.907   7.281 -0.6627  0.0009 -0.2109
  805MOL0     C 6190   2.669   5.953   7.418  0.6881 -0.1980  0.3249
  805MOL0     C 6191   2.788   5.874   7.442  0.4508 -0.0108  0.2318
  805MOL0     C 6192   2.882   5.807   7.459  0.4151 -0.0050  0.4852
  805MOL0     C 6193   2.171   5.856   7.189 -0.1215  0.1954  0.0927
  805MOL0     C 6194   2.084   5.782   7.121  0.5810  0.1380  0.6345
  805MOL0     H 6195   1.927   5.578   6.774 -0.4998 -0.6327 -0.6069
  805MOL0     H 6196   1.810   5.464   6.602  0.0209 -0.1389  1.1285
  805MOL0     H 6197   1.356   5.392   6.668 -1.4803 -1.2526  0.2322
  805MOL0     H 6198   1.427   5.239   6.710 -0.2908 -0.9455 -1.3490
  805MOL0     H 6199   1.470   5.202   6.459 -0.1224  0.8388  0.1495
  805MOL0     H 6200   1.366   5.339   6.432  1.0448 -0.4762  0.2138
  805MOL0     H 6201   1.279   5.102   6.613  0.9910 -2.3973 -1.3735
  805MOL0     H 6202   1.263   5.081   6.439  2.1566  0.6546 -1.0659
  805MOL0     H 6203   1.159   5.315   6.605 -0.8264  0.3509  0.1525
  805MOL0     H 6204   1.127   5.294   6.434 -4.1251 -0.3901 -0.6937
  805MOL0     H 6205   0.943   5.222   6.584 -1.5049 -1.5095  1.2311
  805MOL0     H 6206   1.039   5.126   6.687 -1.5265  3.1683  2.3691
  805MOL0     H 6207   1.069   4.969   6.470  1.4888  1.3683  0.3440
  805MOL0     H 6208   0.957   5.076   6.381  0.8109  3.4004  1.0773
  805MOL0     H 6209   0.902   4.921   6.631 -0.8862 -1.2972 -0.2536
  805MOL0     H 6210   0.787   5.012   6.532  1.4219  2.8046  0.1536
  805MOL0     H 6211   0.826   4.846   6.338  0.1887 -1.1063 -0.4743
  805MOL0     H 6212   0.780   4.756   6.480  0.1721 -2.4038 -1.0575
  805MOL0     H 6213   1.063   4.779   6.235  0.7595 -1.8500 -1.0409
  805MOL0     H 6214   1.255   4.627   6.183 -2.7499 -2.0495  0.7124
  805MOL0     H 6215   1.333   4.523   6.289  1.7070  0.5532  0.6499
  805MOL0     H 6216   1.329   4.827   6.323 -0.0687 -0.1727  0.4938
  805MOL0     H 6217   1.467   4.729   6.240 -3.4844 -1.4291 -4.0694
  805MOL0     H 6218   1.387   4.769   6.523 -0.8864  1.5281 -2.3253
  805MOL0     H 6219   1.431   4.604   6.476 -1.9157 -0.5268 -0.9785
  805MOL0     H 6220   1.609   4.713   6.565 -3.2631 -2.5704 -0.7065
  805MOL0     H 6221   1.584   4.875   6.470  0.8522  0.2325  1.9605
  805MOL0     H 6222   1.815   4.741   6.603  1.4163 -2.1236 -0.4387
  805MOL0     H 6223   2.034   4.809   6.631 -1.0303 -0.2245  0.9983
  805MOL0     H 6224   2.506   4.932   6.412  5.6482  1.6696 -0.7179
  805MOL0     H 6225   2.721   4.973   6.500  1.0231 -2.8564 -0.7057
  805MOL0     H 6226   2.882   4.844   6.730 -0.3986  0.2369  0.1749
  805MOL0     H 6227   2.765   4.816   6.863 -2.5906  2.4193  1.2478
  805MOL0     H 6228   3.001   4.849   6.969  0.7578 -0.4275 -1.4220
  805MOL0     H 6229   2.875   4.963   6.998 -0.3440  0.4629 -0.7394
  805MOL0     H 6230   3.102   5.073   6.963 -0.9379 -0.4800  0.8661
  805MOL0     H 6231   2.985   5.143   6.858 -0.0164 -0.0720  2.1158
  805MOL0     H 6232   3.155   4.907   6.772 -1.2132 -0.2104  0.2652
  805MOL0     H 6233   3.067   5.028   6.677  0.8885  1.3827 -0.5152
  805MOL0     H 6234   3.335   5.073   6.843  0.5629  2.0872  0.7093
  805MOL0     H 6235   3.237   5.202   6.777  2.4894  1.3882  1.6966
  805MOL0     H 6236   3.345   4.977   6.614 -1.1549 -1.2493  3.7423
  805MOL0     H 6237   3.434   5.129   6.625 -0.4811  0.0402  0.7942
  805MOL0     H 6238   3.201   5.050   6.459  1.4590 -0.8104  0.6090
  805MOL0     H 6239   3.156   5.193   6.547  0.3910 -0.4303  2.0938
  805MOL0     H 6240   3.254   5.249   6.322  0.5008  3.1908  0.8689
  805MOL0     H 6241   3.391   5.145   6.346 -1.7370  0.3110 -2.9976
  805MOL0     H 6242   2.554   4.994   6.892  0.0341  2.7823 -0.2564
  805MOL0     H 6243   2.345   4.940   6.813  0.0006 -1.9172 -0.4180
  805MOL0     H 6244   2.043   4.932   6.211 -1.0819  1.8933  0.6319
  805MOL0     H 6245   1.834   4.814   6.176  1.3317  0.7925 -0.6017
  805MOL0     H 6246   1.462   5.433   6.869 -0.0780  1.1465  1.7000
  805MOL0     H 6247   1.594   5.551   7.042 -0.5047 -2.0147  0.2420
  805MOL0     H 6248   1.839   6.016   7.097 -0.6418  0.9780  3.8070
  805MOL0     H 6249   2.015   6.149   7.211 -1.0225 -0.2081 -1.2190
  805MOL0     H 6250   2.358   5.922   7.374  0.3628  1.3634  3.1935
  805MOL0     H 6251   2.402   6.088   7.418 -0.6496  1.7299 -0.5534
  805MOL0     H 6252   2.471   5.959   7.137  1.3027 -1.5590  0.5441
  805MOL0     H 6253   2.544   6.098   7.203  2.4110 -1.5134 -1.4839
  805MOL0     H 6254   2.683   5.897   7.205 -0.8666 -0.8122 -0.3189
  805MOL0     H 6255   2.551   5.812   7.293 -0.6407  0.1699  1.4344
  805MOL0     H 6256   2.697   6.058   7.429  1.1614 -0.5783  3.6507
  805MOL0     H 6257   2.597   5.928   7.496 -3.0341  2.1278 -2.0710
  805MOL0     H 6258   2.974   5.759   7.484  0.5857  0.5869  1.0245
  805MOL0     H 6259   2.261   5.807   7.225 -1.7020 -3.5555 -0.6418
  805MOL0     H 6260   2.104   5.681   7.086  0.2040  0.9839 -2.3098
  806MOL0     O 6261  10.201   7.047   2.965  0.1018  0.5066 -0.8403
  806MOL0     C 6262  10.247   6.999   2.862  0.6292  0.5005 -0.2057
  806MOL0     O 6263  10.209   6.892   2.788 -0.2634  0.6207 -0.9119
  806MOL0     C 6264  10.131   6.786   2.847 -0.4241 -0.1109 -0.3402
  806MOL0     C 6265  10.164   6.745   2.983  1.2389 -0.5202  0.2124
  806MOL0     C 6266  10.103   6.634   3.037 -0.9082  0.4428  0.0475
  806MOL0     C 6267  10.017   6.555   2.968  1.2214  0.4085  0.0874
  806MOL0     O 6268   9.943   6.456   3.023  0.5679  0.0497 -0.6356
  806MOL0     C 6269   9.962   6.408   3.158  0.0429  0.3049  0.2104
  806MOL0     C 6270   9.880   6.274   3.180  0.5276 -0.1478  0.2221
  806MOL0     C 6271   9.734   6.299   3.204 -0.5815 -0.2850  0.9288
  806MOL0     C 6272   9.694   6.382   3.319  0.1524  0.6876 -0.2905
  806MOL0     C 6273   9.552   6.351   3.378 -0.3569 -0.1536  0.3787
  806MOL0     C 6274   9.502   6.476   3.447  0.6202 -0.2033  0.1835
  806MOL0     C 6275   9.548   6.490   3.592  0.1849 -0.2711 -0.3290
  806MOL0     C 6276   9.531   6.640   3.638  0.8627  0.0748 -0.3946
  806MOL0     N 6277   9.391   6.683   3.618  0.4963  0.6240  0.4083
  806MOL0     C 6278   9.284   6.639   3.696 -0.8635 -0.0136  0.4376
  806MOL0     C 6279   9.174   6.661   3.624  0.3516  0.2049  0.9074
  806MOL0     C 6280   9.035   6.633   3.670  0.6860  0.5882 -0.0247
  806MOL0     C 6281   8.952   6.555   3.570  1.3820  0.0701  0.1890
  806MOL0     C 6282   8.812   6.521   3.632 -0.1773  0.5530  0.0694
  806MOL0     C 6283   8.729   6.639   3.680 -0.5528  0.3099  0.3638
  806MOL0     O 6284   8.593   6.609   3.700 -0.1947 -0.2532  0.5850
  806MOL0     C 6285   8.511   6.719   3.710 -0.6888 -0.5550  0.1065
  806MOL0     C 6286   8.375   6.689   3.691  0.7800  1.3257  0.1209
  806MOL0     C 6287   8.281   6.792   3.716 -0.4519  0.0249  0.6864
  806MOL0     C 6288   8.320   6.927   3.754 -0.9789  0.8678 -0.1834
  806MOL0     C 6289   8.225   7.030   3.789  0.9030 -0.3334  0.7007
  806MOL0     O 6290   8.273   7.155   3.803  0.2511  0.2729 -0.6046
  806MOL0     C 6291   8.197   7.252   3.863 -0.3332 -0.9879  0.6689
  806MOL0     C 6292   8.263   7.376   3.851  0.3284 -0.0383  0.8261
  806MOL0     C 6293   8.229   7.495   3.924 -0.8119  0.0033 -0.2208
  806MOL0     C 6294   8.105   7.481   3.986  0.1632  0.4192 -0.2357
  806MOL0     O 6295   8.052   7.592   4.042 -0.1094  0.8319 -0.2086
  806MOL0     C 6296   8.124   7.630   4.157  0.2191  0.3518  0.6370
  806MOL0     C 6297   8.021   7.715   4.221 -0.3385 -0.7681  0.4128
  806MOL0     C 6298   7.905   7.630   4.272  0.3093 -0.0556 -0.0691
  806MOL0     C 6299   7.808   7.729   4.338  0.0691 -0.3716  0.2195
  806MOL0     C 6300   7.715   7.646   4.424  0.3256 -0.2463 -0.4257
  806MOL0     C 6301   7.590   7.724   4.478 -0.1461 -0.1097 -0.2464
  806MOL0     C 6302   7.491   7.629   4.551  0.1710  0.7233 -1.0859
  806MOL0     C 6303   7.369   7.718   4.590  0.5270  0.0819 -0.1244
  806MOL0    Cl 6304   7.240   7.619   4.670  0.1111  0.0363  0.3398
  806MOL0     C 6305   8.031   7.364   3.984  0.3069  0.5062 -0.1936
  806MOL0     C 6306   8.081   7.241   3.939  0.2487 -0.1763 -0.2092
  806MOL0     O 6307   8.102   7.004   3.775  0.2196  0.0309 -0.0430
  806MOL0     C 6308   8.457   6.942   3.780 -0.4309  0.5785 -0.0675
  806MOL0     C 6309   8.555   6.849   3.755 -0.3271 -0.0577 -0.2128
  806MOL0     N 6310   9.211   6.709   3.497 -0.4508  0.1168  0.5783
  806MOL0     N 6311   9.335   6.731   3.505 -0.0628 -0.1976  0.2971
  806MOL0     C 6312   9.982   6.596   2.840 -0.3426  0.0400  0.0780
  806MOL0     C 6313  10.031   6.712   2.783  0.1791 -0.9932 -0.0242
  806MOL0     C 6314  10.340   7.085   2.790 -0.2833 -0.0066  0.7298
  806MOL0     C 6315  10.392   7.205   2.843 -1.1031 -0.0117  0.2747
  806MOL0     C 6316  10.500   7.270   2.781  0.2651 -0.3005  0.1979
  806MOL0     C 6317  10.547   7.235   2.656  0.1642 -0.6527  1.0250
  806MOL0     O 6318  10.645   7.292   2.574  0.2354 -0.2936  0.2099
  806MOL0     C 6319  10.773   7.322   2.632  0.1486  0.6715  0.0352
  806MOL0     C 6320  10.882   7.344   2.527 -0.3071  0.4627  0.3876
  806MOL0     C 6321  11.009   7.395   2.596  0.0411  0.1758  0.5780
  806MOL0     C 6322  11.133   7.413   2.504 -0.1538 -0.0834  1.0234
  806MOL0     C 6323  11.201   7.284   2.497 -0.5709 -0.3213  0.0091
  806MOL0     C 6324  11.272   7.184   2.510 -0.8389 -0.9758 -0.2150
  806MOL0     C 6325  10.482   7.133   2.595 -0.4832 -0.7535  0.4678
  806MOL0     C 6326  10.385   7.055   2.664  0.2873  0.1325  0.4615
  806MOL0     H 6327  10.228   6.801   3.051 -0.1791 -0.0584  1.2059
  806MOL0     H 6328  10.116   6.603   3.140  1.2807  0.3427 -0.2276
  806MOL0     H 6329   9.924   6.487   3.224 -0.8917  0.0871 -0.0460
  806MOL0     H 6330  10.067   6.387   3.181 -0.7865 -1.9069  2.3128
  806MOL0     H 6331   9.924   6.212   3.259  1.1819  1.1566  0.9161
  806MOL0     H 6332   9.891   6.212   3.090  1.2058  2.4348 -1.6158
  806MOL0     H 6333   9.697   6.196   3.217 -0.6983 -0.6551 -1.7847
  806MOL0     H 6334   9.690   6.338   3.112  1.5172  0.6016  0.2266
  806MOL0     H 6335   9.766   6.367   3.400 -1.5810  1.8267  1.5536
  806MOL0     H 6336   9.697   6.488   3.293  0.2671  0.2021 -2.5100
  806MOL0     H 6337   9.564   6.269   3.450  0.7438  0.7184  1.2172
  806MOL0     H 6338   9.483   6.325   3.298 -0.1687 -1.0335  0.4842
  806MOL0     H 6339   9.393   6.477   3.443  0.5788  3.1744 -0.6078
  806MOL0     H 6340   9.540   6.555   3.383 -0.2944  2.0273  2.2459
  806MOL0     H 6341   9.470   6.443   3.652 -1.8282  0.8991 -1.9150
  806MOL0     H 6342   9.650   6.455   3.615  0.0673 -0.0473  0.5733
  806MOL0     H 6343   9.600   6.710   3.590  1.6039 -0.4567 -0.1279
  806MOL0     H 6344   9.556   6.633   3.744 -1.7518 -2.3755  0.1685
  806MOL0     H 6345   9.283   6.590   3.793  1.0508  1.5687  1.3398
  806MOL0     H 6346   8.983   6.728   3.681 -1.1478  0.2683 -4.1146
  806MOL0     H 6347   9.038   6.579   3.766  0.6417  2.8671  1.3451
  806MOL0     H 6348   9.004   6.462   3.546 -0.1472 -0.1753 -2.6635
  806MOL0     H 6349   8.925   6.616   3.482  1.7041  3.1088  2.0523
  806MOL0     H 6350   8.761   6.466   3.553  1.2366  2.7703 -2.5838
  806MOL0     H 6351   8.832   6.457   3.718  0.6327  0.3941 -0.2319
  806MOL0     H 6352   8.724   6.708   3.595 -2.5045 -2.1627 -1.6993
  806MOL0     H 6353   8.776   6.683   3.769 -4.4591  3.6386  1.0736
  806MOL0     H 6354   8.347   6.591   3.652  1.8865  0.6020  1.0904
  806MOL0     H 6355   8.175   6.782   3.695  0.1227  0.1817 -3.0117
  806MOL0     H 6356   8.354   7.368   3.791  0.9729  0.7477  1.6817
  806MOL0     H 6357   8.288   7.586   3.917  0.5891 -0.8618 -0.0715
  806MOL0     H 6358   8.209   7.693   4.131 -0.1838  0.1161 -1.4466
  806MOL0     H 6359   8.160   7.543   4.214 -0.6905 -2.1020 -2.2639
  806MOL0     H 6360   7.981   7.791   4.153 -1.2627 -2.9160 -1.5961
  806MOL0     H 6361   8.069   7.758   4.309  1.3262  1.4885 -1.4983
  806MOL0     H 6362   7.947   7.556   4.341  2.6790  0.5912 -0.7180
  806MOL0     H 6363   7.852   7.578   4.192 -2.0377  2.2318 -0.1243
  806MOL0     H 6364   7.858   7.799   4.406 -2.4557  0.3935  1.4054
  806MOL0     H 6365   7.747   7.783   4.266  1.7394  0.1953 -0.8253
  806MOL0     H 6366   7.761   7.599   4.511 -2.3252 -3.0087 -0.3537
  806MOL0     H 6367   7.684   7.557   4.368 -2.4123 -1.0076  2.0328
  806MOL0     H 6368   7.545   7.777   4.393  1.1960 -0.7765 -1.4003
  806MOL0     H 6369   7.621   7.807   4.543  3.8259  0.6138 -2.7426
  806MOL0     H 6370   7.464   7.547   4.484  0.6486 -0.8621  0.5774
  806MOL0     H 6371   7.533   7.589   4.644 -0.0377 -0.4525 -1.4890
  806MOL0     H 6372   7.331   7.737   4.489  0.8196 -2.7417 -0.8309
  806MOL0     H 6373   7.394   7.810   4.643 -0.0273 -0.7497  1.6379
  806MOL0     H 6374   7.934   7.350   4.032  0.0423  0.6687 -0.6704
  806MOL0     H 6375   8.021   7.151   3.950 -0.4229  0.3625  0.6216
  806MOL0     H 6376   8.486   7.035   3.827 -1.8325 -0.2741  2.6617
  806MOL0     H 6377   8.659   6.866   3.783 -0.0853  0.0562 -1.1431
  806MOL0     H 6378   9.922   6.525   2.783 -0.1552  0.6692 -0.9267
  806MOL0     H 6379  10.023   6.732   2.676 -2.2186  0.2305  0.3150
  806MOL0     H 6380  10.364   7.241   2.941 -1.4285  2.5868 -0.7121
  806MOL0     H 6381  10.543   7.353   2.836 -1.0961 -0.1060  1.0092
  806MOL0     H 6382  10.793   7.238   2.700  3.4724  0.6778 -0.7822
  806MOL0     H 6383  10.764   7.418   2.684  1.3986 -1.9695  6.1323
  806MOL0     H 6384  10.909   7.246   2.488  1.0186  0.6663  0.7422
  806MOL0     H 6385  10.837   7.409   2.451 -0.0075 -0.1907 -0.3618
  806MOL0     H 6386  11.036   7.336   2.684 -0.0357 -2.7711 -1.2600
  806MOL0     H 6387  10.984   7.493   2.639  0.9154  0.5899  0.1852
  806MOL0     H 6388  11.097   7.451   2.408  1.9190 -2.4993 -0.8557
  806MOL0     H 6389  11.196   7.492   2.547 -1.1436  0.9379  0.6297
  806MOL0     H 6390  11.333   7.097   2.522  2.5283  1.0241 -1.3571
  806MOL0     H 6391  10.511   7.124   2.490  1.2469 -1.0691  0.9531
  806MOL0     H 6392  10.356   6.972   2.601 -0.3668  0.2640  0.5892
  807MOL0     O 6393   7.496   5.295   9.890 -0.1338 -0.2718 -0.1569
  807MOL0     C 6394   7.425   5.328   9.793 -0.4547  0.2181  0.3582
  807MOL0     O 6395   7.470   5.355   9.670  0.0923  0.7113 -0.1777
  807MOL0     C 6396   7.608   5.362   9.656 -0.6077 -0.2589  0.7522
  807MOL0     C 6397   7.678   5.461   9.721 -0.2772  0.5874 -0.9968
  807MOL0     C 6398   7.818   5.479   9.713 -0.5706 -0.1819 -0.0836
  807MOL0     C 6399   7.889   5.388   9.645 -0.4281 -1.3946 -0.1118
  807MOL0     O 6400   8.020   5.406   9.653  0.6630  0.0933 -0.1986
  807MOL0     C 6401   8.110   5.291   9.664 -0.2160 -0.5023  0.5387
  807MOL0     C 6402   8.189   5.307   9.804 -0.3304 -0.4050  0.7883
  807MOL0     C 6403   8.119   5.229   9.921  0.2915 -0.2448  0.6096
  807MOL0     C 6404   7.975   5.281   9.963 -0.3386 -0.3170  0.1585
  807MOL0     C 6405   7.925   5.213  10.085 -0.6758 -0.3777  0.6836
  807MOL0     C 6406   7.802   5.285  10.160  0.6000  1.2437  0.1985
  807MOL0     C 6407   7.790   5.216  10.298  0.3677  0.3330  0.6103
  807MOL0     C 6408   7.652   5.258  10.362 -0.6671 -0.4190 -0.5359
  807MOL0     N 6409   7.549   5.158  10.352 -0.6086  0.5623 -0.0561
  807MOL0     C 6410   7.484   5.118  10.241  0.1093  0.7978 -0.4440
  807MOL0     C 6411   7.398   5.016  10.283 -2.1098 -0.1716 -0.2602
  807MOL0     C 6412   7.298   4.937  10.204  0.2728  0.2167  0.2683
  807MOL0     C 6413   7.161   4.970  10.232  0.2097 -0.5576  0.1814
  807MOL0     C 6414   7.109   4.929  10.364  0.1113 -0.3997  0.1504
  807MOL0     C 6415   6.956   4.919  10.357  0.3208 -0.3234  1.2285
  807MOL0     O 6416   6.915   5.054  10.387  0.4030 -0.1616  0.4117
  807MOL0     C 6417   6.780   5.083  10.382  0.3974  0.6416  0.6606
  807MOL0     C 6418   6.745   5.222  10.383  0.2144 -0.4199  0.3714
  807MOL0     C 6419   6.610   5.257  10.373  0.8152  0.0568  0.1421
  807MOL0     C 6420   6.502   5.165  10.378  0.5049 -1.1650  0.6567
  807MOL0     C 6421   6.362   5.209  10.344  0.6817 -0.7976 -0.1559
  807MOL0     O 6422   6.273   5.111  10.301  0.6998 -0.5096 -0.7600
  807MOL0     C 6423   6.136   5.143  10.318  0.0522 -0.6882  0.4783
  807MOL0     C 6424   6.071   5.242  10.231 -0.0697 -0.1834 -1.1343
  807MOL0     C 6425   5.939   5.276  10.254  0.4583 -0.8687 -1.1465
  807MOL0     C 6426   5.868   5.211  10.360  0.3432 -0.5627 -0.5567
  807MOL0     O 6427   5.739   5.261  10.383 -0.0184 -0.1058  0.0653
  807MOL0     C 6428   5.650   5.183  10.453  0.4979 -0.4051  0.1234
  807MOL0     C 6429   5.505   5.217  10.423 -1.2869 -0.6942  0.1174
  807MOL0     C 6430   5.403   5.122  10.487 -0.9473  0.0155  0.2264
  807MOL0     C 6431   5.261   5.181  10.494  0.7371 -0.1238 -1.3721
  807MOL0     C 6432   5.162   5.078  10.560  0.5525  0.6432 -0.7432
  807MOL0     C 6433   5.186   5.072  10.715  0.5684  0.7216  0.3353
  807MOL0     C 6434   5.060   5.024  10.794 -0.8081 -0.4929 -0.3022
  807MOL0     C 6435   5.009   4.891  10.745 -0.6046  0.4412 -0.3881
  807MOL0    Cl 6436   4.888   4.822  10.858  0.3000 -0.0736  0.1865
  807MOL0     C 6437   5.932   5.109  10.435  0.2169  0.4810 -0.2019
  807MOL0     C 6438   6.065   5.076  10.413 -0.6178  0.7825 -0.2059
  807MOL0     O 6439   6.341   5.330  10.340 -0.0018  0.8365  0.1053
  807MOL0     C 6440   6.535   5.031  10.387  0.1070 -1.0119 -0.6783
  807MOL0     C 6441   6.668   4.983  10.389  0.6446  0.3201  0.0999
  807MOL0     N 6442   7.410   5.005  10.422 -0.3144  0.0411  0.1350
  807MOL0     N 6443   7.504   5.086  10.461  0.5585  0.1870  0.1121
  807MOL0     C 6444   7.826   5.286   9.571  0.3127  0.7796 -0.9041
  807MOL0     C 6445   7.689   5.276   9.582 -0.1288  0.7028 -0.1626
  807MOL0     C 6446   7.278   5.344   9.825 -0.2043 -0.6887  0.3040
  807MOL0     C 6447   7.231   5.287   9.950 -0.1132 -0.1669  0.6794
  807MOL0     C 6448   7.089   5.291   9.979 -0.1997  0.2735  0.5865
  807MOL0     C 6449   7.005   5.368   9.899  0.0358 -0.2906 -0.1298
  807MOL0     O 6450   6.876   5.401   9.918 -0.4368  0.4483  0.9805
  807MOL0     C 6451   6.791   5.335  10.013  0.4559  0.5002 -0.2004
  807MOL0     C 6452   6.657   5.397  10.015  0.9815  0.0442  0.0594
  807MOL0     C 6453   6.585   5.400   9.886  0.1658  0.1457  0.5266
  807MOL0     C 6454   6.545   5.265   9.830  0.6606  0.8648 -0.4337
  807MOL0     C 6455   6.425   5.206   9.892  0.1325  0.7181 -0.7702
  807MOL0     C 6456   6.329   5.136   9.949  0.5364 -0.0408  1.1570
  807MOL0     C 6457   7.059   5.426   9.784 -0.0664 -0.2091 -0.2576
  807MOL0     C 6458   7.189   5.413   9.748 -0.1271  0.3081 -0.6973
  807MOL0     H 6459   7.618   5.536   9.772  0.4043 -0.3485  1.3362
  807MOL0     H 6460   7.852   5.557   9.780  2.5238 -0.7954 -0.8082
  807MOL0     H 6461   8.178   5.299   9.578 -0.4647  5.0802  0.4963
  807MOL0     H 6462   8.058   5.195   9.663 -5.0560  1.7293  2.9500
  807MOL0     H 6463   8.223   5.408   9.830  2.9216 -0.6885 -1.6670
  807MOL0     H 6464   8.285   5.260   9.783  0.7213  0.8878  2.3746
  807MOL0     H 6465   8.182   5.231  10.010  0.1570  1.8891  0.7134
  807MOL0     H 6466   8.108   5.124   9.894  1.4632  0.3665 -2.7602
  807MOL0     H 6467   7.981   5.387   9.988 -3.5376 -0.2819  1.2105
  807MOL0     H 6468   7.905   5.285   9.879  0.3488  0.0685 -0.4121
  807MOL0     H 6469   8.010   5.204  10.153  0.0212 -0.3086 -0.1675
  807MOL0     H 6470   7.890   5.115  10.050  0.4521  0.3119 -2.7692
  807MOL0     H 6471   7.706   5.280  10.108 -1.2942  2.2305  3.3163
  807MOL0     H 6472   7.826   5.392  10.166  0.9348  1.5003 -3.5280
  807MOL0     H 6473   7.799   5.107  10.291 -0.7275  0.2693 -0.3302
  807MOL0     H 6474   7.874   5.247  10.359  0.6688  1.4855 -0.3561
  807MOL0     H 6475   7.620   5.348  10.309  3.0128  0.1495 -2.0483
  807MOL0     H 6476   7.664   5.284  10.468 -2.0234 -1.1871 -0.1637
  807MOL0     H 6477   7.490   5.148  10.137 -1.3156  0.5452 -0.6263
  807MOL0     H 6478   7.315   4.829  10.216 -1.4433  0.0838  1.9355
  807MOL0     H 6479   7.310   4.965  10.099  2.6679 -0.8084  0.1984
  807MOL0     H 6480   7.099   4.933  10.151 -1.0260  1.3608  0.1925
  807MOL0     H 6481   7.149   5.079  10.238 -2.3368 -0.7628 -0.3217
  807MOL0     H 6482   7.149   4.831  10.391 -4.5080 -2.0581  2.1134
  807MOL0     H 6483   7.145   4.992  10.446 -0.7258 -1.6674  1.5386
  807MOL0     H 6484   6.928   4.857  10.443  2.2241 -1.2807  1.2139
  807MOL0     H 6485   6.920   4.873  10.264 -1.9960 -3.5249  3.4927
  807MOL0     H 6486   6.813   5.305  10.371 -1.0317  0.4787 -0.8214
  807MOL0     H 6487   6.579   5.361  10.379 -1.7476 -0.6629  0.6302
  807MOL0     H 6488   6.136   5.283  10.154  2.2409  0.2781  0.9404
  807MOL0     H 6489   5.887   5.351  10.195  0.9404 -0.8555 -1.5593
  807MOL0     H 6490   5.677   5.193  10.558 -0.6458  1.7861  0.2801
  807MOL0     H 6491   5.653   5.079  10.422  2.7775 -0.2256 -0.4426
  807MOL0     H 6492   5.491   5.233  10.315 -2.1510  1.8139  0.5298
  807MOL0     H 6493   5.497   5.315  10.471 -1.2074 -0.2967 -0.6581
  807MOL0     H 6494   5.443   5.099  10.586 -1.8744 -1.4323  0.2907
  807MOL0     H 6495   5.398   5.027  10.433  0.4935  0.4440 -0.7236
  807MOL0     H 6496   5.247   5.276  10.547 -2.9964 -1.6010  0.6540
  807MOL0     H 6497   5.245   5.211  10.390 -0.1908  0.0159 -1.1923
  807MOL0     H 6498   5.156   4.975  10.522  0.6475  1.0135 -1.8069
  807MOL0     H 6499   5.066   5.126  10.538  1.7224  4.1437  0.9481
  807MOL0     H 6500   5.221   5.161  10.767  2.5889  0.0939  0.1374
  807MOL0     H 6501   5.264   4.997  10.727  0.9441  1.0191 -0.2315
  807MOL0     H 6502   5.093   5.010  10.897  2.4430 -0.1994 -1.1903
  807MOL0     H 6503   4.985   5.104  10.792  1.1659  1.4691 -0.2000
  807MOL0     H 6504   5.090   4.818  10.733  0.9768  2.2782 -1.3059
  807MOL0     H 6505   4.951   4.900  10.653 -0.7274  2.2558 -0.1611
  807MOL0     H 6506   5.876   5.076  10.522 -1.2700  1.5666 -0.7112
  807MOL0     H 6507   6.105   5.001  10.481 -1.7869 -0.3612 -0.7441
  807MOL0     H 6508   6.459   4.955  10.401  0.1623 -0.7661  1.3820
  807MOL0     H 6509   6.694   4.880  10.412 -1.9307 -0.3131  0.4287
  807MOL0     H 6510   7.880   5.214   9.510  0.3019  0.1514 -0.1816
  807MOL0     H 6511   7.648   5.188   9.533 -4.2908  1.5184  1.4244
  807MOL0     H 6512   7.299   5.244  10.022  2.1674  2.0042 -0.0431
  807MOL0     H 6513   7.066   5.260  10.081 -0.1674  1.2186  0.8973
  807MOL0     H 6514   6.833   5.344  10.114 -1.0887  0.6943  0.4544
  807MOL0     H 6515   6.777   5.228   9.990 -3.8786  0.7638  0.3968
  807MOL0     H 6516   6.585   5.363  10.089 -0.4860  1.3318 -0.7060
  807MOL0     H 6517   6.680   5.495  10.058  2.1983 -0.5632  0.8571
  807MOL0     H 6518   6.633   5.448   9.800 -2.1866  0.1525 -0.8792
  807MOL0     H 6519   6.493   5.458   9.900 -1.3395 -1.5346 -1.7009
  807MOL0     H 6520   6.529   5.286   9.724 -1.1603 -1.9544 -0.8170
  807MOL0     H 6521   6.622   5.188   9.838 -0.3352 -0.1805 -0.7018
  807MOL0     H 6522   6.244   5.092   9.997  1.0621 -0.7173  1.4881
  807MOL0     H 6523   7.001   5.499   9.730  0.6555  0.4846 -0.1255
  807MOL0     H 6524   7.225   5.465   9.659  2.9193  0.8017  0.6979
  808MOL0     O 6525   2.144   2.080   7.613  0.6150 -0.1256 -0.0004
  808MOL0     C 6526   2.208   2.124   7.518 -0.5894  0.4327  0.3735
  808MOL0     O 6527   2.162   2.167   7.399 -1.3598  0.0623  0.1287
  808MOL0     C 6528   2.031   2.168   7.362  0.2326 -0.0711 -0.9055
  808MOL0     C 6529   1.926   2.195   7.449 -0.0121 -0.9081  0.5363
  808MOL0     C 6530   1.791   2.177   7.415 -0.3358 -0.0473 -0.4892
  808MOL0     C 6531   1.763   2.137   7.283 -0.2399 -0.5891 -0.2886
  808MOL0     O 6532   1.641   2.127   7.221  0.2188 -0.1760  0.3796
  808MOL0     C 6533   1.513   2.147   7.281  0.4551  1.0199 -0.2917
  808MOL0     C 6534   1.466   2.292   7.240  0.7377  1.3650  0.7638
  808MOL0     C 6535   1.319   2.297   7.267  0.0662 -0.0318 -0.3976
  808MOL0     C 6536   1.274   2.278   7.411 -0.6342  0.2435 -0.3822
  808MOL0     C 6537   1.204   2.144   7.442  0.1432  0.0873 -0.1998
  808MOL0     C 6538   1.132   2.140   7.579 -0.0888  0.6991 -0.0353
  808MOL0     C 6539   1.084   2.004   7.627  0.1313  0.0379  0.0953
  808MOL0     C 6540   0.959   1.956   7.559  0.6741  0.3822  0.5972
  808MOL0     N 6541   0.847   2.040   7.592  0.0989 -0.3429  0.8375
  808MOL0     C 6542   0.766   2.011   7.697  0.1640 -0.1879  0.0503
  808MOL0     C 6543   0.668   2.108   7.677 -0.1684  0.1456 -0.4194
  808MOL0     C 6544   0.554   2.126   7.766  1.0463  0.5715  0.3833
  808MOL0     C 6545   0.586   2.161   7.913  0.0241  0.8759  0.2706
  808MOL0     C 6546   0.449   2.189   7.982 -0.2298 -0.1092  0.2488
  808MOL0     C 6547   0.471   2.227   8.131  0.3870  0.2565  0.0019
  808MOL0     O 6548   0.364   2.195   8.212  0.2848  0.3812  0.1145
  808MOL0     C 6549   0.248   2.264   8.173  0.1416  0.0910 -0.4768
  808MOL0     C 6550   0.237   2.400   8.140 -0.8390  0.7927 -0.4622
  808MOL0     C 6551   0.115   2.470   8.113 -0.2504 -0.2131  0.2282
  808MOL0     C 6552  -0.003   2.389   8.112  0.3339 -0.0136  0.4101
  808MOL0     C 6553  -0.140   2.448   8.119 -0.4603 -0.2396  0.5768
  808MOL0     O 6554  -0.249   2.373   8.083  0.0803 -0.3349 -1.4054
  808MOL0     C 6555  -0.367   2.422   8.122  0.9482  0.8632 -0.4087
  808MOL0     C 6556  -0.406   2.500   8.226 -0.8157  0.0832 -0.5326
  808MOL0     C 6557  -0.539   2.547   8.234  0.2832  0.3589 -1.6928
  808MOL0     C 6558  -0.638   2.494   8.143 -0.4332  0.3550  0.1582
  808MOL0     O 6559  -0.759   2.534   8.129 -0.3724  0.0855  0.4045
  808MOL0     C 6560  -0.830   2.586   8.248 -0.6347 -0.5904  0.0612
  808MOL0     C 6561  -0.958   2.643   8.208 -0.2007 -0.7042  0.5215
  808MOL0     C 6562  -1.057   2.658   8.315 -0.0461 -0.1006 -0.4914
  808MOL0     C 6563  -1.161   2.765   8.282  0.0050  0.9099  0.8913
  808MOL0     C 6564  -1.227   2.741   8.142  0.5494  0.9374 -0.7375
  808MOL0     C 6565  -1.374   2.800   8.141  0.0653 -0.2944 -0.1780
  808MOL0     C 6566  -1.447   2.760   8.018  0.8855  0.2278 -0.0325
  808MOL0     C 6567  -1.585   2.822   8.001 -0.2054  0.1939  0.5419
  808MOL0    Cl 6568  -1.687   2.745   8.116  0.5022  0.5819  0.1108
  808MOL0     C 6569  -0.595   2.415   8.046 -0.2169 -0.0359  0.2526
  808MOL0     C 6570  -0.462   2.378   8.036 -0.0646 -0.5372 -0.6941
  808MOL0     O 6571  -0.135   2.566   8.149  0.2911  0.4668  1.2781
  808MOL0     C 6572   0.008   2.249   8.126 -0.4919 -0.0781 -0.5543
  808MOL0     C 6573   0.128   2.186   8.157  0.2696  0.5858 -0.8233
  808MOL0     N 6574   0.695   2.197   7.580  0.2721 -1.2110  0.2873
  808MOL0     N 6575   0.799   2.152   7.526  0.1922  0.2630 -0.9727
  808MOL0     C 6576   1.872   2.114   7.197 -0.2605 -0.6296  0.0207
  808MOL0     C 6577   2.006   2.118   7.234  0.8390 -0.1308  0.1275
  808MOL0     C 6578   2.359   2.117   7.538 -0.0109  0.1477  0.0781
  808MOL0     C 6579   2.406   2.107   7.668 -0.5138 -0.5999  0.0228
  808MOL0     C 6580   2.547   2.102   7.687 -0.3505 -0.4758 -0.0520
  808MOL0     C 6581   2.639   2.130   7.580  0.9606  1.1914  0.2026
  808MOL0     O 6582   2.777   2.121   7.607  0.4404 -0.7247 -0.5263
  808MOL0     C 6583   2.860   2.110   7.493  0.2564  0.0184  0.4383
  808MOL0     C 6584   3.001   2.061   7.518 -0.3312  0.4211 -0.2866
  808MOL0     C 6585   2.998   1.916   7.565 -0.6759 -0.8457 -0.6232
  808MOL0     C 6586   3.142   1.872   7.566  0.0345 -0.1963 -0.2166
  808MOL0     C 6587   3.136   1.748   7.647  0.4701  0.0600  0.5309
  808MOL0     C 6588   3.125   1.653   7.722 -0.2432  0.3922 -0.3172
  808MOL0     C 6589   2.585   2.148   7.456  0.0054 -0.0935  0.1119
  808MOL0     C 6590   2.443   2.146   7.437 -0.4422 -0.1671 -0.7847
  808MOL0     H 6591   1.953   2.241   7.543  2.8464  0.4777 -0.8425
  808MOL0     H 6592   1.725   2.188   7.501  1.3126  1.2082  0.6830
  808MOL0     H 6593   1.513   2.141   7.390 -1.3328 -4.1012 -0.2860
  808MOL0     H 6594   1.437   2.077   7.243  0.9301  2.9376 -5.6569
  808MOL0     H 6595   1.483   2.321   7.136 -0.6156 -0.2537  0.0440
  808MOL0     H 6596   1.512   2.361   7.311 -5.0852  1.8436  4.8389
  808MOL0     H 6597   1.258   2.232   7.203 -0.9556  0.5595 -0.0556
  808MOL0     H 6598   1.292   2.397   7.233  1.5487 -0.1179 -1.9270
  808MOL0     H 6599   1.356   2.295   7.481 -1.9026 -1.0481  1.5044
  808MOL0     H 6600   1.201   2.356   7.434  0.2905  0.5194  1.9254
  808MOL0     H 6601   1.288   2.074   7.441 -0.5897 -0.8084 -0.2262
  808MOL0     H 6602   1.133   2.110   7.366  0.1676 -1.5575  0.4682
  808MOL0     H 6603   1.048   2.209   7.571  1.7235  2.9929 -0.2751
  808MOL0     H 6604   1.206   2.189   7.643  2.1237 -0.1680 -1.7521
  808MOL0     H 6605   1.162   1.928   7.615  0.7947  0.3317  2.1019
  808MOL0     H 6606   1.064   2.012   7.734  0.7439  0.4268  0.1850
  808MOL0     H 6607   0.938   1.863   7.613 -0.6443 -0.5164 -1.3800
  808MOL0     H 6608   0.961   1.944   7.451 -1.5594 -2.3144  0.7420
  808MOL0     H 6609   0.765   1.932   7.771  1.0011  2.2828  2.9237
  808MOL0     H 6610   0.486   2.040   7.761 -0.6289  1.8970 -1.0680
  808MOL0     H 6611   0.493   2.206   7.723 -2.3289 -1.9601 -0.0166
  808MOL0     H 6612   0.648   2.251   7.925 -1.5647  1.8052  2.1191
  808MOL0     H 6613   0.628   2.069   7.953  0.0806  0.9753  0.4390
  808MOL0     H 6614   0.387   2.261   7.929 -2.4102 -0.6758  1.8961
  808MOL0     H 6615   0.388   2.098   7.972  0.2941 -0.2105 -3.9175
  808MOL0     H 6616   0.480   2.336   8.134  1.0724  0.2574 -1.3186
  808MOL0     H 6617   0.562   2.179   8.167  1.0118  0.5046 -1.2012
  808MOL0     H 6618   0.318   2.473   8.148 -0.9987  0.9365 -0.0962
  808MOL0     H 6619   0.110   2.575   8.087 -1.0891 -0.9375 -3.0811
  808MOL0     H 6620  -0.328   2.536   8.292 -0.1091  0.1176 -1.3735
  808MOL0     H 6621  -0.568   2.622   8.307  1.2312 -3.5256  3.1792
  808MOL0     H 6622  -0.778   2.667   8.300 -2.5268 -0.2320  1.4662
  808MOL0     H 6623  -0.847   2.499   8.313 -1.0756 -1.1147 -0.7272
  808MOL0     H 6624  -0.989   2.573   8.129  2.2581 -1.5383  0.2051
  808MOL0     H 6625  -0.942   2.743   8.168  0.6540 -0.4405  1.4928
  808MOL0     H 6626  -0.997   2.695   8.398  2.4125 -1.5526 -1.4854
  808MOL0     H 6627  -1.091   2.559   8.348 -0.5827  1.0809  2.8490
  808MOL0     H 6628  -1.238   2.777   8.359 -1.2930 -0.1395 -0.1915
  808MOL0     H 6629  -1.115   2.864   8.279 -0.4960  1.1339  0.2735
  808MOL0     H 6630  -1.235   2.636   8.113  0.0577  1.5151 -2.8479
  808MOL0     H 6631  -1.160   2.791   8.072  0.6101  1.2194 -0.4765
  808MOL0     H 6632  -1.364   2.909   8.142  0.8380 -0.2913 -2.4560
  808MOL0     H 6633  -1.441   2.760   8.218  1.8691 -0.9133  1.1263
  808MOL0     H 6634  -1.390   2.788   7.929  0.3462  2.4636  0.2586
  808MOL0     H 6635  -1.457   2.651   8.019  2.6529 -0.0466 -2.1954
  808MOL0     H 6636  -1.624   2.807   7.899  1.1736 -1.0012  0.1550
  808MOL0     H 6637  -1.579   2.931   8.014 -0.3082  0.0801  1.5863
  808MOL0     H 6638  -0.667   2.380   7.972  1.6352 -0.5230 -1.3838
  808MOL0     H 6639  -0.444   2.313   7.951 -1.6772  2.6133 -3.6931
  808MOL0     H 6640  -0.071   2.175   8.119  0.7438 -1.2986 -2.8734
  808MOL0     H 6641   0.126   2.078   8.170 -0.5571  0.3715 -2.5072
  808MOL0     H 6642   1.847   2.081   7.097 -0.3031 -0.5706  0.0122
  808MOL0     H 6643   2.094   2.111   7.171  2.1002  0.0163  1.7900
  808MOL0     H 6644   2.339   2.108   7.754 -2.7349 -1.3169 -1.6042
  808MOL0     H 6645   2.592   2.103   7.786 -1.0146  2.6670  0.3226
  808MOL0     H 6646   2.873   2.204   7.438  0.0697  0.2664  0.8152
  808MOL0     H 6647   2.803   2.047   7.424 -1.0755  1.0777  0.5342
  808MOL0     H 6648   3.061   2.076   7.428  2.6122  2.9939  1.8601
  808MOL0     H 6649   3.047   2.122   7.597 -1.5436 -1.0743  1.6687
  808MOL0     H 6650   2.944   1.846   7.501 -0.6804  0.0980 -1.6806
  808MOL0     H 6651   2.964   1.913   7.669  3.3288  1.1902  0.9552
  808MOL0     H 6652   3.187   1.857   7.468  3.0708  0.6580  0.9183
  808MOL0     H 6653   3.195   1.948   7.624  0.1925 -1.3931  1.2602
  808MOL0     H 6654   3.100   1.579   7.796 -1.5989  1.3922  0.2698
  808MOL0     H 6655   2.642   2.173   7.367 -2.1770 -0.6147 -1.5092
  808MOL0     H 6656   2.409   2.171   7.337  1.3531 -0.9059 -1.6259
  809MOL0     O 6657   7.003   6.722   8.500 -0.3053 -0.1890  0.2611
  809MOL0     C 6658   6.990   6.818   8.575 -0.2854 -0.0408  0.4806
  809MOL0     O 6659   7.089   6.892   8.627 -0.2802  0.0554 -0.2504
  809MOL0     C 6660   7.210   6.878   8.568 -0.0108  0.6560 -1.1567
  809MOL0     C 6661   7.252   6.935   8.452 -0.6361 -0.0928  0.7652
  809MOL0     C 6662   7.390   6.936   8.410 -0.1131 -0.1282 -0.3387
  809MOL0     C 6663   7.481   6.871   8.490  0.1247 -1.8766 -0.1607
  809MOL0     O 6664   7.612   6.874   8.458  0.0058  0.4148 -0.0799
  809MOL0     C 6665   7.649   6.829   8.318  0.1199  0.4411  0.0201
  809MOL0     C 6666   7.794   6.784   8.306  0.7134  0.8030  0.0045
  809MOL0     C 6667   7.831   6.633   8.339  0.3281 -0.4502  0.6989
  809MOL0     C 6668   7.781   6.591   8.480  0.6488 -0.7762  0.4525
  809MOL0     C 6669   7.783   6.443   8.496  0.6029  0.5945 -0.1187
  809MOL0     C 6670   7.730   6.413   8.643 -0.0674 -1.2430  0.5023
  809MOL0     C 6671   7.743   6.262   8.674  0.2038 -0.2502 -0.1535
  809MOL0     C 6672   7.643   6.171   8.594  0.1370 -0.1114  0.3504
  809MOL0     N 6673   7.512   6.187   8.648  1.2965 -0.0910 -0.1224
  809MOL0     C 6674   7.429   6.286   8.603 -0.3878 -0.0135 -0.9947
  809MOL0     C 6675   7.333   6.301   8.700 -0.0982  0.5843  0.4493
  809MOL0     C 6676   7.235   6.409   8.697  0.6589 -0.1778  0.1898
  809MOL0     C 6677   7.142   6.399   8.576 -0.9030  0.2866 -0.2850
  809MOL0     C 6678   7.064   6.263   8.560 -0.4676 -0.3093  0.8627
  809MOL0     C 6679   6.972   6.220   8.679  0.4358  0.8226  0.3196
  809MOL0     O 6680   6.869   6.320   8.693  0.3816  0.0662 -0.7626
  809MOL0     C 6681   6.757   6.262   8.750 -0.0468 -0.0616  0.0374
  809MOL0     C 6682   6.754   6.149   8.827 -0.5955  0.5194 -0.2340
  809MOL0     C 6683   6.632   6.089   8.863  0.7656 -0.7297 -0.7355
  809MOL0     C 6684   6.509   6.154   8.833 -0.2137  0.3032  0.5765
  809MOL0     C 6685   6.376   6.102   8.876 -0.1066 -0.4586  0.4827
  809MOL0     O 6686   6.366   5.973   8.916 -0.0361  0.1691  0.0173
  809MOL0     C 6687   6.250   5.916   8.956 -1.2009  0.0123  0.0952
  809MOL0     C 6688   6.117   5.957   8.948 -0.0670 -0.3437  0.4367
  809MOL0     C 6689   6.014   5.888   9.007  0.1439  0.5932 -0.9735
  809MOL0     C 6690   6.037   5.765   9.065 -0.2144  0.0183  0.4223
  809MOL0     O 6691   5.938   5.694   9.133 -0.0573  0.2096  0.0063
  809MOL0     C 6692   5.815   5.679   9.058  0.6536  0.7179 -0.2454
  809MOL0     C 6693   5.757   5.543   9.086  0.2268 -0.1522 -1.0557
  809MOL0     C 6694   5.721   5.523   9.237  0.3001 -0.0427  0.8083
  809MOL0     C 6695   5.598   5.601   9.276 -0.8027 -0.2912  0.1265
  809MOL0     C 6696   5.574   5.602   9.435  0.0623 -0.4384  0.0797
  809MOL0     C 6697   5.542   5.468   9.494 -0.0024 -0.1246  0.5227
  809MOL0     C 6698   5.405   5.403   9.462 -0.9982  0.0046 -0.3611
  809MOL0     C 6699   5.335   5.378   9.589 -0.0052  0.3057 -0.1359
  809MOL0    Cl 6700   5.191   5.277   9.548  0.0785  0.1854 -0.2029
  809MOL0     C 6701   6.170   5.719   9.077 -0.3461  0.1083 -0.0069
  809MOL0     C 6702   6.271   5.793   9.021  0.3825 -0.2113  0.0719
  809MOL0     O 6703   6.287   6.187   8.895  0.2783  0.5113 -0.1793
  809MOL0     C 6704   6.510   6.270   8.749  0.7654  0.5602  0.0370
  809MOL0     C 6705   6.638   6.320   8.703  0.5093  0.2938 -0.7649
  809MOL0     N 6706   7.356   6.201   8.790  0.1561 -0.0892  0.0667
  809MOL0     N 6707   7.466   6.136   8.760 -1.0460  0.5979 -0.1645
  809MOL0     C 6708   7.434   6.806   8.607  0.3957 -0.2595  0.1312
  809MOL0     C 6709   7.296   6.791   8.641  0.3747  0.4126 -0.3158
  809MOL0     C 6710   6.851   6.860   8.607 -0.1402  0.3343  0.2290
  809MOL0     C 6711   6.737   6.792   8.565  0.0517 -0.4749  0.1416
  809MOL0     C 6712   6.612   6.837   8.613 -0.5232 -0.7297  0.3252
  809MOL0     C 6713   6.592   6.943   8.704 -1.1869  0.1585 -0.4304
  809MOL0     O 6714   6.476   6.998   8.740  0.0596 -0.1052 -0.3588
  809MOL0     C 6715   6.402   7.058   8.633 -0.6077  0.0265 -0.1656
  809MOL0     C 6716   6.277   7.119   8.669 -0.4969 -1.0691  0.2860
  809MOL0     C 6717   6.171   7.014   8.699 -0.7649 -0.3521  0.1879
  809MOL0     C 6718   6.047   7.058   8.771 -0.1882 -0.0451  0.2059
  809MOL0     C 6719   5.989   7.172   8.718 -0.3812 -0.3504 -0.5098
  809MOL0     C 6720   5.929   7.268   8.661  0.3642  1.2351  0.4104
  809MOL0     C 6721   6.710   7.003   8.748  0.0428  0.0227 -0.1333
  809MOL0     C 6722   6.836   6.964   8.703  0.1968 -0.4523  0.0522
  809MOL0     H 6723   7.183   6.986   8.386  0.8080 -1.4207 -1.9436
  809MOL0     H 6724   7.408   6.993   8.319  2.1655 -1.1104 -0.5660
  809MOL0     H 6725   7.619   6.912   8.254  0.4580  1.0395  0.6156
  809MOL0     H 6726   7.577   6.752   8.289  1.5566 -0.8724 -0.2198
  809MOL0     H 6727   7.855   6.848   8.371 -0.1121 -0.1275  1.7540
  809MOL0     H 6728   7.829   6.800   8.203  1.9227 -2.7067 -0.2601
  809MOL0     H 6729   7.938   6.611   8.336 -0.2510 -3.6819 -0.3745
  809MOL0     H 6730   7.796   6.566   8.260  1.2545 -0.8842  0.6527
  809MOL0     H 6731   7.833   6.638   8.564 -0.3791 -0.3971  0.8918
  809MOL0     H 6732   7.681   6.634   8.490  1.2092  0.4652  0.9720
  809MOL0     H 6733   7.885   6.403   8.492  1.0222  1.7067 -1.4160
  809MOL0     H 6734   7.729   6.407   8.408  1.7729 -0.8856 -0.2785
  809MOL0     H 6735   7.626   6.446   8.644  1.0528  2.8866  1.8146
  809MOL0     H 6736   7.775   6.470   8.725 -3.5447  0.4555  1.4196
  809MOL0     H 6737   7.844   6.222   8.663  0.1556 -0.5751  0.5588
  809MOL0     H 6738   7.727   6.241   8.780  0.9929  1.4910  0.3565
  809MOL0     H 6739   7.673   6.069   8.620  0.4246 -0.5298 -1.5076
  809MOL0     H 6740   7.654   6.189   8.487 -0.3343 -2.5477 -0.1551
  809MOL0     H 6741   7.447   6.358   8.524 -2.1852 -0.6182 -2.0325
  809MOL0     H 6742   7.288   6.503   8.685  2.1528 -1.0940 -0.5904
  809MOL0     H 6743   7.175   6.419   8.789 -0.0832  0.3734 -0.3411
  809MOL0     H 6744   7.214   6.394   8.494  2.5567  0.6334  2.4965
  809MOL0     H 6745   7.070   6.482   8.571 -2.4896 -0.8898  1.6484
  809MOL0     H 6746   7.019   6.266   8.461  0.1384 -0.1382  0.5864
  809MOL0     H 6747   7.141   6.185   8.556  1.4391  1.3792  2.7748
  809MOL0     H 6748   7.032   6.222   8.771  1.2063 -1.7538 -0.0599
  809MOL0     H 6749   6.933   6.119   8.668 -2.8808  1.8263  1.7368
  809MOL0     H 6750   6.843   6.094   8.854 -0.2859  0.9503 -0.3646
  809MOL0     H 6751   6.638   6.001   8.925 -1.7007 -1.1972 -1.0698
  809MOL0     H 6752   6.094   6.056   8.912 -1.2368 -0.0352  1.9073
  809MOL0     H 6753   5.915   5.931   9.009  0.7335  2.0015 -1.4884
  809MOL0     H 6754   5.836   5.684   8.951  0.3684  0.1500 -0.3352
  809MOL0     H 6755   5.751   5.761   9.091 -1.2019  0.4002 -2.8105
  809MOL0     H 6756   5.830   5.468   9.052  0.1632 -1.6417  1.7563
  809MOL0     H 6757   5.665   5.529   9.029  0.1777  0.4178 -1.1184
  809MOL0     H 6758   5.811   5.549   9.293  0.4776  0.1682  0.4321
  809MOL0     H 6759   5.710   5.417   9.265 -0.1659  0.4080  2.4441
  809MOL0     H 6760   5.598   5.703   9.237  0.6802  0.5469  2.1490
  809MOL0     H 6761   5.510   5.559   9.227 -0.5871  0.6787 -1.1669
  809MOL0     H 6762   5.488   5.665   9.462  0.4151  0.9465 -1.8568
  809MOL0     H 6763   5.665   5.640   9.482  0.7259 -0.7241 -0.9424
  809MOL0     H 6764   5.547   5.476   9.603 -0.6349  1.9204  0.4451
  809MOL0     H 6765   5.614   5.393   9.461  0.3569  0.3284  0.2620
  809MOL0     H 6766   5.341   5.462   9.395 -1.7242  0.2116  0.5010
  809MOL0     H 6767   5.422   5.311   9.405  1.4836 -0.4958  1.0692
  809MOL0     H 6768   5.306   5.473   9.635  2.1683  2.0385 -2.0931
  809MOL0     H 6769   5.391   5.320   9.662 -1.5160  0.2654  1.0424
  809MOL0     H 6770   6.186   5.628   9.135  0.1791 -0.1775 -0.5956
  809MOL0     H 6771   6.377   5.767   9.028  0.1602 -1.2468 -0.1637
  809MOL0     H 6772   6.414   6.313   8.721  0.6782  1.0089  0.9678
  809MOL0     H 6773   6.657   6.406   8.640 -0.2331  0.6648 -0.4919
  809MOL0     H 6774   7.507   6.755   8.669  1.7047  0.3164 -0.8999
  809MOL0     H 6775   7.274   6.742   8.736  2.5535 -2.9432 -1.3741
  809MOL0     H 6776   6.756   6.709   8.498  1.5870  0.0860 -0.1621
  809MOL0     H 6777   6.535   6.771   8.573 -0.3154  0.9727 -3.2875
  809MOL0     H 6778   6.386   6.992   8.547 -1.1113 -0.6990  0.4809
  809MOL0     H 6779   6.470   7.132   8.589 -2.1089  2.2834  1.1034
  809MOL0     H 6780   6.293   7.183   8.756 -1.8744 -1.8938  1.1830
  809MOL0     H 6781   6.252   7.183   8.584  0.4197  0.6819  1.2913
  809MOL0     H 6782   6.216   6.944   8.770  2.6437  0.3154 -1.1290
  809MOL0     H 6783   6.134   6.975   8.603 -0.4948  0.7996 -0.4022
  809MOL0     H 6784   5.978   6.972   8.766  1.6680 -1.5667 -0.2759
  809MOL0     H 6785   6.056   7.079   8.878  1.2632 -1.2378  0.3408
  809MOL0     H 6786   5.869   7.338   8.607 -0.9624 -1.0438 -1.2279
  809MOL0     H 6787   6.704   7.087   8.816 -1.6029 -1.3109  1.4657
  809MOL0     H 6788   6.922   7.010   8.750 -0.2969  2.2061 -1.4087
  810MOL0     O 6789   3.756   9.602   7.953 -0.4824 -0.7423  0.1093
  810MOL0     C 6790   3.748   9.492   7.891  1.3609  0.1107 -0.1710
  810MOL0     O 6791   3.646   9.405   7.906 -0.5085  0.0569 -0.1790
  810MOL0     C 6792   3.575   9.397   8.025 -0.5680 -0.1448 -0.2355
  810MOL0     C 6793   3.636   9.340   8.136 -0.2669  0.0685 -0.4565
  810MOL0     C 6794   3.571   9.354   8.259  0.7843  0.1180 -0.6774
  810MOL0     C 6795   3.443   9.417   8.273 -1.0311  0.2009 -0.1777
  810MOL0     O 6796   3.385   9.439   8.399 -0.1675 -0.0217  0.0402
  810MOL0     C 6797   3.284   9.538   8.410 -0.4598 -0.8354 -0.2962
  810MOL0     C 6798   3.251   9.567   8.562 -0.2052  0.1078 -0.4332
  810MOL0     C 6799   3.153   9.465   8.632  0.2141 -0.8074 -0.0712
  810MOL0     C 6800   3.003   9.499   8.600  0.4082  0.1162 -0.3754
  810MOL0     C 6801   2.900   9.439   8.697 -0.1526  0.0367 -0.2156
  810MOL0     C 6802   2.757   9.466   8.654  0.0656  0.8748  0.3684
  810MOL0     C 6803   2.651   9.412   8.748 -0.2920  0.6823 -0.2361
  810MOL0     C 6804   2.513   9.458   8.703  0.5554 -0.8136 -0.3771
  810MOL0     N 6805   2.403   9.409   8.789 -0.1004 -0.9265  0.2443
  810MOL0     C 6806   2.275   9.387   8.751  0.6414 -0.2281  0.0210
  810MOL0     C 6807   2.208   9.360   8.867  0.8369 -1.0267 -0.2170
  810MOL0     C 6808   2.068   9.336   8.905  0.8622  0.4188  0.0264
  810MOL0     C 6809   2.020   9.191   8.887  0.0746 -0.9060  0.7377
  810MOL0     C 6810   2.103   9.096   8.981 -0.4659  0.3474  0.6331
  810MOL0     C 6811   2.047   8.957   8.963 -0.0892  0.0505 -0.7713
  810MOL0     O 6812   1.921   8.938   9.033  0.0474  0.3048  0.3493
  810MOL0     C 6813   1.812   8.878   8.972 -0.2072  0.2553  0.3642
  810MOL0     C 6814   1.709   8.834   9.051 -0.0036 -0.8698  0.0309
  810MOL0     C 6815   1.597   8.762   9.009 -0.2694 -0.4354  0.8323
  810MOL0     C 6816   1.578   8.741   8.873 -0.3053 -0.4749 -0.4384
  810MOL0     C 6817   1.453   8.687   8.817 -0.3552 -1.5204 -0.8117
  810MOL0     O 6818   1.341   8.707   8.896 -0.1230  0.9987 -0.3543
  810MOL0     C 6819   1.222   8.647   8.861 -0.1184 -0.4589  0.3925
  810MOL0     C 6820   1.134   8.625   8.965  0.1495  0.1261 -1.0002
  810MOL0     C 6821   0.998   8.584   8.949  0.3163  0.7353  0.3598
  810MOL0     C 6822   0.955   8.557   8.817  0.6606  0.2668 -0.0820
  810MOL0     O 6823   0.833   8.520   8.776 -0.1134  0.1700 -0.7380
  810MOL0     C 6824   0.776   8.413   8.852 -0.2227 -0.3613  0.5055
  810MOL0     C 6825   0.625   8.407   8.821 -0.3774 -0.1404  0.9387
  810MOL0     C 6826   0.532   8.522   8.851  0.2289 -0.3457 -0.5576
  810MOL0     C 6827   0.393   8.493   8.797 -0.8075  1.0926  0.4142
  810MOL0     C 6828   0.298   8.552   8.899  0.3186 -0.5132  0.0050
  810MOL0     C 6829   0.143   8.549   8.859 -0.5453  0.2330  0.4026
  810MOL0     C 6830   0.110   8.659   8.764 -0.5555 -0.8002  0.3510
  810MOL0     C 6831  -0.037   8.668   8.728  0.5176 -0.4368 -0.2386
  810MOL0    Cl 6832  -0.156   8.630   8.864  0.1183  0.2844 -0.4154
  810MOL0     C 6833   1.037   8.587   8.715  0.0441  0.7443  0.5212
  810MOL0     C 6834   1.167   8.630   8.736 -0.0685 -0.6203 -0.2129
  810MOL0     O 6835   1.462   8.629   8.709 -0.0219  0.2759  0.3032
  810MOL0     C 6836   1.687   8.776   8.788  0.1832 -1.2125 -0.4385
  810MOL0     C 6837   1.801   8.833   8.838 -1.1297 -0.9147 -0.6250
  810MOL0     N 6838   2.299   9.373   8.967 -0.2961 -0.1059 -0.3480
  810MOL0     N 6839   2.411   9.398   8.922 -0.3595 -0.1114 -0.1741
  810MOL0     C 6840   3.367   9.441   8.152  0.3145 -0.1479 -0.5159
  810MOL0     C 6841   3.436   9.436   8.027 -1.1902  0.4323  0.5925
  810MOL0     C 6842   3.851   9.474   7.780 -0.3066  0.0186 -0.5366
  810MOL0     C 6843   3.952   9.565   7.757 -0.8400 -0.1397  0.2945
  810MOL0     C 6844   4.055   9.535   7.657 -0.2126 -0.1922  0.2676
  810MOL0     C 6845   4.050   9.424   7.572  0.0066 -0.0368  0.1369
  810MOL0     O 6846   4.151   9.404   7.479 -0.1355 -0.1703 -0.9734
  810MOL0     C 6847   4.104   9.365   7.351 -0.4198  0.1318 -0.3809
  810MOL0     C 6848   4.178   9.229   7.311  0.1831  0.0050  0.1743
  810MOL0     C 6849   4.133   9.196   7.164  0.6242  0.0643  0.6529
  810MOL0     C 6850   4.198   9.065   7.117  1.0890 -0.2208 -0.9928
  810MOL0     C 6851   4.187   9.057   6.977 -0.8587  0.5040 -0.2632
  810MOL0     C 6852   4.187   9.057   6.856 -0.4665  0.0355  0.4344
  810MOL0     C 6853   3.935   9.342   7.586 -0.0304 -0.9356 -0.8854
  810MOL0     C 6854   3.843   9.366   7.691  1.1725  0.0494 -0.5332
  810MOL0     H 6855   3.739   9.307   8.134 -0.3507 -0.3418  1.0774
  810MOL0     H 6856   3.632   9.335   8.347  0.3904  3.3475  0.4422
  810MOL0     H 6857   3.195   9.515   8.351 -0.3756 -2.8063  0.2427
  810MOL0     H 6858   3.337   9.624   8.369 -0.9135  0.2662  1.3680
  810MOL0     H 6859   3.211   9.668   8.575  2.0400  1.1327 -0.8742
  810MOL0     H 6860   3.348   9.576   8.612  0.3076 -0.0281 -1.3795
  810MOL0     H 6861   3.170   9.469   8.740  1.0855  0.4290 -0.2354
  810MOL0     H 6862   3.173   9.364   8.592 -2.1303  0.2980 -4.7507
  810MOL0     H 6863   3.002   9.608   8.590  0.7686  0.0742 -0.9545
  810MOL0     H 6864   2.979   9.465   8.498  1.0062 -1.3224 -0.0666
  810MOL0     H 6865   2.924   9.482   8.795 -0.6432  0.6364 -0.3536
  810MOL0     H 6866   2.926   9.334   8.717  0.6489  0.4848  1.3098
  810MOL0     H 6867   2.752   9.423   8.554  0.2045  2.5593 -0.3974
  810MOL0     H 6868   2.729   9.569   8.631 -1.6511  0.8246  2.0047
  810MOL0     H 6869   2.647   9.303   8.748 -1.3281  0.6540  2.1954
  810MOL0     H 6870   2.677   9.439   8.851 -6.3857 -1.9321  2.4778
  810MOL0     H 6871   2.488   9.425   8.602  0.7120  1.2680 -1.1535
  810MOL0     H 6872   2.520   9.567   8.707  2.2620 -0.8903 -0.2318
  810MOL0     H 6873   2.228   9.391   8.653 -2.1584  2.3350  1.3108
  810MOL0     H 6874   2.005   9.402   8.844  1.8274  0.1581 -1.3080
  810MOL0     H 6875   2.054   9.368   9.008  2.2521 -4.1551  1.8581
  810MOL0     H 6876   2.029   9.157   8.784 -0.5400 -3.0473  1.3440
  810MOL0     H 6877   1.917   9.190   8.923  0.6646  0.6736  2.6553
  810MOL0     H 6878   2.213   9.098   8.974 -0.3221 -1.7887  1.5721
  810MOL0     H 6879   2.091   9.144   9.078 -0.0281  1.5556  0.1095
  810MOL0     H 6880   2.129   8.896   9.003  1.0071  1.9105 -0.0742
  810MOL0     H 6881   2.034   8.928   8.858 -0.2974 -0.6293 -0.5650
  810MOL0     H 6882   1.715   8.861   9.156 -1.1699  0.6266 -0.2559
  810MOL0     H 6883   1.512   8.743   9.074  1.2628  1.3761  3.5941
  810MOL0     H 6884   1.151   8.639   9.071 -2.8166 -0.8583 -0.3079
  810MOL0     H 6885   0.936   8.569   9.037 -2.3838 -0.0729 -1.5507
  810MOL0     H 6886   0.794   8.420   8.960  1.9626  0.4581  0.1549
  810MOL0     H 6887   0.830   8.325   8.816  0.7238 -0.3679  1.8518
  810MOL0     H 6888   0.583   8.322   8.876  2.8372 -2.0739  0.6326
  810MOL0     H 6889   0.613   8.371   8.719  2.4691 -1.2069  0.8842
  810MOL0     H 6890   0.570   8.613   8.803 -0.2387  0.6730  0.9420
  810MOL0     H 6891   0.540   8.547   8.957  1.3495  0.2454 -0.7706
  810MOL0     H 6892   0.369   8.535   8.699 -3.4791  1.2124  1.0326
  810MOL0     H 6893   0.377   8.386   8.781  2.5410  0.8324 -2.4350
  810MOL0     H 6894   0.320   8.659   8.913 -0.9548 -0.2044 -0.2755
  810MOL0     H 6895   0.305   8.480   8.982 -1.4684 -1.3131 -0.4926
  810MOL0     H 6896   0.072   8.557   8.942 -0.0221 -0.2196  0.8939
  810MOL0     H 6897   0.135   8.452   8.810  2.5981  0.5091 -0.9090
  810MOL0     H 6898   0.144   8.752   8.810 -0.2843 -0.5143 -0.4203
  810MOL0     H 6899   0.175   8.654   8.676 -1.3824 -1.8182 -0.2312
  810MOL0     H 6900  -0.060   8.591   8.654  0.8439  0.2783 -1.1060
  810MOL0     H 6901  -0.070   8.762   8.685  0.8515 -1.0327 -1.8649
  810MOL0     H 6902   1.006   8.576   8.612  0.7699 -0.8204  0.4329
  810MOL0     H 6903   1.230   8.648   8.649 -2.0130  3.4041 -1.0120
  810MOL0     H 6904   1.683   8.753   8.683 -1.9476  1.6185 -1.1161
  810MOL0     H 6905   1.870   8.866   8.761  1.2262  0.2180  1.8117
  810MOL0     H 6906   3.262   9.466   8.166  0.4365 -0.7322  1.8944
  810MOL0     H 6907   3.383   9.450   7.933 -0.8238  2.1395  0.6063
  810MOL0     H 6908   3.963   9.653   7.820 -0.8507 -0.3836  0.6410
  810MOL0     H 6909   4.133   9.609   7.644  0.3905 -1.2073 -2.7973
  810MOL0     H 6910   4.135   9.437   7.274 -0.6095  0.4773 -0.1364
  810MOL0     H 6911   3.997   9.346   7.340  0.3234 -4.5612 -1.8398
  810MOL0     H 6912   4.286   9.237   7.322  0.1452 -0.9015  1.4223
  810MOL0     H 6913   4.152   9.145   7.376  2.1230  0.7206  1.9761
  810MOL0     H 6914   4.165   9.279   7.101 -2.4224  0.3683 -0.6462
  810MOL0     H 6915   4.026   9.189   7.146  1.1773 -1.9199 -2.8331
  810MOL0     H 6916   4.303   9.081   7.144  0.2847  4.2243  0.3970
  810MOL0     H 6917   4.157   8.969   7.150  0.6755  0.3788  0.3104
  810MOL0     H 6918   4.198   9.066   6.750  1.8408 -1.2047  0.5262
  810MOL0     H 6919   3.916   9.252   7.527 -1.2801 -0.9769 -0.4352
  810MOL0     H 6920   3.769   9.290   7.713  0.3063  0.9532 -0.2192
  811MOL0     O 6921   8.809   0.760   5.647  0.3356  0.5011 -0.2425
  811MOL0     C 6922   8.782   0.670   5.732 -0.0767  0.4244  1.3618
  811MOL0     O 6923   8.687   0.581   5.721  0.6326 -0.1039 -0.3780
  811MOL0     C 6924   8.608   0.558   5.604  0.7181 -0.1996 -0.4078
  811MOL0     C 6925   8.473   0.515   5.596 -1.3095  0.7143  0.3478
  811MOL0     C 6926   8.400   0.496   5.480  0.0227 -0.0509 -0.2378
  811MOL0     C 6927   8.469   0.518   5.350  1.4362 -0.6654 -0.4368
  811MOL0     O 6928   8.386   0.502   5.238  0.5598  0.1113  0.2453
  811MOL0     C 6929   8.432   0.547   5.109 -0.2051  0.4491 -0.9533
  811MOL0     C 6930   8.307   0.562   5.011 -0.9955  0.7224 -0.2238
  811MOL0     C 6931   8.365   0.578   4.868 -0.4710 -0.6524 -0.0063
  811MOL0     C 6932   8.268   0.634   4.763  1.0428 -0.1288  0.3595
  811MOL0     C 6933   8.174   0.515   4.721  0.8620 -0.7445 -0.0632
  811MOL0     C 6934   8.121   0.539   4.583 -0.1160 -0.1237  0.2978
  811MOL0     C 6935   8.054   0.682   4.567 -0.0848 -0.0772  0.7478
  811MOL0     C 6936   7.937   0.704   4.659 -0.3523  0.1567 -0.8078
  811MOL0     N 6937   7.823   0.638   4.607  0.8894 -0.6394 -0.3433
  811MOL0     C 6938   7.747   0.534   4.660 -0.2825 -0.2065  0.7597
  811MOL0     C 6939   7.632   0.540   4.608  0.0846 -0.8570 -0.2739
  811MOL0     C 6940   7.514   0.461   4.666  1.1046  0.2630  0.8496
  811MOL0     C 6941   7.397   0.450   4.569 -0.2852 -0.3539 -0.0940
  811MOL0     C 6942   7.436   0.390   4.431 -0.1765  0.2295 -0.1773
  811MOL0     C 6943   7.318   0.371   4.335 -0.0884  1.6639 -0.3886
  811MOL0     O 6944   7.251   0.258   4.398 -0.7567 -0.5364 -0.0736
  811MOL0     C 6945   7.155   0.211   4.323 -0.3084 -0.9670 -0.1776
  811MOL0     C 6946   7.046   0.284   4.286  0.1900 -0.2527 -0.1261
  811MOL0     C 6947   6.957   0.241   4.195  2.0420 -0.2601  0.4320
  811MOL0     C 6948   6.969   0.113   4.141 -0.2358  0.0174  0.3514
  811MOL0     C 6949   6.860   0.059   4.054 -0.1027  0.3515  0.0014
  811MOL0     O 6950   6.764   0.155   4.004 -0.0962  0.6740  0.6517
  811MOL0     C 6951   6.648   0.112   3.948 -0.3934  0.6071 -0.0719
  811MOL0     C 6952   6.583  -0.012   3.980  0.0880 -0.7664  0.4671
  811MOL0     C 6953   6.459  -0.052   3.932 -0.5220  0.0651 -0.1438
  811MOL0     C 6954   6.378   0.037   3.859 -0.7816  0.3383 -0.1712
  811MOL0     O 6955   6.252  -0.002   3.815  0.3479 -0.4098 -0.1025
  811MOL0     C 6956   6.208   0.059   3.698  0.0590 -0.4469  0.9787
  811MOL0     C 6957   6.074   0.024   3.650  0.7579  0.2190 -1.0935
  811MOL0     C 6958   5.968   0.077   3.754  0.1427  0.1056 -0.5937
  811MOL0     C 6959   5.824   0.085   3.697  0.6270 -0.8684  0.1279
  811MOL0     C 6960   5.738   0.148   3.806 -0.1181 -0.7649 -0.3549
  811MOL0     C 6961   5.589   0.133   3.778  0.4247 -0.1259 -0.2952
  811MOL0     C 6962   5.544   0.153   3.634 -0.3108 -0.4668  0.1215
  811MOL0     C 6963   5.396   0.161   3.627 -0.2905  0.9086 -0.7403
  811MOL0    Cl 6964   5.326   0.001   3.658 -0.1856 -0.4811 -0.0235
  811MOL0     C 6965   6.437   0.158   3.830 -0.0192 -0.4565 -0.0681
  811MOL0     C 6966   6.566   0.197   3.873 -1.0669  0.0508 -0.2545
  811MOL0     O 6967   6.862  -0.060   4.025  0.7998  0.1210 -0.6079
  811MOL0     C 6968   7.081   0.035   4.186 -0.3086  0.4441 -0.2631
  811MOL0     C 6969   7.172   0.081   4.275 -0.7277  0.4645 -0.0572
  811MOL0     N 6970   7.639   0.640   4.511 -0.0199  0.7853 -0.1637
  811MOL0     N 6971   7.751   0.710   4.510  0.5785  0.6838 -0.3093
  811MOL0     C 6972   8.605   0.550   5.354  0.4063 -0.4844  0.7023
  811MOL0     C 6973   8.671   0.571   5.478 -0.1047  0.1037  0.7724
  811MOL0     C 6974   8.862   0.661   5.851  0.5503  0.7956  0.6322
  811MOL0     C 6975   8.981   0.735   5.869  0.2076 -0.1252 -0.2829
  811MOL0     C 6976   9.053   0.727   5.984 -0.7005 -0.4690 -0.5768
  811MOL0     C 6977   9.009   0.652   6.089  0.3148 -0.7253  0.1935
  811MOL0     O 6978   9.066   0.638   6.213  0.1549 -0.5569 -0.1923
  811MOL0     C 6979   9.187   0.704   6.249  0.7882 -0.0287 -0.3685
  811MOL0     C 6980   9.169   0.848   6.273  1.0636 -0.4341 -0.3396
  811MOL0     C 6981   9.066   0.894   6.369  0.2185 -0.2624  0.3450
  811MOL0     C 6982   9.114   0.905   6.507 -0.0893 -0.1693 -0.6688
  811MOL0     C 6983   9.191   1.038   6.521  0.2473  0.5176 -0.9407
  811MOL0     C 6984   9.232   1.147   6.551  0.7073 -0.2906  1.4799
  811MOL0     C 6985   8.897   0.574   6.071  0.5263  0.8149 -0.8497
  811MOL0     C 6986   8.820   0.577   5.957  0.5314 -1.4031  0.5054
  811MOL0     H 6987   8.405   0.495   5.679  0.6744 -0.6683  1.7081
  811MOL0     H 6988   8.295   0.468   5.480 -0.4223  1.3702 -2.3034
  811MOL0     H 6989   8.506   0.472   5.080  0.3191  1.2773 -1.7833
  811MOL0     H 6990   8.487   0.641   5.114 -1.7406  1.3320  0.6235
  811MOL0     H 6991   8.238   0.644   5.030  0.4767  3.2699 -4.3042
  811MOL0     H 6992   8.258   0.465   5.028  2.4439 -0.9443  1.2410
  811MOL0     H 6993   8.417   0.490   4.830  1.9158 -0.1378  1.8081
  811MOL0     H 6994   8.443   0.653   4.886 -2.0807  0.7277  1.6062
  811MOL0     H 6995   8.207   0.712   4.808 -1.6671 -1.1722 -1.2834
  811MOL0     H 6996   8.328   0.667   4.678  0.8850  0.7141  0.5709
  811MOL0     H 6997   8.092   0.494   4.789  0.9335 -3.5833 -0.7261
  811MOL0     H 6998   8.235   0.425   4.710  0.8241 -0.6246 -1.5086
  811MOL0     H 6999   8.044   0.464   4.561 -2.1546  1.3883  1.9199
  811MOL0     H 7000   8.204   0.527   4.512  0.3893 -3.8024  1.2980
  811MOL0     H 7001   8.115   0.771   4.586 -1.1594  0.6599  0.8503
  811MOL0     H 7002   8.025   0.683   4.462  3.5938 -0.0516 -0.3989
  811MOL0     H 7003   7.915   0.810   4.670 -1.5481  0.0745 -2.0602
  811MOL0     H 7004   7.948   0.678   4.764  0.1273  1.6192 -0.4721
  811MOL0     H 7005   7.785   0.473   4.742  1.2743  2.4601  2.1741
  811MOL0     H 7006   7.482   0.507   4.760 -0.9237  0.8136 -0.0429
  811MOL0     H 7007   7.556   0.363   4.691 -0.3961 -0.4361  0.7455
  811MOL0     H 7008   7.352   0.550   4.569  3.8006  1.7724  2.6387
  811MOL0     H 7009   7.326   0.384   4.620 -0.1320 -2.3840 -2.3223
  811MOL0     H 7010   7.519   0.446   4.387  1.2419 -2.4814 -1.1363
  811MOL0     H 7011   7.468   0.289   4.455  0.7104  0.3299 -0.9096
  811MOL0     H 7012   7.360   0.353   4.236 -2.6317 -1.0485 -1.1063
  811MOL0     H 7013   7.253   0.459   4.344 -3.6575 -0.9159  1.5943
  811MOL0     H 7014   7.042   0.384   4.327  1.5475 -0.4532  0.5312
  811MOL0     H 7015   6.869   0.302   4.179  1.9585 -0.1437  1.2719
  811MOL0     H 7016   6.630  -0.082   4.048 -0.0496 -0.9999  0.3248
  811MOL0     H 7017   6.413  -0.150   3.947 -0.2486 -0.3488 -1.8029
  811MOL0     H 7018   6.273   0.042   3.612 -1.8867  1.4892 -1.0238
  811MOL0     H 7019   6.206   0.166   3.721 -1.8627 -0.3535  0.5078
  811MOL0     H 7020   6.068  -0.084   3.638 -0.6307 -0.0185  1.1109
  811MOL0     H 7021   6.058   0.075   3.554 -2.1709  1.0551 -0.2690
  811MOL0     H 7022   5.986   0.172   3.804 -2.0726 -0.6522  1.8633
  811MOL0     H 7023   5.963   0.014   3.843 -0.9325  3.4076  1.8753
  811MOL0     H 7024   5.820   0.139   3.602  1.4209 -0.7414  0.1628
  811MOL0     H 7025   5.786  -0.014   3.675  1.0407 -1.1978  0.8484
  811MOL0     H 7026   5.755   0.255   3.820 -0.8231 -0.1822 -3.3083
  811MOL0     H 7027   5.759   0.104   3.904 -0.9873 -1.1480 -0.3294
  811MOL0     H 7028   5.537   0.212   3.833 -0.4249 -1.1907  0.4657
  811MOL0     H 7029   5.555   0.033   3.809 -1.4369  1.0106  1.6529
  811MOL0     H 7030   5.589   0.243   3.592 -0.0493 -0.7898 -0.2904
  811MOL0     H 7031   5.574   0.073   3.567 -1.9299 -3.3031  2.5424
  811MOL0     H 7032   5.362   0.176   3.524  1.0298  1.6300 -1.0905
  811MOL0     H 7033   5.357   0.229   3.703  0.6471 -2.4286  3.0898
  811MOL0     H 7034   6.386   0.225   3.762 -2.1214 -1.3476  0.5541
  811MOL0     H 7035   6.597   0.298   3.846 -0.0116 -1.1591 -4.1833
  811MOL0     H 7036   7.091  -0.062   4.137 -1.2848 -0.2084  0.7714
  811MOL0     H 7037   7.267   0.037   4.302 -0.7729  1.3869  1.7603
  811MOL0     H 7038   8.658   0.566   5.261  1.3499 -0.0498  1.2923
  811MOL0     H 7039   8.774   0.603   5.467 -0.8227  2.1864 -0.4159
  811MOL0     H 7040   9.015   0.807   5.796 -2.1418 -2.2973 -3.8782
  811MOL0     H 7041   9.145   0.784   5.987 -0.6234 -0.5881  2.6883
  811MOL0     H 7042   9.263   0.672   6.177  1.4229 -0.0213  0.2912
  811MOL0     H 7043   9.213   0.669   6.349 -0.6712  0.0064  0.0477
  811MOL0     H 7044   9.268   0.891   6.295 -0.0713  1.0291  2.4840
  811MOL0     H 7045   9.126   0.885   6.180  0.5389 -3.0559 -1.2109
  811MOL0     H 7046   8.992   0.813   6.377 -1.5470  1.4687  2.8646
  811MOL0     H 7047   9.017   0.988   6.342  2.5046  1.3366  1.4913
  811MOL0     H 7048   9.026   0.902   6.572  0.3508 -2.7011 -0.0695
  811MOL0     H 7049   9.174   0.819   6.539 -1.7368 -0.6454  1.3308
  811MOL0     H 7050   9.263   1.247   6.573 -0.2529  0.5157 -0.5182
  811MOL0     H 7051   8.861   0.511   6.152 -1.7265  2.3009 -0.6247
  811MOL0     H 7052   8.728   0.519   5.954 -0.4392 -0.0222  1.9266
  812MOL0     O 7053  10.250   9.178   2.548 -0.0221 -0.0581  0.2758
  812MOL0     C 7054  10.286   9.127   2.439 -0.6381 -0.3455 -0.8745
  812MOL0     O 7055  10.207   9.094   2.338 -0.4462 -0.0466 -0.1761
  812MOL0     C 7056  10.071   9.117   2.345 -0.5581 -0.6661 -0.4056
  812MOL0     C 7057  10.001   9.012   2.295 -1.1729 -0.1064  0.8109
  812MOL0     C 7058   9.862   9.023   2.291  0.1201  0.2252  0.5236
  812MOL0     C 7059   9.793   9.131   2.338  0.0124 -0.8157 -0.4078
  812MOL0     O 7060   9.660   9.121   2.339  0.3613  0.6151 -0.1073
  812MOL0     C 7061   9.579   9.230   2.370  0.0935 -0.0010  0.3504
  812MOL0     C 7062   9.446   9.195   2.313  0.0414  0.7612  0.2701
  812MOL0     C 7063   9.328   9.285   2.350 -0.3033 -0.0074  0.0356
  812MOL0     C 7064   9.193   9.225   2.313 -1.4833 -0.5181  0.5092
  812MOL0     C 7065   9.092   9.334   2.290 -0.6988  0.0205  0.1464
  812MOL0     C 7066   8.957   9.268   2.322  0.0305 -0.3183 -0.4017
  812MOL0     C 7067   8.848   9.373   2.349 -0.5940 -0.8611 -0.6625
  812MOL0     C 7068   8.710   9.307   2.335 -0.1367  0.3390  1.0801
  812MOL0     N 7069   8.605   9.389   2.404  0.3319  0.0193 -0.0737
  812MOL0     C 7070   8.541   9.375   2.526  0.5041  0.4398  0.0947
  812MOL0     C 7071   8.427   9.447   2.517 -0.2704  0.8464  0.4903
  812MOL0     C 7072   8.313   9.469   2.608 -0.4388  0.1154  0.1783
  812MOL0     C 7073   8.173   9.438   2.544 -0.1613 -0.7178 -0.0870
  812MOL0     C 7074   8.131   9.296   2.537  0.9360  1.2155 -0.1720
  812MOL0     C 7075   8.010   9.267   2.448 -0.7233  0.0524  0.0239
  812MOL0     O 7076   7.897   9.340   2.487  0.2989 -0.4930 -0.1596
  812MOL0     C 7077   7.777   9.274   2.506 -0.4697 -0.0697 -0.0733
  812MOL0     C 7078   7.689   9.336   2.590  0.6560 -0.2213 -0.9443
  812MOL0     C 7079   7.563   9.278   2.611 -0.6666 -0.2190 -0.1833
  812MOL0     C 7080   7.528   9.159   2.545  0.7126 -0.0391 -0.2075
  812MOL0     C 7081   7.391   9.102   2.567  0.0079 -0.0183 -0.8673
  812MOL0     O 7082   7.314   9.141   2.680 -0.8678 -0.9003  0.0746
  812MOL0     C 7083   7.213   9.069   2.733 -0.1234  0.3669 -0.3002
  812MOL0     C 7084   7.194   9.077   2.881 -0.4144 -0.3079  0.5708
  812MOL0     C 7085   7.085   9.010   2.946  0.0618 -0.8892  0.7075
  812MOL0     C 7086   6.998   8.930   2.868 -0.3371  0.1590 -0.2532
  812MOL0     O 7087   6.887   8.878   2.922  0.4925 -0.3543  0.0796
  812MOL0     C 7088   6.805   8.967   2.995  0.5755  0.1909  0.1139
  812MOL0     C 7089   6.710   8.877   3.075  0.6206  0.2138 -0.3975
  812MOL0     C 7090   6.788   8.811   3.188  0.3898  0.1406  0.1357
  812MOL0     C 7091   6.703   8.690   3.237  0.4938  0.0183 -0.3561
  812MOL0     C 7092   6.766   8.644   3.367  0.2793 -0.5034  1.6236
  812MOL0     C 7093   6.707   8.510   3.397  0.2725  0.2205  0.6937
  812MOL0     C 7094   6.563   8.527   3.453  0.6466  0.1337  0.2346
  812MOL0     C 7095   6.511   8.388   3.481  0.1904 -0.2048  0.0358
  812MOL0    Cl 7096   6.495   8.292   3.334 -0.7231  0.0823  0.2649
  812MOL0     C 7097   7.022   8.907   2.728  1.3084  0.7164 -0.0218
  812MOL0     C 7098   7.123   8.983   2.659 -0.3294 -0.1861  0.1215
  812MOL0     O 7099   7.356   9.009   2.496 -0.0147  0.3880 -0.2809
  812MOL0     C 7100   7.623   9.099   2.463 -0.3199  0.1059  0.2097
  812MOL0     C 7101   7.744   9.147   2.450  0.3524  0.4939  0.1953
  812MOL0     N 7102   8.426   9.502   2.388 -0.1403 -0.7215 -0.1181
  812MOL0     N 7103   8.524   9.461   2.323  0.5317 -0.2250 -0.1533
  812MOL0     C 7104   9.865   9.234   2.407  1.1903  0.3326 -0.3103
  812MOL0     C 7105  10.001   9.234   2.399 -0.5057  0.9590  0.3325
  812MOL0     C 7106  10.425   9.094   2.417  0.1240 -0.1401 -0.1069
  812MOL0     C 7107  10.456   8.982   2.341  0.1623  0.7653  0.4228
  812MOL0     C 7108  10.594   8.952   2.308  0.8099 -0.3524  1.2701
  812MOL0     C 7109  10.695   9.040   2.339  1.1171  0.1443  0.1242
  812MOL0     O 7110  10.813   8.988   2.305 -0.3579  0.2724 -0.3961
  812MOL0     C 7111  10.929   9.060   2.331  0.2153 -0.4848  1.2084
  812MOL0     C 7112  11.040   8.997   2.253  0.4097 -0.2486 -0.9663
  812MOL0     C 7113  11.097   8.879   2.332  0.7336 -0.0769 -0.2489
  812MOL0     C 7114  11.177   8.786   2.240 -0.3623  0.3046  0.0139
  812MOL0     C 7115  11.318   8.818   2.208 -0.7893  1.5658  0.9529
  812MOL0     C 7116  11.424   8.850   2.175 -0.2444  0.5869 -0.0188
  812MOL0     C 7117  10.660   9.157   2.405  0.3654  0.4086  0.7887
  812MOL0     C 7118  10.528   9.185   2.441 -0.5359 -0.1581  0.5023
  812MOL0     H 7119  10.050   8.922   2.259 -1.2751 -0.3242  1.2088
  812MOL0     H 7120   9.799   8.947   2.247  1.0319 -1.3053  1.7613
  812MOL0     H 7121   9.596   9.328   2.324 -1.9714  1.2622  2.1144
  812MOL0     H 7122   9.574   9.251   2.477 -3.6070  2.0718 -0.0653
  812MOL0     H 7123   9.418   9.094   2.345  0.0488  0.8825  0.6710
  812MOL0     H 7124   9.440   9.176   2.206  0.7172 -0.8699  0.4845
  812MOL0     H 7125   9.345   9.383   2.304 -2.1884  1.1757  1.7072
  812MOL0     H 7126   9.334   9.304   2.458  0.6695 -2.1210  0.4129
  812MOL0     H 7127   9.209   9.163   2.224  0.7607 -0.8918  1.0955
  812MOL0     H 7128   9.167   9.152   2.390 -0.2303 -0.1060  1.3475
  812MOL0     H 7129   9.092   9.372   2.188 -2.1086 -5.9437 -2.5148
  812MOL0     H 7130   9.105   9.421   2.355  2.3591 -1.5190  1.7791
  812MOL0     H 7131   8.953   9.205   2.411 -3.1530 -0.3875 -0.4894
  812MOL0     H 7132   8.930   9.216   2.230  1.0720 -0.5822 -0.5694
  812MOL0     H 7133   8.861   9.414   2.449 -0.0393 -2.4417 -0.0467
  812MOL0     H 7134   8.860   9.454   2.277 -0.3790  0.0897  0.4303
  812MOL0     H 7135   8.695   9.212   2.387 -2.3709  1.2355  2.1919
  812MOL0     H 7136   8.687   9.298   2.228  1.9260  3.9589  0.1489
  812MOL0     H 7137   8.575   9.311   2.607  1.4561 -0.1662 -0.7709
  812MOL0     H 7138   8.313   9.575   2.635 -1.7003 -0.1519  1.3440
  812MOL0     H 7139   8.331   9.414   2.701  0.0043  1.1717  0.7326
  812MOL0     H 7140   8.169   9.478   2.442  0.2443 -1.7514 -0.5221
  812MOL0     H 7141   8.099   9.498   2.598  0.4308 -0.6632  0.6846
  812MOL0     H 7142   8.212   9.226   2.517 -1.1634 -1.2381 -0.5004
  812MOL0     H 7143   8.091   9.266   2.634  0.1341  0.1362 -0.8226
  812MOL0     H 7144   8.000   9.158   2.445  3.6803 -0.5004 -1.2296
  812MOL0     H 7145   8.035   9.307   2.349  0.7785 -1.4383 -0.2402
  812MOL0     H 7146   7.718   9.425   2.645  0.9457 -0.3035 -0.9630
  812MOL0     H 7147   7.502   9.339   2.677  0.8330  2.0618 -0.7680
  812MOL0     H 7148   7.268   9.142   2.926 -0.1493  0.2158 -0.5842
  812MOL0     H 7149   7.065   9.020   3.052 -2.0176 -0.1588  0.2975
  812MOL0     H 7150   6.749   9.030   2.926 -0.7024  1.5244  2.2598
  812MOL0     H 7151   6.869   9.027   3.062  0.8028  1.1284 -0.9113
  812MOL0     H 7152   6.662   8.806   3.007  3.6124 -1.8760 -0.5315
  812MOL0     H 7153   6.637   8.937   3.130 -1.7052 -2.2987 -0.5559
  812MOL0     H 7154   6.827   8.882   3.261 -0.1886  0.0279  0.5606
  812MOL0     H 7155   6.883   8.767   3.157 -0.4849  0.5026 -3.5693
  812MOL0     H 7156   6.600   8.727   3.246  1.6611  3.0517  1.7556
  812MOL0     H 7157   6.706   8.603   3.170 -0.0676  0.5709 -1.1215
  812MOL0     H 7158   6.767   8.726   3.439  3.7008  0.7198  0.3656
  812MOL0     H 7159   6.874   8.627   3.354  1.0589  3.9280  0.9135
  812MOL0     H 7160   6.770   8.456   3.468 -0.0328  0.3227  1.0472
  812MOL0     H 7161   6.712   8.445   3.310 -0.8610 -1.6197  1.9451
  812MOL0     H 7162   6.565   8.584   3.546 -1.7500 -2.1217  1.8220
  812MOL0     H 7163   6.489   8.562   3.381  2.5595 -2.4707 -3.3256
  812MOL0     H 7164   6.417   8.381   3.536 -0.1220  2.2003 -0.0993
  812MOL0     H 7165   6.591   8.343   3.542 -0.7347 -1.0833  0.6232
  812MOL0     H 7166   6.964   8.836   2.671  0.0837  2.7137 -1.4122
  812MOL0     H 7167   7.137   8.970   2.553 -0.0531  0.0513  0.1259
  812MOL0     H 7168   7.607   8.998   2.428 -1.6311 -0.1275  1.4040
  812MOL0     H 7169   7.797   9.083   2.380 -0.7782  1.2460 -1.3932
  812MOL0     H 7170   9.808   9.319   2.443 -3.0921 -3.1794  2.2274
  812MOL0     H 7171  10.052   9.322   2.436  0.0696  1.1420 -0.8417
  812MOL0     H 7172  10.375   8.933   2.288  1.1735  2.1627 -2.6539
  812MOL0     H 7173  10.629   8.862   2.259  3.2743  1.7870 -1.2026
  812MOL0     H 7174  10.947   9.056   2.439  3.2996  1.0928  0.8584
  812MOL0     H 7175  10.915   9.164   2.300  2.0877 -0.3646  0.6625
  812MOL0     H 7176  11.006   8.979   2.150  0.3043  1.8249 -1.3395
  812MOL0     H 7177  11.123   9.065   2.233 -0.2274  0.6678 -0.5664
  812MOL0     H 7178  11.020   8.830   2.394 -1.2055  1.7425 -1.1060
  812MOL0     H 7179  11.168   8.919   2.405 -1.9198  1.7677  1.5194
  812MOL0     H 7180  11.181   8.684   2.279  3.1703  0.2555 -0.1791
  812MOL0     H 7181  11.125   8.782   2.143 -1.1245 -0.2116  0.4329
  812MOL0     H 7182  11.523   8.883   2.151  0.0528  1.3073  1.9797
  812MOL0     H 7183  10.745   9.219   2.433  1.4958 -1.3324  1.3592
  812MOL0     H 7184  10.514   9.276   2.498  2.3138  0.2919  0.6304
  813MOL0     O 7185   2.319   5.589   0.389 -0.2190 -0.1140 -0.4097
  813MOL0     C 7186   2.390   5.518   0.459 -0.1832  0.4764  0.4093
  813MOL0     O 7187   2.340   5.443   0.564  0.6306  0.0494  0.1362
  813MOL0     C 7188   2.199   5.449   0.565 -0.6609 -0.2308  0.0265
  813MOL0     C 7189   2.147   5.518   0.678 -0.4686  0.5958  0.3400
  813MOL0     C 7190   2.015   5.533   0.705  0.5335 -0.0889 -0.2206
  813MOL0     C 7191   1.922   5.476   0.613 -0.3389  0.2873 -0.1921
  813MOL0     O 7192   1.790   5.457   0.643  0.5594 -0.1261  0.2286
  813MOL0     C 7193   1.680   5.479   0.554  0.3248 -0.1916 -0.3046
  813MOL0     C 7194   1.559   5.522   0.646 -0.0819 -0.7861  0.2982
  813MOL0     C 7195   1.442   5.542   0.555 -0.1496 -0.3142  0.1999
  813MOL0     C 7196   1.327   5.622   0.609  0.3235  0.9119 -0.6586
  813MOL0     C 7197   1.202   5.638   0.528 -0.7260 -0.1033  0.1577
  813MOL0     C 7198   1.138   5.517   0.466  0.2725  0.3262  0.8461
  813MOL0     C 7199   1.010   5.554   0.392  0.5723 -0.5639 -0.0990
  813MOL0     C 7200   0.947   5.425   0.347  1.0398  0.8054  1.5197
  813MOL0     N 7201   0.792   5.433   0.360 -0.8650 -0.0551 -0.0409
  813MOL0     C 7202   0.712   5.373   0.456 -0.1042  1.4202 -0.0192
  813MOL0     C 7203   0.584   5.400   0.416  0.4259  0.2039 -0.5304
  813MOL0     C 7204   0.465   5.340   0.480 -0.7203  0.1483  0.6561
  813MOL0     C 7205   0.457   5.324   0.626 -0.0584 -0.8719 -0.6502
  813MOL0     C 7206   0.429   5.468   0.682  0.9463 -0.0042  0.0574
  813MOL0     C 7207   0.417   5.471   0.839 -0.6894 -0.3146 -0.5205
  813MOL0     O 7208   0.320   5.374   0.884 -0.3230 -0.0639  0.0981
  813MOL0     C 7209   0.186   5.388   0.858  0.4177  0.0577 -0.9538
  813MOL0     C 7210   0.094   5.292   0.895  0.2536 -0.0968  0.7440
  813MOL0     C 7211  -0.043   5.305   0.871 -0.7995  0.7600  0.2976
  813MOL0     C 7212  -0.091   5.426   0.823  0.7760  1.3888  0.1021
  813MOL0     C 7213  -0.234   5.449   0.805  0.4221  0.1766  0.9618
  813MOL0     O 7214  -0.309   5.335   0.818  0.2043  0.4896 -0.1929
  813MOL0     C 7215  -0.448   5.320   0.809  0.2102 -0.3571 -0.7501
  813MOL0     C 7216  -0.498   5.191   0.845 -0.9432 -1.1393 -0.2764
  813MOL0     C 7217  -0.630   5.162   0.825  0.1720  0.0315 -0.1818
  813MOL0     C 7218  -0.717   5.255   0.764  0.2559  0.3347  0.1955
  813MOL0     O 7219  -0.850   5.231   0.722  0.2979  0.7079 -0.2303
  813MOL0     C 7220  -0.909   5.101   0.750  0.5224  0.7200 -0.6423
  813MOL0     C 7221  -0.979   5.099   0.885 -0.4998 -0.1256  0.0009
  813MOL0     C 7222  -1.078   5.218   0.908 -0.3237 -0.2311 -1.0468
  813MOL0     C 7223  -1.208   5.216   0.822  0.2125  0.8599  0.8452
  813MOL0     C 7224  -1.282   5.352   0.819  0.2012  0.0417  0.4788
  813MOL0     C 7225  -1.358   5.375   0.686  0.1556  0.8781  1.3338
  813MOL0     C 7226  -1.470   5.281   0.676  0.2485 -0.1582 -0.0146
  813MOL0     C 7227  -1.558   5.308   0.560  0.4193  0.2208  0.1362
  813MOL0    Cl 7228  -1.675   5.174   0.555  0.1191 -0.0244  0.0283
  813MOL0     C 7229  -0.669   5.383   0.747  0.6257 -0.1359 -0.2668
  813MOL0     C 7230  -0.537   5.421   0.774 -0.1853 -0.1823 -0.5773
  813MOL0     O 7231  -0.279   5.554   0.761 -0.0198  0.6818 -0.2944
  813MOL0     C 7232  -0.004   5.537   0.802 -0.2146 -0.0923 -0.5560
  813MOL0     C 7233   0.135   5.513   0.819  0.4318  0.1828  0.8823
  813MOL0     N 7234   0.591   5.475   0.300 -0.2077  0.0963  0.5743
  813MOL0     N 7235   0.713   5.479   0.264 -0.3823 -0.0256  0.1744
  813MOL0     C 7236   1.964   5.408   0.497  0.1469  0.1182 -0.0396
  813MOL0     C 7237   2.101   5.403   0.469 -0.2226  0.3250  0.1091
  813MOL0     C 7238   2.538   5.529   0.445 -0.0030 -1.2167 -0.2460
  813MOL0     C 7239   2.619   5.451   0.521 -0.3410  0.7514  0.7068
  813MOL0     C 7240   2.757   5.456   0.519 -0.4436 -0.9101  0.5783
  813MOL0     C 7241   2.819   5.548   0.434  0.1285 -0.9230 -0.7405
  813MOL0     O 7242   2.954   5.560   0.442 -0.1353 -0.1327 -0.2653
  813MOL0     C 7243   3.025   5.668   0.380  0.1641 -0.2967 -0.4931
  813MOL0     C 7244   3.172   5.676   0.402 -0.1644  0.5576 -0.1424
  813MOL0     C 7245   3.241   5.554   0.340  0.3972 -0.1860  0.3656
  813MOL0     C 7246   3.392   5.572   0.328 -0.2027  0.4313  0.6769
  813MOL0     C 7247   3.445   5.479   0.227 -0.2644  0.2898  0.0721
  813MOL0     C 7248   3.493   5.396   0.144 -0.5595  0.4419 -0.0438
  813MOL0     C 7249   2.738   5.625   0.352 -0.3531 -0.9005 -0.2999
  813MOL0     C 7250   2.597   5.620   0.358  0.4507  0.5953 -0.4444
  813MOL0     H 7251   2.220   5.551   0.751  3.0984  0.4825 -2.9023
  813MOL0     H 7252   1.976   5.588   0.790 -0.9710 -2.0649  0.4139
  813MOL0     H 7253   1.650   5.390   0.499 -2.3974  0.1312  0.5039
  813MOL0     H 7254   1.711   5.562   0.489  1.9592  0.4210  1.1915
  813MOL0     H 7255   1.585   5.625   0.671  1.7449 -1.2456  0.3871
  813MOL0     H 7256   1.531   5.454   0.728 -2.1673 -0.2404  0.1027
  813MOL0     H 7257   1.406   5.444   0.522  0.2766 -0.2497 -0.4840
  813MOL0     H 7258   1.468   5.585   0.458  3.1912 -2.1863  0.1295
  813MOL0     H 7259   1.301   5.576   0.705 -0.2610 -0.5294 -1.4722
  813MOL0     H 7260   1.368   5.720   0.634 -1.7287  1.7535 -0.4429
  813MOL0     H 7261   1.226   5.713   0.453  1.1404  0.0740  0.8634
  813MOL0     H 7262   1.118   5.669   0.590 -0.8518 -1.2628  0.5937
  813MOL0     H 7263   1.115   5.449   0.549  0.4308  0.6391  1.1471
  813MOL0     H 7264   1.206   5.466   0.398  1.4340  1.5986  1.0139
  813MOL0     H 7265   0.938   5.616   0.446 -0.6830 -0.2421 -2.0179
  813MOL0     H 7266   1.047   5.616   0.310  2.5977 -0.3873  0.9108
  813MOL0     H 7267   0.982   5.332   0.392  0.3500 -0.6967 -0.8922
  813MOL0     H 7268   0.956   5.420   0.238  0.2629 -1.7098  1.5055
  813MOL0     H 7269   0.752   5.329   0.546  2.4405  0.0429 -1.7243
  813MOL0     H 7270   0.458   5.241   0.435 -1.5663  0.8698 -0.8784
  813MOL0     H 7271   0.380   5.401   0.445 -0.2678 -0.7035 -2.1580
  813MOL0     H 7272   0.550   5.283   0.666  0.9209  1.2513 -0.6404
  813MOL0     H 7273   0.372   5.260   0.655  0.5182  0.2565  4.5983
  813MOL0     H 7274   0.521   5.522   0.659  0.8405  0.4643  0.7057
  813MOL0     H 7275   0.339   5.517   0.644  0.0292 -2.1479 -0.6883
  813MOL0     H 7276   0.382   5.565   0.883 -2.6800 -0.2436 -2.0851
  813MOL0     H 7277   0.517   5.444   0.872 -0.4656  0.6759 -0.3479
  813MOL0     H 7278   0.141   5.199   0.927 -0.4961 -0.6283  0.3192
  813MOL0     H 7279  -0.105   5.218   0.888 -0.2853  0.4294  0.4975
  813MOL0     H 7280  -0.439   5.113   0.890  1.1233  0.5433  0.0681
  813MOL0     H 7281  -0.658   5.064   0.861  0.9723 -0.0628  0.2113
  813MOL0     H 7282  -0.845   5.013   0.747  1.8334  1.5754  0.9541
  813MOL0     H 7283  -0.999   5.088   0.689  0.0985 -2.5555  0.5215
  813MOL0     H 7284  -0.901   5.089   0.961  0.5849 -0.0320 -1.0714
  813MOL0     H 7285  -1.034   5.005   0.892 -0.0769 -0.5802 -1.9865
  813MOL0     H 7286  -1.038   5.319   0.893 -3.9252  1.7152  1.1270
  813MOL0     H 7287  -1.097   5.224   1.015  1.1183  2.3082 -0.8454
  813MOL0     H 7288  -1.174   5.191   0.721  2.1682  1.4888  1.2990
  813MOL0     H 7289  -1.281   5.139   0.849  2.2900 -0.6384  2.5325
  813MOL0     H 7290  -1.205   5.428   0.832  1.4482 -1.2114  0.6498
  813MOL0     H 7291  -1.360   5.362   0.895 -2.3079 -0.6619 -1.8070
  813MOL0     H 7292  -1.285   5.343   0.611  0.6778  1.1730  1.7050
  813MOL0     H 7293  -1.386   5.478   0.664  4.8672  1.7605 -1.9778
  813MOL0     H 7294  -1.428   5.181   0.663  0.1191  0.1195 -3.4532
  813MOL0     H 7295  -1.530   5.284   0.768  0.4245 -1.4419  0.1640
  813MOL0     H 7296  -1.494   5.302   0.472  0.7998  2.2614  0.2374
  813MOL0     H 7297  -1.608   5.403   0.579 -3.4294 -1.8752  1.6557
  813MOL0     H 7298  -0.743   5.447   0.700 -0.7036  1.5216  3.6498
  813MOL0     H 7299  -0.511   5.526   0.771 -0.0563 -0.1816  0.2478
  813MOL0     H 7300  -0.037   5.636   0.774  2.6141  0.8334 -1.0106
  813MOL0     H 7301   0.199   5.599   0.803  1.6227 -0.5474  1.6110
  813MOL0     H 7302   1.905   5.348   0.428  0.7036  0.6501 -1.0113
  813MOL0     H 7303   2.145   5.345   0.388 -1.9710 -3.4579  1.6112
  813MOL0     H 7304   2.577   5.391   0.602 -0.2949  0.4853  0.5357
  813MOL0     H 7305   2.810   5.387   0.584 -1.8027 -0.0275  2.7140
  813MOL0     H 7306   2.982   5.760   0.420 -1.2797 -0.7569 -0.9259
  813MOL0     H 7307   3.004   5.669   0.273 -4.2969  1.0514  0.2033
  813MOL0     H 7308   3.209   5.770   0.361  0.4989  1.2506  1.9052
  813MOL0     H 7309   3.183   5.683   0.511  0.0158 -0.8664 -0.0508
  813MOL0     H 7310   3.208   5.548   0.236 -0.4837 -1.2053  0.6968
  813MOL0     H 7311   3.215   5.463   0.394  1.2175 -0.0259  1.0570
  813MOL0     H 7312   3.415   5.678   0.309  0.0194  0.2705  0.0337
  813MOL0     H 7313   3.447   5.550   0.420  2.5900 -0.7370 -1.1375
  813MOL0     H 7314   3.546   5.329   0.079 -0.0441 -0.6253  1.4337
  813MOL0     H 7315   2.777   5.694   0.278 -0.2345  0.0481  0.6143
  813MOL0     H 7316   2.544   5.691   0.296  2.4472  2.1682 -0.4709
  814MOL0     O 7317   2.781   8.400   0.369 -0.7983  0.5873 -0.5677
  814MOL0     C 7318   2.749   8.473   0.460  0.2243  0.0937  0.4052
  814MOL0     O 7319   2.623   8.523   0.486 -0.0469 -0.5004  0.2414
  814MOL0     C 7320   2.506   8.457   0.448 -0.4564  0.5975 -0.0328
  814MOL0     C 7321   2.495   8.323   0.440 -0.6894  0.3858  0.2204
  814MOL0     C 7322   2.379   8.261   0.387  0.1958  0.1369  0.2858
  814MOL0     C 7323   2.267   8.340   0.344 -0.1219 -0.6347 -1.2053
  814MOL0     O 7324   2.151   8.276   0.306 -0.1354 -0.3432 -0.6640
  814MOL0     C 7325   2.072   8.324   0.199 -0.1856 -0.2083  0.6299
  814MOL0     C 7326   1.952   8.226   0.186  0.7019 -0.5111  1.0172
  814MOL0     C 7327   1.854   8.245   0.297 -0.8629 -0.0709  0.2816
  814MOL0     C 7328   1.754   8.132   0.289  0.0554  0.4292  0.1932
  814MOL0     C 7329   1.627   8.149   0.380  0.7128 -0.1342  0.1542
  814MOL0     C 7330   1.518   8.048   0.351 -0.2464 -0.0322  0.2034
  814MOL0     C 7331   1.417   8.045   0.465 -0.4708  0.0212  0.3680
  814MOL0     C 7332   1.316   7.928   0.452  0.1401 -0.7808  0.7111
  814MOL0     N 7333   1.182   7.957   0.508 -0.2817 -0.4343 -0.4859
  814MOL0     C 7334   1.148   7.970   0.640 -0.3679  0.6252  0.3045
  814MOL0     C 7335   1.014   7.985   0.630  0.1020 -0.8039  0.1915
  814MOL0     C 7336   0.911   8.015   0.727 -0.1096  0.1070  0.0383
  814MOL0     C 7337   0.808   7.906   0.772  0.2714  0.3529 -0.0360
  814MOL0     C 7338   0.730   7.832   0.655 -0.8567 -0.0888 -0.2010
  814MOL0     C 7339   0.636   7.715   0.704 -0.1362 -0.0488  0.3077
  814MOL0     O 7340   0.534   7.748   0.794  0.0954  0.4308  0.6315
  814MOL0     C 7341   0.407   7.788   0.747  0.1594  0.0637  0.0806
  814MOL0     C 7342   0.317   7.819   0.849  0.3172  0.8504  0.3688
  814MOL0     C 7343   0.196   7.876   0.821  0.3826  0.1656  1.2581
  814MOL0     C 7344   0.148   7.889   0.688 -0.6163  0.3462 -0.0437
  814MOL0     C 7345   0.018   7.945   0.647 -0.0520 -0.1677 -0.4054
  814MOL0     O 7346  -0.059   7.997   0.740  0.5047 -0.6952 -0.9628
  814MOL0     C 7347  -0.188   8.039   0.720  0.7353  1.2657  0.3407
  814MOL0     C 7348  -0.232   8.159   0.773  0.5439 -0.6595 -0.4240
  814MOL0     C 7349  -0.348   8.222   0.728 -0.2479 -0.1164  0.3225
  814MOL0     C 7350  -0.445   8.150   0.648  0.2574  0.1222 -0.3026
  814MOL0     O 7351  -0.576   8.189   0.619 -0.0201  0.5306 -0.0330
  814MOL0     C 7352  -0.615   8.328   0.609 -0.0520 -1.2788 -0.3968
  814MOL0     C 7353  -0.763   8.357   0.556  0.0941  0.5388 -0.8138
  814MOL0     C 7354  -0.812   8.499   0.593 -0.1174 -0.5413  0.3083
  814MOL0     C 7355  -0.752   8.600   0.488 -0.4006  0.6631  0.1914
  814MOL0     C 7356  -0.764   8.746   0.523  0.3204  0.1172  0.4377
  814MOL0     C 7357  -0.919   8.774   0.546 -1.4533 -0.4089  0.3373
  814MOL0     C 7358  -0.949   8.927   0.548  0.8774  0.1361 -0.3569
  814MOL0     C 7359  -0.869   9.002   0.653 -0.4467  0.2776  0.9181
  814MOL0    Cl 7360  -0.703   9.080   0.604 -0.7610 -0.0863 -0.0147
  814MOL0     C 7361  -0.411   8.021   0.609 -0.6599  0.2090 -0.7369
  814MOL0     C 7362  -0.278   7.971   0.643  0.1632  0.4674 -0.5125
  814MOL0     O 7363  -0.021   7.932   0.531 -0.5391 -0.4393 -0.7955
  814MOL0     C 7364   0.237   7.862   0.588  0.1712  0.0217 -0.8310
  814MOL0     C 7365   0.361   7.806   0.616 -0.0847  0.9448  0.2224
  814MOL0     N 7366   0.976   7.977   0.503  0.7742  0.4944  1.1394
  814MOL0     N 7367   1.079   7.965   0.424  0.9668 -0.0539 -0.5270
  814MOL0     C 7368   2.271   8.474   0.358  0.1703  0.8050  0.1000
  814MOL0     C 7369   2.393   8.533   0.408  0.3052  0.5172  0.8153
  814MOL0     C 7370   2.859   8.541   0.536  0.0256 -1.0356  0.6201
  814MOL0     C 7371   2.995   8.501   0.518 -0.4658 -0.2023 -0.9400
  814MOL0     C 7372   3.097   8.571   0.577  0.0182  0.5510  0.4063
  814MOL0     C 7373   3.076   8.676   0.665  0.4751  0.4854 -0.9369
  814MOL0     O 7374   3.169   8.744   0.740  1.1266 -1.1470  0.1573
  814MOL0     C 7375   3.240   8.836   0.651  0.3259 -0.7034  0.7538
  814MOL0     C 7376   3.387   8.796   0.638  0.0533 -0.3005 -0.3495
  814MOL0     C 7377   3.475   8.911   0.598 -0.5393  0.0882 -0.0920
  814MOL0     C 7378   3.436   8.941   0.451  0.1015 -0.5434  0.0851
  814MOL0     C 7379   3.515   9.056   0.412 -0.8100  0.4593 -0.0786
  814MOL0     C 7380   3.565   9.166   0.387  0.3447  1.0340  0.0336
  814MOL0     C 7381   2.943   8.707   0.698 -0.2464  0.5554  0.3389
  814MOL0     C 7382   2.837   8.650   0.627  0.3282  0.1832 -0.1061
  814MOL0     H 7383   2.584   8.272   0.474 -0.4642 -0.8597 -2.0510
  814MOL0     H 7384   2.367   8.153   0.383 -2.4179  0.3794 -2.2455
  814MOL0     H 7385   2.130   8.335   0.106 -0.1966  1.8134  0.8196
  814MOL0     H 7386   2.037   8.419   0.238  0.7534 -0.5667  2.4319
  814MOL0     H 7387   1.982   8.121   0.183  1.9368 -0.2004  1.8073
  814MOL0     H 7388   1.902   8.244   0.090  2.2698  1.1452  0.4596
  814MOL0     H 7389   1.802   8.341   0.287 -3.0059 -1.0754  0.9905
  814MOL0     H 7390   1.906   8.234   0.392 -1.7224  0.8501  0.8746
  814MOL0     H 7391   1.708   8.114   0.192 -0.5073  0.4302  0.4580
  814MOL0     H 7392   1.804   8.042   0.328  0.4132  1.0677  1.2458
  814MOL0     H 7393   1.590   8.250   0.363  0.6970  0.1984  2.0358
  814MOL0     H 7394   1.646   8.133   0.486  0.1611 -0.9882  0.1372
  814MOL0     H 7395   1.559   7.948   0.334 -1.0733  0.0102 -2.6346
  814MOL0     H 7396   1.467   8.075   0.258 -0.0198 -0.5770 -0.0872
  814MOL0     H 7397   1.465   8.030   0.562 -1.2092 -3.8206  0.3139
  814MOL0     H 7398   1.370   8.143   0.469  0.8612  0.6476  1.7261
  814MOL0     H 7399   1.363   7.836   0.486  2.3188  0.0220  0.0924
  814MOL0     H 7400   1.296   7.909   0.346  0.2608 -0.6980  0.6725
  814MOL0     H 7401   1.205   7.978   0.732 -0.6035  0.8746  0.4328
  814MOL0     H 7402   0.848   8.092   0.683 -0.8235 -2.0644 -3.0313
  814MOL0     H 7403   0.965   8.061   0.811  1.7790 -0.6442 -0.7035
  814MOL0     H 7404   0.732   7.936   0.844 -0.1195 -3.4967  1.3979
  814MOL0     H 7405   0.873   7.835   0.825  1.2494  2.2388  1.4188
  814MOL0     H 7406   0.664   7.901   0.603  0.1272  1.2269  0.2503
  814MOL0     H 7407   0.805   7.796   0.584 -1.7167 -0.3778 -0.9829
  814MOL0     H 7408   0.698   7.638   0.751  0.5241 -1.9621 -3.2817
  814MOL0     H 7409   0.585   7.667   0.620  1.3597  1.9142 -1.8563
  814MOL0     H 7410   0.348   7.808   0.953 -0.4272  3.1802  0.9047
  814MOL0     H 7411   0.144   7.919   0.907  0.3455  1.7948  0.4580
  814MOL0     H 7412  -0.163   8.211   0.838 -1.2079 -0.0127  0.9988
  814MOL0     H 7413  -0.374   8.321   0.764 -2.0323  0.5117 -2.4420
  814MOL0     H 7414  -0.532   8.369   0.551  0.9560 -1.2892  0.9914
  814MOL0     H 7415  -0.616   8.381   0.704 -1.6437 -0.5998 -0.7566
  814MOL0     H 7416  -0.825   8.287   0.613 -0.4153  0.5036 -1.3981
  814MOL0     H 7417  -0.782   8.331   0.451 -2.1170 -2.1533  0.1352
  814MOL0     H 7418  -0.769   8.523   0.691 -0.9311 -1.0203  0.7945
  814MOL0     H 7419  -0.921   8.509   0.592 -0.1196 -0.3637 -1.8060
  814MOL0     H 7420  -0.645   8.582   0.474  0.5619  3.3608  3.1248
  814MOL0     H 7421  -0.799   8.577   0.392 -1.1363  0.3153  0.6238
  814MOL0     H 7422  -0.730   8.795   0.431 -0.6557  1.6820  0.8805
  814MOL0     H 7423  -0.697   8.784   0.601 -1.4955  2.8500  0.8226
  814MOL0     H 7424  -0.958   8.734   0.640  0.5762 -0.1572  1.3533
  814MOL0     H 7425  -0.975   8.734   0.461  0.5162 -2.6343 -0.0351
  814MOL0     H 7426  -0.942   8.978   0.452 -3.5502 -0.1172 -1.0213
  814MOL0     H 7427  -1.052   8.949   0.577  1.1075  2.0252 -0.8499
  814MOL0     H 7428  -0.849   8.951   0.747  6.1500  2.7318  1.3648
  814MOL0     H 7429  -0.941   9.079   0.682 -1.4312  1.7093 -4.2292
  814MOL0     H 7430  -0.481   7.965   0.547  0.1802 -1.8789  0.1248
  814MOL0     H 7431  -0.260   7.868   0.613  0.5774  0.2495  0.4452
  814MOL0     H 7432   0.206   7.871   0.484 -2.4720 -0.4263 -0.1542
  814MOL0     H 7433   0.427   7.775   0.535  0.7426  1.8843  0.5128
  814MOL0     H 7434   2.190   8.536   0.322 -0.2255  0.7178  0.8419
  814MOL0     H 7435   2.402   8.641   0.400 -0.3995  0.4670 -1.3011
  814MOL0     H 7436   3.012   8.420   0.448 -0.7007  0.7535 -2.1242
  814MOL0     H 7437   3.201   8.548   0.557  0.0860  2.9478 -2.8781
  814MOL0     H 7438   3.240   8.939   0.689  1.6024 -1.1856  2.1542
  814MOL0     H 7439   3.193   8.832   0.552 -0.4813 -1.7959  1.1669
  814MOL0     H 7440   3.419   8.767   0.739 -1.3265  1.3180  0.6153
  814MOL0     H 7441   3.396   8.706   0.577 -2.8723 -1.5980  0.9438
  814MOL0     H 7442   3.578   8.875   0.607 -0.7345 -0.5674 -0.4075
  814MOL0     H 7443   3.460   8.995   0.667 -2.3464 -2.5603  3.0423
  814MOL0     H 7444   3.458   8.859   0.382 -1.7055 -2.7817  1.9797
  814MOL0     H 7445   3.328   8.957   0.436 -0.4198 -1.1143  2.7128
  814MOL0     H 7446   3.626   9.249   0.356  0.4863  1.2134  0.7599
  814MOL0     H 7447   2.929   8.787   0.770  0.4182 -0.2669  1.4044
  814MOL0     H 7448   2.738   8.693   0.636  0.2651 -0.0251  0.2016
  815MOL0     O 7449   0.436   5.858   4.237  0.3226  0.2222  0.3444
  815MOL0     C 7450   0.451   5.745   4.183  0.1015 -0.3455 -0.2732
  815MOL0     O 7451   0.367   5.641   4.207  0.1719  0.5526  0.4566
  815MOL0     C 7452   0.261   5.671   4.282  0.0367 -0.3621 -0.5688
  815MOL0     C 7453   0.140   5.695   4.233 -0.4491  0.6452 -0.6637
  815MOL0     C 7454   0.029   5.726   4.318 -0.2141 -0.1106  1.1186
  815MOL0     C 7455   0.048   5.741   4.458 -0.3161  0.3087 -0.2415
  815MOL0     O 7456  -0.068   5.777   4.525  0.1311  0.9563  0.2652
  815MOL0     C 7457  -0.063   5.794   4.669  0.7537 -0.6286 -0.0638
  815MOL0     C 7458  -0.184   5.882   4.711 -0.5197  0.1529  0.2886
  815MOL0     C 7459  -0.312   5.806   4.682  0.5073  0.1105  0.3732
  815MOL0     C 7460  -0.437   5.891   4.701 -0.1503  0.0722 -0.1353
  815MOL0     C 7461  -0.564   5.809   4.661  0.3804 -1.4109  0.0568
  815MOL0     C 7462  -0.686   5.882   4.714 -0.3112 -0.4694  0.4663
  815MOL0     C 7463  -0.809   5.811   4.663  0.1663  0.3625 -0.3444
  815MOL0     C 7464  -0.932   5.883   4.730 -0.2413  0.1067 -0.0149
  815MOL0     N 7465  -1.033   5.781   4.713 -0.4487  0.5715  0.4517
  815MOL0     C 7466  -1.117   5.783   4.606  0.5792 -0.8903  0.0239
  815MOL0     C 7467  -1.208   5.683   4.623  0.8982  1.0645 -0.3737
  815MOL0     C 7468  -1.337   5.658   4.552 -0.2186  0.9487  0.0442
  815MOL0     C 7469  -1.463   5.705   4.628 -0.2880  0.0002  0.9720
  815MOL0     C 7470  -1.498   5.638   4.766  0.6456 -0.2220 -0.2676
  815MOL0     C 7471  -1.636   5.676   4.820  0.7980  0.0671 -1.0311
  815MOL0     O 7472  -1.729   5.674   4.717  0.0833  0.0681 -0.3389
  815MOL0     C 7473  -1.860   5.701   4.745  0.7204  0.2329  0.0744
  815MOL0     C 7474  -1.914   5.749   4.867 -0.0021 -0.5580  0.9500
  815MOL0     C 7475  -2.048   5.768   4.893  0.5099  0.4850  0.6257
  815MOL0     C 7476  -2.141   5.731   4.792 -0.4511  0.4778  0.1300
  815MOL0     C 7477  -2.288   5.744   4.817 -0.8000 -0.3303  0.1282
  815MOL0     O 7478  -2.377   5.706   4.725 -0.0181  0.3403  0.2548
  815MOL0     C 7479  -2.512   5.734   4.725  0.3771  0.2269 -0.2509
  815MOL0     C 7480  -2.584   5.622   4.678  0.4374  0.1492 -1.0503
  815MOL0     C 7481  -2.727   5.637   4.666  0.1135  0.6814 -0.2780
  815MOL0     C 7482  -2.788   5.759   4.712 -1.0155  1.1354  0.0971
  815MOL0     O 7483  -2.922   5.769   4.698 -0.5304  0.2611 -0.8475
  815MOL0     C 7484  -2.997   5.808   4.819 -0.4109  0.1109 -0.2835
  815MOL0     C 7485  -3.032   5.674   4.894  0.1354  0.6470  0.1041
  815MOL0     C 7486  -3.148   5.689   5.000 -1.2042 -0.0497 -0.4006
  815MOL0     C 7487  -3.277   5.683   4.931  0.0753  1.1066 -0.5212
  815MOL0     C 7488  -3.399   5.715   5.015  0.0369  0.4031 -0.4321
  815MOL0     C 7489  -3.527   5.718   4.936 -1.2137 -0.1657  1.0106
  815MOL0     C 7490  -3.656   5.763   5.005 -0.0024  0.5779  0.7703
  815MOL0     C 7491  -3.710   5.655   5.106 -0.6614 -0.3119  0.6214
  815MOL0    Cl 7492  -3.883   5.696   5.144  0.4328  0.0923  0.0799
  815MOL0     C 7493  -2.715   5.864   4.757 -0.0550 -0.8919 -0.7123
  815MOL0     C 7494  -2.576   5.859   4.756  0.4561 -0.2440  0.8801
  815MOL0     O 7495  -2.318   5.800   4.921  0.3966  0.2893 -0.2864
  815MOL0     C 7496  -2.088   5.687   4.668 -0.7605 -0.4735 -0.1531
  815MOL0     C 7497  -1.944   5.685   4.639 -0.0390  1.1027  0.4332
  815MOL0     N 7498  -1.159   5.604   4.730 -0.1042  1.0565  0.2028
  815MOL0     N 7499  -1.053   5.666   4.777 -0.2579  0.5550 -0.0969
  815MOL0     C 7500   0.173   5.720   4.516  0.0098  0.3258  0.1905
  815MOL0     C 7501   0.276   5.683   4.429 -0.8162 -0.2303  0.0069
  815MOL0     C 7502   0.576   5.698   4.106 -0.0957 -0.4204 -0.6508
  815MOL0     C 7503   0.688   5.783   4.100 -0.3022 -0.4967 -0.6367
  815MOL0     C 7504   0.792   5.767   4.007  0.4498 -0.2852  0.4522
  815MOL0     C 7505   0.786   5.661   3.915  0.7511 -0.6278  1.1358
  815MOL0     O 7506   0.891   5.630   3.832  0.5274  0.0599  1.1116
  815MOL0     C 7507   0.903   5.732   3.727 -0.6067  0.1588 -0.2311
  815MOL0     C 7508   1.029   5.701   3.641  0.5050 -0.2299  0.5067
  815MOL0     C 7509   1.153   5.714   3.722 -0.4974  0.0038 -0.0443
  815MOL0     C 7510   1.218   5.589   3.764  0.7666  0.2756 -0.3684
  815MOL0     C 7511   1.349   5.626   3.815 -0.3237 -0.7175 -0.3493
  815MOL0     C 7512   1.464   5.663   3.840 -0.3140  0.0800 -0.5192
  815MOL0     C 7513   0.684   5.562   3.930  0.4304  0.5935  0.4107
  815MOL0     C 7514   0.583   5.582   4.028 -0.7948  0.0832 -0.3807
  815MOL0     H 7515   0.118   5.690   4.127  2.3428  1.6061 -1.3623
  815MOL0     H 7516  -0.067   5.765   4.287 -1.0856 -1.5834  1.8991
  815MOL0     H 7517   0.026   5.850   4.699 -0.9036  0.5255  3.0598
  815MOL0     H 7518  -0.066   5.699   4.722 -0.8150 -0.3363  0.4142
  815MOL0     H 7519  -0.173   5.982   4.669 -3.7280  1.4487  2.1464
  815MOL0     H 7520  -0.181   5.894   4.820  1.3887  5.2914 -0.0626
  815MOL0     H 7521  -0.307   5.713   4.740  3.4310 -1.4980 -2.1636
  815MOL0     H 7522  -0.306   5.781   4.576 -0.3848  1.0833  0.0703
  815MOL0     H 7523  -0.459   5.925   4.802  0.4141  2.1637 -0.6775
  815MOL0     H 7524  -0.421   5.982   4.643  1.3257  1.2182  1.9450
  815MOL0     H 7525  -0.564   5.709   4.705 -2.5832  0.6015  5.5008
  815MOL0     H 7526  -0.575   5.812   4.552 -1.6597  2.2067  0.2111
  815MOL0     H 7527  -0.682   5.985   4.678  0.7534 -0.5124  0.4358
  815MOL0     H 7528  -0.686   5.876   4.823 -0.0292 -4.3157  0.3998
  815MOL0     H 7529  -0.812   5.825   4.555  2.4605  0.6923 -0.4210
  815MOL0     H 7530  -0.799   5.705   4.687  2.8319 -0.0674 -2.8188
  815MOL0     H 7531  -0.949   5.981   4.683  1.0839  0.6418  0.5640
  815MOL0     H 7532  -0.914   5.905   4.835 -1.5438  1.5678 -0.0490
  815MOL0     H 7533  -1.127   5.853   4.524 -0.7927  0.1375  1.0197
  815MOL0     H 7534  -1.345   5.550   4.543  2.2744  0.6524  0.5981
  815MOL0     H 7535  -1.331   5.698   4.451 -0.5595  0.7138 -0.0703
  815MOL0     H 7536  -1.544   5.689   4.556  1.2016 -1.4601 -0.4537
  815MOL0     H 7537  -1.449   5.812   4.647 -0.2918  0.5755 -1.8951
  815MOL0     H 7538  -1.485   5.529   4.759 -0.3146 -0.4883  1.5425
  815MOL0     H 7539  -1.422   5.675   4.835  0.8190 -0.3760 -0.3744
  815MOL0     H 7540  -1.633   5.776   4.865 -0.8935  1.2153 -3.3097
  815MOL0     H 7541  -1.670   5.607   4.898 -0.8565  0.1251 -1.6662
  815MOL0     H 7542  -1.847   5.773   4.949 -2.8421  1.1172  2.9240
  815MOL0     H 7543  -2.071   5.808   4.991 -1.3405 -0.4451  0.6217
  815MOL0     H 7544  -2.544   5.523   4.657  0.3178  0.5140 -3.2311
  815MOL0     H 7545  -2.788   5.555   4.629  1.6528 -1.2462  1.1600
  815MOL0     H 7546  -3.087   5.866   4.799 -0.9921 -0.6711  0.0295
  815MOL0     H 7547  -2.936   5.872   4.884 -0.2960 -0.2439 -0.0376
  815MOL0     H 7548  -2.946   5.636   4.950 -1.1739  0.3362  2.0178
  815MOL0     H 7549  -3.063   5.597   4.823 -0.3883 -1.5488  2.5647
  815MOL0     H 7550  -3.147   5.790   5.043  0.4756 -0.6002  0.9882
  815MOL0     H 7551  -3.158   5.607   5.071  0.8976  0.1104  0.1401
  815MOL0     H 7552  -3.267   5.755   4.849  0.0098  0.0394 -1.5021
  815MOL0     H 7553  -3.273   5.581   4.891  4.0866  1.1920 -0.7376
  815MOL0     H 7554  -3.380   5.805   5.074 -0.5188 -0.3643  0.9716
  815MOL0     H 7555  -3.420   5.635   5.087 -2.3152  1.3961  0.0889
  815MOL0     H 7556  -3.545   5.623   4.884 -0.4630  0.7705 -1.0865
  815MOL0     H 7557  -3.508   5.782   4.849 -2.4229 -0.3599  0.5948
  815MOL0     H 7558  -3.643   5.854   5.064  0.7094  1.2658 -0.4048
  815MOL0     H 7559  -3.739   5.769   4.935 -0.4935 -0.7656  1.1961
  815MOL0     H 7560  -3.657   5.659   5.202  3.0755 -0.7511 -1.2478
  815MOL0     H 7561  -3.716   5.555   5.062 -3.8834 -0.3575  0.9141
  815MOL0     H 7562  -2.772   5.950   4.790 -0.1708 -1.1994 -0.0912
  815MOL0     H 7563  -2.522   5.946   4.792  0.5585 -0.9770  2.6170
  815MOL0     H 7564  -2.154   5.680   4.582  0.4362  3.9743 -1.7170
  815MOL0     H 7565  -1.899   5.652   4.546 -2.4746  1.2523 -0.8758
  815MOL0     H 7566   0.184   5.717   4.624  0.2863 -0.1853  0.1499
  815MOL0     H 7567   0.375   5.659   4.468 -1.7044 -2.1424  1.2200
  815MOL0     H 7568   0.686   5.865   4.171  0.0080  2.4167 -3.7575
  815MOL0     H 7569   0.876   5.835   4.014  0.5729 -0.4552  0.6651
  815MOL0     H 7570   0.910   5.836   3.761 -4.2059  0.5815 -0.4305
  815MOL0     H 7571   0.818   5.728   3.659  1.3247  1.2754 -2.8522
  815MOL0     H 7572   1.024   5.603   3.591  2.0750  1.0528 -2.4136
  815MOL0     H 7573   1.029   5.761   3.550 -0.9076 -2.5837 -1.1845
  815MOL0     H 7574   1.134   5.774   3.811  0.8985 -0.8690  0.8818
  815MOL0     H 7575   1.222   5.775   3.662  0.6797 -1.2700 -0.0467
  815MOL0     H 7576   1.165   5.546   3.850  1.4511  1.0401  0.4639
  815MOL0     H 7577   1.223   5.522   3.678  1.1070 -0.2908  0.0820
  815MOL0     H 7578   1.561   5.705   3.861 -0.9563  0.7336  1.3052
  815MOL0     H 7579   0.672   5.490   3.849 -2.2797  1.0458  0.2934
  815MOL0     H 7580   0.504   5.508   4.021  3.1664 -4.4764 -2.6154
  816MOL0     O 7581   9.767   6.428   7.762  0.0295 -0.5096 -0.9055
  816MOL0     C 7582   9.801   6.435   7.645 -0.0989  0.4128  0.6149
  816MOL0     O 7583   9.711   6.418   7.541 -1.0815  0.9414  0.0160
  816MOL0     C 7584   9.573   6.430   7.579  0.3688  0.5809 -0.3853
  816MOL0     C 7585   9.501   6.550   7.571 -0.2665  0.0210 -0.0819
  816MOL0     C 7586   9.362   6.557   7.602  1.2366  0.4209 -0.5045
  816MOL0     C 7587   9.290   6.443   7.644 -1.5064  1.0915  0.0935
  816MOL0     O 7588   9.153   6.446   7.674 -0.3413  0.1402  0.3499
  816MOL0     C 7589   9.086   6.567   7.629  0.6123  0.2485  0.0786
  816MOL0     C 7590   8.932   6.549   7.651 -0.4162 -0.7328 -0.4164
  816MOL0     C 7591   8.854   6.655   7.573  0.6224 -0.0007 -0.0370
  816MOL0     C 7592   8.700   6.643   7.592 -0.1165 -0.9978 -0.6872
  816MOL0     C 7593   8.633   6.761   7.525  0.2755  0.7909 -0.5653
  816MOL0     C 7594   8.477   6.754   7.510 -0.9874  0.5070  0.4083
  816MOL0     C 7595   8.406   6.849   7.611  0.2237 -0.0311  0.3003
  816MOL0     C 7596   8.257   6.800   7.616  1.0821 -0.6227 -0.3852
  816MOL0     N 7597   8.172   6.895   7.699 -0.1343 -0.1556 -1.0282
  816MOL0     C 7598   8.089   6.869   7.808  0.1789 -0.0259 -0.5922
  816MOL0     C 7599   7.997   6.960   7.817  0.3029 -0.5016  0.1129
  816MOL0     C 7600   7.890   6.958   7.919 -0.4473 -0.6834  0.6203
  816MOL0     C 7601   7.756   6.948   7.850 -0.1048  0.3579  0.2064
  816MOL0     C 7602   7.656   6.933   7.958  0.0839  0.5618 -0.2173
  816MOL0     C 7603   7.511   6.949   7.913  0.1740  0.1713 -0.2218
  816MOL0     O 7604   7.433   6.955   8.033 -0.5322  0.3692 -0.4668
  816MOL0     C 7605   7.296   6.949   8.017  0.2484 -0.1428  0.3652
  816MOL0     C 7606   7.234   7.030   7.923  0.1114  0.6503  0.4389
  816MOL0     C 7607   7.091   7.040   7.919 -0.3157  0.7894  0.3429
  816MOL0     C 7608   7.019   6.964   8.017  0.1580 -0.6125 -0.2473
  816MOL0     C 7609   6.874   6.989   8.022 -0.4352 -0.2564 -0.7182
  816MOL0     O 7610   6.815   6.943   8.142  0.6535  0.1444  0.4320
  816MOL0     C 7611   6.683   6.963   8.166  0.7685 -0.6731 -0.1313
  816MOL0     C 7612   6.613   6.872   8.243  0.0481 -0.5828  0.2054
  816MOL0     C 7613   6.478   6.900   8.281  0.2542 -0.0844 -0.3615
  816MOL0     C 7614   6.420   7.024   8.261  0.4916 -0.6784  0.5243
  816MOL0     O 7615   6.304   7.051   8.330 -0.6959  0.5321  0.1728
  816MOL0     C 7616   6.195   7.073   8.241  0.3373 -0.1677 -0.3341
  816MOL0     C 7617   6.100   7.174   8.301 -0.3420 -0.2663 -0.1601
  816MOL0     C 7618   5.960   7.150   8.241  0.0127  0.4358  0.1540
  816MOL0     C 7619   5.865   7.264   8.275 -0.4876 -0.5214  0.9609
  816MOL0     C 7620   5.724   7.247   8.220  0.3386  0.6918 -0.5629
  816MOL0     C 7621   5.649   7.390   8.210 -0.5280 -0.1926  0.7900
  816MOL0     C 7622   5.506   7.362   8.207  0.4935  0.6229  0.5343
  816MOL0     C 7623   5.427   7.489   8.253  0.0458 -0.8430 -1.1871
  816MOL0    Cl 7624   5.441   7.522   8.422  0.0904  0.0767  0.4797
  816MOL0     C 7625   6.499   7.129   8.202  0.0066 -0.3971 -0.8667
  816MOL0     C 7626   6.622   7.095   8.152 -0.1763  0.6329  0.1229
  816MOL0     O 7627   6.822   7.045   7.928  0.2956 -0.4618 -0.3171
  816MOL0     C 7628   7.085   6.888   8.115 -0.0497  0.2430  0.4285
  816MOL0     C 7629   7.223   6.875   8.108  0.6161 -0.0860 -1.1067
  816MOL0     N 7630   8.008   7.049   7.714 -0.7142  0.0017 -0.1619
  816MOL0     N 7631   8.117   7.013   7.646  0.9922 -0.0510  0.1213
  816MOL0     C 7632   9.363   6.327   7.670  0.3905  0.6100 -0.1617
  816MOL0     C 7633   9.501   6.327   7.631 -0.1529  0.5739 -0.3726
  816MOL0     C 7634   9.946   6.457   7.617  0.8091  0.5091  0.3726
  816MOL0     C 7635  10.019   6.511   7.721  0.0796 -0.3595 -0.1343
  816MOL0     C 7636  10.153   6.549   7.698 -0.0313 -0.5270 -0.2045
  816MOL0     C 7637  10.215   6.530   7.573 -0.0706  0.5004 -0.2021
  816MOL0     O 7638  10.343   6.563   7.555 -0.1972  0.1882  0.3747
  816MOL0     C 7639  10.442   6.458   7.565 -0.1810  0.3612 -0.1129
  816MOL0     C 7640  10.564   6.471   7.473  0.7272 -0.2246 -0.2263
  816MOL0     C 7641  10.525   6.470   7.318 -0.1500 -0.5876  0.8913
  816MOL0     C 7642  10.621   6.389   7.223 -0.4036 -0.1242 -0.3076
  816MOL0     C 7643  10.654   6.259   7.276  0.4058  0.0566  0.7058
  816MOL0     C 7644  10.696   6.156   7.316 -0.7022 -0.5309  0.1457
  816MOL0     C 7645  10.139   6.471   7.475  0.4105  0.4624  0.1327
  816MOL0     C 7646  10.006   6.437   7.499 -0.0200  0.0975  0.1346
  816MOL0     H 7647   9.547   6.640   7.533 -3.9458  2.4281  0.6279
  816MOL0     H 7648   9.318   6.656   7.605 -1.1933 -0.6085  1.1645
  816MOL0     H 7649   9.099   6.580   7.521  1.8322 -0.0511  0.1717
  816MOL0     H 7650   9.107   6.657   7.688 -0.1604  0.7863 -0.4497
  816MOL0     H 7651   8.916   6.548   7.759  1.8249  2.7238  0.0974
  816MOL0     H 7652   8.881   6.455   7.625 -1.6498  0.2950 -1.8954
  816MOL0     H 7653   8.879   6.635   7.468 -1.9148 -1.5955 -0.4158
  816MOL0     H 7654   8.891   6.756   7.593  0.3596  0.0255  0.3166
  816MOL0     H 7655   8.655   6.548   7.561 -3.4192 -0.2362  1.2725
  816MOL0     H 7656   8.677   6.650   7.699 -0.7606  2.9393 -0.9336
  816MOL0     H 7657   8.670   6.750   7.423  0.5027  2.7086 -0.7396
  816MOL0     H 7658   8.675   6.856   7.559 -2.1873  1.3345  1.2771
  816MOL0     H 7659   8.443   6.652   7.531 -5.1252  1.8080  0.9176
  816MOL0     H 7660   8.450   6.778   7.407  0.3925 -0.6729 -0.2638
  816MOL0     H 7661   8.451   6.853   7.711 -1.7094 -0.0921  1.2169
  816MOL0     H 7662   8.408   6.951   7.571 -0.1169 -1.3534 -3.5346
  816MOL0     H 7663   8.256   6.699   7.658 -0.9852  0.3410  2.1658
  816MOL0     H 7664   8.209   6.805   7.518 -1.4495  3.3305  0.8241
  816MOL0     H 7665   8.098   6.784   7.874 -0.9252  2.1450  2.6375
  816MOL0     H 7666   7.888   7.052   7.973 -1.7910 -1.3017  1.7109
  816MOL0     H 7667   7.901   6.873   7.987 -0.0980 -1.2894 -0.1773
  816MOL0     H 7668   7.743   6.863   7.782 -1.5221  1.2381 -0.6785
  816MOL0     H 7669   7.742   7.033   7.783  1.1426  0.3317 -0.1173
  816MOL0     H 7670   7.663   6.835   8.005 -1.7162  0.8461  0.7302
  816MOL0     H 7671   7.675   7.007   8.037 -0.8843  0.5388  0.0539
  816MOL0     H 7672   7.468   6.862   7.863 -3.4870  1.0574  1.0245
  816MOL0     H 7673   7.498   7.031   7.841 -0.8200 -0.9524 -1.3868
  816MOL0     H 7674   7.288   7.100   7.860 -1.6863  1.8682  0.1783
  816MOL0     H 7675   7.049   7.103   7.841 -1.7596 -2.3729 -1.6590
  816MOL0     H 7676   6.667   6.781   8.270  0.2626 -0.7385 -0.6949
  816MOL0     H 7677   6.431   6.824   8.343  0.8847 -2.0944 -2.2269
  816MOL0     H 7678   6.146   6.978   8.216  3.5464 -1.6360 -1.6712
  816MOL0     H 7679   6.221   7.122   8.147 -3.1054  0.9490 -0.8296
  816MOL0     H 7680   6.140   7.273   8.277  1.2077 -1.1796 -1.5999
  816MOL0     H 7681   6.094   7.163   8.410 -0.7492  1.2974 -0.0010
  816MOL0     H 7682   5.914   7.057   8.275  0.1449  0.7220  1.1217
  816MOL0     H 7683   5.979   7.148   8.133  2.8128  2.2153  0.4892
  816MOL0     H 7684   5.848   7.280   8.382 -3.3985  2.0371  0.2369
  816MOL0     H 7685   5.903   7.356   8.229  3.6178 -3.0348 -1.3109
  816MOL0     H 7686   5.662   7.180   8.280  0.6869  0.4695 -0.4452
  816MOL0     H 7687   5.738   7.205   8.120 -0.9025 -2.7456  0.5763
  816MOL0     H 7688   5.678   7.442   8.118  0.9069  0.1614  1.4251
  816MOL0     H 7689   5.678   7.461   8.288 -1.5947 -2.2801  3.2157
  816MOL0     H 7690   5.470   7.313   8.116 -1.2303 -3.6797  3.2680
  816MOL0     H 7691   5.476   7.288   8.281 -0.1291  0.2424 -0.0925
  816MOL0     H 7692   5.319   7.482   8.237 -0.2403 -0.8860  0.5699
  816MOL0     H 7693   5.466   7.580   8.206 -0.4519  0.3383  0.5517
  816MOL0     H 7694   6.453   7.225   8.183  3.2072  1.3686 -0.4490
  816MOL0     H 7695   6.694   7.165   8.111  1.1028 -0.5632  0.2583
  816MOL0     H 7696   7.025   6.839   8.191  0.3981 -0.6350  0.2239
  816MOL0     H 7697   7.279   6.817   8.181 -1.5543 -1.3299 -0.3429
  816MOL0     H 7698   9.331   6.230   7.707  2.9060 -0.8644 -1.5943
  816MOL0     H 7699   9.560   6.237   7.631  1.0743  1.3521  0.2782
  816MOL0     H 7700   9.973   6.530   7.817 -1.1550 -0.1076 -0.7557
  816MOL0     H 7701  10.213   6.597   7.774 -0.4739  1.6712 -1.1751
  816MOL0     H 7702  10.398   6.360   7.543 -0.6331  0.3372  0.8605
  816MOL0     H 7703  10.476   6.449   7.668  0.5464 -5.2655 -0.5411
  816MOL0     H 7704  10.620   6.562   7.498  0.5196 -0.9277  3.2339
  816MOL0     H 7705  10.636   6.399   7.513  0.6239  0.4819  1.3080
  816MOL0     H 7706  10.529   6.577   7.295  1.9704 -0.1715  2.8017
  816MOL0     H 7707  10.424   6.431   7.303  0.8673 -2.3752 -2.3587
  816MOL0     H 7708  10.587   6.378   7.119 -0.7345  1.6770 -0.4146
  816MOL0     H 7709  10.717   6.441   7.216  1.3342 -2.9621  0.4920
  816MOL0     H 7710  10.738   6.073   7.369  0.4569 -1.3135 -1.8784
  816MOL0     H 7711  10.179   6.448   7.377  2.5610 -2.4012  1.5282
  816MOL0     H 7712   9.936   6.392   7.429 -1.9533 -1.1547  2.6921
  817MOL0     O 7713   7.207   6.767   4.616 -0.6154  0.2787  0.2264
  817MOL0     C 7714   7.218   6.667   4.695 -0.0961 -0.3688 -0.8482
  817MOL0     O 7715   7.221   6.533   4.658 -0.3996 -0.1718  0.0166
  817MOL0     C 7716   7.227   6.518   4.529 -0.1646 -0.5358 -0.0792
  817MOL0     C 7717   7.109   6.496   4.462  1.0328 -0.3816  0.1806
  817MOL0     C 7718   7.119   6.482   4.319 -0.3347 -0.1318 -0.2523
  817MOL0     C 7719   7.247   6.480   4.258  0.9916 -0.3647  0.1719
  817MOL0     O 7720   7.239   6.487   4.121 -0.0364  0.4193 -0.2878
  817MOL0     C 7721   7.314   6.593   4.054  0.8589 -0.6190 -0.7007
  817MOL0     C 7722   7.252   6.608   3.919  0.2183  0.8835  0.5133
  817MOL0     C 7723   7.116   6.680   3.939  0.3470 -0.2292 -0.3735
  817MOL0     C 7724   7.105   6.789   3.831 -0.1927  0.5052  0.1891
  817MOL0     C 7725   7.016   6.898   3.866  0.0859  1.4481 -0.0525
  817MOL0     C 7726   6.997   6.986   3.749 -0.6020 -0.3103 -0.3283
  817MOL0     C 7727   6.865   7.072   3.762 -0.8595  0.4610  0.2200
  817MOL0     C 7728   6.873   7.177   3.646  0.1579 -0.4496 -0.3206
  817MOL0     N 7729   6.743   7.209   3.583 -0.6606 -0.1092  0.4529
  817MOL0     C 7730   6.690   7.337   3.566 -0.2444 -0.1175 -0.5368
  817MOL0     C 7731   6.589   7.321   3.478  0.1860 -0.2244 -0.6494
  817MOL0     C 7732   6.504   7.431   3.416 -0.4014  0.0713 -0.6573
  817MOL0     C 7733   6.368   7.384   3.401 -0.0628 -0.1011  0.2422
  817MOL0     C 7734   6.283   7.479   3.313 -0.0266 -0.0327  0.5868
  817MOL0     C 7735   6.261   7.609   3.388  0.4852  0.4322 -0.7169
  817MOL0     O 7736   6.143   7.680   3.329 -0.4197  0.1362  0.3393
  817MOL0     C 7737   6.023   7.651   3.385  0.2611 -0.5105  0.3902
  817MOL0     C 7738   5.920   7.730   3.346 -0.3757  0.1031  0.5175
  817MOL0     C 7739   5.793   7.740   3.410 -0.3330  0.4473 -0.1713
  817MOL0     C 7740   5.757   7.636   3.492  0.0529 -0.3909 -1.2632
  817MOL0     C 7741   5.621   7.620   3.544  0.0409 -0.0524  0.4193
  817MOL0     O 7742   5.600   7.522   3.637 -0.6372 -0.0288 -0.2993
  817MOL0     C 7743   5.481   7.485   3.692  0.4380 -0.6226  0.2509
  817MOL0     C 7744   5.483   7.415   3.818 -0.2337  0.3584 -0.1257
  817MOL0     C 7745   5.369   7.369   3.883 -0.1210 -0.1944 -0.2815
  817MOL0     C 7746   5.243   7.403   3.828 -0.5583  0.1339  0.6639
  817MOL0     O 7747   5.127   7.354   3.875  0.1000 -0.5060 -0.7212
  817MOL0     C 7748   5.010   7.436   3.871 -0.7378 -0.9456  0.0983
  817MOL0     C 7749   4.919   7.395   3.974 -0.5167  0.2643 -0.6836
  817MOL0     C 7750   4.872   7.250   3.961  0.0099 -0.0237  0.5173
  817MOL0     C 7751   4.804   7.175   4.074 -0.4478  0.1820 -0.7170
  817MOL0     C 7752   4.745   7.034   4.026 -0.8639  0.2336  0.0756
  817MOL0     C 7753   4.585   7.042   4.023 -1.2373 -0.1634  0.0895
  817MOL0     C 7754   4.533   6.910   3.971  0.7704  1.0414  0.2787
  817MOL0     C 7755   4.391   6.926   3.927  1.2107  0.1315 -0.2933
  817MOL0    Cl 7756   4.308   6.770   3.877  0.0389 -0.1888  0.3684
  817MOL0     C 7757   5.245   7.486   3.711 -0.6662  0.1503  0.1615
  817MOL0     C 7758   5.357   7.528   3.641 -0.6347  0.0208  0.3460
  817MOL0     O 7759   5.536   7.688   3.489  0.5636  0.4258 -0.3365
  817MOL0     C 7760   5.859   7.542   3.529 -0.6172 -0.1249  0.1840
  817MOL0     C 7761   5.987   7.550   3.470  0.1728  1.0489 -0.3058
  817MOL0     N 7762   6.574   7.190   3.447  0.2763 -0.9530 -0.3688
  817MOL0     N 7763   6.666   7.125   3.512  0.0248 -0.2032 -0.3004
  817MOL0     C 7764   7.363   6.483   4.326 -0.0603 -0.8014 -0.2404
  817MOL0     C 7765   7.353   6.504   4.459 -0.6241 -0.0795 -0.4845
  817MOL0     C 7766   7.239   6.684   4.847  0.0964 -0.7854  0.5436
  817MOL0     C 7767   7.236   6.816   4.898 -0.0159 -0.4311 -0.2093
  817MOL0     C 7768   7.251   6.839   5.037  0.1390  0.0070 -0.8578
  817MOL0     C 7769   7.255   6.734   5.127 -0.1956  0.4685  0.4944
  817MOL0     O 7770   7.261   6.743   5.266 -0.0503  0.0896 -0.4550
  817MOL0     C 7771   7.207   6.849   5.335  0.2547  0.4892  0.1337
  817MOL0     C 7772   7.164   6.814   5.480 -0.2665 -0.0377  0.0582
  817MOL0     C 7773   7.281   6.782   5.570  0.4448  0.1077 -0.1538
  817MOL0     C 7774   7.397   6.886   5.553  0.2876 -0.5433  0.9201
  817MOL0     C 7775   7.494   6.850   5.666  0.1860  0.2145  0.7230
  817MOL0     C 7776   7.586   6.829   5.738 -0.3579  1.0951 -0.5600
  817MOL0     C 7777   7.253   6.601   5.073 -0.5799 -0.5648  0.1090
  817MOL0     C 7778   7.244   6.576   4.940 -0.4207  0.0184  0.5010
  817MOL0     H 7779   7.016   6.499   4.519  1.0291 -0.8319  0.2044
  817MOL0     H 7780   7.035   6.467   4.251  0.4160 -0.7279 -1.0719
  817MOL0     H 7781   7.417   6.570   4.025  1.2905  1.3957 -0.8478
  817MOL0     H 7782   7.304   6.687   4.109  0.2358  0.0343 -1.9011
  817MOL0     H 7783   7.237   6.514   3.867  1.6975 -0.1079  1.7915
  817MOL0     H 7784   7.317   6.668   3.856  1.7438 -1.3926 -0.1835
  817MOL0     H 7785   7.111   6.731   4.036 -0.6431 -3.5673  1.4835
  817MOL0     H 7786   7.028   6.616   3.923  0.4703  0.0027 -2.2141
  817MOL0     H 7787   7.208   6.824   3.822  0.8270 -2.2070  0.5462
  817MOL0     H 7788   7.070   6.742   3.739  0.3309  0.2225  0.1329
  817MOL0     H 7789   7.048   6.961   3.950  2.0520  1.0011 -0.4234
  817MOL0     H 7790   6.913   6.868   3.884  0.3810  1.8466  2.8889
  817MOL0     H 7791   6.987   6.927   3.658 -0.4352 -0.8546  0.0018
  817MOL0     H 7792   7.079   7.057   3.739 -0.9674  0.4529  1.5892
  817MOL0     H 7793   6.777   7.010   3.748  0.8599 -1.6371 -2.1830
  817MOL0     H 7794   6.857   7.131   3.855 -2.9814  0.7771 -0.1193
  817MOL0     H 7795   6.929   7.134   3.562 -1.7075  0.8890 -2.3263
  817MOL0     H 7796   6.914   7.270   3.685 -1.4952  1.0767 -2.0496
  817MOL0     H 7797   6.722   7.433   3.604  3.0544 -0.6572 -1.5462
  817MOL0     H 7798   6.544   7.437   3.315  0.5497 -2.0589 -0.4476
  817MOL0     H 7799   6.517   7.517   3.483  2.0435 -1.2641  0.7169
  817MOL0     H 7800   6.313   7.375   3.496 -1.3705  1.4557 -0.3199
  817MOL0     H 7801   6.373   7.289   3.347 -1.0488  0.3389 -0.6578
  817MOL0     H 7802   6.324   7.507   3.216 -0.8395 -0.4707  0.1034
  817MOL0     H 7803   6.187   7.431   3.291  0.0055  0.2706 -0.2433
  817MOL0     H 7804   6.348   7.675   3.390 -0.0374  1.2036 -1.7691
  817MOL0     H 7805   6.241   7.608   3.495 -1.2530  3.5500 -0.9112
  817MOL0     H 7806   5.937   7.810   3.274  0.2978  1.0653  1.7106
  817MOL0     H 7807   5.725   7.822   3.392 -1.4906 -0.5923 -0.6466
  817MOL0     H 7808   5.579   7.387   3.861  0.8118  2.6428 -0.7975
  817MOL0     H 7809   5.366   7.302   3.967 -0.2430 -0.3361 -0.3983
  817MOL0     H 7810   4.956   7.425   3.777  1.8328 -1.0150 -1.4674
  817MOL0     H 7811   5.023   7.543   3.890  0.7115 -0.9067 -0.9171
  817MOL0     H 7812   4.829   7.457   3.976 -2.4267 -2.3655  0.4780
  817MOL0     H 7813   4.978   7.402   4.066  0.0461 -0.5823 -0.9730
  817MOL0     H 7814   4.958   7.194   3.923 -0.2189  0.6480 -1.0888
  817MOL0     H 7815   4.804   7.240   3.876  0.9585  2.8043 -0.6900
  817MOL0     H 7816   4.880   7.158   4.151 -0.4056 -3.1582 -1.3559
  817MOL0     H 7817   4.725   7.238   4.117  0.3318  1.2617 -0.8133
  817MOL0     H 7818   4.776   6.965   4.104 -0.5880 -0.2902 -0.4942
  817MOL0     H 7819   4.778   7.001   3.927  2.5903  1.0451  0.8225
  817MOL0     H 7820   4.559   7.131   3.964  0.6202  0.3771  0.0194
  817MOL0     H 7821   4.549   7.055   4.125  0.7454  0.9550  0.7160
  817MOL0     H 7822   4.594   6.851   3.902  0.1119  0.2367  0.3705
  817MOL0     H 7823   4.530   6.845   4.058 -2.7815 -2.1657 -1.9567
  817MOL0     H 7824   4.387   6.991   3.839  3.2940 -0.4900 -0.9102
  817MOL0     H 7825   4.330   6.969   4.007  1.0909 -1.3962  0.4727
  817MOL0     H 7826   5.153   7.526   3.671 -0.5447  1.4738  1.1466
  817MOL0     H 7827   5.344   7.594   3.556  0.3202  1.0733  0.9793
  817MOL0     H 7828   5.834   7.452   3.585  0.2843 -0.2550  0.3900
  817MOL0     H 7829   6.061   7.486   3.518  0.1530 -0.0208 -1.6477
  817MOL0     H 7830   7.461   6.477   4.278  1.6765  1.6681  2.6293
  817MOL0     H 7831   7.450   6.502   4.507 -1.8244 -1.7248  2.0633
  817MOL0     H 7832   7.211   6.898   4.831  0.4629 -0.1575 -0.0631
  817MOL0     H 7833   7.244   6.941   5.071 -1.1228 -0.6841  1.1231
  817MOL0     H 7834   7.116   6.878   5.281 -0.0828  0.9474  0.9295
  817MOL0     H 7835   7.267   6.940   5.327  0.4604  0.6642  2.8543
  817MOL0     H 7836   7.104   6.893   5.527 -0.7415 -1.6624  2.2993
  817MOL0     H 7837   7.109   6.720   5.479 -1.8706  0.8551  0.9401
  817MOL0     H 7838   7.329   6.686   5.548  0.4540  0.1001 -0.1001
  817MOL0     H 7839   7.250   6.780   5.675  1.0914  0.9951  0.0733
  817MOL0     H 7840   7.446   6.859   5.459  0.9837 -2.5000  1.7990
  817MOL0     H 7841   7.364   6.990   5.559  1.2125 -0.2259  0.6751
  817MOL0     H 7842   7.662   6.806   5.810  0.7631 -2.4009 -2.6181
  817MOL0     H 7843   7.243   6.511   5.133 -1.5096 -1.0250 -0.6978
  817MOL0     H 7844   7.238   6.471   4.916 -0.9354 -0.0063  0.7303
  818MOL0     O 7845   8.994   9.138   8.829 -0.4319  0.5465 -0.3444
  818MOL0     C 7846   9.042   9.251   8.828  0.5435  0.2497  0.4281
  818MOL0     O 7847   8.972   9.364   8.812  0.6207  0.1526  0.3129
  818MOL0     C 7848   8.833   9.372   8.779  0.3232  0.5675 -0.4874
  818MOL0     C 7849   8.763   9.273   8.699  0.4770  0.0665 -0.0100
  818MOL0     C 7850   8.623   9.273   8.696  0.2283 -1.0680  0.0344
  818MOL0     C 7851   8.548   9.370   8.766  0.5879  0.6520 -0.3749
  818MOL0     O 7852   8.411   9.388   8.762  0.2724 -0.4100  1.5102
  818MOL0     C 7853   8.334   9.299   8.681  0.2840  0.6985 -0.0094
  818MOL0     C 7854   8.181   9.298   8.722 -0.0742 -0.0171  1.0120
  818MOL0     C 7855   8.175   9.244   8.860  0.7999 -0.5194 -0.8032
  818MOL0     C 7856   8.040   9.243   8.944 -0.7950 -0.0104 -0.1022
  818MOL0     C 7857   7.928   9.159   8.872  0.4224 -0.5046 -0.1675
  818MOL0     C 7858   7.803   9.112   8.957  0.6874 -0.6944 -0.7035
  818MOL0     C 7859   7.693   9.074   8.864 -0.6554 -0.3233  0.1479
  818MOL0     C 7860   7.625   8.950   8.922 -0.6542 -0.1453  0.1890
  818MOL0     N 7861   7.517   8.897   8.843  0.3395  0.2059  0.1272
  818MOL0     C 7862   7.406   8.968   8.817 -0.1918 -0.8996  0.1658
  818MOL0     C 7863   7.328   8.887   8.745  0.1333  0.9184  0.0522
  818MOL0     C 7864   7.193   8.922   8.690  0.2476  0.0358  1.3575
  818MOL0     C 7865   7.077   8.923   8.791  0.0425 -0.5564 -0.1656
  818MOL0     C 7866   7.067   8.795   8.868 -0.4533 -0.1687 -0.3473
  818MOL0     C 7867   6.955   8.798   8.974  0.0545  0.5786  1.1455
  818MOL0     O 7868   6.823   8.809   8.903  1.2712 -0.0106 -0.0613
  818MOL0     C 7869   6.727   8.884   8.974 -0.2876 -0.6775 -0.4335
  818MOL0     C 7870   6.639   8.973   8.899  0.1510  1.1154 -0.8156
  818MOL0     C 7871   6.535   9.039   8.968  0.0959  0.2922 -0.8055
  818MOL0     C 7872   6.530   9.035   9.108  0.1672  0.6199  0.3940
  818MOL0     C 7873   6.431   9.099   9.192 -0.0874  0.6994 -0.3397
  818MOL0     O 7874   6.383   9.213   9.128  0.2674  0.2845 -0.4613
  818MOL0     C 7875   6.272   9.267   9.192 -0.4369 -0.0023 -0.3781
  818MOL0     C 7876   6.265   9.403   9.191 -0.0192  0.3017 -0.5975
  818MOL0     C 7877   6.160   9.461   9.260 -0.3264 -0.6792 -0.1510
  818MOL0     C 7878   6.060   9.383   9.316 -0.4297  0.5646 -0.5119
  818MOL0     O 7879   5.959   9.428   9.394 -0.0066  0.6285  0.0874
  818MOL0     C 7880   5.935   9.568   9.396 -0.1846  0.4459 -0.3568
  818MOL0     C 7881   5.810   9.587   9.476  0.6070  0.4000  0.2838
  818MOL0     C 7882   5.761   9.734   9.483  0.4289  0.5806  0.4629
  818MOL0     C 7883   5.666   9.750   9.596  1.2645 -0.6017  0.5011
  818MOL0     C 7884   5.589   9.881   9.577 -1.2048  0.0910  1.0468
  818MOL0     C 7885   5.548   9.943   9.710  0.5032 -0.5513  0.7051
  818MOL0     C 7886   5.631  10.072   9.733 -0.1522 -1.1294 -0.6738
  818MOL0     C 7887   5.587  10.154   9.855 -0.1180  0.2370  0.3227
  818MOL0    Cl 7888   5.403  10.179   9.844 -0.0222 -0.3715  0.0357
  818MOL0     C 7889   6.058   9.249   9.293  0.6403  0.3673  0.0645
  818MOL0     C 7890   6.163   9.189   9.232 -0.3872 -0.2690  0.1331
  818MOL0     O 7891   6.409   9.068   9.303  0.6201  0.4770 -0.0092
  818MOL0     C 7892   6.620   8.958   9.170 -0.8801  0.9703  0.6648
  818MOL0     C 7893   6.726   8.889   9.106 -0.3293 -0.2059 -0.4529
  818MOL0     N 7894   7.391   8.773   8.716 -0.2826 -0.3076 -0.0180
  818MOL0     N 7895   7.501   8.781   8.784  0.0260 -0.0340  0.2328
  818MOL0     C 7896   8.620   9.454   8.850  0.3539  0.1836  0.5504
  818MOL0     C 7897   8.754   9.454   8.856  0.1259 -0.5755 -0.4587
  818MOL0     C 7898   9.190   9.250   8.839  0.0141  0.4912 -0.6695
  818MOL0     C 7899   9.262   9.360   8.801  0.2323  0.3627  0.4512
  818MOL0     C 7900   9.406   9.365   8.820  0.3383 -0.0987  0.3053
  818MOL0     C 7901   9.474   9.255   8.868  0.1458  0.3358  0.0953
  818MOL0     O 7902   9.598   9.247   8.904  0.0237 -0.4444 -0.5040
  818MOL0     C 7903   9.670   9.365   8.935 -0.8533  0.5123  0.4822
  818MOL0     C 7904   9.795   9.342   9.025 -0.5484  0.0647 -0.2617
  818MOL0     C 7905   9.919   9.314   8.941  0.7985  0.2896 -0.3111
  818MOL0     C 7906  10.030   9.248   9.020  0.2636 -0.8156 -0.2272
  818MOL0     C 7907  10.121   9.344   9.093 -0.5491  0.2390 -0.0520
  818MOL0     C 7908  10.185   9.433   9.148  0.8985 -0.1748  0.1590
  818MOL0     C 7909   9.402   9.130   8.881  0.5825  0.7989 -0.5783
  818MOL0     C 7910   9.263   9.125   8.868  0.7001 -1.0283 -0.0624
  818MOL0     H 7911   8.818   9.191   8.655  1.8825  0.8175  0.2864
  818MOL0     H 7912   8.582   9.204   8.622 -3.3054 -0.0750  0.8566
  818MOL0     H 7913   8.368   9.196   8.700  0.8251  1.1660  1.7526
  818MOL0     H 7914   8.335   9.335   8.578  0.6453  0.3183 -0.1414
  818MOL0     H 7915   8.127   9.227   8.658 -0.4730  1.8256 -0.7865
  818MOL0     H 7916   8.151   9.403   8.727  1.0017  0.3272  0.4718
  818MOL0     H 7917   8.243   9.301   8.924  0.2627 -0.0271 -0.6614
  818MOL0     H 7918   8.209   9.141   8.861 -0.5741 -1.0015  0.6467
  818MOL0     H 7919   8.059   9.199   9.042 -1.2222  0.1307  0.0480
  818MOL0     H 7920   8.009   9.347   8.956 -0.5915 -0.1470  1.9434
  818MOL0     H 7921   7.979   9.071   8.831 -0.2418 -2.1363  2.3081
  818MOL0     H 7922   7.886   9.216   8.789  0.5807 -0.9619 -0.5678
  818MOL0     H 7923   7.766   9.187   9.027  0.5641  0.9368 -2.4481
  818MOL0     H 7924   7.830   9.029   9.023 -1.3883  0.5062  1.8460
  818MOL0     H 7925   7.624   9.158   8.853 -0.2607  0.3521  2.3264
  818MOL0     H 7926   7.730   9.040   8.767  0.7451 -3.1484  1.5436
  818MOL0     H 7927   7.604   8.972   9.027 -0.5869  1.3854 -0.0988
  818MOL0     H 7928   7.711   8.882   8.916  2.0269  3.0507 -0.5837
  818MOL0     H 7929   7.390   9.070   8.851  1.1542 -0.9259  0.9353
  818MOL0     H 7930   7.171   8.847   8.613 -0.7410  0.7956  0.8799
  818MOL0     H 7931   7.197   9.020   8.643 -0.1749 -0.5995 -0.0759
  818MOL0     H 7932   6.992   8.941   8.725  0.6107  2.1889 -0.2667
  818MOL0     H 7933   7.087   9.008   8.859  1.7255  1.1900 -2.4268
  818MOL0     H 7934   7.050   8.709   8.803 -0.0889  1.6975 -3.1028
  818MOL0     H 7935   7.165   8.781   8.913 -0.1042  1.4124 -0.5577
  818MOL0     H 7936   6.970   8.887   9.036 -3.5284  2.1873 -0.0313
  818MOL0     H 7937   6.960   8.717   9.046 -1.5554  1.3101  2.1452
  818MOL0     H 7938   6.636   8.990   8.792 -0.3866 -1.8621 -1.3602
  818MOL0     H 7939   6.454   9.089   8.916  0.2483  0.3502 -0.9858
  818MOL0     H 7940   6.345   9.470   9.160  1.0225 -1.0806 -0.9826
  818MOL0     H 7941   6.170   9.568   9.277 -1.2240 -0.4288 -1.1527
  818MOL0     H 7942   5.913   9.611   9.298 -2.5796 -0.2192 -0.1684
  818MOL0     H 7943   6.016   9.627   9.440  2.0313 -1.3172 -1.8714
  818MOL0     H 7944   5.828   9.546   9.576  0.0885 -3.8603 -1.1641
  818MOL0     H 7945   5.727   9.531   9.432  0.2368  0.8766  0.3672
  818MOL0     H 7946   5.708   9.747   9.387 -1.8886 -2.2654  1.2031
  818MOL0     H 7947   5.846   9.802   9.490  2.1786 -1.1560 -2.1031
  818MOL0     H 7948   5.596   9.667   9.585  0.8986 -0.5527  2.1925
  818MOL0     H 7949   5.708   9.740   9.697 -1.2688 -2.3584  1.4860
  818MOL0     H 7950   5.500   9.877   9.514 -0.6679 -0.3319  0.2909
  818MOL0     H 7951   5.659   9.946   9.524 -2.1924 -0.1651 -0.6481
  818MOL0     H 7952   5.579   9.879   9.794  1.6290 -2.4441 -1.0369
  818MOL0     H 7953   5.440   9.946   9.722  0.7150 -0.2205  3.1561
  818MOL0     H 7954   5.737  10.047   9.741  0.1247  0.5325  1.8486
  818MOL0     H 7955   5.626  10.146   9.652 -0.1831  0.6947  0.9252
  818MOL0     H 7956   5.639  10.251   9.851  0.2009  0.0417 -0.4253
  818MOL0     H 7957   5.614  10.109   9.951 -0.0399  0.9593  0.6465
  818MOL0     H 7958   5.975   9.186   9.325 -0.0296 -0.1029 -2.3451
  818MOL0     H 7959   6.178   9.082   9.221 -0.7346 -0.1908 -1.2351
  818MOL0     H 7960   6.638   8.964   9.277  2.7277 -0.8507  0.3282
  818MOL0     H 7961   6.794   8.832   9.168  1.7350 -0.6651 -2.9651
  818MOL0     H 7962   8.575   9.530   8.912  0.6916  2.1831 -1.5381
  818MOL0     H 7963   8.790   9.531   8.924  2.8127 -1.2885 -0.9874
  818MOL0     H 7964   9.220   9.456   8.774 -1.4210  0.1495  2.0574
  818MOL0     H 7965   9.461   9.456   8.797 -1.4809  1.3421  1.4110
  818MOL0     H 7966   9.604   9.438   8.982 -1.7760  0.8450 -1.2675
  818MOL0     H 7967   9.696   9.416   8.842 -0.3877 -1.6655 -0.6463
  818MOL0     H 7968   9.812   9.437   9.076 -3.2478  1.2095 -1.3191
  818MOL0     H 7969   9.767   9.258   9.089 -2.2530  2.0719  1.8079
  818MOL0     H 7970   9.962   9.406   8.901 -1.3269  1.8083  0.7261
  818MOL0     H 7971   9.890   9.236   8.869  0.5527 -0.7579  0.8817
  818MOL0     H 7972   9.998   9.179   9.099 -0.5391  1.2180  1.2912
  818MOL0     H 7973  10.096   9.200   8.947 -1.0631 -3.4022  0.1367
  818MOL0     H 7974  10.245   9.508   9.195  0.4950  0.5113 -0.4049
  818MOL0     H 7975   9.459   9.043   8.912 -0.0483  0.8721  0.8912
  818MOL0     H 7976   9.209   9.032   8.879  3.9416 -2.8279  2.2036
  819MOL0     O 7977   7.185   7.460  10.573 -0.0768 -0.4100  0.3750
  819MOL0     C 7978   7.210   7.573  10.611  0.5907 -0.3915  0.4325
  819MOL0     O 7979   7.120   7.678  10.608 -0.1523  0.1228  0.0585
  819MOL0     C 7980   6.991   7.671  10.567 -0.6505 -0.3277  0.2018
  819MOL0     C 7981   6.907   7.558  10.572  0.5802 -0.1553 -0.0110
  819MOL0     C 7982   6.776   7.578  10.536  0.0238 -0.3653 -0.0836
  819MOL0     C 7983   6.726   7.700  10.508  0.5590 -0.0762  0.0551
  819MOL0     O 7984   6.588   7.712  10.507  0.6013 -0.4068  0.2458
  819MOL0     C 7985   6.517   7.822  10.440  0.3744  0.5691  0.0770
  819MOL0     C 7986   6.368   7.797  10.454  0.7776  0.5153  0.8151
  819MOL0     C 7987   6.297   7.883  10.353 -0.6178 -0.3802 -1.0068
  819MOL0     C 7988   6.155   7.848  10.335 -0.0725 -0.0693 -0.2993
  819MOL0     C 7989   6.101   7.876  10.192 -0.0388 -0.0419 -0.7811
  819MOL0     C 7990   5.950   7.843  10.199 -0.4107 -0.1030 -0.4130
  819MOL0     C 7991   5.868   7.871  10.077 -0.0978  0.1107  0.4175
  819MOL0     C 7992   5.832   8.016  10.063  0.3476  1.0471 -0.1782
  819MOL0     N 7993   5.752   8.032   9.945  0.1925  0.9529  0.0412
  819MOL0     C 7994   5.785   8.018   9.815  0.4705  0.0284 -0.0576
  819MOL0     C 7995   5.667   8.028   9.745 -0.4343 -0.6524 -0.2440
  819MOL0     C 7996   5.644   8.028   9.599 -0.4562 -0.4957 -0.0249
  819MOL0     C 7997   5.549   7.921   9.553 -0.0386 -0.2973  0.0904
  819MOL0     C 7998   5.404   7.938   9.586 -0.0491  0.4999  0.1725
  819MOL0     C 7999   5.303   7.863   9.496  0.6373  0.5958  0.2268
  819MOL0     O 8000   5.327   7.903   9.355 -0.8963  0.6399 -0.1468
  819MOL0     C 8001   5.274   7.836   9.248 -0.5453  0.2613  0.3285
  819MOL0     C 8002   5.292   7.892   9.122 -0.4149  0.3700 -0.2775
  819MOL0     C 8003   5.255   7.822   9.005  0.2848  0.0172  0.3545
  819MOL0     C 8004   5.177   7.697   9.017  0.2090 -0.2459 -0.3087
  819MOL0     C 8005   5.124   7.634   8.898  0.6309 -0.5525  0.7997
  819MOL0     O 8006   5.101   7.504   8.912  0.8225  0.1109  0.9419
  819MOL0     C 8007   5.093   7.429   8.794 -0.4112 -0.0232 -0.6583
  819MOL0     C 8008   4.981   7.340   8.772  0.1135 -0.2991  0.2409
  819MOL0     C 8009   4.983   7.264   8.649 -0.3447 -0.5584  0.1732
  819MOL0     C 8010   5.089   7.264   8.560  0.1579  0.6327 -0.3065
  819MOL0     O 8011   5.098   7.193   8.442  0.4126 -0.6619 -0.1209
  819MOL0     C 8012   5.072   7.059   8.481  0.3034 -0.7720  0.0982
  819MOL0     C 8013   5.122   6.967   8.368  0.7413  0.1666 -0.5077
  819MOL0     C 8014   5.250   6.991   8.311  0.3557 -0.4977  0.5582
  819MOL0     C 8015   5.355   7.001   8.431 -0.2006 -1.3899 -0.2291
  819MOL0     C 8016   5.488   6.938   8.383 -0.3978 -0.0118 -0.1460
  819MOL0     C 8017   5.605   6.954   8.483  0.3268 -0.5642 -0.4351
  819MOL0     C 8018   5.721   6.867   8.429  0.3117  0.6020 -0.1259
  819MOL0     C 8019   5.836   6.882   8.521 -0.6597  0.0291  0.2965
  819MOL0    Cl 8020   5.995   6.851   8.452 -0.5053 -0.2744  0.4294
  819MOL0     C 8021   5.195   7.348   8.595 -0.8224 -0.7268 -0.6615
  819MOL0     C 8022   5.200   7.431   8.703 -0.8541 -0.1434 -0.8192
  819MOL0     O 8023   5.114   7.699   8.800 -0.4248  0.2173  0.7915
  819MOL0     C 8024   5.142   7.654   9.147  0.1509 -0.9790 -0.3038
  819MOL0     C 8025   5.197   7.716   9.256  0.4073 -0.6488 -0.3324
  819MOL0     N 8026   5.566   8.062   9.840 -0.6208  0.0439  0.4807
  819MOL0     N 8027   5.622   8.068   9.959  0.7826 -0.6196  0.5500
  819MOL0     C 8028   6.810   7.805  10.490  0.5081  0.1189 -0.2918
  819MOL0     C 8029   6.945   7.795  10.518  0.5160  1.0236  0.5823
  819MOL0     C 8030   7.343   7.589  10.683 -0.4166  0.0618 -0.3307
  819MOL0     C 8031   7.387   7.718  10.722 -0.4745  0.4290 -0.5474
  819MOL0     C 8032   7.509   7.741  10.791  0.3109 -0.0016  0.5154
  819MOL0     C 8033   7.595   7.631  10.813  0.1079  0.3815 -0.2290
  819MOL0     O 8034   7.726   7.631  10.860  0.0863 -0.1332 -0.1000
  819MOL0     C 8035   7.773   7.758  10.890  0.3782  0.5517  0.2409
  819MOL0     C 8036   7.893   7.745  10.981 -0.4646  0.2993 -0.4436
  819MOL0     C 8037   7.853   7.697  11.128  0.0078  0.2465 -0.0019
  819MOL0     C 8038   7.801   7.818  11.213 -0.3240 -0.2030 -0.0081
  819MOL0     C 8039   7.652   7.832  11.220 -0.2538  0.8281  0.5357
  819MOL0     C 8040   7.528   7.836  11.230  0.8315  0.8977 -0.0968
  819MOL0     C 8041   7.553   7.505  10.768  0.6021 -0.0602  0.5796
  819MOL0     C 8042   7.433   7.489  10.709  0.0283 -0.0053 -1.4206
  819MOL0     H 8043   6.945   7.463  10.607  1.1684 -1.0180 -2.7387
  819MOL0     H 8044   6.707   7.494  10.530  1.1036 -1.6516  3.2076
  819MOL0     H 8045   6.534   7.810  10.332 -3.0620 -1.5902 -0.4062
  819MOL0     H 8046   6.556   7.917  10.476 -3.0700  1.7818  1.0491
  819MOL0     H 8047   6.332   7.830  10.552 -2.2083 -0.3760  0.1068
  819MOL0     H 8048   6.345   7.691  10.439  1.2700  0.8305 -3.1962
  819MOL0     H 8049   6.343   7.865  10.255 -0.7043 -0.0747 -1.1061
  819MOL0     H 8050   6.321   7.987  10.379  0.9436 -1.0874  0.5715
  819MOL0     H 8051   6.134   7.742  10.350 -2.8765  0.1325 -2.0292
  819MOL0     H 8052   6.093   7.897  10.410 -0.7528 -0.2247 -0.7493
  819MOL0     H 8053   6.141   7.806  10.118  3.2267 -0.3108  1.0438
  819MOL0     H 8054   6.120   7.979  10.160  2.5453  1.3983  4.2793
  819MOL0     H 8055   5.912   7.895  10.288 -0.3253  0.8879 -0.9402
  819MOL0     H 8056   5.933   7.740  10.230  0.3046 -0.2812 -0.5936
  819MOL0     H 8057   5.907   7.831   9.983 -1.8892 -0.4827 -0.1150
  819MOL0     H 8058   5.776   7.813  10.083 -0.7416  1.1077  0.3589
  819MOL0     H 8059   5.931   8.058  10.043  0.9009  0.0016  0.2706
  819MOL0     H 8060   5.792   8.062  10.154  1.9933 -2.7406  2.7242
  819MOL0     H 8061   5.886   7.998   9.780  0.4291 -1.3627  0.5291
  819MOL0     H 8062   5.738   8.003   9.549 -0.4613 -0.8678  0.1473
  819MOL0     H 8063   5.623   8.131   9.569 -1.5831 -0.6711  0.1162
  819MOL0     H 8064   5.582   7.820   9.579 -0.8593 -1.2161 -2.2512
  819MOL0     H 8065   5.563   7.934   9.446  2.3932  0.8298  0.4732
  819MOL0     H 8066   5.389   7.912   9.691 -0.1409  3.5103  1.0135
  819MOL0     H 8067   5.391   8.046   9.575  1.0400  0.4785 -1.7872
  819MOL0     H 8068   5.203   7.879   9.537  2.0594  1.2193  3.8078
  819MOL0     H 8069   5.330   7.757   9.505 -1.9019  0.0069  2.0790
  819MOL0     H 8070   5.352   7.980   9.102 -0.0747 -0.4064 -3.2305
  819MOL0     H 8071   5.266   7.857   8.903 -1.2874  0.5180  0.3231
  819MOL0     H 8072   4.910   7.348   8.853  2.7946  1.5140  2.5807
  819MOL0     H 8073   4.896   7.208   8.615 -0.7167  0.2631 -0.2690
  819MOL0     H 8074   4.966   7.044   8.502 -0.4001  2.2961 -0.7005
  819MOL0     H 8075   5.127   7.036   8.572  0.8785 -0.9122 -0.2759
  819MOL0     H 8076   5.055   6.987   8.284  0.0940 -1.1520 -0.3270
  819MOL0     H 8077   5.100   6.872   8.416 -1.9292  1.1522  0.4286
  819MOL0     H 8078   5.242   7.085   8.257 -0.1944 -0.3214  0.9363
  819MOL0     H 8079   5.259   6.908   8.240 -2.1070 -0.5340  0.1722
  819MOL0     H 8080   5.367   7.108   8.454  2.3462 -1.7579  0.5198
  819MOL0     H 8081   5.333   6.942   8.520  2.5422 -0.1542  1.4101
  819MOL0     H 8082   5.521   6.984   8.289  0.8606 -0.8228 -0.1209
  819MOL0     H 8083   5.463   6.833   8.366 -0.3689 -0.2233  1.0695
  819MOL0     H 8084   5.574   6.938   8.586  0.4240  2.7623  0.2389
  819MOL0     H 8085   5.646   7.056   8.489  0.9734 -0.8009 -0.6925
  819MOL0     H 8086   5.701   6.765   8.395 -0.9483  0.9140 -0.3805
  819MOL0     H 8087   5.761   6.913   8.338 -0.5830 -0.6406 -1.1779
  819MOL0     H 8088   5.830   6.817   8.608  0.8940 -0.9882 -0.3107
  819MOL0     H 8089   5.847   6.985   8.556 -0.5862  1.1075 -2.6479
  819MOL0     H 8090   5.277   7.347   8.524 -0.4529  0.4006 -0.2818
  819MOL0     H 8091   5.282   7.501   8.715  0.9005 -1.7987 -2.5222
  819MOL0     H 8092   5.068   7.578   9.170 -0.6149  0.8113  4.3018
  819MOL0     H 8093   5.178   7.676   9.355 -0.4535 -2.2448 -1.0891
  819MOL0     H 8094   6.766   7.892  10.443 -2.0872  0.1897  2.0298
  819MOL0     H 8095   7.008   7.875  10.482  2.0696 -0.4102 -0.0376
  819MOL0     H 8096   7.337   7.812  10.700 -2.5688 -0.1472  1.3224
  819MOL0     H 8097   7.546   7.841  10.811  0.7629  0.0493 -0.5102
  819MOL0     H 8098   7.698   7.804  10.956 -0.4650 -0.9193  0.3586
  819MOL0     H 8099   7.794   7.821  10.804  1.0399  0.6742  0.4877
  819MOL0     H 8100   7.969   7.687  10.929 -0.2072  2.4370 -2.6287
  819MOL0     H 8101   7.939   7.843  10.996  1.9457 -0.8661  0.3290
  819MOL0     H 8102   7.939   7.656  11.182 -0.2892  1.2198  1.2510
  819MOL0     H 8103   7.776   7.621  11.115  0.1557 -0.0467  0.8004
  819MOL0     H 8104   7.844   7.804  11.313  0.6513 -0.9483 -0.5083
  819MOL0     H 8105   7.845   7.915  11.188  2.3162 -1.2598  0.1572
  819MOL0     H 8106   7.427   7.840  11.264  0.4154 -1.6165 -0.8020
  819MOL0     H 8107   7.617   7.421  10.793  2.1626  0.7895 -0.3736
  819MOL0     H 8108   7.400   7.388  10.687 -1.7489 -0.1841  1.5133
  820MOL0     O 8109   3.677   6.805   8.804 -0.0863 -0.0473 -0.7859
  820MOL0     C 8110   3.746   6.752   8.717  0.3791 -0.2382 -1.6986
  820MOL0     O 8111   3.695   6.671   8.621 -0.3206 -0.4674  0.4994
  820MOL0     C 8112   3.572   6.628   8.641  0.0167 -0.4871  0.4832
  820MOL0     C 8113   3.462   6.705   8.609 -0.9623 -0.8398  0.8454
  820MOL0     C 8114   3.332   6.669   8.616  0.2641  0.5163 -0.1841
  820MOL0     C 8115   3.307   6.542   8.664  0.4996  0.9911 -0.4014
  820MOL0     O 8116   3.173   6.497   8.663 -0.3010  0.2563 -0.9731
  820MOL0     C 8117   3.143   6.466   8.521 -1.0577 -0.2308  0.3913
  820MOL0     C 8118   2.996   6.470   8.502  0.2967 -0.5742  0.4212
  820MOL0     C 8119   2.922   6.350   8.559  0.1421  0.3987  0.4742
  820MOL0     C 8120   2.775   6.367   8.529  0.4204 -0.3475 -0.0604
  820MOL0     C 8121   2.687   6.258   8.606  0.8354 -0.0031 -0.3437
  820MOL0     C 8122   2.549   6.234   8.533  0.1866  0.1419  0.0308
  820MOL0     C 8123   2.455   6.139   8.609  0.3810  0.1232 -0.0464
  820MOL0     C 8124   2.306   6.116   8.546 -1.3164 -0.4677  0.3664
  820MOL0     N 8125   2.246   5.982   8.592  0.6480 -0.2046 -0.3165
  820MOL0     C 8126   2.282   5.865   8.531 -0.3582  0.3858  1.1426
  820MOL0     C 8127   2.271   5.763   8.622 -0.2616  0.2470  0.3062
  820MOL0     C 8128   2.294   5.615   8.589 -0.4709  0.3921 -0.0756
  820MOL0     C 8129   2.440   5.592   8.607 -0.0457 -0.6106 -0.1990
  820MOL0     C 8130   2.485   5.578   8.759 -0.9795  0.3023  0.2090
  820MOL0     C 8131   2.613   5.494   8.773  0.5984 -0.4708 -0.3389
  820MOL0     O 8132   2.718   5.575   8.741 -0.3491 -0.0511  0.6284
  820MOL0     C 8133   2.830   5.536   8.815  0.0327 -0.7606  0.0176
  820MOL0     C 8134   2.877   5.405   8.810 -0.8240  0.2323 -0.8803
  820MOL0     C 8135   2.987   5.361   8.887 -1.3214 -0.6380 -0.2173
  820MOL0     C 8136   3.036   5.447   8.979 -0.8507 -0.7548  0.0109
  820MOL0     C 8137   3.152   5.405   9.070  0.5775  0.2577  0.7773
  820MOL0     O 8138   3.206   5.277   9.046  0.0793 -0.1097 -0.6725
  820MOL0     C 8139   3.305   5.240   9.132 -0.1209 -0.8476 -0.4163
  820MOL0     C 8140   3.281   5.149   9.229  0.1685  0.0584  0.0251
  820MOL0     C 8141   3.371   5.122   9.331 -0.6094 -0.3820  0.3994
  820MOL0     C 8142   3.495   5.177   9.335  0.8560 -0.0682  0.2036
  820MOL0     O 8143   3.582   5.147   9.430 -0.6177  0.2392  0.2291
  820MOL0     C 8144   3.709   5.101   9.382  0.1087  0.1100  0.2362
  820MOL0     C 8145   3.694   4.953   9.343 -0.5173  0.3188 -0.0599
  820MOL0     C 8146   3.624   4.846   9.429  0.3102  0.8032  0.4062
  820MOL0     C 8147   3.606   4.706   9.364  0.8190 -0.9289  0.2905
  820MOL0     C 8148   3.726   4.617   9.351 -0.4275  0.0511 -0.1535
  820MOL0     C 8149   3.811   4.609   9.484  0.3259 -0.2707  0.4668
  820MOL0     C 8150   3.929   4.507   9.471 -0.3401 -0.1826  0.0873
  820MOL0     C 8151   4.033   4.522   9.582  0.0814  0.5832 -0.7708
  820MOL0    Cl 8152   3.967   4.494   9.748 -0.6542  0.1662 -0.0470
  820MOL0     C 8153   3.524   5.263   9.229 -0.0965  0.0323 -1.0683
  820MOL0     C 8154   3.441   5.292   9.125  0.0908  0.1669  0.4620
  820MOL0     O 8155   3.193   5.483   9.154 -0.7021  0.3776 -0.3481
  820MOL0     C 8156   2.999   5.586   8.986 -1.0541  0.1211  0.5971
  820MOL0     C 8157   2.889   5.629   8.905 -0.8183  0.2708  1.0747
  820MOL0     N 8158   2.212   5.820   8.732 -0.4362  0.1358  0.2567
  820MOL0     N 8159   2.201   5.948   8.711 -0.0688  0.5452 -1.0339
  820MOL0     C 8160   3.412   6.459   8.705  0.4264  0.0268 -0.7613
  820MOL0     C 8161   3.544   6.501   8.693  0.4550  0.2185  0.5862
  820MOL0     C 8162   3.882   6.804   8.712 -0.4060 -0.0024 -0.0538
  820MOL0     C 8163   3.929   6.917   8.779  0.6415 -0.2700 -0.1671
  820MOL0     C 8164   4.051   6.977   8.754  0.0218 -0.2897  0.2805
  820MOL0     C 8165   4.141   6.918   8.661 -0.1749  0.0693  0.0620
  820MOL0     O 8166   4.262   6.970   8.620 -0.2450  0.5861  0.6233
  820MOL0     C 8167   4.273   7.115   8.620  0.2578 -0.1650 -0.2574
  820MOL0     C 8168   4.343   7.143   8.754 -0.0166 -1.0204  0.1158
  820MOL0     C 8169   4.480   7.086   8.786  0.6315 -0.4722 -0.0949
  820MOL0     C 8170   4.588   7.088   8.680 -0.9449 -0.1620 -0.4408
  820MOL0     C 8171   4.627   7.231   8.658 -0.8825 -0.1778  0.4594
  820MOL0     C 8172   4.670   7.344   8.646  0.2272  0.1146 -1.2907
  820MOL0     C 8173   4.101   6.791   8.611  0.8577 -0.3044 -0.2281
  820MOL0     C 8174   3.976   6.740   8.628  0.2932  0.5830 -0.7665
  820MOL0     H 8175   3.489   6.801   8.568 -1.3742 -1.4843 -1.0436
  820MOL0     H 8176   3.252   6.735   8.586 -0.6012  0.2678  1.4259
  820MOL0     H 8177   3.182   6.367   8.497 -0.4339 -0.4593  2.2438
  820MOL0     H 8178   3.190   6.529   8.445  0.6486 -0.2236  1.3992
  820MOL0     H 8179   2.985   6.455   8.394  2.5774 -2.0848  0.3311
  820MOL0     H 8180   2.952   6.564   8.537 -0.7182 -0.4618 -1.0541
  820MOL0     H 8181   2.943   6.357   8.666  0.9192  2.2328  0.2310
  820MOL0     H 8182   2.968   6.260   8.515 -0.9497 -0.3751  0.8834
  820MOL0     H 8183   2.748   6.468   8.562  1.8530  0.2257 -0.5405
  820MOL0     H 8184   2.756   6.348   8.423 -1.5805  1.4987 -0.1152
  820MOL0     H 8185   2.671   6.298   8.706  0.4056 -2.6770  0.7575
  820MOL0     H 8186   2.740   6.163   8.615  2.7341  1.1241  1.0985
  820MOL0     H 8187   2.573   6.194   8.434  0.3974 -1.7984  0.8239
  820MOL0     H 8188   2.495   6.326   8.509 -2.9869 -2.5530 -5.0625
  820MOL0     H 8189   2.499   6.038   8.609  0.0648 -0.0278 -1.0759
  820MOL0     H 8190   2.431   6.173   8.710 -1.5604  0.0618 -0.4483
  820MOL0     H 8191   2.320   6.114   8.438 -1.2418 -2.4170  0.3696
  820MOL0     H 8192   2.253   6.202   8.587 -0.5185  0.4646 -0.5007
  820MOL0     H 8193   2.319   5.852   8.430 -2.1646  2.9874  0.0300
  820MOL0     H 8194   2.254   5.585   8.491 -0.6939 -0.7430  0.3438
  820MOL0     H 8195   2.237   5.557   8.662 -0.4158  1.4705  0.8423
  820MOL0     H 8196   2.513   5.663   8.568 -1.6584 -0.5074 -3.3066
  820MOL0     H 8197   2.461   5.499   8.552  3.8524 -0.5812  0.8904
  820MOL0     H 8198   2.515   5.674   8.803 -1.3747 -0.5599  2.5431
  820MOL0     H 8199   2.407   5.526   8.816  2.0428 -3.3423  1.4752
  820MOL0     H 8200   2.607   5.408   8.705 -0.2220  1.6770 -3.2121
  820MOL0     H 8201   2.616   5.454   8.875 -1.8377 -2.3505 -0.9044
  820MOL0     H 8202   2.833   5.330   8.745  1.0924  0.3068 -2.3506
  820MOL0     H 8203   3.028   5.261   8.871  0.3377  0.1497 -1.1713
  820MOL0     H 8204   3.179   5.115   9.239  0.1645  0.4257  1.5367
  820MOL0     H 8205   3.337   5.053   9.407  1.0253 -0.8667  0.7183
  820MOL0     H 8206   3.783   5.113   9.463  1.1899  1.0210 -0.8475
  820MOL0     H 8207   3.754   5.153   9.297  1.6081 -1.3696  0.0728
  820MOL0     H 8208   3.795   4.911   9.335 -1.3013 -1.9152  1.0371
  820MOL0     H 8209   3.650   4.948   9.242 -1.2700 -0.7244  0.2987
  820MOL0     H 8210   3.520   4.875   9.449 -0.4363 -0.4877 -1.3724
  820MOL0     H 8211   3.671   4.845   9.527 -1.1280  0.9924  1.1235
  820MOL0     H 8212   3.529   4.663   9.429 -0.7306  0.1482 -0.7874
  820MOL0     H 8213   3.565   4.721   9.264  0.8957 -0.5449  0.3168
  820MOL0     H 8214   3.783   4.674   9.277 -1.6856  0.8935 -0.5180
  820MOL0     H 8215   3.699   4.515   9.323 -0.7482  0.4669 -1.4265
  820MOL0     H 8216   3.747   4.578   9.568 -0.1973  0.2271  0.2580
  820MOL0     H 8217   3.848   4.709   9.507  0.0363 -0.1896  0.5923
  820MOL0     H 8218   3.891   4.405   9.460  1.6908 -1.0800  0.8662
  820MOL0     H 8219   3.982   4.533   9.380  1.8892 -1.2595  1.0040
  820MOL0     H 8220   4.070   4.625   9.582 -1.2826  1.1736  2.3173
  820MOL0     H 8221   4.116   4.452   9.570 -2.0324 -2.6870  2.0543
  820MOL0     H 8222   3.624   5.304   9.229  0.0362  0.0127  2.1794
  820MOL0     H 8223   3.466   5.359   9.043  0.5620 -1.1491 -0.5162
  820MOL0     H 8224   3.039   5.662   9.052 -0.9567 -0.0014  0.6811
  820MOL0     H 8225   2.852   5.731   8.902  1.4014  1.1416  1.1674
  820MOL0     H 8226   3.385   6.361   8.744  2.1367  0.5886  2.0423
  820MOL0     H 8227   3.628   6.436   8.716  0.2105  0.4332  2.1939
  820MOL0     H 8228   3.857   6.973   8.837  1.8815  0.1489  1.0150
  820MOL0     H 8229   4.057   7.075   8.800 -3.1843  0.6406 -0.9984
  820MOL0     H 8230   4.177   7.169   8.618  0.5787  0.4683  0.5852
  820MOL0     H 8231   4.334   7.138   8.533  0.2589  0.3097 -0.1380
  820MOL0     H 8232   4.348   7.252   8.759  1.4237 -0.9579 -1.7016
  820MOL0     H 8233   4.271   7.112   8.830 -1.4876 -2.4921 -1.7685
  820MOL0     H 8234   4.471   6.987   8.832  0.7247 -0.6931 -0.5467
  820MOL0     H 8235   4.525   7.140   8.870  1.1540 -0.1207 -0.5982
  820MOL0     H 8236   4.666   7.022   8.718  0.2775 -1.1456 -4.2078
  820MOL0     H 8237   4.554   7.048   8.584 -2.7014  1.7246 -0.6775
  820MOL0     H 8238   4.707   7.445   8.639  4.2684 -1.0942  0.2243
  820MOL0     H 8239   4.162   6.739   8.537 -2.9729 -0.4927 -3.6614
  820MOL0     H 8240   3.951   6.646   8.579 -0.0806  1.5454 -2.4848
  821MOL0     O 8241   5.238  10.325   4.961 -0.2774  0.2627 -0.4255
  821MOL0     C 8242   5.255  10.259   5.059  0.6213  0.2957 -0.5293
  821MOL0     O 8243   5.161  10.217   5.148 -0.6433 -0.7177 -0.2313
  821MOL0     C 8244   5.028  10.232   5.115  0.5632 -0.3835 -0.8379
  821MOL0     C 8245   4.956  10.117   5.085 -0.0849  0.6331 -0.2880
  821MOL0     C 8246   4.829  10.133   5.046  0.0505  0.0309 -0.1028
  821MOL0     C 8247   4.772  10.255   5.018  0.1107  0.6861  0.3095
  821MOL0     O 8248   4.641  10.251   4.977  0.2842  1.1154 -0.5984
  821MOL0     C 8249   4.582  10.361   4.914  0.7030 -1.0776  0.5368
  821MOL0     C 8250   4.447  10.306   4.842 -0.5031  0.7007  0.0536
  821MOL0     C 8251   4.341  10.252   4.943 -0.1682  0.1824 -0.9889
  821MOL0     C 8252   4.258  10.142   4.877  0.1849 -0.0207 -1.0608
  821MOL0     C 8253   4.140  10.123   4.965  0.1251  0.1035 -1.0688
  821MOL0     C 8254   4.060  10.013   4.903 -0.7707  0.8950  0.6925
  821MOL0     C 8255   3.919   9.982   4.968 -0.6575  0.2307  0.3641
  821MOL0     C 8256   3.814  10.088   4.956  0.1581 -0.4415 -0.3151
  821MOL0     N 8257   3.752  10.101   4.820 -0.5569 -0.0303  0.3671
  821MOL0     C 8258   3.634  10.033   4.779 -0.1725  0.5579 -0.0013
  821MOL0     C 8259   3.596  10.091   4.660  0.3365 -0.1476 -1.3744
  821MOL0     C 8260   3.479  10.055   4.577  0.2299  0.3944  1.1591
  821MOL0     C 8261   3.377   9.966   4.636 -0.0295 -0.2227 -0.6565
  821MOL0     C 8262   3.268  10.040   4.723  0.1270  0.0906  0.9154
  821MOL0     C 8263   3.169   9.940   4.770  0.3538  0.5514  0.0377
  821MOL0     O 8264   3.102  10.008   4.875  0.3480 -0.0722  0.1679
  821MOL0     C 8265   2.977  10.047   4.860 -0.0377  0.4343 -0.8055
  821MOL0     C 8266   2.882   9.967   4.812  1.0290 -0.0133  0.0663
  821MOL0     C 8267   2.754  10.012   4.789  0.1773  0.0509 -0.3779
  821MOL0     C 8268   2.720  10.142   4.830  0.7332 -0.0144 -0.5135
  821MOL0     C 8269   2.574  10.191   4.823 -0.2175  0.1107 -0.7288
  821MOL0     O 8270   2.559  10.332   4.832 -0.2510  0.4250 -0.2243
  821MOL0     C 8271   2.436  10.384   4.826 -0.0420 -0.2964  0.8598
  821MOL0     C 8272   2.358  10.384   4.709  0.6460  1.3788  0.8431
  821MOL0     C 8273   2.240  10.458   4.709  0.3746  0.5196 -0.2947
  821MOL0     C 8274   2.188  10.513   4.825  0.2926  0.4486  0.1922
  821MOL0     O 8275   2.061  10.573   4.808 -0.9256 -0.1016 -0.7653
  821MOL0     C 8276   2.038  10.701   4.870  0.2426 -0.1678 -0.8371
  821MOL0     C 8277   1.879  10.732   4.862 -0.1181 -0.5939  0.1605
  821MOL0     C 8278   1.851  10.872   4.921  0.4500  0.3838  0.4815
  821MOL0     C 8279   1.709  10.899   4.967  0.2354  0.6156  1.0571
  821MOL0     C 8280   1.670  10.786   5.073 -0.6675 -0.2132 -0.7259
  821MOL0     C 8281   1.596  10.853   5.192  0.1995  0.1565 -0.2646
  821MOL0     C 8282   1.441  10.858   5.165 -0.8501 -0.2028  1.5877
  821MOL0     C 8283   1.362  10.941   5.274  0.2064 -0.5076  0.3348
  821MOL0    Cl 8284   1.414  10.905   5.440 -0.0536  0.2693 -0.1411
  821MOL0     C 8285   2.256  10.494   4.948  0.0603 -0.1660 -1.0429
  821MOL0     C 8286   2.387  10.442   4.948  0.1056  0.4042  0.2043
  821MOL0     O 8287   2.482  10.113   4.794 -0.1924  0.2749 -0.9800
  821MOL0     C 8288   2.825  10.234   4.863 -0.0846 -0.9388 -0.7226
  821MOL0     C 8289   2.952  10.182   4.883 -0.3967  0.1860  0.2266
  821MOL0     N 8290   3.689  10.196   4.634 -0.0841 -0.4182 -0.3990
  821MOL0     N 8291   3.783  10.191   4.724 -0.4345 -0.1438 -0.0711
  821MOL0     C 8292   4.846  10.373   5.040  0.4809  0.1837 -0.4647
  821MOL0     C 8293   4.967  10.359   5.091  0.0877 -0.0194  0.5646
  821MOL0     C 8294   5.399  10.239   5.103  0.4215 -0.1915 -0.9379
  821MOL0     C 8295   5.435  10.200   5.231  1.0054 -0.0416  0.2888
  821MOL0     C 8296   5.566  10.183   5.265 -0.5570 -0.1388 -0.6940
  821MOL0     C 8297   5.671  10.200   5.173  0.0272  0.2129  0.2228
  821MOL0     O 8298   5.804  10.169   5.192 -0.5640 -0.1809  0.0217
  821MOL0     C 8299   5.853  10.118   5.312  0.2940  0.1352  0.4208
  821MOL0     C 8300   6.001  10.113   5.303 -0.3005 -0.4909 -0.4329
  821MOL0     C 8301   6.077  10.247   5.298 -0.3957 -0.5604  0.0666
  821MOL0     C 8302   6.232  10.221   5.303 -0.1616 -0.1361 -0.2252
  821MOL0     C 8303   6.314  10.340   5.286  0.2083  0.2841 -0.2458
  821MOL0     C 8304   6.384  10.440   5.280  0.4030  0.5569  0.6555
  821MOL0     C 8305   5.630  10.243   5.042 -0.1791  0.3164 -0.1814
  821MOL0     C 8306   5.499  10.263   5.014 -0.4136  0.5912 -0.9062
  821MOL0     H 8307   4.997  10.016   5.087 -3.4572 -0.9751 -2.5355
  821MOL0     H 8308   4.772  10.042   5.035 -1.2250  0.3996  2.7612
  821MOL0     H 8309   4.648  10.415   4.845 -0.7252  0.6334  0.4654
  821MOL0     H 8310   4.549  10.435   4.988 -2.6440 -2.1594  0.2742
  821MOL0     H 8311   4.480  10.229   4.771 -0.6894  1.7519 -1.2103
  821MOL0     H 8312   4.406  10.376   4.768 -0.2142 -1.2713 -2.0870
  821MOL0     H 8313   4.288  10.342   4.975 -0.3255 -0.8352  1.9428
  821MOL0     H 8314   4.385  10.220   5.037 -0.1689  2.0776 -0.3041
  821MOL0     H 8315   4.235  10.177   4.776 -1.3857  1.5530 -0.2276
  821MOL0     H 8316   4.319  10.051   4.878  0.8773  0.3417  2.2585
  821MOL0     H 8317   4.075  10.210   4.977  1.1198  0.7789 -0.4217
  821MOL0     H 8318   4.174  10.085   5.063 -1.1495 -1.8695 -1.3298
  821MOL0     H 8319   4.114   9.918   4.895  0.8339  1.8322  0.0772
  821MOL0     H 8320   4.044  10.028   4.795  0.4844  0.9083  0.5006
  821MOL0     H 8321   3.880   9.896   4.913  0.1865  0.6230 -0.9038
  821MOL0     H 8322   3.939   9.968   5.074  1.0642  1.2408  0.2097
  821MOL0     H 8323   3.859  10.183   4.983  3.3687 -1.7788 -0.5502
  821MOL0     H 8324   3.740  10.061   5.032  0.2776  2.7304  1.0870
  821MOL0     H 8325   3.579   9.955   4.830  0.6537  0.7703  1.2886
  821MOL0     H 8326   3.526   9.995   4.499  1.2490  2.4973  0.0494
  821MOL0     H 8327   3.431  10.147   4.542 -0.6643 -0.3308  0.4489
  821MOL0     H 8328   3.430   9.902   4.708 -0.5776  0.8280  0.7314
  821MOL0     H 8329   3.334   9.892   4.568 -0.7224 -2.2041  1.7680
  821MOL0     H 8330   3.323  10.093   4.800  0.1898  0.5645  0.5525
  821MOL0     H 8331   3.219  10.118   4.663 -0.5066  0.4599  1.8917
  821MOL0     H 8332   3.217   9.850   4.809 -2.1665 -0.7718  0.3713
  821MOL0     H 8333   3.114   9.902   4.683  0.4002  0.0588  0.2197
  821MOL0     H 8334   2.919   9.870   4.778 -0.0019 -1.2746  2.3165
  821MOL0     H 8335   2.688   9.936   4.747  0.0759  0.8865 -1.7682
  821MOL0     H 8336   2.390  10.335   4.617 -0.3891  0.3045  1.0207
  821MOL0     H 8337   2.183  10.469   4.617  0.5112 -1.3755 -0.6345
  821MOL0     H 8338   2.100  10.775   4.818  1.9879  0.6579  2.1579
  821MOL0     H 8339   2.064  10.708   4.976 -2.0732 -0.1509 -0.2212
  821MOL0     H 8340   1.821  10.656   4.915  0.9063 -0.0342  2.2146
  821MOL0     H 8341   1.844  10.727   4.759  1.2453  0.1108 -0.3604
  821MOL0     H 8342   1.884  10.943   4.844 -2.7746  0.8563 -0.6154
  821MOL0     H 8343   1.911  10.890   5.010 -0.8349  0.7875  1.2973
  821MOL0     H 8344   1.722  11.000   5.006  0.4976  1.3672 -0.8405
  821MOL0     H 8345   1.640  10.892   4.882 -0.6512 -4.0413  1.8929
  821MOL0     H 8346   1.759  10.739   5.115 -1.8987 -0.8978  1.2038
  821MOL0     H 8347   1.610  10.706   5.030  1.4147 -1.2903 -1.7782
  821MOL0     H 8348   1.634  10.955   5.201 -0.8686  0.3584  3.5996
  821MOL0     H 8349   1.624  10.808   5.287  2.7065 -0.8835 -1.4072
  821MOL0     H 8350   1.428  10.884   5.060 -2.4919 -2.5044  1.1568
  821MOL0     H 8351   1.408  10.755   5.176  0.5224 -0.8963 -0.2723
  821MOL0     H 8352   1.258  10.911   5.256 -0.5724 -0.3202  3.8067
  821MOL0     H 8353   1.374  11.049   5.265 -1.6363 -0.1063  1.9540
  821MOL0     H 8354   2.210  10.530   5.040 -1.6007  3.5979 -3.0923
  821MOL0     H 8355   2.440  10.420   5.040  1.2532  0.0565 -0.5072
  821MOL0     H 8356   2.819  10.341   4.875  1.3087 -0.6750 -2.0777
  821MOL0     H 8357   3.028  10.257   4.903 -0.1894 -1.0169  5.0521
  821MOL0     H 8358   4.805  10.471   5.019  2.1301  0.4883 -2.5316
  821MOL0     H 8359   5.020  10.451   5.112  0.1636 -0.3038  1.7237
  821MOL0     H 8360   5.363  10.178   5.309  0.5072 -3.9887 -1.0335
  821MOL0     H 8361   5.581  10.145   5.365 -1.0755  1.2125 -0.0833
  821MOL0     H 8362   5.821  10.015   5.326 -0.1246 -0.0344 -1.5267
  821MOL0     H 8363   5.823  10.176   5.400 -0.0751 -1.1972  1.2079
  821MOL0     H 8364   6.024  10.057   5.395 -0.4642  1.4964  0.8649
  821MOL0     H 8365   6.038  10.060   5.214  2.7986  1.3565 -0.3811
  821MOL0     H 8366   6.042  10.312   5.378  0.4672  0.9953 -0.7886
  821MOL0     H 8367   6.067  10.302   5.204  3.7540  0.2249 -0.0964
  821MOL0     H 8368   6.263  10.172   5.395 -1.3810  1.6405  1.1918
  821MOL0     H 8369   6.241  10.155   5.216 -0.1888 -2.1206  1.2195
  821MOL0     H 8370   6.449  10.523   5.260  1.1358 -0.2708 -0.4757
  821MOL0     H 8371   5.697  10.260   4.958 -0.2778  3.7137  0.2874
  821MOL0     H 8372   5.488  10.282   4.908  2.1808 -0.9036 -1.5438
  822MOL0     O 8373   7.436   3.859   6.085 -1.0001  0.2022  0.6304
  822MOL0     C 8374   7.496   3.883   6.188 -0.4502  0.1744  0.0729
  822MOL0     O 8375   7.434   3.929   6.303  0.1809  0.0113  0.0879
  822MOL0     C 8376   7.306   3.895   6.325 -0.3321 -0.1804 -0.8272
  822MOL0     C 8377   7.211   3.986   6.293 -0.1623  0.5748 -0.5077
  822MOL0     C 8378   7.076   3.943   6.296  0.8128 -0.8699 -0.1285
  822MOL0     C 8379   7.037   3.816   6.338  0.0121 -0.6454  1.2160
  822MOL0     O 8380   6.903   3.789   6.345  0.8112 -0.3136  0.4718
  822MOL0     C 8381   6.845   3.661   6.375 -0.1001 -0.1446  0.3602
  822MOL0     C 8382   6.701   3.678   6.424 -0.0475  0.4705  0.2764
  822MOL0     C 8383   6.614   3.732   6.313  0.6358  0.8521  0.8976
  822MOL0     C 8384   6.474   3.758   6.363  0.0020  0.1193 -0.4666
  822MOL0     C 8385   6.367   3.755   6.260  1.4221 -0.1559 -0.1592
  822MOL0     C 8386   6.238   3.733   6.333 -0.5605 -1.0416  0.5647
  822MOL0     C 8387   6.117   3.732   6.241  0.3763  0.7501  1.1200
  822MOL0     C 8388   5.993   3.727   6.327  0.1683  0.1233  0.2094
  822MOL0     N 8389   5.868   3.704   6.248 -0.3994  1.1150  0.2584
  822MOL0     C 8390   5.815   3.578   6.224 -0.5783 -0.1966  0.6894
  822MOL0     C 8391   5.679   3.604   6.200 -0.5257 -0.1601  0.5519
  822MOL0     C 8392   5.574   3.502   6.183  0.4033  0.6798 -0.2775
  822MOL0     C 8393   5.563   3.447   6.036  0.9522 -0.0087 -0.4095
  822MOL0     C 8394   5.438   3.371   5.999 -0.4118  0.0643 -0.3760
  822MOL0     C 8395   5.308   3.411   6.059  0.4609 -0.3921 -0.2411
  822MOL0     O 8396   5.198   3.323   6.028 -0.3478 -0.2833  0.0443
  822MOL0     C 8397   5.088   3.371   5.963 -0.1789 -0.4986 -0.3775
  822MOL0     C 8398   4.979   3.286   5.945 -0.3754  0.2388 -0.4646
  822MOL0     C 8399   4.871   3.311   5.852 -0.4141 -0.5217  0.4230
  822MOL0     C 8400   4.875   3.437   5.791  1.6869 -0.2035 -0.1030
  822MOL0     C 8401   4.765   3.465   5.688  0.1458 -0.7622 -0.3596
  822MOL0     O 8402   4.719   3.372   5.600 -0.0270  0.1814 -0.4661
  822MOL0     C 8403   4.614   3.406   5.518  0.4940  0.5528  0.5696
  822MOL0     C 8404   4.491   3.343   5.538 -0.7840 -0.7385 -1.5161
  822MOL0     C 8405   4.375   3.366   5.462 -0.4269  0.4801 -0.1799
  822MOL0     C 8406   4.384   3.449   5.354 -0.6130  0.1063  0.5815
  822MOL0     O 8407   4.269   3.473   5.281 -0.1120 -0.3136 -0.6933
  822MOL0     C 8408   4.284   3.471   5.140 -0.5676  0.2871  1.0286
  822MOL0     C 8409   4.162   3.527   5.058 -0.1748 -0.6784 -0.3127
  822MOL0     C 8410   4.033   3.450   5.087  0.2637 -0.0509 -0.0823
  822MOL0     C 8411   3.913   3.524   5.026 -0.1591  0.0879  0.6942
  822MOL0     C 8412   3.775   3.461   5.073 -0.1719  0.1422 -0.0740
  822MOL0     C 8413   3.761   3.314   5.022 -0.4651 -0.2229 -0.1447
  822MOL0     C 8414   3.806   3.282   4.866 -0.5843  0.4737 -0.9840
  822MOL0     C 8415   3.710   3.333   4.767  0.4646 -0.5749  0.4635
  822MOL0    Cl 8416   3.553   3.243   4.773  0.4385  0.7711 -0.2385
  822MOL0     C 8417   4.500   3.519   5.333  0.1722 -0.5037  0.0590
  822MOL0     C 8418   4.616   3.498   5.411  0.2185  0.6698  0.2289
  822MOL0     O 8419   4.724   3.585   5.698 -0.0510 -1.0500 -0.3135
  822MOL0     C 8420   4.978   3.530   5.815 -0.0419  0.0433 -0.0672
  822MOL0     C 8421   5.082   3.496   5.908 -0.3672 -0.9605  0.9038
  822MOL0     N 8422   5.655   3.737   6.199 -0.4103 -0.2484  0.4513
  822MOL0     N 8423   5.768   3.796   6.227 -0.2599 -0.2061 -0.2699
  822MOL0     C 8424   7.138   3.727   6.370 -0.2404 -0.0836  0.2652
  822MOL0     C 8425   7.272   3.762   6.361 -0.0531 -0.2001  0.5262
  822MOL0     C 8426   7.638   3.851   6.194 -1.3780 -1.1444  0.6050
  822MOL0     C 8427   7.713   3.843   6.072 -0.2955  0.8738 -0.2389
  822MOL0     C 8428   7.849   3.819   6.059  0.2965 -0.1802  0.6220
  822MOL0     C 8429   7.921   3.797   6.175 -0.4611 -0.6513 -0.2784
  822MOL0     O 8430   8.058   3.792   6.190  0.4125  0.2310 -0.2464
  822MOL0     C 8431   8.129   3.778   6.068  0.1236  0.4951  1.0023
  822MOL0     C 8432   8.276   3.747   6.094  0.2957 -0.2512  0.2468
  822MOL0     C 8433   8.288   3.623   6.185  0.9229  0.6342 -0.7709
  822MOL0     C 8434   8.421   3.558   6.179  0.2491  0.5315 -0.7224
  822MOL0     C 8435   8.429   3.429   6.255  0.4653 -0.6811  0.6629
  822MOL0     C 8436   8.426   3.319   6.314 -0.2766 -0.3037 -0.3815
  822MOL0     C 8437   7.853   3.808   6.301  0.8389  0.0529 -0.5739
  822MOL0     C 8438   7.721   3.829   6.308  0.6245  0.1565 -0.0015
  822MOL0     H 8439   7.237   4.086   6.261  0.9247 -0.1323 -1.9573
  822MOL0     H 8440   7.004   4.016   6.257  1.9110 -1.0187 -2.6423
  822MOL0     H 8441   6.895   3.627   6.466 -3.2975 -3.7270  1.0810
  822MOL0     H 8442   6.851   3.585   6.296 -0.5205  0.1047  0.0817
  822MOL0     H 8443   6.690   3.746   6.509 -1.8526 -0.1235  0.5675
  822MOL0     H 8444   6.674   3.579   6.464  2.9424 -0.5586 -0.0432
  822MOL0     H 8445   6.605   3.663   6.228 -1.1577  0.5492  1.2838
  822MOL0     H 8446   6.655   3.822   6.267  2.4646 -1.5771 -2.7888
  822MOL0     H 8447   6.458   3.671   6.427  1.6652 -0.1730 -0.3820
  822MOL0     H 8448   6.485   3.846   6.427  5.1490 -1.3394  1.1723
  822MOL0     H 8449   6.383   3.677   6.185  0.4023  0.9601 -1.5998
  822MOL0     H 8450   6.355   3.856   6.219  0.9587  1.0238  2.6343
  822MOL0     H 8451   6.230   3.811   6.410  3.0032 -0.1881  0.2821
  822MOL0     H 8452   6.239   3.633   6.376 -0.8316 -1.5542 -0.5845
  822MOL0     H 8453   6.102   3.815   6.172  0.7184 -1.6289 -2.0025
  822MOL0     H 8454   6.120   3.638   6.186 -3.3562  1.3492 -0.3982
  822MOL0     H 8455   5.990   3.823   6.381  0.2422 -0.8158  1.9517
  822MOL0     H 8456   6.011   3.644   6.396  2.5569 -1.6265 -2.3062
  822MOL0     H 8457   5.852   3.476   6.232  0.4512  0.1803  1.0066
  822MOL0     H 8458   5.479   3.550   6.209  2.1995  3.1783  2.4576
  822MOL0     H 8459   5.597   3.422   6.254 -2.7201 -0.7872 -0.7532
  822MOL0     H 8460   5.646   3.377   6.021 -0.7719 -2.4155  0.7391
  822MOL0     H 8461   5.572   3.523   5.958 -1.0231 -0.4370 -1.1079
  822MOL0     H 8462   5.437   3.369   5.889  2.4230 -1.4670 -0.4461
  822MOL0     H 8463   5.453   3.269   6.036  0.6419  0.7984  1.3449
  822MOL0     H 8464   5.286   3.518   6.063  1.9707 -0.0904  1.6452
  822MOL0     H 8465   5.327   3.400   6.166  2.1783  3.2494 -0.0129
  822MOL0     H 8466   4.986   3.189   5.993  1.1044  1.0127  0.9964
  822MOL0     H 8467   4.793   3.241   5.825 -2.1677  2.0852 -1.6753
  822MOL0     H 8468   4.478   3.267   5.614  0.4013 -3.3880 -3.7865
  822MOL0     H 8469   4.288   3.308   5.490 -0.3624  1.2275  1.6720
  822MOL0     H 8470   4.308   3.373   5.098  0.7704  0.5511  1.1319
  822MOL0     H 8471   4.369   3.532   5.107 -0.0157 -1.1254 -0.3034
  822MOL0     H 8472   4.178   3.539   4.951 -0.7797 -2.0214 -0.5801
  822MOL0     H 8473   4.148   3.630   5.092  4.0657 -0.3707  1.0987
  822MOL0     H 8474   4.025   3.443   5.196 -3.1954 -1.0611 -0.2951
  822MOL0     H 8475   4.047   3.350   5.045  1.6304  0.1554 -0.1894
  822MOL0     H 8476   3.905   3.630   5.052 -1.1711 -0.0007  0.7960
  822MOL0     H 8477   3.920   3.538   4.917 -1.1784  0.7176  0.6979
  822MOL0     H 8478   3.694   3.522   5.030  0.7995  3.1189  1.9850
  822MOL0     H 8479   3.757   3.466   5.180  2.2597  0.0264  0.4001
  822MOL0     H 8480   3.663   3.270   5.043 -0.0645 -0.5900  1.0103
  822MOL0     H 8481   3.823   3.253   5.087  1.2804  0.8174 -0.7762
  822MOL0     H 8482   3.906   3.323   4.848 -0.3356 -0.2264 -1.2276
  822MOL0     H 8483   3.823   3.174   4.853 -0.8137  0.1576  1.0266
  822MOL0     H 8484   3.754   3.331   4.667  1.8667 -0.7183  1.0493
  822MOL0     H 8485   3.681   3.437   4.789 -0.7454 -1.3762  3.0540
  822MOL0     H 8486   4.496   3.599   5.260 -1.3854 -0.3763  0.2428
  822MOL0     H 8487   4.704   3.555   5.382  1.2685 -0.7455  0.5411
  822MOL0     H 8488   4.970   3.632   5.778 -0.0451 -0.1153 -0.5026
  822MOL0     H 8489   5.145   3.581   5.930 -2.3767  1.3427 -1.4925
  822MOL0     H 8490   7.100   3.627   6.390 -0.4638  0.3560  2.2629
  822MOL0     H 8491   7.357   3.696   6.377 -1.3049 -2.2577 -0.8788
  822MOL0     H 8492   7.669   3.879   5.980  2.5826  2.3913 -1.1484
  822MOL0     H 8493   7.894   3.825   5.960  1.0133 -1.2269  0.8578
  822MOL0     H 8494   8.120   3.869   6.007  0.8371 -1.2113 -1.8112
  822MOL0     H 8495   8.082   3.703   6.004  1.4324  2.1807 -2.1657
  822MOL0     H 8496   8.318   3.721   5.996  2.0099  0.9692  0.6145
  822MOL0     H 8497   8.337   3.829   6.132 -0.5580 -0.7056  2.7818
  822MOL0     H 8498   8.211   3.551   6.155 -0.6513  1.1029  1.7986
  822MOL0     H 8499   8.271   3.650   6.290  2.0084 -0.4529 -0.2938
  822MOL0     H 8500   8.454   3.546   6.075 -2.1778  1.7190 -1.7014
  822MOL0     H 8501   8.492   3.626   6.227  2.8833 -0.7579 -2.5406
  822MOL0     H 8502   8.445   3.219   6.347  0.9031 -0.5820 -1.7784
  822MOL0     H 8503   7.911   3.820   6.392 -2.8451  0.3908  1.9469
  822MOL0     H 8504   7.671   3.826   6.404  1.9761  1.6884  0.8064
  823MOL0     O 8505   7.232   3.418   6.214 -0.5479 -0.7953  0.0061
  823MOL0     C 8506   7.320   3.472   6.149 -1.2241 -0.9118 -0.0552
  823MOL0     O 8507   7.305   3.531   6.022  0.1451  0.3141 -0.1011
  823MOL0     C 8508   7.174   3.562   5.987 -0.9722  0.5504 -0.6249
  823MOL0     C 8509   7.114   3.481   5.888  0.3981 -0.0235  0.5807
  823MOL0     C 8510   6.985   3.507   5.845 -0.0022  0.4234 -0.1550
  823MOL0     C 8511   6.905   3.604   5.909 -0.2876 -0.4244  0.0997
  823MOL0     O 8512   6.775   3.615   5.858 -0.1544 -0.2876 -0.3143
  823MOL0     C 8513   6.671   3.676   5.934  0.3969  0.2268 -1.0471
  823MOL0     C 8514   6.539   3.600   5.913  0.6631  0.5510 -0.2257
  823MOL0     C 8515   6.454   3.640   5.792 -0.3243  0.2440 -0.0968
  823MOL0     C 8516   6.390   3.780   5.822 -0.5384  0.1901  0.1266
  823MOL0     C 8517   6.277   3.809   5.715  0.0826  0.3180 -0.0861
  823MOL0     C 8518   6.315   3.784   5.572 -0.0253 -0.7015  0.3786
  823MOL0     C 8519   6.207   3.836   5.478 -0.6169  0.5818  0.0286
  823MOL0     C 8520   6.221   3.783   5.336 -0.1382  0.4196  0.4456
  823MOL0     N 8521   6.132   3.860   5.238 -0.0494  0.2696 -0.2292
  823MOL0     C 8522   5.992   3.855   5.221  0.3224 -0.3640 -0.4843
  823MOL0     C 8523   5.954   3.948   5.138  0.3193 -0.0564 -0.0942
  823MOL0     C 8524   5.827   4.005   5.086 -0.0443  0.3330 -0.4096
  823MOL0     C 8525   5.755   3.908   4.985  0.2237  1.3374 -0.1486
  823MOL0     C 8526   5.812   3.918   4.840  0.4054  0.3652 -0.0620
  823MOL0     C 8527   5.722   3.833   4.744  0.7156  0.4489  0.2667
  823MOL0     O 8528   5.587   3.888   4.728 -0.3151 -0.0706 -0.5952
  823MOL0     C 8529   5.481   3.807   4.694  0.2684  0.1587 -0.3486
  823MOL0     C 8530   5.483   3.665   4.671  0.7382  0.5236 -0.2825
  823MOL0     C 8531   5.363   3.595   4.644  0.5289 -0.3545 -0.0074
  823MOL0     C 8532   5.245   3.672   4.631  0.4740  0.9523  0.6408
  823MOL0     C 8533   5.122   3.605   4.612 -0.3971 -0.8250  0.1688
  823MOL0     O 8534   5.007   3.677   4.653  0.4757 -0.3711 -1.0097
  823MOL0     C 8535   4.894   3.603   4.639  0.3984 -0.6472  0.4459
  823MOL0     C 8536   4.807   3.635   4.530 -0.9244 -0.3807 -0.1363
  823MOL0     C 8537   4.679   3.566   4.516 -0.2109  0.4639 -0.1792
  823MOL0     C 8538   4.643   3.475   4.616 -0.8875  0.0647  1.3846
  823MOL0     O 8539   4.519   3.412   4.605 -0.6725  0.4322 -0.5432
  823MOL0     C 8540   4.443   3.428   4.729 -0.4326 -0.3165 -0.2064
  823MOL0     C 8541   4.304   3.368   4.714 -0.1718 -0.4800 -0.4241
  823MOL0     C 8542   4.217   3.452   4.612 -0.0378 -0.4195 -0.5776
  823MOL0     C 8543   4.115   3.364   4.542  0.9039  0.3627 -0.3501
  823MOL0     C 8544   4.006   3.439   4.469  1.0966 -0.6713  0.2972
  823MOL0     C 8545   3.905   3.341   4.409  0.1113 -0.2131 -0.1267
  823MOL0     C 8546   3.846   3.399   4.280  0.3706 -0.0887  0.5306
  823MOL0     C 8547   3.755   3.524   4.317 -0.9188 -0.1598 -0.3507
  823MOL0    Cl 8548   3.622   3.479   4.419 -0.1543  0.4332 -0.7215
  823MOL0     C 8549   4.730   3.443   4.719 -0.1429  0.1166 -0.1718
  823MOL0     C 8550   4.854   3.508   4.723 -0.8218 -0.3513 -0.2363
  823MOL0     O 8551   5.126   3.494   4.566 -1.3730  0.4410 -0.0545
  823MOL0     C 8552   5.247   3.808   4.643  0.3698  0.1222  0.1069
  823MOL0     C 8553   5.365   3.876   4.671  0.0346 -0.3922 -0.2178
  823MOL0     N 8554   6.070   4.003   5.095  0.4725 -0.4465 -0.0157
  823MOL0     N 8555   6.175   3.949   5.143 -0.7211  0.1087 -0.5134
  823MOL0     C 8556   6.977   3.693   6.001 -0.2588  0.1105  0.9376
  823MOL0     C 8557   7.107   3.673   6.038 -0.1874 -0.4228  0.0361
  823MOL0     C 8558   7.455   3.444   6.194  0.5423  0.4702 -0.2515
  823MOL0     C 8559   7.474   3.353   6.304  0.0244 -0.9090  0.1719
  823MOL0     C 8560   7.605   3.333   6.347  0.1172  0.0976  0.2300
  823MOL0     C 8561   7.715   3.397   6.294 -0.6801 -0.3343  0.9818
  823MOL0     O 8562   7.840   3.370   6.351 -0.5026 -0.1505 -0.5360
  823MOL0     C 8563   7.962   3.438   6.328 -0.1192  0.3167  0.7339
  823MOL0     C 8564   8.083   3.377   6.377 -0.2668  0.2078 -0.3181
  823MOL0     C 8565   8.073   3.359   6.530 -0.2638  0.7558 -0.6328
  823MOL0     C 8566   8.207   3.348   6.593 -0.0352  0.3085 -0.9772
  823MOL0     C 8567   8.275   3.478   6.604  0.1639 -0.3914 -0.0152
  823MOL0     C 8568   8.321   3.582   6.613 -0.5281  0.0053  0.6633
  823MOL0     C 8569   7.696   3.491   6.185  0.2831 -0.1337 -0.8138
  823MOL0     C 8570   7.566   3.515   6.140 -1.0066  0.6656  0.1695
  823MOL0     H 8571   7.153   3.389   5.845  0.2490  1.5740 -3.4160
  823MOL0     H 8572   6.929   3.446   5.775  0.1862 -1.9365  1.6182
  823MOL0     H 8573   6.658   3.782   5.910 -2.4455 -0.0369 -0.9168
  823MOL0     H 8574   6.691   3.663   6.041 -5.8368  0.6498  0.5332
  823MOL0     H 8575   6.472   3.615   5.998  1.2474  0.1107  0.3200
  823MOL0     H 8576   6.563   3.494   5.907  2.0124  0.9316 -2.2112
  823MOL0     H 8577   6.376   3.564   5.776  0.6147 -1.6559  3.3932
  823MOL0     H 8578   6.505   3.632   5.696 -0.1289 -0.5333  0.0648
  823MOL0     H 8579   6.353   3.792   5.924  0.1594  0.8810  0.3108
  823MOL0     H 8580   6.474   3.851   5.825 -0.1518 -0.2812  0.8491
  823MOL0     H 8581   6.232   3.907   5.734  0.0812  0.1536  0.7849
  823MOL0     H 8582   6.190   3.744   5.730  0.4391  0.2321  1.8884
  823MOL0     H 8583   6.325   3.677   5.552  1.5664 -0.4300 -0.5124
  823MOL0     H 8584   6.407   3.841   5.558 -0.1551 -0.3034  1.1083
  823MOL0     H 8585   6.104   3.823   5.513 -0.9967  2.1708 -0.4191
  823MOL0     H 8586   6.214   3.945   5.476  1.1609  0.5414  1.5411
  823MOL0     H 8587   6.191   3.678   5.334  1.4910 -0.0857  1.2660
  823MOL0     H 8588   6.321   3.796   5.295 -0.8755  2.5182 -0.8940
  823MOL0     H 8589   5.916   3.793   5.268  0.5842 -0.4318 -0.1483
  823MOL0     H 8590   5.858   4.100   5.042  2.6740 -0.6190 -0.7065
  823MOL0     H 8591   5.751   4.016   5.164  0.9828 -3.2783  1.2784
  823MOL0     H 8592   5.648   3.932   4.986 -0.0078  0.4373  2.1442
  823MOL0     H 8593   5.772   3.805   5.017  0.4234  1.2469 -0.5459
  823MOL0     H 8594   5.801   4.024   4.816  1.2198  0.2124 -1.1612
  823MOL0     H 8595   5.913   3.878   4.844 -1.2848 -4.5197  3.5031
  823MOL0     H 8596   5.705   3.734   4.788 -0.9660  1.0326  1.0166
  823MOL0     H 8597   5.765   3.822   4.644 -3.9172  1.0649 -2.0496
  823MOL0     H 8598   5.579   3.616   4.685  1.5575  1.9263 -0.8278
  823MOL0     H 8599   5.354   3.488   4.630 -3.9405 -0.1459 -0.1163
  823MOL0     H 8600   4.838   3.710   4.458  0.3592 -2.5220 -1.9605
  823MOL0     H 8601   4.609   3.590   4.437  0.0327 -2.0118 -1.2234
  823MOL0     H 8602   4.437   3.536   4.744 -0.3611 -0.6002  2.1803
  823MOL0     H 8603   4.497   3.393   4.817  1.6673  0.0801 -1.2618
  823MOL0     H 8604   4.257   3.359   4.812 -0.8248 -0.8409 -0.7653
  823MOL0     H 8605   4.305   3.262   4.686  1.0992 -1.2296  2.1012
  823MOL0     H 8606   4.283   3.502   4.541  0.2879 -0.8318 -0.5704
  823MOL0     H 8607   4.160   3.526   4.668  0.5346  0.6053 -1.3126
  823MOL0     H 8608   4.159   3.300   4.465 -2.1272 -1.2075 -0.9602
  823MOL0     H 8609   4.072   3.298   4.619  2.4741  0.2387  0.4595
  823MOL0     H 8610   4.050   3.511   4.400  1.6139  0.0019  1.2992
  823MOL0     H 8611   3.956   3.505   4.541 -0.6379 -0.5067 -1.0112
  823MOL0     H 8612   3.828   3.313   4.481  1.1730 -0.0658  1.1012
  823MOL0     H 8613   3.969   3.254   4.390  3.6681  1.8445  1.4108
  823MOL0     H 8614   3.929   3.413   4.210  0.2169 -0.0703  0.3504
  823MOL0     H 8615   3.780   3.327   4.231 -0.6624  2.7556 -2.6462
  823MOL0     H 8616   3.718   3.577   4.229 -0.3706 -1.0443 -1.1362
  823MOL0     H 8617   3.810   3.598   4.376 -0.9189 -1.3759  1.2706
  823MOL0     H 8618   4.694   3.385   4.804 -2.8478  0.5152 -0.9442
  823MOL0     H 8619   4.915   3.485   4.810 -0.7710 -1.5579 -0.5714
  823MOL0     H 8620   5.158   3.869   4.634 -0.0001  0.2517  3.3089
  823MOL0     H 8621   5.350   3.982   4.687 -1.0739 -0.6522  0.5640
  823MOL0     H 8622   6.910   3.763   6.052 -1.7457  0.9452 -1.9272
  823MOL0     H 8623   7.148   3.734   6.118 -0.8390 -0.9330  0.7841
  823MOL0     H 8624   7.391   3.304   6.354  0.0737 -0.9687  0.1949
  823MOL0     H 8625   7.615   3.276   6.439  1.6876 -0.4059 -0.2134
  823MOL0     H 8626   7.960   3.541   6.363  2.8064 -0.0143  2.1617
  823MOL0     H 8627   7.982   3.457   6.222  0.0373  3.8399  1.2716
  823MOL0     H 8628   8.108   3.287   6.320  2.3647  1.7309 -1.7745
  823MOL0     H 8629   8.169   3.442   6.358  1.5133 -1.4833  1.4684
  823MOL0     H 8630   8.029   3.259   6.537  4.2232 -1.5188 -1.1842
  823MOL0     H 8631   8.016   3.443   6.571  3.0263  3.3044 -0.8260
  823MOL0     H 8632   8.199   3.303   6.692  3.9837  1.4527  0.0467
  823MOL0     H 8633   8.260   3.274   6.530 -2.2599 -1.7367 -0.5759
  823MOL0     H 8634   8.390   3.662   6.629  0.8029 -1.1387  0.8529
  823MOL0     H 8635   7.778   3.556   6.155  1.3283  1.7616  4.9021
  823MOL0     H 8636   7.559   3.586   6.059  1.9235 -2.4794 -3.1740
  824MOL0     O 8637   5.089   2.729   7.787 -0.0370  0.6178  0.0832
  824MOL0     C 8638   5.039   2.617   7.770  0.7871 -0.1277  0.4141
  824MOL0     O 8639   5.063   2.514   7.851 -0.1548  0.3834 -0.3590
  824MOL0     C 8640   5.141   2.520   7.962  0.4167  0.4027  0.1920
  824MOL0     C 8641   5.093   2.526   8.095  0.3376 -0.5535 -0.8732
  824MOL0     C 8642   5.177   2.534   8.206 -0.2154 -0.5998  0.7693
  824MOL0     C 8643   5.316   2.532   8.193  0.3309 -0.5999  0.2687
  824MOL0     O 8644   5.406   2.540   8.296  0.4448  0.4781 -0.3882
  824MOL0     C 8645   5.532   2.463   8.302 -0.0874 -0.0271  1.1926
  824MOL0     C 8646   5.512   2.308   8.302  0.5967  0.2925  0.3714
  824MOL0     C 8647   5.648   2.242   8.321  0.7271 -0.3421 -0.3289
  824MOL0     C 8648   5.629   2.086   8.344  0.8093  0.5770 -0.5305
  824MOL0     C 8649   5.718   2.034   8.464  0.6075  0.7302 -0.1554
  824MOL0     C 8650   5.864   2.060   8.442  0.0189 -1.2705 -0.9942
  824MOL0     C 8651   5.938   2.016   8.567 -0.6206  0.3055  0.8032
  824MOL0     C 8652   6.094   2.040   8.563 -0.0273 -0.5181 -0.1369
  824MOL0     N 8653   6.117   2.179   8.535 -0.5120 -0.0166 -0.0203
  824MOL0     C 8654   6.092   2.287   8.621 -0.4907  0.4343 -0.3385
  824MOL0     C 8655   6.099   2.406   8.550  0.1303  0.0191 -0.2457
  824MOL0     C 8656   6.105   2.541   8.610  1.0159 -0.1038 -0.2337
  824MOL0     C 8657   5.962   2.574   8.670 -0.2759  0.6165  0.2319
  824MOL0     C 8658   5.842   2.557   8.572  0.2155 -0.9087 -0.1836
  824MOL0     C 8659   5.851   2.659   8.454  0.5120  0.9529 -0.4279
  824MOL0     O 8660   5.844   2.794   8.503  0.4529 -0.0186  0.2302
  824MOL0     C 8661   5.727   2.858   8.519  0.3867 -0.1809  0.0258
  824MOL0     C 8662   5.605   2.798   8.526  0.3106 -0.5724  0.3477
  824MOL0     C 8663   5.488   2.879   8.513  0.3057  0.1993 -0.3600
  824MOL0     C 8664   5.499   3.023   8.518  0.2002 -0.1552  1.0955
  824MOL0     C 8665   5.380   3.109   8.527 -0.0395 -0.2528 -0.3396
  824MOL0     O 8666   5.263   3.054   8.540  0.7539 -0.4836  0.0919
  824MOL0     C 8667   5.143   3.129   8.551 -0.9129 -0.1181  0.9171
  824MOL0     C 8668   5.031   3.060   8.516  0.2041  0.1695 -0.5816
  824MOL0     C 8669   4.906   3.112   8.519 -0.5827  0.0316 -0.2221
  824MOL0     C 8670   4.888   3.241   8.574  0.1628  0.3061 -0.3270
  824MOL0     O 8671   4.774   3.315   8.579  0.2494 -0.6389 -0.0683
  824MOL0     C 8672   4.661   3.235   8.553  0.7294  0.2476  1.0245
  824MOL0     C 8673   4.538   3.316   8.581  0.6485  0.8395 -1.7641
  824MOL0     C 8674   4.469   3.244   8.698 -0.4480 -0.1746  0.0520
  824MOL0     C 8675   4.349   3.318   8.753 -0.8874  0.3043 -0.0653
  824MOL0     C 8676   4.289   3.254   8.878  0.5371 -0.4662 -0.2445
  824MOL0     C 8677   4.252   3.110   8.873 -0.5121 -0.0530  0.3366
  824MOL0     C 8678   4.155   3.076   8.766  0.0345  0.0100  0.1082
  824MOL0     C 8679   4.096   2.938   8.782  1.2554  0.0820  0.0540
  824MOL0    Cl 8680   4.229   2.819   8.777 -0.1019 -0.0796  0.3138
  824MOL0     C 8681   5.002   3.316   8.614  0.2662  0.5471  0.8334
  824MOL0     C 8682   5.132   3.253   8.609 -0.0767 -0.5525  0.3512
  824MOL0     O 8683   5.405   3.232   8.509  0.3273  1.0853  0.0705
  824MOL0     C 8684   5.626   3.081   8.515 -0.1779  1.0961  0.2875
  824MOL0     C 8685   5.737   2.993   8.532 -0.4452 -0.2302 -0.5561
  824MOL0     N 8686   6.143   2.362   8.422  0.2426 -0.4658  0.1017
  824MOL0     N 8687   6.156   2.235   8.420 -0.5871  0.1881  0.0128
  824MOL0     C 8688   5.363   2.519   8.062  0.1985  0.2135 -1.1552
  824MOL0     C 8689   5.277   2.513   7.948  0.4731 -0.0168 -0.1540
  824MOL0     C 8690   4.928   2.600   7.675  0.7650  0.0644  0.6753
  824MOL0     C 8691   4.836   2.488   7.678  0.0632 -0.1798  0.9490
  824MOL0     C 8692   4.737   2.477   7.581 -1.2279  0.3899 -0.4503
  824MOL0     C 8693   4.729   2.566   7.474 -0.4546 -0.7838 -0.0701
  824MOL0     O 8694   4.639   2.548   7.373 -0.5623 -0.8560 -0.5419
  824MOL0     C 8695   4.506   2.513   7.408  0.9439  0.2440  0.1753
  824MOL0     C 8696   4.445   2.610   7.495 -0.2560  0.6938 -0.0490
  824MOL0     C 8697   4.424   2.757   7.444 -1.0359 -0.7349 -0.8544
  824MOL0     C 8698   4.296   2.773   7.353 -0.5362  0.6272  0.3291
  824MOL0     C 8699   4.176   2.779   7.435  0.1647 -0.7314 -0.4202
  824MOL0     C 8700   4.074   2.805   7.495  0.1282  1.5359  0.2310
  824MOL0     C 8701   4.809   2.674   7.468  0.9835 -0.3753 -0.6098
  824MOL0     C 8702   4.905   2.701   7.573  0.3316  0.2586 -0.1905
  824MOL0     H 8703   4.985   2.517   8.101 -0.0544  2.9888 -0.2709
  824MOL0     H 8704   5.134   2.540   8.306 -2.0770 -3.3869  0.2560
  824MOL0     H 8705   5.594   2.494   8.386 -0.4745  1.0797  1.0899
  824MOL0     H 8706   5.591   2.494   8.216 -4.1349  1.2508 -1.4256
  824MOL0     H 8707   5.469   2.277   8.207 -0.0075  4.8190 -1.0624
  824MOL0     H 8708   5.433   2.286   8.375  1.0248  0.1497  0.7983
  824MOL0     H 8709   5.691   2.291   8.409  0.5494 -1.7723  0.6031
  824MOL0     H 8710   5.723   2.259   8.244  1.8369 -0.9026  0.5932
  824MOL0     H 8711   5.523   2.065   8.358  0.6127  0.8321 -1.6144
  824MOL0     H 8712   5.654   2.043   8.247  1.0655 -2.6073  0.8297
  824MOL0     H 8713   5.694   1.928   8.469 -3.2608  1.4373 -0.9307
  824MOL0     H 8714   5.680   2.075   8.557 -2.8053 -0.6069 -0.8395
  824MOL0     H 8715   5.877   2.168   8.433 -3.8747 -0.2995  2.1288
  824MOL0     H 8716   5.904   2.011   8.353 -1.2471  1.8818 -3.4909
  824MOL0     H 8717   5.893   2.062   8.655 -0.8793  1.9266 -0.1307
  824MOL0     H 8718   5.935   1.908   8.579  1.1983 -0.2912 -2.5395
  824MOL0     H 8719   6.138   1.983   8.481 -1.5035  2.1759 -2.9722
  824MOL0     H 8720   6.141   2.024   8.661 -0.7694  2.1289  0.7397
  824MOL0     H 8721   6.075   2.276   8.727  0.9075  1.1779 -0.0075
  824MOL0     H 8722   6.117   2.617   8.532 -3.6950  2.0528  0.7339
  824MOL0     H 8723   6.182   2.542   8.687 -0.6076 -2.8369  1.6094
  824MOL0     H 8724   5.966   2.678   8.706  2.4623  0.9071 -0.6778
  824MOL0     H 8725   5.942   2.511   8.757  2.5638 -0.5483  0.1409
  824MOL0     H 8726   5.837   2.456   8.528  0.8072 -2.1442  2.3657
  824MOL0     H 8727   5.750   2.571   8.629  1.7491  0.1599  2.1773
  824MOL0     H 8728   5.766   2.634   8.389 -0.2990  0.8226  0.6586
  824MOL0     H 8729   5.933   2.642   8.384  3.4078  0.4443  2.8361
  824MOL0     H 8730   5.594   2.691   8.542  2.6715 -0.7278  1.3531
  824MOL0     H 8731   5.395   2.824   8.503  0.6988 -0.4303 -0.6234
  824MOL0     H 8732   5.050   2.963   8.470  0.8745 -0.3170  0.6969
  824MOL0     H 8733   4.826   3.067   8.462  1.5254  0.4717 -3.8311
  824MOL0     H 8734   4.651   3.147   8.617  0.0785 -0.9345 -0.6312
  824MOL0     H 8735   4.659   3.206   8.448 -2.7630 -2.5445  1.6740
  824MOL0     H 8736   4.472   3.318   8.493  0.5464 -0.6100 -1.7327
  824MOL0     H 8737   4.565   3.411   8.628  0.2795 -2.1632  5.9167
  824MOL0     H 8738   4.547   3.229   8.773 -0.5733 -0.7293  0.0716
  824MOL0     H 8739   4.434   3.150   8.655  2.1865 -0.4360 -1.7508
  824MOL0     H 8740   4.375   3.422   8.773 -1.1823  0.5939 -1.1600
  824MOL0     H 8741   4.281   3.323   8.668 -2.5078 -2.2792  0.9724
  824MOL0     H 8742   4.202   3.315   8.903  0.5448 -0.7288  0.4395
  824MOL0     H 8743   4.360   3.270   8.959  0.1964  2.1869 -0.3802
  824MOL0     H 8744   4.214   3.077   8.970  1.6837  0.5354  1.4565
  824MOL0     H 8745   4.342   3.048   8.870 -0.6192 -0.2301 -2.7657
  824MOL0     H 8746   4.072   3.144   8.742 -0.4364 -1.1774 -1.8230
  824MOL0     H 8747   4.210   3.087   8.673  1.8001  2.0880  1.2928
  824MOL0     H 8748   4.024   2.908   8.705  2.4559 -0.7012 -0.8119
  824MOL0     H 8749   4.049   2.918   8.879 -0.5153 -2.0214 -1.1334
  824MOL0     H 8750   4.988   3.405   8.675 -1.8267  0.8620 -0.0056
  824MOL0     H 8751   5.213   3.306   8.660  0.8337 -1.9305  0.3922
  824MOL0     H 8752   5.646   3.187   8.500  1.1460  0.8847  0.4282
  824MOL0     H 8753   5.837   3.032   8.545 -0.4150 -1.1968  3.5821
  824MOL0     H 8754   5.470   2.514   8.040  0.2803  1.9456 -1.2587
  824MOL0     H 8755   5.318   2.514   7.848 -3.9297 -1.4408 -2.2275
  824MOL0     H 8756   4.850   2.416   7.757  0.1613  2.3438  3.3815
  824MOL0     H 8757   4.669   2.392   7.577 -0.3967 -0.2541 -0.9369
  824MOL0     H 8758   4.490   2.418   7.459  0.2922  0.9405  1.3279
  824MOL0     H 8759   4.447   2.510   7.316 -0.8915  0.8060  1.2695
  824MOL0     H 8760   4.346   2.572   7.524  0.1455 -0.6084 -0.2967
  824MOL0     H 8761   4.495   2.616   7.592 -1.5307 -0.6778  0.7360
  824MOL0     H 8762   4.511   2.774   7.379 -0.3125 -1.5958 -0.1269
  824MOL0     H 8763   4.419   2.834   7.522  3.0468  0.5029 -1.5556
  824MOL0     H 8764   4.313   2.864   7.295 -1.2739 -0.6093 -1.9299
  824MOL0     H 8765   4.304   2.687   7.286 -0.0263  0.0648  1.0916
  824MOL0     H 8766   3.976   2.822   7.536 -0.3737 -0.6964  0.0706
  824MOL0     H 8767   4.790   2.745   7.388 -0.4552 -1.9800 -1.7857
  824MOL0     H 8768   4.962   2.793   7.558  0.5944 -0.2200 -2.3663
  825MOL0     O 8769   8.442   1.457   1.623  0.1799  0.4905 -0.0786
  825MOL0     C 8770   8.526   1.540   1.659 -0.1048 -0.5916 -0.3890
  825MOL0     O 8771   8.508   1.663   1.711  0.7469 -1.1067 -0.1879
  825MOL0     C 8772   8.377   1.699   1.724 -0.2225  0.0005 -0.4169
  825MOL0     C 8773   8.338   1.813   1.654 -0.2458  0.0832  0.8072
  825MOL0     C 8774   8.201   1.843   1.647  0.7969 -0.4130 -0.2839
  825MOL0     C 8775   8.102   1.771   1.728 -1.1900  0.6921  0.1699
  825MOL0     O 8776   7.968   1.805   1.707 -0.4319  0.2238  0.0172
  825MOL0     C 8777   7.879   1.745   1.801 -0.4093 -0.1869 -0.6798
  825MOL0     C 8778   7.753   1.817   1.773 -0.0940 -0.6645  1.2317
  825MOL0     C 8779   7.659   1.791   1.887 -0.6115  0.4911 -0.4937
  825MOL0     C 8780   7.503   1.818   1.859  0.3441  0.6205 -0.2231
  825MOL0     C 8781   7.425   1.792   1.987 -0.8834  0.2363 -0.5991
  825MOL0     C 8782   7.428   1.914   2.087  0.3992  0.3900 -0.5464
  825MOL0     C 8783   7.309   1.904   2.177  0.4395 -0.3018  0.0225
  825MOL0     C 8784   7.305   2.029   2.268 -0.1935  0.7865  0.7517
  825MOL0     N 8785   7.176   2.047   2.327  0.0725 -0.1268  0.6827
  825MOL0     C 8786   7.129   1.988   2.438 -0.0448  0.5585 -1.0641
  825MOL0     C 8787   7.003   2.035   2.446  0.7326  1.3114  0.4776
  825MOL0     C 8788   6.896   2.017   2.551 -0.4920 -0.0836 -0.4577
  825MOL0     C 8789   6.928   2.104   2.668 -0.4761  0.3084 -0.0327
  825MOL0     C 8790   6.940   2.256   2.641 -0.2297  0.1606 -0.1536
  825MOL0     C 8791   6.805   2.316   2.579  0.0000  0.3337  0.4374
  825MOL0     O 8792   6.790   2.452   2.581 -0.3385 -0.6755 -0.3494
  825MOL0     C 8793   6.663   2.497   2.603 -0.0016 -0.4053  1.0095
  825MOL0     C 8794   6.641   2.580   2.716  0.4052  0.4051 -0.4936
  825MOL0     C 8795   6.509   2.619   2.742  1.2042 -0.3569  0.1515
  825MOL0     C 8796   6.401   2.581   2.658 -0.2269 -0.1853  0.0267
  825MOL0     C 8797   6.263   2.611   2.696 -0.2513 -0.7017  0.5494
  825MOL0     O 8798   6.168   2.583   2.601  0.0915 -0.4608 -0.2910
  825MOL0     C 8799   6.028   2.609   2.609  0.4688  0.2701 -0.4907
  825MOL0     C 8800   5.962   2.665   2.720 -0.7399  0.0874  0.2262
  825MOL0     C 8801   5.828   2.689   2.708  0.0792  0.0140  0.5084
  825MOL0     C 8802   5.757   2.659   2.594 -0.3191 -0.5925 -0.0764
  825MOL0     O 8803   5.630   2.695   2.570 -0.2219  0.0100  0.8031
  825MOL0     C 8804   5.544   2.717   2.683 -0.4399  0.2475 -0.1209
  825MOL0     C 8805   5.409   2.788   2.637 -0.5175  0.5275  0.6807
  825MOL0     C 8806   5.337   2.699   2.539 -0.8293  0.4514  0.7878
  825MOL0     C 8807   5.195   2.747   2.513  1.0510 -0.1975 -0.8301
  825MOL0     C 8808   5.175   2.901   2.495  0.3171  1.0287 -0.0900
  825MOL0     C 8809   5.048   2.949   2.422  0.1864 -0.0825 -0.7031
  825MOL0     C 8810   4.932   2.946   2.517 -0.6294 -0.7000  0.3944
  825MOL0     C 8811   4.817   3.026   2.460  0.0774 -0.0759  0.3581
  825MOL0    Cl 8812   4.677   2.994   2.568 -0.4204  0.4618  0.0795
  825MOL0     C 8813   5.824   2.613   2.483 -0.8273  0.4008  0.0338
  825MOL0     C 8814   5.957   2.589   2.496 -0.8727  0.4705 -0.8102
  825MOL0     O 8815   6.245   2.660   2.805 -0.4987 -0.6989  0.5218
  825MOL0     C 8816   6.423   2.507   2.538 -0.4047  0.1669  0.2697
  825MOL0     C 8817   6.556   2.464   2.523 -0.3863 -0.3922  0.5487
  825MOL0     N 8818   6.964   2.118   2.341 -0.8136 -0.0847 -0.0746
  825MOL0     N 8819   7.080   2.131   2.273 -0.6850  0.3786 -0.2279
  825MOL0     C 8820   8.147   1.658   1.800 -0.1824 -0.1067 -0.5323
  825MOL0     C 8821   8.285   1.625   1.801  0.7550  0.5559 -0.1220
  825MOL0     C 8822   8.659   1.488   1.675  0.0142  0.4054  0.6170
  825MOL0     C 8823   8.758   1.547   1.750  0.0900  0.5081  0.4563
  825MOL0     C 8824   8.887   1.496   1.755  0.1388  0.0010 -0.7941
  825MOL0     C 8825   8.922   1.376   1.687 -0.2524 -0.2329 -0.0278
  825MOL0     O 8826   9.044   1.320   1.688  0.2876 -0.2323 -0.2820
  825MOL0     C 8827   9.143   1.389   1.751 -0.6949  0.1463 -1.0696
  825MOL0     C 8828   9.265   1.305   1.732 -0.6458 -0.0344 -0.1387
  825MOL0     C 8829   9.331   1.335   1.587 -0.1443 -0.1564 -0.6090
  825MOL0     C 8830   9.360   1.484   1.566  0.5117 -0.2696  0.8972
  825MOL0     C 8831   9.454   1.532   1.671 -0.0370 -0.5276  0.2241
  825MOL0     C 8832   9.531   1.573   1.754  0.9375 -0.1011 -0.1508
  825MOL0     C 8833   8.814   1.302   1.629 -0.2140 -0.1349 -0.0625
  825MOL0     C 8834   8.681   1.357   1.629 -1.0446 -0.4198 -0.5595
  825MOL0     H 8835   8.420   1.866   1.607  0.4409 -0.9615  0.7698
  825MOL0     H 8836   8.157   1.930   1.600  1.9461  0.2445 -0.1761
  825MOL0     H 8837   7.921   1.783   1.895 -0.2107 -0.6391 -0.5844
  825MOL0     H 8838   7.867   1.636   1.798  1.3091 -0.3839 -0.9642
  825MOL0     H 8839   7.723   1.779   1.674  2.3143 -1.2862  0.6670
  825MOL0     H 8840   7.758   1.926   1.763 -2.8261 -0.2876  2.9632
  825MOL0     H 8841   7.685   1.865   1.963 -1.4803 -2.5741  3.1120
  825MOL0     H 8842   7.684   1.689   1.919  1.1633  1.8243  2.8602
  825MOL0     H 8843   7.492   1.916   1.813 -0.3782  1.3295  1.3748
  825MOL0     H 8844   7.471   1.755   1.776 -0.6768 -1.0219  1.3503
  825MOL0     H 8845   7.458   1.703   2.041 -0.5002  0.1378 -0.9925
  825MOL0     H 8846   7.323   1.780   1.948 -0.9038 -0.9490 -0.2236
  825MOL0     H 8847   7.419   2.015   2.045 -3.3083  0.6267  0.4699
  825MOL0     H 8848   7.515   1.905   2.152  0.5328  0.0547 -0.7680
  825MOL0     H 8849   7.220   1.906   2.113  2.3522  0.5731 -2.8017
  825MOL0     H 8850   7.317   1.820   2.247 -0.8202  0.4436  1.1128
  825MOL0     H 8851   7.329   2.119   2.211  3.0585 -0.3472  0.0865
  825MOL0     H 8852   7.385   2.018   2.341  0.0535 -1.1900  0.2385
  825MOL0     H 8853   7.185   1.915   2.497  1.0625  2.1461 -0.0689
  825MOL0     H 8854   6.895   1.914   2.586  2.6389 -0.5049 -1.3464
  825MOL0     H 8855   6.797   2.048   2.517  0.3430  1.2048 -1.8624
  825MOL0     H 8856   7.024   2.063   2.702 -0.3630 -0.8439 -1.6458
  825MOL0     H 8857   6.865   2.080   2.754  2.5305 -3.8355  1.3694
  825MOL0     H 8858   6.940   2.303   2.740 -2.2695 -0.8369  0.3747
  825MOL0     H 8859   7.035   2.276   2.591  0.6940 -1.6270  0.7717
  825MOL0     H 8860   6.725   2.275   2.642 -1.4863  2.4263  0.0337
  825MOL0     H 8861   6.794   2.273   2.479 -0.4137 -1.8385  1.3540
  825MOL0     H 8862   6.722   2.614   2.780 -1.0957 -0.0231  1.7659
  825MOL0     H 8863   6.487   2.670   2.835  1.1420 -0.2040  0.0542
  825MOL0     H 8864   6.006   2.682   2.818 -0.9797  0.5454  0.2542
  825MOL0     H 8865   5.785   2.740   2.794  0.7381  0.6952  0.4424
  825MOL0     H 8866   5.588   2.791   2.751  2.3387 -0.1462 -1.3373
  825MOL0     H 8867   5.528   2.618   2.727 -0.1446  1.3761  2.7751
  825MOL0     H 8868   5.419   2.887   2.591 -0.0472 -0.0069 -0.4090
  825MOL0     H 8869   5.340   2.796   2.722 -0.8231 -1.8503  0.7193
  825MOL0     H 8870   5.348   2.591   2.553 -0.5622 -0.7569 -5.5057
  825MOL0     H 8871   5.397   2.703   2.447 -3.3945  0.0173 -1.0325
  825MOL0     H 8872   5.161   2.702   2.420 -2.6860  0.2670  0.1341
  825MOL0     H 8873   5.137   2.700   2.593  1.4157 -0.2235 -0.5787
  825MOL0     H 8874   5.255   2.952   2.440 -2.4212  5.4647 -0.4006
  825MOL0     H 8875   5.184   2.940   2.597  1.4965 -1.7785  1.0060
  825MOL0     H 8876   5.015   2.902   2.329 -1.3214 -0.5324  0.0247
  825MOL0     H 8877   5.071   3.052   2.397 -1.5940  0.3865 -0.5621
  825MOL0     H 8878   4.910   2.840   2.529  2.1108 -1.6051 -1.6067
  825MOL0     H 8879   4.953   2.991   2.614 -2.5326 -1.0959  1.0354
  825MOL0     H 8880   4.798   2.994   2.357 -2.2164 -0.9986  1.0025
  825MOL0     H 8881   4.845   3.132   2.466  1.4179 -0.2463 -1.8757
  825MOL0     H 8882   5.780   2.592   2.386  0.9240 -0.2958 -0.6375
  825MOL0     H 8883   6.024   2.553   2.419  1.1463  1.4283  0.4168
  825MOL0     H 8884   6.343   2.491   2.466 -0.8582  2.7986  0.0851
  825MOL0     H 8885   6.566   2.396   2.439 -0.7382  0.7854 -0.4776
  825MOL0     H 8886   8.076   1.595   1.852  0.0529  0.3274  0.3298
  825MOL0     H 8887   8.314   1.532   1.848 -0.4210 -0.6583 -1.6629
  825MOL0     H 8888   8.740   1.645   1.793  0.4602  0.3840  0.9030
  825MOL0     H 8889   8.954   1.542   1.828 -0.9452  3.3257 -1.7390
  825MOL0     H 8890   9.122   1.382   1.858  1.6704 -1.9912 -0.6746
  825MOL0     H 8891   9.158   1.494   1.724  0.0133  0.0446 -1.0703
  825MOL0     H 8892   9.330   1.324   1.818 -5.0386  1.2705  3.2682
  825MOL0     H 8893   9.243   1.198   1.739 -0.1365 -0.1994 -0.9566
  825MOL0     H 8894   9.275   1.298   1.501 -1.4825  2.5711 -1.0120
  825MOL0     H 8895   9.427   1.282   1.591 -0.3915 -0.5448  2.1033
  825MOL0     H 8896   9.399   1.513   1.468 -0.2041  0.6909  0.8813
  825MOL0     H 8897   9.266   1.539   1.577  0.9004  0.5463  0.2876
  825MOL0     H 8898   9.595   1.602   1.835  0.1501  1.5053 -0.0659
  825MOL0     H 8899   8.835   1.213   1.571 -1.0157 -0.1181 -0.3847
  825MOL0     H 8900   8.608   1.303   1.570  0.2009  0.7171 -3.3185
  826MOL0     O 8901   7.952  11.078   7.133 -0.0433  0.3019  0.1455
  826MOL0     C 8902   7.991  10.963   7.176  0.5005 -1.6334 -0.2371
  826MOL0     O 8903   7.904  10.866   7.234 -0.1961  0.1276  0.1660
  826MOL0     C 8904   7.769  10.895   7.223 -0.1562 -0.5236 -0.2659
  826MOL0     C 8905   7.702  10.912   7.101  0.7156 -0.4511 -0.4398
  826MOL0     C 8906   7.559  10.913   7.100 -1.0601  0.4197  0.2405
  826MOL0     C 8907   7.486  10.911   7.214 -0.9091  0.7667 -0.5428
  826MOL0     O 8908   7.352  10.930   7.203 -0.5201  0.3216 -0.6083
  826MOL0     C 8909   7.263  10.875   7.303 -0.3703  0.3464 -0.2372
  826MOL0     C 8910   7.118  10.864   7.247  0.4533 -0.0348 -0.1190
  826MOL0     C 8911   7.102  10.754   7.142 -1.2863 -0.1608  0.1504
  826MOL0     C 8912   6.975  10.774   7.059 -0.1630  0.6595 -0.4737
  826MOL0     C 8913   6.845  10.720   7.120  0.0557  0.1062 -0.4760
  826MOL0     C 8914   6.728  10.743   7.041  1.0070 -0.6959 -0.3019
  826MOL0     C 8915   6.598  10.679   7.110  0.0732 -0.7643  0.9598
  826MOL0     C 8916   6.461  10.711   7.035 -0.2664  0.2846 -0.1829
  826MOL0     N 8917   6.340  10.662   7.089 -0.4808  0.5924 -0.2060
  826MOL0     C 8918   6.269  10.729   7.182  0.8769  0.8852  0.2620
  826MOL0     C 8919   6.169  10.642   7.218 -0.5100 -0.3211  0.5533
  826MOL0     C 8920   6.060  10.653   7.324  0.7071 -0.4219  0.9587
  826MOL0     C 8921   5.919  10.619   7.269  0.3547  0.6448 -0.0300
  826MOL0     C 8922   5.801  10.664   7.355  0.3517  0.5326 -0.8716
  826MOL0     C 8923   5.668  10.673   7.281  0.1256  0.6376 -0.3394
  826MOL0     O 8924   5.555  10.680   7.363 -0.7396  0.2861 -0.6394
  826MOL0     C 8925   5.431  10.693   7.308  0.7984  0.3626 -1.1825
  826MOL0     C 8926   5.408  10.689   7.169  0.2709  0.5361 -0.2949
  826MOL0     C 8927   5.284  10.718   7.119  0.5837  0.8217  0.7954
  826MOL0     C 8928   5.168  10.726   7.202 -0.2713 -0.9192 -0.1218
  826MOL0     C 8929   5.041  10.757   7.143  0.5136 -0.1718  0.1348
  826MOL0     O 8930   5.035  10.778   7.011 -0.1236 -0.0328 -0.3896
  826MOL0     C 8931   4.922  10.815   6.947  1.1554  0.0426 -0.0397
  826MOL0     C 8932   4.823  10.899   7.004 -0.0963  0.7930 -0.1950
  826MOL0     C 8933   4.707  10.909   6.931 -0.6614  0.7729 -0.1328
  826MOL0     C 8934   4.703  10.861   6.798 -0.3168  0.3862 -0.1794
  826MOL0     O 8935   4.585  10.886   6.731  0.1141 -0.5675 -0.2503
  826MOL0     C 8936   4.466  10.935   6.788 -0.4429  0.6016  0.0802
  826MOL0     C 8937   4.345  10.928   6.694  0.3040  0.4499  0.0321
  826MOL0     C 8938   4.286  10.781   6.663 -0.2875 -0.4747 -1.1372
  826MOL0     C 8939   4.178  10.785   6.557 -0.0771 -0.8289 -0.3625
  826MOL0     C 8940   4.141  10.651   6.490  0.0421 -0.4427 -0.4021
  826MOL0     C 8941   4.003  10.651   6.426  0.1668 -1.5999  0.0041
  826MOL0     C 8942   3.963  10.516   6.373 -0.7061  0.4623 -0.2360
  826MOL0     C 8943   3.831  10.509   6.288  0.0771  0.5222 -0.2668
  826MOL0    Cl 8944   3.696  10.617   6.347 -0.3451  0.3057 -0.0718
  826MOL0     C 8945   4.805  10.795   6.734 -0.3853  0.6119 -0.0846
  826MOL0     C 8946   4.920  10.775   6.816 -0.4406  0.9001 -0.6540
  826MOL0     O 8947   4.951  10.769   7.218  0.0081  0.0282 -0.1978
  826MOL0     C 8948   5.197  10.704   7.340  0.1229 -0.2089  0.2539
  826MOL0     C 8949   5.325  10.702   7.398  0.8950 -0.0220 -0.1607
  826MOL0     N 8950   6.179  10.536   7.131 -0.4100 -0.1799 -0.0572
  826MOL0     N 8951   6.289  10.534   7.072 -1.3422  0.3036  0.3666
  826MOL0     C 8952   7.562  10.908   7.336  1.0647  0.7307  0.2089
  826MOL0     C 8953   7.700  10.889   7.341  0.1245 -0.2150 -0.2328
  826MOL0     C 8954   8.139  10.941   7.180 -0.0282 -0.0966 -0.1170
  826MOL0     C 8955   8.230  11.030   7.113 -0.0183 -0.8750 -0.5197
  826MOL0     C 8956   8.372  11.016   7.125 -0.0134  0.0154  0.2007
  826MOL0     C 8957   8.417  10.920   7.219  0.3455  0.7934 -0.4615
  826MOL0     O 8958   8.549  10.898   7.246  0.3527 -0.2387  0.1776
  826MOL0     C 8959   8.650  10.969   7.174  0.1514  0.8500  0.0388
  826MOL0     C 8960   8.771  10.884   7.174  0.2023  0.2053  0.0040
  826MOL0     C 8961   8.761  10.760   7.078  1.2351  0.3417  0.0498
  826MOL0     C 8962   8.729  10.784   6.927 -0.3497 -0.7835  0.3537
  826MOL0     C 8963   8.781  10.674   6.847 -0.6843 -0.2812  0.2721
  826MOL0     C 8964   8.820  10.583   6.780 -0.2355 -0.0585 -0.7834
  826MOL0     C 8965   8.327  10.837   7.281 -0.1161  0.3201 -0.1784
  826MOL0     C 8966   8.195  10.847   7.267  0.3100  0.4249  0.3689
  826MOL0     H 8967   7.758  10.897   7.009 -0.7415 -0.8464 -1.2942
  826MOL0     H 8968   7.510  10.904   7.004  0.5081 -3.1276 -0.3945
  826MOL0     H 8969   7.260  10.946   7.387  0.3314  0.2215 -0.0993
  826MOL0     H 8970   7.292  10.778   7.345  2.0097  1.0741 -0.0896
  826MOL0     H 8971   7.094  10.969   7.228  0.0729  0.0994  1.0542
  826MOL0     H 8972   7.052  10.833   7.328  0.1617 -0.7791 -0.6331
  826MOL0     H 8973   7.112  10.653   7.182  2.2295  1.2375  3.4334
  826MOL0     H 8974   7.190  10.774   7.081 -1.5318  2.7010  0.5688
  826MOL0     H 8975   6.955  10.876   7.024  0.8347  1.2293  0.5913
  826MOL0     H 8976   6.985  10.709   6.972 -0.6254  0.1239 -0.1311
  826MOL0     H 8977   6.826  10.762   7.219 -0.5910  3.2474 -1.7874
  826MOL0     H 8978   6.848  10.614   7.146  1.3404  0.1329 -0.4864
  826MOL0     H 8979   6.746  10.694   6.945 -1.6265 -1.3759 -0.5217
  826MOL0     H 8980   6.714  10.851   7.024  2.0564 -0.4391  0.4015
  826MOL0     H 8981   6.617  10.572   7.124  1.8903 -0.7732 -1.0797
  826MOL0     H 8982   6.589  10.712   7.214 -1.7669  0.2032  0.5331
  826MOL0     H 8983   6.464  10.676   6.931  0.4551  2.2309 -0.8733
  826MOL0     H 8984   6.462  10.820   7.023 -2.8956  0.4307  0.2965
  826MOL0     H 8985   6.291  10.830   7.215  1.6736  1.0627 -0.7649
  826MOL0     H 8986   6.064  10.757   7.357 -0.1962  0.2551 -0.9200
  826MOL0     H 8987   6.081  10.588   7.409  0.2953 -2.4697 -0.4318
  826MOL0     H 8988   5.926  10.511   7.253  0.8678  0.4712  1.2444
  826MOL0     H 8989   5.907  10.661   7.169 -0.4334 -2.2091 -1.2273
  826MOL0     H 8990   5.791  10.602   7.444  0.8652  1.5144 -0.1096
  826MOL0     H 8991   5.810  10.768   7.386  0.9945  0.3376 -0.3896
  826MOL0     H 8992   5.651  10.594   7.208 -2.0436 -2.3131  3.0133
  826MOL0     H 8993   5.676  10.764   7.221  1.3388 -1.2616 -3.3058
  826MOL0     H 8994   5.501  10.694   7.113  0.5559  0.8592  0.1995
  826MOL0     H 8995   5.273  10.746   7.015 -0.2320  0.6445  0.8313
  826MOL0     H 8996   4.836  10.949   7.100  0.1826 -1.1089  0.8198
  826MOL0     H 8997   4.622  10.964   6.970 -1.6163 -1.0955  0.5315
  826MOL0     H 8998   4.481  11.040   6.814  2.4658  0.7817 -1.9351
  826MOL0     H 8999   4.432  10.885   6.879 -2.0020  1.5905  0.0968
  826MOL0     H 9000   4.368  10.986   6.604 -1.5081  0.6194 -0.3623
  826MOL0     H 9001   4.264  10.985   6.740  0.3554 -1.0148  2.0472
  826MOL0     H 9002   4.251  10.742   6.759 -1.1909  1.8064 -0.4897
  826MOL0     H 9003   4.374  10.722   6.634 -1.6783 -2.0707 -2.2893
  826MOL0     H 9004   4.089  10.817   6.612  1.9829  1.7836  1.7732
  826MOL0     H 9005   4.196  10.861   6.480  2.2203 -2.0660 -1.1733
  826MOL0     H 9006   4.137  10.580   6.573  1.1048  0.1353  0.1654
  826MOL0     H 9007   4.226  10.628   6.424  0.6226  0.7680 -0.1000
  826MOL0     H 9008   4.012  10.720   6.342  0.7293 -0.6371  0.8242
  826MOL0     H 9009   3.926  10.678   6.500 -0.6471 -3.1949 -0.2102
  826MOL0     H 9010   4.049  10.465   6.328 -1.4519 -0.4129 -0.7269
  826MOL0     H 9011   3.951  10.465   6.469  2.1089 -1.7370 -0.8908
  826MOL0     H 9012   3.792  10.407   6.288  0.5114  0.3359  0.9906
  826MOL0     H 9013   3.847  10.526   6.182 -2.9042 -0.7317 -1.0179
  826MOL0     H 9014   4.806  10.759   6.631  0.5012 -2.6177  0.9305
  826MOL0     H 9015   5.009  10.739   6.767 -0.7202  2.1733 -2.1807
  826MOL0     H 9016   5.117  10.690   7.413  2.2197  0.0303  2.7303
  826MOL0     H 9017   5.333  10.666   7.500 -2.2045  2.9764  1.3472
  826MOL0     H 9018   7.519  10.934   7.433 -1.0579  0.6361 -0.6742
  826MOL0     H 9019   7.756  10.879   7.433 -0.4891  1.4444  0.3475
  826MOL0     H 9020   8.197  11.109   7.045  0.6620 -1.5837 -1.7194
  826MOL0     H 9021   8.447  11.068   7.066  3.0714 -2.3158  1.7424
  826MOL0     H 9022   8.675  11.064   7.221  0.3150 -0.8743  3.8167
  826MOL0     H 9023   8.627  10.979   7.068 -0.3289 -2.8194 -0.3329
  826MOL0     H 9024   8.858  10.932   7.128  0.1792 -1.1805 -1.6069
  826MOL0     H 9025   8.791  10.847   7.275 -1.8454 -2.4352 -0.4540
  826MOL0     H 9026   8.695  10.684   7.121  2.5080  0.4924  2.4493
  826MOL0     H 9027   8.863  10.721   7.084  0.8827 -0.8822 -1.4287
  826MOL0     H 9028   8.621  10.798   6.921 -0.1831  0.5746  0.0136
  826MOL0     H 9029   8.765  10.879   6.885 -0.8222 -1.6268 -2.1169
  826MOL0     H 9030   8.865  10.515   6.712  0.7833 -0.2390  0.0387
  826MOL0     H 9031   8.368  10.758   7.343  0.8975  0.3082 -0.8273
  826MOL0     H 9032   8.142  10.765   7.315  1.3006  0.1644  1.0444
  827MOL0     O 9033   7.738   0.985   9.375  0.2444 -0.6618 -0.2095
  827MOL0     C 9034   7.672   0.886   9.421 -0.1774 -0.4075 -0.4749
  827MOL0     O 9035   7.715   0.810   9.524  0.1810 -0.3519 -0.7977
  827MOL0     C 9036   7.840   0.829   9.577  0.7048 -0.8332  0.4991
  827MOL0     C 9037   7.870   0.818   9.721 -0.2376  0.5102 -1.0218
  827MOL0     C 9038   8.001   0.817   9.781  0.1733 -0.6719  0.8072
  827MOL0     C 9039   8.111   0.844   9.698 -0.0456  0.6505  0.1050
  827MOL0     O 9040   8.232   0.834   9.766  0.6014 -1.0611 -0.0366
  827MOL0     C 9041   8.323   0.923   9.713 -0.3271 -0.3520 -0.5210
  827MOL0     C 9042   8.453   0.920   9.794 -0.4387 -0.3605  0.2152
  827MOL0     C 9043   8.503   0.774   9.816  0.0541  0.9252  0.3019
  827MOL0     C 9044   8.636   0.772   9.894 -0.7152  0.1051 -0.0065
  827MOL0     C 9045   8.753   0.819   9.807  0.0003 -0.9025 -0.9384
  827MOL0     C 9046   8.900   0.776   9.848 -0.0467  0.8108  0.6699
  827MOL0     C 9047   8.992   0.858   9.757  1.0470  0.1344 -0.3603
  827MOL0     C 9048   9.144   0.845   9.797 -0.3009 -0.4959 -0.7962
  827MOL0     N 9049   9.226   0.954   9.754  0.6637 -0.1496 -0.7234
  827MOL0     C 9050   9.354   0.973   9.811 -0.4006  0.1091 -0.0600
  827MOL0     C 9051   9.395   1.089   9.754 -1.2042  0.0026 -0.1121
  827MOL0     C 9052   9.528   1.160   9.763 -0.6212 -0.6113 -0.4875
  827MOL0     C 9053   9.639   1.090   9.687 -0.1603 -0.2146  0.1209
  827MOL0     C 9054   9.606   1.095   9.537  0.0887 -0.1584  0.5651
  827MOL0     C 9055   9.715   1.033   9.453  0.2605 -0.0525 -0.3191
  827MOL0     O 9056   9.663   0.985   9.328 -0.6692  0.0559  0.2403
  827MOL0     C 9057   9.633   1.081   9.228  0.2285  0.8963 -0.2957
  827MOL0     C 9058   9.683   1.209   9.227 -0.1022 -1.0906  0.0658
  827MOL0     C 9059   9.673   1.293   9.119 -0.5112  0.3941  0.6747
  827MOL0     C 9060   9.598   1.251   9.006  0.1773  0.0684 -0.0578
  827MOL0     C 9061   9.586   1.330   8.887 -0.6162 -0.9365 -0.8079
  827MOL0     O 9062   9.550   1.275   8.769 -0.7904 -0.2956  0.2384
  827MOL0     C 9063   9.586   1.342   8.660 -1.4888 -0.1366  0.2537
  827MOL0     C 9064   9.719   1.390   8.623  0.0360  0.2276 -0.1960
  827MOL0     C 9065   9.744   1.446   8.502  0.1065 -0.4090  0.2130
  827MOL0     C 9066   9.641   1.469   8.410  0.3068  0.3241 -0.3145
  827MOL0     O 9067   9.659   1.524   8.285 -0.0290  0.5247  0.5093
  827MOL0     C 9068   9.781   1.569   8.238 -0.3318  1.0385 -0.4613
  827MOL0     C 9069   9.764   1.586   8.087 -0.4244 -0.0127  0.5789
  827MOL0     C 9070   9.887   1.636   8.010  0.0054  0.0189  0.4636
  827MOL0     C 9071   9.817   1.694   7.877  0.0582  0.7426 -0.0708
  827MOL0     C 9072   9.933   1.769   7.794  0.9923  0.3044 -0.4694
  827MOL0     C 9073   9.888   1.774   7.642 -1.5238  0.2777 -0.2538
  827MOL0     C 9074  10.002   1.852   7.561 -0.2988 -0.2861 -0.4093
  827MOL0     C 9075   9.938   1.925   7.449 -0.2188 -0.1889  0.9549
  827MOL0    Cl 9076   9.803   2.034   7.491 -0.2261 -0.6072  0.1723
  827MOL0     C 9077   9.508   1.419   8.444 -0.2433 -0.9517 -0.0982
  827MOL0     C 9078   9.486   1.351   8.565 -0.2319  0.1286 -0.5965
  827MOL0     O 9079   9.618   1.450   8.905  0.0535  0.3549  0.1132
  827MOL0     C 9080   9.535   1.123   9.013  0.1777  0.6340  1.5481
  827MOL0     C 9081   9.547   1.043   9.127 -0.8038 -0.6481  0.1739
  827MOL0     N 9082   9.298   1.123   9.661 -0.6573  0.3903 -0.0808
  827MOL0     N 9083   9.196   1.047   9.666 -0.0876  0.0405  0.0613
  827MOL0     C 9084   8.089   0.858   9.560  0.0102  0.1190  0.0667
  827MOL0     C 9085   7.960   0.857   9.506 -0.1357 -0.1624  0.5127
  827MOL0     C 9086   7.537   0.875   9.378  0.8261  0.5940 -0.1413
  827MOL0     C 9087   7.480   0.745   9.386  0.9657  0.3911 -0.0969
  827MOL0     C 9088   7.355   0.711   9.323 -0.0674 -0.0201 -0.1640
  827MOL0     C 9089   7.288   0.813   9.254 -0.8797  0.4525  0.0919
  827MOL0     O 9090   7.159   0.804   9.198  0.2809 -0.2145 -0.2185
  827MOL0     C 9091   7.114   0.682   9.147  0.1033 -0.9283 -0.8312
  827MOL0     C 9092   7.034   0.593   9.257 -1.1074 -0.5300  0.3028
  827MOL0     C 9093   6.879   0.613   9.246 -0.5877  0.7726 -0.1240
  827MOL0     C 9094   6.840   0.762   9.238 -0.7857  0.2189 -1.0674
  827MOL0     C 9095   6.695   0.785   9.247 -0.1162  0.6658  0.3462
  827MOL0     C 9096   6.582   0.813   9.258  0.1094  0.3605  0.1525
  827MOL0     C 9097   7.346   0.941   9.241  0.1783 -0.2697 -0.5534
  827MOL0     C 9098   7.468   0.975   9.302 -0.4313 -0.0633 -0.4237
  827MOL0     H 9099   7.785   0.807   9.788 -0.6741 -0.2805 -1.6950
  827MOL0     H 9100   8.017   0.812   9.888 -2.3823 -2.3411  1.1867
  827MOL0     H 9101   8.272   1.018   9.728  0.8852  0.2240  0.1531
  827MOL0     H 9102   8.344   0.900   9.608  1.2114 -2.1282  0.1097
  827MOL0     H 9103   8.432   0.972   9.888 -1.5009  1.1755 -0.8157
  827MOL0     H 9104   8.524   0.983   9.740 -1.7256 -0.2503 -1.4598
  827MOL0     H 9105   8.505   0.729   9.717  3.3011 -1.1002  1.1089
  827MOL0     H 9106   8.440   0.723   9.889 -0.5187  0.2460 -0.6504
  827MOL0     H 9107   8.631   0.838   9.982  0.4894 -2.4418  2.1169
  827MOL0     H 9108   8.655   0.669   9.923  3.0616  0.5836 -0.2766
  827MOL0     H 9109   8.750   0.924   9.838 -1.5110 -1.0951 -0.3399
  827MOL0     H 9110   8.736   0.815   9.699 -0.7497  1.3116 -0.9534
  827MOL0     H 9111   8.910   0.667   9.846  2.0724  0.9746 -0.2006
  827MOL0     H 9112   8.934   0.804   9.948  1.2594  0.7331  0.2596
  827MOL0     H 9113   8.988   0.827   9.652  1.1988  0.3244 -0.4219
  827MOL0     H 9114   8.959   0.962   9.763 -0.3066 -0.1333 -2.2154
  827MOL0     H 9115   9.191   0.747   9.780  1.4907 -0.2085  1.8043
  827MOL0     H 9116   9.140   0.849   9.907 -0.2982 -2.1036 -0.7127
  827MOL0     H 9117   9.405   0.922   9.891 -1.4067  3.0565  2.6896
  827MOL0     H 9118   9.553   1.189   9.866 -0.8324 -1.0508 -0.3071
  827MOL0     H 9119   9.508   1.255   9.714 -0.0019 -0.7920 -1.1099
  827MOL0     H 9120   9.649   0.987   9.723 -1.2722  0.2687  1.9678
  827MOL0     H 9121   9.734   1.137   9.714  0.0647  1.1194 -2.5826
  827MOL0     H 9122   9.521   1.026   9.533  0.4452 -0.5843  0.2193
  827MOL0     H 9123   9.578   1.191   9.494  0.3496 -0.9992 -1.6011
  827MOL0     H 9124   9.756   0.946   9.504  2.7227  1.7167  0.9175
  827MOL0     H 9125   9.797   1.102   9.434 -1.1796  2.1437  0.9382
  827MOL0     H 9126   9.749   1.244   9.306  0.6325  1.2005 -1.4599
  827MOL0     H 9127   9.723   1.388   9.132 -1.3302  0.6525  2.2166
  827MOL0     H 9128   9.806   1.375   8.687 -0.3156  2.4232  0.8904
  827MOL0     H 9129   9.847   1.469   8.478 -0.3124  0.4059 -0.8763
  827MOL0     H 9130   9.850   1.485   8.252 -1.6350 -1.1284 -4.8836
  827MOL0     H 9131   9.810   1.656   8.297 -2.1912  0.6594  1.1317
  827MOL0     H 9132   9.683   1.658   8.075  1.5975  2.2917 -0.0904
  827MOL0     H 9133   9.725   1.495   8.039 -1.2141  1.0103 -0.7930
  827MOL0     H 9134   9.957   1.554   7.993 -0.0652  0.4286 -2.3365
  827MOL0     H 9135   9.937   1.717   8.065 -0.9673  0.6093  0.5133
  827MOL0     H 9136   9.775   1.618   7.809 -0.2254  0.8505 -0.0174
  827MOL0     H 9137   9.738   1.766   7.898  0.5949  1.6139 -0.9695
  827MOL0     H 9138  10.028   1.714   7.792 -0.3129 -2.0833 -1.4891
  827MOL0     H 9139   9.953   1.874   7.816 -2.4750  0.4808  2.8780
  827MOL0     H 9140   9.781   1.795   7.638 -2.3965 -2.5919  2.6944
  827MOL0     H 9141   9.895   1.671   7.604 -0.1247  0.3416 -0.2489
  827MOL0     H 9142  10.049   1.933   7.617 -2.1494  0.7299 -0.2496
  827MOL0     H 9143  10.088   1.794   7.527 -0.1787 -1.1946  1.3004
  827MOL0     H 9144   9.879   1.859   7.385  1.7213 -0.1134 -1.0296
  827MOL0     H 9145  10.012   1.977   7.387 -0.3544 -1.1687 -0.0713
  827MOL0     H 9146   9.429   1.443   8.374  0.1809  0.1598 -0.2265
  827MOL0     H 9147   9.390   1.312   8.598  1.1421 -1.1349  2.2133
  827MOL0     H 9148   9.471   1.090   8.932  2.0511 -0.2047  0.3412
  827MOL0     H 9149   9.489   0.952   9.132 -1.1805 -0.4934 -1.0040
  827MOL0     H 9150   8.166   0.876   9.485 -0.7536 -1.2545 -1.0984
  827MOL0     H 9151   7.947   0.878   9.400  0.0422  1.2558  0.7540
  827MOL0     H 9152   7.528   0.666   9.442  0.6081  0.2755  0.0535
  827MOL0     H 9153   7.309   0.614   9.334  0.9848 -0.3155  2.4141
  827MOL0     H 9154   7.195   0.621   9.105 -0.7574 -3.1550  0.5730
  827MOL0     H 9155   7.037   0.697   9.070  2.2021  0.6819 -2.7652
  827MOL0     H 9156   7.064   0.490   9.239 -0.1408  0.0710 -1.8206
  827MOL0     H 9157   7.064   0.622   9.358 -0.3698  3.0700 -0.7999
  827MOL0     H 9158   6.816   0.562   9.319  1.6579 -2.6517 -0.3527
  827MOL0     H 9159   6.847   0.563   9.153 -2.5016 -3.5545  2.5435
  827MOL0     H 9160   6.871   0.815   9.329  0.1842 -1.4063 -0.4250
  827MOL0     H 9161   6.876   0.815   9.149  0.0027  1.2544 -0.1535
  827MOL0     H 9162   6.482   0.848   9.240 -0.3857 -2.3421 -3.7934
  827MOL0     H 9163   7.283   1.018   9.197  0.5961  0.5210  0.1982
  827MOL0     H 9164   7.505   1.075   9.280 -0.6821 -0.1371 -1.2303
  828MOL0     O 9165   8.053   4.099   8.708  0.4391  0.2002  0.5678
  828MOL0     C 9166   8.066   3.978   8.715 -0.8007 -0.2745  0.9987
  828MOL0     O 9167   7.966   3.890   8.735  0.1986  0.5865 -0.3762
  828MOL0     C 9168   7.847   3.936   8.764 -0.5124  0.1779 -0.6556
  828MOL0     C 9169   7.793   3.924   8.895  0.2988 -0.9831 -0.2031
  828MOL0     C 9170   7.666   3.978   8.921  0.1399  0.5819  0.7746
  828MOL0     C 9171   7.587   4.032   8.814 -0.7620 -0.7630 -0.8967
  828MOL0     O 9172   7.458   4.069   8.851 -0.2284 -0.1888  0.7097
  828MOL0     C 9173   7.358   4.040   8.753 -0.0398 -0.2155 -0.2365
  828MOL0     C 9174   7.215   4.041   8.811 -0.8101 -0.1853 -0.1140
  828MOL0     C 9175   7.195   4.188   8.861  0.3348 -0.7024 -0.0978
  828MOL0     C 9176   7.048   4.221   8.894 -0.6065  0.7285 -0.2083
  828MOL0     C 9177   7.019   4.358   8.958 -1.0546 -0.4742  0.2414
  828MOL0     C 9178   7.112   4.469   8.903  0.2946  0.3044 -0.4384
  828MOL0     C 9179   7.080   4.609   8.959 -0.4961 -0.0237  0.1367
  828MOL0     C 9180   6.934   4.656   8.964  0.3415  0.1841  0.0375
  828MOL0     N 9181   6.866   4.659   8.832  0.3463  0.5616  0.5184
  828MOL0     C 9182   6.909   4.714   8.707  0.8803 -0.4248 -0.5895
  828MOL0     C 9183   6.801   4.701   8.621 -1.1739  0.2353 -0.9916
  828MOL0     C 9184   6.787   4.748   8.469  0.0320  0.9727  0.2723
  828MOL0     C 9185   6.915   4.809   8.400  1.0728  0.3043  0.2055
  828MOL0     C 9186   7.027   4.707   8.388  0.4952  0.0833  0.4542
  828MOL0     C 9187   7.164   4.783   8.349 -0.1048 -0.1554 -0.4454
  828MOL0     O 9188   7.224   4.837   8.470  0.3655  0.0704 -0.5847
  828MOL0     C 9189   7.363   4.845   8.485 -0.0846  0.2866  0.0688
  828MOL0     C 9190   7.415   4.856   8.613 -0.7354 -0.8421  0.1124
  828MOL0     C 9191   7.561   4.880   8.637 -0.2243 -0.2023  0.6636
  828MOL0     C 9192   7.646   4.875   8.522  0.4858 -0.4997  0.2120
  828MOL0     C 9193   7.799   4.899   8.534  0.3869  0.2697  0.6093
  828MOL0     O 9194   7.858   4.922   8.420  0.3122 -0.3165  0.1570
  828MOL0     C 9195   7.993   4.884   8.394  0.4415  0.5333  0.0282
  828MOL0     C 9196   8.028   4.853   8.259 -0.4538 -0.3326  0.5366
  828MOL0     C 9197   8.168   4.820   8.227  0.5533  0.8950 -0.8473
  828MOL0     C 9198   8.271   4.824   8.325  0.4829  0.3976 -0.4637
  828MOL0     O 9199   8.404   4.792   8.311  0.1149 -0.1170  0.1955
  828MOL0     C 9200   8.451   4.816   8.182  0.5494  0.4125  0.6345
  828MOL0     C 9201   8.596   4.832   8.182 -0.6995 -0.6134  0.8472
  828MOL0     C 9202   8.648   4.872   8.037 -0.3659 -0.1385  0.6336
  828MOL0     C 9203   8.785   4.939   8.048 -0.1758 -0.4759  0.3837
  828MOL0     C 9204   8.840   4.978   7.907  0.3008 -0.6547 -0.2366
  828MOL0     C 9205   8.967   5.067   7.929  0.6762 -0.4510 -0.3898
  828MOL0     C 9206   8.920   5.216   7.941 -1.1418  0.3436 -0.1493
  828MOL0     C 9207   9.040   5.310   7.961  0.1263  0.5265  0.0603
  828MOL0    Cl 9208   9.126   5.314   7.793  0.3668 -0.1340 -0.2192
  828MOL0     C 9209   8.237   4.873   8.451  1.4065  0.4834 -0.0539
  828MOL0     C 9210   8.097   4.889   8.486 -0.2092  0.1586 -0.7836
  828MOL0     O 9211   7.847   4.882   8.639  0.3747  1.0830  0.1765
  828MOL0     C 9212   7.589   4.857   8.398 -0.3007 -0.4408 -0.2127
  828MOL0     C 9213   7.459   4.829   8.381  0.5959  0.2910 -0.4887
  828MOL0     N 9214   6.695   4.654   8.697 -0.4244 -0.2107  0.2033
  828MOL0     N 9215   6.735   4.631   8.818  0.4540  0.1778  0.6053
  828MOL0     C 9216   7.648   4.054   8.692 -0.4659 -0.4397  0.0354
  828MOL0     C 9217   7.776   4.006   8.662  0.1381 -0.7593  0.5900
  828MOL0     C 9218   8.204   3.924   8.685 -0.1640 -0.3226 -0.4135
  828MOL0     C 9219   8.220   3.832   8.579  0.1785  0.4507  0.6735
  828MOL0     C 9220   8.352   3.796   8.559  0.3163  0.3650 -0.6171
  828MOL0     C 9221   8.460   3.846   8.635 -0.1414 -0.8702  0.8273
  828MOL0     O 9222   8.573   3.783   8.600 -0.6144 -0.0144  0.1882
  828MOL0     C 9223   8.697   3.839   8.644  1.5147  0.3893 -0.1067
  828MOL0     C 9224   8.785   3.824   8.527  0.1195 -0.1199 -0.7477
  828MOL0     C 9225   8.831   3.684   8.512 -0.2855 -0.5748  0.0446
  828MOL0     C 9226   8.920   3.673   8.387 -0.0831 -0.0209 -1.0651
  828MOL0     C 9227   9.058   3.706   8.399  1.0099 -0.4248 -0.2962
  828MOL0     C 9228   9.168   3.750   8.424  0.4000 -0.0561 -0.2081
  828MOL0     C 9229   8.446   3.955   8.722 -0.0305 -0.5532 -0.1482
  828MOL0     C 9230   8.312   3.989   8.750 -0.1698  0.6938 -0.1834
  828MOL0     H 9231   7.850   3.872   8.971 -0.6480 -0.6681  0.7709
  828MOL0     H 9232   7.627   3.970   9.022 -0.4495 -0.9019  0.4533
  828MOL0     H 9233   7.377   3.936   8.727  4.8544  0.0197  1.3634
  828MOL0     H 9234   7.366   4.102   8.663  1.1177  1.4241  0.9355
  828MOL0     H 9235   7.193   3.969   8.890  0.4386 -0.2142  0.2342
  828MOL0     H 9236   7.149   4.019   8.727 -0.2478  2.4319 -1.3717
  828MOL0     H 9237   7.224   4.257   8.781  1.3185 -0.5399  0.3793
  828MOL0     H 9238   7.258   4.210   8.948  0.8250 -0.3091 -0.5449
  828MOL0     H 9239   6.984   4.210   8.806 -1.3216  1.7779  0.1661
  828MOL0     H 9240   7.012   4.142   8.961 -0.3070  0.3086 -0.5395
  828MOL0     H 9241   7.057   4.348   9.060  2.4844  1.6376 -0.6985
  828MOL0     H 9242   6.915   4.391   8.964 -0.3411  1.8489  0.7290
  828MOL0     H 9243   7.097   4.478   8.794 -2.8317  1.1676 -0.0575
  828MOL0     H 9244   7.217   4.449   8.924  0.3141  1.7139  1.0321
  828MOL0     H 9245   7.122   4.601   9.059  1.2802 -1.9977 -0.6822
  828MOL0     H 9246   7.144   4.682   8.909  1.9890 -1.3936  1.1622
  828MOL0     H 9247   6.929   4.760   8.998 -1.1611 -0.6512  2.6810
  828MOL0     H 9248   6.871   4.601   9.035 -0.1062  0.9594  0.2578
  828MOL0     H 9249   7.010   4.751   8.692  1.7838 -1.1111  2.9522
  828MOL0     H 9250   6.711   4.826   8.467  2.1576  3.2163  1.2018
  828MOL0     H 9251   6.755   4.667   8.404 -1.7877  1.1900  0.8456
  828MOL0     H 9252   6.952   4.889   8.466  1.0020  1.8987 -1.5714
  828MOL0     H 9253   6.887   4.851   8.302 -0.7734 -0.6919  0.2688
  828MOL0     H 9254   7.048   4.666   8.487  1.6855  1.5690  0.8613
  828MOL0     H 9255   6.990   4.639   8.311  1.2377 -0.2648  0.3994
  828MOL0     H 9256   7.127   4.866   8.288 -1.8652 -1.5675 -1.4227
  828MOL0     H 9257   7.234   4.711   8.305 -0.0907 -1.5945  1.7913
  828MOL0     H 9258   7.339   4.839   8.688  0.4275 -3.2881  0.8599
  828MOL0     H 9259   7.609   4.890   8.734 -2.1145 -0.6856  1.6871
  828MOL0     H 9260   7.955   4.844   8.180 -0.8586  0.5416  0.8048
  828MOL0     H 9261   8.194   4.779   8.130  1.2041 -0.8671  0.0229
  828MOL0     H 9262   8.402   4.906   8.143  0.6649  0.1200 -0.2115
  828MOL0     H 9263   8.434   4.737   8.108  0.8916  0.7526  0.1888
  828MOL0     H 9264   8.637   4.736   8.213  1.6898 -0.8998 -2.5794
  828MOL0     H 9265   8.626   4.909   8.253  0.0786  2.1331 -2.1923
  828MOL0     H 9266   8.570   4.931   7.988 -3.1993 -4.8065 -1.1649
  828MOL0     H 9267   8.652   4.784   7.972 -2.3933 -0.1838  0.4976
  828MOL0     H 9268   8.766   5.027   8.110 -0.0401 -2.4948  3.5065
  828MOL0     H 9269   8.848   4.868   8.103 -0.8253 -0.6895  0.8557
  828MOL0     H 9270   8.761   5.030   7.850 -0.0161  0.4440  1.1560
  828MOL0     H 9271   8.859   4.885   7.852 -0.1028 -1.1474  0.4482
  828MOL0     H 9272   9.025   5.065   7.836  1.8291 -1.0309  0.3215
  828MOL0     H 9273   9.043   5.050   8.006  3.5770  2.1173 -2.4690
  828MOL0     H 9274   8.861   5.240   7.852 -3.5199 -2.2161  0.5919
  828MOL0     H 9275   8.855   5.225   8.028 -2.4824  5.0171 -1.3113
  828MOL0     H 9276   9.100   5.271   8.044 -0.9206 -1.2120  0.0450
  828MOL0     H 9277   9.020   5.410   8.001  0.7688 -0.4135  3.0286
  828MOL0     H 9278   8.313   4.877   8.528  3.3826 -0.3023 -1.8722
  828MOL0     H 9279   8.085   4.925   8.587  0.8887  2.8635 -1.5170
  828MOL0     H 9280   7.659   4.860   8.315  1.8695  0.7791  1.5402
  828MOL0     H 9281   7.412   4.811   8.285 -3.5374 -1.2109  1.5628
  828MOL0     H 9282   7.590   4.104   8.615 -0.5991 -1.7214 -0.7254
  828MOL0     H 9283   7.833   4.030   8.573  0.7487  0.7206  1.3508
  828MOL0     H 9284   8.135   3.784   8.532 -1.1212  0.4045  2.9380
  828MOL0     H 9285   8.378   3.732   8.476 -0.4974 -0.2635 -0.3980
  828MOL0     H 9286   8.727   3.801   8.742 -0.8825 -4.6298 -0.9587
  828MOL0     H 9287   8.684   3.947   8.649  1.1233  0.3930 -1.0611
  828MOL0     H 9288   8.733   3.862   8.438  0.7513 -0.7021 -1.3758
  828MOL0     H 9289   8.872   3.890   8.525 -0.5606  0.8226 -0.1233
  828MOL0     H 9290   8.744   3.621   8.494 -0.7656  0.5055 -1.6213
  828MOL0     H 9291   8.874   3.655   8.609 -2.0405  1.4361  1.5149
  828MOL0     H 9292   8.911   3.569   8.355 -0.2106 -0.6591  0.9038
  828MOL0     H 9293   8.881   3.735   8.306 -1.6387  2.1879  1.2296
  828MOL0     H 9294   9.264   3.793   8.444  0.3861  0.8581 -1.8599
  828MOL0     H 9295   8.532   4.005   8.766 -0.7449 -0.9747  1.8331
  828MOL0     H 9296   8.278   4.070   8.815 -1.1550  0.6752 -0.6485
  829MOL0     O 9297   1.188   0.726   9.742  0.3692 -0.1163 -0.6542
  829MOL0     C 9298   1.271   0.759   9.824 -0.0962  0.6579  0.0132
  829MOL0     O 9299   1.242   0.818   9.950 -0.3919 -0.0538  0.0927
  829MOL0     C 9300   1.116   0.868   9.968 -0.7791  0.2398 -0.5194
  829MOL0     C 9301   0.996   0.797  10.008  1.1306 -0.2923  0.0270
  829MOL0     C 9302   0.874   0.864  10.008 -0.3021  0.9216 -0.1197
  829MOL0     C 9303   0.872   1.005  10.007  0.4735 -0.2648 -0.6976
  829MOL0     O 9304   0.755   1.075  10.023  0.0844 -0.5434 -0.0654
  829MOL0     C 9305   0.628   1.001  10.049 -0.1446 -0.0033 -0.1397
  829MOL0     C 9306   0.524   1.099  10.069  0.5310  0.7860 -0.1159
  829MOL0     C 9307   0.404   1.054  10.144  0.4835  0.1704 -0.3626
  829MOL0     C 9308   0.277   1.160  10.141 -0.4743  0.6646  0.7213
  829MOL0     C 9309   0.151   1.103  10.221 -0.5372  0.5328  0.6899
  829MOL0     C 9310   0.166   1.118  10.377 -0.9595  0.1111 -0.4001
  829MOL0     C 9311   0.077   1.231  10.439 -0.4856 -0.2350  0.2204
  829MOL0     C 9312   0.110   1.276  10.582 -0.2880 -0.3014  1.0981
  829MOL0     N 9313   0.077   1.178  10.672 -0.1407  0.4522  0.4062
  829MOL0     C 9314   0.160   1.071  10.706  0.3539 -0.2773 -0.5178
  829MOL0     C 9315   0.122   1.023  10.829 -0.1998  0.2477 -0.0017
  829MOL0     C 9316   0.159   0.896  10.888 -0.5588 -0.0648 -0.3417
  829MOL0     C 9317   0.161   0.897  11.046  0.2049 -0.1606  0.6217
  829MOL0     C 9318   0.280   0.975  11.104  0.4330  0.3166 -0.0247
  829MOL0     C 9319   0.291   0.953  11.249  0.0643 -0.1422  0.6094
  829MOL0     O 9320   0.328   0.822  11.283 -0.3503  0.3407  0.4267
  829MOL0     C 9321   0.469   0.786  11.273  0.3196 -0.9921  0.8784
  829MOL0     C 9322   0.567   0.887  11.240  0.5552  0.7590 -0.0028
  829MOL0     C 9323   0.705   0.846  11.231 -0.4134 -0.4600  1.1912
  829MOL0     C 9324   0.741   0.719  11.266  0.1713  0.7127  0.0845
  829MOL0     C 9325   0.893   0.683  11.277  0.1988 -0.1485  0.0089
  829MOL0     O 9326   0.986   0.767  11.220  0.2236  0.4101 -0.3973
  829MOL0     C 9327   1.113   0.716  11.204 -1.0570  0.0751  0.7785
  829MOL0     C 9328   1.134   0.593  11.144  0.4058  0.9108  0.0486
  829MOL0     C 9329   1.253   0.528  11.136 -0.3816  0.5110 -0.2124
  829MOL0     C 9330   1.366   0.606  11.175  0.7004  1.0645 -0.3050
  829MOL0     O 9331   1.491   0.549  11.184  1.0105 -0.1551 -0.0122
  829MOL0     C 9332   1.590   0.600  11.085  0.1736 -0.2924 -0.7197
  829MOL0     C 9333   1.692   0.491  11.102 -0.2427  0.7386  0.9600
  829MOL0     C 9334   1.800   0.525  11.005 -0.2431  0.1963  0.5856
  829MOL0     C 9335   1.912   0.428  10.989 -0.2681 -0.6128 -0.2995
  829MOL0     C 9336   2.024   0.459  11.096  0.1728  0.1329  0.4904
  829MOL0     C 9337   2.150   0.366  11.076 -0.0621  0.2271  0.2151
  829MOL0     C 9338   2.203   0.349  10.932  0.9067 -0.9398  0.1944
  829MOL0     C 9339   2.240   0.479  10.872 -0.1049  0.2674 -0.2158
  829MOL0    Cl 9340   2.335   0.459  10.725 -0.1838  0.4059  0.0840
  829MOL0     C 9341   1.349   0.735  11.210 -0.2924  0.4338 -0.2950
  829MOL0     C 9342   1.228   0.794  11.226  0.4271 -0.4482  0.2156
  829MOL0     O 9343   0.920   0.593  11.351 -0.7203  0.1601 -0.1844
  829MOL0     C 9344   0.655   0.623  11.313  0.4265 -0.9859 -0.1370
  829MOL0     C 9345   0.518   0.658  11.297  0.3223  0.1188 -0.2124
  829MOL0     N 9346   0.012   1.104  10.864  0.8792  0.2794  0.3366
  829MOL0     N 9347  -0.016   1.188  10.771  0.0449  0.2327 -0.2325
  829MOL0     C 9348   0.991   1.078   9.991 -0.6006 -0.2509 -0.9069
  829MOL0     C 9349   1.112   1.011   9.972  0.0028  0.8321 -1.1098
  829MOL0     C 9350   1.418   0.731   9.800 -0.0297 -0.1851  0.4121
  829MOL0     C 9351   1.515   0.819   9.846 -0.2870  0.0942  0.4438
  829MOL0     C 9352   1.646   0.792   9.826 -0.7876 -0.3115 -0.1915
  829MOL0     C 9353   1.693   0.681   9.764  0.8613 -0.3816 -0.4675
  829MOL0     O 9354   1.830   0.677   9.742  0.0692 -0.0659 -0.5845
  829MOL0     C 9355   1.897   0.550   9.704  0.3351 -0.0073  0.7655
  829MOL0     C 9356   2.033   0.534   9.783 -0.0592  0.0138  0.3752
  829MOL0     C 9357   2.011   0.553   9.934 -0.2485  0.9241 -0.4268
  829MOL0     C 9358   2.147   0.553  10.007  0.2357 -1.1802  1.2662
  829MOL0     C 9359   2.207   0.691   9.991  0.3347  0.4919  0.9873
  829MOL0     C 9360   2.275   0.786   9.962  0.3626 -0.2525 -1.2901
  829MOL0     C 9361   1.599   0.595   9.705  0.6185  0.5344 -0.9523
  829MOL0     C 9362   1.460   0.618   9.720 -0.7144  0.5933 -0.1477
  829MOL0     H 9363   0.993   0.689  10.011  0.9662 -0.3449 -1.3526
  829MOL0     H 9364   0.785   0.801  10.008 -1.7025  2.7591 -2.4435
  829MOL0     H 9365   0.639   0.945  10.142 -0.3735  2.2984  1.3488
  829MOL0     H 9366   0.599   0.943   9.960  0.5487  2.2359 -1.9316
  829MOL0     H 9367   0.486   1.118   9.968 -1.7268  0.4710  0.6072
  829MOL0     H 9368   0.561   1.190  10.119  3.4777  2.2819 -4.4641
  829MOL0     H 9369   0.433   1.031  10.247 -1.6379 -0.6124  0.1076
  829MOL0     H 9370   0.364   0.960  10.105 -3.1744  1.1577  0.6066
  829MOL0     H 9371   0.314   1.258  10.172 -1.5966  1.2907  0.1421
  829MOL0     H 9372   0.252   1.171  10.035 -2.6430  0.6949  1.1872
  829MOL0     H 9373   0.145   0.997  10.194 -3.9468  0.6224  0.6656
  829MOL0     H 9374   0.060   1.142  10.174  0.6156  0.1973 -1.9908
  829MOL0     H 9375   0.271   1.142  10.395 -1.1867  4.0313 -2.9516
  829MOL0     H 9376   0.135   1.029  10.432  0.6672 -1.3699 -1.7751
  829MOL0     H 9377   0.081   1.304  10.358 -0.8446 -1.7475 -1.2015
  829MOL0     H 9378  -0.029   1.205  10.450  0.1525 -3.1772  0.1869
  829MOL0     H 9379   0.054   1.365  10.611  4.6741  3.1186  1.4494
  829MOL0     H 9380   0.217   1.288  10.602 -0.2023 -0.7526  0.9164
  829MOL0     H 9381   0.248   1.035  10.653 -1.3094 -0.7331 -3.1292
  829MOL0     H 9382   0.260   0.872  10.855 -0.7884  0.1195 -1.2124
  829MOL0     H 9383   0.088   0.822  10.851 -0.6687 -0.0438 -0.1767
  829MOL0     H 9384   0.189   0.796  11.076  0.8079  0.5462  2.5861
  829MOL0     H 9385   0.066   0.920  11.095  0.3239  0.0446  0.7557
  829MOL0     H 9386   0.378   0.941  11.069  0.6980 -1.0638  1.9014
  829MOL0     H 9387   0.262   1.082  11.090 -0.1152  0.2740  0.3407
  829MOL0     H 9388   0.193   0.958  11.297  0.2613  2.1186  0.9022
  829MOL0     H 9389   0.355   1.032  11.290 -3.2608  2.1912  1.7060
  829MOL0     H 9390   0.558   0.993  11.223  3.7664  1.0453 -0.5366
  829MOL0     H 9391   0.777   0.922  11.204 -0.2477 -0.1892  2.3802
  829MOL0     H 9392   1.044   0.545  11.107  0.7309  0.2860  0.0508
  829MOL0     H 9393   1.267   0.424  11.109 -0.9656 -0.7470  3.7204
  829MOL0     H 9394   1.625   0.702  11.103 -0.2072  0.2154 -2.6343
  829MOL0     H 9395   1.547   0.613  10.986 -1.5894  1.6729  0.2416
  829MOL0     H 9396   1.659   0.389  11.081  1.2552  0.3841  0.1488
  829MOL0     H 9397   1.732   0.499  11.204  2.1180  2.3091  0.0184
  829MOL0     H 9398   1.846   0.622  11.028  0.3193  0.2737 -0.7450
  829MOL0     H 9399   1.756   0.534  10.905 -3.2114  1.6278  1.8843
  829MOL0     H 9400   1.868   0.329  10.993 -5.5905  1.3822 -1.4108
  829MOL0     H 9401   1.945   0.439  10.885 -2.6696 -0.4726 -1.1051
  829MOL0     H 9402   1.988   0.450  11.199  2.2728  0.2726  1.2885
  829MOL0     H 9403   2.053   0.564  11.103 -1.1044  0.7070 -1.7018
  829MOL0     H 9404   2.116   0.267  11.108  3.0769 -1.1065 -0.2062
  829MOL0     H 9405   2.236   0.397  11.136  1.0477  0.9244 -1.6772
  829MOL0     H 9406   2.291   0.286  10.945  1.8510  0.2678 -0.1939
  829MOL0     H 9407   2.132   0.287  10.875  0.4217 -1.4048  1.2683
  829MOL0     H 9408   2.291   0.537  10.949  0.0753 -0.5250  0.2643
  829MOL0     H 9409   2.152   0.542  10.852 -0.7439 -0.9762 -1.5255
  829MOL0     H 9410   1.444   0.782  11.233 -0.2446  0.0040  0.3882
  829MOL0     H 9411   1.217   0.899  11.253  1.0473  0.2790 -2.1077
  829MOL0     H 9412   0.676   0.521  11.342 -1.7509 -1.0913  1.3578
  829MOL0     H 9413   0.440   0.593  11.335 -2.8165  4.3958  1.5113
  829MOL0     H 9414   0.988   1.187   9.990  2.0641 -0.0880 -0.1874
  829MOL0     H 9415   1.197   1.074   9.950  1.4067 -0.4122  0.5517
  829MOL0     H 9416   1.479   0.904   9.904 -1.5031  0.9123 -1.4352
  829MOL0     H 9417   1.727   0.854   9.864  2.4858 -2.6007 -2.8336
  829MOL0     H 9418   1.918   0.548   9.596 -0.0313  0.2870  0.6879
  829MOL0     H 9419   1.844   0.460   9.735  0.5171 -0.1028  0.8020
  829MOL0     H 9420   2.080   0.436   9.773  0.2283  0.0389  1.3088
  829MOL0     H 9421   2.104   0.607   9.743 -0.8416 -1.5311 -4.4794
  829MOL0     H 9422   1.945   0.474   9.971 -1.0983  0.9657 -1.7751
  829MOL0     H 9423   1.964   0.651   9.947  1.0812  1.6066 -0.5288
  829MOL0     H 9424   2.126   0.537  10.113 -2.4896  3.6635  1.7309
  829MOL0     H 9425   2.213   0.474   9.971 -0.4035 -1.0906 -0.1616
  829MOL0     H 9426   2.350   0.856   9.931  2.1050 -1.1086  0.7311
  829MOL0     H 9427   1.627   0.515   9.637  1.5929  0.5114 -0.5351
  829MOL0     H 9428   1.390   0.555   9.666  1.0370  0.4522 -2.3838
  830MOL0     O 9429   7.242   6.608   9.795  0.0701  0.2918  0.0170
  830MOL0     C 9430   7.210   6.559   9.693  0.1958 -0.2429 -0.0730
  830MOL0     O 9431   7.294   6.505   9.601 -0.1675 -0.5201 -0.4829
  830MOL0     C 9432   7.427   6.509   9.621 -1.2863  0.1816  0.6336
  830MOL0     C 9433   7.503   6.623   9.651  0.0996 -0.1369  0.1127
  830MOL0     C 9434   7.642   6.624   9.653  0.1620  0.9520  0.6948
  830MOL0     C 9435   7.710   6.507   9.637  0.3862 -1.1057 -0.0571
  830MOL0     O 9436   7.845   6.511   9.673 -0.2373 -0.3711 -0.1472
  830MOL0     C 9437   7.907   6.397   9.733  0.6753 -0.9452 -0.1448
  830MOL0     C 9438   7.952   6.286   9.652  0.6145  0.7821 -0.6425
  830MOL0     C 9439   8.040   6.338   9.531  0.1473  0.7260 -0.4675
  830MOL0     C 9440   8.106   6.221   9.463 -0.3076  0.6085 -0.0019
  830MOL0     C 9441   8.197   6.277   9.348  0.4844  0.5077 -0.5403
  830MOL0     C 9442   8.269   6.163   9.264  0.1355 -0.4326 -1.0632
  830MOL0     C 9443   8.355   6.221   9.147 -0.1521 -0.1707  0.2429
  830MOL0     C 9444   8.435   6.119   9.067 -0.2335 -0.5551  0.6670
  830MOL0     N 9445   8.360   5.995   9.041  0.4337 -0.4316  0.5895
  830MOL0     C 9446   8.242   5.970   8.971  0.2189 -0.3829 -1.0923
  830MOL0     C 9447   8.220   5.842   8.977  0.1030 -0.0006 -0.2065
  830MOL0     C 9448   8.121   5.755   8.917 -0.4827 -0.5975  0.7107
  830MOL0     C 9449   7.985   5.820   8.934  0.3694  0.0005 -0.7329
  830MOL0     C 9450   7.871   5.729   8.899  0.3628  0.6210 -0.0009
  830MOL0     C 9451   7.731   5.794   8.917  0.2526  0.4977 -0.0927
  830MOL0     O 9452   7.645   5.695   8.864 -0.0703  0.0680 -0.0043
  830MOL0     C 9453   7.508   5.723   8.852 -0.0186  0.7875 -0.6352
  830MOL0     C 9454   7.446   5.849   8.886  0.3137  0.4295 -0.1295
  830MOL0     C 9455   7.302   5.853   8.883  0.1898  0.5202  1.1630
  830MOL0     C 9456   7.225   5.734   8.861 -0.8274 -1.1299 -0.0010
  830MOL0     C 9457   7.074   5.737   8.859  0.1663  0.4617  1.6184
  830MOL0     O 9458   7.009   5.621   8.863 -0.1379  0.2022 -0.1764
  830MOL0     C 9459   6.874   5.614   8.878  0.2340 -0.2396  0.2435
  830MOL0     C 9460   6.814   5.497   8.832 -0.6000 -0.0729  0.0593
  830MOL0     C 9461   6.679   5.470   8.852 -0.2533  0.0500  0.2917
  830MOL0     C 9462   6.600   5.567   8.915  0.0312 -0.6472 -0.1793
  830MOL0     O 9463   6.461   5.568   8.911  0.3558  0.4156 -0.1302
  830MOL0     C 9464   6.396   5.443   8.899  0.4436  0.4699 -0.0671
  830MOL0     C 9465   6.251   5.458   8.856  0.9677  0.7262  0.9462
  830MOL0     C 9466   6.196   5.323   8.805  0.2638 -0.2769 -0.3194
  830MOL0     C 9467   6.068   5.344   8.733  0.3363  0.5435  0.3368
  830MOL0     C 9468   5.940   5.368   8.817 -0.1451  0.3463 -0.0709
  830MOL0     C 9469   5.817   5.348   8.724  0.2678  0.5837 -1.3045
  830MOL0     C 9470   5.689   5.404   8.794  0.5328  0.2979  0.4350
  830MOL0     C 9471   5.560   5.386   8.702 -1.1611  0.3366 -0.9193
  830MOL0    Cl 9472   5.422   5.434   8.803 -0.1011 -0.6467  0.4870
  830MOL0     C 9473   6.661   5.682   8.953 -0.3916 -0.0587  0.0907
  830MOL0     C 9474   6.797   5.707   8.950  0.3917 -0.2505  0.1742
  830MOL0     O 9475   7.018   5.847   8.846  0.4341 -0.4829 -0.3122
  830MOL0     C 9476   7.287   5.610   8.829 -0.3842 -0.0858  0.2606
  830MOL0     C 9477   7.427   5.610   8.811  0.7396 -0.2085  0.4517
  830MOL0     N 9478   8.322   5.783   9.052 -0.0055 -0.4007 -0.0258
  830MOL0     N 9479   8.406   5.877   9.091  1.1757  0.2171  0.0684
  830MOL0     C 9480   7.635   6.395   9.605 -0.4879  0.2162 -0.1535
  830MOL0     C 9481   7.498   6.397   9.581 -0.5476 -0.4619  0.1756
  830MOL0     C 9482   7.071   6.567   9.650  0.1915  0.2020 -0.5571
  830MOL0     C 9483   6.968   6.565   9.752  0.0967  0.6588 -0.7931
  830MOL0     C 9484   6.835   6.578   9.713  0.1426  0.3943 -0.9755
  830MOL0     C 9485   6.806   6.601   9.579  0.3055  0.8605 -0.7443
  830MOL0     O 9486   6.667   6.606   9.562 -0.4195 -0.0238  0.5528
  830MOL0     C 9487   6.614   6.610   9.426 -0.5649  0.6201  0.6870
  830MOL0     C 9488   6.581   6.758   9.370 -0.0394 -0.3306  0.6506
  830MOL0     C 9489   6.428   6.803   9.385 -0.7933  0.1157  0.0791
  830MOL0     C 9490   6.383   6.851   9.524 -0.1108 -0.9761  0.3295
  830MOL0     C 9491   6.430   6.784   9.646  0.3782  0.0823  0.0698
  830MOL0     C 9492   6.459   6.744   9.755 -0.0476 -0.1613 -0.1982
  830MOL0     C 9493   6.907   6.606   9.488 -0.5548 -0.4967 -0.3716
  830MOL0     C 9494   7.043   6.586   9.520 -0.7305 -0.5794  0.1505
  830MOL0     H 9495   7.440   6.711   9.651 -0.1882 -0.3381 -0.4097
  830MOL0     H 9496   7.694   6.712   9.690  1.0407  0.0389  1.6930
  830MOL0     H 9497   7.838   6.372   9.814  0.6362  2.1025  0.8789
  830MOL0     H 9498   7.999   6.429   9.783  2.1709 -2.3274 -1.8554
  830MOL0     H 9499   7.865   6.226   9.624  1.5575 -0.0277 -1.9736
  830MOL0     H 9500   8.002   6.213   9.716 -0.4323  1.0134  0.4691
  830MOL0     H 9501   8.113   6.410   9.569 -1.3639  3.3617 -2.2390
  830MOL0     H 9502   7.980   6.397   9.461 -0.7731  0.9681  0.4998
  830MOL0     H 9503   8.162   6.165   9.538  1.9782  1.3393 -1.0511
  830MOL0     H 9504   8.033   6.153   9.418  0.5199 -2.3181  2.7098
  830MOL0     H 9505   8.278   6.341   9.383  1.4138 -0.7781 -0.2855
  830MOL0     H 9506   8.134   6.337   9.280  1.4385 -0.4157 -2.2972
  830MOL0     H 9507   8.188   6.103   9.222 -0.4893 -0.8581  0.6689
  830MOL0     H 9508   8.337   6.104   9.326  0.2390 -1.6527 -2.2974
  830MOL0     H 9509   8.284   6.274   9.084  0.4106  1.8946  1.2587
  830MOL0     H 9510   8.413   6.303   9.192 -0.1777 -0.6723  1.2218
  830MOL0     H 9511   8.530   6.095   9.116  0.3857  1.5619  0.6034
  830MOL0     H 9512   8.453   6.165   8.969 -0.6827 -2.4976 -0.3968
  830MOL0     H 9513   8.178   6.042   8.921  0.4346  0.8354  0.3333
  830MOL0     H 9514   8.118   5.651   8.953 -0.8689 -0.9621 -0.3354
  830MOL0     H 9515   8.141   5.748   8.810 -0.9309 -2.7476  0.7194
  830MOL0     H 9516   7.972   5.906   8.867 -3.2173 -2.0148 -2.9840
  830MOL0     H 9517   7.975   5.857   9.036  2.9438  2.4834 -1.2377
  830MOL0     H 9518   7.877   5.702   8.793 -0.0015 -2.6865  0.7284
  830MOL0     H 9519   7.876   5.635   8.955 -0.3151  1.5252  1.6565
  830MOL0     H 9520   7.729   5.887   8.859 -1.6088  0.5435 -0.0164
  830MOL0     H 9521   7.705   5.804   9.022  2.5716 -0.4298  0.6255
  830MOL0     H 9522   7.501   5.940   8.905  0.6600  0.6605 -2.0885
  830MOL0     H 9523   7.249   5.948   8.880 -0.4730  0.1564  1.0230
  830MOL0     H 9524   6.880   5.426   8.783 -1.0642  0.8509 -1.9929
  830MOL0     H 9525   6.652   5.367   8.829  1.6084 -0.3088 -0.4930
  830MOL0     H 9526   6.399   5.395   8.998  2.0634 -0.1427 -0.3853
  830MOL0     H 9527   6.443   5.378   8.825 -1.9920 -1.6355  0.1026
  830MOL0     H 9528   6.240   5.526   8.771  0.2694 -0.0496  0.3981
  830MOL0     H 9529   6.179   5.492   8.931 -1.9323  0.7242 -1.6352
  830MOL0     H 9530   6.190   5.251   8.887 -0.3763 -1.7350 -1.5866
  830MOL0     H 9531   6.264   5.281   8.730  0.7366 -0.0291 -0.0334
  830MOL0     H 9532   6.077   5.428   8.664 -1.3665  1.2435  0.9132
  830MOL0     H 9533   6.049   5.255   8.672  0.4119  0.4297  0.4805
  830MOL0     H 9534   5.941   5.470   8.859  0.2996 -0.2063  1.3450
  830MOL0     H 9535   5.936   5.303   8.905  0.7036  1.3635  0.7691
  830MOL0     H 9536   5.804   5.242   8.699  0.6330  0.0978  0.4409
  830MOL0     H 9537   5.827   5.407   8.633  0.3409  1.3635 -0.8003
  830MOL0     H 9538   5.672   5.352   8.888 -2.4701 -0.3107 -0.3509
  830MOL0     H 9539   5.700   5.511   8.812  1.7147  0.1923  0.4006
  830MOL0     H 9540   5.546   5.281   8.675 -0.9278 -0.2409  1.0427
  830MOL0     H 9541   5.571   5.455   8.617  0.4650 -1.0942 -1.9271
  830MOL0     H 9542   6.593   5.746   9.008 -2.1445 -3.8342  2.7428
  830MOL0     H 9543   6.839   5.795   8.998  0.1860  0.6143 -1.1668
  830MOL0     H 9544   7.232   5.517   8.814 -1.9155  0.9786 -0.9418
  830MOL0     H 9545   7.475   5.516   8.786  0.9557 -0.7058  2.6117
  830MOL0     H 9546   7.692   6.308   9.574  4.3391  2.9937 -0.0843
  830MOL0     H 9547   7.458   6.300   9.555  2.2505 -1.6021 -0.2305
  830MOL0     H 9548   7.013   6.549   9.849  0.9620  2.3493 -0.8712
  830MOL0     H 9549   6.767   6.559   9.796 -0.3635  2.0122 -0.9841
  830MOL0     H 9550   6.526   6.545   9.429 -0.8500  0.7050 -2.4574
  830MOL0     H 9551   6.676   6.550   9.358 -1.1437  0.9560 -0.1398
  830MOL0     H 9552   6.631   6.829   9.437  2.4134  2.0432 -3.3474
  830MOL0     H 9553   6.609   6.770   9.266 -0.2461  2.1894  0.8157
  830MOL0     H 9554   6.378   6.710   9.356  2.6490 -1.5626 -0.9815
  830MOL0     H 9555   6.414   6.880   9.309 -2.4526 -1.8228 -1.6926
  830MOL0     H 9556   6.412   6.957   9.529  0.2626 -1.1131  1.3053
  830MOL0     H 9557   6.275   6.844   9.536  0.0125  0.6574  3.4557
  830MOL0     H 9558   6.509   6.705   9.841 -0.3507 -0.2525 -0.0648
  830MOL0     H 9559   6.886   6.616   9.382 -0.0140 -1.0190 -0.5341
  830MOL0     H 9560   7.122   6.567   9.448 -2.9533 -1.8352 -2.1513
  831MOL0     O 9561  10.187   9.298   1.796  0.2121 -0.1310 -0.4149
  831MOL0     C 9562  10.168   9.221   1.894 -0.1151 -0.9006  0.3173
  831MOL0     O 9563  10.051   9.206   1.967  0.5714 -0.3390  0.1435
  831MOL0     C 9564   9.954   9.305   1.960  0.2858 -0.4011  0.0421
  831MOL0     C 9565   9.923   9.394   1.848 -0.3573  0.0526 -0.3224
  831MOL0     C 9566   9.821   9.490   1.855 -0.3444  1.0719  0.6212
  831MOL0     C 9567   9.749   9.506   1.974 -0.2115  0.4327 -0.7048
  831MOL0     O 9568   9.655   9.609   1.970 -0.1693  0.9312 -0.8636
  831MOL0     C 9569   9.552   9.621   2.071  0.3977  0.3842  0.6268
  831MOL0     C 9570   9.539   9.772   2.073  0.0574  0.2059 -0.0173
  831MOL0     C 9571   9.406   9.813   2.126  0.3695 -0.0665 -0.2505
  831MOL0     C 9572   9.291   9.802   2.026  0.2906  1.1132  0.1595
  831MOL0     C 9573   9.153   9.842   2.081 -0.7047  0.2262  0.2397
  831MOL0     C 9574   9.038   9.838   1.973  0.0551 -0.5983  0.4545
  831MOL0     C 9575   8.899   9.850   2.029  0.0011 -0.8420 -0.2383
  831MOL0     C 9576   8.793   9.853   1.916  0.0979 -0.4887  0.1347
  831MOL0     N 9577   8.668   9.905   1.966  0.6962 -0.0332  0.0590
  831MOL0     C 9578   8.575   9.818   2.012  0.1937  0.9700  0.1943
  831MOL0     C 9579   8.472   9.892   2.062  0.4840  0.1591 -0.2408
  831MOL0     C 9580   8.348   9.828   2.126 -0.4311  0.3845  1.0282
  831MOL0     C 9581   8.275   9.918   2.222 -0.7854  0.3621 -0.3801
  831MOL0     C 9582   8.195   9.848   2.321 -1.0999  0.0221 -0.6556
  831MOL0     C 9583   8.059   9.793   2.270 -0.1906  0.2235  0.3351
  831MOL0     O 9584   7.955   9.878   2.317  0.1696  0.2837 -0.3643
  831MOL0     C 9585   7.846   9.825   2.385 -1.0882  0.4477  0.2685
  831MOL0     C 9586   7.858   9.753   2.498 -0.5510 -0.3950  0.0479
  831MOL0     C 9587   7.743   9.694   2.554  0.2677 -0.2939 -0.4013
  831MOL0     C 9588   7.612   9.735   2.508  0.4914  0.1220 -0.0457
  831MOL0     C 9589   7.500   9.672   2.564  0.0349  0.4288 -0.8288
  831MOL0     O 9590   7.381   9.654   2.490  0.6510  0.0239 -0.0084
  831MOL0     C 9591   7.280   9.594   2.552  1.0336  0.1848  1.3351
  831MOL0     C 9592   7.257   9.454   2.544 -0.3841 -0.8425 -0.1444
  831MOL0     C 9593   7.143   9.400   2.602 -0.2261  0.9163  1.1766
  831MOL0     C 9594   7.049   9.480   2.664 -0.0234  0.0283  0.2654
  831MOL0     O 9595   6.927   9.439   2.710  0.3429  0.1666  0.1465
  831MOL0     C 9596   6.848   9.376   2.616 -0.7749  0.2637 -0.3938
  831MOL0     C 9597   6.759   9.274   2.681 -0.1289  0.5066  0.1476
  831MOL0     C 9598   6.762   9.136   2.608  0.5667  0.7696 -0.0719
  831MOL0     C 9599   6.643   9.043   2.638  0.4421 -0.0725 -0.3630
  831MOL0     C 9600   6.619   8.931   2.532 -0.0434 -0.5988 -0.4364
  831MOL0     C 9601   6.506   8.838   2.577  0.3417 -0.0865 -0.2414
  831MOL0     C 9602   6.530   8.774   2.722  0.2953  0.0791  0.5803
  831MOL0     C 9603   6.657   8.689   2.717 -0.5390 -0.7188 -1.0675
  831MOL0    Cl 9604   6.638   8.538   2.630 -0.2104 -0.1296  0.0633
  831MOL0     C 9605   7.074   9.613   2.683 -0.6428 -0.4694 -0.2861
  831MOL0     C 9606   7.190   9.669   2.619  0.0415  0.2326  0.2899
  831MOL0     O 9607   7.507   9.633   2.686 -0.0862  0.3635  0.4934
  831MOL0     C 9608   7.605   9.808   2.394 -0.0840  0.5714 -0.2583
  831MOL0     C 9609   7.718   9.853   2.333  0.0544 -0.4084  0.2944
  831MOL0     N 9610   8.508  10.025   2.040 -0.1198 -0.2527 -0.1248
  831MOL0     N 9611   8.632  10.030   1.989  0.5069 -0.1271  0.0144
  831MOL0     C 9612   9.784   9.422   2.085  0.0714  0.1277 -0.1034
  831MOL0     C 9613   9.885   9.329   2.072 -0.0999 -0.0964 -0.5375
  831MOL0     C 9614  10.272   9.117   1.919 -0.3486  0.5249  0.8898
  831MOL0     C 9615  10.245   9.015   2.023 -0.4547  0.5943  0.6821
  831MOL0     C 9616  10.339   8.908   2.036 -1.0921  0.2051  0.4017
  831MOL0     C 9617  10.459   8.908   1.955  0.2077  0.8716 -0.2027
  831MOL0     O 9618  10.552   8.804   1.989 -0.1228 -0.6521 -0.2175
  831MOL0     C 9619  10.667   8.807   1.897 -0.4774 -0.0998  0.3491
  831MOL0     C 9620  10.736   8.675   1.934  0.3699 -0.0331 -0.0412
  831MOL0     C 9621  10.877   8.694   1.893 -0.4378  0.1796  0.4831
  831MOL0     C 9622  10.963   8.573   1.926 -0.3536 -0.4448 -0.2915
  831MOL0     C 9623  10.948   8.456   1.840 -0.3299 -0.2379 -0.1948
  831MOL0     C 9624  10.909   8.353   1.790  0.8758 -0.3249 -0.7348
  831MOL0     C 9625  10.471   8.995   1.848 -0.1296  0.3505 -0.0448
  831MOL0     C 9626  10.388   9.107   1.834  0.1726  0.2006 -0.5548
  831MOL0     H 9627   9.980   9.369   1.758  0.0585  2.9644 -0.9621
  831MOL0     H 9628   9.814   9.536   1.757  1.8137 -2.7224 -1.5451
  831MOL0     H 9629   9.573   9.568   2.164  0.0461 -1.9316 -0.5153
  831MOL0     H 9630   9.462   9.574   2.031  0.4897  0.4745  0.3085
  831MOL0     H 9631   9.546   9.815   1.972 -0.3870  0.7692  0.1906
  831MOL0     H 9632   9.617   9.818   2.134 -0.7130 -0.3715  1.4279
  831MOL0     H 9633   9.411   9.916   2.164  2.9536 -0.1626 -0.1528
  831MOL0     H 9634   9.396   9.758   2.221 -0.0046  1.4754  0.6367
  831MOL0     H 9635   9.318   9.861   1.937 -0.9513  0.5246 -0.6414
  831MOL0     H 9636   9.286   9.697   1.995  0.2803  1.0648  0.3231
  831MOL0     H 9637   9.166   9.943   2.119 -0.1073  0.3172 -0.1888
  831MOL0     H 9638   9.138   9.773   2.165  0.9326 -1.8253 -1.0339
  831MOL0     H 9639   9.043   9.744   1.917  4.2939 -0.0572 -0.4002
  831MOL0     H 9640   9.048   9.927   1.910 -0.3260 -1.7157 -1.2404
  831MOL0     H 9641   8.898   9.768   2.101  2.6523 -0.3847  0.4153
  831MOL0     H 9642   8.892   9.947   2.078  1.9350  0.1766 -1.8141
  831MOL0     H 9643   8.804   9.751   1.877  2.7529 -0.0988 -0.3455
  831MOL0     H 9644   8.818   9.914   1.829 -2.6105  0.2731 -0.2123
  831MOL0     H 9645   8.587   9.710   2.011 -1.5201  0.7438 -1.2319
  831MOL0     H 9646   8.366   9.728   2.167 -1.0558 -0.6974 -1.1746
  831MOL0     H 9647   8.281   9.801   2.044 -0.2597 -2.6650  1.7690
  831MOL0     H 9648   8.220   9.997   2.168  0.4300  1.8674  0.5000
  831MOL0     H 9649   8.351   9.978   2.273 -2.1139  1.4087  0.4837
  831MOL0     H 9650   8.246   9.756   2.351 -1.3867  0.5830  1.7702
  831MOL0     H 9651   8.176   9.903   2.414  3.5416  0.1802  0.4293
  831MOL0     H 9652   8.055   9.688   2.300  2.1808 -1.1894 -3.5373
  831MOL0     H 9653   8.070   9.789   2.162  1.2393  0.1594  0.4672
  831MOL0     H 9654   7.960   9.732   2.528  0.2570  1.2482 -1.3264
  831MOL0     H 9655   7.743   9.639   2.648  1.9600  1.3240  0.6296
  831MOL0     H 9656   7.329   9.395   2.488 -2.4071 -3.2487 -0.3899
  831MOL0     H 9657   7.140   9.292   2.599 -1.1545  0.9386  0.9305
  831MOL0     H 9658   6.911   9.326   2.541 -0.4219  1.1303 -0.6939
  831MOL0     H 9659   6.794   9.455   2.562 -1.9135  0.2424  0.6826
  831MOL0     H 9660   6.657   9.311   2.693 -0.8291 -1.6960  1.5383
  831MOL0     H 9661   6.786   9.245   2.782  2.3551  0.9994 -0.3034
  831MOL0     H 9662   6.858   9.090   2.633  1.5424  2.5649 -0.3099
  831MOL0     H 9663   6.767   9.154   2.500  0.9853  0.8431 -0.0412
  831MOL0     H 9664   6.685   8.992   2.726  1.0524  1.0771  0.0322
  831MOL0     H 9665   6.555   9.099   2.671  0.4123 -1.0866  1.4071
  831MOL0     H 9666   6.710   8.877   2.508 -0.1406  0.1851 -2.7931
  831MOL0     H 9667   6.589   8.986   2.442  0.6281 -0.8260 -0.8009
  831MOL0     H 9668   6.504   8.759   2.501 -1.2401  0.9457 -1.3395
  831MOL0     H 9669   6.416   8.899   2.568  0.3888 -0.0600 -0.5588
  831MOL0     H 9670   6.515   8.845   2.804 -2.6175  2.2492 -1.5971
  831MOL0     H 9671   6.451   8.699   2.734  0.1567 -0.2471 -1.9222
  831MOL0     H 9672   6.678   8.657   2.819 -1.0440 -2.5209 -1.4951
  831MOL0     H 9673   6.748   8.738   2.679  0.5359  0.4709  2.6438
  831MOL0     H 9674   7.008   9.680   2.737  0.6475 -0.2318  1.0439
  831MOL0     H 9675   7.227   9.770   2.637 -0.3223  0.3606  0.3212
  831MOL0     H 9676   7.508   9.839   2.355  0.4738  2.6525 -0.1188
  831MOL0     H 9677   7.699   9.921   2.250  1.4596  0.4578  0.6710
  831MOL0     H 9678   9.751   9.449   2.185  1.6382 -1.9799  1.0689
  831MOL0     H 9679   9.929   9.289   2.163 -1.9158 -1.2230 -0.0944
  831MOL0     H 9680  10.154   9.008   2.081 -0.7913 -0.7831  0.0267
  831MOL0     H 9681  10.332   8.824   2.105 -2.0016 -2.3167 -2.5378
  831MOL0     H 9682  10.723   8.898   1.920 -1.5943  0.0031  2.9807
  831MOL0     H 9683  10.644   8.803   1.790 -0.8908 -0.5516  0.4458
  831MOL0     H 9684  10.732   8.661   2.043 -0.4463  2.4263  0.3131
  831MOL0     H 9685  10.689   8.597   1.874  0.9523 -0.9448  0.6674
  831MOL0     H 9686  10.911   8.782   1.948 -1.1436 -1.1321  3.2143
  831MOL0     H 9687  10.884   8.712   1.785  1.4307  1.1510  0.7327
  831MOL0     H 9688  11.068   8.598   1.909 -0.1291 -0.0891  1.4593
  831MOL0     H 9689  10.961   8.553   2.033  0.1345  1.1652  0.0473
  831MOL0     H 9690  10.875   8.266   1.738  0.8895 -0.3837 -0.6457
  831MOL0     H 9691  10.557   9.007   1.783  0.8727  0.6415  1.2863
  831MOL0     H 9692  10.409   9.176   1.753  0.5702  1.0774  0.2732
  832MOL0     O 9693   3.123   9.134   0.907  0.8225  0.3061 -0.2817
  832MOL0     C 9694   3.058   9.089   1.001 -0.3130 -0.4442 -0.1113
  832MOL0     O 9695   2.947   9.143   1.058 -0.3497  0.1246  0.1600
  832MOL0     C 9696   2.890   9.249   1.003 -0.1271 -0.4892  0.1206
  832MOL0     C 9697   2.947   9.376   1.029 -0.6836 -0.3833  0.1115
  832MOL0     C 9698   2.914   9.483   0.952  1.1972 -0.2598  0.6565
  832MOL0     C 9699   2.806   9.469   0.857 -0.3140 -0.7704 -0.1143
  832MOL0     O 9700   2.758   9.574   0.780 -0.5960  0.1868  0.0785
  832MOL0     C 9701   2.803   9.711   0.806  1.1779  0.2425 -0.1885
  832MOL0     C 9702   2.910   9.752   0.715 -0.2164 -0.1455  0.6217
  832MOL0     C 9703   2.859   9.746   0.570 -0.7379  0.0140  0.4104
  832MOL0     C 9704   2.962   9.813   0.473 -0.4731  0.3563  0.0510
  832MOL0     C 9705   2.930   9.799   0.324  0.9606 -0.3612  1.5743
  832MOL0     C 9706   2.939   9.656   0.276  0.0244 -0.7278 -0.0081
  832MOL0     C 9707   2.920   9.656   0.122  1.1903 -0.4654 -0.1601
  832MOL0     C 9708   2.901   9.522   0.063 -0.1282  0.2684  0.5468
  832MOL0     N 9709   2.761   9.468   0.074 -0.0138  0.2799 -0.3652
  832MOL0     C 9710   2.727   9.354   0.129  0.7214 -0.0547 -0.0668
  832MOL0     C 9711   2.595   9.333   0.105 -0.8246 -0.0153  0.1883
  832MOL0     C 9712   2.521   9.202   0.124  0.0057 -0.0858 -0.2311
  832MOL0     C 9713   2.403   9.176   0.027 -0.5544  0.6601  0.9268
  832MOL0     C 9714   2.280   9.263   0.069 -0.6339 -0.6802  0.3373
  832MOL0     C 9715   2.154   9.253  -0.018 -0.4159  0.2149 -0.0540
  832MOL0     O 9716   2.085   9.137   0.039  0.0068  0.0921  0.1046
  832MOL0     C 9717   1.956   9.110  -0.001  0.0945  0.1482  0.1635
  832MOL0     C 9718   1.893   9.184  -0.098 -0.7562 -0.6732  0.9931
  832MOL0     C 9719   1.763   9.156  -0.136 -0.1131 -0.2101 -0.7750
  832MOL0     C 9720   1.688   9.060  -0.059 -0.5672 -0.1820 -0.2784
  832MOL0     C 9721   1.550   9.025  -0.092 -0.4042  1.1423 -0.3101
  832MOL0     O 9722   1.477   8.956   0.002 -0.1750 -0.0855  0.3770
  832MOL0     C 9723   1.369   8.881  -0.037 -0.1051  0.2590 -0.2694
  832MOL0     C 9724   1.290   8.894  -0.153  0.3670 -0.0432 -1.8315
  832MOL0     C 9725   1.176   8.809  -0.160 -0.1835  0.4664  0.0665
  832MOL0     C 9726   1.143   8.711  -0.062 -0.1240  0.0768 -0.1716
  832MOL0     O 9727   1.023   8.645  -0.079 -0.5354 -0.3369  1.2714
  832MOL0     C 9728   1.006   8.515  -0.014 -0.6812 -0.8797  0.7536
  832MOL0     C 9729   0.868   8.458  -0.045 -0.5270 -0.6234 -0.2347
  832MOL0     C 9730   0.854   8.397  -0.185  0.2094 -0.8951  0.2165
  832MOL0     C 9731   0.707   8.345  -0.213 -1.3547 -0.5345  0.9055
  832MOL0     C 9732   0.697   8.299  -0.359  0.6227 -1.3157 -0.9170
  832MOL0     C 9733   0.570   8.222  -0.372  0.9108 -0.2742  0.0623
  832MOL0     C 9734   0.572   8.077  -0.331 -0.2854  0.3161 -0.2226
  832MOL0     C 9735   0.437   8.016  -0.361 -0.4722 -0.0035  0.0872
  832MOL0    Cl 9736   0.425   8.002  -0.540  0.2273 -0.4385 -0.0049
  832MOL0     C 9737   1.217   8.711   0.060  0.1851 -0.3165  0.4139
  832MOL0     C 9738   1.334   8.792   0.062 -0.3694 -0.7575  0.2404
  832MOL0     O 9739   1.507   9.078  -0.193  0.1251 -0.0073  0.3704
  832MOL0     C 9740   1.754   8.988   0.042  0.1835  0.4202 -0.5465
  832MOL0     C 9741   1.887   9.013   0.068 -0.5008 -0.4428  0.2237
  832MOL0     N 9742   2.554   9.450   0.039  0.3670 -0.1029 -0.0725
  832MOL0     N 9743   2.654   9.523   0.010  0.0544  0.5539 -0.6833
  832MOL0     C 9744   2.747   9.350   0.839 -0.1804 -0.0588 -0.9103
  832MOL0     C 9745   2.795   9.235   0.902 -0.3015  0.6368 -0.0186
  832MOL0     C 9746   3.103   8.965   1.051 -0.6125  0.4146  0.0338
  832MOL0     C 9747   3.218   8.895   1.001  0.0310 -0.8667  0.5983
  832MOL0     C 9748   3.257   8.771   1.049 -0.2024  0.2659  0.7268
  832MOL0     C 9749   3.177   8.699   1.134  0.2003 -0.4721 -0.2877
  832MOL0     O 9750   3.196   8.569   1.172  0.0631  0.9188  0.2037
  832MOL0     C 9751   3.228   8.475   1.065  0.6813  0.6869  0.2593
  832MOL0     C 9752   3.291   8.349   1.113  0.1577 -0.0612  0.2227
  832MOL0     C 9753   3.307   8.244   1.002  0.4348  0.1758 -0.3765
  832MOL0     C 9754   3.346   8.104   1.052 -0.1220 -0.1265  0.3392
  832MOL0     C 9755   3.468   8.106   1.145  0.6854 -0.4987  0.5813
  832MOL0     C 9756   3.574   8.125   1.207  0.5671 -0.6470 -0.1841
  832MOL0     C 9757   3.064   8.760   1.182 -0.6616 -0.5717  0.2784
  832MOL0     C 9758   3.034   8.887   1.138  0.9660 -0.1845 -0.0807
  832MOL0     H 9759   3.016   9.393   1.111 -2.5197  0.8856  1.4581
  832MOL0     H 9760   2.969   9.575   0.966  1.5657 -0.3877  0.1160
  832MOL0     H 9761   2.822   9.736   0.911  0.5252  0.8398 -0.2097
  832MOL0     H 9762   2.714   9.770   0.784  0.5209  0.5657  2.9501
  832MOL0     H 9763   2.991   9.684   0.741  0.6282  0.6756  0.2269
  832MOL0     H 9764   2.932   9.858   0.731 -0.6753  0.0960 -0.2754
  832MOL0     H 9765   2.763   9.797   0.557  0.0132  0.7195 -3.6944
  832MOL0     H 9766   2.856   9.643   0.534  1.1840  0.2103 -0.3861
  832MOL0     H 9767   2.970   9.920   0.494 -0.4463  0.4233 -0.2888
  832MOL0     H 9768   3.065   9.783   0.498 -0.8080 -0.2356  0.7550
  832MOL0     H 9769   2.995   9.853   0.254 -2.0372  0.2862 -0.9201
  832MOL0     H 9770   2.828   9.837   0.310  1.1723 -0.3335 -0.0851
  832MOL0     H 9771   2.863   9.589   0.318 -0.4015 -0.1555  0.1434
  832MOL0     H 9772   3.030   9.609   0.313  1.3119  2.6320  1.4057
  832MOL0     H 9773   2.845   9.726   0.084 -0.3868 -1.2546  1.3693
  832MOL0     H 9774   3.014   9.698   0.083  0.3745  1.9730  0.3327
  832MOL0     H 9775   2.982   9.455   0.095 -1.7955 -0.4929  3.5309
  832MOL0     H 9776   2.917   9.533  -0.045  1.3764 -0.0195  0.7105
  832MOL0     H 9777   2.793   9.302   0.199  2.2981  1.2005 -0.5507
  832MOL0     H 9778   2.493   9.178   0.227  2.2287 -2.8281 -0.1413
  832MOL0     H 9779   2.595   9.123   0.107 -0.4363 -0.9079  1.3833
  832MOL0     H 9780   2.381   9.069   0.026 -2.6984  0.8502  5.1643
  832MOL0     H 9781   2.443   9.219  -0.066  1.4894 -0.2851  1.3100
  832MOL0     H 9782   2.250   9.245   0.172  0.6769  0.8830  1.0315
  832MOL0     H 9783   2.317   9.366   0.059 -0.4152 -0.8353 -0.5513
  832MOL0     H 9784   2.170   9.231  -0.124 -1.5825 -0.8901 -0.0237
  832MOL0     H 9785   2.099   9.345   0.008  2.5868  1.6340  1.8351
  832MOL0     H 9786   1.952   9.261  -0.147 -0.0925  1.3136  4.5885
  832MOL0     H 9787   1.704   9.197  -0.218 -2.4587 -1.6368  0.1228
  832MOL0     H 9788   1.309   8.968  -0.230  3.3663  1.1188 -0.1295
  832MOL0     H 9789   1.111   8.812  -0.246  1.7825 -0.7419 -1.5545
  832MOL0     H 9790   1.016   8.529   0.094  0.8221 -1.2170  0.6873
  832MOL0     H 9791   1.085   8.448  -0.050  0.0434 -0.6803  1.9286
  832MOL0     H 9792   0.802   8.545  -0.036  0.5789  0.0472  2.2693
  832MOL0     H 9793   0.837   8.388   0.033  1.2297 -0.6001  0.5273
  832MOL0     H 9794   0.920   8.311  -0.197  1.8949  0.2054  1.0907
  832MOL0     H 9795   0.878   8.476  -0.257 -1.7022  0.8381  1.3598
  832MOL0     H 9796   0.697   8.257  -0.149  1.6997  1.5984  4.7618
  832MOL0     H 9797   0.628   8.417  -0.190 -2.0307 -0.5727 -1.0594
  832MOL0     H 9798   0.784   8.243  -0.394  1.4738 -0.7810  0.2894
  832MOL0     H 9799   0.685   8.389  -0.419 -2.3289 -1.4561 -0.6941
  832MOL0     H 9800   0.544   8.227  -0.478  2.1924  0.4653 -0.2349
  832MOL0     H 9801   0.492   8.281  -0.323  0.5331 -0.0501 -0.7900
  832MOL0     H 9802   0.643   8.021  -0.393  0.1833  2.9655 -2.2856
  832MOL0     H 9803   0.608   8.063  -0.229  1.3156  0.2645 -0.7645
  832MOL0     H 9804   0.357   8.077  -0.317  3.0525  3.7870  1.9549
  832MOL0     H 9805   0.424   7.912  -0.329 -0.0391  0.1644  0.8359
  832MOL0     H 9806   1.195   8.654   0.149 -1.4421 -0.5146 -0.0875
  832MOL0     H 9807   1.390   8.809   0.153 -3.7725  3.2609  1.9611
  832MOL0     H 9808   1.698   8.913   0.098  0.7627 -1.3975 -2.2908
  832MOL0     H 9809   1.921   8.944   0.145  1.2686 -2.4137 -2.1463
  832MOL0     H 9810   2.678   9.329   0.758 -1.0443 -1.2767  0.1005
  832MOL0     H 9811   2.762   9.134   0.878  2.4164 -0.4144  0.2344
  832MOL0     H 9812   3.288   8.940   0.932 -1.0389  2.2832  1.3778
  832MOL0     H 9813   3.351   8.727   1.020  0.7319  2.0578  0.9047
  832MOL0     H 9814   3.296   8.510   0.987  1.1699 -2.4382 -0.8513
  832MOL0     H 9815   3.135   8.443   1.018  2.0324 -2.1390 -0.7223
  832MOL0     H 9816   3.388   8.365   1.161  0.7566 -1.5122 -0.4445
  832MOL0     H 9817   3.219   8.302   1.181  0.7157  1.6822  2.1312
  832MOL0     H 9818   3.393   8.279   0.944  0.8041  1.6775  1.0060
  832MOL0     H 9819   3.218   8.239   0.939  0.6257 -2.3719 -0.5442
  832MOL0     H 9820   3.262   8.065   1.109 -0.9513  0.1074 -0.6892
  832MOL0     H 9821   3.363   8.058   0.954 -0.3973 -0.8741  0.6388
  832MOL0     H 9822   3.663   8.139   1.264  1.7383  2.1099 -2.4449
  832MOL0     H 9823   3.000   8.707   1.251  0.8571 -1.1751  1.2679
  832MOL0     H 9824   2.946   8.930   1.186 -2.2508 -4.7443 -1.1580
  833MOL0     O 9825  10.258   4.131   0.928  0.5444  0.5186  0.7473
  833MOL0     C 9826  10.305   4.219   1.003  0.5667  1.3612 -0.1306
  833MOL0     O 9827  10.235   4.315   1.067 -0.3981 -0.8344  0.4641
  833MOL0     C 9828  10.099   4.319   1.048  0.7744 -0.0772  0.0531
  833MOL0     C 9829  10.016   4.207   1.075  0.3164  0.1089  0.9312
  833MOL0     C 9830   9.875   4.214   1.050  0.5816 -0.3829 -0.9669
  833MOL0     C 9831   9.817   4.341   1.030  0.8103  0.2295  0.2097
  833MOL0     O 9832   9.677   4.357   1.036 -0.1557 -0.3622  0.4631
  833MOL0     C 9833   9.618   4.429   0.924  0.3728  0.4929  0.7731
  833MOL0     C 9834   9.471   4.413   0.925  0.0492 -0.5261  0.4209
  833MOL0     C 9835   9.388   4.505   0.833  0.5311 -0.2270 -0.1726
  833MOL0     C 9836   9.236   4.472   0.857  0.1373  0.1043 -0.2177
  833MOL0     C 9837   9.144   4.529   0.749 -0.2904  0.0076 -0.6658
  833MOL0     C 9838   8.999   4.498   0.782 -0.2241 -0.2312  0.5301
  833MOL0     C 9839   8.913   4.572   0.692  0.0036 -0.6106  0.7402
  833MOL0     C 9840   8.761   4.538   0.712 -0.2470  0.3590 -0.1982
  833MOL0     N 9841   8.698   4.571   0.841 -0.8708 -0.3329  0.3928
  833MOL0     C 9842   8.631   4.479   0.918  1.5067  0.2023 -0.6098
  833MOL0     C 9843   8.571   4.557   1.013 -0.0643  1.2254  1.1676
  833MOL0     C 9844   8.480   4.493   1.112  0.4600  0.0253 -0.5043
  833MOL0     C 9845   8.349   4.569   1.138  0.1029 -0.3391 -0.5724
  833MOL0     C 9846   8.267   4.512   1.251  0.2631  0.5943  0.0847
  833MOL0     C 9847   8.127   4.563   1.249 -0.4529  1.2730 -0.0752
  833MOL0     O 9848   8.032   4.493   1.335 -0.3212 -0.3891 -0.1524
  833MOL0     C 9849   7.914   4.554   1.370  0.1733 -0.4331 -0.9045
  833MOL0     C 9850   7.846   4.662   1.319 -0.3195  0.4554  0.1150
  833MOL0     C 9851   7.727   4.715   1.379 -0.4250 -0.2832  0.8471
  833MOL0     C 9852   7.683   4.665   1.503  0.8282 -0.8356 -0.2244
  833MOL0     C 9853   7.568   4.726   1.571  0.0806 -0.3607  0.6880
  833MOL0     O 9854   7.496   4.647   1.649 -0.4930  0.3387 -0.6019
  833MOL0     C 9855   7.388   4.689   1.730 -0.3255  0.2865  0.1872
  833MOL0     C 9856   7.296   4.789   1.699 -0.0143 -0.3806 -0.1477
  833MOL0     C 9857   7.192   4.832   1.782 -0.1250  0.5825  0.1562
  833MOL0     C 9858   7.175   4.769   1.910 -0.0888 -0.3422  1.0166
  833MOL0     O 9859   7.079   4.797   1.999  0.2641 -0.2566  0.2481
  833MOL0     C 9860   7.018   4.930   1.999  0.1922 -0.6324 -0.0193
  833MOL0     C 9861   6.867   4.927   1.976  0.2286 -0.0613 -0.1789
  833MOL0     C 9862   6.791   4.847   2.084  0.1927  1.0640  0.1861
  833MOL0     C 9863   6.639   4.827   2.044 -0.5243 -0.4424  0.3976
  833MOL0     C 9864   6.553   4.949   2.078 -0.4697 -0.1734  1.6345
  833MOL0     C 9865   6.539   4.985   2.226 -0.2841  0.4674 -0.9038
  833MOL0     C 9866   6.434   5.098   2.263  0.4243  0.0360  0.7668
  833MOL0     C 9867   6.469   5.240   2.218 -0.6340  0.3320 -0.4352
  833MOL0    Cl 9868   6.583   5.320   2.327  0.1677  0.2523 -0.2425
  833MOL0     C 9869   7.269   4.665   1.942  0.9031  1.1154  0.0425
  833MOL0     C 9870   7.362   4.619   1.847  0.9675 -1.2149 -0.4085
  833MOL0     O 9871   7.547   4.846   1.542  0.0574 -0.4417  0.6529
  833MOL0     C 9872   7.766   4.567   1.557 -0.6151  0.8829  0.4165
  833MOL0     C 9873   7.866   4.507   1.488  0.1019 -0.2427  0.6079
  833MOL0     N 9874   8.607   4.689   0.988 -0.4804 -0.0825  0.8252
  833MOL0     N 9875   8.664   4.694   0.870 -0.0509 -0.4349 -0.6366
  833MOL0     C 9876   9.894   4.451   1.009 -0.5031 -0.1149 -1.0589
  833MOL0     C 9877  10.037   4.440   1.017  0.1266 -0.4028 -0.1389
  833MOL0     C 9878  10.451   4.225   1.010  0.4058  0.4238  0.2148
  833MOL0     C 9879  10.524   4.125   0.956 -0.2941 -0.2408  0.3910
  833MOL0     C 9880  10.659   4.126   0.950 -0.5890  0.4276 -0.8972
  833MOL0     C 9881  10.731   4.231   1.013  0.1422  0.7132  0.4220
  833MOL0     O 9882  10.864   4.239   1.001  0.2562  0.5728 -0.7956
  833MOL0     C 9883  10.929   4.118   0.953 -0.3240 -0.5715 -0.0896
  833MOL0     C 9884  11.080   4.126   0.978 -0.7458  0.4065  0.0453
  833MOL0     C 9885  11.178   4.009   0.917  0.1341  0.6239 -0.6273
  833MOL0     C 9886  11.321   4.014   0.986 -0.5797 -0.1888 -0.0530
  833MOL0     C 9887  11.316   3.942   1.117 -0.5472 -0.7443 -0.7326
  833MOL0     C 9888  11.304   3.876   1.214 -0.8741  0.5173 -0.3887
  833MOL0     C 9889  10.654   4.336   1.067 -0.3930 -1.0947  0.6891
  833MOL0     C 9890  10.519   4.326   1.069 -0.4131 -0.4474 -0.0345
  833MOL0     H 9891  10.064   4.112   1.098  0.9904  0.3563  0.5516
  833MOL0     H 9892   9.819   4.122   1.057  0.8979 -0.4187  2.8276
  833MOL0     H 9893   9.650   4.391   0.826 -2.6732 -2.9990  0.9156
  833MOL0     H 9894   9.653   4.533   0.918  1.3611  0.1291 -4.3222
  833MOL0     H 9895   9.432   4.412   1.028  1.2551  1.5196  0.9474
  833MOL0     H 9896   9.462   4.308   0.897 -1.1672 -0.6162  1.0568
  833MOL0     H 9897   9.410   4.492   0.726 -1.6877  2.9358 -1.1415
  833MOL0     H 9898   9.400   4.612   0.851  0.9356 -0.3781  0.4741
  833MOL0     H 9899   9.224   4.364   0.850 -0.5350 -0.0242  2.0096
  833MOL0     H 9900   9.204   4.495   0.959 -1.5208  0.0829 -0.7057
  833MOL0     H 9901   9.170   4.495   0.648  0.3424  2.1707 -1.2857
  833MOL0     H 9902   9.164   4.637   0.749 -1.8210  0.3205 -1.3475
  833MOL0     H 9903   8.960   4.523   0.881 -2.5108 -0.1070 -0.3305
  833MOL0     H 9904   8.981   4.392   0.763  0.0305  0.2390 -3.1022
  833MOL0     H 9905   8.931   4.679   0.706  1.7148 -0.7666 -0.0005
  833MOL0     H 9906   8.955   4.549   0.594  2.9822  2.3664  1.1225
  833MOL0     H 9907   8.752   4.429   0.705 -0.7536  0.3717  0.2165
  833MOL0     H 9908   8.696   4.586   0.639 -1.7795  1.5547  1.8432
  833MOL0     H 9909   8.618   4.372   0.907 -0.1251  0.1062  1.5856
  833MOL0     H 9910   8.513   4.449   1.207 -2.6290  3.0656  2.2436
  833MOL0     H 9911   8.441   4.404   1.060 -2.3705  0.5192  0.5612
  833MOL0     H 9912   8.287   4.570   1.048 -2.1808  1.4696  0.8980
  833MOL0     H 9913   8.362   4.676   1.156 -2.9282  0.4553 -2.3930
  833MOL0     H 9914   8.246   4.407   1.226 -0.4448  0.7228  0.1335
  833MOL0     H 9915   8.321   4.533   1.344  0.8042  5.1970 -1.0531
  833MOL0     H 9916   8.086   4.566   1.147 -0.6925  1.1116  0.0168
  833MOL0     H 9917   8.142   4.668   1.279  1.5847  1.4602 -1.4768
  833MOL0     H 9918   7.877   4.710   1.227 -0.5058  0.0552 -0.1593
  833MOL0     H 9919   7.667   4.799   1.347  0.4866  0.0225 -0.1265
  833MOL0     H 9920   7.305   4.834   1.601 -0.7674 -2.1493 -1.0773
  833MOL0     H 9921   7.123   4.909   1.749 -0.5921  0.6119  1.1780
  833MOL0     H 9922   7.074   4.998   1.934 -1.6110  1.2260  0.2603
  833MOL0     H 9923   7.028   4.968   2.101 -1.7702  0.9156 -0.3464
  833MOL0     H 9924   6.855   4.881   1.878 -1.6118 -0.2341  0.1015
  833MOL0     H 9925   6.823   5.027   1.965 -0.8662 -0.5091  0.0801
  833MOL0     H 9926   6.814   4.883   2.184 -1.7247  1.3695  0.5631
  833MOL0     H 9927   6.829   4.744   2.086 -0.7822  0.6541 -0.8528
  833MOL0     H 9928   6.631   4.805   1.937  0.8335 -2.1686  0.6023
  833MOL0     H 9929   6.592   4.742   2.093 -2.0042  0.2334  0.2137
  833MOL0     H 9930   6.458   4.934   2.027  0.9008  2.8491 -2.3450
  833MOL0     H 9931   6.606   5.030   2.025  0.2233 -2.1967 -0.9832
  833MOL0     H 9932   6.638   5.008   2.266  0.2930 -0.8959 -1.4684
  833MOL0     H 9933   6.513   4.896   2.284  1.5451  0.4811  0.0321
  833MOL0     H 9934   6.344   5.070   2.207  0.2546  0.0346  1.0376
  833MOL0     H 9935   6.414   5.108   2.370 -1.1072  0.2369  0.4856
  833MOL0     H 9936   6.374   5.294   2.212 -1.5439 -0.9965  1.3100
  833MOL0     H 9937   6.517   5.234   2.120  0.5195 -0.9074  0.1745
  833MOL0     H 9938   7.262   4.620   2.041 -1.1108  0.1798 -0.4782
  833MOL0     H 9939   7.419   4.528   1.863 -1.8510 -3.2252 -1.1857
  833MOL0     H 9940   7.739   4.530   1.656 -2.0597  1.7064  0.3697
  833MOL0     H 9941   7.930   4.432   1.532  0.5426  0.2951  0.9005
  833MOL0     H 9942   9.859   4.553   0.996 -1.0987  0.4550  3.3997
  833MOL0     H 9943  10.106   4.524   1.009  1.6646 -1.7117 -1.2633
  833MOL0     H 9944  10.476   4.043   0.903 -0.9952  0.2233  0.3047
  833MOL0     H 9945  10.709   4.039   0.908  0.9383 -0.3962  2.3554
  833MOL0     H 9946  10.909   4.102   0.847 -0.7663 -1.0260  0.0605
  833MOL0     H 9947  10.898   4.032   1.012 -0.3017  0.4216  1.4244
  833MOL0     H 9948  11.110   4.212   0.917 -0.1222 -0.1580 -0.4583
  833MOL0     H 9949  11.094   4.143   1.085 -1.6163  2.6848 -0.1503
  833MOL0     H 9950  11.188   4.015   0.808  1.1847 -1.0501 -0.6580
  833MOL0     H 9951  11.140   3.908   0.932  4.5791 -1.9782 -4.2431
  833MOL0     H 9952  11.409   3.978   0.931 -1.2395 -1.2701 -0.4136
  833MOL0     H 9953  11.347   4.116   1.018 -0.4684 -0.2053 -0.0873
  833MOL0     H 9954  11.285   3.814   1.300  1.7631  2.0946  1.4840
  833MOL0     H 9955  10.695   4.429   1.105 -0.4163 -0.6996 -0.2335
  833MOL0     H 9956  10.468   4.401   1.127 -1.7736 -1.3418 -0.0276
  834MOL0     O 9957  10.825  10.781   4.279  0.7540  0.1905  0.8109
  834MOL0     C 9958  10.834  10.663   4.253  0.1294 -0.0712 -0.3793
  834MOL0     O 9959  10.730  10.579   4.245 -1.1779 -0.0567  0.0900
  834MOL0     C 9960  10.608  10.616   4.300 -0.0517  0.1096  0.0186
  834MOL0     C 9961  10.513  10.712   4.241 -0.5014  0.2943  0.0754
  834MOL0     C 9962  10.387  10.737   4.302 -0.1467  0.4519 -0.3910
  834MOL0     C 9963  10.352  10.676   4.424  0.5836  0.3423  0.1729
  834MOL0     O 9964  10.236  10.707   4.490  0.0021 -0.6191 -0.6493
  834MOL0     C 9965  10.162  10.601   4.549 -1.0043  0.1614  0.2982
  834MOL0     C 9966  10.025  10.650   4.578  0.2898  0.3495 -0.9056
  834MOL0     C 9967   9.932  10.527   4.587  0.4949 -0.2354 -1.8839
  834MOL0     C 9968   9.978  10.423   4.690  0.2038  0.0059 -0.4332
  834MOL0     C 9969   9.862  10.362   4.765  0.2651  0.2823 -0.2221
  834MOL0     C 9970   9.772  10.277   4.676 -0.2595 -0.4297 -0.5088
  834MOL0     C 9971   9.649  10.242   4.768 -0.7850 -0.5716 -0.0641
  834MOL0     C 9972   9.547  10.179   4.680  0.1316  0.9305  0.6646
  834MOL0     N 9973   9.438  10.133   4.768 -0.1531 -0.1640 -0.4521
  834MOL0     C 9974   9.308  10.149   4.740 -0.2102  0.0210 -0.2966
  834MOL0     C 9975   9.243  10.076   4.836  0.5376 -0.4274 -0.4197
  834MOL0     C 9976   9.092  10.062   4.852  0.0377 -0.4049 -0.1807
  834MOL0     C 9977   9.024  10.175   4.911 -0.0292 -0.3879 -0.2631
  834MOL0     C 9978   8.893  10.149   4.970  0.2283  0.1167  0.5569
  834MOL0     C 9979   8.828  10.278   5.012  0.5642 -0.2078 -0.5561
  834MOL0     O 9980   8.808  10.356   4.893  0.7980 -0.7362 -0.4489
  834MOL0     C 9981   8.678  10.353   4.833 -0.5580  0.2974  0.2745
  834MOL0     C 9982   8.573  10.260   4.862 -0.1851 -0.6614 -0.4421
  834MOL0     C 9983   8.454  10.243   4.793  0.0814  0.3829  0.3065
  834MOL0     C 9984   8.436  10.328   4.677 -0.1418 -0.6351 -0.9683
  834MOL0     C 9985   8.319  10.312   4.591  0.8694 -0.2487 -1.2698
  834MOL0     O 9986   8.227  10.208   4.619 -0.2368 -0.5077 -0.4504
  834MOL0     C 9987   8.113  10.194   4.548 -0.5060  0.6393 -0.3433
  834MOL0     C 9988   8.092  10.082   4.461 -0.0019 -0.1859 -0.7497
  834MOL0     C 9989   7.966  10.070   4.402  0.6543  0.8531 -0.5536
  834MOL0     C 9990   7.870  10.164   4.425  0.0122 -0.5697 -0.6084
  834MOL0     O 9991   7.744  10.153   4.368 -0.1959  0.2402 -0.5082
  834MOL0     C 9992   7.696  10.021   4.340  0.1498 -0.0142 -0.1472
  834MOL0     C 9993   7.547  10.012   4.354 -0.8018 -0.1742  0.0047
  834MOL0     C 9994   7.521  10.010   4.504 -0.2760  0.3787 -0.2476
  834MOL0     C 9995   7.369  10.020   4.536  0.5078 -0.7189 -0.7192
  834MOL0     C 9996   7.307  10.153   4.514  0.2717  0.4219  0.0751
  834MOL0     C 9997   7.154  10.126   4.482 -0.7683  1.0831 -0.5046
  834MOL0     C 9998   7.095  10.255   4.422 -0.5705 -0.0584 -0.1777
  834MOL0     C 9999   6.948  10.262   4.421 -1.0344 -1.4231  1.2857
  834MOL0    Cl10000   6.865  10.126   4.338 -0.2524  0.0374  0.1219
  834MOL0     C10001   7.886  10.271   4.503 -0.0021 -0.2107  0.3211
  834MOL0     C10002   8.005  10.284   4.571 -0.8069 -0.7072 -0.9595
  834MOL0     O10003   8.310  10.389   4.501 -0.7038  0.3981 -0.2971
  834MOL0     C10004   8.533  10.429   4.654  0.0796 -0.1469  0.2331
  834MOL0     C10005   8.662  10.432   4.720  0.1158  0.0444  0.0927
  834MOL0     N10006   9.333  10.017   4.921 -0.6711 -0.8755 -0.3661
  834MOL0     N10007   9.447  10.052   4.876  0.8286  0.8566  0.6205
  834MOL0     C10008  10.448  10.591   4.485 -0.1336  0.3603 -0.0160
  834MOL0     C10009  10.576  10.567   4.423  0.1540 -0.9610 -0.1254
  834MOL0     C10010  10.961  10.621   4.201 -0.1095  0.5506  0.4310
  834MOL0     C10011  10.984  10.495   4.153 -0.6369  0.6344 -0.9064
  834MOL0     C10012  11.113  10.453   4.099  0.1308  0.5259 -1.2036
  834MOL0     C10013  11.214  10.552   4.095 -0.0031  0.4212 -0.0207
  834MOL0     O10014  11.342  10.514   4.061  0.7696  0.4097 -0.2649
  834MOL0     C10015  11.373  10.408   3.964 -0.8957  0.2978 -0.5774
  834MOL0     C10016  11.396  10.450   3.818  0.4493 -0.2777  0.3098
  834MOL0     C10017  11.461  10.335   3.734  0.1873 -0.6471 -0.7698
  834MOL0     C10018  11.607  10.322   3.765 -0.5463  1.0874  0.4737
  834MOL0     C10019  11.651  10.210   3.674 -0.0484  0.5782  0.3113
  834MOL0     C10020  11.684  10.114   3.613  0.0074  0.2996 -0.0838
  834MOL0     C10021  11.188  10.683   4.140  0.1566  0.3030 -0.3988
  834MOL0     C10022  11.064  10.716   4.196  0.1344 -0.0776  0.3841
  834MOL0     H10023  10.542  10.761   4.149 -1.2260 -2.1868 -1.5543
  834MOL0     H10024  10.312  10.802   4.258 -0.6170  1.2459  1.4577
  834MOL0     H10025  10.218  10.560   4.634 -1.4833 -0.4435  0.3293
  834MOL0     H10026  10.149  10.524   4.472 -0.2344  0.5349 -0.2210
  834MOL0     H10027   9.994  10.720   4.500 -1.6061 -1.5276 -1.9167
  834MOL0     H10028  10.013  10.708   4.671  0.2926 -0.0198 -0.6743
  834MOL0     H10029   9.935  10.481   4.487  1.8787 -0.9494 -1.5441
  834MOL0     H10030   9.829  10.558   4.605  0.7877  0.4459 -1.3455
  834MOL0     H10031  10.031  10.346   4.633 -1.6302 -0.9638 -0.9166
  834MOL0     H10032  10.051  10.464   4.760  2.8029 -1.0164 -2.3848
  834MOL0     H10033   9.807  10.444   4.812 -0.5126 -0.7412  0.7169
  834MOL0     H10034   9.900  10.304   4.850  0.2781  1.8892  0.8995
  834MOL0     H10035   9.819  10.188   4.634 -0.5102  0.6106 -3.1599
  834MOL0     H10036   9.746  10.341   4.592  0.4825  0.9586  0.2848
  834MOL0     H10037   9.679  10.173   4.847 -3.3458  2.5769  4.0523
  834MOL0     H10038   9.605  10.330   4.816 -1.0746 -0.9182  0.3052
  834MOL0     H10039   9.585  10.102   4.613  0.2145  2.0983 -0.6862
  834MOL0     H10040   9.512  10.242   4.598  0.8016 -0.4239 -0.6977
  834MOL0     H10041   9.264  10.208   4.661  4.4761  2.5030 -1.3805
  834MOL0     H10042   9.064   9.978   4.915  0.7466  0.1340  0.8894
  834MOL0     H10043   9.046  10.038   4.755  2.2398 -1.4550 -1.0399
  834MOL0     H10044   9.019  10.252   4.833 -5.2353 -0.5288 -0.3897
  834MOL0     H10045   9.088  10.219   4.988 -0.7568 -1.3789  0.9333
  834MOL0     H10046   8.829  10.098   4.898  2.8715 -0.4327 -1.5786
  834MOL0     H10047   8.925  10.091   5.058  0.8401  0.8296  0.8203
  834MOL0     H10048   8.889  10.330   5.086  0.3883  2.1096 -1.9457
  834MOL0     H10049   8.733  10.247   5.056  0.1231  1.2140 -0.4656
  834MOL0     H10050   8.568  10.193   4.947  1.6835  1.6960  1.6625
  834MOL0     H10051   8.380  10.169   4.823 -0.2368 -0.4732 -2.3689
  834MOL0     H10052   8.173  10.009   4.453  1.2662  1.0210  0.4176
  834MOL0     H10053   7.940   9.985   4.339 -1.4262  1.2877 -0.3670
  834MOL0     H10054   7.746   9.946   4.401 -1.9161 -1.9195 -0.6242
  834MOL0     H10055   7.713  10.000   4.234 -4.7105 -2.2807 -0.7811
  834MOL0     H10056   7.512   9.918   4.311 -1.7583  0.2387 -0.1588
  834MOL0     H10057   7.503  10.102   4.309 -0.7678  0.0671  0.4365
  834MOL0     H10058   7.563  10.101   4.546  3.2816 -0.4028 -1.7296
  834MOL0     H10059   7.568   9.921   4.546  0.4922  0.7482 -0.3004
  834MOL0     H10060   7.318   9.946   4.474  0.7710  0.2005 -2.0801
  834MOL0     H10061   7.340   9.981   4.634 -2.4581  0.5576 -0.9913
  834MOL0     H10062   7.353  10.210   4.433  0.0447  2.5618  1.3713
  834MOL0     H10063   7.329  10.216   4.602 -1.7457  2.5894 -0.8713
  834MOL0     H10064   7.116  10.105   4.582 -0.7304 -0.7314 -0.8405
  834MOL0     H10065   7.147  10.044   4.410 -0.0548  0.6468 -0.0800
  834MOL0     H10066   7.124  10.345   4.476 -1.5340 -0.5831  1.2703
  834MOL0     H10067   7.136  10.260   4.321 -1.4788  0.1932 -0.5417
  834MOL0     H10068   6.923  10.353   4.365 -0.8332 -2.7171 -1.0251
  834MOL0     H10069   6.905  10.287   4.518  1.9996  2.7362  1.8333
  834MOL0     H10070   7.811  10.348   4.522  0.4871 -0.3923  3.7268
  834MOL0     H10071   8.006  10.360   4.648 -0.3094 -2.0617  0.4224
  834MOL0     H10072   8.520  10.488   4.565  1.3288 -1.0926 -0.6092
  834MOL0     H10073   8.749  10.490   4.689  0.1469  0.1134  0.3051
  834MOL0     H10074  10.422  10.549   4.582 -1.2739  1.3771  0.1366
  834MOL0     H10075  10.635  10.486   4.465  0.6048 -0.6651 -0.1846
  834MOL0     H10076  10.899  10.429   4.168  1.3111 -1.7209  0.5355
  834MOL0     H10077  11.123  10.348   4.077 -3.4998  0.2359 -2.0181
  834MOL0     H10078  11.298  10.330   3.975  1.6187 -1.9526  4.2426
  834MOL0     H10079  11.459  10.354   4.006 -1.4010 -1.4387 -1.6731
  834MOL0     H10080  11.305  10.483   3.767  2.9750  2.4431 -2.9110
  834MOL0     H10081  11.468  10.532   3.821  1.4916 -1.1793  1.9274
  834MOL0     H10082  11.462  10.374   3.632  2.8633  3.0287  0.4346
  834MOL0     H10083  11.395  10.248   3.745  0.8509 -0.9760  0.9662
  834MOL0     H10084  11.664  10.415   3.754 -0.8699  1.4802  1.9086
  834MOL0     H10085  11.619  10.281   3.866 -0.0366 -0.9266 -0.3545
  834MOL0     H10086  11.709  10.022   3.564 -1.9324 -0.7636  0.7742
  834MOL0     H10087  11.268  10.758   4.140 -0.1810  0.6743 -1.3891
  834MOL0     H10088  11.050  10.818   4.229 -1.6690 -0.7626  1.9365
  835MOL0     O10089   7.111   2.561   6.140  0.9259  0.4340  0.1288
  835MOL0     C10090   7.089   2.468   6.061  0.6811 -0.3954  0.9962
  835MOL0     O10091   6.988   2.459   5.973 -0.5445  0.1004 -0.3013
  835MOL0     C10092   6.897   2.561   5.977 -0.3787 -0.1582  0.4474
  835MOL0     C10093   6.937   2.692   5.946  0.3144  0.5488  0.1574
  835MOL0     C10094   6.849   2.797   5.960  0.6044  0.6413 -0.5191
  835MOL0     C10095   6.711   2.772   5.993 -0.5134 -0.1424 -0.5208
  835MOL0     O10096   6.618   2.879   5.981  0.4645  0.1584 -1.0077
  835MOL0     C10097   6.494   2.844   5.915  0.4755 -0.0567  0.2061
  835MOL0     C10098   6.382   2.953   5.950 -0.0467 -0.6182 -0.2574
  835MOL0     C10099   6.235   2.915   5.906  0.3395 -0.9001 -0.5134
  835MOL0     C10100   6.150   3.012   5.994  0.1752 -0.1734  0.6053
  835MOL0     C10101   6.002   3.000   5.950 -0.0983  0.0106  0.1503
  835MOL0     C10102   5.969   3.046   5.802 -0.3055  0.7993 -0.3402
  835MOL0     C10103   5.826   3.075   5.782 -0.6356  0.3393  0.4526
  835MOL0     C10104   5.735   2.970   5.825  0.1326 -0.4634  0.2187
  835MOL0     N10105   5.590   3.007   5.793  0.6451 -0.6178 -0.5789
  835MOL0     C10106   5.518   2.956   5.692 -0.8723 -0.4605  0.2656
  835MOL0     C10107   5.392   3.000   5.709 -0.2679  0.0473  0.9070
  835MOL0     C10108   5.273   2.965   5.608  0.2378 -0.4854  0.5865
  835MOL0     C10109   5.139   2.988   5.685  0.0168  0.3525 -0.0013
  835MOL0     C10110   5.018   2.941   5.594 -0.2464 -1.3948  0.5966
  835MOL0     C10111   4.875   2.946   5.647  0.1956  0.4988  1.1259
  835MOL0     O10112   4.784   2.889   5.545 -0.6582 -0.7458 -0.1146
  835MOL0     C10113   4.652   2.925   5.547 -1.1620 -0.8783 -0.6424
  835MOL0     C10114   4.575   2.896   5.435  0.0685  0.2296 -0.4375
  835MOL0     C10115   4.437   2.909   5.425  0.1078 -0.0130  0.4184
  835MOL0     C10116   4.362   2.951   5.542 -0.7938 -0.0930  1.1421
  835MOL0     C10117   4.224   2.976   5.528  0.4532  0.1027 -0.6697
  835MOL0     O10118   4.184   3.012   5.404  1.1830  0.2492  0.6283
  835MOL0     C10119   4.052   3.042   5.382  0.5769 -0.0200  0.0205
  835MOL0     C10120   3.992   3.163   5.403 -0.1926  0.0956 -0.0542
  835MOL0     C10121   3.854   3.185   5.379  0.3565 -0.2041 -0.6628
  835MOL0     C10122   3.765   3.081   5.335 -0.0901 -0.7039  1.2364
  835MOL0     O10123   3.631   3.102   5.318 -0.4731 -0.5770  0.4644
  835MOL0     C10124   3.571   3.229   5.343 -0.0644  0.1690 -0.2990
  835MOL0     C10125   3.421   3.216   5.320 -0.8707  1.0564  0.2653
  835MOL0     C10126   3.327   3.111   5.403 -0.2470  0.4632  1.0133
  835MOL0     C10127   3.190   3.174   5.444  0.2038  0.3507 -0.3947
  835MOL0     C10128   3.101   3.201   5.317 -0.5351  0.5692  0.8391
  835MOL0     C10129   2.957   3.235   5.355  0.7857 -0.1693 -0.8276
  835MOL0     C10130   2.870   3.221   5.229  0.6956 -0.5409 -0.4074
  835MOL0     C10131   2.720   3.213   5.252 -0.5615 -0.0561 -0.8201
  835MOL0    Cl10132   2.642   3.372   5.263 -0.1050  0.1240 -0.2478
  835MOL0     C10133   3.826   2.956   5.317 -0.3798 -0.2311 -0.0809
  835MOL0     C10134   3.964   2.936   5.339 -0.6832  0.5217 -0.5381
  835MOL0     O10135   4.155   2.973   5.631  0.1552 -0.7246  0.5415
  835MOL0     C10136   4.439   2.988   5.660  0.1098 -0.1912  0.2820
  835MOL0     C10137   4.577   2.986   5.654 -0.2670 -0.6583  1.1303
  835MOL0     N10138   5.386   3.075   5.821 -0.3323  0.1306 -0.2092
  835MOL0     N10139   5.507   3.080   5.877 -0.2290 -0.0608  0.0697
  835MOL0     C10140   6.674   2.645   6.030  0.2262  0.2858  0.4528
  835MOL0     C10141   6.764   2.540   6.027 -0.5277  0.3445  1.0272
  835MOL0     C10142   7.177   2.352   6.078 -0.2587  0.4934 -0.2766
  835MOL0     C10143   7.149   2.240   6.001  0.2239 -0.0900 -0.0467
  835MOL0     C10144   7.224   2.127   6.017 -0.3940 -0.8623 -0.1691
  835MOL0     C10145   7.322   2.119   6.120 -0.9327  0.5948 -0.2005
  835MOL0     O10146   7.401   2.006   6.150  0.0913 -0.6722 -0.0364
  835MOL0     C10147   7.356   1.878   6.125  0.7607  0.8002 -0.0439
  835MOL0     C10148   7.244   1.837   6.218 -0.7045 -0.0696  0.0616
  835MOL0     C10149   7.243   1.680   6.207  0.4274 -0.1397 -0.6640
  835MOL0     C10150   7.099   1.634   6.198  0.6889 -0.0926  0.7186
  835MOL0     C10151   7.028   1.669   6.322  0.3238  0.1714  0.4842
  835MOL0     C10152   6.962   1.699   6.420 -0.8562  1.0308 -0.8781
  835MOL0     C10153   7.357   2.230   6.191 -0.0809  0.1153  0.4009
  835MOL0     C10154   7.285   2.342   6.172 -1.0091 -0.0418 -0.2344
  835MOL0     H10155   7.039   2.702   5.911 -0.0576  0.0335 -1.1350
  835MOL0     H10156   6.876   2.894   5.920  0.7941 -0.2295 -2.6348
  835MOL0     H10157   6.451   2.753   5.958 -0.3835 -0.2486 -1.0197
  835MOL0     H10158   6.496   2.832   5.807  2.6452  1.1864  0.0476
  835MOL0     H10159   6.412   3.046   5.900  2.4465 -1.8514 -1.2399
  835MOL0     H10160   6.387   2.972   6.057  3.0196 -1.0001 -0.2612
  835MOL0     H10161   6.205   2.813   5.930  2.3174 -1.3527  0.2154
  835MOL0     H10162   6.234   2.935   5.799  2.7197 -1.7060 -0.7599
  835MOL0     H10163   6.158   2.990   6.101  2.4379 -0.1947  0.4840
  835MOL0     H10164   6.174   3.118   5.979 -1.7957  0.2088 -0.0559
  835MOL0     H10165   5.947   3.070   6.014 -1.8230 -1.1194 -0.0288
  835MOL0     H10166   5.969   2.897   5.966  1.9604 -0.8586 -0.8310
  835MOL0     H10167   6.001   2.966   5.735  1.6443 -0.8822  2.3837
  835MOL0     H10168   6.030   3.133   5.779 -0.1544  0.5524 -0.8744
  835MOL0     H10169   5.807   3.161   5.846  0.2371 -0.4058  1.7520
  835MOL0     H10170   5.810   3.101   5.677 -2.8966 -1.8060  0.1903
  835MOL0     H10171   5.734   2.969   5.935  2.7530 -2.2233  0.3244
  835MOL0     H10172   5.765   2.866   5.810 -1.3183 -0.9200  0.3349
  835MOL0     H10173   5.549   2.893   5.609 -1.3960  1.3441 -1.3809
  835MOL0     H10174   5.282   2.865   5.566 -1.8732  0.2533 -1.8548
  835MOL0     H10175   5.266   3.037   5.526 -1.0535 -0.4382  0.7122
  835MOL0     H10176   5.116   3.090   5.714  2.1922  1.1048 -0.6892
  835MOL0     H10177   5.149   2.923   5.773  1.0335  0.0119 -0.3476
  835MOL0     H10178   5.034   2.999   5.503  1.4307 -4.0451 -0.9260
  835MOL0     H10179   5.041   2.838   5.565 -1.9646 -1.0241 -2.5904
  835MOL0     H10180   4.848   3.048   5.674  3.9944  2.3802 -1.3435
  835MOL0     H10181   4.859   2.881   5.734  0.7896  0.7134  1.3989
  835MOL0     H10182   4.632   2.866   5.348  2.0320 -1.6193  1.3597
  835MOL0     H10183   4.384   2.883   5.334 -1.1191  1.7998  0.5507
  835MOL0     H10184   4.053   3.250   5.425  1.5746 -1.1910  0.3831
  835MOL0     H10185   3.833   3.289   5.398  1.8150 -0.0474  0.1914
  835MOL0     H10186   3.602   3.310   5.276  0.7992  0.4462  0.4209
  835MOL0     H10187   3.582   3.247   5.450 -2.0198  0.7186 -0.1391
  835MOL0     H10188   3.404   3.203   5.213 -0.8742 -0.4500  0.4225
  835MOL0     H10189   3.379   3.311   5.352  1.3726  1.9462  0.7265
  835MOL0     H10190   3.381   3.078   5.492  0.3237 -1.3021  0.0475
  835MOL0     H10191   3.301   3.024   5.341 -1.0137  1.2996  0.1234
  835MOL0     H10192   3.145   3.100   5.511 -0.0872  0.5531 -0.3661
  835MOL0     H10193   3.197   3.272   5.493  0.8562  0.7729 -1.3053
  835MOL0     H10194   3.102   3.108   5.259  0.3936  0.9992  0.1438
  835MOL0     H10195   3.149   3.280   5.260 -1.2219  0.5041  0.1505
  835MOL0     H10196   2.959   3.340   5.386  3.3303 -0.0017 -1.3675
  835MOL0     H10197   2.933   3.173   5.442 -1.7171  2.3987  0.4856
  835MOL0     H10198   2.894   3.305   5.163  1.1831  0.3922  0.9123
  835MOL0     H10199   2.897   3.122   5.191 -0.3513 -1.6593  1.6126
  835MOL0     H10200   2.704   3.157   5.345  0.4372  0.0538 -0.5752
  835MOL0     H10201   2.676   3.165   5.164 -0.4817  0.7710 -1.3203
  835MOL0     H10202   3.767   2.872   5.282 -0.0353 -0.0883 -1.0367
  835MOL0     H10203   4.005   2.837   5.329 -2.0879 -0.3370  1.4229
  835MOL0     H10204   4.381   3.024   5.744  0.4320  1.1229 -0.0360
  835MOL0     H10205   4.623   3.032   5.741  0.4955  1.2121 -0.2013
  835MOL0     H10206   6.572   2.626   6.065  0.5530 -0.3614  1.0916
  835MOL0     H10207   6.739   2.440   6.058 -0.3877  0.0761  0.3081
  835MOL0     H10208   7.057   2.233   5.945 -0.7442 -1.1238  1.5678
  835MOL0     H10209   7.205   2.034   5.962  1.9356 -0.6861 -1.4156
  835MOL0     H10210   7.441   1.812   6.144  1.6266  1.8436 -0.2360
  835MOL0     H10211   7.329   1.864   6.019 -2.2028 -1.0315  0.8117
  835MOL0     H10212   7.251   1.870   6.322  1.6080  1.9833 -0.6594
  835MOL0     H10213   7.153   1.890   6.188 -0.7246 -0.5873 -0.8235
  835MOL0     H10214   7.285   1.632   6.296 -1.8642 -1.2242 -0.0951
  835MOL0     H10215   7.310   1.644   6.129  1.7217 -0.4000  0.5365
  835MOL0     H10216   7.050   1.687   6.115 -0.6921 -1.7857  0.4077
  835MOL0     H10217   7.108   1.527   6.180  0.6394 -0.0188  0.2613
  835MOL0     H10218   6.908   1.736   6.505 -2.0911  1.9877 -2.0312
  835MOL0     H10219   7.442   2.235   6.258  1.1564  1.6872 -1.2216
  835MOL0     H10220   7.319   2.439   6.208  3.1335 -0.8842 -1.2674
  836MOL0     O10221   9.474   3.353   4.521 -0.4383 -0.3096 -0.0162
  836MOL0     C10222   9.553   3.432   4.479  0.4862  0.0732  0.2624
  836MOL0     O10223   9.517   3.557   4.435 -0.5772  0.0329 -0.2171
  836MOL0     C10224   9.388   3.607   4.427  0.9400 -0.1279  1.1992
  836MOL0     C10225   9.276   3.567   4.504  0.0172 -0.3490  0.0580
  836MOL0     C10226   9.151   3.620   4.462 -0.6982  0.2084 -0.0525
  836MOL0     C10227   9.136   3.716   4.356  0.2934  0.0671 -0.0305
  836MOL0     O10228   9.005   3.761   4.336 -0.2823  0.2877  0.0074
  836MOL0     C10229   8.972   3.865   4.247 -1.5000  0.4990  0.1506
  836MOL0     C10230   8.829   3.897   4.291  0.0198 -0.4478 -0.0685
  836MOL0     C10231   8.741   3.941   4.173  0.3899 -1.2258  0.1988
  836MOL0     C10232   8.665   4.071   4.204  0.0775  0.0838 -0.5409
  836MOL0     C10233   8.600   4.130   4.082  0.4540  0.0802  0.0296
  836MOL0     C10234   8.517   4.262   4.094  0.2081  0.3423 -0.0855
  836MOL0     C10235   8.412   4.241   4.193  0.9559 -0.1237  0.1737
  836MOL0     C10236   8.359   4.371   4.248 -0.7441 -0.1333 -1.3204
  836MOL0     N10237   8.306   4.456   4.144 -0.3926  0.2940  0.7550
  836MOL0     C10238   8.166   4.474   4.116 -0.1114 -0.2307 -0.1166
  836MOL0     C10239   8.164   4.558   4.010 -0.6227  0.6169  0.0329
  836MOL0     C10240   8.051   4.614   3.934 -1.1835  0.9036  0.3871
  836MOL0     C10241   7.923   4.643   4.016 -0.1730  0.0016  0.6576
  836MOL0     C10242   7.831   4.724   3.924  0.2780 -0.9036  0.0108
  836MOL0     C10243   7.804   4.649   3.794  0.2224  0.2940 -0.1509
  836MOL0     O10244   7.705   4.700   3.702 -0.0283 -0.0821  0.6003
  836MOL0     C10245   7.570   4.681   3.728  0.0263 -0.2104  0.5281
  836MOL0     C10246   7.483   4.730   3.631  0.3478  0.6933  1.4605
  836MOL0     C10247   7.344   4.708   3.635 -0.3606 -0.1964 -1.0736
  836MOL0     C10248   7.291   4.631   3.747  0.5724  0.4273 -0.1551
  836MOL0     C10249   7.149   4.603   3.742  0.3995 -0.1299  0.2129
  836MOL0     O10250   7.085   4.620   3.619  0.1506 -0.6563  0.2805
  836MOL0     C10251   6.952   4.637   3.631 -0.2153 -0.3747 -0.3044
  836MOL0     C10252   6.893   4.748   3.558  0.4640 -0.5030 -0.3142
  836MOL0     C10253   6.755   4.757   3.539 -0.0396  0.6461  0.3477
  836MOL0     C10254   6.664   4.681   3.613  0.3754  0.0298  0.2248
  836MOL0     O10255   6.531   4.685   3.573 -0.3758 -0.7772  0.2245
  836MOL0     C10256   6.444   4.576   3.602  0.3657 -0.4063 -0.3485
  836MOL0     C10257   6.302   4.621   3.564 -0.1900 -0.6880 -0.3139
  836MOL0     C10258   6.262   4.759   3.627 -1.6384 -0.0667 -0.3030
  836MOL0     C10259   6.119   4.793   3.592  0.4997  0.2408  0.0510
  836MOL0     C10260   6.077   4.920   3.664 -0.8255  0.2978 -0.4239
  836MOL0     C10261   6.114   5.051   3.597  0.0175 -0.2740  0.0289
  836MOL0     C10262   6.019   5.080   3.480  0.4795 -0.0624 -0.7756
  836MOL0     C10263   6.056   5.193   3.397 -0.0114  0.0451  0.1734
  836MOL0    Cl10264   6.066   5.338   3.493  0.2833 -0.2727 -0.2299
  836MOL0     C10265   6.722   4.573   3.678  0.3912  0.4432  0.0399
  836MOL0     C10266   6.862   4.545   3.684  0.5398 -0.0908 -0.0548
  836MOL0     O10267   7.093   4.574   3.850 -0.0729 -0.0531 -0.9399
  836MOL0     C10268   7.377   4.591   3.847 -0.9071  0.3588  1.1784
  836MOL0     C10269   7.512   4.621   3.838  0.6987  0.3626 -0.3846
  836MOL0     N10270   8.294   4.591   3.974 -0.2151  1.0323 -0.0935
  836MOL0     N10271   8.378   4.535   4.057  0.1616  0.3957  0.2728
  836MOL0     C10272   9.240   3.750   4.282 -0.3728 -0.0605  0.1461
  836MOL0     C10273   9.367   3.705   4.325 -0.2018  0.2488 -0.0078
  836MOL0     C10274   9.690   3.392   4.451  0.0176  0.4529  0.7119
  836MOL0     C10275   9.779   3.485   4.398 -0.2995 -0.9770 -0.0374
  836MOL0     C10276   9.905   3.437   4.362  1.5440  0.2339 -0.2028
  836MOL0     C10277   9.954   3.304   4.390  1.7932 -0.0036 -0.4085
  836MOL0     O10278  10.073   3.262   4.347 -0.3619 -0.4291  0.2066
  836MOL0     C10279  10.179   3.359   4.379  0.0400 -0.0366  0.8289
  836MOL0     C10280  10.300   3.283   4.436 -0.1666  0.1981 -0.2045
  836MOL0     C10281  10.437   3.305   4.352 -1.1880 -0.3909  1.5953
  836MOL0     C10282  10.550   3.206   4.397  0.0064 -0.4804  0.4734
  836MOL0     C10283  10.672   3.222   4.319  0.2549  0.6070  0.2223
  836MOL0     C10284  10.769   3.224   4.249 -0.1404 -0.1766 -0.0330
  836MOL0     C10285   9.861   3.220   4.450 -0.1367  0.3018  0.0151
  836MOL0     C10286   9.731   3.259   4.479 -0.3403 -0.2275  0.1552
  836MOL0     H10287   9.279   3.485   4.576  3.2265 -0.8046 -0.4528
  836MOL0     H10288   9.066   3.585   4.521  1.9387 -1.2978  3.1820
  836MOL0     H10289   8.977   3.812   4.151  0.1499 -3.3224  2.1390
  836MOL0     H10290   9.039   3.951   4.249  1.2599 -1.4823 -0.9252
  836MOL0     H10291   8.847   3.988   4.349 -2.1866  0.5813 -0.9253
  836MOL0     H10292   8.784   3.820   4.354  0.7613  0.7439  2.0111
  836MOL0     H10293   8.672   3.865   4.135 -0.4963  0.3790 -1.5637
  836MOL0     H10294   8.813   3.959   4.093  1.8535 -2.2630  1.2350
  836MOL0     H10295   8.589   4.041   4.277 -1.2448  3.6573 -0.2456
  836MOL0     H10296   8.736   4.143   4.246 -0.5504  0.9412 -0.9126
  836MOL0     H10297   8.537   4.045   4.056 -0.1260 -0.2466  2.2739
  836MOL0     H10298   8.674   4.150   4.004 -0.7363 -1.7699 -1.6654
  836MOL0     H10299   8.464   4.267   3.999  0.5146 -0.6099 -0.3249
  836MOL0     H10300   8.566   4.357   4.113 -0.0397  0.2446  1.1925
  836MOL0     H10301   8.322   4.195   4.151  0.5724  0.4533  0.3507
  836MOL0     H10302   8.450   4.178   4.274  1.6698  0.4788  0.3144
  836MOL0     H10303   8.430   4.436   4.300 -2.4611  0.4570  0.4008
  836MOL0     H10304   8.283   4.356   4.325  1.5379  2.8231  1.8197
  836MOL0     H10305   8.075   4.426   4.152 -0.6713  0.7114 -0.2340
  836MOL0     H10306   8.043   4.538   3.855  1.0390  0.3789  0.5923
  836MOL0     H10307   8.082   4.710   3.891 -0.6115  1.4220  1.8772
  836MOL0     H10308   7.946   4.709   4.100 -0.9038  0.6101  0.3927
  836MOL0     H10309   7.870   4.554   4.050 -0.6768 -0.6490 -1.6438
  836MOL0     H10310   7.740   4.731   3.984 -0.0859 -1.9423 -0.3918
  836MOL0     H10311   7.860   4.827   3.903 -3.4362  0.8687  2.5594
  836MOL0     H10312   7.782   4.546   3.821  2.7243  0.0489  1.3416
  836MOL0     H10313   7.897   4.646   3.736  2.2596 -1.7607  2.9172
  836MOL0     H10314   7.512   4.785   3.542  2.5170 -0.4252  1.4226
  836MOL0     H10315   7.275   4.729   3.554 -2.5425 -0.5461  0.5923
  836MOL0     H10316   6.960   4.813   3.503 -1.5965  0.6112 -1.6459
  836MOL0     H10317   6.711   4.832   3.475  0.3953  0.9085  0.3542
  836MOL0     H10318   6.441   4.547   3.708 -0.7752 -2.3738 -0.8707
  836MOL0     H10319   6.469   4.485   3.546  0.6546 -0.6009  0.0894
  836MOL0     H10320   6.232   4.546   3.601 -0.7248  0.5373  1.2686
  836MOL0     H10321   6.288   4.644   3.458  0.4710  0.9756 -0.0701
  836MOL0     H10322   6.329   4.840   3.596 -1.5927  0.8616  2.0154
  836MOL0     H10323   6.284   4.743   3.733  2.7814 -0.3611 -1.0695
  836MOL0     H10324   6.119   4.796   3.482 -0.2686 -0.9534 -0.0065
  836MOL0     H10325   6.048   4.724   3.639 -1.5181  1.6647 -0.7512
  836MOL0     H10326   6.124   4.920   3.762  1.3941 -1.2223 -1.4123
  836MOL0     H10327   5.969   4.922   3.682 -1.0653  2.4004 -1.8421
  836MOL0     H10328   6.217   5.055   3.561 -0.2336 -1.1360 -0.8304
  836MOL0     H10329   6.112   5.122   3.679  3.7074 -1.4265  1.2865
  836MOL0     H10330   6.021   4.984   3.428 -1.4714 -0.3091 -0.4861
  836MOL0     H10331   5.915   5.095   3.510  0.5882  0.0541 -0.4521
  836MOL0     H10332   5.980   5.207   3.320  0.5644  4.6317  0.1425
  836MOL0     H10333   6.152   5.172   3.350 -0.2353 -1.4376  0.3480
  836MOL0     H10334   6.657   4.501   3.728  1.4454 -1.7649 -1.5903
  836MOL0     H10335   6.887   4.457   3.742 -1.1578 -1.3633 -1.1460
  836MOL0     H10336   7.332   4.538   3.931  2.6863 -1.7218  1.9968
  836MOL0     H10337   7.574   4.593   3.923 -0.3424 -0.2118  0.1951
  836MOL0     H10338   9.242   3.813   4.194  1.0477 -1.0400 -0.5564
  836MOL0     H10339   9.451   3.743   4.267  0.6915 -0.3870  0.8276
  836MOL0     H10340   9.750   3.585   4.370  0.8037 -0.2177  1.4206
  836MOL0     H10341   9.969   3.515   4.323  1.5105  1.2047  1.5593
  836MOL0     H10342  10.146   3.446   4.436 -0.0705  0.8676 -0.5883
  836MOL0     H10343  10.216   3.412   4.291  0.0492  1.1939  1.5462
  836MOL0     H10344  10.334   3.299   4.539  3.0354 -2.9585 -0.5624
  836MOL0     H10345  10.276   3.176   4.432 -0.0640  0.0734  1.7492
  836MOL0     H10346  10.473   3.408   4.363 -0.6755  0.2904 -3.7147
  836MOL0     H10347  10.418   3.300   4.244 -0.1465  0.4612  1.3536
  836MOL0     H10348  10.574   3.231   4.501  2.4091  0.6469 -0.2874
  836MOL0     H10349  10.518   3.102   4.380 -2.3324  0.5029 -1.8527
  836MOL0     H10350  10.845   3.225   4.174 -0.2014 -1.0476 -0.1150
  836MOL0     H10351   9.886   3.119   4.479  0.6977  1.3976  3.5062
  836MOL0     H10352   9.666   3.190   4.533 -1.0901  1.2024  1.1352
  837MOL0     O10353   2.970   7.640   3.450  0.6419 -0.1271 -0.4944
  837MOL0     C10354   2.974   7.523   3.431 -0.9413 -0.1074  0.3163
  837MOL0     O10355   3.074   7.460   3.359  0.2418  0.5834 -0.3264
  837MOL0     C10356   3.153   7.537   3.273  0.3656 -1.2330 -0.1274
  837MOL0     C10357   3.103   7.634   3.190  0.5018 -0.1472  0.2025
  837MOL0     C10358   3.184   7.721   3.109  0.0915 -0.3130 -0.2026
  837MOL0     C10359   3.322   7.709   3.119  0.2321 -0.4218 -0.7803
  837MOL0     O10360   3.400   7.811   3.079  0.0957 -0.0085  0.1262
  837MOL0     C10361   3.474   7.762   2.966 -0.4049 -0.3542  0.2546
  837MOL0     C10362   3.613   7.831   2.960 -0.6146 -0.4668 -0.7690
  837MOL0     C10363   3.713   7.786   3.072 -0.0776  0.7588 -0.3352
  837MOL0     C10364   3.785   7.654   3.026 -1.0408  0.4128 -0.6827
  837MOL0     C10365   3.881   7.604   3.142  0.3370 -0.0906 -1.4456
  837MOL0     C10366   3.879   7.456   3.165 -0.0870  0.1687  0.5010
  837MOL0     C10367   3.969   7.399   3.267 -0.3786 -0.2179  0.7196
  837MOL0     C10368   3.959   7.250   3.270  0.1811 -0.1252  0.2844
  837MOL0     N10369   3.824   7.200   3.296  0.5396 -0.0828 -0.4565
  837MOL0     C10370   3.756   7.214   3.412  0.6009 -0.1562  0.3586
  837MOL0     C10371   3.635   7.153   3.388 -0.2924  0.3097  0.3270
  837MOL0     C10372   3.518   7.158   3.484  0.7532  0.0900 -0.6352
  837MOL0     C10373   3.416   7.045   3.465  0.8498  0.5052  0.5859
  837MOL0     C10374   3.303   7.082   3.560 -0.5466  0.2569 -1.0574
  837MOL0     C10375   3.185   6.989   3.536  0.0568  0.0252 -0.1927
  837MOL0     O10376   3.087   7.023   3.629  0.1722 -0.0737  0.3507
  837MOL0     C10377   2.967   6.962   3.614 -0.1634 -0.9070 -0.3563
  837MOL0     C10378   2.939   6.864   3.519 -0.1108  1.9818  0.2947
  837MOL0     C10379   2.816   6.794   3.508  0.7381  0.2715 -0.7680
  837MOL0     C10380   2.709   6.834   3.584 -0.3440  0.8790 -1.2877
  837MOL0     C10381   2.579   6.764   3.563  0.2660  0.5786  0.1978
  837MOL0     O10382   2.576   6.684   3.455  0.1912 -0.3467  0.7184
  837MOL0     C10383   2.463   6.613   3.423  0.0388  0.2010  0.8272
  837MOL0     C10384   2.423   6.618   3.286  1.1452  1.0305 -0.2480
  837MOL0     C10385   2.317   6.532   3.245 -0.0846  0.9500  0.0903
  837MOL0     C10386   2.252   6.445   3.343  0.0842  0.1339 -1.2374
  837MOL0     O10387   2.144   6.369   3.304 -0.0315 -0.1266  0.1489
  837MOL0     C10388   2.055   6.426   3.208  0.7389  0.3623  0.8136
  837MOL0     C10389   1.909   6.384   3.235  0.3394 -0.9340  0.3476
  837MOL0     C10390   1.881   6.241   3.195  0.6068  0.4400  0.7231
  837MOL0     C10391   1.848   6.210   3.046 -0.1250  0.2223 -0.0942
  837MOL0     C10392   1.776   6.081   3.028  0.1815 -0.0003 -0.0886
  837MOL0     C10393   1.863   5.962   3.076 -0.3567  0.7081  0.2002
  837MOL0     C10394   1.773   5.835   3.063  0.2712 -0.2376  0.8449
  837MOL0     C10395   1.818   5.717   3.153 -0.6060  0.0718 -0.2227
  837MOL0    Cl10396   1.805   5.773   3.316 -0.0483 -0.4814 -0.1053
  837MOL0     C10397   2.293   6.448   3.480  0.4843 -0.0391 -0.7078
  837MOL0     C10398   2.410   6.514   3.510  0.4052 -0.6885  0.3642
  837MOL0     O10399   2.488   6.783   3.635  0.6284  0.1835 -0.0145
  837MOL0     C10400   2.729   6.925   3.684 -0.3363 -0.2191 -0.2273
  837MOL0     C10401   2.856   6.990   3.698 -0.1805 -0.3872 -0.2590
  837MOL0     N10402   3.628   7.108   3.259  0.2654  0.3998 -0.5449
  837MOL0     N10403   3.739   7.137   3.205 -0.0902 -0.1429  0.2920
  837MOL0     C10404   3.374   7.605   3.207 -0.3380 -0.5683 -0.3279
  837MOL0     C10405   3.296   7.518   3.273  0.4490 -1.1255 -0.6969
  837MOL0     C10406   2.863   7.436   3.488 -0.3696  0.2844 -1.4613
  837MOL0     C10407   2.836   7.312   3.425 -0.3680 -0.9146 -0.5493
  837MOL0     C10408   2.717   7.241   3.466 -0.1795  0.1932 -0.2798
  837MOL0     C10409   2.635   7.281   3.574  0.3458  0.3101 -0.0503
  837MOL0     O10410   2.520   7.216   3.619 -0.3900  0.2083 -0.0235
  837MOL0     C10411   2.450   7.111   3.546  0.0776 -0.6327 -0.3885
  837MOL0     C10412   2.321   7.073   3.617  0.6970 -0.2088  0.3743
  837MOL0     C10413   2.232   7.194   3.604  0.5166  0.2328  0.0167
  837MOL0     C10414   2.084   7.160   3.583 -0.3252  0.1793  0.6053
  837MOL0     C10415   2.031   7.051   3.669  1.3349  0.5076 -0.6117
  837MOL0     C10416   1.990   6.961   3.741  0.3894  0.0851 -0.4215
  837MOL0     C10417   2.649   7.409   3.624 -0.2102  0.0369  0.5657
  837MOL0     C10418   2.768   7.487   3.582 -0.1949  0.5251 -0.8433
  837MOL0     H10419   2.996   7.640   3.173 -0.1686  1.0504  3.9553
  837MOL0     H10420   3.135   7.799   3.052 -0.2008  1.4277  2.2942
  837MOL0     H10421   3.418   7.783   2.875 -1.2863  0.7223  1.0095
  837MOL0     H10422   3.498   7.655   2.965  0.8521 -0.0897 -0.2647
  837MOL0     H10423   3.594   7.939   2.969 -0.9768 -0.6544  1.3590
  837MOL0     H10424   3.669   7.820   2.867  0.3050  2.4113 -0.6481
  837MOL0     H10425   3.665   7.770   3.169  1.4963  2.4029  0.7811
  837MOL0     H10426   3.792   7.856   3.099  4.3009 -3.4098 -0.8927
  837MOL0     H10427   3.709   7.577   3.010 -1.6769  0.5509  1.3281
  837MOL0     H10428   3.841   7.679   2.936 -1.2730  2.2198 -0.3566
  837MOL0     H10429   3.847   7.638   3.240 -0.4990  2.0046 -2.4025
  837MOL0     H10430   3.981   7.645   3.126  1.0740 -0.2958  1.8573
  837MOL0     H10431   3.907   7.395   3.078  0.8784  1.7635 -0.3438
  837MOL0     H10432   3.778   7.429   3.197 -0.8900  1.2461 -1.0454
  837MOL0     H10433   4.071   7.426   3.236 -1.5188  3.0238 -0.5897
  837MOL0     H10434   3.958   7.458   3.359 -0.6029 -0.0689  0.5978
  837MOL0     H10435   4.014   7.205   3.353 -0.8073 -1.1806  0.3845
  837MOL0     H10436   3.994   7.211   3.175  2.5687  2.6387 -0.1114
  837MOL0     H10437   3.781   7.265   3.505  0.6315 -0.8926  0.7638
  837MOL0     H10438   3.465   7.254   3.482 -2.9869 -1.7613  0.4416
  837MOL0     H10439   3.558   7.144   3.585  0.4958  1.9638 -0.2396
  837MOL0     H10440   3.467   6.952   3.487 -1.3406 -0.6450  1.0885
  837MOL0     H10441   3.378   7.038   3.362 -0.4767  2.4737  0.8876
  837MOL0     H10442   3.354   7.058   3.655 -0.3940 -3.2145 -1.8563
  837MOL0     H10443   3.276   7.187   3.551  0.5550  0.8361  1.4434
  837MOL0     H10444   3.214   6.885   3.552  1.3935 -0.1155 -2.9613
  837MOL0     H10445   3.140   6.999   3.437 -0.5416  0.8727  0.1482
  837MOL0     H10446   3.011   6.825   3.447  0.0757  0.7706  1.1044
  837MOL0     H10447   2.802   6.723   3.428 -3.8433  1.2445 -1.1259
  837MOL0     H10448   2.471   6.682   3.212  1.7229  1.0891  0.1714
  837MOL0     H10449   2.294   6.533   3.139 -0.3639  0.2207  0.1413
  837MOL0     H10450   2.089   6.393   3.109 -2.9460  0.3346 -0.5794
  837MOL0     H10451   2.052   6.534   3.222 -0.3150  0.5801 -0.8173
  837MOL0     H10452   1.843   6.454   3.183  1.6048 -0.0412 -0.1074
  837MOL0     H10453   1.889   6.393   3.342 -1.0729  0.5717 -0.0076
  837MOL0     H10454   1.791   6.218   3.254 -1.5263 -1.1245 -2.8213
  837MOL0     H10455   1.961   6.175   3.229  0.1416  0.0827  1.1393
  837MOL0     H10456   1.785   6.286   3.000 -0.7381 -0.5853 -0.6083
  837MOL0     H10457   1.935   6.227   2.983  0.1563 -2.0193 -0.3988
  837MOL0     H10458   1.736   6.069   2.927  0.8725  1.8688 -0.6289
  837MOL0     H10459   1.692   6.091   3.097  3.4420  1.2498  4.1669
  837MOL0     H10460   1.907   5.986   3.173 -0.0203  1.3422 -0.1065
  837MOL0     H10461   1.953   5.938   3.019  0.0380 -2.2791  1.8474
  837MOL0     H10462   1.667   5.855   3.084  0.0226 -1.4566  0.8816
  837MOL0     H10463   1.784   5.818   2.956  2.2564  2.2901  0.5745
  837MOL0     H10464   1.922   5.685   3.147 -0.1930  1.0131  1.2839
  837MOL0     H10465   1.762   5.624   3.140 -2.0707  0.9576 -0.4410
  837MOL0     H10466   2.260   6.382   3.559 -1.6845  2.0224  0.2163
  837MOL0     H10467   2.452   6.512   3.610 -1.3745  0.4562  1.1888
  837MOL0     H10468   2.650   6.936   3.758  0.2481 -2.8510  0.8876
  837MOL0     H10469   2.874   7.040   3.793 -1.6378  1.3669 -0.8565
  837MOL0     H10470   3.480   7.614   3.227 -0.3170  2.9284 -1.3716
  837MOL0     H10471   3.344   7.443   3.335  0.5345  1.1970  2.2473
  837MOL0     H10472   2.893   7.246   3.360 -2.2656  0.8955 -4.4412
  837MOL0     H10473   2.689   7.147   3.420  1.2509 -0.2805 -0.2522
  837MOL0     H10474   2.517   7.027   3.526 -0.4408 -0.4686 -3.2283
  837MOL0     H10475   2.430   7.153   3.447 -1.3737 -0.1795  0.0671
  837MOL0     H10476   2.286   6.988   3.557  0.0396  0.2447  0.1007
  837MOL0     H10477   2.345   7.056   3.722  3.6881  2.5889  0.3100
  837MOL0     H10478   2.269   7.243   3.514 -0.6231 -1.6682 -1.5732
  837MOL0     H10479   2.239   7.259   3.692  0.8735 -2.3087  1.9965
  837MOL0     H10480   2.019   7.248   3.590 -0.3529  0.0299  3.3216
  837MOL0     H10481   2.073   7.116   3.484 -0.9276  2.3211 -0.3241
  837MOL0     H10482   1.949   6.893   3.813  0.7894 -0.3496 -0.5976
  837MOL0     H10483   2.564   7.448   3.679 -2.0380  1.7192 -3.0925
  837MOL0     H10484   2.777   7.589   3.615  0.3412 -0.3022  1.7985
  838MOL0     O10485   0.219  10.844   2.307 -0.2892  0.0933  0.0617
  838MOL0     C10486   0.280  10.936   2.367  0.2736  0.0705  0.6393
  838MOL0     O10487   0.221  11.055   2.401  1.1923  0.1159 -0.4357
  838MOL0     C10488   0.092  11.073   2.372 -0.6293  0.1753  0.5743
  838MOL0     C10489   0.065  11.178   2.297 -0.0496 -0.0598  0.6744
  838MOL0     C10490  -0.068  11.231   2.289 -0.9053 -0.1006 -0.2278
  838MOL0     C10491  -0.170  11.167   2.346  0.3706  0.4020 -0.4344
  838MOL0     O10492  -0.291  11.212   2.323 -0.1575 -0.7018 -0.1120
  838MOL0     C10493  -0.401  11.118   2.315 -0.2212  0.7362  0.2689
  838MOL0     C10494  -0.516  11.208   2.278  0.5628  0.3837 -0.2486
  838MOL0     C10495  -0.639  11.129   2.219 -0.7615  0.3436  0.3103
  838MOL0     C10496  -0.753  11.231   2.210 -0.0755 -0.8822 -0.0957
  838MOL0     C10497  -0.876  11.166   2.168 -0.3434  0.9854 -0.1201
  838MOL0     C10498  -0.991  11.246   2.227 -0.3310  0.4380  1.0638
  838MOL0     C10499  -1.129  11.195   2.164 -0.4588 -0.0299 -0.4829
  838MOL0     C10500  -1.243  11.299   2.186 -0.0518 -0.1020  0.7270
  838MOL0     N10501  -1.322  11.270   2.306  0.1400  0.6869  0.8325
  838MOL0     C10502  -1.335  11.329   2.421 -0.0578  0.5152  0.2128
  838MOL0     C10503  -1.426  11.268   2.492  0.1583 -0.1291 -0.4336
  838MOL0     C10504  -1.459  11.313   2.636  0.4396 -0.0411  0.0889
  838MOL0     C10505  -1.597  11.388   2.636 -0.4987  0.5755  0.3258
  838MOL0     C10506  -1.605  11.525   2.573 -0.6713  0.5997  0.3576
  838MOL0     C10507  -1.753  11.589   2.578  0.2681 -0.8412  0.2023
  838MOL0     O10508  -1.871  11.503   2.568  0.2097 -0.1735  0.9301
  838MOL0     C10509  -1.991  11.561   2.558  0.0920 -0.3718  0.4200
  838MOL0     C10510  -2.011  11.705   2.523 -0.3148 -0.3885 -0.0661
  838MOL0     C10511  -2.148  11.760   2.522 -0.7066 -0.7263  0.3921
  838MOL0     C10512  -2.259  11.670   2.535  0.5128  0.2950  0.4491
  838MOL0     C10513  -2.396  11.714   2.524  0.1180  0.0827  0.2190
  838MOL0     O10514  -2.406  11.843   2.481 -0.2913  0.9565  0.1110
  838MOL0     C10515  -2.532  11.892   2.444  0.1635 -0.3061  0.5614
  838MOL0     C10516  -2.531  11.992   2.347 -0.6305  0.4282  0.4358
  838MOL0     C10517  -2.635  12.073   2.317  0.9093 -0.4929  0.5440
  838MOL0     C10518  -2.757  12.039   2.372  0.2836 -0.1766 -0.7839
  838MOL0     O10519  -2.859  12.123   2.338  0.4218  0.4534  0.0203
  838MOL0     C10520  -2.978  12.057   2.285  0.4535 -1.3649 -0.4712
  838MOL0     C10521  -3.088  12.095   2.386 -0.1774  0.2240 -0.2481
  838MOL0     C10522  -3.214  12.151   2.320 -0.5037 -0.0552 -0.1975
  838MOL0     C10523  -3.198  12.303   2.288  0.4724  0.2997 -0.4230
  838MOL0     C10524  -3.301  12.351   2.200  0.5715  0.1148 -0.5142
  838MOL0     C10525  -3.446  12.370   2.246 -0.5535 -0.7029 -0.1679
  838MOL0     C10526  -3.525  12.252   2.299 -0.2027 -0.3587  0.2156
  838MOL0     C10527  -3.675  12.254   2.266 -0.0377 -0.3899  0.0558
  838MOL0    Cl10528  -3.760  12.416   2.285  0.2947 -0.4359  0.1164
  838MOL0     C10529  -2.770  11.933   2.469  0.0955 -0.3602  0.3507
  838MOL0     C10530  -2.652  11.862   2.506  0.5381 -0.1150 -0.6026
  838MOL0     O10531  -2.492  11.630   2.533  0.2236  0.1222 -0.1406
  838MOL0     C10532  -2.228  11.535   2.577 -0.2256 -1.3531 -0.7509
  838MOL0     C10533  -2.102  11.490   2.590 -0.5627  0.3802 -0.0374
  838MOL0     N10534  -1.478  11.172   2.413 -0.8364 -0.3935  0.2807
  838MOL0     N10535  -1.418  11.172   2.298 -0.1660 -0.1210  0.0191
  838MOL0     C10536  -0.150  11.050   2.418 -0.1987  0.6876  0.8340
  838MOL0     C10537  -0.018  11.005   2.432 -0.4148 -0.1998  0.3434
  838MOL0     C10538   0.420  10.910   2.406  0.3059 -0.6217  0.8551
  838MOL0     C10539   0.493  10.797   2.365  0.2246  0.7063 -1.0679
  838MOL0     C10540   0.625  10.781   2.397 -0.5169  0.0755  0.4027
  838MOL0     C10541   0.690  10.880   2.469  0.5086 -0.5909  0.2911
  838MOL0     O10542   0.811  10.875   2.529  0.2242  0.1795 -0.2235
  838MOL0     C10543   0.894  10.765   2.487  0.2139 -0.2653  0.5116
  838MOL0     C10544   1.025  10.755   2.557 -0.7377  0.3224 -0.9842
  838MOL0     C10545   1.130  10.677   2.474  0.6189  0.4775  0.2612
  838MOL0     C10546   1.275  10.691   2.508  0.0538  1.0447 -0.6300
  838MOL0     C10547   1.314  10.833   2.516 -0.1420  0.5119 -0.0122
  838MOL0     C10548   1.353  10.946   2.489  0.1275 -0.6591 -0.1242
  838MOL0     C10549   0.626  11.004   2.493 -0.6297  0.3144 -0.1885
  838MOL0     C10550   0.492  11.012   2.456  0.9255 -0.1661 -0.2799
  838MOL0     H10551   0.151  11.210   2.238 -0.1190 -0.8565  0.1215
  838MOL0     H10552  -0.094  11.321   2.234 -2.9419  0.1610  1.0559
  838MOL0     H10553  -0.432  11.064   2.405 -0.3874  0.0877 -0.1692
  838MOL0     H10554  -0.388  11.045   2.235 -2.2148 -0.9975  1.4167
  838MOL0     H10555  -0.478  11.278   2.203 -0.6649  1.0850 -0.2457
  838MOL0     H10556  -0.552  11.258   2.368 -0.8742 -1.1291  0.0660
  838MOL0     H10557  -0.665  11.045   2.285 -2.8057 -0.2455 -1.1409
  838MOL0     H10558  -0.619  11.089   2.119 -1.8889 -0.2360  0.2941
  838MOL0     H10559  -0.764  11.267   2.313 -1.4627 -1.2952 -0.0796
  838MOL0     H10560  -0.734  11.309   2.135  0.4776 -0.7498  0.1747
  838MOL0     H10561  -0.889  11.066   2.210  4.0493  0.1331 -0.3039
  838MOL0     H10562  -0.880  11.157   2.059 -1.3928  0.7546 -0.0693
  838MOL0     H10563  -0.970  11.348   2.193 -1.3044  0.3712  0.2291
  838MOL0     H10564  -0.998  11.253   2.336 -1.4379  1.3219  0.9539
  838MOL0     H10565  -1.106  11.180   2.059 -0.0520 -1.3581 -0.2189
  838MOL0     H10566  -1.157  11.103   2.215  1.4193  0.1435  0.9649
  838MOL0     H10567  -1.313  11.292   2.103  1.4000  2.0775 -0.7958
  838MOL0     H10568  -1.201  11.400   2.192  2.2518 -0.6859 -2.6246
  838MOL0     H10569  -1.279  11.416   2.452  2.5334 -1.5722  1.7604
  838MOL0     H10570  -1.372  11.362   2.682  1.3829 -1.7973  0.2521
  838MOL0     H10571  -1.481  11.223   2.694  1.7798 -0.9306 -0.7168
  838MOL0     H10572  -1.618  11.409   2.741  1.8881 -1.3653  1.2829
  838MOL0     H10573  -1.677  11.333   2.585  0.8078  1.8311 -3.4172
  838MOL0     H10574  -1.534  11.598   2.614  0.3027 -0.2304  0.1954
  838MOL0     H10575  -1.576  11.518   2.468  0.8788 -1.5413  0.8587
  838MOL0     H10576  -1.760  11.672   2.506  1.9418 -0.1181  0.8207
  838MOL0     H10577  -1.767  11.643   2.672 -0.7031 -0.4825 -0.1339
  838MOL0     H10578  -1.937  11.783   2.512 -0.6551  0.0995  0.9377
  838MOL0     H10579  -2.152  11.864   2.490 -0.3704 -1.0422 -0.7084
  838MOL0     H10580  -2.440  12.019   2.295 -1.1735  0.3936 -0.5716
  838MOL0     H10581  -2.634  12.146   2.238  0.7725  0.0790  1.0615
  838MOL0     H10582  -2.967  11.948   2.275  1.8013 -1.7571  3.4296
  838MOL0     H10583  -3.005  12.110   2.193 -1.7174 -0.9874  0.3225
  838MOL0     H10584  -3.045  12.161   2.461 -0.6260  0.0028  0.2100
  838MOL0     H10585  -3.120  11.997   2.424  0.9248 -1.3406 -3.0541
  838MOL0     H10586  -3.294  12.124   2.389  0.8600 -2.6842  0.4883
  838MOL0     H10587  -3.226  12.098   2.224  0.5383  1.4781 -1.2219
  838MOL0     H10588  -3.181  12.364   2.377 -1.8153  1.7981 -0.9278
  838MOL0     H10589  -3.105  12.308   2.231  0.3675 -1.3924 -0.7903
  838MOL0     H10590  -3.312  12.281   2.117  0.3360 -0.5850  0.0941
  838MOL0     H10591  -3.271  12.445   2.153  0.8327 -1.0477 -2.7786
  838MOL0     H10592  -3.499  12.399   2.155  0.3342 -1.3805 -0.9169
  838MOL0     H10593  -3.450  12.463   2.304  2.5516  1.2001 -2.6928
  838MOL0     H10594  -3.479  12.162   2.259  1.5385  0.1823  0.8876
  838MOL0     H10595  -3.519  12.253   2.408  0.2351  0.2478  0.1961
  838MOL0     H10596  -3.734  12.182   2.324  0.1033  0.6002  1.4603
  838MOL0     H10597  -3.682  12.237   2.158 -0.5618  3.0902 -0.5637
  838MOL0     H10598  -2.862  11.906   2.519 -0.0949 -0.5877 -0.1154
  838MOL0     H10599  -2.655  11.797   2.593 -2.5420  0.7637  0.0788
  838MOL0     H10600  -2.316  11.472   2.588 -3.5042  1.9683 -4.4740
  838MOL0     H10601  -2.068  11.392   2.623  0.8162  1.3994  1.7068
  838MOL0     H10602  -0.238  10.997   2.453 -0.4507  1.0790  0.7997
  838MOL0     H10603  -0.005  10.910   2.483  1.7915 -0.4484 -0.5373
  838MOL0     H10604   0.441  10.724   2.304 -0.1146  0.5906 -0.6407
  838MOL0     H10605   0.688  10.699   2.363  2.0991  1.4335  1.7031
  838MOL0     H10606   0.915  10.776   2.380  2.9978 -3.6771  0.5192
  838MOL0     H10607   0.855  10.664   2.502 -5.1176  1.7197  2.6105
  838MOL0     H10608   1.059  10.857   2.578  1.5359 -0.1757 -1.9212
  838MOL0     H10609   1.026  10.709   2.656 -0.7265 -0.0618 -1.1585
  838MOL0     H10610   1.109  10.698   2.368  0.1140 -2.1835 -0.2352
  838MOL0     H10611   1.113  10.570   2.488  2.4199  0.2606  1.0109
  838MOL0     H10612   1.290  10.642   2.604 -4.0220 -0.9793 -0.8296
  838MOL0     H10613   1.347  10.648   2.436  1.6900  1.5601  0.6350
  838MOL0     H10614   1.393  11.040   2.459  1.2602 -0.1315  2.7470
  838MOL0     H10615   0.676  11.088   2.539 -0.8534  2.0334 -2.9041
  838MOL0     H10616   0.450  11.110   2.476  1.5224  0.0468 -0.0583
  839MOL0     O10617   0.340   9.269   0.491  0.2455  0.0896  0.8923
  839MOL0     C10618   0.387   9.154   0.470  0.3838 -0.0100  1.0011
  839MOL0     O10619   0.307   9.039   0.448  0.0134  0.1679 -0.4279
  839MOL0     C10620   0.179   9.049   0.393  0.1769  0.1187 -0.2179
  839MOL0     C10621   0.106   8.933   0.409  0.9464  0.3577 -0.3314
  839MOL0     C10622  -0.030   8.924   0.373  0.6011 -0.5466  0.5399
  839MOL0     C10623  -0.096   9.037   0.325 -1.2642 -0.3664 -0.0467
  839MOL0     O10624  -0.228   9.033   0.302  0.1639 -0.7979  0.0768
  839MOL0     C10625  -0.300   9.159   0.262 -1.3135  0.6612  0.0418
  839MOL0     C10626  -0.447   9.103   0.276  0.4073  0.6358 -0.2501
  839MOL0     C10627  -0.547   9.211   0.238 -0.2575 -0.1757 -0.5528
  839MOL0     C10628  -0.699   9.175   0.239 -0.9421  0.1260 -0.5169
  839MOL0     C10629  -0.787   9.263   0.138  0.2281  0.2799 -0.0368
  839MOL0     C10630  -0.895   9.189   0.080  0.3285 -0.0440  0.4172
  839MOL0     C10631  -0.994   9.165   0.192 -0.2855 -0.2305  0.2082
  839MOL0     C10632  -1.134   9.123   0.150  1.2731 -0.5651 -0.5799
  839MOL0     N10633  -1.232   9.090   0.261 -0.2088 -0.3289 -0.1566
  839MOL0     C10634  -1.325   9.176   0.304 -0.0174 -0.9395 -0.7702
  839MOL0     C10635  -1.390   9.104   0.398 -0.0983  0.1233  0.0064
  839MOL0     C10636  -1.484   9.151   0.512  0.6105 -0.2934  0.0034
  839MOL0     C10637  -1.622   9.106   0.495  0.5435 -0.2680 -0.8578
  839MOL0     C10638  -1.716   9.211   0.537  0.4698  0.3297 -0.2266
  839MOL0     C10639  -1.856   9.147   0.567 -0.0798  0.1868  0.4232
  839MOL0     O10640  -1.918   9.096   0.455 -0.2394  0.2994  0.7299
  839MOL0     C10641  -2.044   9.047   0.464  0.2603 -0.2753 -0.7066
  839MOL0     C10642  -2.128   9.032   0.356  0.5277 -0.4881 -0.4149
  839MOL0     C10643  -2.252   8.971   0.364 -0.3032  0.9941  0.6370
  839MOL0     C10644  -2.302   8.923   0.485 -0.7073  0.0206 -0.0047
  839MOL0     C10645  -2.436   8.859   0.495 -0.0286 -0.6460 -0.4914
  839MOL0     O10646  -2.497   8.865   0.623  0.0881  0.3782 -0.2709
  839MOL0     C10647  -2.636   8.842   0.646  0.3586 -0.2806  0.0343
  839MOL0     C10648  -2.732   8.798   0.551 -0.3619  0.9141  0.1873
  839MOL0     C10649  -2.869   8.756   0.593 -0.1480 -0.5426 -0.0833
  839MOL0     C10650  -2.905   8.781   0.726  0.5152 -0.2098  0.1692
  839MOL0     O10651  -3.026   8.745   0.779 -0.1646  0.2105 -0.1030
  839MOL0     C10652  -3.134   8.688   0.696  1.1086 -0.1437 -0.0065
  839MOL0     C10653  -3.248   8.643   0.789 -0.2097 -0.7596  0.4997
  839MOL0     C10654  -3.382   8.634   0.725 -0.4315 -1.1139  0.2594
  839MOL0     C10655  -3.396   8.557   0.593 -0.1193 -0.4291  0.7717
  839MOL0     C10656  -3.545   8.535   0.560 -0.1852  0.2992  0.8338
  839MOL0     C10657  -3.615   8.426   0.651 -0.3078 -0.0212  0.0057
  839MOL0     C10658  -3.756   8.395   0.604 -0.1017 -0.4006  0.4043
  839MOL0     C10659  -3.845   8.340   0.716 -0.2946  0.8891  0.0198
  839MOL0    Cl10660  -3.758   8.196   0.794  0.0562 -0.2227  0.0807
  839MOL0     C10661  -2.809   8.831   0.812 -0.3983 -0.1608 -0.4944
  839MOL0     C10662  -2.676   8.857   0.785  0.1638  0.0201 -0.4295
  839MOL0     O10663  -2.475   8.815   0.390  0.5979 -0.1589 -0.2222
  839MOL0     C10664  -2.229   8.954   0.600 -0.2315 -0.0798  0.1840
  839MOL0     C10665  -2.098   9.004   0.586 -0.4742  0.4499  0.2037
  839MOL0     N10666  -1.333   8.982   0.400 -0.0342  0.1573  0.5316
  839MOL0     N10667  -1.242   8.967   0.310  0.0318  0.2031 -0.6220
  839MOL0     C10668  -0.013   9.154   0.301  0.4382 -0.1543 -0.7554
  839MOL0     C10669   0.123   9.155   0.326 -0.3238  0.1932  0.9710
  839MOL0     C10670   0.527   9.152   0.476 -0.5641  0.2029  1.0314
  839MOL0     C10671   0.599   9.067   0.388 -0.7309  0.6291  0.7018
  839MOL0     C10672   0.744   9.087   0.399 -0.0875 -0.2952  0.6337
  839MOL0     C10673   0.800   9.173   0.497  1.0057  0.1078  0.5179
  839MOL0     O10674   0.939   9.188   0.493 -0.1287  0.0971  0.3240
  839MOL0     C10675   0.995   9.308   0.541 -0.1820 -0.1192 -0.3454
  839MOL0     C10676   1.142   9.301   0.496  0.0044 -0.2804  0.3621
  839MOL0     C10677   1.235   9.413   0.537  0.1810 -0.2643 -0.4310
  839MOL0     C10678   1.373   9.392   0.469  0.6278  0.0207  0.2061
  839MOL0     C10679   1.468   9.471   0.545  0.3095  0.0022 -0.3026
  839MOL0     C10680   1.546   9.541   0.610  0.1730  0.4376  0.2418
  839MOL0     C10681   0.718   9.241   0.586 -0.5651 -0.2155 -0.2445
  839MOL0     C10682   0.586   9.220   0.582 -0.4692 -0.4818 -0.3316
  839MOL0     H10683   0.142   8.854   0.475  0.1982 -0.2698 -0.6560
  839MOL0     H10684  -0.081   8.832   0.400 -2.8300  0.8306 -0.6759
  839MOL0     H10685  -0.252   9.193   0.170 -0.7390  1.0810  0.4893
  839MOL0     H10686  -0.281   9.239   0.335  0.5950 -2.0377  2.7276
  839MOL0     H10687  -0.478   9.068   0.375 -1.3330  2.5422 -0.0460
  839MOL0     H10688  -0.462   9.012   0.217 -2.0656  0.9990 -0.2874
  839MOL0     H10689  -0.528   9.239   0.134 -0.7581 -1.1861 -0.9296
  839MOL0     H10690  -0.539   9.295   0.307 -1.4167 -1.2637  0.9845
  839MOL0     H10691  -0.703   9.071   0.205  0.4402 -1.3907  3.3413
  839MOL0     H10692  -0.740   9.167   0.340  0.7685  1.8024  0.3792
  839MOL0     H10693  -0.719   9.282   0.055 -0.4727  0.9385 -0.4797
  839MOL0     H10694  -0.824   9.354   0.186 -0.3944  0.3621 -0.6577
  839MOL0     H10695  -0.866   9.092   0.037 -2.7110 -0.6368 -0.5576
  839MOL0     H10696  -0.935   9.261   0.008 -1.4085  4.9089  5.5825
  839MOL0     H10697  -0.957   9.082   0.253 -0.5882 -0.2561  0.3561
  839MOL0     H10698  -1.016   9.247   0.261 -0.6595 -0.1340 -0.0228
  839MOL0     H10699  -1.116   9.028   0.100 -0.9488 -1.3680  0.0480
  839MOL0     H10700  -1.179   9.202   0.089  5.8933 -0.3379 -4.3365
  839MOL0     H10701  -1.316   9.284   0.307  0.3820 -0.9582  2.3222
  839MOL0     H10702  -1.477   9.260   0.520 -1.3264 -0.2118  1.2701
  839MOL0     H10703  -1.446   9.112   0.607 -0.9030  1.1209  1.2548
  839MOL0     H10704  -1.640   9.033   0.574 -0.4701  0.4041 -0.4409
  839MOL0     H10705  -1.654   9.068   0.398 -0.1634 -0.9030 -0.3896
  839MOL0     H10706  -1.684   9.259   0.630 -3.5007  0.9393  1.0384
  839MOL0     H10707  -1.723   9.279   0.452  1.6532 -0.2078 -0.7727
  839MOL0     H10708  -1.917   9.218   0.624  1.2729 -0.4129  2.7781
  839MOL0     H10709  -1.841   9.061   0.633  2.7302  1.0817  1.0825
  839MOL0     H10710  -2.093   9.072   0.262 -0.6038  0.3450 -0.4960
  839MOL0     H10711  -2.305   8.969   0.269  2.9913 -0.7042 -1.3679
  839MOL0     H10712  -2.719   8.785   0.444 -2.8707 -2.0447  0.0986
  839MOL0     H10713  -2.929   8.705   0.518  2.4450 -2.0939 -1.2283
  839MOL0     H10714  -3.098   8.602   0.638  1.7954  1.2765 -1.7668
  839MOL0     H10715  -3.173   8.755   0.619  1.3320 -1.2039 -1.0769
  839MOL0     H10716  -3.265   8.716   0.868 -2.7786  0.9703 -1.4940
  839MOL0     H10717  -3.222   8.543   0.825  1.3364 -2.0342 -3.6425
  839MOL0     H10718  -3.421   8.734   0.703  0.9268 -0.7079 -0.4324
  839MOL0     H10719  -3.444   8.592   0.804 -0.6923  2.8170  2.4388
  839MOL0     H10720  -3.346   8.619   0.518  0.4455 -2.4400 -0.5978
  839MOL0     H10721  -3.338   8.465   0.602 -2.0296 -1.8224 -0.4383
  839MOL0     H10722  -3.549   8.504   0.455  2.6926 -2.8620  1.4682
  839MOL0     H10723  -3.609   8.623   0.574 -0.4291  0.6620 -2.0436
  839MOL0     H10724  -3.618   8.456   0.756 -4.1267  2.7391 -0.6857
  839MOL0     H10725  -3.548   8.340   0.641  0.1096  0.3954 -1.0654
  839MOL0     H10726  -3.791   8.490   0.562 -2.4394 -1.0387  0.7790
  839MOL0     H10727  -3.756   8.330   0.516  2.1849 -0.1570  0.1669
  839MOL0     H10728  -3.945   8.321   0.675  0.3750  3.0443 -2.9904
  839MOL0     H10729  -3.860   8.406   0.801  3.1146  0.0835  1.4234
  839MOL0     H10730  -2.830   8.865   0.912  0.3841 -0.9176 -0.0591
  839MOL0     H10731  -2.612   8.893   0.865 -0.6136 -0.6536  0.5189
  839MOL0     H10732  -2.275   8.902   0.684 -1.7750 -0.8745 -1.1078
  839MOL0     H10733  -2.037   8.996   0.676 -2.0940 -2.5810  1.1755
  839MOL0     H10734  -0.055   9.245   0.259 -2.1265 -1.0152 -0.1841
  839MOL0     H10735   0.187   9.240   0.306  0.8223 -1.4604 -3.8210
  839MOL0     H10736   0.565   8.984   0.327  0.0355 -0.9831  2.3494
  839MOL0     H10737   0.812   9.047   0.325  2.7887 -1.0927  3.4416
  839MOL0     H10738   0.992   9.306   0.651 -0.3562 -0.4649 -0.3539
  839MOL0     H10739   0.937   9.391   0.502  0.8179 -0.1429 -1.9643
  839MOL0     H10740   1.185   9.212   0.541 -3.2298 -1.6808  0.9702
  839MOL0     H10741   1.145   9.285   0.388 -3.5277  1.6429 -0.1941
  839MOL0     H10742   1.240   9.415   0.647  1.4475  0.1270 -0.4888
  839MOL0     H10743   1.195   9.512   0.516 -2.1488 -0.1659  3.4074
  839MOL0     H10744   1.399   9.286   0.483 -1.8877 -0.5898  0.7181
  839MOL0     H10745   1.366   9.423   0.365 -1.0302  1.9954  0.8437
  839MOL0     H10746   1.606   9.596   0.679  1.2418 -1.8517  1.2158
  839MOL0     H10747   0.764   9.305   0.661 -1.1890  1.6684 -1.4084
  839MOL0     H10748   0.527   9.267   0.660  0.7470  0.4660  0.0514
  840MOL0     O10749   1.054   8.557   4.119  0.2923  0.1587 -0.0476
  840MOL0     C10750   1.168   8.516   4.102  0.1773 -0.1325  0.1957
  840MOL0     O10751   1.198   8.400   4.031 -0.6267  0.2073  0.4953
  840MOL0     C10752   1.095   8.320   3.978  0.4184  0.7057 -0.4782
  840MOL0     C10753   1.070   8.201   4.043 -0.8045  0.2840  0.6745
  840MOL0     C10754   0.977   8.114   3.983 -0.0961  0.2399  0.2731
  840MOL0     C10755   0.903   8.149   3.870  0.4411 -0.6934 -0.3631
  840MOL0     O10756   0.812   8.061   3.814  0.0009 -0.4985 -0.3905
  840MOL0     C10757   0.674   8.098   3.809  0.5613  0.6186 -0.7895
  840MOL0     C10758   0.589   8.033   3.917  0.3115  0.3042 -0.7414
  840MOL0     C10759   0.442   8.084   3.922  1.2966  0.4313  0.4149
  840MOL0     C10760   0.356   8.053   3.792 -0.3468  0.0935 -0.5109
  840MOL0     C10761   0.354   7.904   3.745 -1.0225  0.1077 -0.3532
  840MOL0     C10762   0.290   7.894   3.611 -0.5107  0.0906 -0.2388
  840MOL0     C10763   0.270   7.749   3.557 -1.1068  0.1602 -0.8082
  840MOL0     C10764   0.402   7.702   3.484  0.8523 -0.7425 -0.1675
  840MOL0     N10765   0.406   7.752   3.351  0.1287  0.2371 -0.6875
  840MOL0     C10766   0.507   7.820   3.293  0.1725 -0.3594 -0.7484
  840MOL0     C10767   0.500   7.798   3.158 -0.0979  0.0499 -0.4402
  840MOL0     C10768   0.596   7.842   3.059 -0.2026 -0.1178 -0.1078
  840MOL0     C10769   0.573   7.991   3.018 -1.0094  0.9749 -0.0022
  840MOL0     C10770   0.438   8.033   2.965  0.0893 -0.3650  0.0429
  840MOL0     C10771   0.414   7.952   2.828  0.4452 -0.0523  1.1361
  840MOL0     O10772   0.293   8.008   2.764  0.2853 -0.3087  0.7173
  840MOL0     C10773   0.169   8.002   2.828  0.0319  0.8385 -0.0148
  840MOL0     C10774   0.121   7.904   2.915 -0.7522  0.0651 -1.3576
  840MOL0     C10775  -0.006   7.913   2.969 -0.1984  0.0367  0.0345
  840MOL0     C10776  -0.101   8.013   2.932  0.0714 -1.0016  0.1443
  840MOL0     C10777  -0.244   7.991   2.962 -0.6066  0.0102 -0.8258
  840MOL0     O10778  -0.329   8.082   2.907 -0.2794  0.7189 -0.2520
  840MOL0     C10779  -0.464   8.082   2.927  0.6581 -0.5038 -0.5710
  840MOL0     C10780  -0.527   8.215   2.931 -0.2337  1.6301  0.0251
  840MOL0     C10781  -0.667   8.223   2.944 -0.8024 -0.2759  0.1328
  840MOL0     C10782  -0.745   8.113   2.952  0.5264 -0.1756  0.0796
  840MOL0     O10783  -0.874   8.126   2.979 -0.0128 -0.1713  0.0132
  840MOL0     C10784  -0.968   8.013   2.970 -0.2178 -0.3271 -0.4893
  840MOL0     C10785  -0.972   7.950   3.109 -0.0439  0.6298 -0.5701
  840MOL0     C10786  -1.088   7.842   3.117 -0.3698 -0.6206  0.2071
  840MOL0     C10787  -1.057   7.730   3.235 -0.1963 -1.2023  0.0094
  840MOL0     C10788  -1.176   7.637   3.265 -0.9377 -0.1320 -0.6044
  840MOL0     C10789  -1.273   7.697   3.362  0.1077  1.2612  0.3886
  840MOL0     C10790  -1.391   7.597   3.396  1.1407 -0.2458 -0.1184
  840MOL0     C10791  -1.435   7.604   3.538  0.2363  0.8776  0.3628
  840MOL0    Cl10792  -1.529   7.756   3.593 -0.1552  0.4083 -0.1977
  840MOL0     C10793  -0.686   7.984   2.941  0.7519 -0.1430 -0.4249
  840MOL0     C10794  -0.553   7.967   2.931 -0.2749 -0.0359  0.3188
  840MOL0     O10795  -0.269   7.911   3.053 -0.0540  1.4379 -0.3768
  840MOL0     C10796  -0.054   8.116   2.848 -0.1301 -0.7647  0.4192
  840MOL0     C10797   0.086   8.116   2.814 -0.2264  0.1808 -0.2610
  840MOL0     N10798   0.387   7.730   3.135  0.7248  0.3623 -0.3012
  840MOL0     N10799   0.329   7.700   3.248 -0.2502  0.0648  0.4413
  840MOL0     C10800   0.930   8.286   3.812  0.3424  0.1857 -1.4165
  840MOL0     C10801   1.027   8.366   3.870 -0.5406  0.2504  0.4006
  840MOL0     C10802   1.286   8.600   4.144  0.4512  0.3895  0.0802
  840MOL0     C10803   1.418   8.545   4.136 -0.6538  0.6179  0.1746
  840MOL0     C10804   1.532   8.623   4.164  0.2758  0.0045 -0.8746
  840MOL0     C10805   1.514   8.765   4.177 -0.1218 -0.5473  0.1353
  840MOL0     O10806   1.623   8.855   4.170  0.0307 -0.3053 -0.0110
  840MOL0     C10807   1.757   8.806   4.183 -1.3043  0.0628 -0.2033
  840MOL0     C10808   1.853   8.930   4.195  0.8208 -0.1930 -0.6847
  840MOL0     C10809   1.882   8.993   4.061 -0.9223 -0.7063 -0.4049
  840MOL0     C10810   1.933   9.136   4.062  0.4597 -0.2752 -0.5280
  840MOL0     C10811   1.835   9.235   4.109 -1.2228  0.6051 -0.4266
  840MOL0     C10812   1.759   9.328   4.118  0.7786  0.7955  0.1098
  840MOL0     C10813   1.382   8.813   4.189  0.0392 -0.3003  0.3266
  840MOL0     C10814   1.273   8.730   4.181  0.8664 -0.1745  0.1480
  840MOL0     H10815   1.130   8.169   4.128 -1.3312 -0.1742  0.8780
  840MOL0     H10816   0.951   8.017   4.023  1.2675  0.2150  1.1763
  840MOL0     H10817   0.636   8.057   3.715  2.2901 -1.1262 -0.8071
  840MOL0     H10818   0.667   8.207   3.803 -1.6327  0.4934 -1.3796
  840MOL0     H10819   0.639   8.073   4.005 -0.5474  0.3790 -0.2814
  840MOL0     H10820   0.595   7.924   3.923  0.5889  0.3976  1.4029
  840MOL0     H10821   0.437   8.191   3.947 -0.0797  0.2262  1.1437
  840MOL0     H10822   0.379   8.031   3.994  0.2379 -2.7042 -2.5700
  840MOL0     H10823   0.257   8.084   3.826  1.4963  2.4680  3.5532
  840MOL0     H10824   0.406   8.115   3.718 -1.7405  1.4099 -0.3792
  840MOL0     H10825   0.289   7.845   3.810  0.6114 -0.8418  0.4817
  840MOL0     H10826   0.457   7.867   3.752 -0.8334  0.7500  0.4057
  840MOL0     H10827   0.346   7.956   3.541  0.3202 -0.4852 -0.0953
  840MOL0     H10828   0.192   7.942   3.616 -0.4392  0.4525 -1.9787
  840MOL0     H10829   0.233   7.692   3.642  0.5700  1.7077  1.0779
  840MOL0     H10830   0.198   7.745   3.474 -0.1371  0.9557 -1.7245
  840MOL0     H10831   0.384   7.595   3.470  1.4031 -1.0407  1.1972
  840MOL0     H10832   0.490   7.720   3.547 -1.2955  1.0943  2.5180
  840MOL0     H10833   0.593   7.871   3.337  0.3293 -1.1888 -0.0638
  840MOL0     H10834   0.584   7.778   2.972  0.9132 -1.1599  0.4715
  840MOL0     H10835   0.698   7.844   3.097  0.6647  5.2218 -1.7982
  840MOL0     H10836   0.646   8.020   2.943  0.4627  1.6288  1.6060
  840MOL0     H10837   0.598   8.050   3.107  1.1157  0.6237 -0.3116
  840MOL0     H10838   0.359   8.006   3.036  1.5545  0.2842  2.0111
  840MOL0     H10839   0.441   8.142   2.961 -0.3523 -0.2008  2.4199
  840MOL0     H10840   0.409   7.843   2.840  1.6489 -0.0432  1.9652
  840MOL0     H10841   0.503   7.975   2.770 -0.9380  2.0722 -0.2841
  840MOL0     H10842   0.178   7.820   2.951  0.8085  1.1031 -1.2941
  840MOL0     H10843  -0.031   7.827   3.030 -2.0191 -0.1721 -0.9314
  840MOL0     H10844  -0.469   8.307   2.926  0.5706  1.1011 -0.4044
  840MOL0     H10845  -0.726   8.315   2.950 -1.5753 -0.7895  0.6333
  840MOL0     H10846  -0.928   7.948   2.892  0.0373 -1.9134  0.8894
  840MOL0     H10847  -1.069   8.044   2.944 -0.1120 -1.1085 -1.9398
  840MOL0     H10848  -0.996   8.025   3.185  1.1658 -0.5032  1.0259
  840MOL0     H10849  -0.878   7.911   3.148  0.2538  2.0110  0.1572
  840MOL0     H10850  -1.091   7.784   3.024 -1.2648 -0.2140 -0.0310
  840MOL0     H10851  -1.187   7.887   3.129 -0.3143 -1.1883  4.4518
  840MOL0     H10852  -0.974   7.676   3.189 -0.7775 -0.3142 -2.2124
  840MOL0     H10853  -1.014   7.775   3.325 -2.2857  3.2845 -0.9702
  840MOL0     H10854  -1.151   7.535   3.296 -0.5262  0.2386  0.3517
  840MOL0     H10855  -1.230   7.625   3.171 -0.1128  2.2343 -1.4372
  840MOL0     H10856  -1.318   7.793   3.335 -0.0101  1.0456 -0.1942
  840MOL0     H10857  -1.215   7.722   3.451  0.9337  0.3989  0.1054
  840MOL0     H10858  -1.483   7.613   3.339  1.3203  0.5336 -0.2038
  840MOL0     H10859  -1.358   7.495   3.374  1.5915 -0.7453  2.5433
  840MOL0     H10860  -1.341   7.604   3.594 -0.0203 -1.7594  0.9545
  840MOL0     H10861  -1.478   7.510   3.574  1.8489  0.9429  2.6765
  840MOL0     H10862  -0.738   7.889   2.952 -0.5566  0.4346 -1.4007
  840MOL0     H10863  -0.504   7.870   2.929  2.2366  1.0134  3.1275
  840MOL0     H10864  -0.119   8.197   2.817  2.0374  0.4916 -1.2138
  840MOL0     H10865   0.125   8.199   2.756 -2.5879  1.1068 -0.6138
  840MOL0     H10866   0.878   8.289   3.717  0.1466 -1.2701 -1.3874
  840MOL0     H10867   1.050   8.468   3.841 -1.3568  0.6509  1.1076
  840MOL0     H10868   1.422   8.440   4.111 -0.7534  0.9068 -1.1213
  840MOL0     H10869   1.630   8.577   4.160 -0.0841 -0.8018 -0.6229
  840MOL0     H10870   1.790   8.732   4.110  4.2616  1.2072  0.6953
  840MOL0     H10871   1.760   8.755   4.280  1.6380  0.8427  0.2386
  840MOL0     H10872   1.798   9.009   4.247 -1.3202 -1.1133 -1.4463
  840MOL0     H10873   1.947   8.901   4.243 -0.0102 -2.1062 -0.1546
  840MOL0     H10874   1.791   8.993   3.999 -0.9855  0.0676 -0.3163
  840MOL0     H10875   1.951   8.926   4.009 -2.3673 -3.4779  0.9699
  840MOL0     H10876   2.024   9.149   4.121  0.6581  0.5365 -0.9974
  840MOL0     H10877   1.959   9.164   3.959  1.4982 -2.8835 -1.0502
  840MOL0     H10878   1.685   9.405   4.108 -0.3971  0.3648  3.9026
  840MOL0     H10879   1.348   8.911   4.220 -1.2696 -0.7263  0.2648
  840MOL0     H10880   1.176   8.775   4.199  0.5256 -1.5160  1.9038
  841MOL0     O10881   2.749   1.046   7.850 -0.1709  0.4905 -0.0971
  841MOL0     C10882   2.855   1.006   7.905 -0.9397 -0.4877 -0.2436
  841MOL0     O10883   2.860   0.917   8.011 -0.2610 -0.6067 -0.0605
  841MOL0     C10884   2.736   0.877   8.047 -0.2553 -0.7230 -0.4692
  841MOL0     C10885   2.681   0.762   7.991  0.2543 -0.0352  0.2530
  841MOL0     C10886   2.555   0.724   8.030  0.6463  0.3069  0.1855
  841MOL0     C10887   2.476   0.791   8.117 -0.2338 -0.3077 -0.9399
  841MOL0     O10888   2.343   0.748   8.129 -0.0448 -0.2436  0.1081
  841MOL0     C10889   2.273   0.742   8.257 -0.3830  0.1706 -0.8305
  841MOL0     C10890   2.151   0.827   8.265 -0.4081  0.6689 -0.1304
  841MOL0     C10891   2.078   0.805   8.401  0.3960 -0.0115 -0.1737
  841MOL0     C10892   1.960   0.902   8.402  1.0991  0.5943  0.6398
  841MOL0     C10893   1.819   0.842   8.372 -0.0604  0.4262  0.8446
  841MOL0     C10894   1.781   0.736   8.482  0.2753 -0.3512 -0.0765
  841MOL0     C10895   1.636   0.683   8.460 -0.6572 -0.4825 -0.0326
  841MOL0     C10896   1.537   0.802   8.473  0.3922 -0.2056  0.0578
  841MOL0     N10897   1.394   0.767   8.450  0.6193  0.1028 -0.3544
  841MOL0     C10898   1.332   0.778   8.335 -0.3661 -0.1546  0.0557
  841MOL0     C10899   1.206   0.739   8.363 -0.2195  0.6789  0.1914
  841MOL0     C10900   1.100   0.731   8.259  0.0213 -0.4680 -0.3043
  841MOL0     C10901   0.968   0.722   8.332  0.9055  0.3764 -0.0190
  841MOL0     C10902   0.844   0.754   8.254  0.0096 -0.9125  0.0471
  841MOL0     C10903   0.719   0.700   8.328 -0.1771  0.8695 -0.1865
  841MOL0     O10904   0.723   0.555   8.338 -0.3515  0.2868 -0.2537
  841MOL0     C10905   0.610   0.496   8.388  0.4406  0.7951  0.2265
  841MOL0     C10906   0.630   0.372   8.449  0.7847 -1.0629  0.4653
  841MOL0     C10907   0.534   0.291   8.495  0.2994 -0.6469 -0.7717
  841MOL0     C10908   0.401   0.326   8.460  0.3621 -0.5026 -0.6268
  841MOL0     C10909   0.285   0.241   8.507  0.0629 -0.4458  0.7351
  841MOL0     O10910   0.300   0.145   8.601 -0.4459 -0.1366  0.6817
  841MOL0     C10911   0.193   0.077   8.656  1.2854 -0.1772 -0.3687
  841MOL0     C10912   0.216   0.024   8.785  0.6463  0.1130 -0.2500
  841MOL0     C10913   0.118  -0.050   8.861  0.8388  0.7136  0.8434
  841MOL0     C10914  -0.008  -0.064   8.806 -0.5638  0.2795  0.4416
  841MOL0     O10915  -0.100  -0.146   8.870 -0.4497  0.3892 -0.0449
  841MOL0     C10916  -0.133  -0.121   9.008  0.3675  0.3912 -0.4599
  841MOL0     C10917  -0.285  -0.137   9.024  0.2074 -0.2568 -0.4616
  841MOL0     C10918  -0.324  -0.289   9.052 -0.7888 -0.3799  0.1149
  841MOL0     C10919  -0.475  -0.308   9.039  0.3216  0.5633  0.3494
  841MOL0     C10920  -0.549  -0.231   9.147  1.1461  0.4914 -0.2778
  841MOL0     C10921  -0.698  -0.273   9.177 -0.0200 -0.5338 -0.9630
  841MOL0     C10922  -0.791  -0.272   9.058  0.3622  0.4255  0.0790
  841MOL0     C10923  -0.928  -0.274   9.131 -0.0697  0.2116 -0.1259
  841MOL0    Cl10924  -1.061  -0.249   9.027  0.5221 -0.1692 -0.0241
  841MOL0     C10925  -0.034  -0.024   8.674  1.2341  0.1819 -0.0888
  841MOL0     C10926   0.060   0.052   8.604 -0.3753 -0.1852  0.2204
  841MOL0     O10927   0.179   0.277   8.455  0.0094 -0.3051  0.3273
  841MOL0     C10928   0.380   0.434   8.380  0.0374  0.2287 -0.7602
  841MOL0     C10929   0.481   0.519   8.344 -1.1303 -0.3460  0.1281
  841MOL0     N10930   1.193   0.702   8.494  0.1128  0.0395  0.2377
  841MOL0     N10931   1.313   0.707   8.544 -0.0952 -0.1396 -1.5295
  841MOL0     C10932   2.537   0.898   8.181 -0.6090 -0.5893 -0.0912
  841MOL0     C10933   2.666   0.941   8.144  0.9525 -0.1438 -0.1594
  841MOL0     C10934   2.980   1.067   7.853 -0.5600 -0.0461 -0.2356
  841MOL0     C10935   3.104   1.042   7.923 -0.1115 -0.7234 -0.6400
  841MOL0     C10936   3.227   1.081   7.866 -1.1078 -0.2141  1.2007
  841MOL0     C10937   3.229   1.155   7.743 -0.1587 -0.1013  0.3338
  841MOL0     O10938   3.337   1.209   7.680 -0.5992  0.2997 -0.1228
  841MOL0     C10939   3.423   1.286   7.758 -0.3513 -1.4727  0.7728
  841MOL0     C10940   3.562   1.327   7.691 -0.5428  0.1989  0.3241
  841MOL0     C10941   3.648   1.414   7.782  0.1867 -0.0393 -0.1519
  841MOL0     C10942   3.737   1.328   7.873 -0.0941  0.7058 -0.2295
  841MOL0     C10943   3.668   1.275   7.992 -0.5067 -1.0988 -0.7197
  841MOL0     C10944   3.617   1.211   8.079 -0.2123 -0.3229  0.4509
  841MOL0     C10945   3.109   1.190   7.680  0.5457  0.2738  0.7321
  841MOL0     C10946   2.985   1.136   7.734  0.3143  1.0652  0.4532
  841MOL0     H10947   2.741   0.709   7.918  0.8366  1.0921 -0.1157
  841MOL0     H10948   2.520   0.637   7.975 -0.1214  1.4571 -1.2391
  841MOL0     H10949   2.347   0.769   8.333 -0.3005  3.0552 -1.8189
  841MOL0     H10950   2.227   0.643   8.267 -0.5185  0.0701 -2.2674
  841MOL0     H10951   2.074   0.795   8.194  0.9397 -0.4883 -1.1264
  841MOL0     H10952   2.181   0.932   8.255 -2.6856  1.3182 -0.7413
  841MOL0     H10953   2.143   0.834   8.484  0.3594  0.0910 -0.1807
  841MOL0     H10954   2.038   0.708   8.430 -0.1600  0.9034  2.3938
  841MOL0     H10955   1.961   0.955   8.498  0.1218  1.2112  0.3258
  841MOL0     H10956   1.959   0.977   8.322 -1.2544  2.1146  1.9827
  841MOL0     H10957   1.816   0.793   8.275  4.2580 -0.0493  0.7440
  841MOL0     H10958   1.749   0.925   8.373 -0.5376  0.0906  3.3208
  841MOL0     H10959   1.786   0.782   8.581  0.2730 -0.7667  0.1221
  841MOL0     H10960   1.851   0.652   8.474 -1.1165 -1.5920  0.4491
  841MOL0     H10961   1.627   0.628   8.367 -0.2105 -2.6456  1.1420
  841MOL0     H10962   1.611   0.614   8.541 -1.9189  1.6616  1.5122
  841MOL0     H10963   1.563   0.883   8.404 -2.3593 -0.6312 -1.6373
  841MOL0     H10964   1.535   0.846   8.573  0.8970 -2.2261  1.0086
  841MOL0     H10965   1.370   0.807   8.238 -0.4950 -0.9609 -0.2477
  841MOL0     H10966   1.106   0.639   8.199 -1.5837 -1.1963  0.5994
  841MOL0     H10967   1.109   0.819   8.195 -0.1521  0.5611  1.0470
  841MOL0     H10968   0.964   0.776   8.427 -2.7795 -2.4236  1.6948
  841MOL0     H10969   0.960   0.616   8.357  1.5025  0.0296 -1.2508
  841MOL0     H10970   0.836   0.863   8.251 -2.2739 -1.0395 -0.4596
  841MOL0     H10971   0.849   0.700   8.159 -3.7091 -2.9989  0.8314
  841MOL0     H10972   0.626   0.740   8.286 -0.4359 -1.0673 -1.5731
  841MOL0     H10973   0.732   0.740   8.429  3.2973 -0.4889  0.0540
  841MOL0     H10974   0.730   0.334   8.468  1.1549  0.5171  1.9637
  841MOL0     H10975   0.571   0.202   8.546  2.0996 -0.5372 -1.8360
  841MOL0     H10976   0.316   0.039   8.826  0.6588  0.8583 -0.5367
  841MOL0     H10977   0.143  -0.096   8.956  1.5694 -1.2332 -0.2440
  841MOL0     H10978  -0.107  -0.019   9.038 -0.7040  0.6072 -0.2450
  841MOL0     H10979  -0.078  -0.198   9.063  0.9920  0.6368 -0.7361
  841MOL0     H10980  -0.328  -0.094   8.933  1.5249  3.3900  0.4694
  841MOL0     H10981  -0.329  -0.081   9.107  0.3838 -2.1113  0.9623
  841MOL0     H10982  -0.292  -0.316   9.154  0.1376  0.0840 -0.0362
  841MOL0     H10983  -0.274  -0.359   8.984 -3.4948 -1.7593 -0.6031
  841MOL0     H10984  -0.512  -0.281   8.939 -1.9943  1.2074  1.3207
  841MOL0     H10985  -0.487  -0.416   9.047  2.2760  0.1565 -1.2061
  841MOL0     H10986  -0.559  -0.131   9.104  2.5515  1.4208  1.4295
  841MOL0     H10987  -0.497  -0.214   9.242  0.4051  0.3599  0.1603
  841MOL0     H10988  -0.734  -0.210   9.260 -1.2671 -0.6529 -1.3845
  841MOL0     H10989  -0.701  -0.372   9.223 -0.8462  1.0892  2.9025
  841MOL0     H10990  -0.786  -0.180   9.000  1.5473  0.6644  0.5258
  841MOL0     H10991  -0.776  -0.359   8.994  0.2965  0.4675  0.0083
  841MOL0     H10992  -0.940  -0.183   9.191 -1.8208  0.0229 -0.1356
  841MOL0     H10993  -0.939  -0.365   9.190 -0.9318 -0.1612 -0.8387
  841MOL0     H10994  -0.128  -0.056   8.629  1.8799 -0.4212 -1.0412
  841MOL0     H10995   0.032   0.093   8.508 -3.9209 -0.6501  0.9221
  841MOL0     H10996   0.278   0.456   8.349 -0.8463 -1.2570  0.8974
  841MOL0     H10997   0.451   0.598   8.276 -0.9088 -1.5365 -1.3863
  841MOL0     H10998   2.490   0.961   8.256 -0.2988 -2.1937  1.5163
  841MOL0     H10999   2.699   1.034   8.188 -1.8935 -0.8118  4.0136
  841MOL0     H11000   3.114   0.987   8.016  0.1521  0.2267 -0.0849
  841MOL0     H11001   3.320   1.072   7.922 -0.6415  0.9062  0.6450
  841MOL0     H11002   3.450   1.225   7.845 -1.1688 -3.8221 -0.5278
  841MOL0     H11003   3.381   1.384   7.785  1.9157 -0.5475  1.2076
  841MOL0     H11004   3.624   1.242   7.663  0.7841  0.5545  1.9998
  841MOL0     H11005   3.527   1.392   7.610  1.1210  3.1490  1.7979
  841MOL0     H11006   3.586   1.488   7.833 -3.7564 -1.4997 -2.3746
  841MOL0     H11007   3.709   1.482   7.723 -0.0383  1.1017  0.8753
  841MOL0     H11008   3.786   1.247   7.818 -0.7583  1.1992 -1.6001
  841MOL0     H11009   3.817   1.390   7.914  0.4351  0.6697 -1.1930
  841MOL0     H11010   3.568   1.143   8.146  0.7022 -1.4319  0.0269
  841MOL0     H11011   3.109   1.264   7.600 -0.0415  1.4212  1.7565
  841MOL0     H11012   2.890   1.149   7.681 -0.0761 -0.5240  0.6980
  842MOL0     O11013   5.006   3.897   7.034 -0.2038  0.8917 -0.2644
  842MOL0     C11014   5.074   3.981   6.970 -0.4700  0.2885  0.8347
  842MOL0     O11015   5.058   4.014   6.836 -0.2776  0.1612 -0.1855
  842MOL0     C11016   4.941   3.959   6.779  0.4351 -0.4814 -0.4314
  842MOL0     C11017   4.938   3.845   6.704 -0.4230 -0.6329 -0.9784
  842MOL0     C11018   4.818   3.805   6.652 -0.7128 -0.1707 -0.3810
  842MOL0     C11019   4.699   3.870   6.678 -0.5637 -0.5909  0.4497
  842MOL0     O11020   4.573   3.830   6.640 -1.0322  0.4729 -0.4005
  842MOL0     C11021   4.569   3.697   6.580  0.8201 -0.3008 -0.2236
  842MOL0     C11022   4.421   3.655   6.546 -1.0529  0.4237 -0.2898
  842MOL0     C11023   4.380   3.728   6.416 -0.3711  0.6234  0.2211
  842MOL0     C11024   4.238   3.672   6.389  0.2287  0.5194 -0.0838
  842MOL0     C11025   4.189   3.713   6.254  0.5306  0.5630  0.7228
  842MOL0     C11026   4.032   3.705   6.242 -0.5111  0.2014 -0.1129
  842MOL0     C11027   3.985   3.739   6.100 -0.5870  0.0027  0.2018
  842MOL0     C11028   3.828   3.741   6.089 -0.0640  0.4118  1.0326
  842MOL0     N11029   3.772   3.620   6.145 -0.4747  0.7302 -0.8783
  842MOL0     C11030   3.667   3.621   6.231  0.7285 -0.4641  0.0959
  842MOL0     C11031   3.624   3.493   6.245 -0.5860 -0.2762  0.7558
  842MOL0     C11032   3.506   3.455   6.322  0.6460 -0.0878  0.6016
  842MOL0     C11033   3.386   3.437   6.223  0.8008 -0.3000  0.2682
  842MOL0     C11034   3.346   3.571   6.157  0.5454  0.7825  0.9741
  842MOL0     C11035   3.204   3.573   6.102 -0.9028  0.8170 -0.3291
  842MOL0     O11036   3.181   3.469   6.002 -0.6542  0.2489  0.0712
  842MOL0     C11037   3.063   3.473   5.934 -0.5538 -0.3937  0.2427
  842MOL0     C11038   3.050   3.388   5.827  0.2653 -0.0557 -0.2552
  842MOL0     C11039   2.941   3.368   5.745 -0.0927 -0.4731 -0.2186
  842MOL0     C11040   2.832   3.461   5.758  0.1317 -0.4013  0.0072
  842MOL0     C11041   2.697   3.459   5.685  0.0167  0.2652 -0.1303
  842MOL0     O11042   2.599   3.555   5.708  0.2313  0.1481 -0.1302
  842MOL0     C11043   2.491   3.560   5.614 -0.3246  0.0715 -0.1579
  842MOL0     C11044   2.366   3.544   5.667  0.5179  0.1609 -0.7771
  842MOL0     C11045   2.256   3.531   5.589  0.0107  0.8344  0.8829
  842MOL0     C11046   2.259   3.537   5.446  0.0102  0.9043 -0.3708
  842MOL0     O11047   2.162   3.499   5.358  0.0074  0.4566 -0.7170
  842MOL0     C11048   2.044   3.441   5.412  0.1339 -0.0812 -0.4259
  842MOL0     C11049   1.959   3.382   5.298  0.8477 -0.7144  0.5469
  842MOL0     C11050   1.854   3.273   5.338 -0.2427 -0.3541  0.6831
  842MOL0     C11051   1.767   3.314   5.457 -0.6441  0.1773 -0.7969
  842MOL0     C11052   1.638   3.231   5.445 -0.6876  0.0729  0.4670
  842MOL0     C11053   1.538   3.285   5.549  0.1371  0.9351  0.0621
  842MOL0     C11054   1.402   3.220   5.519 -0.1356 -0.7965 -0.3045
  842MOL0     C11055   1.318   3.215   5.655  0.1137 -0.4198  0.0033
  842MOL0    Cl11056   1.178   3.101   5.619  0.0696 -0.4404  0.0657
  842MOL0     C11057   2.383   3.568   5.393  0.1200  0.3225 -0.3141
  842MOL0     C11058   2.498   3.585   5.473 -0.6294 -0.1272 -0.1400
  842MOL0     O11059   2.691   3.373   5.601  0.7469  0.3957 -0.1286
  842MOL0     C11060   2.841   3.559   5.858  0.1912  0.2226 -0.5613
  842MOL0     C11061   2.951   3.564   5.937 -0.7924 -0.6432  0.5536
  842MOL0     N11062   3.703   3.417   6.165  0.0950  0.5309  0.1027
  842MOL0     N11063   3.790   3.488   6.106 -1.2790 -0.5868  0.0003
  842MOL0     C11064   4.704   3.988   6.745 -0.0407 -0.8335 -0.0271
  842MOL0     C11065   4.826   4.036   6.794 -0.6356 -0.5418  0.6968
  842MOL0     C11066   5.188   4.044   7.037 -0.2783 -0.3069 -0.4048
  842MOL0     C11067   5.226   4.013   7.170 -0.1213 -0.4821 -0.3890
  842MOL0     C11068   5.335   4.082   7.226  0.5137 -0.7145  0.4130
  842MOL0     C11069   5.423   4.160   7.155  0.3662  0.5090 -0.2312
  842MOL0     O11070   5.525   4.221   7.229  0.4731  0.2603  0.1445
  842MOL0     C11071   5.637   4.281   7.158  0.8682  0.6319  0.7536
  842MOL0     C11072   5.749   4.289   7.258  0.6507 -0.4941  0.4481
  842MOL0     C11073   5.870   4.333   7.183 -0.3674 -0.5493 -1.3622
  842MOL0     C11074   5.985   4.338   7.292 -0.1435 -0.1690 -0.2723
  842MOL0     C11075   5.994   4.466   7.366 -0.6031  0.1354 -0.1241
  842MOL0     C11076   5.984   4.564   7.437 -0.5422 -0.6634  0.3993
  842MOL0     C11077   5.399   4.179   7.016 -0.8020 -0.5678  0.7095
  842MOL0     C11078   5.284   4.121   6.963  0.9688  0.0843 -0.0345
  842MOL0     H11079   5.032   3.796   6.683  0.3932  0.6001 -0.3182
  842MOL0     H11080   4.819   3.715   6.591  0.7450  1.0390 -2.2284
  842MOL0     H11081   4.606   3.619   6.648 -0.8992 -0.4353  0.6285
  842MOL0     H11082   4.625   3.703   6.486 -0.6042  1.2557 -1.0048
  842MOL0     H11083   4.351   3.681   6.626 -0.1446 -3.5043  2.0207
  842MOL0     H11084   4.417   3.546   6.538 -2.7340  0.4843 -0.6698
  842MOL0     H11085   4.449   3.697   6.337  0.2002  1.2442  0.4675
  842MOL0     H11086   4.389   3.836   6.425  2.2730  0.3836  1.2969
  842MOL0     H11087   4.221   3.565   6.401 -4.0306  1.2454  2.3879
  842MOL0     H11088   4.177   3.711   6.471 -1.1922 -0.9058 -0.3971
  842MOL0     H11089   4.227   3.642   6.179  0.2910  1.8439 -0.6659
  842MOL0     H11090   4.234   3.810   6.231  0.4798  0.5363  0.5039
  842MOL0     H11091   3.995   3.774   6.318 -0.0099  0.4344 -0.0757
  842MOL0     H11092   3.997   3.605   6.269 -4.2121  2.4196  4.8245
  842MOL0     H11093   4.034   3.828   6.059 -0.3683 -0.0572  0.3265
  842MOL0     H11094   4.010   3.654   6.035 -0.2100 -3.8835  4.8309
  842MOL0     H11095   3.805   3.741   5.982  2.2285 -3.7131  0.3109
  842MOL0     H11096   3.802   3.830   6.146 -0.0089  1.7468 -0.9208
  842MOL0     H11097   3.612   3.705   6.270  0.1596 -1.2562  1.0395
  842MOL0     H11098   3.488   3.530   6.399  2.5014  0.4441  0.5540
  842MOL0     H11099   3.519   3.358   6.371  0.5601 -0.7133 -0.5740
  842MOL0     H11100   3.298   3.392   6.270 -0.2537 -0.4200 -1.7041
  842MOL0     H11101   3.411   3.361   6.148 -0.1871 -0.0224 -0.3640
  842MOL0     H11102   3.367   3.655   6.224  2.3642  0.2556  1.1062
  842MOL0     H11103   3.407   3.591   6.069  1.0831  0.0997  1.1795
  842MOL0     H11104   3.189   3.667   6.048  2.5964  1.3400 -0.6518
  842MOL0     H11105   3.124   3.556   6.174 -0.7419 -2.2743 -0.7393
  842MOL0     H11106   3.137   3.324   5.817  2.6108  1.7399  5.3193
  842MOL0     H11107   2.945   3.290   5.669  0.7115 -0.6792  0.0267
  842MOL0     H11108   2.350   3.525   5.773 -0.7609  4.4373 -0.0162
  842MOL0     H11109   2.154   3.506   5.617 -0.0068  0.6490  0.6570
  842MOL0     H11110   1.980   3.509   5.469 -0.2321  1.0401 -2.0910
  842MOL0     H11111   2.077   3.360   5.477 -1.6760 -0.0118  0.6579
  842MOL0     H11112   2.025   3.337   5.224 -1.7809 -2.7417 -0.7529
  842MOL0     H11113   1.910   3.463   5.243  0.9563 -1.5389 -0.8047
  842MOL0     H11114   1.911   3.184   5.366 -0.3866 -1.2721 -1.7402
  842MOL0     H11115   1.799   3.255   5.245  0.1012 -1.1090  0.6148
  842MOL0     H11116   1.823   3.306   5.552  0.5578 -1.0966 -1.5720
  842MOL0     H11117   1.737   3.419   5.459  0.8419  0.6274  0.7091
  842MOL0     H11118   1.663   3.124   5.450  0.4179  0.2917 -0.0004
  842MOL0     H11119   1.596   3.252   5.346 -0.9711  1.5004  0.8645
  842MOL0     H11120   1.524   3.393   5.544 -2.8704  0.6044 -0.0602
  842MOL0     H11121   1.566   3.251   5.649 -0.3197  2.0206  0.5723
  842MOL0     H11122   1.340   3.275   5.447 -1.3875  0.3708  1.5820
  842MOL0     H11123   1.423   3.121   5.477  1.8783  0.0275 -1.4006
  842MOL0     H11124   1.283   3.316   5.679 -1.7745 -0.9699 -0.3000
  842MOL0     H11125   1.367   3.172   5.743  0.0198  0.3472  0.4385
  842MOL0     H11126   2.391   3.555   5.286 -0.0962  2.5570 -0.6618
  842MOL0     H11127   2.591   3.614   5.426  0.0322  1.4457  2.0006
  842MOL0     H11128   2.764   3.633   5.875 -0.7068 -1.3022  2.7262
  842MOL0     H11129   2.973   3.644   6.006 -3.7027  1.6681 -0.9651
  842MOL0     H11130   4.603   4.026   6.756 -1.1724 -2.9777 -2.0113
  842MOL0     H11131   4.827   4.128   6.852 -1.0097 -0.7406  1.0303
  842MOL0     H11132   5.165   3.951   7.234 -0.1714 -0.5946 -0.5462
  842MOL0     H11133   5.347   4.084   7.333 -3.5882 -2.6113  1.0944
  842MOL0     H11134   5.618   4.378   7.111 -1.2767 -0.6037 -1.1786
  842MOL0     H11135   5.669   4.205   7.085 -0.6018 -2.5174  3.1308
  842MOL0     H11136   5.713   4.360   7.332 -1.3457 -0.8025 -0.1613
  842MOL0     H11137   5.763   4.193   7.307  0.0769 -1.6868 -1.6042
  842MOL0     H11138   5.856   4.430   7.136 -0.5153  2.2593  3.7112
  842MOL0     H11139   5.896   4.260   7.106 -1.3082 -0.5005 -1.7362
  842MOL0     H11140   5.967   4.259   7.367  0.4019 -0.2700 -0.2445
  842MOL0     H11141   6.076   4.312   7.237  0.3089 -0.9329  0.7948
  842MOL0     H11142   5.979   4.647   7.506 -2.6025 -1.1857  0.9248
  842MOL0     H11143   5.467   4.229   6.948  1.5746  0.4555  3.6669
  842MOL0     H11144   5.262   4.137   6.858  1.0265  2.0252  0.2141
  843MOL0     O11145  10.402   4.172  10.172  0.3276  0.8801  0.4005
  843MOL0     C11146  10.417   4.054  10.214 -0.3245 -0.1158  0.0090
  843MOL0     O11147  10.313   3.984  10.274 -0.5240 -0.0399 -0.1450
  843MOL0     C11148  10.188   4.035  10.295  0.2572 -0.5597  0.2765
  843MOL0     C11149  10.155   4.087  10.423 -0.3028  0.0187 -0.2506
  843MOL0     C11150  10.025   4.137  10.456 -0.3543 -0.8333  0.5530
  843MOL0     C11151   9.930   4.128  10.346  0.2761 -0.6013  0.4997
  843MOL0     O11152   9.797   4.163  10.347 -0.7284  0.7602 -0.9003
  843MOL0     C11153   9.721   4.226  10.448 -0.5416  0.6332 -0.7787
  843MOL0     C11154   9.563   4.229  10.423 -0.1670 -0.1779  0.0211
  843MOL0     C11155   9.507   4.099  10.368 -0.8251  0.5370 -0.4669
  843MOL0     C11156   9.508   3.985  10.469 -0.2883 -0.1984  0.1879
  843MOL0     C11157   9.460   3.853  10.411  0.4653  0.4451  0.1303
  843MOL0     C11158   9.310   3.842  10.427  0.2236  0.4657 -0.2273
  843MOL0     C11159   9.247   3.704  10.381  0.2962 -0.6701  0.4017
  843MOL0     C11160   9.103   3.681  10.436  1.5287  0.4486 -1.0053
  843MOL0     N11161   9.056   3.547  10.389  0.2098  0.1568  0.4490
  843MOL0     C11162   9.034   3.428  10.462  0.3125 -0.8468 -0.1700
  843MOL0     C11163   8.989   3.341  10.359 -0.1573  0.5134  0.3774
  843MOL0     C11164   8.949   3.191  10.377  0.1518  0.3760  0.7053
  843MOL0     C11165   8.793   3.169  10.368  0.6808 -0.0250  0.1868
  843MOL0     C11166   8.729   3.224  10.245  0.6918 -0.6107 -0.1225
  843MOL0     C11167   8.579   3.192  10.239 -0.3212  0.2353 -0.2851
  843MOL0     O11168   8.574   3.049  10.202 -0.2959 -0.0604 -0.5263
  843MOL0     C11169   8.446   2.994  10.194 -0.9498 -0.4365 -0.2292
  843MOL0     C11170   8.451   2.853  10.178 -0.3228  0.6294  0.1571
  843MOL0     C11171   8.333   2.780  10.196 -0.3633 -0.7634  0.4199
  843MOL0     C11172   8.210   2.858  10.206 -0.0676  0.2630  0.0518
  843MOL0     C11173   8.080   2.792  10.203 -0.0870  0.2274  1.1992
  843MOL0     O11174   7.974   2.879  10.216 -0.2288 -0.1721  0.3885
  843MOL0     C11175   7.845   2.835  10.204  0.2215 -0.4322 -0.5002
  843MOL0     C11176   7.755   2.905  10.287 -0.6613  0.4381 -0.5663
  843MOL0     C11177   7.619   2.891  10.264 -0.5328 -0.6728 -0.6145
  843MOL0     C11178   7.577   2.802  10.158 -0.2423 -0.4985  0.3753
  843MOL0     O11179   7.439   2.797  10.140 -0.1475  0.2177  0.6025
  843MOL0     C11180   7.397   2.725  10.027 -0.2096  0.8727  0.2782
  843MOL0     C11181   7.245   2.726  10.006 -1.4052 -0.3673  0.6406
  843MOL0     C11182   7.169   2.675  10.122  0.0378  0.2397 -1.0297
  843MOL0     C11183   7.022   2.677  10.093  0.0433  0.1257 -0.1801
  843MOL0     C11184   6.953   2.643  10.232 -0.8298 -0.2184  0.7144
  843MOL0     C11185   6.801   2.644  10.216 -0.0561 -0.0560  0.2293
  843MOL0     C11186   6.746   2.605  10.352  0.4297 -0.1595  0.0997
  843MOL0     C11187   6.592   2.603  10.341  0.1554 -0.3474 -0.0162
  843MOL0    Cl11188   6.534   2.770  10.284  0.2047 -0.0405  0.2368
  843MOL0     C11189   7.669   2.735  10.076 -0.8804 -0.5615 -0.6092
  843MOL0     C11190   7.803   2.750  10.108 -0.8949  0.5309 -0.5318
  843MOL0     O11191   8.073   2.666  10.209  0.4090  0.2219 -0.3237
  843MOL0     C11192   8.206   3.005  10.210 -0.0590  1.3365  0.2601
  843MOL0     C11193   8.329   3.068  10.218 -0.3155  0.0667  0.4349
  843MOL0     N11194   8.995   3.409  10.238 -0.2486 -0.0611  0.1480
  843MOL0     N11195   9.027   3.527  10.257  0.1272 -0.0265 -0.2879
  843MOL0     C11196   9.961   4.074  10.220 -0.1749  0.3639 -0.3284
  843MOL0     C11197  10.093   4.036  10.195  0.1827  0.3594 -0.0319
  843MOL0     C11198  10.553   3.995  10.204  0.1534  0.1449  0.2917
  843MOL0     C11199  10.668   4.062  10.177 -0.3164 -0.2656 -0.1003
  843MOL0     C11200  10.789   4.002  10.167  0.7220  0.4966 -0.0883
  843MOL0     C11201  10.801   3.863  10.172  0.1968  0.3181  0.4676
  843MOL0     O11202  10.917   3.792  10.150 -0.9289 -0.1437 -0.9088
  843MOL0     C11203  11.041   3.861  10.122 -1.1142 -0.0549  0.1025
  843MOL0     C11204  11.138   3.774  10.035 -0.4089  0.2435 -0.2130
  843MOL0     C11205  11.275   3.834  10.021 -0.3070 -1.0867  1.1885
  843MOL0     C11206  11.372   3.732   9.961  0.5931 -1.0393 -0.9390
  843MOL0     C11207  11.484   3.808   9.919 -0.6951  0.0627  0.3272
  843MOL0     C11208  11.579   3.871   9.873  0.3226  0.7797  1.3162
  843MOL0     C11209  10.680   3.789  10.174 -0.1452  0.6741 -0.6338
  843MOL0     C11210  10.558   3.850  10.200 -0.2059 -1.3161 -0.3647
  843MOL0     H11211  10.229   4.101  10.502 -0.0251  0.5401 -0.5892
  843MOL0     H11212  10.001   4.177  10.554 -3.3952 -2.0331  0.4166
  843MOL0     H11213   9.746   4.332  10.463 -1.9811  1.0718 -1.2948
  843MOL0     H11214   9.729   4.165  10.539 -1.7738 -1.6417 -2.1140
  843MOL0     H11215   9.553   4.317  10.360  2.2067  0.5926  0.6229
  843MOL0     H11216   9.513   4.251  10.518 -2.0025  2.3975 -1.4311
  843MOL0     H11217   9.566   4.068  10.281  1.5672  2.9908  0.1725
  843MOL0     H11218   9.401   4.112  10.344 -0.3819  0.8576 -2.4556
  843MOL0     H11219   9.613   3.966  10.495 -0.7826 -1.7645  1.1934
  843MOL0     H11220   9.455   4.017  10.559  0.7362  1.1289  0.3573
  843MOL0     H11221   9.514   3.768  10.455 -0.6443  0.9267  2.5896
  843MOL0     H11222   9.477   3.841  10.303 -0.0761  0.0481  0.0802
  843MOL0     H11223   9.281   3.923  10.361 -0.1312 -0.4716 -1.2449
  843MOL0     H11224   9.295   3.859  10.534 -1.2419  0.3609 -0.3970
  843MOL0     H11225   9.237   3.706  10.272 -2.0077  0.1194  0.5784
  843MOL0     H11226   9.321   3.628  10.410  3.3146  0.8864 -2.4956
  843MOL0     H11227   9.024   3.752  10.413 -0.0015 -0.0664  2.1470
  843MOL0     H11228   9.094   3.686  10.545 -0.8337 -0.5678 -1.0892
  843MOL0     H11229   9.060   3.406  10.565 -0.4866  0.4097  0.3154
  843MOL0     H11230   8.985   3.153  10.473  0.2550 -2.0434 -0.2234
  843MOL0     H11231   8.990   3.133  10.294  1.2488 -2.5432  3.1202
  843MOL0     H11232   8.763   3.221  10.460  0.6087  1.7361 -0.7983
  843MOL0     H11233   8.771   3.063  10.379 -1.4421  0.1655 -1.6078
  843MOL0     H11234   8.738   3.332  10.260  3.3541 -0.8434  0.2763
  843MOL0     H11235   8.786   3.191  10.158 -0.3134 -1.5570 -0.4439
  843MOL0     H11236   8.535   3.262  10.167 -1.8134  0.3743  0.7258
  843MOL0     H11237   8.528   3.219  10.332  0.7736 -1.6203  0.9263
  843MOL0     H11238   8.548   2.811  10.153  0.0557  1.7661 -0.3554
  843MOL0     H11239   8.348   2.672  10.186  1.6952 -0.5320  0.4426
  843MOL0     H11240   7.793   2.988  10.345  1.5156 -2.6242  2.8181
  843MOL0     H11241   7.553   2.968  10.301  2.3577  1.0297  1.4158
  843MOL0     H11242   7.433   2.623  10.035  3.3316  2.1399  2.9187
  843MOL0     H11243   7.439   2.773   9.938 -2.5898  0.3540 -1.2391
  843MOL0     H11244   7.231   2.666   9.915  3.4314  2.9025 -2.7760
  843MOL0     H11245   7.219   2.829   9.978 -1.5625 -0.9139 -1.4436
  843MOL0     H11246   7.193   2.743  10.204 -0.8672  1.2580 -1.5804
  843MOL0     H11247   7.205   2.574  10.145  1.2192  0.6016 -1.2006
  843MOL0     H11248   6.977   2.771  10.060  0.3025  0.1925 -0.3397
  843MOL0     H11249   6.998   2.603  10.016 -2.3074  0.3509  0.2454
  843MOL0     H11250   6.994   2.717  10.302  0.0790  0.1434 -0.1760
  843MOL0     H11251   6.970   2.537  10.254 -2.6560 -0.4127  1.3768
  843MOL0     H11252   6.764   2.577  10.138  1.1453 -0.6724  0.1689
  843MOL0     H11253   6.772   2.746  10.191  0.4896  0.2986  0.9945
  843MOL0     H11254   6.791   2.510  10.381  1.5037  0.4525  0.5351
  843MOL0     H11255   6.767   2.690  10.419 -2.9186  0.3991  0.6068
  843MOL0     H11256   6.549   2.583  10.439 -1.9757  0.8265 -0.6460
  843MOL0     H11257   6.561   2.525  10.271 -1.5791 -0.9752  1.4023
  843MOL0     H11258   7.648   2.664   9.996  0.0573 -0.3370 -1.0615
  843MOL0     H11259   7.879   2.704  10.046 -0.5671  2.2630 -1.4837
  843MOL0     H11260   8.120   3.070  10.221 -1.1876 -0.2258  0.8798
  843MOL0     H11261   8.329   3.176  10.227  3.3325  0.2232 -0.0497
  843MOL0     H11262   9.897   4.077  10.133 -0.4578 -0.5955 -0.1628
  843MOL0     H11263  10.113   4.021  10.090 -4.9186  1.7706 -1.5094
  843MOL0     H11264  10.658   4.169  10.158 -2.8123 -0.2876  0.6797
  843MOL0     H11265  10.866   4.076  10.146 -1.6403  2.6729 -1.8411
  843MOL0     H11266  11.098   3.890  10.211  0.1482 -0.2044 -0.6377
  843MOL0     H11267  11.015   3.950  10.064  3.1991  0.3775 -1.4712
  843MOL0     H11268  11.153   3.681  10.089  0.4621 -0.3208 -1.3994
  843MOL0     H11269  11.094   3.744   9.939  0.8653 -1.1604 -0.3891
  843MOL0     H11270  11.311   3.867  10.118 -1.1822  2.2864  0.4988
  843MOL0     H11271  11.274   3.921   9.954  0.0614 -1.7661  0.2757
  843MOL0     H11272  11.402   3.649  10.026  1.8938 -1.3747 -1.9224
  843MOL0     H11273  11.319   3.668   9.889  1.2681 -2.0449 -0.5569
  843MOL0     H11274  11.679   3.905   9.854 -0.0920  0.3881 -2.3519
  843MOL0     H11275  10.686   3.681  10.166  1.6522  0.8170 -1.5932
  843MOL0     H11276  10.474   3.780  10.202 -0.8662 -0.5468 -0.8023
  844MOL0     O11277  10.370  10.223   4.735 -0.5809  0.1768 -0.0404
  844MOL0     C11278  10.364  10.209   4.857  0.5462 -0.3830  0.0823
  844MOL0     O11279  10.470  10.254   4.938 -0.2064  0.7308 -0.1966
  844MOL0     C11280  10.575  10.322   4.874 -0.5988 -0.0492  0.5865
  844MOL0     C11281  10.557  10.452   4.813 -0.3399  1.5719 -0.3054
  844MOL0     C11282  10.663  10.511   4.754 -0.2983 -0.2655  0.2723
  844MOL0     C11283  10.795  10.458   4.755  1.0846 -0.5980  0.1390
  844MOL0     O11284  10.903  10.514   4.682 -0.0268  0.6002  0.4908
  844MOL0     C11285  10.886  10.633   4.606  0.1683 -0.2738 -0.2523
  844MOL0     C11286  11.022  10.679   4.557  0.6769 -0.7385 -0.1253
  844MOL0     C11287  11.125  10.700   4.662  0.4939 -0.4858 -0.0946
  844MOL0     C11288  11.249  10.763   4.603  0.3240  0.2064 -0.0758
  844MOL0     C11289  11.353  10.781   4.712 -0.0196 -0.1421  0.8926
  844MOL0     C11290  11.435  10.908   4.687  1.1501 -0.5591  0.8737
  844MOL0     C11291  11.538  10.947   4.790  0.3864 -0.4648  0.8251
  844MOL0     C11292  11.566  11.102   4.788 -0.1568 -0.7534  0.4396
  844MOL0     N11293  11.452  11.202   4.815 -0.0868  0.6550 -0.6830
  844MOL0     C11294  11.361  11.195   4.923 -0.1515 -0.7022  0.2191
  844MOL0     C11295  11.278  11.300   4.900 -0.0426  0.4329  0.0880
  844MOL0     C11296  11.158  11.340   4.983  0.8039  0.2448 -1.0709
  844MOL0     C11297  11.130  11.257   5.113 -0.1981  0.8101  0.4534
  844MOL0     C11298  11.005  11.294   5.187 -0.6272 -0.6355  0.6320
  844MOL0     C11299  11.002  11.215   5.316  0.4361  0.7316 -0.6769
  844MOL0     O11300  10.952  11.082   5.299 -0.0898 -0.1399  0.2514
  844MOL0     C11301  10.812  11.065   5.295 -0.2468 -0.3112  0.3223
  844MOL0     C11302  10.769  10.933   5.289  0.2221 -0.5813 -0.5236
  844MOL0     C11303  10.639  10.894   5.317 -0.2037 -0.4105 -0.5434
  844MOL0     C11304  10.540  10.992   5.342  0.6613  0.2105  0.1021
  844MOL0     C11305  10.397  10.968   5.362  0.2003 -0.3139  0.5746
  844MOL0     O11306  10.301  11.056   5.313  0.3839 -0.4751 -0.2348
  844MOL0     C11307  10.164  11.035   5.328 -0.2901  0.5659  0.2188
  844MOL0     C11308  10.072  11.064   5.223  0.2144 -0.1015  0.4047
  844MOL0     C11309   9.937  11.051   5.246 -0.1502 -0.0177  1.0968
  844MOL0     C11310   9.881  11.005   5.369 -0.6131  0.2636 -0.5706
  844MOL0     O11311   9.750  11.001   5.390  0.7558 -0.0251  1.2846
  844MOL0     C11312   9.670  10.972   5.280 -0.1666  0.3064 -0.5735
  844MOL0     C11313   9.524  10.948   5.337 -0.7305 -0.2178 -0.7246
  844MOL0     C11314   9.417  10.953   5.225  0.3050 -0.2730 -1.2523
  844MOL0     C11315   9.431  10.817   5.153 -0.0097 -0.5481  0.3513
  844MOL0     C11316   9.310  10.794   5.061 -0.1070  0.4976 -0.3852
  844MOL0     C11317   9.190  10.735   5.125 -0.3207 -0.5504  0.1515
  844MOL0     C11318   9.066  10.745   5.037  0.6433  0.3513  0.0463
  844MOL0     C11319   8.948  10.694   5.122 -0.0500  0.0704  1.1435
  844MOL0    Cl11320   8.793  10.733   5.035 -0.0079  0.2495 -0.0654
  844MOL0     C11321   9.972  10.985   5.477 -0.1860 -0.3637 -0.0503
  844MOL0     C11322  10.113  11.002   5.457 -0.7779  0.0917 -0.0493
  844MOL0     O11323  10.373  10.857   5.405 -0.5284 -0.0135 -0.1912
  844MOL0     C11324  10.585  11.126   5.330 -0.9332  0.5987  0.2434
  844MOL0     C11325  10.715  11.163   5.307  0.0915  0.0199 -0.3622
  844MOL0     N11326  11.315  11.361   4.788  0.2528 -1.0023  0.8585
  844MOL0     N11327  11.422  11.308   4.747 -0.3905  0.4381  0.1938
  844MOL0     C11328  10.810  10.334   4.821 -0.2973 -0.4206  0.3779
  844MOL0     C11329  10.706  10.274   4.893  0.4624  0.2931  0.2756
  844MOL0     C11330  10.238  10.155   4.920 -1.0548  0.1372  0.3835
  844MOL0     C11331  10.131  10.121   4.839 -0.2726  0.6042  0.0366
  844MOL0     C11332  10.012  10.074   4.900  0.7866  0.7484  0.3733
  844MOL0     C11333  10.006  10.066   5.039 -0.0529  0.8715 -0.6692
  844MOL0     O11334   9.891  10.019   5.103 -0.8833 -0.3323  0.1413
  844MOL0     C11335   9.795   9.935   5.036 -0.7804 -0.0054  0.0561
  844MOL0     C11336   9.677   9.925   5.121 -0.3762  0.0718  1.0864
  844MOL0     C11337   9.698   9.846   5.249 -0.2405 -0.5893  0.0090
  844MOL0     C11338   9.725   9.696   5.218 -0.2986 -0.5689 -0.1981
  844MOL0     C11339   9.821   9.651   5.318  0.0295 -0.0696 -0.5185
  844MOL0     C11340   9.882   9.595   5.410 -0.6980  1.0118  0.9241
  844MOL0     C11341  10.105  10.117   5.123 -0.0183  0.6267  0.0435
  844MOL0     C11342  10.223  10.163   5.064  0.1957  1.3608 -0.3664
  844MOL0     H11343  10.456  10.492   4.810 -0.4889  2.0125  4.2490
  844MOL0     H11344  10.646  10.606   4.705  1.3114  0.8438  1.7621
  844MOL0     H11345  10.845  10.717   4.662  0.7510 -0.1373 -0.0329
  844MOL0     H11346  10.812  10.611   4.527 -2.5689 -3.9769  2.9438
  844MOL0     H11347  11.014  10.767   4.493  1.4279  1.2618  2.3417
  844MOL0     H11348  11.065  10.594   4.505  2.9517 -1.4667  2.6735
  844MOL0     H11349  11.164  10.608   4.708 -1.7831 -0.5308  1.9265
  844MOL0     H11350  11.088  10.774   4.733 -1.3436  0.0258 -1.5062
  844MOL0     H11351  11.293  10.710   4.518  0.1386  1.2566 -0.8444
  844MOL0     H11352  11.205  10.858   4.572 -1.4678 -0.1210  1.3300
  844MOL0     H11353  11.426  10.700   4.712 -0.9981 -1.0591 -1.0280
  844MOL0     H11354  11.298  10.788   4.806 -0.3607 -0.5268  0.7245
  844MOL0     H11355  11.364  10.991   4.680  0.2340 -1.4206 -1.0347
  844MOL0     H11356  11.482  10.897   4.588 -0.6147 -0.3901 -0.0305
  844MOL0     H11357  11.510  10.907   4.888  2.3503  0.1829  1.6771
  844MOL0     H11358  11.633  10.900   4.766  0.9090 -1.5401  4.4058
  844MOL0     H11359  11.598  11.134   4.688 -1.2335 -0.4872  0.1607
  844MOL0     H11360  11.661  11.117   4.841 -1.1572 -0.2819  2.2138
  844MOL0     H11361  11.362  11.114   4.995  1.4219 -2.7195 -1.8861
  844MOL0     H11362  11.078  11.357   4.911 -1.6490 -1.3185  1.1136
  844MOL0     H11363  11.179  11.441   5.020 -1.8544 -0.3844  2.7893
  844MOL0     H11364  11.215  11.271   5.182 -0.6267 -0.8667  1.3820
  844MOL0     H11365  11.140  11.153   5.080 -0.8742  0.3841  1.5171
  844MOL0     H11366  11.006  11.402   5.206 -1.9086 -0.8712  2.2625
  844MOL0     H11367  10.912  11.269   5.135 -0.2064  0.6025 -0.8030
  844MOL0     H11368  10.939  11.262   5.392 -1.0834 -2.0578 -0.1110
  844MOL0     H11369  11.101  11.202   5.361 -0.0809  2.4311  1.0734
  844MOL0     H11370  10.847  10.868   5.253  0.7553  1.7210 -4.0320
  844MOL0     H11371  10.619  10.789   5.332  2.7552 -0.7620  1.8375
  844MOL0     H11372  10.104  11.083   5.121  0.9250 -0.1383  0.6127
  844MOL0     H11373   9.881  11.076   5.156  0.3116 -0.8553  0.5612
  844MOL0     H11374   9.705  10.878   5.235 -0.6671 -0.6390  0.9520
  844MOL0     H11375   9.666  11.053   5.206 -0.6552 -1.2474 -2.3307
  844MOL0     H11376   9.508  11.038   5.397  0.8983  0.2121 -0.8626
  844MOL0     H11377   9.520  10.864   5.408  3.2174  0.9751  1.2026
  844MOL0     H11378   9.427  11.032   5.150 -1.5893 -0.4847 -1.7691
  844MOL0     H11379   9.319  10.951   5.273  0.0427  0.2198 -1.7606
  844MOL0     H11380   9.523  10.823   5.093  1.0260  1.4477  1.9794
  844MOL0     H11381   9.445  10.739   5.228  1.9224 -1.1988 -0.6009
  844MOL0     H11382   9.352  10.717   4.996  2.6191  1.8275 -0.3436
  844MOL0     H11383   9.286  10.878   4.996 -2.3657 -0.3825 -0.7469
  844MOL0     H11384   9.174  10.789   5.219  2.0901 -0.5829  0.6457
  844MOL0     H11385   9.208  10.632   5.155 -1.3636 -0.6541  0.4580
  844MOL0     H11386   9.029  10.841   5.000 -2.0354 -0.6167  0.0108
  844MOL0     H11387   9.078  10.677   4.952  3.0384  0.7797 -0.0449
  844MOL0     H11388   8.938  10.741   5.220  2.0948 -2.2684  2.5869
  844MOL0     H11389   8.958  10.587   5.139 -0.0128 -0.3022 -0.9616
  844MOL0     H11390   9.941  10.973   5.580  3.1107  2.6718  1.5354
  844MOL0     H11391  10.181  10.972   5.536 -1.4443 -2.9073 -0.4871
  844MOL0     H11392  10.515  11.208   5.339 -0.6326  0.9876 -0.8283
  844MOL0     H11393  10.729  11.270   5.294 -3.0689  0.6511  0.6951
  844MOL0     H11394  10.900  10.273   4.821 -0.2087 -0.3272 -1.2744
  844MOL0     H11395  10.714  10.182   4.951 -0.6376  0.0734  0.0986
  844MOL0     H11396  10.143  10.124   4.731  0.5550 -3.4497 -0.1299
  844MOL0     H11397   9.929  10.044   4.838 -1.3821  2.2630  2.3544
  844MOL0     H11398   9.840   9.841   5.002 -0.8207  0.5760 -1.6960
  844MOL0     H11399   9.760   9.988   4.947 -1.1694 -0.4542 -0.0609
  844MOL0     H11400   9.653  10.031   5.136  0.0030  0.8493 -2.9077
  844MOL0     H11401   9.592   9.883   5.066 -0.1127  1.1893 -0.2046
  844MOL0     H11402   9.604   9.854   5.304  0.1914  0.2233  0.6709
  844MOL0     H11403   9.768   9.885   5.324 -1.4194 -2.2349  2.0660
  844MOL0     H11404   9.629   9.643   5.221 -0.3803 -0.4022  0.3669
  844MOL0     H11405   9.779   9.682   5.125 -0.9250  1.2176 -0.8651
  844MOL0     H11406   9.932   9.558   5.498 -2.2611 -3.9484  0.0245
  844MOL0     H11407  10.103  10.104   5.231 -0.2040 -0.8597 -0.1111
  844MOL0     H11408  10.311  10.183   5.124  0.5594 -1.8554  0.3438
  845MOL0     O11409   9.928   9.327   4.532  0.5751 -0.9317  0.0177
  845MOL0     C11410   9.939   9.346   4.656  0.4850  0.3713  0.4430
  845MOL0     O11411  10.052   9.335   4.725 -0.2048  0.3668  0.7406
  845MOL0     C11412  10.171   9.307   4.669 -1.1903  0.3933  0.8463
  845MOL0     C11413  10.194   9.241   4.540  0.3332 -0.4983 -0.3579
  845MOL0     C11414  10.322   9.248   4.487 -0.1271 -0.1376 -0.3330
  845MOL0     C11415  10.429   9.304   4.550 -0.2161  0.2887 -0.1491
  845MOL0     O11416  10.547   9.277   4.486 -0.4279 -0.6614  0.2331
  845MOL0     C11417  10.655   9.377   4.505 -0.0869  0.4884 -0.7530
  845MOL0     C11418  10.786   9.299   4.489 -0.0291 -0.4072 -0.4850
  845MOL0     C11419  10.902   9.386   4.535 -0.1707  0.3657  0.5055
  845MOL0     C11420  11.043   9.325   4.487  1.4584  0.8752  0.4304
  845MOL0     C11421  11.136   9.428   4.421 -0.9961  0.3217  0.1065
  845MOL0     C11422  11.278   9.385   4.432  0.0348  0.4718  0.4183
  845MOL0     C11423  11.301   9.263   4.348  0.1910  0.4501 -0.0563
  845MOL0     C11424  11.281   9.295   4.201  0.1312  0.0774 -0.2734
  845MOL0     N11425  11.353   9.414   4.146 -0.7206 -0.0056  0.7124
  845MOL0     C11426  11.474   9.401   4.086 -0.2475  0.2238  0.5500
  845MOL0     C11427  11.523   9.519   4.042 -0.1890  0.0703 -0.3006
  845MOL0     C11428  11.654   9.535   3.965  0.0181 -0.1126 -1.2808
  845MOL0     C11429  11.628   9.578   3.821  0.0748  0.2962 -0.6015
  845MOL0     C11430  11.592   9.448   3.744  0.0486  1.3289  0.3182
  845MOL0     C11431  11.507   9.470   3.618  0.5132  1.0589  0.2716
  845MOL0     O11432  11.389   9.541   3.655 -0.1370 -0.2796 -0.1694
  845MOL0     C11433  11.288   9.485   3.721 -0.6641 -0.2248 -0.6958
  845MOL0     C11434  11.270   9.348   3.730  0.2969  0.1972  0.6117
  845MOL0     C11435  11.150   9.298   3.781  1.0508  0.2649  0.0629
  845MOL0     C11436  11.041   9.383   3.826  1.1897  0.2666  0.6850
  845MOL0     C11437  10.912   9.330   3.887  0.9291 -0.3348 -0.4276
  845MOL0     O11438  10.796   9.401   3.862 -0.4880 -0.0823  0.1465
  845MOL0     C11439  10.690   9.379   3.943  1.0658  0.1479  0.3847
  845MOL0     C11440  10.571   9.401   3.875  0.2784  0.5761 -0.2967
  845MOL0     C11441  10.449   9.392   3.945  0.7377 -0.7468  0.9667
  845MOL0     C11442  10.449   9.330   4.072 -0.0088 -0.0165  0.2336
  845MOL0     O11443  10.343   9.305   4.154  0.2119  0.7325  0.2057
  845MOL0     C11444  10.215   9.358   4.112 -0.4002 -0.4390  0.4025
  845MOL0     C11445  10.120   9.370   4.224  0.0048  0.6106  0.2774
  845MOL0     C11446   9.984   9.444   4.188  0.0150  0.7344  0.1977
  845MOL0     C11447   9.881   9.353   4.111  0.6607  1.1720 -0.4351
  845MOL0     C11448   9.740   9.411   4.103 -0.0909  0.0688 -0.5147
  845MOL0     C11449   9.625   9.307   4.106 -0.0703  0.1322 -0.2639
  845MOL0     C11450   9.622   9.227   4.239 -0.3525 -0.0992  0.5041
  845MOL0     C11451   9.500   9.269   4.314  0.0188 -0.6808  0.3853
  845MOL0    Cl11452   9.511   9.449   4.349 -0.1227 -0.3534 -0.1938
  845MOL0     C11453  10.571   9.296   4.134 -0.4511 -0.2093 -0.8370
  845MOL0     C11454  10.693   9.329   4.072 -0.9723 -0.0810  0.2322
  845MOL0     O11455  10.921   9.227   3.949 -0.1147  0.1027  0.3322
  845MOL0     C11456  11.054   9.520   3.817  0.6572  0.2225  0.6108
  845MOL0     C11457  11.175   9.568   3.761 -0.0741  0.4208  0.9472
  845MOL0     N11458  11.421   9.609   4.075  0.0289 -0.2332 -0.1153
  845MOL0     N11459  11.324   9.555   4.135 -0.1995  0.4650  0.1132
  845MOL0     C11460  10.404   9.363   4.681 -0.5063 -0.0665 -0.0212
  845MOL0     C11461  10.279   9.369   4.735  0.2090 -0.2858  0.4049
  845MOL0     C11462   9.825   9.388   4.735  0.5878  0.1438  0.6332
  845MOL0     C11463   9.824   9.384   4.876  0.8254 -0.6443 -0.7399
  845MOL0     C11464   9.715   9.415   4.963 -0.1836 -0.6590 -0.5915
  845MOL0     C11465   9.594   9.446   4.906 -0.1010 -0.0745  0.4624
  845MOL0     O11466   9.497   9.476   4.999 -0.6790 -0.3000 -0.1719
  845MOL0     C11467   9.374   9.521   4.950 -0.1558 -0.9214 -0.1834
  845MOL0     C11468   9.289   9.555   5.067  0.8949 -0.3694 -0.6023
  845MOL0     C11469   9.297   9.702   5.113 -0.3690 -0.2182 -0.5317
  845MOL0     C11470   9.245   9.739   5.256  0.1107  0.2314 -0.7667
  845MOL0     C11471   9.133   9.650   5.298 -0.6264 -0.4840 -0.7063
  845MOL0     C11472   9.042   9.593   5.339  0.4922  1.3029  0.3528
  845MOL0     C11473   9.580   9.448   4.756  0.1184  0.0964  0.2942
  845MOL0     C11474   9.698   9.420   4.673  0.4809 -0.3940  0.4665
  845MOL0     H11475  10.124   9.181   4.484 -0.4578 -0.2478  0.3393
  845MOL0     H11476  10.330   9.195   4.393 -3.1298 -1.0484 -0.2075
  845MOL0     H11477  10.659   9.426   4.602  0.3503  1.0927 -1.0703
  845MOL0     H11478  10.636   9.465   4.443 -4.2936  0.1560 -0.2206
  845MOL0     H11479  10.804   9.266   4.386 -2.0725 -1.0063 -0.6792
  845MOL0     H11480  10.779   9.207   4.548  1.5713 -0.7297 -0.7540
  845MOL0     H11481  10.907   9.396   4.644  1.3850 -1.8105  0.6968
  845MOL0     H11482  10.884   9.483   4.488  2.5620  1.7800  2.1371
  845MOL0     H11483  11.088   9.286   4.578  0.1845  2.3590  1.7550
  845MOL0     H11484  11.023   9.250   4.410 -0.1134 -0.4219  2.0243
  845MOL0     H11485  11.113   9.520   4.477 -1.2371 -0.7059  1.7719
  845MOL0     H11486  11.105   9.434   4.317  0.2244  2.2840 -0.1926
  845MOL0     H11487  11.305   9.367   4.536  0.3171  0.7269  0.3883
  845MOL0     H11488  11.340   9.466   4.394 -2.0127  1.9251  0.0406
  845MOL0     H11489  11.402   9.224   4.360  0.6753  1.9533  1.2395
  845MOL0     H11490  11.234   9.182   4.379  0.1873  1.3974  2.7325
  845MOL0     H11491  11.176   9.301   4.171 -0.7312 -1.8575  2.0401
  845MOL0     H11492  11.312   9.207   4.143 -1.7480 -0.4765 -0.4868
  845MOL0     H11493  11.529   9.308   4.086 -1.8985 -0.8133 -0.6742
  845MOL0     H11494  11.710   9.442   3.978  2.4589  1.4381  0.2352
  845MOL0     H11495  11.700   9.618   4.021  1.7238 -2.0638  0.3813
  845MOL0     H11496  11.721   9.622   3.784  0.3109 -0.8363 -1.4249
  845MOL0     H11497  11.550   9.653   3.834 -1.6125 -1.6262  1.0911
  845MOL0     H11498  11.678   9.393   3.705 -0.8836  2.8716 -4.5263
  845MOL0     H11499  11.538   9.381   3.812  0.4660  0.7484  0.0861
  845MOL0     H11500  11.478   9.375   3.571  0.6193 -0.6471  3.4020
  845MOL0     H11501  11.573   9.526   3.551  3.6846 -1.8339  0.6867
  845MOL0     H11502  11.344   9.278   3.695  0.4610  1.0642 -0.8494
  845MOL0     H11503  11.152   9.192   3.805  5.0501  0.0447 -0.5820
  845MOL0     H11504  10.565   9.432   3.771 -1.9322 -0.0218 -0.3827
  845MOL0     H11505  10.352   9.417   3.903  1.5974  0.9489 -0.1333
  845MOL0     H11506  10.172   9.298   4.032 -0.8788  0.5569 -0.1107
  845MOL0     H11507  10.227   9.462   4.081 -0.4864 -1.0348 -1.7475
  845MOL0     H11508  10.168   9.430   4.302  0.2209 -0.7743  1.2520
  845MOL0     H11509  10.096   9.268   4.257  0.3867 -0.0653 -1.3941
  845MOL0     H11510   9.998   9.532   4.125  0.6038 -0.4558 -1.4121
  845MOL0     H11511   9.930   9.464   4.281  1.2581 -2.0742  1.6616
  845MOL0     H11512   9.910   9.318   4.011 -2.2209 -0.1869 -0.8931
  845MOL0     H11513   9.882   9.263   4.174 -1.2756  2.4658  1.5936
  845MOL0     H11514   9.724   9.455   4.004  3.0680  3.0111  0.0813
  845MOL0     H11515   9.722   9.490   4.176  1.0201  1.4624 -1.6891
  845MOL0     H11516   9.648   9.237   4.025  1.3612 -0.4196  0.5714
  845MOL0     H11517   9.528   9.350   4.082 -0.8891 -1.1708  0.5755
  845MOL0     H11518   9.618   9.121   4.214 -0.9011 -0.3281  1.5383
  845MOL0     H11519   9.709   9.251   4.301 -0.6056  0.6238  0.5956
  845MOL0     H11520   9.490   9.217   4.411 -1.5962  0.4882  0.9005
  845MOL0     H11521   9.405   9.256   4.261  0.4074  0.8642 -0.7205
  845MOL0     H11522  10.573   9.267   4.239  0.6180 -1.1659 -1.1013
  845MOL0     H11523  10.785   9.310   4.126 -1.1584  1.6913  1.2832
  845MOL0     H11524  10.978   9.585   3.860  0.4929 -0.7635  1.8854
  845MOL0     H11525  11.182   9.676   3.758 -2.4108  0.6523  1.6220
  845MOL0     H11526  10.489   9.412   4.729  1.4714  0.5451 -3.7816
  845MOL0     H11527  10.263   9.429   4.824 -2.3649 -0.5192  0.1726
  845MOL0     H11528   9.919   9.382   4.927  0.3626  2.9257  0.5194
  845MOL0     H11529   9.734   9.421   5.070  0.2175 -1.2569 -0.6258
  845MOL0     H11530   9.336   9.444   4.883  0.3931 -0.1896 -1.3736
  845MOL0     H11531   9.392   9.610   4.889  1.1113 -0.8156  0.3032
  845MOL0     H11532   9.185   9.550   5.034  0.6629  0.4103  0.0094
  845MOL0     H11533   9.316   9.487   5.148  0.6408 -1.7704 -1.6590
  845MOL0     H11534   9.234   9.755   5.040 -0.1247 -0.5658 -1.0015
  845MOL0     H11535   9.400   9.739   5.110 -1.0681  1.9519 -0.0322
  845MOL0     H11536   9.327   9.733   5.329  0.9691 -0.9891 -1.7975
  845MOL0     H11537   9.206   9.841   5.255 -1.3591 -0.3137 -0.5931
  845MOL0     H11538   8.959   9.548   5.389  0.4273  0.3178 -0.6173
  845MOL0     H11539   9.485   9.475   4.711 -0.9819  0.2506  2.5471
  845MOL0     H11540   9.690   9.425   4.565 -2.3469  3.7528  0.6354
  846MOL0     O11541   2.324   4.413  10.917 -0.0133 -1.1564 -0.4760
  846MOL0     C11542   2.250   4.446  11.010  0.7936 -1.5990  0.2293
  846MOL0     O11543   2.120   4.458  11.004 -0.1154  0.0436 -0.0233
  846MOL0     C11544   2.048   4.449  10.885 -0.5831 -0.2573  0.9927
  846MOL0     C11545   2.003   4.565  10.830 -0.0223  0.3333 -0.3971
  846MOL0     C11546   1.935   4.569  10.708 -0.3106 -0.1015 -0.2257
  846MOL0     C11547   1.914   4.464  10.628  0.2882  0.2288  0.2107
  846MOL0     O11548   1.825   4.466  10.531  0.2401 -0.0002 -0.8349
  846MOL0     C11549   1.881   4.524  10.405 -0.8541  1.0549 -1.3592
  846MOL0     C11550   1.776   4.552  10.303 -0.0348 -0.4033  0.0265
  846MOL0     C11551   1.715   4.428  10.242  0.2890  0.4187 -0.1117
  846MOL0     C11552   1.599   4.453  10.135 -1.3939 -0.9816 -0.7122
  846MOL0     C11553   1.567   4.322  10.072 -0.0516  0.3071 -0.3686
  846MOL0     C11554   1.417   4.301  10.070  0.3450 -0.7096 -0.4794
  846MOL0     C11555   1.373   4.182   9.991 -0.6129 -0.0243 -0.2139
  846MOL0     C11556   1.429   4.172   9.848 -0.5863 -0.2564 -0.7488
  846MOL0     N11557   1.333   4.084   9.772  0.0881  0.3718  0.3672
  846MOL0     C11558   1.215   4.122   9.715 -1.0893  0.4062 -0.0163
  846MOL0     C11559   1.175   4.017   9.638 -0.2536 -0.4392  0.3131
  846MOL0     C11560   1.063   4.010   9.533  0.0948 -0.6094 -0.2380
  846MOL0     C11561   1.109   4.086   9.410 -0.3053 -1.1084  0.0634
  846MOL0     C11562   1.015   4.071   9.290  0.0013 -0.0336 -0.2829
  846MOL0     C11563   0.881   4.132   9.303 -0.4210 -0.4438  0.5811
  846MOL0     O11564   0.800   4.058   9.397 -0.4980  0.3220  0.6365
  846MOL0     C11565   0.671   4.081   9.415  0.0660  0.0817  0.0354
  846MOL0     C11566   0.590   4.183   9.362  0.7715 -0.2854 -0.1772
  846MOL0     C11567   0.448   4.187   9.388 -0.3222  0.6444 -0.1693
  846MOL0     C11568   0.395   4.099   9.479  0.7379  1.4500  0.2676
  846MOL0     C11569   0.249   4.102   9.510  0.6978  1.0078 -0.9840
  846MOL0     O11570   0.201   3.985   9.568  0.5919  0.6341 -0.1496
  846MOL0     C11571   0.070   3.984   9.614 -0.2762 -0.5926 -0.9201
  846MOL0     C11572  -0.018   3.872   9.586 -0.1072  0.9739 -0.2595
  846MOL0     C11573  -0.141   3.855   9.646 -0.4128 -0.1618  0.5100
  846MOL0     C11574  -0.184   3.960   9.725 -0.1864 -0.5398  0.3814
  846MOL0     O11575  -0.315   3.950   9.768  0.0083  0.4116 -0.6056
  846MOL0     C11576  -0.402   4.047   9.715  0.1391  0.3829 -0.1714
  846MOL0     C11577  -0.534   4.017   9.775 -0.0428 -0.8660 -0.0908
  846MOL0     C11578  -0.635   4.132   9.756 -0.5062 -0.6582 -0.3874
  846MOL0     C11579  -0.776   4.102   9.816 -0.4227 -0.3588  0.2460
  846MOL0     C11580  -0.879   4.212   9.795  0.1291 -0.2643  1.0909
  846MOL0     C11581  -1.017   4.147   9.768  0.6273  0.3602 -0.2679
  846MOL0     C11582  -1.120   4.258   9.774  0.1686  0.0895 -0.5457
  846MOL0     C11583  -1.259   4.194   9.737  0.4580 -0.0751 -1.2069
  846MOL0    Cl11584  -1.323   4.078   9.860 -0.0463  0.2229  0.0209
  846MOL0     C11585  -0.107   4.075   9.750  0.4183 -0.5007  0.0495
  846MOL0     C11586   0.020   4.089   9.695 -0.1244 -0.3820 -0.1386
  846MOL0     O11587   0.183   4.196   9.478 -0.1266  1.1135 -0.6949
  846MOL0     C11588   0.476   4.006   9.542 -0.3815  0.1515 -0.0688
  846MOL0     C11589   0.612   3.991   9.502  0.6257 -0.4956 -0.7006
  846MOL0     N11590   1.266   3.916   9.642 -0.8465  0.2018  0.2653
  846MOL0     N11591   1.361   3.955   9.728  0.4759 -0.5649  0.1758
  846MOL0     C11592   1.964   4.343  10.681  0.0892 -0.2275  0.0266
  846MOL0     C11593   2.039   4.337  10.805 -0.1338 -0.4097  0.1334
  846MOL0     C11594   2.302   4.468  11.148  1.2960  0.4562 -0.4795
  846MOL0     C11595   2.436   4.457  11.169 -0.2648 -0.6222  0.3786
  846MOL0     C11596   2.493   4.485  11.294  0.4390  0.1145 -0.4966
  846MOL0     C11597   2.426   4.524  11.407 -0.3146  0.2777 -0.0430
  846MOL0     O11598   2.491   4.544  11.525 -0.1498 -0.5701  0.1707
  846MOL0     C11599   2.444   4.613  11.642  0.1717 -0.2990  0.4960
  846MOL0     C11600   2.561   4.645  11.733 -0.1372  0.5260  0.4575
  846MOL0     C11601   2.526   4.728  11.860 -0.4734  0.2380  0.1890
  846MOL0     C11602   2.492   4.869  11.828  0.7382  0.1692 -0.2640
  846MOL0     C11603   2.615   4.940  11.784  0.5871 -0.5065  0.1829
  846MOL0     C11604   2.717   4.988  11.744  0.7106 -0.9257  1.0811
  846MOL0     C11605   2.286   4.525  11.397  0.4725  0.0826  0.4181
  846MOL0     C11606   2.224   4.484  11.266  0.5986 -0.3210  0.5969
  846MOL0     H11607   2.017   4.662  10.875 -0.0006 -0.1908  0.7439
  846MOL0     H11608   1.896   4.663  10.670  2.4199  0.9475 -0.6096
  846MOL0     H11609   1.957   4.460  10.359 -2.0228 -3.7394  2.5315
  846MOL0     H11610   1.917   4.626  10.420 -0.1903  0.7636 -0.9548
  846MOL0     H11611   1.828   4.614  10.229 -2.6703  0.5377 -1.1661
  846MOL0     H11612   1.703   4.622  10.346  0.5603  1.0911 -1.2781
  846MOL0     H11613   1.667   4.372  10.322 -0.2833  1.6627  0.4455
  846MOL0     H11614   1.791   4.366  10.194  1.1839  0.9310  0.6133
  846MOL0     H11615   1.516   4.509  10.179  0.0480  0.5138  0.1692
  846MOL0     H11616   1.642   4.518  10.059 -0.4221 -1.3064 -0.4546
  846MOL0     H11617   1.610   4.240  10.131 -0.7350  0.8874  0.9554
  846MOL0     H11618   1.612   4.309   9.972 -0.7088  2.3386 -0.9700
  846MOL0     H11619   1.367   4.390  10.033  0.2899  0.7031  2.7123
  846MOL0     H11620   1.374   4.290  10.170 -1.9075 -4.4050 -1.6353
  846MOL0     H11621   1.395   4.094  10.053 -1.0568  0.9868  1.4233
  846MOL0     H11622   1.265   4.177   9.971 -0.6710 -0.1295  0.1243
  846MOL0     H11623   1.527   4.125   9.854 -0.2847  0.5018  2.8917
  846MOL0     H11624   1.448   4.274   9.813  2.7789  0.0853  1.5985
  846MOL0     H11625   1.162   4.216   9.727 -0.0566  0.8640  1.1343
  846MOL0     H11626   0.969   4.057   9.563  0.3072  0.6972 -1.4781
  846MOL0     H11627   1.046   3.903   9.521  2.0953 -0.9727 -0.0915
  846MOL0     H11628   1.210   4.054   9.383  0.4174 -0.0629  1.4245
  846MOL0     H11629   1.129   4.191   9.433  0.1322 -1.3145  0.6498
  846MOL0     H11630   1.073   4.101   9.202  2.1107 -0.9267  0.7221
  846MOL0     H11631   0.994   3.964   9.275  0.6215  0.0923 -2.4940
  846MOL0     H11632   0.825   4.120   9.210  0.9348  1.5323 -0.5812
  846MOL0     H11633   0.885   4.238   9.333 -1.0094 -1.5103  5.1337
  846MOL0     H11634   0.630   4.262   9.298 -1.4714  1.9435  1.0327
  846MOL0     H11635   0.396   4.268   9.338 -2.0679  0.0296  0.5838
  846MOL0     H11636   0.022   3.793   9.524 -1.0087  2.2096 -2.5440
  846MOL0     H11637  -0.209   3.772   9.632  0.1795 -0.7226  0.9209
  846MOL0     H11638  -0.410   4.031   9.607  0.6361 -0.2016 -0.1224
  846MOL0     H11639  -0.362   4.145   9.746 -3.1289  1.5168  0.8903
  846MOL0     H11640  -0.521   3.999   9.882  0.5759  0.6284  0.1202
  846MOL0     H11641  -0.585   3.937   9.722  1.1971  0.4107 -3.4949
  846MOL0     H11642  -0.652   4.154   9.650 -2.5035  2.9848  0.5229
  846MOL0     H11643  -0.593   4.222   9.802  1.0370 -0.8488 -1.3671
  846MOL0     H11644  -0.813   4.019   9.756 -0.1445  0.3182 -0.9019
  846MOL0     H11645  -0.770   4.068   9.920  0.3839 -1.4319 -0.1347
  846MOL0     H11646  -0.853   4.268   9.705 -0.5866 -1.6856 -0.0370
  846MOL0     H11647  -0.904   4.279   9.878 -0.2137  3.7839 -1.9659
  846MOL0     H11648  -1.039   4.072   9.844 -1.8936  0.2118 -1.0503
  846MOL0     H11649  -1.014   4.082   9.679  0.8391 -1.8173  1.2418
  846MOL0     H11650  -1.128   4.313   9.868 -2.3160 -0.3003 -0.4678
  846MOL0     H11651  -1.098   4.333   9.697 -2.5693  2.0464  0.4098
  846MOL0     H11652  -1.249   4.158   9.634  1.7407  2.3677 -2.0087
  846MOL0     H11653  -1.332   4.274   9.726  0.5038  0.1734  0.1915
  846MOL0     H11654  -0.137   4.164   9.805  0.3892 -1.7005  2.0744
  846MOL0     H11655   0.077   4.178   9.717  1.1778 -0.8125 -1.5859
  846MOL0     H11656   0.441   3.936   9.617 -0.4389  1.8006  1.5164
  846MOL0     H11657   0.680   3.923   9.554 -0.2226 -1.3479 -0.6867
  846MOL0     H11658   1.932   4.251  10.633 -0.0136  0.5235 -1.4133
  846MOL0     H11659   2.063   4.239  10.846  3.9115  0.9992  1.5840
  846MOL0     H11660   2.502   4.419  11.092  1.3694  2.1802  0.2519
  846MOL0     H11661   2.600   4.471  11.305  0.5832  2.7388  2.9103
  846MOL0     H11662   2.375   4.559  11.708 -0.3175  1.2321  1.2894
  846MOL0     H11663   2.386   4.705  11.629 -1.4967 -1.0333  2.1742
  846MOL0     H11664   2.597   4.549  11.772  0.7237  0.4763 -0.4298
  846MOL0     H11665   2.640   4.697  11.679 -0.3368  1.6175  1.1711
  846MOL0     H11666   2.611   4.717  11.929 -1.6839 -2.8501  1.3478
  846MOL0     H11667   2.444   4.677  11.912 -0.1951 -2.2983 -1.7067
  846MOL0     H11668   2.419   4.866  11.747  1.1398 -1.6635 -0.6011
  846MOL0     H11669   2.443   4.911  11.917 -0.1092 -3.4050  1.1261
  846MOL0     H11670   2.796   5.042  11.696  0.7528 -1.8285  0.0874
  846MOL0     H11671   2.229   4.535  11.488 -0.9395 -0.0135 -0.4320
  846MOL0     H11672   2.116   4.475  11.267  0.7300 -2.3473  0.9795
  847MOL0     O11673   3.334   3.174   0.956 -0.8953  0.2708  0.4843
  847MOL0     C11674   3.404   3.265   1.003  0.0176 -0.2694 -0.0571
  847MOL0     O11675   3.356   3.379   1.045 -0.2003 -0.5906 -1.0662
  847MOL0     C11676   3.219   3.397   1.033 -1.0799 -0.1769 -0.7932
  847MOL0     C11677   3.180   3.496   0.940 -0.1888  0.1536 -0.4771
  847MOL0     C11678   3.047   3.525   0.916  0.0650  0.4399 -0.3093
  847MOL0     C11679   2.954   3.445   0.980 -0.6174  0.5643 -0.7363
  847MOL0     O11680   2.824   3.469   0.938  0.0744 -0.1048 -0.2413
  847MOL0     C11681   2.718   3.402   1.006  0.3744 -0.3510  0.3546
  847MOL0     C11682   2.587   3.440   0.944 -0.4716 -0.1060 -0.8551
  847MOL0     C11683   2.482   3.339   0.994  0.8256 -0.5844  0.9551
  847MOL0     C11684   2.347   3.366   0.923  1.2954 -0.3818  0.2769
  847MOL0     C11685   2.225   3.296   0.984 -0.1046  0.0492 -0.3554
  847MOL0     C11686   2.100   3.364   0.920 -0.2960  0.0007 -0.3572
  847MOL0     C11687   1.971   3.317   0.989  0.7738  0.1446  0.4203
  847MOL0     C11688   1.865   3.429   0.989  0.2767  0.0859 -0.1339
  847MOL0     N11689   1.726   3.390   1.017  0.4013 -0.6495  0.1183
  847MOL0     C11690   1.682   3.327   1.134 -0.7033 -0.0578 -0.4288
  847MOL0     C11691   1.558   3.305   1.100  0.8318  0.3586 -0.3318
  847MOL0     C11692   1.459   3.261   1.203  0.6026  0.1189  0.3035
  847MOL0     C11693   1.481   3.116   1.259 -0.4078  0.2343 -0.3198
  847MOL0     C11694   1.358   3.038   1.297 -0.0386  0.3708 -0.2352
  847MOL0     C11695   1.266   3.108   1.402 -0.0093  0.8181 -0.4620
  847MOL0     O11696   1.164   3.023   1.455  0.5600 -0.9112  0.1369
  847MOL0     C11697   1.024   3.071   1.445 -0.8698  0.7008 -1.0700
  847MOL0     C11698   0.931   2.995   1.517 -1.0649  0.9158  0.0247
  847MOL0     C11699   0.792   3.030   1.517 -0.1058 -0.3712  0.8037
  847MOL0     C11700   0.745   3.142   1.442  0.3048  0.2900 -0.4345
  847MOL0     C11701   0.602   3.174   1.436  0.0541  0.6679  0.2554
  847MOL0     O11702   0.530   3.100   1.524  0.2721 -0.6841  0.1179
  847MOL0     C11703   0.397   3.102   1.507  0.3237  0.1869 -0.4701
  847MOL0     C11704   0.319   3.223   1.524  0.2715  0.3953 -0.4139
  847MOL0     C11705   0.183   3.223   1.526  0.7582  0.2901  0.1555
  847MOL0     C11706   0.108   3.103   1.514 -0.4008 -0.3450  0.5095
  847MOL0     O11707  -0.029   3.123   1.526 -0.1663  0.1748  0.7954
  847MOL0     C11708  -0.120   3.017   1.547 -0.0509  0.0339 -0.7058
  847MOL0     C11709  -0.147   3.014   1.705  0.0963 -0.5887 -0.1449
  847MOL0     C11710  -0.273   2.930   1.755 -0.1938 -0.4912 -0.1730
  847MOL0     C11711  -0.402   2.989   1.694 -0.3955 -0.1040  0.3553
  847MOL0     C11712  -0.521   2.956   1.794  0.3317  0.0008  0.3927
  847MOL0     C11713  -0.656   3.022   1.746  0.1820 -0.7598  0.1325
  847MOL0     C11714  -0.777   2.951   1.801 -0.1922 -0.3296  0.0514
  847MOL0     C11715  -0.810   3.005   1.939  0.0972 -0.4831 -0.1995
  847MOL0    Cl11716  -0.905   3.156   1.901 -0.2806 -0.0972  0.2642
  847MOL0     C11717   0.180   2.980   1.500 -0.4323  0.0378 -0.8538
  847MOL0     C11718   0.317   2.983   1.494 -0.0214  0.9036  0.0710
  847MOL0     O11719   0.561   3.269   1.366 -0.4082  0.4489  0.0021
  847MOL0     C11720   0.842   3.222   1.384 -0.4807 -0.0958  0.6642
  847MOL0     C11721   0.978   3.191   1.392 -0.1406 -0.4561 -1.3468
  847MOL0     N11722   1.525   3.351   0.973  0.3665 -0.3822  0.8191
  847MOL0     N11723   1.628   3.403   0.916  0.1995 -0.2634  0.2641
  847MOL0     C11724   2.988   3.348   1.075  0.9834 -0.2486 -0.6856
  847MOL0     C11725   3.124   3.332   1.102 -0.0530  0.0743  0.1683
  847MOL0     C11726   3.553   3.248   0.999  0.5507  0.4296 -0.1673
  847MOL0     C11727   3.604   3.124   1.039  0.5609 -0.5895  0.0360
  847MOL0     C11728   3.745   3.114   1.036 -0.4448  0.2440 -1.3268
  847MOL0     C11729   3.834   3.224   1.024  0.3949 -0.1976  1.3924
  847MOL0     O11730   3.964   3.194   1.060 -1.0021 -0.3246 -0.0189
  847MOL0     C11731   4.066   3.299   1.046  0.9926  1.1685  0.4050
  847MOL0     C11732   4.065   3.376   1.177  0.2521  0.2135  0.3024
  847MOL0     C11733   4.140   3.511   1.175 -0.1934 -0.1441  0.3537
  847MOL0     C11734   4.287   3.496   1.119 -0.3890  0.1118 -0.0962
  847MOL0     C11735   4.376   3.608   1.136  0.4643 -0.0927  0.4944
  847MOL0     C11736   4.453   3.704   1.134  0.1100 -0.3852 -0.7508
  847MOL0     C11737   3.779   3.345   0.996 -0.1749 -0.9146  0.2163
  847MOL0     C11738   3.636   3.358   0.984 -0.4398 -0.0189  0.1303
  847MOL0     H11739   3.255   3.558   0.892 -0.4665  0.2283 -0.8173
  847MOL0     H11740   3.024   3.606   0.847 -3.9005  0.3904  0.7053
  847MOL0     H11741   2.719   3.428   1.112 -2.9562  0.2854  0.3445
  847MOL0     H11742   2.726   3.293   1.013  0.9903 -0.2108  2.4730
  847MOL0     H11743   2.601   3.438   0.835  1.8809 -1.5303 -0.6017
  847MOL0     H11744   2.555   3.541   0.971 -2.1088 -0.1345 -2.5083
  847MOL0     H11745   2.464   3.354   1.101 -1.1309 -0.6339  0.6776
  847MOL0     H11746   2.511   3.236   0.969  1.7596  0.0435 -0.7033
  847MOL0     H11747   2.327   3.473   0.938 -2.6964 -0.9770  0.4657
  847MOL0     H11748   2.353   3.344   0.817  2.1776  0.8640  0.0499
  847MOL0     H11749   2.222   3.312   1.093  0.2261  1.0769 -0.4864
  847MOL0     H11750   2.223   3.190   0.958  2.1412 -0.6781  1.9761
  847MOL0     H11751   2.091   3.353   0.812  1.4756 -0.5847 -0.4857
  847MOL0     H11752   2.111   3.469   0.948 -1.0297  0.9126 -3.1777
  847MOL0     H11753   1.926   3.230   0.942  0.9621  0.3338 -0.1209
  847MOL0     H11754   1.996   3.314   1.096  0.8709  3.4051  0.6154
  847MOL0     H11755   1.874   3.490   0.899  4.2119  0.5525  0.3972
  847MOL0     H11756   1.894   3.488   1.076 -1.4348 -0.6010  0.9720
  847MOL0     H11757   1.722   3.298   1.231  0.1941  0.1653 -0.7239
  847MOL0     H11758   1.361   3.245   1.157  0.6359  1.5580 -0.3353
  847MOL0     H11759   1.466   3.329   1.288  2.3895 -1.1498  1.2417
  847MOL0     H11760   1.532   3.118   1.356 -2.0452 -2.4590  0.7288
  847MOL0     H11761   1.539   3.056   1.189 -0.5279 -2.2932  1.6052
  847MOL0     H11762   1.301   3.021   1.205 -2.0020  2.4499  0.4711
  847MOL0     H11763   1.389   2.943   1.341 -1.4284  0.2554  0.5796
  847MOL0     H11764   1.220   3.194   1.353 -3.7352  0.5828  2.2003
  847MOL0     H11765   1.330   3.146   1.481 -1.5619  1.4443  0.5436
  847MOL0     H11766   0.968   2.905   1.566 -0.9397  1.6795  1.3965
  847MOL0     H11767   0.716   2.960   1.550 -1.4918  1.5345  1.8800
  847MOL0     H11768   0.375   3.315   1.536  0.6262  0.2819 -1.1110
  847MOL0     H11769   0.114   3.306   1.534 -0.4809 -0.0774 -4.3526
  847MOL0     H11770  -0.081   2.921   1.513 -2.6176 -1.0965 -0.7070
  847MOL0     H11771  -0.202   3.045   1.481  0.7124  0.5702 -1.4417
  847MOL0     H11772  -0.159   3.117   1.740  4.3533  0.3874 -0.9625
  847MOL0     H11773  -0.070   2.970   1.770  0.3247  0.3019  0.1959
  847MOL0     H11774  -0.285   2.943   1.863 -1.8527  0.7857 -0.4603
  847MOL0     H11775  -0.257   2.826   1.725  0.4561 -0.0752 -1.3637
  847MOL0     H11776  -0.403   3.097   1.674  1.5625  0.0743  0.9755
  847MOL0     H11777  -0.422   2.931   1.604 -1.6402 -0.6513  0.9699
  847MOL0     H11778  -0.501   2.990   1.896 -4.0318 -0.3330  1.5714
  847MOL0     H11779  -0.533   2.850   1.816  1.2396  0.4112  3.2928
  847MOL0     H11780  -0.656   3.025   1.637  0.0559  0.6394  0.1539
  847MOL0     H11781  -0.652   3.127   1.777  0.5512 -0.1683 -1.7759
  847MOL0     H11782  -0.863   2.978   1.739 -0.5122  0.5847  0.8614
  847MOL0     H11783  -0.755   2.845   1.789  0.3952 -0.3682  1.2789
  847MOL0     H11784  -0.718   3.043   1.984  0.3707  0.0230 -1.1594
  847MOL0     H11785  -0.860   2.929   2.000  1.2318  0.9297  2.6629
  847MOL0     H11786   0.130   2.884   1.490 -2.0988  0.6921  0.5780
  847MOL0     H11787   0.374   2.894   1.470  0.5777  1.4165 -0.4572
  847MOL0     H11788   0.806   3.311   1.333  1.4862  0.1108 -0.4431
  847MOL0     H11789   1.050   3.260   1.348  0.7224 -0.7982 -0.4962
  847MOL0     H11790   2.928   3.269   1.120  3.1380 -0.2087  2.6639
  847MOL0     H11791   3.139   3.251   1.173  0.6898  0.0389 -0.0232
  847MOL0     H11792   3.539   3.039   1.058  3.3842 -3.1399 -0.8138
  847MOL0     H11793   3.793   3.021   1.061 -1.5121  0.3124  1.2581
  847MOL0     H11794   4.048   3.354   0.953  0.3336  2.0904  1.0584
  847MOL0     H11795   4.169   3.266   1.032  0.0517 -1.7055 -0.4435
  847MOL0     H11796   3.960   3.390   1.206 -0.2668 -2.1122 -0.2500
  847MOL0     H11797   4.122   3.306   1.239  2.3787 -0.6500 -2.4448
  847MOL0     H11798   4.143   3.536   1.282 -0.7566  0.7580  0.1664
  847MOL0     H11799   4.092   3.592   1.120  0.0443 -0.7452 -0.7805
  847MOL0     H11800   4.336   3.412   1.169 -0.4824 -0.0112 -0.2089
  847MOL0     H11801   4.277   3.473   1.012  1.1838  1.1609 -0.5197
  847MOL0     H11802   4.519   3.789   1.136 -0.0636 -0.2166  2.3627
  847MOL0     H11803   3.847   3.429   1.000 -1.7891  0.4162  0.9730
  847MOL0     H11804   3.588   3.454   0.970 -0.7640  0.0818  1.6979
  848MOL0     O11805   3.965  10.793   0.834 -0.7907  0.6468  0.4733
  848MOL0     C11806   3.998  10.911   0.815  0.6241 -1.1781 -0.0704
  848MOL0     O11807   3.908  11.011   0.765 -0.0619  0.7099  0.0233
  848MOL0     C11808   3.774  11.012   0.803  0.6488  0.4305  0.8781
  848MOL0     C11809   3.689  11.113   0.751 -0.1049 -0.3975 -0.7313
  848MOL0     C11810   3.552  11.118   0.778  0.3487 -0.3169 -0.0560
  848MOL0     C11811   3.492  11.033   0.869  0.2199  0.0886  0.3728
  848MOL0     O11812   3.360  11.055   0.905 -0.1285 -0.1279 -0.6901
  848MOL0     C11813   3.303  10.986   1.012  0.4567  0.8070  0.4399
  848MOL0     C11814   3.181  11.059   1.072  0.6585  0.0090 -1.1992
  848MOL0     C11815   3.205  11.207   1.121 -0.4205  0.8047 -0.5283
  848MOL0     C11816   3.077  11.256   1.189 -0.5914 -1.3856 -0.9638
  848MOL0     C11817   3.084  11.408   1.186 -0.1003 -0.5969  0.0552
  848MOL0     C11818   3.213  11.480   1.247 -0.6347  1.3316  0.3659
  848MOL0     C11819   3.202  11.626   1.258  0.0204 -0.5191 -0.3341
  848MOL0     C11820   3.084  11.674   1.357  0.4262 -0.1017  0.0383
  848MOL0     N11821   3.038  11.820   1.363  0.1990 -0.0161 -0.2738
  848MOL0     C11822   3.061  11.930   1.277 -0.0570  0.3855 -0.3987
  848MOL0     C11823   2.982  12.031   1.329 -0.1386 -0.1114 -0.2930
  848MOL0     C11824   2.983  12.168   1.271 -0.3336 -0.8841  0.1566
  848MOL0     C11825   3.092  12.247   1.344  0.5826 -1.0843  1.1707
  848MOL0     C11826   3.121  12.383   1.267  0.0580  0.7592  0.9549
  848MOL0     C11827   3.016  12.480   1.301 -0.4935 -1.1501 -0.4993
  848MOL0     O11828   2.916  12.489   1.207  0.2114 -0.4015 -0.0803
  848MOL0     C11829   2.789  12.513   1.243 -0.2891  0.3298 -0.5678
  848MOL0     C11830   2.700  12.503   1.136 -0.0393 -0.1288 -0.5905
  848MOL0     C11831   2.562  12.535   1.141  0.3424  0.5721 -0.2123
  848MOL0     C11832   2.511  12.569   1.265  1.3390  0.0565 -0.2482
  848MOL0     C11833   2.370  12.603   1.279 -0.1061 -0.5097 -0.0404
  848MOL0     O11834   2.312  12.586   1.406 -0.0746 -0.6180 -0.2526
  848MOL0     C11835   2.184  12.617   1.416  0.9359  0.0752 -0.4264
  848MOL0     C11836   2.166  12.721   1.498  0.0992 -0.0949  0.1944
  848MOL0     C11837   2.024  12.764   1.510 -0.2954  0.3906 -0.6895
  848MOL0     C11838   1.917  12.698   1.449  0.6762  0.4170 -0.9013
  848MOL0     O11839   1.789  12.747   1.494 -0.3605 -0.0305  0.2918
  848MOL0     C11840   1.668  12.694   1.437 -1.2394 -0.1106 -1.2497
  848MOL0     C11841   1.567  12.754   1.534  0.1010 -0.4347 -0.3113
  848MOL0     C11842   1.419  12.726   1.473  0.3977  0.4296  0.7789
  848MOL0     C11843   1.300  12.792   1.553 -0.8167  1.1527  0.0877
  848MOL0     C11844   1.167  12.777   1.492  0.5182  0.4966  0.4742
  848MOL0     C11845   1.125  12.633   1.521  0.0018  0.4900  0.4008
  848MOL0     C11846   0.985  12.611   1.478 -0.0921  0.0962  0.0254
  848MOL0     C11847   0.876  12.658   1.572 -0.1328  0.9068  0.0713
  848MOL0    Cl11848   0.704  12.577   1.536 -0.0505 -0.0915 -0.3188
  848MOL0     C11849   1.949  12.585   1.375  0.0544  0.5996  0.4716
  848MOL0     C11850   2.079  12.541   1.360 -0.5749  0.1702  0.0265
  848MOL0     O11851   2.314  12.639   1.176 -0.3759  0.0188 -0.3002
  848MOL0     C11852   2.594  12.577   1.380  0.2985  0.2074 -0.0784
  848MOL0     C11853   2.731  12.564   1.369 -0.6383  0.0048 -0.4642
  848MOL0     N11854   2.921  11.988   1.444  0.0435  0.9560  0.7205
  848MOL0     N11855   2.966  11.873   1.465 -0.3848  1.0030 -0.1112
  848MOL0     C11856   3.574  10.940   0.932 -0.2602  0.2213  0.0178
  848MOL0     C11857   3.713  10.931   0.901  1.0190 -0.7191 -0.4284
  848MOL0     C11858   4.138  10.958   0.826 -1.2372 -0.3292  0.9332
  848MOL0     C11859   4.168  11.092   0.801  1.1852 -0.7024  0.6276
  848MOL0     C11860   4.294  11.135   0.813 -0.0970 -0.4733  0.2648
  848MOL0     C11861   4.403  11.054   0.850 -0.9647 -0.1202  0.9254
  848MOL0     O11862   4.529  11.100   0.869  0.1672 -0.3306  0.6519
  848MOL0     C11863   4.548  11.237   0.909  0.6753 -0.4269 -0.3134
  848MOL0     C11864   4.683  11.238   0.995  0.8472 -0.7432 -0.3258
  848MOL0     C11865   4.669  11.170   1.136  0.5138 -0.2409 -0.7905
  848MOL0     C11866   4.546  11.222   1.222 -0.2456  0.9261  0.7517
  848MOL0     C11867   4.415  11.154   1.189 -0.6003  0.6569  0.0310
  848MOL0     C11868   4.306  11.106   1.157 -0.0870 -0.2757 -0.5279
  848MOL0     C11869   4.371  10.913   0.863 -0.4037 -0.9305 -0.0892
  848MOL0     C11870   4.236  10.864   0.864  0.4186 -0.1724  0.3234
  848MOL0     H11871   3.730  11.182   0.677  2.0343 -0.4966  0.2852
  848MOL0     H11872   3.498  11.202   0.736 -3.0283 -1.4928  1.5549
  848MOL0     H11873   3.378  10.979   1.091  1.6687  3.1105 -0.4339
  848MOL0     H11874   3.286  10.882   0.981  0.6601  0.9441 -0.1499
  848MOL0     H11875   3.140  10.988   1.144 -1.0685  1.8498 -0.2572
  848MOL0     H11876   3.114  11.073   0.987 -1.9565 -0.3608  0.6790
  848MOL0     H11877   3.241  11.269   1.038 -0.8186 -0.2897 -1.5620
  848MOL0     H11878   3.283  11.216   1.197 -1.4154  1.2796  0.4504
  848MOL0     H11879   2.982  11.232   1.140 -1.4746 -1.1126  0.5426
  848MOL0     H11880   3.073  11.217   1.291  0.1140  0.4741 -0.1659
  848MOL0     H11881   2.994  11.442   1.237 -1.6891 -3.3514 -0.6667
  848MOL0     H11882   3.073  11.440   1.082 -2.0156  0.1143  0.4228
  848MOL0     H11883   3.300  11.455   1.187 -0.6664  2.4396 -0.1587
  848MOL0     H11884   3.237  11.435   1.344  1.1331  1.1110 -0.1327
  848MOL0     H11885   3.298  11.660   1.297  0.4517 -1.1489 -0.8404
  848MOL0     H11886   3.187  11.664   1.156 -3.5938 -3.3978 -1.0983
  848MOL0     H11887   3.112  11.667   1.462 -0.5943  0.7281  0.3798
  848MOL0     H11888   2.988  11.623   1.344  0.7580 -0.6323 -0.4058
  848MOL0     H11889   3.119  11.922   1.185  3.5145 -0.7456  1.7524
  848MOL0     H11890   2.884  12.209   1.293  0.5112  1.4291 -0.0766
  848MOL0     H11891   2.984  12.170   1.161 -3.5390  1.2799  0.0025
  848MOL0     H11892   3.173  12.175   1.329 -0.2750 -1.6422 -1.3839
  848MOL0     H11893   3.061  12.268   1.447  0.6637  2.5003  0.5989
  848MOL0     H11894   3.221  12.424   1.281  1.1347 -0.0294 -3.1556
  848MOL0     H11895   3.121  12.363   1.160 -2.7041 -0.3141  1.0582
  848MOL0     H11896   3.069  12.575   1.313 -2.6395 -0.0445  0.7507
  848MOL0     H11897   2.977  12.463   1.402 -0.3414  0.0996 -0.2176
  848MOL0     H11898   2.731  12.468   1.038  0.9655 -1.1337  0.0608
  848MOL0     H11899   2.503  12.535   1.050  0.7519 -1.6677 -0.5353
  848MOL0     H11900   2.248  12.776   1.542 -2.0937  0.6920  3.7592
  848MOL0     H11901   1.999  12.844   1.578 -1.3618 -0.9234  0.5391
  848MOL0     H11902   1.667  12.585   1.435  0.0453 -0.1783  0.0991
  848MOL0     H11903   1.650  12.722   1.333 -0.5986 -0.5162 -1.4753
  848MOL0     H11904   1.575  12.862   1.546  3.6901 -0.6137  0.1122
  848MOL0     H11905   1.582  12.702   1.629  2.7913 -1.4966 -1.2186
  848MOL0     H11906   1.400  12.618   1.472  2.3993  0.0480  0.4066
  848MOL0     H11907   1.426  12.759   1.370 -1.8484  0.8101  0.6791
  848MOL0     H11908   1.313  12.774   1.660 -2.8710 -1.8173 -0.0408
  848MOL0     H11909   1.325  12.898   1.544  2.7532  0.2699 -2.4348
  848MOL0     H11910   1.165  12.800   1.385 -1.2278  0.2940  0.4312
  848MOL0     H11911   1.097  12.850   1.534 -2.5822 -0.2524 -2.8011
  848MOL0     H11912   1.126  12.615   1.629  1.9943  2.0618  0.6964
  848MOL0     H11913   1.184  12.553   1.475 -2.4434 -2.6658  2.3250
  848MOL0     H11914   0.974  12.655   1.379  0.0389 -1.1969 -0.5886
  848MOL0     H11915   0.976  12.502   1.465  2.2393 -0.2650  0.8939
  848MOL0     H11916   0.870  12.767   1.566 -0.0054  0.9451  0.5422
  848MOL0     H11917   0.908  12.612   1.667 -0.2674 -5.2340 -2.3625
  848MOL0     H11918   1.867  12.528   1.334 -0.2785  2.9104 -2.4807
  848MOL0     H11919   2.092  12.454   1.297 -0.1774 -0.2381  0.6678
  848MOL0     H11920   2.539  12.607   1.470  0.7166  0.8945 -0.0427
  848MOL0     H11921   2.799  12.581   1.452  0.9633 -0.0023 -1.7125
  848MOL0     H11922   3.533  10.873   1.007  0.7992  1.0921  1.4244
  848MOL0     H11923   3.777  10.866   0.959  0.6869 -0.8146 -0.1675
  848MOL0     H11924   4.097  11.164   0.761 -0.0525 -2.4659 -0.5292
  848MOL0     H11925   4.317  11.239   0.791  2.6587 -0.5996  2.0387
  848MOL0     H11926   4.470  11.288   0.965  1.7855 -0.9064  1.7725
  848MOL0     H11927   4.552  11.309   0.827  2.9193  0.1156  0.1937
  848MOL0     H11928   4.762  11.178   0.949  1.6841  0.1232 -0.0441
  848MOL0     H11929   4.715  11.340   1.019 -2.3468  0.3467 -0.2549
  848MOL0     H11930   4.764  11.187   1.188 -0.2787  0.4107  0.4985
  848MOL0     H11931   4.650  11.067   1.104 -2.3830  0.3604 -1.1921
  848MOL0     H11932   4.570  11.199   1.326 -1.1388 -2.0333  0.3982
  848MOL0     H11933   4.534  11.328   1.197 -0.2407  0.5433 -1.0322
  848MOL0     H11934   4.209  11.078   1.121  0.4404 -0.9078 -1.4862
  848MOL0     H11935   4.450  10.840   0.877  0.0079 -0.7798 -1.5113
  848MOL0     H11936   4.214  10.760   0.884 -0.3519  0.0237  0.5400
  849MOL0     O11937   1.226   1.296   2.609  0.4089  0.2902  0.2154
  849MOL0     C11938   1.269   1.205   2.541 -1.2707 -0.4207 -0.2591
  849MOL0     O11939   1.200   1.089   2.520 -0.0472  0.0643 -0.0454
  849MOL0     C11940   1.074   1.087   2.547  0.9871 -0.0404  0.0963
  849MOL0     C11941   0.976   1.112   2.448  0.1410 -0.5402  0.4490
  849MOL0     C11942   0.841   1.091   2.482 -0.2769 -0.6469  0.0642
  849MOL0     C11943   0.809   1.041   2.615  0.0619  0.3370  0.8221
  849MOL0     O11944   0.680   1.020   2.647  0.1800 -0.6997 -0.4619
  849MOL0     C11945   0.613   0.924   2.567 -0.1327 -0.5034 -0.8196
  849MOL0     C11946   0.541   0.821   2.660 -0.7353  0.3707 -0.5090
  849MOL0     C11947   0.459   0.725   2.573  0.1207  0.3740 -0.5085
  849MOL0     C11948   0.401   0.610   2.663 -0.1486 -0.1210  0.6578
  849MOL0     C11949   0.263   0.637   2.717 -0.2476 -0.2045 -0.3649
  849MOL0     C11950   0.214   0.543   2.816 -1.0322 -0.1310 -0.5282
  849MOL0     C11951   0.078   0.587   2.889 -0.2101 -0.2123  0.8635
  849MOL0     C11952   0.073   0.529   3.028  0.5421  1.0273  1.0019
  849MOL0     N11953  -0.049   0.564   3.100  0.2969  0.5860  0.1962
  849MOL0     C11954  -0.097   0.692   3.116 -0.8653  0.3841  0.4496
  849MOL0     C11955  -0.223   0.678   3.144  0.4664  0.2763  0.2517
  849MOL0     C11956  -0.330   0.783   3.136 -0.0007 -0.4585 -0.1063
  849MOL0     C11957  -0.460   0.744   3.199 -0.1133  0.2299 -1.5014
  849MOL0     C11958  -0.570   0.838   3.160  0.0994 -0.3087 -0.0734
  849MOL0     C11959  -0.707   0.778   3.201 -0.4000 -0.3601 -0.1927
  849MOL0     O11960  -0.713   0.767   3.344 -0.0044  0.3079  1.4724
  849MOL0     C11961  -0.840   0.772   3.397 -0.1468 -0.3329 -0.4119
  849MOL0     C11962  -0.939   0.672   3.375 -0.5546  0.2931  0.2466
  849MOL0     C11963  -1.068   0.690   3.429 -0.9978  0.3526 -0.1113
  849MOL0     C11964  -1.104   0.800   3.502  1.1737  0.4499 -0.7013
  849MOL0     C11965  -1.232   0.819   3.561  0.0869  0.6528  0.1285
  849MOL0     O11966  -1.324   0.718   3.550  0.1668  0.6301 -0.6173
  849MOL0     C11967  -1.451   0.735   3.595  0.0740 -0.0791  0.6517
  849MOL0     C11968  -1.531   0.848   3.561  0.3236 -0.5973  0.1980
  849MOL0     C11969  -1.664   0.851   3.598  0.2524  0.4311 -1.6216
  849MOL0     C11970  -1.723   0.751   3.681 -1.0579  0.3359 -0.7380
  849MOL0     O11971  -1.856   0.749   3.723  0.7316  0.7247  0.7363
  849MOL0     C11972  -1.948   0.754   3.612 -0.1232 -0.2035  0.4523
  849MOL0     C11973  -2.080   0.813   3.647 -0.4849 -0.8283  0.7730
  849MOL0     C11974  -2.182   0.813   3.537  0.0235  0.1089  1.2405
  849MOL0     C11975  -2.126   0.895   3.407  0.2043  1.1844 -0.6944
  849MOL0     C11976  -2.228   0.921   3.296 -0.4203  0.5466 -0.2620
  849MOL0     C11977  -2.333   1.025   3.339 -0.0985 -0.5638  0.5666
  849MOL0     C11978  -2.426   1.049   3.217 -0.8279  0.7870  0.4929
  849MOL0     C11979  -2.520   1.164   3.246 -0.2710 -0.1007  0.0246
  849MOL0    Cl11980  -2.427   1.316   3.255 -0.4984  0.7707  0.2554
  849MOL0     C11981  -1.631   0.657   3.730  0.0951 -0.1896  0.5673
  849MOL0     C11982  -1.505   0.643   3.686 -0.2682 -0.3797 -0.6600
  849MOL0     O11983  -1.257   0.921   3.621 -0.0700  0.0858  0.1909
  849MOL0     C11984  -1.010   0.904   3.512  0.3124 -0.6067  0.2655
  849MOL0     C11985  -0.878   0.887   3.471 -1.2485  0.0103 -1.2942
  849MOL0     N11986  -0.260   0.540   3.152 -0.1939 -0.3912 -0.3363
  849MOL0     N11987  -0.147   0.471   3.128  0.0860 -1.0225 -0.0103
  849MOL0     C11988   0.911   1.018   2.713 -0.8437  0.2706  0.7178
  849MOL0     C11989   1.041   1.044   2.671  0.1583  0.1269  0.9632
  849MOL0     C11990   1.416   1.219   2.498 -0.1537 -0.7952  0.3274
  849MOL0     C11991   1.470   1.109   2.428 -0.2249 -0.4309  1.0768
  849MOL0     C11992   1.614   1.105   2.388  0.7479  0.0858 -0.4861
  849MOL0     C11993   1.700   1.199   2.437 -0.1764 -0.5729 -0.0301
  849MOL0     O11994   1.832   1.175   2.428  0.8356 -1.1330  1.0417
  849MOL0     C11995   1.925   1.279   2.469  0.6956  0.2667 -0.3898
  849MOL0     C11996   2.065   1.261   2.422 -0.0191 -0.1661  0.3507
  849MOL0     C11997   2.113   1.122   2.455  0.4329  0.3128 -0.6398
  849MOL0     C11998   2.241   1.082   2.390 -1.1947  0.1022  0.6059
  849MOL0     C11999   2.355   1.181   2.414 -0.9299 -0.6964  0.7072
  849MOL0     C12000   2.439   1.275   2.424  0.2969  0.1155  0.8005
  849MOL0     C12001   1.645   1.306   2.507  0.6757  0.2550 -0.7837
  849MOL0     C12002   1.502   1.320   2.532 -0.5178  0.9046 -0.1683
  849MOL0     H12003   1.007   1.151   2.351 -0.3662 -2.0858 -0.3709
  849MOL0     H12004   0.764   1.108   2.408  0.7168  1.1896 -0.6019
  849MOL0     H12005   0.681   0.870   2.499  1.0758 -0.7043  0.4966
  849MOL0     H12006   0.539   0.980   2.509  0.4443  1.6907  0.4475
  849MOL0     H12007   0.488   0.889   2.727 -0.6679 -0.4796  0.4357
  849MOL0     H12008   0.619   0.767   2.715  1.0573  1.8919 -1.4407
  849MOL0     H12009   0.522   0.696   2.488  4.4702  2.7336  1.5741
  849MOL0     H12010   0.373   0.781   2.535  0.3488  1.5494  0.6210
  849MOL0     H12011   0.404   0.522   2.599 -0.0569 -0.0299  0.5357
  849MOL0     H12012   0.470   0.597   2.747 -2.5812  1.6338  3.1229
  849MOL0     H12013   0.195   0.634   2.631  1.5933 -4.0037 -1.9279
  849MOL0     H12014   0.256   0.740   2.753  1.6290 -0.3268  0.4837
  849MOL0     H12015   0.293   0.513   2.886 -2.9639  0.6790  2.1581
  849MOL0     H12016   0.188   0.456   2.757  2.3806 -3.4401  2.3287
  849MOL0     H12017   0.084   0.696   2.902  2.0471 -0.4277  2.1983
  849MOL0     H12018  -0.016   0.563   2.839 -0.7419 -1.1894  2.2636
  849MOL0     H12019   0.162   0.564   3.082  2.3079 -2.3418  0.5899
  849MOL0     H12020   0.080   0.420   3.018 -1.5429  0.9763 -0.7666
  849MOL0     H12021  -0.055   0.790   3.097  0.2772  0.3983  2.6879
  849MOL0     H12022  -0.343   0.811   3.031  2.2353 -0.5307 -0.4600
  849MOL0     H12023  -0.299   0.876   3.184 -0.7357 -0.4387  0.3395
  849MOL0     H12024  -0.460   0.741   3.308 -2.3984 -0.2351 -1.4667
  849MOL0     H12025  -0.482   0.644   3.162  0.4139 -0.3209 -0.3785
  849MOL0     H12026  -0.556   0.930   3.218  0.7211 -0.4334 -0.0152
  849MOL0     H12027  -0.566   0.865   3.054  2.2682 -1.0985 -0.2405
  849MOL0     H12028  -0.718   0.679   3.156  3.3113 -1.7817  1.6041
  849MOL0     H12029  -0.779   0.848   3.158 -0.2867  1.8228  2.8669
  849MOL0     H12030  -0.905   0.581   3.327  0.2730 -1.6077  4.0402
  849MOL0     H12031  -1.139   0.609   3.415 -0.5142 -0.3901  1.4683
  849MOL0     H12032  -1.495   0.924   3.492  2.5722 -0.5549  1.3210
  849MOL0     H12033  -1.719   0.943   3.580 -1.7079 -0.3587 -0.0870
  849MOL0     H12034  -1.970   0.655   3.571 -0.5930 -0.4271  1.2171
  849MOL0     H12035  -1.899   0.809   3.531  0.9656  1.3554  2.1020
  849MOL0     H12036  -2.065   0.919   3.670 -0.6538 -0.8028  0.7635
  849MOL0     H12037  -2.132   0.761   3.728  0.8066 -1.7117  1.0560
  849MOL0     H12038  -2.269   0.876   3.561 -0.0782  1.2227 -1.7068
  849MOL0     H12039  -2.214   0.712   3.511  1.5853  0.4496 -2.6384
  849MOL0     H12040  -2.088   0.989   3.449  0.8579  0.8349 -0.4855
  849MOL0     H12041  -2.038   0.854   3.357  1.6999 -0.3491  2.8441
  849MOL0     H12042  -2.274   0.826   3.267 -1.7308  0.7408  1.0438
  849MOL0     H12043  -2.164   0.962   3.218  2.5941  0.7885  2.1464
  849MOL0     H12044  -2.278   1.116   3.364 -1.3981 -0.0003  1.4232
  849MOL0     H12045  -2.392   0.990   3.424  1.0678 -0.7894  1.3130
  849MOL0     H12046  -2.369   1.078   3.128 -2.7380  1.4668 -0.5650
  849MOL0     H12047  -2.485   0.958   3.202  1.8155 -0.8793 -0.5184
  849MOL0     H12048  -2.569   1.151   3.343  2.9745 -1.6499  1.6181
  849MOL0     H12049  -2.595   1.165   3.166 -0.3921  1.4168  0.1335
  849MOL0     H12050  -1.685   0.582   3.788  0.9175 -0.8814  0.4500
  849MOL0     H12051  -1.447   0.563   3.730  1.5632  1.4507  0.4008
  849MOL0     H12052  -1.034   1.001   3.553  1.0743  0.4190 -1.6081
  849MOL0     H12053  -0.807   0.961   3.505 -1.8731 -0.5653  1.5233
  849MOL0     H12054   0.896   0.986   2.816  2.4080  2.7615  2.1601
  849MOL0     H12055   1.130   1.024   2.730 -0.1868 -4.1806  0.3220
  849MOL0     H12056   1.418   1.027   2.380  2.1083 -1.7782  0.6799
  849MOL0     H12057   1.653   1.012   2.348  1.7402  0.5624 -0.6735
  849MOL0     H12058   1.928   1.264   2.577 -1.1398 -1.4079 -0.5346
  849MOL0     H12059   1.898   1.381   2.439  1.6485  1.3636  2.1773
  849MOL0     H12060   2.084   1.278   2.315  3.3008  0.4079  0.9172
  849MOL0     H12061   2.127   1.334   2.475  1.1159 -1.0596  0.2935
  849MOL0     H12062   2.037   1.052   2.418 -1.5156  3.0544 -2.2217
  849MOL0     H12063   2.128   1.120   2.563 -1.6101  4.5154 -0.0838
  849MOL0     H12064   2.261   0.987   2.440  0.8077 -0.4260 -1.0922
  849MOL0     H12065   2.225   1.049   2.287 -0.8284  0.1525  0.5326
  849MOL0     H12066   2.517   1.344   2.450  1.9114 -2.0577  2.0756
  849MOL0     H12067   1.708   1.390   2.536  1.2615 -1.0189  1.8936
  849MOL0     H12068   1.477   1.413   2.582  0.5900  0.8673  0.5076
  850MOL0     O12069   5.743  10.484   9.683 -0.1327  0.1877  0.1399
  850MOL0     C12070   5.803  10.512   9.791  0.3713 -0.3672  0.4332
  850MOL0     O12071   5.920  10.461   9.827 -0.5817 -0.2321  0.3158
  850MOL0     C12072   5.982  10.350   9.771 -0.4172  0.0876  0.0355
  850MOL0     C12073   5.949  10.261   9.671 -0.1396  0.7012  0.1644
  850MOL0     C12074   6.020  10.143   9.646 -0.8613 -0.4150  0.3232
  850MOL0     C12075   6.139  10.119   9.718  0.3111  0.1076 -0.1396
  850MOL0     O12076   6.206  10.008   9.673  0.3221  0.3888  0.0021
  850MOL0     C12077   6.336   9.963   9.719  0.7708  0.6436 -0.1525
  850MOL0     C12078   6.381   9.855   9.627  0.8344  0.4612  0.5626
  850MOL0     C12079   6.529   9.848   9.635  0.3087  0.1014  0.2763
  850MOL0     C12080   6.590   9.849   9.775  0.6837  0.9101  0.7869
  850MOL0     C12081   6.728   9.772   9.768  1.1109  0.0362 -0.0722
  850MOL0     C12082   6.838   9.855   9.694 -0.4654  0.4057 -0.0631
  850MOL0     C12083   6.982   9.792   9.711  0.3257 -0.4836 -0.2664
  850MOL0     C12084   7.013   9.750   9.860  0.2927 -0.7981  0.5302
  850MOL0     N12085   7.158   9.735   9.873 -0.1797 -0.1538 -0.4765
  850MOL0     C12086   7.248   9.822   9.919  0.4176  0.3843 -0.3594
  850MOL0     C12087   7.368   9.755   9.934  0.4331  0.6598  0.3503
  850MOL0     C12088   7.501   9.802   9.971  0.9495  0.2699  0.4907
  850MOL0     C12089   7.556   9.884   9.854  0.2219  0.3258 -0.0353
  850MOL0     C12090   7.573  10.034   9.876  0.3109 -0.4688  0.3585
  850MOL0     C12091   7.594  10.105   9.733  0.0153  0.0043  0.0515
  850MOL0     O12092   7.494  10.072   9.631 -0.1549  1.1917 -0.2087
  850MOL0     C12093   7.359  10.109   9.642 -0.4225  0.1920  0.0391
  850MOL0     C12094   7.269  10.053   9.549 -0.3682  0.0614 -0.0521
  850MOL0     C12095   7.131  10.087   9.527  0.2988 -0.1338 -0.6488
  850MOL0     C12096   7.079  10.183   9.612 -0.0395  0.2951 -0.0175
  850MOL0     C12097   6.933  10.234   9.602 -0.7707 -0.5650 -0.2628
  850MOL0     O12098   6.866  10.172   9.510  0.6548 -0.2865 -0.0527
  850MOL0     C12099   6.747  10.234   9.487  0.1324 -0.4684  0.5306
  850MOL0     C12100   6.722  10.291   9.364  0.6225 -0.2463  1.3872
  850MOL0     C12101   6.595  10.350   9.345  0.7944  0.7046  0.1833
  850MOL0     C12102   6.496  10.350   9.446  0.2134  0.5664  0.2599
  850MOL0     O12103   6.380  10.417   9.419  1.0423  0.3551  0.4888
  850MOL0     C12104   6.359  10.535   9.483 -0.7854  0.0369 -0.3162
  850MOL0     C12105   6.354  10.651   9.374 -0.0773  0.9575  0.9133
  850MOL0     C12106   6.214  10.667   9.316 -0.7757 -0.7955 -0.6509
  850MOL0     C12107   6.127  10.546   9.274 -0.2402 -0.5547 -0.0353
  850MOL0     C12108   5.991  10.581   9.225  0.6381 -0.8570 -0.3763
  850MOL0     C12109   5.890  10.592   9.338 -0.1299 -1.1747 -0.5110
  850MOL0     C12110   5.769  10.678   9.308 -0.3950 -0.5534 -0.0730
  850MOL0     C12111   5.661  10.676   9.421  0.8808  0.2110 -0.6150
  850MOL0    Cl12112   5.497  10.749   9.371 -0.1171  0.0428 -0.1857
  850MOL0     C12113   6.522  10.282   9.564 -0.5237  0.0684  0.2340
  850MOL0     C12114   6.648  10.221   9.574  0.1587 -0.0907 -1.0223
  850MOL0     O12115   6.906  10.345   9.657  0.3982  1.0668 -0.2901
  850MOL0     C12116   7.163  10.231   9.714  0.0303 -0.5840  0.3192
  850MOL0     C12117   7.302  10.195   9.730  0.9423  0.9844  0.9273
  850MOL0     N12118   7.332   9.619   9.917 -0.4114  0.3970  0.0825
  850MOL0     N12119   7.216   9.612   9.871 -0.4467 -0.4541  0.4923
  850MOL0     C12120   6.175  10.206   9.812 -0.2430  0.0755 -0.9313
  850MOL0     C12121   6.097  10.313   9.845  0.3327 -0.8666 -1.1645
  850MOL0     C12122   5.734  10.603   9.874  0.0180  0.4686  0.6284
  850MOL0     C12123   5.773  10.616  10.008 -0.6145 -0.3376 -0.3389
  850MOL0     C12124   5.718  10.712  10.091 -0.0605 -0.2845  0.3864
  850MOL0     C12125   5.615  10.789  10.046 -0.2717 -0.1166  0.8443
  850MOL0     O12126   5.553  10.867  10.135  0.2005  0.5482  0.0072
  850MOL0     C12127   5.489  10.984  10.081 -0.5187 -0.1810 -0.7520
  850MOL0     C12128   5.479  11.095  10.193 -0.2256 -0.2872 -0.0404
  850MOL0     C12129   5.389  11.213  10.155 -0.1432  0.1087  0.9546
  850MOL0     C12130   5.240  11.193  10.146  0.3637  0.6387  0.0614
  850MOL0     C12131   5.198  11.166  10.290  0.5070 -0.1605 -0.3520
  850MOL0     C12132   5.152  11.155  10.400 -0.1772  0.5919 -0.9017
  850MOL0     C12133   5.573  10.777   9.909  0.6433 -0.8288 -0.5941
  850MOL0     C12134   5.630  10.687   9.824 -0.0017  0.2523  0.5429
  850MOL0     H12135   5.862  10.281   9.608 -0.2766  0.6496  0.3351
  850MOL0     H12136   5.977  10.084   9.567  1.0840 -1.0992 -0.2765
  850MOL0     H12137   6.336   9.928   9.822  0.0468  0.5791 -0.1708
  850MOL0     H12138   6.400  10.052   9.713 -0.1817  1.3037 -0.7100
  850MOL0     H12139   6.337   9.879   9.530  0.4568  2.7622  1.2190
  850MOL0     H12140   6.347   9.757   9.661  1.6079 -0.2159 -0.5506
  850MOL0     H12141   6.559   9.941   9.587 -0.0993  0.2936  0.3899
  850MOL0     H12142   6.561   9.755   9.587  2.6815  1.0581 -0.1123
  850MOL0     H12143   6.611   9.952   9.807  0.7587  0.9814  0.5086
  850MOL0     H12144   6.527   9.810   9.856 -0.9835  0.2590 -0.7653
  850MOL0     H12145   6.719   9.669   9.732 -0.0333 -0.6651  2.0089
  850MOL0     H12146   6.760   9.767   9.873  0.3099 -1.4581  0.1323
  850MOL0     H12147   6.839   9.959   9.727 -0.4505 -0.3600  2.5967
  850MOL0     H12148   6.819   9.856   9.586 -0.3136  0.1885 -0.0959
  850MOL0     H12149   6.980   9.709   9.641 -1.8326 -2.1941  1.6527
  850MOL0     H12150   7.062   9.865   9.693 -1.5457  2.5514  2.5831
  850MOL0     H12151   6.973   9.648   9.859 -1.3041 -0.3056 -3.2348
  850MOL0     H12152   6.961   9.819   9.927 -1.4048  1.7487 -3.0407
  850MOL0     H12153   7.236   9.927   9.944  0.6885  0.7493 -1.6583
  850MOL0     H12154   7.568   9.718   9.993 -1.0601 -1.4582  0.2272
  850MOL0     H12155   7.498   9.857  10.065  2.1248  0.2903  0.5397
  850MOL0     H12156   7.491   9.873   9.767 -0.0622 -1.2884  0.3358
  850MOL0     H12157   7.648   9.833   9.823 -1.5962 -0.8362 -4.1272
  850MOL0     H12158   7.487  10.076   9.930  1.5049  4.1495 -0.8835
  850MOL0     H12159   7.659  10.064   9.937  0.1847 -2.7156  1.7460
  850MOL0     H12160   7.696  10.079   9.703 -0.9428 -2.3792 -1.3934
  850MOL0     H12161   7.591  10.214   9.744 -0.1460  0.3051 -2.4446
  850MOL0     H12162   7.307   9.961   9.505  1.9785  0.5533  0.7997
  850MOL0     H12163   7.070  10.037   9.452 -0.8571 -0.2563  0.3388
  850MOL0     H12164   6.807  10.299   9.297  0.6640 -0.6399  1.3947
  850MOL0     H12165   6.577  10.401   9.252 -2.3766  0.7985  0.7415
  850MOL0     H12166   6.437  10.551   9.557  1.5233 -2.5715 -1.9713
  850MOL0     H12167   6.268  10.520   9.541  1.9990 -2.0892  3.9931
  850MOL0     H12168   6.419  10.647   9.286 -0.9972  3.4107  0.0374
  850MOL0     H12169   6.380  10.742   9.428  0.0493  0.2875  2.0083
  850MOL0     H12170   6.223  10.741   9.235 -0.9772  2.1064  1.8258
  850MOL0     H12171   6.153  10.708   9.397  2.0773 -0.7478  1.6305
  850MOL0     H12172   6.178  10.506   9.185 -0.3011  0.1545 -0.3938
  850MOL0     H12173   6.119  10.468   9.351 -0.4874 -2.5614 -1.9868
  850MOL0     H12174   5.963  10.506   9.150  1.6186  0.1742 -1.8316
  850MOL0     H12175   6.007  10.675   9.171  1.0879  0.7597  2.4052
  850MOL0     H12176   5.947  10.640   9.417  2.8547 -2.8789 -1.4913
  850MOL0     H12177   5.870  10.492   9.378 -0.1583 -1.3953 -1.0634
  850MOL0     H12178   5.799  10.782   9.290  0.9636 -1.3069 -2.6596
  850MOL0     H12179   5.726  10.641   9.214 -1.8974  1.2801 -0.1731
  850MOL0     H12180   5.708  10.727   9.506 -1.1471  3.0975 -1.0767
  850MOL0     H12181   5.634  10.577   9.462 -1.6620  1.7695  1.8723
  850MOL0     H12182   6.456  10.289   9.649 -0.9860  0.6407 -0.1620
  850MOL0     H12183   6.667  10.171   9.668  2.6338 -0.2903 -1.5603
  850MOL0     H12184   7.118  10.307   9.776  2.2252  3.5697 -2.7083
  850MOL0     H12185   7.354  10.249   9.808  0.7975  0.5171  1.3483
  850MOL0     H12186   6.265  10.185   9.869 -0.4185 -0.7205 -0.9406
  850MOL0     H12187   6.124  10.373   9.931 -3.1763 -2.4162  1.2419
  850MOL0     H12188   5.859  10.560  10.042  0.7617  1.4836 -0.6845
  850MOL0     H12189   5.737  10.728  10.197  0.3221  1.1907  0.1241
  850MOL0     H12190   5.389  10.954  10.045  0.2058 -0.6752 -2.4962
  850MOL0     H12191   5.536  11.034   9.995 -0.4228  0.6461 -0.2235
  850MOL0     H12192   5.443  11.044  10.283  1.3288  1.5449  1.7012
  850MOL0     H12193   5.576  11.140  10.213 -0.3612 -0.6449  1.6214
  850MOL0     H12194   5.431  11.254  10.063  2.8242  0.4707  2.3605
  850MOL0     H12195   5.403  11.299  10.222  0.3975 -1.2171  2.6260
  850MOL0     H12196   5.187  11.279  10.104 -1.7262 -0.2135  0.8224
  850MOL0     H12197   5.201  11.109  10.089  0.0645  1.7588 -1.4572
  850MOL0     H12198   5.113  11.124  10.495  1.1653  1.7677  0.0968
  850MOL0     H12199   5.486  10.828   9.868  3.4050  1.0090 -4.8808
  850MOL0     H12200   5.602  10.686   9.720  2.1878  1.1114 -0.1060
  851MOL0     O12201   1.531   3.223   3.267 -0.6494  1.0459 -0.0164
  851MOL0     C12202   1.569   3.192   3.381  1.0843 -0.1146  0.3619
  851MOL0     O12203   1.503   3.232   3.494  0.1162 -1.4321  0.9304
  851MOL0     C12204   1.368   3.227   3.494  1.1220 -0.5937  0.2334
  851MOL0     C12205   1.297   3.112   3.526  0.3720 -0.5552  1.6463
  851MOL0     C12206   1.162   3.136   3.565  0.1281 -0.1192  0.2168
  851MOL0     C12207   1.094   3.257   3.562 -0.6576  0.1966  0.0096
  851MOL0     O12208   0.970   3.278   3.612 -0.6168 -0.1277  0.0074
  851MOL0     C12209   0.876   3.176   3.590 -0.0713 -0.4092 -0.3076
  851MOL0     C12210   0.746   3.228   3.651  0.3011  0.1310  1.0428
  851MOL0     C12211   0.647   3.117   3.688 -0.5172 -0.0318  0.2541
  851MOL0     C12212   0.517   3.188   3.724 -0.0481 -0.0174  0.6245
  851MOL0     C12213   0.400   3.081   3.733 -0.4196  0.3939 -0.5377
  851MOL0     C12214   0.383   3.025   3.872  0.5691 -0.0338  0.5771
  851MOL0     C12215   0.279   2.910   3.875 -0.2440  0.3669 -0.1347
  851MOL0     C12216   0.258   2.863   4.016  0.9503  0.5906 -0.5786
  851MOL0     N12217   0.221   2.970   4.104 -0.1759  0.1646  0.2382
  851MOL0     C12218   0.103   3.034   4.107  0.0041 -0.1924 -0.6356
  851MOL0     C12219   0.124   3.134   4.200  0.1379  1.1176 -0.2530
  851MOL0     C12220   0.018   3.224   4.254  0.5704 -0.9874  0.2258
  851MOL0     C12221   0.065   3.369   4.230 -0.0739  0.2848 -0.6526
  851MOL0     C12222  -0.007   3.477   4.312 -0.3404 -1.2523 -0.3773
  851MOL0     C12223  -0.160   3.483   4.302 -0.2914 -0.3018 -0.1430
  851MOL0     O12224  -0.209   3.504   4.163  0.9323  0.7960  0.1397
  851MOL0     C12225  -0.347   3.532   4.154  0.4499  0.0831  0.6951
  851MOL0     C12226  -0.403   3.501   4.027 -0.1761 -0.3986  0.6246
  851MOL0     C12227  -0.536   3.539   3.998 -0.9077  0.3774  0.2015
  851MOL0     C12228  -0.615   3.600   4.092 -0.0170 -0.1119  0.5595
  851MOL0     C12229  -0.755   3.639   4.062  0.2953  0.4424 -0.2513
  851MOL0     O12230  -0.841   3.680   4.158 -0.3397  0.1109  0.5579
  851MOL0     C12231  -0.983   3.689   4.149 -1.2406 -0.3930  0.6253
  851MOL0     C12232  -1.048   3.721   4.269  0.3612 -0.5045 -0.1542
  851MOL0     C12233  -1.184   3.739   4.270 -0.3062  1.1650 -0.0537
  851MOL0     C12234  -1.265   3.729   4.163  0.2127  1.0397 -0.0744
  851MOL0     O12235  -1.399   3.748   4.175  0.5689  0.3155 -0.6902
  851MOL0     C12236  -1.470   3.756   4.057 -0.1280 -0.6073  0.4837
  851MOL0     C12237  -1.626   3.765   4.069  0.0230  0.0532  0.2476
  851MOL0     C12238  -1.695   3.781   3.938  1.0448  0.1248 -0.3835
  851MOL0     C12239  -1.839   3.813   3.974  0.0557  0.8144 -0.4719
  851MOL0     C12240  -1.918   3.850   3.847 -0.1527  0.3007  0.3468
  851MOL0     C12241  -2.066   3.848   3.882  0.3468 -0.6199 -0.3815
  851MOL0     C12242  -2.163   3.851   3.761 -0.4096 -0.2627  0.6184
  851MOL0     C12243  -2.305   3.889   3.797 -0.1820 -0.2417 -0.1348
  851MOL0    Cl12244  -2.320   4.062   3.840 -0.1866  0.0767  0.4116
  851MOL0     C12245  -1.200   3.697   4.043 -0.1906 -0.1791  0.0775
  851MOL0     C12246  -1.062   3.678   4.036  0.5807 -0.1339 -0.4991
  851MOL0     O12247  -0.790   3.611   3.949  0.0879  0.2155 -0.6638
  851MOL0     C12248  -0.561   3.613   4.224 -0.5210 -0.3893  0.3124
  851MOL0     C12249  -0.429   3.578   4.249 -0.1544 -0.6860 -0.2912
  851MOL0     N12250   0.240   3.109   4.261  0.3474  0.0363  0.1872
  851MOL0     N12251   0.301   3.013   4.208 -0.1938  0.3109  0.1115
  851MOL0     C12252   1.170   3.370   3.515 -0.6738  0.0187 -0.2216
  851MOL0     C12253   1.301   3.350   3.486 -0.0603 -0.2183  1.0896
  851MOL0     C12254   1.684   3.111   3.400  0.4821  0.7609 -0.8073
  851MOL0     C12255   1.688   3.038   3.522 -0.4034  0.3970 -0.0001
  851MOL0     C12256   1.807   2.974   3.543 -0.0622  0.1555 -0.8441
  851MOL0     C12257   1.919   2.968   3.455  0.7506  0.4520  0.4213
  851MOL0     O12258   2.034   2.907   3.485  0.5879  0.4170  0.1717
  851MOL0     C12259   2.080   2.910   3.623  0.2682  0.0010 -0.7560
  851MOL0     C12260   2.099   3.046   3.699  0.2362  0.5859 -0.0799
  851MOL0     C12261   2.205   3.135   3.631 -0.3653  0.2277 -0.0651
  851MOL0     C12262   2.336   3.084   3.672 -0.0381 -0.3018  0.4000
  851MOL0     C12263   2.451   3.173   3.630 -0.0988  0.0137  0.3957
  851MOL0     C12264   2.555   3.227   3.597 -0.0909  0.2507  0.0759
  851MOL0     C12265   1.908   3.026   3.336  0.1482 -0.5369  0.2541
  851MOL0     C12266   1.795   3.101   3.316  0.5329 -0.4703 -0.2364
  851MOL0     H12267   1.344   3.018   3.554 -2.9848 -2.8828  0.1825
  851MOL0     H12268   1.091   3.061   3.600 -2.1139  2.3521  1.2952
  851MOL0     H12269   0.900   3.090   3.653 -0.9034 -0.8597 -0.5986
  851MOL0     H12270   0.881   3.136   3.488  1.8030 -5.5107  1.4393
  851MOL0     H12271   0.695   3.291   3.577 -1.6399 -1.9784  0.4728
  851MOL0     H12272   0.768   3.292   3.738  2.9989  1.3142 -0.3628
  851MOL0     H12273   0.678   3.044   3.763 -0.4738 -1.8592 -1.4571
  851MOL0     H12274   0.632   3.055   3.599 -0.4851 -2.0690  1.5887
  851MOL0     H12275   0.528   3.252   3.812  2.2787  0.2027  0.2210
  851MOL0     H12276   0.486   3.264   3.652  0.4954 -1.2794 -1.0074
  851MOL0     H12277   0.410   2.999   3.661  3.3101  0.7350 -0.6012
  851MOL0     H12278   0.308   3.138   3.717 -0.2188  1.3799  1.4895
  851MOL0     H12279   0.348   3.105   3.939  2.7393  0.0055  1.7548
  851MOL0     H12280   0.480   2.983   3.899  0.6346 -0.6639 -0.5732
  851MOL0     H12281   0.188   2.948   3.828 -0.5507 -0.0406  0.1317
  851MOL0     H12282   0.324   2.823   3.826  0.9208  0.7211  0.2601
  851MOL0     H12283   0.349   2.816   4.055  1.3149  0.0126 -2.0848
  851MOL0     H12284   0.172   2.796   4.012  1.4192 -0.1032  0.5619
  851MOL0     H12285   0.008   3.025   4.056 -2.1575  0.5093  2.9513
  851MOL0     H12286   0.002   3.207   4.361 -0.1143 -2.3833 -0.0819
  851MOL0     H12287  -0.081   3.211   4.211  1.0858  3.1776 -2.8352
  851MOL0     H12288   0.063   3.381   4.121 -0.4006 -1.3251 -0.8532
  851MOL0     H12289   0.172   3.374   4.250 -0.3904  0.3838  1.2081
  851MOL0     H12290   0.019   3.491   4.417 -2.2032  0.8390 -0.1139
  851MOL0     H12291   0.013   3.571   4.260 -1.2556 -1.1939 -0.6411
  851MOL0     H12292  -0.208   3.562   4.360 -1.6541 -2.3961  1.7536
  851MOL0     H12293  -0.207   3.394   4.346  1.0417 -1.1999 -0.4964
  851MOL0     H12294  -0.338   3.461   3.950 -1.2147 -0.9235  0.0008
  851MOL0     H12295  -0.570   3.527   3.896 -0.2162  0.1021  0.0005
  851MOL0     H12296  -0.993   3.733   4.361 -2.0215 -2.4345  1.6520
  851MOL0     H12297  -1.235   3.753   4.365 -1.1800 -2.7407  0.2015
  851MOL0     H12298  -1.442   3.672   3.993  2.1177  1.1589 -1.0300
  851MOL0     H12299  -1.424   3.832   3.993 -0.0042 -3.0330 -2.5292
  851MOL0     H12300  -1.649   3.846   4.138  0.4634  0.7913 -0.4617
  851MOL0     H12301  -1.664   3.671   4.111 -1.0443  0.7068  0.7683
  851MOL0     H12302  -1.685   3.685   3.886 -2.2740 -1.0752  0.9589
  851MOL0     H12303  -1.645   3.859   3.878  0.4723  0.0481 -0.9753
  851MOL0     H12304  -1.881   3.724   4.023 -0.2309  0.0047 -2.1306
  851MOL0     H12305  -1.848   3.894   4.047  2.9089  1.7682 -1.0697
  851MOL0     H12306  -1.905   3.766   3.779  1.6438  1.0242 -0.2598
  851MOL0     H12307  -1.885   3.943   3.799  0.9093 -0.8227 -1.1921
  851MOL0     H12308  -2.103   3.925   3.949  0.7414 -0.5168 -0.2850
  851MOL0     H12309  -2.097   3.753   3.928  1.3283 -1.2626 -1.0046
  851MOL0     H12310  -2.129   3.921   3.684 -0.7056 -1.6494 -0.8549
  851MOL0     H12311  -2.178   3.753   3.713 -3.1366  0.4181 -0.1141
  851MOL0     H12312  -2.338   3.831   3.884 -3.2583 -0.4569 -1.3162
  851MOL0     H12313  -2.376   3.868   3.716 -0.6058  3.7802 -1.0147
  851MOL0     H12314  -1.243   3.717   3.945 -1.2645  0.9380  0.7505
  851MOL0     H12315  -1.029   3.658   3.935 -0.5471 -1.5185 -0.6261
  851MOL0     H12316  -0.615   3.646   4.311  0.9749 -2.0775  1.9873
  851MOL0     H12317  -0.401   3.595   4.353 -0.1299 -0.8476 -0.2711
  851MOL0     H12318   1.129   3.471   3.512  1.2703  0.8648  0.3566
  851MOL0     H12319   1.359   3.441   3.471  0.7025 -0.2251  3.6403
  851MOL0     H12320   1.613   3.049   3.599  0.0437  3.8815  0.1014
  851MOL0     H12321   1.818   2.932   3.643 -0.2113 -0.4005 -1.0558
  851MOL0     H12322   2.168   2.847   3.639 -0.8189 -0.8426  2.8804
  851MOL0     H12323   2.009   2.841   3.671  1.5321 -0.8864 -0.0935
  851MOL0     H12324   2.003   3.098   3.698  0.1821  0.5104 -1.4569
  851MOL0     H12325   2.131   3.010   3.797  1.0172  1.8977  0.1844
  851MOL0     H12326   2.209   3.239   3.664  3.6066  0.8354 -1.8720
  851MOL0     H12327   2.194   3.132   3.522 -0.1930  0.1465 -0.0807
  851MOL0     H12328   2.343   3.088   3.781  2.4431 -1.0571  0.3397
  851MOL0     H12329   2.341   2.979   3.643 -0.4661  0.0213 -0.9172
  851MOL0     H12330   2.649   3.260   3.556 -0.4473  0.3833 -0.6512
  851MOL0     H12331   1.982   3.027   3.256 -0.1993 -0.0200 -0.0690
  851MOL0     H12332   1.785   3.177   3.238 -0.1020  3.4563  3.3130
  852MOL0     O12333   9.206   3.157   0.780  0.1450 -0.3068 -0.2106
  852MOL0     C12334   9.150   3.132   0.887 -0.1427  0.3869  0.0403
  852MOL0     O12335   9.213   3.133   1.016 -0.2203 -0.0948 -0.3685
  852MOL0     C12336   9.331   3.196   1.025  0.3146  0.8390  0.2467
  852MOL0     C12337   9.333   3.293   1.121 -0.0007 -0.0897 -0.4457
  852MOL0     C12338   9.460   3.351   1.145 -0.7255 -0.3631  0.1915
  852MOL0     C12339   9.579   3.305   1.087 -0.4474  0.0144  0.0536
  852MOL0     O12340   9.701   3.357   1.125 -1.0232  0.5864  0.0440
  852MOL0     C12341   9.804   3.265   1.151 -0.5068 -0.1494  0.2411
  852MOL0     C12342   9.934   3.291   1.071 -0.0414  0.5354  0.3377
  852MOL0     C12343  10.038   3.173   1.093  0.5884  0.4874  0.3534
  852MOL0     C12344  10.157   3.185   1.000  0.6573  0.2603 -0.2140
  852MOL0     C12345  10.134   3.123   0.861  0.7003  0.2467  0.1960
  852MOL0     C12346  10.257   3.140   0.779  0.1241 -0.6267 -0.3025
  852MOL0     C12347  10.268   3.281   0.708 -0.5930 -0.6014 -0.1348
  852MOL0     C12348  10.170   3.298   0.591  0.2118 -0.8573 -0.6467
  852MOL0     N12349  10.028   3.344   0.616  0.6994 -0.7167 -0.0496
  852MOL0     C12350   9.991   3.443   0.707 -0.0106  0.0755 -0.1600
  852MOL0     C12351   9.860   3.449   0.679 -0.4947 -0.6322  0.1725
  852MOL0     C12352   9.765   3.531   0.759  0.5807 -0.2247 -0.6071
  852MOL0     C12353   9.626   3.486   0.745 -0.2488  0.1390  0.4890
  852MOL0     C12354   9.532   3.571   0.829  1.4507 -0.4916  0.2492
  852MOL0     C12355   9.386   3.529   0.802 -0.4224 -1.1070  0.7084
  852MOL0     O12356   9.354   3.534   0.658  0.0518 -0.8554  0.3084
  852MOL0     C12357   9.235   3.486   0.613  0.0191  0.4790  0.7508
  852MOL0     C12358   9.217   3.476   0.476  0.2208 -0.2785 -0.2637
  852MOL0     C12359   9.101   3.427   0.422 -0.6601  0.1957 -0.3390
  852MOL0     C12360   8.992   3.379   0.506  0.4957 -0.9849  0.3779
  852MOL0     C12361   8.856   3.339   0.445 -0.4755 -0.1618  0.0767
  852MOL0     O12362   8.779   3.256   0.514  0.6278 -0.2213 -0.1284
  852MOL0     C12363   8.660   3.233   0.451  0.0327 -0.5745 -0.4773
  852MOL0     C12364   8.613   3.104   0.438 -0.2202 -0.9844 -0.1319
  852MOL0     C12365   8.481   3.081   0.390  0.2588 -0.3559 -0.2127
  852MOL0     C12366   8.403   3.186   0.343  0.1999 -0.3512 -0.6177
  852MOL0     O12367   8.281   3.168   0.292  0.2324 -0.7046 -0.3914
  852MOL0     C12368   8.276   3.062   0.193 -0.0184 -0.2551 -0.6429
  852MOL0     C12369   8.179   2.954   0.246 -1.1546  0.1484  0.1912
  852MOL0     C12370   8.038   2.985   0.210 -0.2449  0.7206 -1.0856
  852MOL0     C12371   7.937   2.878   0.242  0.4861 -0.3502 -0.2241
  852MOL0     C12372   7.799   2.921   0.192 -1.0512 -0.1412 -0.0121
  852MOL0     C12373   7.705   2.808   0.245 -0.2731  0.0012 -0.4433
  852MOL0     C12374   7.569   2.841   0.196  0.8196  1.1301 -0.2633
  852MOL0     C12375   7.520   2.950   0.295  0.4892  0.0304 -0.4389
  852MOL0    Cl12376   7.361   3.016   0.242  0.3541  0.1156  0.2933
  852MOL0     C12377   8.448   3.314   0.366  0.2248  0.2803 -0.3152
  852MOL0     C12378   8.575   3.338   0.411  0.3630 -1.1729  0.2465
  852MOL0     O12379   8.834   3.379   0.334  0.2036 -0.3668  0.2254
  852MOL0     C12380   9.008   3.391   0.648 -0.6172 -0.3074 -0.4376
  852MOL0     C12381   9.130   3.447   0.700 -0.5313 -0.3144 -0.0748
  852MOL0     N12382   9.824   3.361   0.580  0.2806 -0.0762 -0.3023
  852MOL0     N12383   9.921   3.288   0.543 -1.0730 -0.2920 -0.3084
  852MOL0     C12384   9.569   3.197   1.002 -0.5119  0.3085  0.4056
  852MOL0     C12385   9.449   3.144   0.973 -0.4633  0.0903 -0.2576
  852MOL0     C12386   9.003   3.082   0.880 -0.1022 -0.9309  0.2486
  852MOL0     C12387   8.939   3.076   0.762 -0.0041 -0.5445 -0.0420
  852MOL0     C12388   8.796   3.037   0.757 -0.8930 -1.0365 -0.6891
  852MOL0     C12389   8.730   3.014   0.878 -0.6379  0.4691 -0.1234
  852MOL0     O12390   8.604   2.977   0.889  0.4511 -0.8476  0.0860
  852MOL0     C12391   8.531   2.931   0.767 -0.7862 -0.6845 -0.4020
  852MOL0     C12392   8.385   2.908   0.795 -0.0835 -0.0698 -0.3060
  852MOL0     C12393   8.307   2.852   0.679  0.5672  0.6965 -0.0149
  852MOL0     C12394   8.149   2.863   0.696  0.0471 -0.5449  0.6549
  852MOL0     C12395   8.091   2.755   0.781  0.3020  0.3244  0.4648
  852MOL0     C12396   8.099   2.664   0.854  0.6462 -0.3965  1.3296
  852MOL0     C12397   8.799   3.026   0.995 -0.7174  0.3833  0.4529
  852MOL0     C12398   8.934   3.060   0.998  0.4106  0.6443  0.1796
  852MOL0     H12399   9.249   3.315   1.185 -0.1169 -2.9251  0.5107
  852MOL0     H12400   9.457   3.428   1.222 -2.3072  2.2577 -2.2701
  852MOL0     H12401   9.780   3.160   1.133  0.5603 -0.3495 -0.1269
  852MOL0     H12402   9.836   3.271   1.255  0.6005  2.8024 -0.1896
  852MOL0     H12403   9.970   3.391   1.099 -1.7300  1.1440  0.4177
  852MOL0     H12404   9.909   3.279   0.966  2.8527  1.1404 -0.5185
  852MOL0     H12405   9.985   3.079   1.077  2.0085 -0.5310  1.4484
  852MOL0     H12406  10.075   3.180   1.196  4.0034  2.6964 -0.8542
  852MOL0     H12407  10.193   3.288   1.001  3.6656 -0.6394  2.2067
  852MOL0     H12408  10.241   3.129   1.044 -0.5206 -1.2427  0.2115
  852MOL0     H12409  10.057   3.179   0.808  0.4830  0.2115  0.4738
  852MOL0     H12410  10.111   3.016   0.870  4.0004 -0.5416  0.7698
  852MOL0     H12411  10.255   3.063   0.702  0.7783 -0.6332 -0.3197
  852MOL0     H12412  10.344   3.115   0.841  0.7136 -1.6111 -1.4875
  852MOL0     H12413  10.255   3.365   0.776 -0.9937  0.2968 -1.2928
  852MOL0     H12414  10.365   3.275   0.658 -1.9770 -0.7618 -3.0300
  852MOL0     H12415  10.160   3.203   0.538 -2.3930  0.1019 -2.0585
  852MOL0     H12416  10.212   3.377   0.529  0.2597 -0.2917  0.0907
  852MOL0     H12417  10.034   3.504   0.785 -1.2711  1.4144 -0.4601
  852MOL0     H12418   9.775   3.638   0.737 -0.6704  0.0679  0.1330
  852MOL0     H12419   9.805   3.520   0.860  0.0911  1.3328 -0.2184
  852MOL0     H12420   9.610   3.386   0.788  0.1248  1.2061  3.3465
  852MOL0     H12421   9.602   3.486   0.638  2.4883  0.8870 -0.2208
  852MOL0     H12422   9.553   3.550   0.934  2.3421 -0.7607  0.0225
  852MOL0     H12423   9.547   3.679   0.815  2.4329 -0.8451 -1.7717
  852MOL0     H12424   9.329   3.605   0.855 -1.0386 -0.1399 -1.2491
  852MOL0     H12425   9.367   3.428   0.840  0.2600 -1.9258 -1.0334
  852MOL0     H12426   9.303   3.504   0.416 -1.1646  0.1047 -2.1631
  852MOL0     H12427   9.093   3.431   0.314 -1.8422 -0.0066 -0.2729
  852MOL0     H12428   8.664   3.016   0.476 -0.8143 -0.6638  1.4718
  852MOL0     H12429   8.442   2.980   0.376 -1.8186  0.4012 -0.1671
  852MOL0     H12430   8.371   3.011   0.174 -1.0784 -3.5936  2.0473
  852MOL0     H12431   8.244   3.101   0.096  0.7896 -0.7299 -1.1129
  852MOL0     H12432   8.188   2.931   0.353  1.0127 -0.5571 -0.0821
  852MOL0     H12433   8.211   2.864   0.193  1.4018  0.1330  1.5600
  852MOL0     H12434   8.017   3.010   0.106  1.0982  0.7647 -1.3720
  852MOL0     H12435   8.010   3.072   0.270 -3.0704 -3.4371  4.5873
  852MOL0     H12436   7.970   2.782   0.200  0.2544  0.5102 -2.5157
  852MOL0     H12437   7.944   2.862   0.350  2.7842 -0.4034 -0.3413
  852MOL0     H12438   7.795   2.914   0.083 -2.1426 -2.2403  0.0980
  852MOL0     H12439   7.780   3.024   0.222  0.7529  0.1354  0.2861
  852MOL0     H12440   7.713   2.796   0.353  1.6205 -1.1161 -0.6616
  852MOL0     H12441   7.738   2.708   0.214  0.1281 -0.7132  2.0832
  852MOL0     H12442   7.584   2.884   0.097 -0.5487  4.8248  0.9582
  852MOL0     H12443   7.500   2.756   0.201  1.8700 -0.1177 -3.9076
  852MOL0     H12444   7.591   3.032   0.308 -0.7950  1.0730  0.2297
  852MOL0     H12445   7.495   2.907   0.393 -1.1217 -0.4227 -1.0167
  852MOL0     H12446   8.367   3.381   0.338  0.5412  1.1414  0.7772
  852MOL0     H12447   8.618   3.437   0.424 -0.6579 -0.7366  0.3818
  852MOL0     H12448   8.930   3.375   0.722 -0.6043 -1.7777 -0.7129
  852MOL0     H12449   9.136   3.452   0.808  0.3273 -0.3036 -0.1153
  852MOL0     H12450   9.660   3.157   0.957 -1.5284 -0.6394 -0.8962
  852MOL0     H12451   9.450   3.075   0.889 -0.1177  0.4348 -0.5428
  852MOL0     H12452   8.988   3.119   0.675 -0.0576  0.4705  0.4090
  852MOL0     H12453   8.746   3.020   0.662 -0.9302  0.4034 -0.9565
  852MOL0     H12454   8.580   2.837   0.739  0.1640  0.4433 -2.7296
  852MOL0     H12455   8.548   3.011   0.695  0.3140 -0.4677  0.0712
  852MOL0     H12456   8.379   2.847   0.886  3.5587 -3.0552 -1.8027
  852MOL0     H12457   8.348   3.010   0.804 -2.0632 -0.4221 -3.2030
  852MOL0     H12458   8.335   2.747   0.668 -1.9482  0.0906 -1.3014
  852MOL0     H12459   8.332   2.911   0.590  1.7399  1.0815  0.5477
  852MOL0     H12460   8.132   2.965   0.732  0.6114  0.5950 -2.0644
  852MOL0     H12461   8.100   2.859   0.599  3.3942 -1.2131 -1.1681
  852MOL0     H12462   8.122   2.577   0.912  4.6590  0.1970  0.8899
  852MOL0     H12463   8.748   3.007   1.089 -1.4119 -1.8486 -0.2993
  852MOL0     H12464   8.977   3.078   1.095  1.6274  0.4611 -0.3056
  853MOL0     O12465   5.184   0.656   2.052 -0.5304  0.5234 -0.2649
  853MOL0     C12466   5.160   0.773   2.077 -0.4073 -0.0327 -0.0082
  853MOL0     O12467   5.247   0.872   2.062 -0.1635  0.2224 -0.2452
  853MOL0     C12468   5.357   0.848   1.986  0.7846 -0.3584  0.6276
  853MOL0     C12469   5.453   0.754   2.015 -0.2107  0.3603 -0.2532
  853MOL0     C12470   5.557   0.721   1.929  0.2178  0.9188  0.3766
  853MOL0     C12471   5.589   0.803   1.820 -0.0677 -0.3429  0.5040
  853MOL0     O12472   5.680   0.778   1.717 -0.6017  0.3286  0.2175
  853MOL0     C12473   5.765   0.668   1.726 -1.1705  0.3677 -1.1302
  853MOL0     C12474   5.877   0.690   1.635  0.3268  0.0136 -0.4389
  853MOL0     C12475   5.976   0.800   1.675  0.0676  0.1183  1.0245
  853MOL0     C12476   6.076   0.797   1.563  0.1456 -0.2435 -1.2228
  853MOL0     C12477   6.142   0.940   1.558  1.2785  0.2342 -0.8702
  853MOL0     C12478   6.209   0.964   1.424  0.0248  0.5019  0.0812
  853MOL0     C12479   6.350   0.908   1.398  0.9984  0.0556  0.8118
  853MOL0     C12480   6.458   0.987   1.470 -0.3153  0.5632  1.0903
  853MOL0     N12481   6.598   0.968   1.410  0.1474 -0.4646 -0.1424
  853MOL0     C12482   6.684   0.878   1.462 -0.0971 -0.4080 -0.9099
  853MOL0     C12483   6.797   0.895   1.389  1.1128  0.7969  0.2886
  853MOL0     C12484   6.927   0.834   1.419  0.5790 -0.5811  0.3643
  853MOL0     C12485   6.981   0.868   1.557  0.3419  0.7874 -0.3271
  853MOL0     C12486   7.023   1.012   1.574 -0.4690  0.0982  0.9316
  853MOL0     C12487   7.071   1.039   1.713 -0.9781 -0.3880  0.1037
  853MOL0     O12488   6.984   1.021   1.821 -0.3733  0.0549 -0.3461
  853MOL0     C12489   6.860   1.085   1.816 -0.1354 -0.1382 -0.3817
  853MOL0     C12490   6.814   1.186   1.728  0.6512  0.0636 -0.4230
  853MOL0     C12491   6.682   1.244   1.743 -0.5730  0.0497  0.8330
  853MOL0     C12492   6.597   1.201   1.843 -0.6153 -0.3782  0.5687
  853MOL0     C12493   6.458   1.250   1.846 -1.5800  0.1879 -0.7230
  853MOL0     O12494   6.376   1.177   1.925  0.1038 -0.0721 -0.4369
  853MOL0     C12495   6.244   1.222   1.945 -0.3562  0.7697  0.1387
  853MOL0     C12496   6.215   1.332   2.019 -0.1547 -0.3716  0.3008
  853MOL0     C12497   6.085   1.358   2.050  0.0918  0.7298 -0.2307
  853MOL0     C12498   5.976   1.283   2.002 -0.1546  0.0124  0.0529
  853MOL0     O12499   5.850   1.330   2.046 -0.4510  0.7609  0.3382
  853MOL0     C12500   5.745   1.283   1.959 -0.0471  0.7432 -0.4327
  853MOL0     C12501   5.610   1.356   1.987 -0.4414  0.6671  0.0839
  853MOL0     C12502   5.505   1.337   1.877  0.3579  0.6388 -1.0287
  853MOL0     C12503   5.380   1.415   1.911 -0.2688  0.1586 -0.5034
  853MOL0     C12504   5.287   1.341   2.006  0.4434 -0.7430  0.0271
  853MOL0     C12505   5.167   1.445   2.035  0.7622 -0.0742 -0.5003
  853MOL0     C12506   5.051   1.401   2.131 -0.1772  0.1222  0.1341
  853MOL0     C12507   4.912   1.435   2.084 -0.5597 -0.1038  0.3930
  853MOL0    Cl12508   4.787   1.358   2.184  0.3091 -0.0047  0.1905
  853MOL0     C12509   5.999   1.174   1.919 -0.0864 -0.2311  0.2357
  853MOL0     C12510   6.132   1.140   1.898 -0.4293  1.0770  0.0222
  853MOL0     O12511   6.437   1.361   1.794  0.7120  0.3195 -0.4246
  853MOL0     C12512   6.644   1.091   1.928 -0.1989 -0.4396  0.0303
  853MOL0     C12513   6.769   1.032   1.909  0.8302  0.7300  0.1836
  853MOL0     N12514   6.769   0.995   1.292 -0.0077 -0.5704 -0.2642
  853MOL0     N12515   6.652   1.037   1.306  0.2178 -0.1521  0.0271
  853MOL0     C12516   5.501   0.912   1.799 -0.7973  0.2971 -0.0294
  853MOL0     C12517   5.385   0.929   1.877  0.3475  0.8782 -0.0578
  853MOL0     C12518   5.025   0.802   2.131 -0.3128 -0.7596  0.3021
  853MOL0     C12519   4.984   0.936   2.147 -0.6827 -0.6284 -1.5596
  853MOL0     C12520   4.855   0.970   2.184  0.0260 -0.4089 -0.9516
  853MOL0     C12521   4.756   0.869   2.210 -0.1642 -0.8942 -0.6196
  853MOL0     O12522   4.630   0.910   2.243  0.3804 -0.4042 -0.0601
  853MOL0     C12523   4.534   0.808   2.245 -0.3489  0.7452 -0.0003
  853MOL0     C12524   4.394   0.884   2.243 -0.2319  0.4308  0.0235
  853MOL0     C12525   4.277   0.790   2.250  0.7408  0.8678  0.1035
  853MOL0     C12526   4.263   0.712   2.389 -0.0255  0.0095 -0.0943
  853MOL0     C12527   4.133   0.641   2.402  0.7885 -0.1930  2.0150
  853MOL0     C12528   4.026   0.593   2.424 -0.0407 -0.2349  0.6891
  853MOL0     C12529   4.793   0.729   2.187 -0.0422  0.4685 -0.1426
  853MOL0     C12530   4.922   0.704   2.154 -0.2780 -0.8259 -0.4243
  853MOL0     H12531   5.437   0.702   2.108 -1.7158  0.5562 -0.3647
  853MOL0     H12532   5.617   0.636   1.959 -2.0637 -0.9736 -0.1843
  853MOL0     H12533   5.709   0.575   1.715  0.9261 -1.2067  0.6499
  853MOL0     H12534   5.823   0.668   1.819  3.0473  1.0441 -3.5056
  853MOL0     H12535   5.837   0.700   1.534 -0.6608 -1.1901 -0.1803
  853MOL0     H12536   5.934   0.597   1.634 -1.7897 -1.3544 -1.6422
  853MOL0     H12537   6.024   0.791   1.774 -1.4630  0.4766  1.8229
  853MOL0     H12538   5.920   0.893   1.682 -2.7141 -1.0940 -2.2634
  853MOL0     H12539   6.157   0.732   1.598  0.5000  1.3433  1.2101
  853MOL0     H12540   6.042   0.768   1.464  1.3319 -3.6135 -0.7537
  853MOL0     H12541   6.214   0.938   1.641  0.7840 -2.0819 -0.4076
  853MOL0     H12542   6.069   1.021   1.565  1.3198  0.2695 -0.8500
  853MOL0     H12543   6.210   1.071   1.403  1.4948  1.1128  2.8179
  853MOL0     H12544   6.146   0.928   1.342 -0.6001 -0.4209  0.9320
  853MOL0     H12545   6.349   0.801   1.420 -0.7440 -0.1239 -0.0203
  853MOL0     H12546   6.371   0.923   1.292  0.7229  0.8426  0.8647
  853MOL0     H12547   6.460   0.964   1.576 -0.0440  2.1619  1.4594
  853MOL0     H12548   6.432   1.094   1.468  2.4308  1.3255  1.7298
  853MOL0     H12549   6.683   0.811   1.546  0.1240 -2.8652 -2.7586
  853MOL0     H12550   7.001   0.877   1.350 -2.4115  1.0586 -2.0465
  853MOL0     H12551   6.910   0.727   1.408 -2.2380  0.0368 -3.6054
  853MOL0     H12552   7.066   0.804   1.583  0.1888  0.1753 -1.3032
  853MOL0     H12553   6.901   0.850   1.630 -0.7200  0.4876 -1.5204
  853MOL0     H12554   7.113   1.015   1.512 -2.7931 -2.4704 -3.0533
  853MOL0     H12555   6.950   1.087   1.544  0.9076 -0.3181 -4.5838
  853MOL0     H12556   7.101   1.144   1.714  0.7255 -0.8521 -0.1835
  853MOL0     H12557   7.163   0.983   1.732 -2.0177 -1.8817  0.9232
  853MOL0     H12558   6.880   1.238   1.660  3.5384  0.5935  2.5341
  853MOL0     H12559   6.662   1.309   1.658 -2.8148 -1.6378 -0.0229
  853MOL0     H12560   6.303   1.389   2.046  0.2736 -1.1032  0.4660
  853MOL0     H12561   6.050   1.447   2.102 -0.6978  1.6508 -2.2296
  853MOL0     H12562   5.723   1.178   1.980 -0.8942  0.5267 -2.2368
  853MOL0     H12563   5.775   1.294   1.854  0.3479  3.1418 -0.1210
  853MOL0     H12564   5.629   1.463   2.000 -2.5379  1.3825 -1.9653
  853MOL0     H12565   5.570   1.315   2.080 -1.9712 -0.1859 -0.9013
  853MOL0     H12566   5.484   1.231   1.861  1.0947  0.4790 -0.9739
  853MOL0     H12567   5.546   1.374   1.783  1.4918  0.5685 -0.5734
  853MOL0     H12568   5.412   1.508   1.960  1.8585 -1.9750  2.6000
  853MOL0     H12569   5.324   1.432   1.819 -1.9892  0.0802  0.4886
  853MOL0     H12570   5.337   1.317   2.101 -1.3036 -1.2661  0.8493
  853MOL0     H12571   5.240   1.249   1.971  2.5915 -3.1093  2.8344
  853MOL0     H12572   5.131   1.472   1.935  1.7464  1.7997 -0.3932
  853MOL0     H12573   5.198   1.538   2.083 -1.3098  0.7680 -0.6642
  853MOL0     H12574   5.047   1.292   2.128 -0.9466  0.1460  0.1916
  853MOL0     H12575   5.077   1.445   2.228  0.7501  0.6675 -0.3477
  853MOL0     H12576   4.893   1.388   1.987  0.8757  0.8532 -0.3945
  853MOL0     H12577   4.898   1.543   2.072 -0.0323 -0.1476 -0.7933
  853MOL0     H12578   5.926   1.117   1.862  1.9412  0.0319 -2.9138
  853MOL0     H12579   6.151   1.046   1.848 -1.7551 -1.2622  3.5327
  853MOL0     H12580   6.573   1.042   1.994 -1.7365 -0.9138 -1.8917
  853MOL0     H12581   6.806   0.951   1.970 -4.6511 -3.3924 -1.1540
  853MOL0     H12582   5.510   0.983   1.717 -0.8836  0.3151 -0.0241
  853MOL0     H12583   5.325   1.013   1.845 -0.6203  1.3021  2.5951
  853MOL0     H12584   5.058   1.015   2.142 -0.4215 -0.9240 -5.4789
  853MOL0     H12585   4.835   1.076   2.192 -1.0235 -0.5728 -1.1792
  853MOL0     H12586   4.554   0.755   2.338 -0.8312 -1.9354 -1.3380
  853MOL0     H12587   4.545   0.743   2.158 -0.2088  0.1830  0.4331
  853MOL0     H12588   4.389   0.962   2.320 -0.0021  0.8698 -0.3991
  853MOL0     H12589   4.382   0.924   2.142 -0.5128 -3.5232 -1.6900
  853MOL0     H12590   4.279   0.722   2.164  1.5720  1.7607 -0.6170
  853MOL0     H12591   4.183   0.844   2.244 -1.4456 -2.6393 -5.3242
  853MOL0     H12592   4.340   0.636   2.400  1.2657  1.2637 -0.1375
  853MOL0     H12593   4.270   0.775   2.479 -2.9107 -1.4686  1.3360
  853MOL0     H12594   3.938   0.535   2.444  0.6659 -1.5852  0.0927
  853MOL0     H12595   4.723   0.648   2.202 -0.1821  0.2406 -1.8120
  853MOL0     H12596   4.950   0.599   2.156 -0.3551 -0.8535  1.4873
  854MOL0     O12597  10.904   2.391   0.045 -0.7810 -0.3071 -0.4318
  854MOL0     C12598  10.914   2.348   0.163  0.2785  0.2121  0.0969
  854MOL0     O12599  10.813   2.357   0.260  0.3457 -0.8149  0.6275
  854MOL0     C12600  10.705   2.423   0.219 -0.1034 -0.6450 -0.0870
  854MOL0     C12601  10.711   2.559   0.189  1.0932  0.0321 -0.2704
  854MOL0     C12602  10.595   2.624   0.136  0.0155  0.2971 -0.3467
  854MOL0     C12603  10.479   2.544   0.122  0.2308  0.9636  0.0100
  854MOL0     O12604  10.348   2.587   0.095 -0.8988 -0.2192 -0.0732
  854MOL0     C12605  10.343   2.704   0.007  0.1637  0.1556  0.2878
  854MOL0     C12606  10.204   2.737  -0.028  0.6186  0.5593  0.2871
  854MOL0     C12607  10.119   2.637  -0.102  1.1563 -0.4296  0.4289
  854MOL0     C12608  10.178   2.609  -0.243  0.0445 -0.3846 -0.1786
  854MOL0     C12609  10.106   2.514  -0.334 -0.8137 -0.0957 -1.1399
  854MOL0     C12610   9.985   2.572  -0.417 -0.1991 -0.3298 -0.2043
  854MOL0     C12611   9.905   2.457  -0.476 -1.2359 -0.4264 -0.0387
  854MOL0     C12612  10.000   2.369  -0.570  0.6597 -0.8496 -0.2894
  854MOL0     N12613   9.918   2.349  -0.690  0.6785 -0.0656  0.2398
  854MOL0     C12614   9.843   2.242  -0.742 -0.2527 -0.2526 -1.1915
  854MOL0     C12615   9.804   2.271  -0.867 -1.1453  0.5772  0.2286
  854MOL0     C12616   9.742   2.174  -0.963 -0.0802 -0.0600  0.2861
  854MOL0     C12617   9.594   2.145  -0.925 -0.6986 -0.8206  0.5386
  854MOL0     C12618   9.544   2.027  -1.006  0.1222 -0.1906  0.0917
  854MOL0     C12619   9.397   2.011  -0.967  0.0831 -0.1480  0.0507
  854MOL0     O12620   9.370   2.011  -0.821 -0.2661  0.8005  0.0432
  854MOL0     C12621   9.254   1.960  -0.774 -0.7561  0.3286  0.6780
  854MOL0     C12622   9.221   1.989  -0.640  0.4241  0.0474 -0.1006
  854MOL0     C12623   9.101   1.940  -0.586 -0.7133 -0.0999  0.0196
  854MOL0     C12624   9.008   1.869  -0.664  0.8821  0.1341 -0.0041
  854MOL0     C12625   8.871   1.828  -0.612  0.1325 -0.9136 -1.3088
  854MOL0     O12626   8.776   1.775  -0.691 -0.2394  0.3910 -0.1656
  854MOL0     C12627   8.646   1.764  -0.653 -1.3862 -0.5859 -0.0118
  854MOL0     C12628   8.569   1.680  -0.735 -0.0789 -0.2982 -0.3004
  854MOL0     C12629   8.429   1.641  -0.717 -0.6960 -0.6268 -0.1686
  854MOL0     C12630   8.368   1.692  -0.601  0.2850 -0.0138 -0.8883
  854MOL0     O12631   8.228   1.673  -0.590 -0.0506  0.2182  0.6249
  854MOL0     C12632   8.165   1.686  -0.460 -0.0367 -0.2981 -0.2631
  854MOL0     C12633   8.030   1.609  -0.444  0.4849 -0.6723  0.2908
  854MOL0     C12634   7.914   1.690  -0.494  0.6770  0.6893 -0.2717
  854MOL0     C12635   7.780   1.602  -0.507 -0.4451 -0.0636 -0.3630
  854MOL0     C12636   7.664   1.693  -0.539  0.7358 -1.1525 -0.2706
  854MOL0     C12637   7.530   1.619  -0.558 -0.8691  0.6095  0.1416
  854MOL0     C12638   7.476   1.537  -0.435 -0.2796 -0.6239  0.0420
  854MOL0     C12639   7.330   1.477  -0.477 -0.7568  0.2463 -0.7008
  854MOL0    Cl12640   7.368   1.322  -0.562 -0.0965 -0.3966 -0.1288
  854MOL0     C12641   8.447   1.781  -0.515  0.4065 -0.1463 -0.1336
  854MOL0     C12642   8.579   1.823  -0.546 -0.6351  0.3857 -0.0158
  854MOL0     O12643   8.853   1.874  -0.497  0.7046  0.3215 -0.5922
  854MOL0     C12644   9.036   1.847  -0.801 -0.2413  0.0296 -0.0092
  854MOL0     C12645   9.161   1.892  -0.857 -0.0159  1.7513  0.0032
  854MOL0     N12646   9.857   2.395  -0.889  0.6163 -0.0995 -0.3512
  854MOL0     N12647   9.931   2.439  -0.794  0.3831  0.1457 -0.1015
  854MOL0     C12648  10.471   2.406   0.153  0.4587 -0.7341  0.4169
  854MOL0     C12649  10.590   2.348   0.194 -1.1343  0.7766 -0.6313
  854MOL0     C12650  11.041   2.302   0.206 -0.9364 -0.4244 -1.3882
  854MOL0     C12651  11.164   2.329   0.139 -0.2253  0.0649 -0.3543
  854MOL0     C12652  11.290   2.285   0.184 -0.2627 -0.1172 -0.0926
  854MOL0     C12653  11.300   2.243   0.315  0.7063 -0.1182 -0.7351
  854MOL0     O12654  11.417   2.195   0.369  0.4633  0.2926  0.3423
  854MOL0     C12655  11.473   2.079   0.303 -0.3913 -0.3447 -0.1199
  854MOL0     C12656  11.399   1.950   0.335  1.9301 -0.5933  0.8058
  854MOL0     C12657  11.450   1.826   0.257 -0.3564 -0.2327  0.1566
  854MOL0     C12658  11.372   1.704   0.275 -0.1960 -0.0181  0.1532
  854MOL0     C12659  11.347   1.664   0.405 -0.2651  1.6881 -0.0017
  854MOL0     C12660  11.336   1.628   0.525  0.0213 -0.1053  0.2136
  854MOL0     C12661  11.184   2.222   0.403  0.1899 -0.2626 -0.3047
  854MOL0     C12662  11.058   2.254   0.343 -0.2578 -0.2830 -0.0546
  854MOL0     H12663  10.802   2.615   0.210  1.4131  0.2072 -1.9374
  854MOL0     H12664  10.608   2.726   0.100  2.8568  0.1849  0.1683
  854MOL0     H12665  10.382   2.673  -0.091 -0.1274 -0.9982  0.5316
  854MOL0     H12666  10.389   2.786   0.062 -2.1622  0.8256  1.3579
  854MOL0     H12667  10.205   2.834  -0.078 -2.8278  0.6167  0.1301
  854MOL0     H12668  10.149   2.757   0.064  0.0768  0.7278 -0.0718
  854MOL0     H12669  10.017   2.669  -0.125  2.3177  2.5659 -1.1816
  854MOL0     H12670  10.109   2.542  -0.049 -0.0518 -1.0035 -0.7686
  854MOL0     H12671  10.213   2.696  -0.300  0.6087  1.1265  2.2966
  854MOL0     H12672  10.270   2.555  -0.219  0.9668  0.8313 -0.8304
  854MOL0     H12673  10.061   2.439  -0.268 -2.0903  2.0129  0.5244
  854MOL0     H12674  10.187   2.483  -0.401 -1.8210  0.8983 -2.8946
  854MOL0     H12675  10.013   2.635  -0.502 -2.6385 -1.4988 -2.0142
  854MOL0     H12676   9.922   2.624  -0.343  1.0723 -0.4391  1.0077
  854MOL0     H12677   9.881   2.392  -0.392  0.1736 -0.1508  0.6172
  854MOL0     H12678   9.818   2.496  -0.528 -1.4111  1.2689  1.3959
  854MOL0     H12679  10.017   2.267  -0.534  1.2630 -0.2634  1.1626
  854MOL0     H12680  10.098   2.414  -0.587  1.1837 -2.1318 -0.7559
  854MOL0     H12681   9.809   2.158  -0.682 -2.0343  0.9475 -0.4305
  854MOL0     H12682   9.784   2.073  -0.959 -1.3320 -0.6742 -1.0044
  854MOL0     H12683   9.747   2.202  -1.069 -1.1281 -2.2665 -0.4086
  854MOL0     H12684   9.536   2.235  -0.948  0.7621  0.4475  1.5800
  854MOL0     H12685   9.593   2.131  -0.817 -0.6480  1.2522  0.8609
  854MOL0     H12686   9.542   2.051  -1.113 -0.8042 -2.5337 -0.4589
  854MOL0     H12687   9.603   1.937  -0.986 -2.4918 -1.9397  0.2771
  854MOL0     H12688   9.361   1.920  -1.015  0.4711 -0.4272  0.2815
  854MOL0     H12689   9.339   2.093  -1.010 -2.4070 -0.6184  2.2633
  854MOL0     H12690   9.296   2.043  -0.583  1.5701 -0.0431 -1.4822
  854MOL0     H12691   9.078   1.962  -0.482 -0.2133 -1.0267  0.3358
  854MOL0     H12692   8.620   1.647  -0.825  1.0807  2.3711 -0.7064
  854MOL0     H12693   8.378   1.592  -0.800 -0.6689 -3.5320  1.4018
  854MOL0     H12694   8.165   1.791  -0.431 -0.3958  1.0276 -4.4493
  854MOL0     H12695   8.216   1.623  -0.386 -1.4734 -1.0638  0.1100
  854MOL0     H12696   8.011   1.589  -0.338  2.5170 -2.3075  0.4090
  854MOL0     H12697   8.037   1.510  -0.489  0.0240 -0.8742  0.6543
  854MOL0     H12698   7.936   1.736  -0.591  1.2508  1.3181  0.1433
  854MOL0     H12699   7.898   1.771  -0.423 -1.2922 -0.7865  1.0785
  854MOL0     H12700   7.780   1.542  -0.598  0.9011 -1.1581  0.3299
  854MOL0     H12701   7.765   1.535  -0.422  0.1577 -2.3646 -1.9846
  854MOL0     H12702   7.686   1.742  -0.635  1.9699  1.1665  1.0982
  854MOL0     H12703   7.647   1.768  -0.461  1.2310 -2.4423  1.1291
  854MOL0     H12704   7.538   1.555  -0.646  2.1100  4.1428 -2.4747
  854MOL0     H12705   7.459   1.698  -0.585  0.2284  2.1662  1.5481
  854MOL0     H12706   7.552   1.467  -0.401 -0.5570 -0.0541  1.9197
  854MOL0     H12707   7.460   1.605  -0.351 -0.3946 -0.7446  0.1175
  854MOL0     H12708   7.270   1.551  -0.530  1.9582  3.2859  0.1627
  854MOL0     H12709   7.279   1.450  -0.384 -0.6344  2.4561  0.0544
  854MOL0     H12710   8.404   1.808  -0.419 -0.3067 -0.9714 -0.2166
  854MOL0     H12711   8.626   1.896  -0.481  0.0218 -0.1966  0.1741
  854MOL0     H12712   8.970   1.790  -0.866 -1.2381  2.0053 -0.7947
  854MOL0     H12713   9.183   1.869  -0.960  1.1606  1.6360  0.2667
  854MOL0     H12714  10.379   2.350   0.138  1.0547 -1.7474  0.4865
  854MOL0     H12715  10.588   2.240   0.209 -1.6375 -0.0272 -5.0001
  854MOL0     H12716  11.152   2.386   0.048  0.9874  3.0826  1.2154
  854MOL0     H12717  11.379   2.301   0.125 -1.2715  0.1270 -1.6054
  854MOL0     H12718  11.573   2.067   0.345 -0.4673 -0.2184  0.1014
  854MOL0     H12719  11.486   2.091   0.195  0.7965  0.8260  0.1232
  854MOL0     H12720  11.406   1.932   0.442 -0.7102 -1.8058  0.8452
  854MOL0     H12721  11.297   1.963   0.296  2.0707 -1.2485  0.1916
  854MOL0     H12722  11.549   1.816   0.302 -0.2231 -0.2965 -0.1488
  854MOL0     H12723  11.448   1.852   0.151 -1.4924  3.1798  0.8655
  854MOL0     H12724  11.274   1.716   0.228  0.1304  2.4701 -0.0741
  854MOL0     H12725  11.420   1.623   0.220 -0.4037 -1.8858  2.5570
  854MOL0     H12726  11.337   1.603   0.629  2.2911  0.2981  0.3446
  854MOL0     H12727  11.183   2.181   0.503  1.3373  1.3037  0.3982
  854MOL0     H12728  10.979   2.231   0.413 -1.1111  1.2539 -0.4738
  855MOL0     O12729   6.612  10.679   5.595 -0.1079  0.3263  0.1930
  855MOL0     C12730   6.617  10.707   5.475 -0.5191 -0.8951  0.9578
  855MOL0     O12731   6.531  10.782   5.406  0.0228  0.3176  0.5772
  855MOL0     C12732   6.395  10.765   5.426  0.4218 -0.6040 -0.8080
  855MOL0     C12733   6.324  10.699   5.524 -0.6086  0.0937 -0.0148
  855MOL0     C12734   6.186  10.694   5.514 -0.4330 -0.5777 -0.3691
  855MOL0     C12735   6.118  10.755   5.407  0.0882  0.1683 -0.3440
  855MOL0     O12736   5.984  10.744   5.408 -0.5679 -0.0524 -0.6480
  855MOL0     C12737   5.938  10.615   5.375 -0.4363 -0.1713 -0.2203
  855MOL0     C12738   5.787  10.610   5.359 -0.7229 -0.6459  0.0195
  855MOL0     C12739   5.770  10.678   5.218 -0.5004 -0.1993 -0.5153
  855MOL0     C12740   5.618  10.676   5.172 -0.0545 -0.8375  0.3599
  855MOL0     C12741   5.604  10.700   5.015  0.0846 -0.5313  0.9173
  855MOL0     C12742   5.461  10.716   4.964 -0.1909  0.0237 -0.1074
  855MOL0     C12743   5.417  10.858   4.992  0.4863  0.0613 -0.6079
  855MOL0     C12744   5.278  10.890   4.941 -0.1730 -0.6868  0.2668
  855MOL0     N12745   5.164  10.843   5.021  0.0171 -0.1279 -0.3928
  855MOL0     C12746   5.064  10.926   5.077  0.3597 -0.3317  0.6601
  855MOL0     C12747   4.970  10.844   5.123  0.6244 -0.4661 -1.2710
  855MOL0     C12748   4.843  10.897   5.178  0.9872  0.3802 -0.4147
  855MOL0     C12749   4.734  10.782   5.205 -1.0626  0.3916  0.3342
  855MOL0     C12750   4.762  10.707   5.340  0.2745  0.0127  0.0299
  855MOL0     C12751   4.673  10.600   5.368  0.3181  0.1800  0.1906
  855MOL0     O12752   4.630  10.528   5.251 -0.4216  0.2332 -0.0311
  855MOL0     C12753   4.507  10.459   5.256 -1.0478  0.2019 -0.1760
  855MOL0     C12754   4.381  10.521   5.235 -0.1313 -0.7862  0.3980
  855MOL0     C12755   4.261  10.454   5.243 -0.7524  0.9533 -0.3368
  855MOL0     C12756   4.266  10.315   5.281 -0.3540 -0.4755  0.0086
  855MOL0     C12757   4.148  10.229   5.296 -0.0313  0.1246  1.0408
  855MOL0     O12758   4.031  10.269   5.239 -0.1774  0.1697  0.0032
  855MOL0     C12759   3.913  10.205   5.264  0.6227 -0.0816 -0.0546
  855MOL0     C12760   3.891  10.071   5.308 -0.7506 -0.4422  0.4348
  855MOL0     C12761   3.759  10.019   5.313 -0.1099  0.4226  0.0124
  855MOL0     C12762   3.652  10.105   5.292 -0.5718  0.7886 -0.6070
  855MOL0     O12763   3.523  10.064   5.311  0.7486  0.4159 -1.1364
  855MOL0     C12764   3.460   9.994   5.201 -0.7217 -0.5755  0.4711
  855MOL0     C12765   3.382  10.093   5.102  0.9241 -0.4380 -0.7062
  855MOL0     C12766   3.268  10.179   5.185 -0.4455 -0.4135  0.5698
  855MOL0     C12767   3.151  10.083   5.229 -0.9637  0.5788 -0.1158
  855MOL0     C12768   3.063  10.146   5.336 -0.4500  0.1166 -0.6479
  855MOL0     C12769   2.999  10.276   5.283  0.1998  0.0087 -0.3863
  855MOL0     C12770   2.892  10.337   5.370  0.0302  0.6631 -1.4695
  855MOL0     C12771   2.762  10.260   5.367 -0.0767  0.2920  0.2194
  855MOL0    Cl12772   2.639  10.315   5.490 -0.0671 -0.3009  0.3103
  855MOL0     C12773   3.672  10.238   5.273 -0.0389 -0.5766 -0.7562
  855MOL0     C12774   3.798  10.286   5.250 -0.7471 -0.2136  0.0418
  855MOL0     O12775   4.163  10.135   5.372  0.1740  0.7900 -0.0300
  855MOL0     C12776   4.392  10.253   5.295  0.1607  0.1757  0.1657
  855MOL0     C12777   4.508  10.323   5.282  0.1567  0.2003 -0.0332
  855MOL0     N12778   5.013  10.717   5.106 -0.1250  0.2748  0.1975
  855MOL0     N12779   5.135  10.712   5.056 -0.5674 -0.0547  0.1273
  855MOL0     C12780   6.188  10.813   5.307  0.4181  0.0656  0.1402
  855MOL0     C12781   6.327  10.813   5.314 -0.0787 -0.3866  0.1417
  855MOL0     C12782   6.757  10.678   5.427  0.0261 -0.4626  0.0385
  855MOL0     C12783   6.826  10.567   5.477 -0.9311 -0.7027 -0.4439
  855MOL0     C12784   6.963  10.557   5.452  0.5387  0.6205  0.2823
  855MOL0     C12785   7.039  10.644   5.371  0.0605  0.0044 -0.5546
  855MOL0     O12786   7.174  10.637   5.345 -0.0553  0.5079 -0.1272
  855MOL0     C12787   7.272  10.646   5.453 -0.4128 -0.9542 -0.7635
  855MOL0     C12788   7.405  10.579   5.446 -0.7082  0.1174  0.1552
  855MOL0     C12789   7.396  10.443   5.371  0.6451  0.2587 -0.0864
  855MOL0     C12790   7.488  10.342   5.443  0.5871  0.0441  0.9287
  855MOL0     C12791   7.505  10.221   5.362 -0.1954  0.1969 -0.1039
  855MOL0     C12792   7.513  10.110   5.312  0.6235  0.0692  0.0206
  855MOL0     C12793   6.970  10.747   5.316 -0.3616 -0.7283 -0.1939
  855MOL0     C12794   6.830  10.768   5.341 -0.2432 -0.0753  0.2898
  855MOL0     H12795   6.369  10.654   5.612 -3.0871 -2.6827 -0.0050
  855MOL0     H12796   6.124  10.652   5.593 -0.9209  0.1865 -0.3321
  855MOL0     H12797   5.966  10.549   5.457 -1.3757 -0.9742 -0.5342
  855MOL0     H12798   5.990  10.575   5.287 -0.1446  1.4878 -0.8525
  855MOL0     H12799   5.740  10.665   5.441  2.9582  0.5919  1.4820
  855MOL0     H12800   5.760  10.505   5.366  0.9652 -1.0205  2.2847
  855MOL0     H12801   5.817  10.612   5.145 -0.5034  1.1198 -1.7658
  855MOL0     H12802   5.816  10.775   5.198  0.6404 -0.7522 -0.6288
  855MOL0     H12803   5.574  10.582   5.208  1.0595 -0.2617  3.5289
  855MOL0     H12804   5.576  10.753   5.238  0.4590 -0.4939  0.2838
  855MOL0     H12805   5.647  10.614   4.963 -1.4461  0.6121 -2.5228
  855MOL0     H12806   5.656  10.788   4.977 -0.5165  0.1627  1.6684
  855MOL0     H12807   5.400  10.646   5.021 -1.5317  1.9229  0.8826
  855MOL0     H12808   5.460  10.695   4.857  3.3267  0.2718 -0.3036
  855MOL0     H12809   5.413  10.867   5.101  0.4996 -3.1123 -0.2593
  855MOL0     H12810   5.491  10.928   4.951  0.3988 -0.4872 -1.7621
  855MOL0     H12811   5.262  10.869   4.835 -1.9010  2.1054 -0.1106
  855MOL0     H12812   5.263  10.998   4.937 -1.3459 -0.7756  1.5073
  855MOL0     H12813   5.059  11.034   5.067 -3.2005 -0.3601  0.8591
  855MOL0     H12814   4.791  10.948   5.097  0.0677 -1.1077 -0.8083
  855MOL0     H12815   4.859  10.958   5.268 -0.5991 -0.6525  0.6091
  855MOL0     H12816   4.733  10.714   5.120  1.7210  0.1160  0.4228
  855MOL0     H12817   4.634  10.826   5.207 -1.4982 -0.5739  1.7144
  855MOL0     H12818   4.857  10.652   5.336  1.3380  1.7239  0.4261
  855MOL0     H12819   4.745  10.771   5.428 -0.4577 -1.2494  0.8316
  855MOL0     H12820   4.583  10.646   5.411  1.0105  0.6014  1.2250
  855MOL0     H12821   4.724  10.531   5.436  1.3853 -1.6059 -2.2681
  855MOL0     H12822   4.390  10.626   5.207  0.9207 -1.0118 -0.1580
  855MOL0     H12823   4.162  10.492   5.223 -2.8986 -1.8564  3.5142
  855MOL0     H12824   3.973  10.000   5.316 -0.0075  0.2179 -0.9774
  855MOL0     H12825   3.739   9.915   5.338  1.5397  0.2022  0.5094
  855MOL0     H12826   3.393   9.917   5.239 -3.6123  0.4600 -2.1135
  855MOL0     H12827   3.538   9.939   5.148  0.1782  1.1087 -0.0354
  855MOL0     H12828   3.315  10.027   5.046 -2.9700  3.9225 -1.7903
  855MOL0     H12829   3.436  10.150   5.027 -1.8607 -0.3643 -2.7726
  855MOL0     H12830   3.224  10.262   5.129 -1.3150 -2.5601 -2.1598
  855MOL0     H12831   3.317  10.217   5.275  0.2094  1.1331 -0.4001
  855MOL0     H12832   3.091  10.047   5.145 -0.5458  1.1318 -0.6661
  855MOL0     H12833   3.201   9.996   5.271 -1.2799 -2.0089 -4.4652
  855MOL0     H12834   3.124  10.163   5.425  1.3286 -0.3344 -1.7282
  855MOL0     H12835   2.996  10.064   5.364 -0.6061  0.3631 -0.2893
  855MOL0     H12836   2.957  10.257   5.184  2.1939 -1.1751 -1.0672
  855MOL0     H12837   3.066  10.362   5.270  1.9178 -1.2273 -0.0992
  855MOL0     H12838   2.914  10.349   5.477 -1.9514  0.0350 -0.9537
  855MOL0     H12839   2.872  10.436   5.327  0.1465  1.1038 -0.5460
  855MOL0     H12840   2.777  10.158   5.404 -4.4679 -1.0423 -1.0387
  855MOL0     H12841   2.724  10.262   5.265 -1.0788  2.4528  0.5678
  855MOL0     H12842   3.589  10.308   5.273 -0.9378 -1.5985 -0.2559
  855MOL0     H12843   3.810  10.391   5.226  3.4261 -0.9097 -1.7725
  855MOL0     H12844   4.399  10.148   5.320 -1.4907 -0.1674 -0.6337
  855MOL0     H12845   4.608  10.280   5.286 -0.0561 -0.3226 -0.2134
  855MOL0     H12846   6.116  10.861   5.242 -2.4944 -0.1634  2.9128
  855MOL0     H12847   6.387  10.850   5.232  2.8940  0.8907  2.6763
  855MOL0     H12848   6.776  10.512   5.557 -0.9500  4.7086  3.7985
  855MOL0     H12849   7.007  10.472   5.503 -3.2543 -2.2434 -0.8228
  855MOL0     H12850   7.224  10.593   5.537  0.0141  0.7652  0.6283
  855MOL0     H12851   7.280  10.753   5.472 -1.4431 -0.7878 -1.2215
  855MOL0     H12852   7.472  10.650   5.396 -1.7868  3.2626  2.8974
  855MOL0     H12853   7.449  10.570   5.546 -0.9575 -0.1848  0.2398
  855MOL0     H12854   7.404  10.438   5.263  1.5790 -2.1403  0.0381
  855MOL0     H12855   7.295  10.407   5.393  1.6581 -1.0039  3.1699
  855MOL0     H12856   7.585  10.389   5.463  2.4483 -3.8729  2.1787
  855MOL0     H12857   7.438  10.312   5.535  0.9875  1.5639  1.6837
  855MOL0     H12858   7.508  10.009   5.277  0.7396 -1.8212  4.7482
  855MOL0     H12859   7.029  10.807   5.248 -1.5840 -0.8175 -1.3821
  855MOL0     H12860   6.777  10.849   5.293  1.8606  2.0573  1.3443
  856MOL0     O12861   6.416   4.152   4.097 -0.0421 -0.1702 -0.0828
  856MOL0     C12862   6.437   4.210   4.202 -0.1440  0.4923  0.0140
  856MOL0     O12863   6.354   4.311   4.249 -0.2090 -0.4867 -0.2417
  856MOL0     C12864   6.253   4.362   4.170  0.4459 -0.2629  0.0154
  856MOL0     C12865   6.121   4.374   4.226 -0.7266  0.2982 -0.2160
  856MOL0     C12866   6.006   4.404   4.150 -0.0996 -0.1437 -0.4427
  856MOL0     C12867   6.024   4.432   4.017 -0.6492 -0.5089  0.1642
  856MOL0     O12868   5.902   4.458   3.950 -1.2569  0.5926  0.4772
  856MOL0     C12869   5.920   4.498   3.809  0.0826  0.7839  0.4026
  856MOL0     C12870   5.775   4.516   3.744 -1.1735 -0.2685  0.7507
  856MOL0     C12871   5.685   4.618   3.820  0.8800  0.0828  0.0925
  856MOL0     C12872   5.539   4.612   3.765 -0.0357 -0.1067  0.0933
  856MOL0     C12873   5.469   4.745   3.790 -0.1932  0.1944  0.2257
  856MOL0     C12874   5.329   4.748   3.724  0.9938  0.0214  0.1282
  856MOL0     C12875   5.246   4.613   3.738  0.7001 -0.0478  0.9132
  856MOL0     C12876   5.109   4.632   3.672 -0.3452 -0.0701 -0.9780
  856MOL0     N12877   5.020   4.522   3.710 -0.0077  0.4570 -0.3517
  856MOL0     C12878   4.947   4.500   3.821 -0.5752 -0.0915  0.6564
  856MOL0     C12879   4.863   4.401   3.789 -0.2284 -0.6561  0.2654
  856MOL0     C12880   4.753   4.343   3.872 -0.4403 -0.5401  0.9827
  856MOL0     C12881   4.619   4.348   3.811 -0.4492 -0.3129  0.0766
  856MOL0     C12882   4.580   4.486   3.765  0.4887 -0.2369  0.9616
  856MOL0     C12883   4.525   4.576   3.870  0.2029  0.4060 -0.5443
  856MOL0     O12884   4.616   4.621   3.973 -0.7467  0.1473  0.1329
  856MOL0     C12885   4.715   4.719   3.942 -0.4036  0.6449  0.1853
  856MOL0     C12886   4.811   4.726   4.038  0.6007  0.5011  0.3332
  856MOL0     C12887   4.918   4.814   4.030 -0.3826 -0.6016 -0.0110
  856MOL0     C12888   4.934   4.895   3.912  0.1373 -0.8606 -0.0242
  856MOL0     C12889   5.046   4.995   3.890 -0.0585 -0.9378 -0.5624
  856MOL0     O12890   5.086   5.041   4.015 -0.4296  0.0693  0.3025
  856MOL0     C12891   5.198   5.128   4.015 -1.0333  0.0406 -0.1956
  856MOL0     C12892   5.298   5.087   4.098  0.8716 -0.9432  0.8095
  856MOL0     C12893   5.409   5.167   4.102 -0.7586  1.1277  0.4882
  856MOL0     C12894   5.420   5.277   4.032  0.1089 -0.8006 -0.6976
  856MOL0     O12895   5.531   5.347   4.064  0.5352 -0.5332  0.5665
  856MOL0     C12896   5.571   5.468   3.991 -0.1081  0.6669  0.5861
  856MOL0     C12897   5.649   5.428   3.866 -0.5902 -0.6607  0.0758
  856MOL0     C12898   5.802   5.413   3.892 -0.2327  0.3588 -0.3633
  856MOL0     C12899   5.838   5.329   4.012  0.0179  0.1822  0.0443
  856MOL0     C12900   5.983   5.296   3.984 -0.3998  0.4368 -0.1127
  856MOL0     C12901   6.057   5.205   4.095 -0.4122 -0.6807  0.3820
  856MOL0     C12902   6.130   5.295   4.188  0.0667  0.0852 -0.1368
  856MOL0     C12903   6.253   5.224   4.254  0.1735 -0.5854  0.3069
  856MOL0    Cl12904   6.378   5.175   4.123 -0.2211 -0.0729  0.3540
  856MOL0     C12905   5.321   5.326   3.958  0.1693  0.5628 -0.1918
  856MOL0     C12906   5.202   5.255   3.948  0.3826  0.5440  0.6537
  856MOL0     O12907   5.091   5.022   3.779  0.2873  0.1665 -1.0425
  856MOL0     C12908   4.839   4.883   3.806 -0.1444  0.0349 -0.4828
  856MOL0     C12909   4.728   4.795   3.821 -0.6814 -0.1653 -0.4451
  856MOL0     N12910   4.875   4.372   3.654  0.0028  0.2605  0.6034
  856MOL0     N12911   4.970   4.444   3.608 -0.3282  0.3531 -0.0363
  856MOL0     C12912   6.154   4.432   3.958  0.2318 -0.1490 -0.3792
  856MOL0     C12913   6.266   4.407   4.036  0.0664  0.7926  0.4100
  856MOL0     C12914   6.569   4.177   4.264 -0.0556  0.0356  0.2804
  856MOL0     C12915   6.628   4.054   4.230 -0.0865  0.2487  0.4965
  856MOL0     C12916   6.758   4.023   4.279 -0.7994 -0.0715  0.7556
  856MOL0     C12917   6.823   4.106   4.373 -0.4782  0.5584  0.4550
  856MOL0     O12918   6.939   4.072   4.419  0.1336  0.1264 -0.5097
  856MOL0     C12919   7.040   4.035   4.320  0.2184  0.5756  0.3656
  856MOL0     C12920   7.167   4.072   4.386  0.4123 -0.9318 -0.7525
  856MOL0     C12921   7.294   4.055   4.301 -0.6899 -0.2088  0.6435
  856MOL0     C12922   7.430   4.054   4.373 -0.0486 -0.5241  0.3362
  856MOL0     C12923   7.529   4.052   4.276  0.6901  0.5894 -0.3539
  856MOL0     C12924   7.612   4.063   4.196 -0.1227  0.0839  0.2388
  856MOL0     C12925   6.761   4.218   4.421  0.3419 -0.5078 -0.7495
  856MOL0     C12926   6.638   4.255   4.359 -0.6303  0.6197  0.3736
  856MOL0     H12927   6.102   4.348   4.330  0.6729  3.4578  0.9479
  856MOL0     H12928   5.909   4.417   4.198  1.3525  1.9307  2.2284
  856MOL0     H12929   5.968   4.415   3.756 -1.1536 -0.0066  0.4794
  856MOL0     H12930   5.973   4.594   3.813  0.3619  0.6065  1.3127
  856MOL0     H12931   5.731   4.416   3.746  2.1212 -1.8540  1.5773
  856MOL0     H12932   5.785   4.547   3.640 -0.0934  2.2684  1.5252
  856MOL0     H12933   5.733   4.715   3.808  2.6543 -0.4633  2.1561
  856MOL0     H12934   5.688   4.600   3.928  2.7926  2.4352  0.5183
  856MOL0     H12935   5.554   4.608   3.657  1.6577  1.5090  0.2237
  856MOL0     H12936   5.486   4.523   3.801 -0.8609 -0.2831 -1.4939
  856MOL0     H12937   5.536   4.821   3.747  1.1380 -0.1107  1.6769
  856MOL0     H12938   5.458   4.753   3.898 -1.3430 -3.3173  0.4937
  856MOL0     H12939   5.336   4.770   3.617 -1.6276  3.5495  0.4891
  856MOL0     H12940   5.262   4.813   3.780 -1.0401 -2.2650  0.5146
  856MOL0     H12941   5.302   4.529   3.696  1.5079  0.0947  1.6641
  856MOL0     H12942   5.215   4.588   3.841 -1.6779  3.5624  1.2619
  856MOL0     H12943   5.125   4.629   3.564  2.2183 -0.2497 -0.6582
  856MOL0     H12944   5.068   4.729   3.700  0.0810 -0.9157  3.1887
  856MOL0     H12945   4.973   4.555   3.911 -0.2626 -2.0625  1.8160
  856MOL0     H12946   4.755   4.393   3.969  0.2159 -0.4038  0.9013
  856MOL0     H12947   4.786   4.244   3.906  0.7012 -1.4561 -2.3899
  856MOL0     H12948   4.547   4.297   3.875  0.1212 -1.4049 -0.1335
  856MOL0     H12949   4.611   4.284   3.723 -4.0151 -0.7151  0.5531
  856MOL0     H12950   4.664   4.539   3.720  1.4265  1.5119  4.4136
  856MOL0     H12951   4.505   4.476   3.686  0.5907  0.0708  0.8231
  856MOL0     H12952   4.452   4.514   3.923  0.7612 -1.2837 -1.6965
  856MOL0     H12953   4.477   4.667   3.832 -0.7958  0.1456  0.0432
  856MOL0     H12954   4.793   4.658   4.120 -1.4816 -1.2343 -1.4360
  856MOL0     H12955   4.999   4.820   4.103  1.4875 -1.6923 -1.8849
  856MOL0     H12956   5.293   4.999   4.161 -0.6437 -0.5325  1.3371
  856MOL0     H12957   5.494   5.136   4.161 -1.4433 -1.8188  0.0978
  856MOL0     H12958   5.633   5.520   4.065 -0.9623  0.8484  1.1813
  856MOL0     H12959   5.482   5.525   3.966 -0.4962 -0.0965  0.1865
  856MOL0     H12960   5.642   5.515   3.801  0.1864 -0.0332  0.8103
  856MOL0     H12961   5.610   5.336   3.822 -2.5233  0.1595 -0.0235
  856MOL0     H12962   5.845   5.511   3.913 -0.9644  0.6419 -0.1356
  856MOL0     H12963   5.848   5.365   3.806  0.2475 -1.3020  0.7819
  856MOL0     H12964   5.827   5.379   4.109 -1.7111  0.6686 -0.3572
  856MOL0     H12965   5.790   5.230   4.019 -0.4046  0.4553  1.3860
  856MOL0     H12966   6.034   5.391   3.965 -0.2570  0.2916 -0.4698
  856MOL0     H12967   5.976   5.241   3.889 -3.1243  1.6093 -0.6980
  856MOL0     H12968   6.124   5.138   4.041 -1.5596 -1.6788  0.1475
  856MOL0     H12969   5.983   5.147   4.151 -1.1342  0.3092  0.4895
  856MOL0     H12970   6.157   5.387   4.135 -0.8281  1.6464  1.9855
  856MOL0     H12971   6.061   5.320   4.269  2.0912 -0.8381  1.9701
  856MOL0     H12972   6.217   5.134   4.305 -0.4308 -0.3147  0.3726
  856MOL0     H12973   6.309   5.296   4.315 -0.9157  0.7103 -0.1510
  856MOL0     H12974   5.321   5.417   3.898  0.0770 -2.0787 -4.6332
  856MOL0     H12975   5.111   5.288   3.898  0.1001 -0.4935  0.4475
  856MOL0     H12976   4.852   4.940   3.714 -0.7073 -0.6002 -0.9621
  856MOL0     H12977   4.647   4.791   3.748 -0.8928  0.3078 -0.2415
  856MOL0     H12978   6.187   4.456   3.857  1.5728 -0.6386 -0.0831
  856MOL0     H12979   6.364   4.414   3.992 -0.9752 -1.8375 -2.7497
  856MOL0     H12980   6.589   3.986   4.155  0.6388  0.6402 -0.2488
  856MOL0     H12981   6.811   3.936   4.243 -1.4880 -1.1294  2.2296
  856MOL0     H12982   7.034   4.101   4.233  1.0336  0.2650  0.0743
  856MOL0     H12983   7.028   3.933   4.282 -4.4826  2.3508 -4.1991
  856MOL0     H12984   7.159   4.175   4.422  2.1180 -1.8312  2.6158
  856MOL0     H12985   7.173   4.011   4.477 -3.3381  0.6293  0.7046
  856MOL0     H12986   7.291   4.138   4.230  3.4965  0.3324  0.8406
  856MOL0     H12987   7.282   3.961   4.247  0.1981 -1.0531  1.8605
  856MOL0     H12988   7.434   4.146   4.431 -2.9055 -0.0627 -0.0484
  856MOL0     H12989   7.443   3.963   4.432  1.7763 -2.2976 -2.5384
  856MOL0     H12990   7.694   4.061   4.126  1.1576 -0.7349  1.7004
  856MOL0     H12991   6.801   4.283   4.499 -1.9681 -1.2924  1.2306
  856MOL0     H12992   6.580   4.335   4.404 -0.1957 -0.3914  2.9341
  857MOL0     O12993   3.253   2.288   1.396 -0.3212 -0.6485  0.0365
  857MOL0     C12994   3.307   2.278   1.285  0.3756  1.3736 -0.3580
  857MOL0     O12995   3.251   2.294   1.160 -0.8966 -0.0753 -0.3016
  857MOL0     C12996   3.115   2.317   1.143  0.2390  0.0958  0.5304
  857MOL0     C12997   3.042   2.415   1.200 -0.0861  0.0867  0.1342
  857MOL0     C12998   2.908   2.429   1.172 -0.1563  0.0733  0.5809
  857MOL0     C12999   2.834   2.340   1.097  0.8414  0.7260 -0.8688
  857MOL0     O13000   2.695   2.361   1.086 -0.6223 -0.6100 -0.1518
  857MOL0     C13001   2.605   2.282   1.017  0.3264 -0.2399 -0.1069
  857MOL0     C13002   2.489   2.371   0.972 -0.1379  0.7131  0.6552
  857MOL0     C13003   2.381   2.375   1.072 -0.3782 -0.5206 -1.1707
  857MOL0     C13004   2.311   2.240   1.098  0.6715  0.4695 -0.1875
  857MOL0     C13005   2.180   2.268   1.177 -0.3063 -0.3114  0.8248
  857MOL0     C13006   2.196   2.279   1.318  0.1779  0.0071  0.6852
  857MOL0     C13007   2.063   2.276   1.381 -0.0763  0.7966  0.8486
  857MOL0     C13008   2.054   2.350   1.522  0.0558  0.2817  0.8235
  857MOL0     N13009   1.917   2.350   1.574  0.0940  0.2538  0.2311
  857MOL0     C13010   1.888   2.391   1.705 -0.0612  0.3425  0.0086
  857MOL0     C13011   1.758   2.347   1.726 -0.2508  0.0347 -0.0197
  857MOL0     C13012   1.684   2.349   1.859 -0.5305  0.4772  0.1651
  857MOL0     C13013   1.787   2.372   1.961  0.6026 -1.0924 -0.6868
  857MOL0     C13014   1.722   2.406   2.104  1.3506 -0.2842  0.5632
  857MOL0     C13015   1.622   2.303   2.168 -0.2040 -0.0024  0.4853
  857MOL0     O13016   1.553   2.370   2.270  0.2110 -0.3929  0.2368
  857MOL0     C13017   1.453   2.304   2.342 -0.2668  0.0031 -0.6257
  857MOL0     C13018   1.412   2.367   2.462 -0.4720  0.3185 -0.4798
  857MOL0     C13019   1.326   2.301   2.546  0.6222 -0.0586 -0.6840
  857MOL0     C13020   1.278   2.171   2.515 -0.3950  0.2860  0.6275
  857MOL0     C13021   1.192   2.090   2.610  0.7028 -0.3722  1.2995
  857MOL0     O13022   1.160   1.956   2.570 -0.0477 -0.4630 -0.4432
  857MOL0     C13023   1.099   1.880   2.670 -0.2973 -0.1981 -0.5366
  857MOL0     C13024   1.154   1.754   2.697 -0.6767 -0.0163  0.1117
  857MOL0     C13025   1.088   1.654   2.770  0.3654 -0.3362 -0.1811
  857MOL0     C13026   0.971   1.684   2.833  1.4566 -0.3906  0.2736
  857MOL0     O13027   0.887   1.605   2.901  0.2400  1.3337 -0.1185
  857MOL0     C13028   0.916   1.463   2.910  0.2128  0.3736 -0.1964
  857MOL0     C13029   0.810   1.402   2.994  0.3589 -0.5904 -0.2589
  857MOL0     C13030   0.780   1.259   2.957 -0.5659  0.5156  0.7406
  857MOL0     C13031   0.660   1.215   3.043  0.1964 -0.5331 -0.2243
  857MOL0     C13032   0.617   1.068   3.013 -1.3180 -0.8798 -0.6918
  857MOL0     C13033   0.501   1.026   3.107  0.0356  0.7820 -0.6606
  857MOL0     C13034   0.473   0.872   3.102 -0.7176  0.1272  0.3650
  857MOL0     C13035   0.343   0.843   3.173  0.7599  0.1976  0.3649
  857MOL0    Cl13036   0.204   0.918   3.088  0.7526  0.2924 -0.8195
  857MOL0     C13037   0.913   1.810   2.812  0.6224 -0.7712  0.1705
  857MOL0     C13038   0.979   1.910   2.736 -0.1077 -0.3309 -0.5264
  857MOL0     O13039   1.161   2.149   2.711 -0.5276 -0.0570  0.8247
  857MOL0     C13040   1.307   2.117   2.391 -0.7700  0.1064 -0.1009
  857MOL0     C13041   1.393   2.182   2.304  0.1056 -0.4052 -0.3822
  857MOL0     N13042   1.714   2.297   1.599 -0.2026 -0.1211 -0.8345
  857MOL0     N13043   1.807   2.302   1.515  0.4239  0.1872  0.6362
  857MOL0     C13044   2.907   2.234   1.047  0.0357 -0.8364 -0.3622
  857MOL0     C13045   3.044   2.216   1.077 -0.6325 -1.1575  0.6239
  857MOL0     C13046   3.451   2.235   1.301 -0.1870  0.4913  0.3384
  857MOL0     C13047   3.523   2.190   1.188 -0.2659 -0.1463  0.5234
  857MOL0     C13048   3.660   2.151   1.193 -0.1557 -0.5859 -0.0903
  857MOL0     C13049   3.719   2.148   1.317 -0.4087  0.0709 -0.0780
  857MOL0     O13050   3.850   2.114   1.329  0.4883 -0.2928  0.4020
  857MOL0     C13051   3.929   2.087   1.450  0.3032  0.1075  0.8517
  857MOL0     C13052   4.029   1.976   1.411  0.9264 -1.0559  0.4489
  857MOL0     C13053   4.099   1.923   1.532 -0.2909  0.1145  1.0756
  857MOL0     C13054   4.180   2.014   1.628  0.0235 -0.1065  0.3740
  857MOL0     C13055   4.274   2.088   1.557  0.0711  0.1803  0.1181
  857MOL0     C13056   4.365   2.146   1.501 -0.1551 -0.2857 -0.3427
  857MOL0     C13057   3.652   2.206   1.433  0.3680  0.7666 -0.7545
  857MOL0     C13058   3.523   2.245   1.426  0.1552 -0.5798 -0.1592
  857MOL0     H13059   3.102   2.484   1.258  1.5247  2.4981 -3.9763
  857MOL0     H13060   2.857   2.508   1.225  0.8474  0.7341  0.5800
  857MOL0     H13061   2.559   2.205   1.080 -0.5391 -1.6055 -2.3110
  857MOL0     H13062   2.649   2.243   0.925  2.7414  1.6580  0.1516
  857MOL0     H13063   2.452   2.317   0.885  0.7497 -0.7818  1.1635
  857MOL0     H13064   2.522   2.472   0.944 -3.4012  1.1287 -2.2375
  857MOL0     H13065   2.310   2.451   1.039 -0.4156  0.7750  1.6442
  857MOL0     H13066   2.429   2.408   1.165  1.7111  0.6797 -2.5916
  857MOL0     H13067   2.294   2.194   1.000  0.4878 -0.7638  0.4159
  857MOL0     H13068   2.365   2.168   1.160  0.3564  0.8594  0.5465
  857MOL0     H13069   2.117   2.181   1.157  0.0324 -0.4105  0.1719
  857MOL0     H13070   2.133   2.351   1.123  4.3595  2.0556 -0.1512
  857MOL0     H13071   2.252   2.371   1.331  1.0964 -0.4804  0.2385
  857MOL0     H13072   2.253   2.195   1.360  0.2226 -0.1032  0.4062
  857MOL0     H13073   1.996   2.320   1.306  0.5493  0.9450  0.3743
  857MOL0     H13074   2.041   2.171   1.405  0.6651 -0.6071 -3.6709
  857MOL0     H13075   2.080   2.451   1.488 -3.8994  1.3099  0.3132
  857MOL0     H13076   2.128   2.320   1.597 -1.2941  0.3845  2.2557
  857MOL0     H13077   1.955   2.431   1.780 -1.2458  3.5187 -0.4679
  857MOL0     H13078   1.643   2.248   1.873 -0.2444  0.4257  0.6893
  857MOL0     H13079   1.602   2.420   1.873 -0.3417  0.0711  5.5449
  857MOL0     H13080   1.843   2.461   1.931 -0.5465 -0.4143 -0.8616
  857MOL0     H13081   1.850   2.283   1.971 -0.8463 -1.9644  1.4769
  857MOL0     H13082   1.795   2.430   2.182  3.2038  2.5720 -1.8566
  857MOL0     H13083   1.666   2.499   2.087  2.1176  0.1097  0.1144
  857MOL0     H13084   1.674   2.213   2.200 -0.0552 -0.2423 -0.3885
  857MOL0     H13085   1.558   2.268   2.086  0.3504 -0.4033  0.2176
  857MOL0     H13086   1.465   2.457   2.492 -0.0521  0.7127 -2.2856
  857MOL0     H13087   1.310   2.348   2.643  1.2758 -1.6760  0.2592
  857MOL0     H13088   1.254   1.731   2.662 -0.3249  1.0477  0.3980
  857MOL0     H13089   1.125   1.552   2.772 -0.2376 -0.6432  3.5422
  857MOL0     H13090   1.017   1.442   2.946  0.5138 -2.0291 -2.1775
  857MOL0     H13091   0.907   1.415   2.813 -3.0224  0.9948 -0.3354
  857MOL0     H13092   0.722   1.465   2.978 -0.4119 -1.9939 -1.8139
  857MOL0     H13093   0.831   1.404   3.102  0.7150  0.2089 -0.3402
  857MOL0     H13094   0.870   1.202   2.982 -1.7491 -2.5037 -1.3022
  857MOL0     H13095   0.761   1.251   2.849  0.7031  4.2601  0.0675
  857MOL0     H13096   0.679   1.233   3.149  0.4171  0.4576 -0.4251
  857MOL0     H13097   0.577   1.282   3.020 -2.1945 -2.5384  1.9590
  857MOL0     H13098   0.707   1.008   3.024 -0.3309  0.8307  1.1743
  857MOL0     H13099   0.599   1.072   2.905  2.7152 -0.8585 -1.5165
  857MOL0     H13100   0.414   1.084   3.076 -0.5368  0.4466  0.2638
  857MOL0     H13101   0.528   1.044   3.211  0.3625 -1.1434 -0.3680
  857MOL0     H13102   0.448   0.843   3.000 -2.3995 -0.8618  1.0220
  857MOL0     H13103   0.551   0.812   3.150 -1.6996 -1.9807 -0.5494
  857MOL0     H13104   0.345   0.873   3.278  0.4645 -1.6564  0.9305
  857MOL0     H13105   0.318   0.737   3.175  1.0509  0.1373  1.7667
  857MOL0     H13106   0.812   1.832   2.844  0.8560  1.0686 -0.2435
  857MOL0     H13107   0.935   2.008   2.720  0.1187 -0.1952 -0.3264
  857MOL0     H13108   1.284   2.019   2.353 -3.0083  1.0648 -1.3817
  857MOL0     H13109   1.415   2.134   2.209 -0.3844  0.8735 -1.1714
  857MOL0     H13110   2.870   2.160   0.976  0.4975 -1.4316  0.0054
  857MOL0     H13111   3.105   2.131   1.046 -0.4326 -1.1554  1.0029
  857MOL0     H13112   3.474   2.175   1.092 -0.5882 -0.5437  0.7503
  857MOL0     H13113   3.711   2.104   1.109 -2.2165 -0.6782 -1.3643
  857MOL0     H13114   3.868   2.052   1.534 -2.4982 -0.0929 -1.1202
  857MOL0     H13115   3.976   2.176   1.494 -0.4695  1.0519 -0.1800
  857MOL0     H13116   3.965   1.900   1.364 -0.3408 -0.6925  1.5358
  857MOL0     H13117   4.094   2.022   1.335 -1.7738 -0.3323 -1.5799
  857MOL0     H13118   4.175   1.859   1.488  1.0588  1.5202  1.2724
  857MOL0     H13119   4.026   1.855   1.578  0.7211 -0.1956  2.2858
  857MOL0     H13120   4.104   2.079   1.672 -3.3444 -0.6368 -3.9746
  857MOL0     H13121   4.234   1.950   1.698  2.3651  1.1745 -0.1564
  857MOL0     H13122   4.444   2.207   1.463  0.4008 -0.3709  0.6467
  857MOL0     H13123   3.696   2.212   1.532 -1.4875  2.1821  0.0690
  857MOL0     H13124   3.475   2.296   1.509 -0.2211  2.9457 -2.3563
  858MOL0     O13125   3.610   3.590   5.441 -0.4277 -0.4211 -0.2135
  858MOL0     C13126   3.647   3.635   5.550  0.2199  0.9681  0.1215
  858MOL0     O13127   3.566   3.643   5.661 -0.2507 -0.0208  0.0212
  858MOL0     C13128   3.432   3.670   5.643 -0.5602 -0.4646 -0.7344
  858MOL0     C13129   3.370   3.754   5.733 -0.0180 -0.9411 -1.0840
  858MOL0     C13130   3.235   3.788   5.733  0.2299  0.3201  0.8076
  858MOL0     C13131   3.157   3.734   5.634  0.7380  0.1730  0.7631
  858MOL0     O13132   3.033   3.787   5.616 -0.0902  0.3930  0.1320
  858MOL0     C13133   2.967   3.749   5.491  0.1529 -0.4825 -0.0963
  858MOL0     C13134   2.844   3.842   5.489 -0.0318 -0.1826  0.6457
  858MOL0     C13135   2.799   3.847   5.347 -0.1339  0.6237 -0.3492
  858MOL0     C13136   2.689   3.950   5.337  1.2139 -0.1985 -0.1977
  858MOL0     C13137   2.646   3.981   5.195  0.0300  0.3658  0.5244
  858MOL0     C13138   2.736   4.093   5.127  0.5123  0.0932 -0.4190
  858MOL0     C13139   2.693   4.116   4.982 -0.1004 -0.6633 -0.1745
  858MOL0     C13140   2.764   4.225   4.899  0.6697 -0.2449 -0.3015
  858MOL0     N13141   2.669   4.338   4.888  0.3572  0.7081 -0.2832
  858MOL0     C13142   2.655   4.438   4.975  0.0996  0.0452 -0.2084
  858MOL0     C13143   2.562   4.522   4.920  0.0237  0.1824  0.6219
  858MOL0     C13144   2.519   4.651   4.983  1.0411  0.3272 -0.6450
  858MOL0     C13145   2.379   4.689   4.937  0.0699  0.0116 -0.2958
  858MOL0     C13146   2.324   4.815   4.996  0.8327  0.1207 -0.0565
  858MOL0     C13147   2.178   4.838   4.963 -0.1781  0.2025  0.4917
  858MOL0     O13148   2.093   4.755   5.043 -0.2539  0.6170  0.4545
  858MOL0     C13149   1.961   4.756   5.007 -0.4615  1.5356  0.0637
  858MOL0     C13150   1.903   4.833   4.903 -1.0882  1.2980 -0.1671
  858MOL0     C13151   1.764   4.831   4.886 -1.0117 -0.2833 -0.5973
  858MOL0     C13152   1.681   4.745   4.968 -0.4478  0.2216 -0.8083
  858MOL0     C13153   1.544   4.738   4.939 -0.3394 -0.2104 -0.6050
  858MOL0     O13154   1.499   4.843   4.858 -0.2910 -0.3718  0.5034
  858MOL0     C13155   1.366   4.860   4.830 -0.6011  0.1478 -0.7133
  858MOL0     C13156   1.294   4.750   4.782 -0.0042 -0.8214 -0.5866
  858MOL0     C13157   1.152   4.760   4.762 -0.1418 -0.3278  0.1129
  858MOL0     C13158   1.081   4.872   4.796 -0.0063  0.3049  0.6233
  858MOL0     O13159   0.947   4.891   4.783 -0.2574  1.0980  0.6346
  858MOL0     C13160   0.879   4.806   4.689  0.8757 -0.5846  0.0367
  858MOL0     C13161   0.738   4.876   4.685  1.0844  0.4859  0.3162
  858MOL0     C13162   0.637   4.805   4.583 -0.1001 -0.4409  0.1995
  858MOL0     C13163   0.617   4.650   4.618  1.2966  0.5015 -0.1453
  858MOL0     C13164   0.478   4.607   4.568  0.2193  0.0753  0.0734
  858MOL0     C13165   0.468   4.452   4.564  0.5749  0.2393 -0.7194
  858MOL0     C13166   0.328   4.419   4.496 -0.3153 -0.9615 -0.6438
  858MOL0     C13167   0.308   4.267   4.476  0.4812 -0.7425  0.3722
  858MOL0    Cl13168   0.156   4.244   4.382 -0.1951  0.2173 -0.2852
  858MOL0     C13169   1.154   4.989   4.835 -0.3980 -0.4715 -0.1064
  858MOL0     C13170   1.298   4.982   4.846  0.3344 -0.4500 -1.0548
  858MOL0     O13171   1.477   4.643   4.978 -0.2010 -0.2980 -0.3816
  858MOL0     C13172   1.743   4.661   5.062  1.0230 -0.0842  0.3133
  858MOL0     C13173   1.879   4.675   5.086  0.0370  0.0690 -0.2847
  858MOL0     N13174   2.518   4.468   4.800  0.4630  0.5150  0.3160
  858MOL0     N13175   2.570   4.344   4.790 -0.1366  0.4872 -0.3330
  858MOL0     C13176   3.217   3.631   5.545 -0.2932  0.1205 -0.3434
  858MOL0     C13177   3.345   3.606   5.549 -0.2175  0.5125  0.0025
  858MOL0     C13178   3.789   3.669   5.567  0.2549  0.7492 -0.5014
  858MOL0     C13179   3.831   3.739   5.680 -0.6307  0.6826  0.1177
  858MOL0     C13180   3.966   3.766   5.707  0.0970 -0.5059 -0.8047
  858MOL0     C13181   4.067   3.716   5.630 -0.7652  0.1314  0.3811
  858MOL0     O13182   4.199   3.746   5.658 -0.4133 -0.4277 -0.4306
  858MOL0     C13183   4.300   3.684   5.578 -0.7218 -0.3558 -0.3016
  858MOL0     C13184   4.442   3.738   5.604  0.0069  0.3597  0.6209
  858MOL0     C13185   4.477   3.875   5.543  1.2313 -0.0911 -0.4146
  858MOL0     C13186   4.624   3.895   5.514  0.1794 -0.2675 -0.5399
  858MOL0     C13187   4.667   4.032   5.483  0.0103 -0.5830 -0.4740
  858MOL0     C13188   4.696   4.153   5.467  0.0402 -0.1791  0.6508
  858MOL0     C13189   4.028   3.640   5.518 -1.1202 -0.0428 -0.6401
  858MOL0     C13190   3.894   3.620   5.487 -0.0261 -0.0405  0.6203
  858MOL0     H13191   3.431   3.810   5.803  2.0538 -1.8188 -2.1120
  858MOL0     H13192   3.190   3.864   5.796  2.7359  1.1177  1.7386
  858MOL0     H13193   2.938   3.644   5.484  1.4114 -0.7738 -1.5689
  858MOL0     H13194   3.033   3.773   5.407  0.5512  0.4771  0.4779
  858MOL0     H13195   2.864   3.943   5.525  1.2446  0.7120 -2.2746
  858MOL0     H13196   2.772   3.805   5.562 -1.5480  0.2993 -0.5451
  858MOL0     H13197   2.761   3.745   5.338 -0.8828  0.4295  3.5780
  858MOL0     H13198   2.877   3.870   5.273 -0.9778  4.1324 -0.3351
  858MOL0     H13199   2.604   3.911   5.394  0.6726 -3.6807 -2.9821
  858MOL0     H13200   2.721   4.040   5.389 -1.2349 -0.4136  1.8998
  858MOL0     H13201   2.543   4.017   5.193  0.1545  0.7085 -0.2883
  858MOL0     H13202   2.658   3.896   5.128  2.4062  1.7560 -0.9810
  858MOL0     H13203   2.836   4.051   5.119 -0.0588 -1.5683  0.6348
  858MOL0     H13204   2.726   4.188   5.182 -2.0697  1.1009 -2.4126
  858MOL0     H13205   2.699   4.024   4.923 -1.5226 -1.1925  0.4646
  858MOL0     H13206   2.585   4.133   4.980 -0.1772 -1.0792  0.2911
  858MOL0     H13207   2.775   4.175   4.803 -1.7314 -1.0977 -0.2044
  858MOL0     H13208   2.857   4.252   4.949  1.9965  1.0280 -3.2213
  858MOL0     H13209   2.712   4.462   5.065 -1.8977  3.6404  0.3107
  858MOL0     H13210   2.587   4.735   4.966 -3.4125  3.9027 -3.2016
  858MOL0     H13211   2.508   4.628   5.090  0.4987 -1.0097 -0.9657
  858MOL0     H13212   2.316   4.602   4.959  1.0157 -0.2290  1.7695
  858MOL0     H13213   2.378   4.703   4.829 -2.5912  1.6200 -0.1388
  858MOL0     H13214   2.330   4.818   5.105  0.4550  1.8920 -0.0474
  858MOL0     H13215   2.375   4.902   4.954 -3.5456  2.3567 -1.3866
  858MOL0     H13216   2.169   4.820   4.856  0.7327  0.4576  0.3672
  858MOL0     H13217   2.161   4.943   4.989  0.1870 -0.0151  1.6967
  858MOL0     H13218   1.967   4.897   4.844 -1.7515  0.7208 -1.5412
  858MOL0     H13219   1.735   4.895   4.804 -0.2150 -0.2037 -0.8265
  858MOL0     H13220   1.339   4.656   4.754 -1.4665 -1.6612 -0.2217
  858MOL0     H13221   1.111   4.670   4.716  0.6575 -0.7262  0.1654
  858MOL0     H13222   0.871   4.706   4.732  1.9446 -0.4043  0.6818
  858MOL0     H13223   0.926   4.805   4.590  0.6382 -0.2352 -0.0847
  858MOL0     H13224   0.744   4.983   4.665  0.5640  0.9235  2.2537
  858MOL0     H13225   0.699   4.870   4.787  0.8818  2.4039  0.3877
  858MOL0     H13226   0.670   4.810   4.478  0.1075 -2.4248  0.1267
  858MOL0     H13227   0.545   4.865   4.585 -1.8590 -3.0075  1.3360
  858MOL0     H13228   0.695   4.584   4.580  0.2225 -1.1388  0.4053
  858MOL0     H13229   0.611   4.644   4.727 -1.8435 -1.6918 -0.3175
  858MOL0     H13230   0.474   4.646   4.466  1.1019 -0.7010 -0.2641
  858MOL0     H13231   0.398   4.662   4.620 -1.4446 -1.6751 -0.5009
  858MOL0     H13232   0.488   4.416   4.665  0.1694  0.4740 -0.5528
  858MOL0     H13233   0.550   4.422   4.498  0.7757  2.2989 -1.4846
  858MOL0     H13234   0.248   4.446   4.565  0.0664  0.9880 -0.9123
  858MOL0     H13235   0.323   4.478   4.404 -0.8814  1.1700  0.6870
  858MOL0     H13236   0.297   4.218   4.573  3.3893 -1.7922  0.2644
  858MOL0     H13237   0.394   4.222   4.425  1.2412  1.7292 -0.6607
  858MOL0     H13238   1.104   5.085   4.852  0.6679 -0.2604  2.2624
  858MOL0     H13239   1.343   5.065   4.898 -2.1475  0.1909  0.2395
  858MOL0     H13240   1.681   4.596   5.123 -1.3451  0.3437 -1.4847
  858MOL0     H13241   1.929   4.624   5.168 -1.6590 -1.5374 -0.1827
  858MOL0     H13242   3.154   3.577   5.475  0.1408 -3.7527  1.9224
  858MOL0     H13243   3.385   3.535   5.477 -0.3502 -0.5155  0.9316
  858MOL0     H13244   3.757   3.767   5.754 -1.3894 -0.3313 -0.2266
  858MOL0     H13245   3.996   3.815   5.799 -1.3965 -0.8703 -0.0852
  858MOL0     H13246   4.279   3.715   5.475 -1.0880  0.0357 -0.1155
  858MOL0     H13247   4.301   3.578   5.605  1.4552 -0.5138 -0.8610
  858MOL0     H13248   4.454   3.743   5.713  0.5777 -1.4121  0.6735
  858MOL0     H13249   4.518   3.664   5.576 -2.1636 -2.0213  0.6460
  858MOL0     H13250   4.438   3.956   5.606 -1.6266 -1.3487 -0.4189
  858MOL0     H13251   4.423   3.882   5.448  0.1760 -4.0092 -0.2907
  858MOL0     H13252   4.688   3.875   5.600 -0.8710  2.3929  0.9735
  858MOL0     H13253   4.652   3.817   5.443 -0.8805 -2.2491  1.1226
  858MOL0     H13254   4.703   4.258   5.444 -2.3910  0.3132  1.8371
  858MOL0     H13255   4.093   3.594   5.445 -5.1247 -2.8345 -2.7969
  858MOL0     H13256   3.868   3.564   5.398 -1.6968  1.1817  0.3000
  859MOL0     O13257   2.355   0.286   1.336  0.2490  0.3776 -0.2493
  859MOL0     C13258   2.423   0.178   1.331  0.6878 -0.1720  0.4205
  859MOL0     O13259   2.377   0.064   1.274 -0.2113  0.4337 -0.3217
  859MOL0     C13260   2.242   0.042   1.275 -0.5828  0.3238 -0.7791
  859MOL0     C13261   2.188  -0.062   1.354 -0.0453  0.2171 -0.0854
  859MOL0     C13262   2.053  -0.087   1.338  0.4119  0.4037  0.6335
  859MOL0     C13263   1.969  -0.015   1.255 -0.3017  0.2616 -0.3708
  859MOL0     O13264   1.834  -0.022   1.252  0.0170  0.0544  0.1297
  859MOL0     C13265   1.779   0.001   1.383 -0.8098  0.0369 -0.1682
  859MOL0     C13266   1.644   0.067   1.365 -0.0138  0.0458  0.1772
  859MOL0     C13267   1.549  -0.042   1.308  0.6427 -0.2776 -0.5830
  859MOL0     C13268   1.398   0.013   1.282  0.1143  0.0429  0.0118
  859MOL0     C13269   1.384   0.125   1.181  0.0905 -0.2457 -0.1573
  859MOL0     C13270   1.405   0.073   1.030  0.6770  1.2790  0.2233
  859MOL0     C13271   1.406   0.197   0.937 -0.0255  0.0957 -0.5586
  859MOL0     C13272   1.382   0.172   0.791  0.6644  0.0575 -0.2168
  859MOL0     N13273   1.235   0.183   0.766 -0.5453 -0.4498 -0.8038
  859MOL0     C13274   1.181   0.245   0.659  0.5289  0.0099 -0.2966
  859MOL0     C13275   1.043   0.227   0.677  0.2625  0.7190 -0.0964
  859MOL0     C13276   0.939   0.288   0.581 -0.1986 -0.4411  1.0351
  859MOL0     C13277   0.839   0.367   0.661  0.7286 -0.0690 -0.1917
  859MOL0     C13278   0.706   0.401   0.590 -0.2394 -0.7867  0.0504
  859MOL0     C13279   0.615   0.482   0.682  1.0061 -0.1805  0.2243
  859MOL0     O13280   0.485   0.481   0.631  0.2364 -0.2325  0.1917
  859MOL0     C13281   0.394   0.561   0.690  0.6477 -0.3146 -0.2700
  859MOL0     C13282   0.280   0.564   0.616  1.1604 -0.3929 -0.8323
  859MOL0     C13283   0.164   0.633   0.662 -0.3590  1.3149 -0.5559
  859MOL0     C13284   0.173   0.707   0.780 -0.0431 -0.3643  0.0510
  859MOL0     C13285   0.053   0.774   0.831  0.1354  0.9777  0.1391
  859MOL0     O13286   0.086   0.860   0.925  0.9834  0.0982 -0.5806
  859MOL0     C13287  -0.017   0.945   0.966  0.7949  0.1781  0.4767
  859MOL0     C13288  -0.026   1.079   0.932 -0.7255 -0.4397  1.0207
  859MOL0     C13289  -0.136   1.158   0.972 -0.2517  0.1624 -0.6360
  859MOL0     C13290  -0.236   1.103   1.060  0.6457  0.4081  0.3913
  859MOL0     O13291  -0.358   1.166   1.069  0.5632 -0.5423  0.1067
  859MOL0     C13292  -0.466   1.097   1.130 -0.0491 -0.8979 -0.2523
  859MOL0     C13293  -0.583   1.186   1.170 -0.2156  0.4256  0.1663
  859MOL0     C13294  -0.712   1.112   1.221  0.7628 -0.2088  0.2980
  859MOL0     C13295  -0.839   1.199   1.183  0.7725 -0.2129  0.0805
  859MOL0     C13296  -0.961   1.113   1.221  0.5730 -0.3905  0.1751
  859MOL0     C13297  -1.083   1.195   1.256 -0.8656  0.7934 -0.1920
  859MOL0     C13298  -1.144   1.261   1.131 -0.1761  0.6274 -0.3969
  859MOL0     C13299  -1.275   1.331   1.157 -0.2915 -0.3070  0.3428
  859MOL0    Cl13300  -1.403   1.204   1.191  0.1681  0.1463  0.0578
  859MOL0     C13301  -0.216   0.973   1.102 -0.1337  0.0390  0.4017
  859MOL0     C13302  -0.111   0.893   1.054 -0.1002  0.0967 -0.0863
  859MOL0     O13303  -0.058   0.751   0.788 -0.2491  0.7834  0.1432
  859MOL0     C13304   0.301   0.706   0.852  0.0247 -0.9696 -0.6125
  859MOL0     C13305   0.408   0.627   0.808  0.3208 -0.5987  0.4220
  859MOL0     N13306   1.026   0.151   0.791 -0.0691  0.9878 -0.3302
  859MOL0     N13307   1.141   0.121   0.841  0.5508  0.4561  0.0297
  859MOL0     C13308   2.025   0.078   1.172  0.6732  0.1694 -0.2595
  859MOL0     C13309   2.161   0.106   1.178 -0.4954 -0.6827 -0.3669
  859MOL0     C13310   2.550   0.185   1.405  0.0948 -0.1763 -0.0430
  859MOL0     C13311   2.645   0.085   1.395  0.7720 -0.4101 -0.7009
  859MOL0     C13312   2.761   0.075   1.467 -0.6155 -0.7233  0.5234
  859MOL0     C13313   2.793   0.173   1.560 -0.4202  0.4129  0.2992
  859MOL0     O13314   2.907   0.171   1.631 -0.0447 -1.4412 -0.0621
  859MOL0     C13315   2.997   0.063   1.607 -0.2684 -0.4932  0.0664
  859MOL0     C13316   3.134   0.089   1.664 -0.1603 -0.2296  0.2757
  859MOL0     C13317   3.233  -0.007   1.603 -0.9552 -0.6899 -0.1634
  859MOL0     C13318   3.366   0.062   1.628  0.2125  0.0841  0.2481
  859MOL0     C13319   3.473  -0.030   1.593  0.4488 -0.6922 -0.4593
  859MOL0     C13320   3.523  -0.140   1.567  0.2901 -1.3562  0.1962
  859MOL0     C13321   2.713   0.288   1.564  0.7225  0.2907 -0.5155
  859MOL0     C13322   2.588   0.286   1.491  0.3865  0.4180 -0.5579
  859MOL0     H13323   2.250  -0.124   1.418 -1.1255 -0.9918 -0.1769
  859MOL0     H13324   2.005  -0.159   1.404  0.5285 -2.9452 -2.6022
  859MOL0     H13325   1.847   0.071   1.432  0.5376 -0.0922 -1.7415
  859MOL0     H13326   1.772  -0.096   1.434 -1.8844 -0.3655 -1.0519
  859MOL0     H13327   1.646   0.156   1.302 -0.9872  2.2361  3.0323
  859MOL0     H13328   1.599   0.091   1.462 -0.7146 -1.8387  0.3590
  859MOL0     H13329   1.555  -0.128   1.375  2.6131 -1.7218 -2.4488
  859MOL0     H13330   1.578  -0.078   1.209  2.2189 -0.1681 -0.1878
  859MOL0     H13331   1.331  -0.071   1.261  1.2130 -1.6970  2.8688
  859MOL0     H13332   1.362   0.059   1.375 -1.7325  1.9708 -1.5408
  859MOL0     H13333   1.451   0.209   1.204 -0.7008 -0.2914  2.7093
  859MOL0     H13334   1.280   0.160   1.180 -0.3105 -1.2345  1.9068
  859MOL0     H13335   1.316   0.012   1.013  0.1958  2.2037 -0.6579
  859MOL0     H13336   1.492   0.007   1.018 -0.1173  0.0894  0.7852
  859MOL0     H13337   1.321   0.258   0.969 -2.7635 -1.4001 -4.2510
  859MOL0     H13338   1.498   0.255   0.944  0.8982 -1.5021  1.5510
  859MOL0     H13339   1.420   0.073   0.762  2.0569 -0.7133  3.5826
  859MOL0     H13340   1.442   0.245   0.736  1.9155 -0.2273  0.7177
  859MOL0     H13341   1.224   0.302   0.578 -0.2348  1.1382  0.0743
  859MOL0     H13342   0.886   0.210   0.527 -0.3803 -0.6645  1.5257
  859MOL0     H13343   0.994   0.353   0.512 -0.6183 -0.0568  1.0571
  859MOL0     H13344   0.883   0.458   0.703 -2.1024  2.3352 -2.0212
  859MOL0     H13345   0.813   0.309   0.749  1.5037  1.2618  0.9687
  859MOL0     H13346   0.711   0.458   0.497  0.3564  2.8946  2.1216
  859MOL0     H13347   0.651   0.311   0.561 -0.6039  0.4224 -3.4442
  859MOL0     H13348   0.648   0.585   0.696 -1.1346  0.4676  0.8635
  859MOL0     H13349   0.612   0.441   0.783 -0.2236  4.9467  2.6085
  859MOL0     H13350   0.258   0.509   0.525 -1.0997 -0.6078 -0.2151
  859MOL0     H13351   0.069   0.622   0.612 -0.0288  2.2272 -1.4147
  859MOL0     H13352   0.053   1.130   0.877 -1.4458 -0.6902 -0.2977
  859MOL0     H13353  -0.136   1.263   0.943 -0.8297  0.6223  0.9292
  859MOL0     H13354  -0.427   1.049   1.220  3.5254  0.8354 -0.6902
  859MOL0     H13355  -0.487   1.018   1.057  2.1743 -1.4357 -0.3802
  859MOL0     H13356  -0.599   1.231   1.072  3.3608  1.8032  0.0747
  859MOL0     H13357  -0.560   1.270   1.236  2.1883 -0.4081  0.4676
  859MOL0     H13358  -0.707   1.115   1.330 -1.1626  2.6560  0.3955
  859MOL0     H13359  -0.723   1.008   1.187 -0.4731  0.6841 -2.2667
  859MOL0     H13360  -0.854   1.292   1.239 -4.1787 -1.4060  1.3000
  859MOL0     H13361  -0.840   1.220   1.076 -3.8744 -2.4360 -0.5800
  859MOL0     H13362  -0.941   1.050   1.308 -1.5447 -4.2160 -1.8701
  859MOL0     H13363  -0.969   1.041   1.139  1.1327 -0.4349  0.1556
  859MOL0     H13364  -1.054   1.278   1.322  0.4770  1.3109 -1.3806
  859MOL0     H13365  -1.150   1.126   1.309 -1.6955  0.7971 -1.2098
  859MOL0     H13366  -1.075   1.343   1.111  0.0890  0.3529 -0.6300
  859MOL0     H13367  -1.152   1.182   1.055 -1.8514  2.0072 -1.7113
  859MOL0     H13368  -1.308   1.388   1.069  0.1972  2.5936  1.8824
  859MOL0     H13369  -1.250   1.404   1.235  1.0223 -1.9905  1.5766
  859MOL0     H13370  -0.278   0.917   1.171  0.2768 -2.2309 -0.9671
  859MOL0     H13371  -0.096   0.790   1.084  0.2927  0.5055  1.1646
  859MOL0     H13372   0.302   0.770   0.939  0.8952  0.1721 -1.4323
  859MOL0     H13373   0.505   0.617   0.856  1.0657 -1.8866 -1.2623
  859MOL0     H13374   1.977   0.127   1.088  0.2376  0.3687  0.1051
  859MOL0     H13375   2.215   0.158   1.100  2.1606 -3.2806 -0.3941
  859MOL0     H13376   2.625  -0.001   1.333  1.0065 -0.3230 -0.8983
  859MOL0     H13377   2.826  -0.012   1.469  4.1473  2.4533  3.6033
  859MOL0     H13378   3.010   0.053   1.499 -2.3859 -0.0146 -0.2859
  859MOL0     H13379   2.959  -0.034   1.642 -1.7487  0.4688  1.2345
  859MOL0     H13380   3.170   0.190   1.642 -0.2520 -0.4646 -1.0271
  859MOL0     H13381   3.131   0.079   1.773 -1.4314  3.3006  0.7187
  859MOL0     H13382   3.231  -0.023   1.495  0.4830  0.8084 -0.4620
  859MOL0     H13383   3.217  -0.102   1.655 -1.3598 -0.5074  0.0461
  859MOL0     H13384   3.381   0.150   1.566  0.2569 -2.2338 -3.3374
  859MOL0     H13385   3.380   0.100   1.730 -0.0637  3.3841 -0.8452
  859MOL0     H13386   3.564  -0.233   1.531 -0.4271 -1.4420 -0.4182
  859MOL0     H13387   2.730   0.370   1.633  1.1495 -1.4775  1.5490
  859MOL0     H13388   2.536   0.380   1.506  0.1122 -0.1224  2.4073
  860MOL0     O13389   5.363   6.596   4.773 -0.1486  0.0361 -1.1581
  860MOL0     C13390   5.374   6.484   4.826  0.1841 -0.1421  0.2698
  860MOL0     O13391   5.262   6.397   4.855 -0.8368  1.0113  0.1985
  860MOL0     C13392   5.136   6.452   4.851  0.5599  0.4798  0.5809
  860MOL0     C13393   5.039   6.380   4.789  0.0561  0.2130 -0.4470
  860MOL0     C13394   4.907   6.429   4.780 -0.9547  0.3004 -0.1282
  860MOL0     C13395   4.862   6.544   4.849 -0.2170 -0.4617  0.5532
  860MOL0     O13396   4.732   6.583   4.864 -0.0919  0.3974  0.0573
  860MOL0     C13397   4.627   6.501   4.805  1.6143  0.0611  0.4804
  860MOL0     C13398   4.491   6.557   4.820  0.6853  0.4556  0.5451
  860MOL0     C13399   4.458   6.537   4.968  0.6393 -0.2458 -0.3493
  860MOL0     C13400   4.302   6.562   4.987  0.0567  0.3878 -0.1913
  860MOL0     C13401   4.258   6.527   5.128 -0.8341 -0.2107 -0.3767
  860MOL0     C13402   4.103   6.569   5.159 -0.8288  0.0157 -0.6054
  860MOL0     C13403   4.054   6.468   5.263 -0.7922 -1.5478 -0.0641
  860MOL0     C13404   3.904   6.461   5.274 -0.2209  0.4685 -0.1286
  860MOL0     N13405   3.854   6.384   5.390  0.3226 -0.4383  0.4932
  860MOL0     C13406   3.901   6.260   5.419 -0.5943 -0.3697  0.0545
  860MOL0     C13407   3.826   6.218   5.529  0.4922 -0.7388 -0.7613
  860MOL0     C13408   3.850   6.100   5.608 -0.6682  0.9219 -0.1760
  860MOL0     C13409   3.752   5.989   5.586  0.6183 -0.8416 -0.2433
  860MOL0     C13410   3.781   5.857   5.656 -0.3004  0.4623 -0.4944
  860MOL0     C13411   3.653   5.776   5.675 -0.1332 -0.1970  0.8611
  860MOL0     O13412   3.583   5.825   5.785  0.1683  0.4130  0.8112
  860MOL0     C13413   3.460   5.776   5.820  0.1003 -0.5019  0.0740
  860MOL0     C13414   3.366   5.717   5.741  0.7130 -0.0424 -0.4896
  860MOL0     C13415   3.242   5.662   5.790 -0.0776 -0.4491  0.4491
  860MOL0     C13416   3.216   5.665   5.928 -0.2759  0.0158 -0.3769
  860MOL0     C13417   3.097   5.598   5.975 -0.0618 -0.8918 -0.6036
  860MOL0     O13418   3.007   5.556   5.875 -0.0624  0.0754  0.0675
  860MOL0     C13419   2.887   5.517   5.910  1.5267 -0.2621 -0.0435
  860MOL0     C13420   2.859   5.384   5.925  0.4012  0.7531 -0.0918
  860MOL0     C13421   2.729   5.337   5.949 -0.2396 -0.0842  0.1399
  860MOL0     C13422   2.618   5.427   5.962 -1.1900 -0.6971  0.4095
  860MOL0     O13423   2.490   5.401   5.990 -0.1139 -0.1320 -0.6533
  860MOL0     C13424   2.442   5.281   6.054  0.7590 -0.0846  0.3739
  860MOL0     C13425   2.286   5.284   6.057  0.0158 -0.3191 -0.7153
  860MOL0     C13426   2.204   5.290   5.932 -0.0866  0.0021  0.4888
  860MOL0     C13427   2.059   5.254   5.935 -0.2770 -0.3026  0.3905
  860MOL0     C13428   2.004   5.194   5.805 -0.4728 -0.9572  0.0517
  860MOL0     C13429   1.858   5.149   5.802 -0.4222  0.4808 -0.4003
  860MOL0     C13430   1.746   5.257   5.834  0.2529 -0.2347  0.7703
  860MOL0     C13431   1.733   5.378   5.734 -0.6254  0.0472 -0.3514
  860MOL0    Cl13432   1.702   5.316   5.573  0.2930  0.5260 -0.4184
  860MOL0     C13433   2.646   5.564   5.939  0.4688  0.2302 -0.0965
  860MOL0     C13434   2.779   5.614   5.915 -0.0184 -0.2825  0.1696
  860MOL0     O13435   3.074   5.603   6.097 -0.6819 -1.0169 -0.3519
  860MOL0     C13436   3.315   5.728   6.013  0.6613 -0.1172  0.4592
  860MOL0     C13437   3.427   5.786   5.959 -0.4130  0.3390 -0.1691
  860MOL0     N13438   3.732   6.316   5.556  0.0747  0.0168 -0.2956
  860MOL0     N13439   3.749   6.410   5.470  0.6664  0.5788  0.0936
  860MOL0     C13440   4.968   6.609   4.926  0.0754 -0.2729  0.5122
  860MOL0     C13441   5.095   6.563   4.922 -0.2260  0.5866 -0.6219
  860MOL0     C13442   5.508   6.421   4.829  0.1434 -0.4740  0.1714
  860MOL0     C13443   5.540   6.316   4.908 -1.0891  0.3503  0.1643
  860MOL0     C13444   5.665   6.260   4.904 -0.0867  0.1269  0.1185
  860MOL0     C13445   5.764   6.317   4.828  0.1460  0.0573  1.0298
  860MOL0     O13446   5.896   6.277   4.819  0.2099 -0.6112  0.0292
  860MOL0     C13447   5.938   6.161   4.893  0.3158  0.2926  0.1294
  860MOL0     C13448   5.942   6.152   5.043  0.1096 -0.5464 -0.7858
  860MOL0     C13449   6.042   6.252   5.093 -0.3963  0.0502 -0.7222
  860MOL0     C13450   6.044   6.259   5.250 -0.3451 -0.1839 -0.2930
  860MOL0     C13451   6.088   6.145   5.325 -1.0266  0.1402  0.6059
  860MOL0     C13452   6.134   6.045   5.371  0.7663  0.7605 -0.1713
  860MOL0     C13453   5.742   6.418   4.745  0.5987 -0.0993  0.1008
  860MOL0     C13454   5.616   6.479   4.754 -0.5238  0.5209  0.1757
  860MOL0     H13455   5.070   6.287   4.742 -3.9247 -1.4944 -0.1492
  860MOL0     H13456   4.833   6.370   4.728 -0.8568  1.1305 -1.2510
  860MOL0     H13457   4.632   6.403   4.853  2.1828  0.4286  1.2005
  860MOL0     H13458   4.646   6.500   4.697  0.6318  2.0258  0.2384
  860MOL0     H13459   4.426   6.496   4.756  0.2522  0.7749  0.6765
  860MOL0     H13460   4.481   6.662   4.790 -0.5968 -0.1978 -1.5274
  860MOL0     H13461   4.512   6.607   5.033  0.1864 -1.7761  1.7891
  860MOL0     H13462   4.485   6.438   5.006  1.6672  0.7551  1.7301
  860MOL0     H13463   4.266   6.663   4.966 -0.0071  1.0210  2.6509
  860MOL0     H13464   4.246   6.504   4.912 -0.3318 -0.7123  0.9138
  860MOL0     H13465   4.328   6.574   5.198 -0.4437 -1.5892  0.1958
  860MOL0     H13466   4.269   6.420   5.145 -1.7016  0.1203  2.8360
  860MOL0     H13467   4.046   6.579   5.067 -2.6561  3.4879  0.7299
  860MOL0     H13468   4.099   6.670   5.201 -0.5021 -0.5379  0.8470
  860MOL0     H13469   4.086   6.366   5.240 -0.5800 -1.6307  0.5941
  860MOL0     H13470   4.093   6.494   5.361 -1.3544 -0.1565 -0.1937
  860MOL0     H13471   3.868   6.414   5.182 -3.0167  1.8431  0.1338
  860MOL0     H13472   3.862   6.562   5.273 -0.2423  0.4767  0.8925
  860MOL0     H13473   3.991   6.214   5.380 -0.9309 -2.1221  1.2150
  860MOL0     H13474   3.854   6.112   5.717 -4.6549 -4.1868  0.9597
  860MOL0     H13475   3.945   6.056   5.576 -0.8987 -1.0268  1.5857
  860MOL0     H13476   3.742   5.972   5.478  0.8086  0.6916 -0.5152
  860MOL0     H13477   3.654   6.029   5.612  0.0241 -2.6448  0.4792
  860MOL0     H13478   3.856   5.801   5.599 -0.5876  0.2491 -0.6664
  860MOL0     H13479   3.835   5.867   5.750 -0.5330 -1.4707 -0.1117
  860MOL0     H13480   3.678   5.673   5.701  0.3787  0.4867  3.3490
  860MOL0     H13481   3.591   5.784   5.586  0.2371  0.4686  0.6593
  860MOL0     H13482   3.390   5.716   5.635 -1.4768  3.0562 -1.1652
  860MOL0     H13483   3.175   5.628   5.711  1.6910 -0.1122 -1.2591
  860MOL0     H13484   2.937   5.308   5.920 -1.1535 -0.9071 -0.0510
  860MOL0     H13485   2.705   5.231   5.950  0.6605 -0.2887  1.3115
  860MOL0     H13486   2.479   5.270   6.156  1.4572  0.4400  0.1813
  860MOL0     H13487   2.465   5.187   6.002 -0.9006  0.1461 -0.8837
  860MOL0     H13488   2.255   5.380   6.100  3.2851  1.4802 -2.0432
  860MOL0     H13489   2.258   5.202   6.124 -0.5288  0.8313  0.5150
  860MOL0     H13490   2.264   5.219   5.873  0.2686  1.8002 -1.4247
  860MOL0     H13491   2.197   5.388   5.885 -0.9627 -1.3245 -2.3886
  860MOL0     H13492   2.035   5.190   6.020  0.2045 -1.2817 -0.1903
  860MOL0     H13493   1.994   5.340   5.951 -2.0704 -1.3745 -0.6878
  860MOL0     H13494   2.067   5.108   5.781 -2.1831 -2.5865  1.0938
  860MOL0     H13495   2.023   5.269   5.728  1.8261 -0.0422  1.4098
  860MOL0     H13496   1.845   5.064   5.871 -0.4334 -1.2475 -2.4263
  860MOL0     H13497   1.839   5.099   5.706 -1.5409  0.4533 -0.1787
  860MOL0     H13498   1.647   5.211   5.841 -0.6788  1.5101 -0.3230
  860MOL0     H13499   1.766   5.295   5.934 -1.1619 -2.2651  1.8922
  860MOL0     H13500   1.824   5.439   5.742 -0.5672 -0.2656  1.9145
  860MOL0     H13501   1.647   5.438   5.766  1.4988  2.5165  1.1603
  860MOL0     H13502   2.562   5.632   5.936  0.2246  0.1827  2.5499
  860MOL0     H13503   2.813   5.715   5.896 -0.1023  0.0270  1.5879
  860MOL0     H13504   3.287   5.740   6.117  1.3779  1.8717  0.4695
  860MOL0     H13505   3.499   5.831   6.027  0.4153  0.7987 -1.3137
  860MOL0     H13506   4.953   6.699   4.985  1.0004 -0.1648  0.5876
  860MOL0     H13507   5.172   6.613   4.980 -0.2944 -2.4092  2.4006
  860MOL0     H13508   5.459   6.282   4.972 -0.6897  2.0691  1.6941
  860MOL0     H13509   5.666   6.182   4.979 -2.6128  0.1127  0.2386
  860MOL0     H13510   6.042   6.151   4.859  0.7117 -0.1156  1.4038
  860MOL0     H13511   5.885   6.073   4.856 -0.9459  1.9697 -2.2941
  860MOL0     H13512   5.848   6.171   5.095  1.0878  0.7623  0.5715
  860MOL0     H13513   5.970   6.047   5.060  0.9914 -0.1899  0.0732
  860MOL0     H13514   6.016   6.349   5.051 -1.0085  1.0906  1.8657
  860MOL0     H13515   6.139   6.216   5.056 -0.4208 -3.2601  1.8960
  860MOL0     H13516   6.114   6.337   5.283  0.4984 -1.3245  0.7009
  860MOL0     H13517   5.944   6.279   5.290  1.2580  1.8860  3.1317
  860MOL0     H13518   6.172   5.946   5.389 -2.3912 -0.7606 -1.3133
  860MOL0     H13519   5.818   6.463   4.680  1.4157 -1.7648 -0.1412
  860MOL0     H13520   5.608   6.566   4.691  1.7776  0.9106  0.3615
  861MOL0     O13521   1.184   2.223   0.418  0.0609  0.3557  0.2066
  861MOL0     C13522   1.178   2.109   0.365  0.0085 -0.6669 -0.0118
  861MOL0     O13523   1.065   2.044   0.319  0.3871  0.0443  0.0627
  861MOL0     C13524   0.951   2.133   0.303  0.0552  0.5221 -0.2986
  861MOL0     C13525   0.963   2.250   0.231  0.1495 -0.3967 -0.1655
  861MOL0     C13526   0.850   2.334   0.206  0.3631 -0.2320  0.3765
  861MOL0     C13527   0.724   2.293   0.244  0.8933 -0.1085 -0.0032
  861MOL0     O13528   0.619   2.382   0.208  0.0488  0.9142 -0.4063
  861MOL0     C13529   0.517   2.411   0.312 -1.4000 -1.0249  0.7180
  861MOL0     C13530   0.420   2.503   0.251 -0.1998 -0.4104  0.5127
  861MOL0     C13531   0.301   2.535   0.331 -0.2499 -0.2563  0.0639
  861MOL0     C13532   0.203   2.626   0.243  0.2986  0.4149  0.2332
  861MOL0     C13533   0.069   2.648   0.292  1.2112  0.8300 -0.2148
  861MOL0     C13534  -0.012   2.744   0.214  0.3900  0.1664  0.3806
  861MOL0     C13535  -0.144   2.785   0.283 -0.6295 -0.0137  0.4256
  861MOL0     C13536  -0.198   2.915   0.231 -0.8038 -0.0656 -0.3654
  861MOL0     N13537  -0.324   2.946   0.288 -0.4829  0.3087  0.1547
  861MOL0     C13538  -0.349   3.030   0.396 -0.1186 -0.1619  0.9396
  861MOL0     C13539  -0.487   3.039   0.402  0.2186 -1.0053  0.0487
  861MOL0     C13540  -0.562   3.122   0.503 -0.4593 -0.3613 -1.1622
  861MOL0     C13541  -0.567   3.045   0.635  0.3084 -0.5637 -0.2868
  861MOL0     C13542  -0.662   2.925   0.653  0.4217 -0.3208  0.6817
  861MOL0     C13543  -0.615   2.814   0.742 -0.3718 -0.3024  0.6746
  861MOL0     O13544  -0.648   2.838   0.882 -0.3105  0.3409 -0.3181
  861MOL0     C13545  -0.781   2.827   0.923 -0.7830 -0.3711 -0.7294
  861MOL0     C13546  -0.896   2.798   0.843 -0.0126 -0.1761  0.0930
  861MOL0     C13547  -1.019   2.792   0.898  0.2815  0.7574 -0.0800
  861MOL0     C13548  -1.044   2.811   1.039 -0.7358 -0.3846 -0.4566
  861MOL0     C13549  -1.180   2.801   1.093 -0.9180 -0.1741  0.3987
  861MOL0     O13550  -1.274   2.745   1.015  0.2330 -0.5938  0.2852
  861MOL0     C13551  -1.392   2.721   1.087 -0.2678 -0.9275 -0.8926
  861MOL0     C13552  -1.493   2.820   1.079  0.2374 -0.3304  0.4937
  861MOL0     C13553  -1.616   2.795   1.133 -0.2324  1.1433  1.1704
  861MOL0     C13554  -1.641   2.658   1.187 -0.2537 -0.5711  0.2894
  861MOL0     O13555  -1.764   2.618   1.236 -0.9314  0.1189  0.6573
  861MOL0     C13556  -1.879   2.717   1.242 -0.1850 -0.5199 -0.4439
  861MOL0     C13557  -2.009   2.637   1.263 -0.3376 -0.2532 -0.2547
  861MOL0     C13558  -2.126   2.726   1.303  0.2019  0.1091 -0.1255
  861MOL0     C13559  -2.245   2.653   1.349  0.5461  0.1404  0.3820
  861MOL0     C13560  -2.386   2.711   1.302  0.4368 -0.1407 -0.4394
  861MOL0     C13561  -2.405   2.670   1.160  0.5785  0.3027  0.4517
  861MOL0     C13562  -2.550   2.673   1.123 -0.2079  1.1577  1.2295
  861MOL0     C13563  -2.575   2.644   0.972  0.6870  0.6924 -0.6986
  861MOL0    Cl13564  -2.749   2.636   0.931 -0.0498 -0.2148  0.1004
  861MOL0     C13565  -1.536   2.569   1.197  0.5177  0.3026  0.1042
  861MOL0     C13566  -1.409   2.600   1.149  0.0724  0.1097  0.1990
  861MOL0     O13567  -1.187   2.833   1.212  0.1494  0.0612  0.1654
  861MOL0     C13568  -0.928   2.845   1.119 -0.6067  0.3086 -0.2936
  861MOL0     C13569  -0.798   2.854   1.061  0.3187 -0.8154 -0.3521
  861MOL0     N13570  -0.544   2.952   0.309  0.0862 -0.3032 -0.4155
  861MOL0     N13571  -0.440   2.904   0.241 -0.7619  0.1954 -0.1954
  861MOL0     C13572   0.705   2.180   0.328 -0.3609  0.1380  1.3270
  861MOL0     C13573   0.822   2.100   0.355  0.5294 -0.0990 -1.0388
  861MOL0     C13574   1.307   2.036   0.343  1.0488  1.0574  0.5171
  861MOL0     C13575   1.433   2.103   0.365  0.2521  0.0314 -1.2140
  861MOL0     C13576   1.560   2.042   0.349  0.4560  0.4432  0.0003
  861MOL0     C13577   1.549   1.907   0.307 -0.7904  0.7545 -0.0029
  861MOL0     O13578   1.668   1.832   0.310  0.0530 -0.1901 -0.2398
  861MOL0     C13579   1.743   1.843   0.188 -0.6240  0.1262  0.4268
  861MOL0     C13580   1.844   1.960   0.207  0.9300  0.9969 -0.6635
  861MOL0     C13581   1.926   1.939   0.333 -0.8451 -0.0004  0.0453
  861MOL0     C13582   2.039   2.032   0.348 -0.5790 -0.6230 -0.4726
  861MOL0     C13583   1.995   2.173   0.358  0.1449  0.4593  0.0230
  861MOL0     C13584   1.948   2.286   0.376 -0.0636 -0.3490  0.4053
  861MOL0     C13585   1.424   1.835   0.281  0.1668 -1.0333  0.0267
  861MOL0     C13586   1.306   1.903   0.295  0.2784  0.4991 -0.4977
  861MOL0     H13587   1.060   2.286   0.198  1.2251 -2.9086  0.0398
  861MOL0     H13588   0.861   2.428   0.153 -0.5853  1.1045  2.3924
  861MOL0     H13589   0.560   2.463   0.398 -0.8223  0.8019 -0.6017
  861MOL0     H13590   0.478   2.317   0.351 -1.9925 -1.4120 -0.7344
  861MOL0     H13591   0.403   2.442   0.162  3.1739 -1.7047  0.5907
  861MOL0     H13592   0.473   2.594   0.219 -0.1200 -0.9345 -0.9466
  861MOL0     H13593   0.331   2.590   0.421  4.0119 -2.7239  0.4304
  861MOL0     H13594   0.248   2.442   0.352 -0.9289 -0.3448 -1.8563
  861MOL0     H13595   0.254   2.723   0.236 -0.2473  0.8827  2.1991
  861MOL0     H13596   0.199   2.578   0.145 -0.3663  0.1566  0.3849
  861MOL0     H13597   0.067   2.687   0.395 -2.5357  0.6504 -0.0870
  861MOL0     H13598   0.021   2.550   0.306 -0.4039  1.9223  3.2320
  861MOL0     H13599  -0.032   2.706   0.114 -1.7965  0.2018  0.7601
  861MOL0     H13600   0.049   2.832   0.190  0.0235  1.2912  3.1736
  861MOL0     H13601  -0.223   2.709   0.284 -1.0729  0.4447  0.7407
  861MOL0     H13602  -0.123   2.787   0.390 -1.9294  1.3665  0.6943
  861MOL0     H13603  -0.215   2.908   0.123  1.4236 -0.8339 -0.7191
  861MOL0     H13604  -0.118   2.987   0.250 -1.0250 -0.0068  0.3754
  861MOL0     H13605  -0.277   3.081   0.459  3.2445  0.9182 -3.3359
  861MOL0     H13606  -0.663   3.144   0.469 -0.7515 -1.2433 -0.8844
  861MOL0     H13607  -0.503   3.213   0.515 -0.5424 -0.4766  0.4001
  861MOL0     H13608  -0.593   3.124   0.706  1.1854  0.0644 -0.6414
  861MOL0     H13609  -0.466   3.011   0.661  0.8133 -0.2134 -1.6664
  861MOL0     H13610  -0.756   2.963   0.695  0.7073  2.7446 -1.1250
  861MOL0     H13611  -0.689   2.883   0.556 -0.5639  0.3159  0.6646
  861MOL0     H13612  -0.507   2.804   0.731 -0.5341 -0.8457 -0.7115
  861MOL0     H13613  -0.668   2.724   0.710 -0.6648  0.6122 -1.6302
  861MOL0     H13614  -0.881   2.776   0.738 -0.3758 -2.8803  0.5322
  861MOL0     H13615  -1.101   2.766   0.832 -0.2264  1.1628  0.3848
  861MOL0     H13616  -1.484   2.914   1.026 -0.7458 -2.2568 -3.4734
  861MOL0     H13617  -1.700   2.861   1.113 -0.7385  0.3043  0.4772
  861MOL0     H13618  -1.890   2.769   1.147  1.6195 -1.0398 -0.9685
  861MOL0     H13619  -1.868   2.787   1.325 -0.0089 -1.4894  0.3653
  861MOL0     H13620  -1.980   2.568   1.343  2.5287  1.5240  0.4047
  861MOL0     H13621  -2.025   2.583   1.170 -1.6164 -0.4700  0.0804
  861MOL0     H13622  -2.133   2.798   1.220  1.4581 -1.5674 -1.7664
  861MOL0     H13623  -2.099   2.790   1.388 -1.2531 -2.3684  2.3541
  861MOL0     H13624  -2.230   2.553   1.306  0.8393  0.1044  0.5686
  861MOL0     H13625  -2.235   2.646   1.457  0.0878 -1.1440  0.3616
  861MOL0     H13626  -2.376   2.820   1.302  0.6300 -0.1578 -0.3164
  861MOL0     H13627  -2.469   2.680   1.367  0.4670  0.0987 -0.2839
  861MOL0     H13628  -2.357   2.574   1.140  2.1906  0.9725  0.9315
  861MOL0     H13629  -2.350   2.736   1.092 -0.1693  0.2448 -0.2311
  861MOL0     H13630  -2.604   2.591   1.170  0.4719  0.5974  1.0443
  861MOL0     H13631  -2.589   2.771   1.152  1.2631  2.0604  0.2858
  861MOL0     H13632  -2.540   2.550   0.928  0.0534  0.4632 -0.7203
  861MOL0     H13633  -2.537   2.723   0.907  0.1915  1.4369 -0.0892
  861MOL0     H13634  -1.550   2.473   1.245 -2.2179 -0.5390 -2.0926
  861MOL0     H13635  -1.336   2.520   1.152 -1.6606 -1.5022  1.4014
  861MOL0     H13636  -0.933   2.854   1.227 -1.9400 -3.0603  0.0702
  861MOL0     H13637  -0.705   2.883   1.109  2.2152  1.3312 -4.7585
  861MOL0     H13638   0.604   2.152   0.356 -0.2336 -1.3446  0.4133
  861MOL0     H13639   0.817   2.019   0.427 -0.2086  0.7392 -0.1119
  861MOL0     H13640   1.435   2.205   0.404  2.5620  0.0486 -1.2469
  861MOL0     H13641   1.657   2.085   0.372  1.2038 -1.0752 -0.1871
  861MOL0     H13642   1.688   1.866   0.096 -2.5825 -0.3912  1.3932
  861MOL0     H13643   1.790   1.746   0.166  4.4659  2.3757  0.0407
  861MOL0     H13644   1.919   1.964   0.128  0.9757 -1.9603 -0.8896
  861MOL0     H13645   1.782   2.050   0.196 -1.7407 -0.8388 -1.9891
  861MOL0     H13646   1.970   1.839   0.337  0.0902  0.3715 -0.5507
  861MOL0     H13647   1.866   1.944   0.425 -0.6480  0.2124  0.1637
  861MOL0     H13648   2.108   1.998   0.426 -0.7247 -2.2564 -0.9998
  861MOL0     H13649   2.093   2.021   0.254 -0.0115 -0.1026 -0.2106
  861MOL0     H13650   1.908   2.385   0.383  0.0833 -0.3333  1.0414
  861MOL0     H13651   1.419   1.732   0.248 -0.9954 -0.6381 -1.0841
  861MOL0     H13652   1.214   1.848   0.282  1.2343 -2.6878  3.7896
  862MOL0     O13653   3.783   4.078   9.068 -0.7234 -0.3002 -0.1886
  862MOL0     C13654   3.811   4.126   9.178 -0.4253 -0.1985  0.6292
  862MOL0     O13655   3.728   4.183   9.263  0.0135  0.2680 -0.5382
  862MOL0     C13656   3.598   4.190   9.222 -0.3644 -0.5055 -0.0220
  862MOL0     C13657   3.558   4.307   9.163 -0.4004 -0.0461  0.1845
  862MOL0     C13658   3.432   4.315   9.107 -0.2586  0.4002  1.1064
  862MOL0     C13659   3.346   4.205   9.094 -0.8978  0.8587  0.3072
  862MOL0     O13660   3.223   4.227   9.041  1.2363 -0.2454 -0.8140
  862MOL0     C13661   3.120   4.123   9.054 -0.0828  0.3002  0.3585
  862MOL0     C13662   2.997   4.163   8.987 -0.8999 -0.8563  0.4543
  862MOL0     C13663   2.885   4.063   9.021  0.1596 -0.4957  0.1289
  862MOL0     C13664   2.747   4.110   8.964 -0.0929 -0.5088 -0.0024
  862MOL0     C13665   2.642   3.991   8.975 -0.7278 -1.1659 -0.2140
  862MOL0     C13666   2.661   3.883   8.864  0.1770 -0.7300  0.3473
  862MOL0     C13667   2.558   3.775   8.897 -0.2854 -0.2735  0.5356
  862MOL0     C13668   2.561   3.659   8.806  0.2470 -0.0223  0.4892
  862MOL0     N13669   2.559   3.684   8.660  0.7865 -0.7828  0.3392
  862MOL0     C13670   2.464   3.757   8.590  0.9060  0.1489  0.2120
  862MOL0     C13671   2.491   3.744   8.463 -0.4570 -0.7414  0.2281
  862MOL0     C13672   2.416   3.797   8.342  0.8383  1.0758 -0.0173
  862MOL0     C13673   2.266   3.784   8.343 -0.8792  1.1073 -0.2072
  862MOL0     C13674   2.201   3.845   8.215 -1.1544 -0.3417 -0.9436
  862MOL0     C13675   2.053   3.840   8.227  0.7348  0.1966 -0.3358
  862MOL0     O13676   2.000   3.858   8.093  0.3738  0.3146  0.5048
  862MOL0     C13677   1.865   3.834   8.091  0.7215  0.1288  0.4162
  862MOL0     C13678   1.807   3.721   8.033 -0.6257  0.3676  0.8651
  862MOL0     C13679   1.676   3.685   8.049 -0.7700  0.3360 -0.4703
  862MOL0     C13680   1.593   3.758   8.131  0.2171  0.1275  0.1458
  862MOL0     C13681   1.454   3.720   8.165  0.1133 -0.4316 -0.0738
  862MOL0     O13682   1.406   3.754   8.287  0.1036  0.4062  0.4521
  862MOL0     C13683   1.278   3.704   8.323 -1.0243  0.1383  0.1825
  862MOL0     C13684   1.165   3.784   8.320 -0.2115 -0.1414 -0.3444
  862MOL0     C13685   1.036   3.737   8.361 -1.0383  0.0402  0.0854
  862MOL0     C13686   1.022   3.602   8.413 -0.0790 -0.8344  0.9349
  862MOL0     O13687   0.913   3.536   8.466  0.0154 -0.0530 -0.1852
  862MOL0     C13688   0.820   3.611   8.537 -1.4757  0.5956  0.4109
  862MOL0     C13689   0.764   3.530   8.649 -0.2067  0.3284  0.6430
  862MOL0     C13690   0.650   3.605   8.719  0.2167 -0.2468  0.1227
  862MOL0     C13691   0.563   3.511   8.804  0.4030  0.5829 -0.4216
  862MOL0     C13692   0.468   3.601   8.886 -0.1555  0.4591 -0.1671
  862MOL0     C13693   0.379   3.524   8.984  0.2108 -0.0494  0.0827
  862MOL0     C13694   0.294   3.417   8.909  0.4270 -0.6414  0.3375
  862MOL0     C13695   0.166   3.394   8.995 -0.3834  0.9436  0.4225
  862MOL0    Cl13696   0.032   3.320   8.910  0.1045 -0.2350  0.1334
  862MOL0     C13697   1.137   3.521   8.411  0.3604  0.7209  1.7095
  862MOL0     C13698   1.259   3.568   8.362 -0.6783 -0.0677 -0.8105
  862MOL0     O13699   1.404   3.650   8.074 -0.6195 -0.3447 -0.3699
  862MOL0     C13700   1.644   3.878   8.182  0.2085 -0.4131  1.0981
  862MOL0     C13701   1.779   3.921   8.162  0.0249  0.4556  0.1292
  862MOL0     N13702   2.601   3.659   8.454 -0.0694  0.2056  0.5362
  862MOL0     N13703   2.642   3.620   8.575  0.1395  0.1278 -0.1108
  862MOL0     C13704   3.386   4.090   9.150  0.3265 -0.0658 -0.8619
  862MOL0     C13705   3.514   4.085   9.215  0.2810  0.2655 -0.1613
  862MOL0     C13706   3.959   4.119   9.217 -0.1144  0.4333 -0.6956
  862MOL0     C13707   3.994   4.153   9.343 -0.3082 -0.0252 -1.0120
  862MOL0     C13708   4.121   4.133   9.393  0.1703 -0.7943 -0.5327
  862MOL0     C13709   4.222   4.081   9.306 -0.7877 -0.1909  0.0368
  862MOL0     O13710   4.355   4.056   9.330 -0.2812  0.1084 -0.0679
  862MOL0     C13711   4.414   4.132   9.437  0.5605 -0.3189  0.2006
  862MOL0     C13712   4.407   4.064   9.571 -0.6221  0.2076  0.0198
  862MOL0     C13713   4.480   4.156   9.670 -0.0267 -0.2606  0.3373
  862MOL0     C13714   4.455   4.120   9.819  0.3912 -0.0573 -0.3999
  862MOL0     C13715   4.316   4.157   9.849 -0.4681 -0.3248 -0.3942
  862MOL0     C13716   4.197   4.164   9.876 -0.2491  0.0035 -0.9972
  862MOL0     C13717   4.182   4.040   9.180  0.4024  0.2088 -0.6885
  862MOL0     C13718   4.055   4.055   9.134  0.2233 -0.1422 -0.0556
  862MOL0     H13719   3.631   4.387   9.164 -2.8546  2.3612  1.0815
  862MOL0     H13720   3.390   4.411   9.076 -1.3078 -0.4423 -0.2114
  862MOL0     H13721   3.102   4.100   9.159 -0.1775 -0.1259  0.2518
  862MOL0     H13722   3.161   4.042   8.993  0.2214 -0.1302  1.1240
  862MOL0     H13723   3.016   4.169   8.879  2.6913 -4.0130  0.7037
  862MOL0     H13724   2.974   4.260   9.032  1.2714 -0.0933  0.0246
  862MOL0     H13725   2.886   4.049   9.129  3.2435  0.9493  0.3765
  862MOL0     H13726   2.900   3.975   8.958  0.0289  0.9106 -1.9647
  862MOL0     H13727   2.728   4.193   9.032  2.5050  0.1721  0.0068
  862MOL0     H13728   2.760   4.142   8.861  1.7045  1.7290  0.8431
  862MOL0     H13729   2.543   4.038   8.976 -1.3246 -2.3132  1.9143
  862MOL0     H13730   2.656   3.947   9.074 -1.1485  0.6296  0.6891
  862MOL0     H13731   2.762   3.841   8.866  0.9800  0.8493 -2.1790
  862MOL0     H13732   2.650   3.920   8.762 -0.6305  2.2498  1.4256
  862MOL0     H13733   2.579   3.734   8.997  2.0854 -0.5198 -0.0166
  862MOL0     H13734   2.461   3.825   8.889  0.6746  1.4949 -0.6290
  862MOL0     H13735   2.480   3.591   8.834  1.4645 -1.6286  0.2815
  862MOL0     H13736   2.654   3.603   8.821 -0.4812 -2.3958 -2.7007
  862MOL0     H13737   2.383   3.807   8.642 -1.8377 -1.1695 -2.4536
  862MOL0     H13738   2.448   3.761   8.244 -3.5331 -0.1459 -1.2332
  862MOL0     H13739   2.429   3.905   8.341  1.6950  1.0050 -2.0584
  862MOL0     H13740   2.227   3.831   8.434 -1.2250 -1.2138  0.9164
  862MOL0     H13741   2.239   3.678   8.332  1.6438  0.6971 -3.9874
  862MOL0     H13742   2.232   3.950   8.209 -1.0243 -0.3943 -1.1727
  862MOL0     H13743   2.233   3.798   8.122  1.8852  0.9247 -0.6465
  862MOL0     H13744   2.010   3.909   8.301 -0.0987 -2.4143  1.7819
  862MOL0     H13745   2.019   3.743   8.264 -0.6493  1.7248  2.8434
  862MOL0     H13746   1.882   3.668   7.975  0.5839  0.5357  2.2192
  862MOL0     H13747   1.640   3.593   8.002  0.1939 -0.8238  0.9851
  862MOL0     H13748   1.165   3.882   8.274 -0.1908 -0.2339 -0.5435
  862MOL0     H13749   0.957   3.811   8.373 -1.4652 -0.6394  1.6773
  862MOL0     H13750   0.746   3.644   8.463 -0.6730 -0.0720 -0.7180
  862MOL0     H13751   0.875   3.702   8.565 -0.4535  1.8626 -4.6998
  862MOL0     H13752   0.840   3.505   8.724  1.6754  2.0021 -0.5837
  862MOL0     H13753   0.722   3.438   8.607  1.3625  0.0785 -0.4811
  862MOL0     H13754   0.584   3.654   8.647  1.0857 -0.9461 -1.1946
  862MOL0     H13755   0.693   3.683   8.782  2.0397  0.1823 -1.5562
  862MOL0     H13756   0.500   3.450   8.739  0.2812  1.0557 -0.7526
  862MOL0     H13757   0.627   3.454   8.871 -0.8669  0.4769  0.7403
  862MOL0     H13758   0.396   3.653   8.822 -1.0996  0.0528  0.5446
  862MOL0     H13759   0.526   3.676   8.941 -1.3899  1.5545 -0.3007
  862MOL0     H13760   0.320   3.605   9.026  1.7560  0.4870  1.3113
  862MOL0     H13761   0.433   3.470   9.062 -1.6435  0.2996  1.6781
  862MOL0     H13762   0.250   3.473   8.827  0.7104 -0.3948  0.3539
  862MOL0     H13763   0.350   3.329   8.877  1.2037 -0.1934  0.4605
  862MOL0     H13764   0.130   3.486   9.042  1.8477  1.3634  1.4508
  862MOL0     H13765   0.182   3.313   9.067  0.7934  1.5707  0.8951
  862MOL0     H13766   1.131   3.418   8.445  1.7683 -0.2215 -0.6640
  862MOL0     H13767   1.343   3.503   8.341  0.1866  0.4923  0.7721
  862MOL0     H13768   1.573   3.943   8.232  0.8016  3.3507 -2.3184
  862MOL0     H13769   1.800   4.019   8.204 -3.2385  2.1393 -1.7869
  862MOL0     H13770   3.327   4.000   9.143  0.6951 -0.6506  2.0319
  862MOL0     H13771   3.557   3.988   9.237  4.3949  1.6436 -1.0756
  862MOL0     H13772   3.916   4.190   9.409 -0.8280 -2.2692 -0.2812
  862MOL0     H13773   4.153   4.156   9.494  3.2396 -0.0756 -1.5597
  862MOL0     H13774   4.375   4.234   9.446  1.5467  0.2220 -1.2286
  862MOL0     H13775   4.520   4.137   9.410  1.3731 -1.8006  2.7117
  862MOL0     H13776   4.305   4.047   9.606 -0.3697 -1.2038  0.1477
  862MOL0     H13777   4.455   3.966   9.575  0.7519  0.7825 -1.2096
  862MOL0     H13778   4.442   4.257   9.655  1.1652  0.2032  0.3681
  862MOL0     H13779   4.588   4.158   9.657  0.0621 -0.9890  0.9281
  862MOL0     H13780   4.480   4.016   9.844  1.3988  0.0391 -0.9648
  862MOL0     H13781   4.514   4.184   9.885  1.1187 -2.7527  1.7808
  862MOL0     H13782   4.091   4.158   9.892  0.1059 -0.1470  1.7643
  862MOL0     H13783   4.265   3.999   9.124  0.1002 -2.3320  0.5730
  862MOL0     H13784   4.032   4.031   9.031 -0.5263  0.9964 -0.1667
  863MOL0     O13785   9.486   5.558   8.542  0.2703  0.2262 -0.4388
  863MOL0     C13786   9.585   5.626   8.571  0.1167  1.0747  1.0234
  863MOL0     O13787   9.673   5.588   8.672 -0.1442 -0.4162  0.3851
  863MOL0     C13788   9.651   5.473   8.743  0.4867  1.0085  0.2145
  863MOL0     C13789   9.610   5.475   8.880  0.3866 -0.3399 -0.0548
  863MOL0     C13790   9.601   5.358   8.955  0.3057  0.5162 -0.2055
  863MOL0     C13791   9.645   5.239   8.896  0.6976 -0.3013  0.3901
  863MOL0     O13792   9.662   5.116   8.952 -0.5542  0.8724  0.3724
  863MOL0     C13793   9.619   5.075   9.084 -0.3596 -0.0798 -0.0561
  863MOL0     C13794   9.466   5.069   9.093 -0.1739  0.5308 -0.3382
  863MOL0     C13795   9.438   4.986   9.219 -0.8774  0.4283 -0.3291
  863MOL0     C13796   9.478   5.060   9.346 -0.7012  0.7562  0.0894
  863MOL0     C13797   9.437   4.985   9.474  0.0154  0.0902  0.2785
  863MOL0     C13798   9.293   5.009   9.503 -0.1696 -0.0621  0.3827
  863MOL0     C13799   9.242   4.927   9.628 -0.6362 -0.9184 -0.2358
  863MOL0     C13800   9.211   5.027   9.736  0.3307 -1.3822  0.0251
  863MOL0     N13801   9.106   5.132   9.702  0.7305  0.8346  0.2941
  863MOL0     C13802   8.967   5.104   9.711 -0.0621 -0.0382 -1.1150
  863MOL0     C13803   8.909   5.232   9.709 -0.8516  0.2805  0.3555
  863MOL0     C13804   8.771   5.285   9.694  0.6697  0.7732  0.4841
  863MOL0     C13805   8.670   5.221   9.790 -0.3420 -0.2034  0.6018
  863MOL0     C13806   8.712   5.235   9.945 -0.6917 -0.1957  0.1300
  863MOL0     C13807   8.612   5.161  10.040 -0.0406  0.3604 -0.1671
  863MOL0     O13808   8.593   5.024   9.996 -0.3272 -0.7290 -0.2083
  863MOL0     C13809   8.483   4.962  10.054  0.1250  0.2662 -0.1960
  863MOL0     C13810   8.377   4.916   9.977  0.5370 -0.2280 -0.1529
  863MOL0     C13811   8.262   4.860  10.042  0.1407 -0.5185  0.0500
  863MOL0     C13812   8.260   4.859  10.182  0.4799  0.8440  0.4695
  863MOL0     C13813   8.134   4.816  10.253 -0.7501  0.5684 -0.2525
  863MOL0     O13814   8.139   4.809  10.387  0.3164 -0.4266 -0.3045
  863MOL0     C13815   8.027   4.776  10.454 -0.2927  0.2091 -0.1448
  863MOL0     C13816   7.923   4.866  10.484  0.1968 -0.2102 -0.0108
  863MOL0     C13817   7.800   4.827  10.533 -0.6033  0.3887 -0.4581
  863MOL0     C13818   7.777   4.692  10.571  0.0169  0.4063 -0.1963
  863MOL0     O13819   7.655   4.645  10.627 -0.3805  0.2986  0.2596
  863MOL0     C13820   7.538   4.720  10.602 -0.4118  0.0749 -0.1302
  863MOL0     C13821   7.429   4.679  10.694  0.2649 -0.0770 -0.2666
  863MOL0     C13822   7.321   4.796  10.700  0.2902  0.7280 -0.4476
  863MOL0     C13823   7.185   4.722  10.755 -0.3315  0.0262  0.5798
  863MOL0     C13824   7.096   4.839  10.784 -0.5267  0.0746  0.6738
  863MOL0     C13825   6.950   4.798  10.808 -0.2792  0.3956 -0.2068
  863MOL0     C13826   6.863   4.914  10.770 -0.5186  0.5090  0.5680
  863MOL0     C13827   6.725   4.899  10.828  0.7406 -0.2982 -0.9144
  863MOL0    Cl13828   6.643   4.784  10.728  1.0504 -0.1475 -0.4988
  863MOL0     C13829   7.883   4.604  10.542 -0.0851  0.8411 -0.1026
  863MOL0     C13830   8.013   4.647  10.501  0.0407 -0.1633 -0.2441
  863MOL0     O13831   8.048   4.770  10.180 -0.1766 -0.2948  0.3904
  863MOL0     C13832   8.373   4.888  10.256  0.1232 -0.2419  0.0536
  863MOL0     C13833   8.486   4.936  10.194 -0.8761  0.1893  0.5335
  863MOL0     N13834   9.011   5.318   9.689 -0.1729 -0.1178  0.2896
  863MOL0     N13835   9.122   5.266   9.694 -0.3840  0.1775  0.5911
  863MOL0     C13836   9.694   5.235   8.765  0.3330 -0.1291  0.1938
  863MOL0     C13837   9.702   5.352   8.695 -0.7905 -0.6473  0.0850
  863MOL0     C13838   9.644   5.713   8.469  0.1664 -0.4902 -0.6620
  863MOL0     C13839   9.567   5.741   8.352 -0.5829  0.1034 -0.3454
  863MOL0     C13840   9.622   5.825   8.250 -0.4378 -0.2235  0.0485
  863MOL0     C13841   9.750   5.878   8.275 -0.7192 -0.1760  0.5435
  863MOL0     O13842   9.808   5.963   8.188  0.8630 -0.3423  0.7421
  863MOL0     C13843   9.752   6.019   8.064  0.3098 -0.0363 -0.0355
  863MOL0     C13844   9.679   6.142   8.103 -0.1814 -0.9587  0.3692
  863MOL0     C13845   9.591   6.188   7.983 -0.4057  0.6870  0.3965
  863MOL0     C13846   9.506   6.318   8.011  0.5625  0.7455 -0.7375
  863MOL0     C13847   9.379   6.293   8.069  0.0457  0.0556 -0.0448
  863MOL0     C13848   9.278   6.268   8.119 -0.0568  0.8698 -0.6069
  863MOL0     C13849   9.820   5.863   8.396  0.2141  0.1328 -0.4450
  863MOL0     C13850   9.758   5.784   8.497  0.3620 -0.4293 -1.4843
  863MOL0     H13851   9.603   5.570   8.933  0.9153 -0.7340  0.7431
  863MOL0     H13852   9.571   5.348   9.059 -3.7122 -3.0376 -1.4407
  863MOL0     H13853   9.658   5.149   9.155 -0.9910 -0.0703  0.2811
  863MOL0     H13854   9.672   4.982   9.107  1.1185  0.4035 -1.3096
  863MOL0     H13855   9.414   5.014   9.015 -2.5761  0.9972  0.8456
  863MOL0     H13856   9.422   5.169   9.100  2.0510  1.4568  2.5905
  863MOL0     H13857   9.491   4.891   9.208 -0.4447  0.7700 -1.3916
  863MOL0     H13858   9.332   4.957   9.225 -1.1842  1.2742 -1.2957
  863MOL0     H13859   9.586   5.075   9.359 -0.4183 -1.9670  1.7884
  863MOL0     H13860   9.438   5.161   9.339 -0.6210  0.7153 -1.3188
  863MOL0     H13861   9.499   5.012   9.560  1.5507 -1.2442 -0.3657
  863MOL0     H13862   9.443   4.878   9.455 -2.9034  0.0284 -0.8236
  863MOL0     H13863   9.235   4.993   9.412  3.2465  0.8922 -2.1590
  863MOL0     H13864   9.280   5.116   9.522  0.1372 -0.0768  0.6918
  863MOL0     H13865   9.154   4.867   9.603 -1.7140  0.2431  0.5752
  863MOL0     H13866   9.324   4.864   9.661  1.4141  2.3999  1.6315
  863MOL0     H13867   9.305   5.075   9.762 -1.2403  2.1430 -0.2735
  863MOL0     H13868   9.184   4.982   9.832 -2.7615  0.5071  0.1786
  863MOL0     H13869   8.924   5.006   9.729  1.8981 -0.5839  0.9617
  863MOL0     H13870   8.744   5.258   9.592 -0.1847  0.9286  0.6615
  863MOL0     H13871   8.768   5.394   9.702 -1.3185  0.6781  1.8005
  863MOL0     H13872   8.658   5.115   9.764 -1.9766  0.8374 -3.7063
  863MOL0     H13873   8.573   5.262   9.760 -0.3523 -1.7017 -1.6429
  863MOL0     H13874   8.810   5.189   9.961 -0.4553  0.2744  0.0435
  863MOL0     H13875   8.726   5.338   9.979  2.0900  0.9995 -3.8771
  863MOL0     H13876   8.517   5.213  10.051 -0.6809 -1.2696  3.6084
  863MOL0     H13877   8.660   5.150  10.138 -0.0370  1.8970  0.0280
  863MOL0     H13878   8.386   4.916   9.869  0.9591  1.8362 -0.1525
  863MOL0     H13879   8.187   4.814   9.978 -1.3425 -0.0004  1.3486
  863MOL0     H13880   7.944   4.966  10.446 -0.1788  0.0014  0.3368
  863MOL0     H13881   7.723   4.903  10.538  0.0579  1.0261  0.2642
  863MOL0     H13882   7.494   4.718  10.502  1.3037  2.6705 -1.0288
  863MOL0     H13883   7.555   4.826  10.623  2.5135  0.1907 -2.4431
  863MOL0     H13884   7.468   4.670  10.796 -1.0215  2.4660  0.5374
  863MOL0     H13885   7.385   4.586  10.659  0.9882 -1.1587  1.5640
  863MOL0     H13886   7.312   4.843  10.601  1.7455  1.3953 -0.2844
  863MOL0     H13887   7.343   4.879  10.768 -0.6547  0.5250  0.1243
  863MOL0     H13888   7.138   4.667  10.673  1.7020 -1.0985  0.1195
  863MOL0     H13889   7.205   4.661  10.843  4.5146 -0.4838 -0.5894
  863MOL0     H13890   7.094   4.902  10.694 -0.4587  0.0180  0.6327
  863MOL0     H13891   7.137   4.893  10.870  1.2319 -3.9221  2.5798
  863MOL0     H13892   6.932   4.758  10.908  1.9343 -1.9308 -0.6452
  863MOL0     H13893   6.923   4.710  10.748  0.2435  1.0927 -1.5004
  863MOL0     H13894   6.904   5.003  10.819  0.2101  1.1987 -1.2140
  863MOL0     H13895   6.863   4.947  10.666  1.0002  4.3611  1.6029
  863MOL0     H13896   6.682   5.000  10.825 -0.1974 -0.6244  0.4301
  863MOL0     H13897   6.719   4.871  10.933  2.0267  5.0032  0.8680
  863MOL0     H13898   7.868   4.498  10.563  1.1208  0.5778 -0.4859
  863MOL0     H13899   8.092   4.574  10.497  0.8968  0.7814 -1.0213
  863MOL0     H13900   8.376   4.871  10.363  1.4280  1.6178  0.3631
  863MOL0     H13901   8.583   4.953  10.241 -0.5099  1.0063 -0.4811
  863MOL0     H13902   9.738   5.143   8.729  3.4720  1.3647 -0.1174
  863MOL0     H13903   9.757   5.368   8.603  0.0958  1.3707  0.9139
  863MOL0     H13904   9.470   5.692   8.356  0.1833 -1.4200  0.8218
  863MOL0     H13905   9.575   5.836   8.153  1.3306  0.9908 -0.7258
  863MOL0     H13906   9.695   5.941   8.012  2.1778 -0.6463 -1.2474
  863MOL0     H13907   9.838   6.036   7.999  1.1101  2.3839  1.5433
  863MOL0     H13908   9.619   6.124   8.193 -0.8614 -0.9203 -0.0755
  863MOL0     H13909   9.749   6.224   8.123 -0.2699 -0.5362 -0.9782
  863MOL0     H13910   9.513   6.121   7.945 -1.7380  2.2913  0.1694
  863MOL0     H13911   9.663   6.199   7.902  1.0270 -0.6571  1.4152
  863MOL0     H13912   9.563   6.388   8.073 -1.5959 -0.1211  2.4731
  863MOL0     H13913   9.475   6.374   7.923 -2.1043  0.4666 -0.0509
  863MOL0     H13914   9.186   6.268   8.173 -1.2220  1.7417 -2.5242
  863MOL0     H13915   9.919   5.908   8.400  0.3945 -0.3113  0.5191
  863MOL0     H13916   9.822   5.785   8.585  1.9957  1.3761 -2.6238
  864MOL0     O13917   9.321   5.870   9.102 -0.1980  0.0471  0.0617
  864MOL0     C13918   9.364   5.801   9.007  1.0075  0.3106  0.4527
  864MOL0     O13919   9.500   5.791   8.971 -0.2549 -0.0796 -0.5259
  864MOL0     C13920   9.588   5.857   9.055  0.1191 -1.3602  1.0576
  864MOL0     C13921   9.595   5.853   9.192  0.1435  0.0368  0.8945
  864MOL0     C13922   9.696   5.918   9.262  0.1142 -0.3414  0.3213
  864MOL0     C13923   9.798   5.987   9.191  0.0581  0.4463  0.4902
  864MOL0     O13924   9.902   6.046   9.255  0.4078  0.6894 -0.1216
  864MOL0     C13925   9.884   6.103   9.381 -0.1566 -0.7929 -0.0123
  864MOL0     C13926  10.002   6.191   9.428  0.2143  0.1748  0.5985
  864MOL0     C13927   9.972   6.345   9.444 -0.3015 -0.0497 -0.8280
  864MOL0     C13928  10.089   6.408   9.521 -0.2832 -0.2585  0.1270
  864MOL0     C13929  10.099   6.557   9.524 -0.5321  0.3871 -0.3722
  864MOL0     C13930   9.973   6.636   9.555  1.1487  0.2366 -0.5908
  864MOL0     C13931  10.004   6.785   9.551  0.6145  0.0392  0.6011
  864MOL0     C13932  10.079   6.843   9.672 -0.6234  0.7071  0.2364
  864MOL0     N13933  10.079   6.989   9.676 -0.3201  0.0277  0.8178
  864MOL0     C13934  10.162   7.064   9.597  0.7221 -0.1901  0.2342
  864MOL0     C13935  10.133   7.191   9.624  0.4337  0.4211 -0.3788
  864MOL0     C13936  10.189   7.318   9.566 -0.2517  0.6631  0.2711
  864MOL0     C13937  10.088   7.404   9.498  1.3741 -0.0251 -0.2147
  864MOL0     C13938  10.018   7.496   9.596  0.4367 -0.3872  0.0145
  864MOL0     C13939   9.889   7.544   9.539 -0.5167 -0.4961  0.2781
  864MOL0     O13940   9.805   7.586   9.643  0.2085 -0.4175  0.0675
  864MOL0     C13941   9.669   7.609   9.622  0.0079 -0.4699  1.2724
  864MOL0     C13942   9.595   7.582   9.506 -0.9511  0.0752 -0.1129
  864MOL0     C13943   9.454   7.600   9.501 -0.5025 -0.5174  0.0471
  864MOL0     C13944   9.394   7.646   9.619 -0.5398  0.6680 -0.2154
  864MOL0     C13945   9.246   7.647   9.637  0.3992  0.0067 -0.2290
  864MOL0     O13946   9.205   7.695   9.753  0.5770 -0.6840  0.3106
  864MOL0     C13947   9.077   7.673   9.793 -0.2527  1.1379  0.6278
  864MOL0     C13948   8.984   7.581   9.744  0.3695 -0.2866  0.2184
  864MOL0     C13949   8.849   7.585   9.795  0.1459  0.5766  0.0872
  864MOL0     C13950   8.810   7.658   9.903  0.1035 -0.5096 -0.0050
  864MOL0     O13951   8.688   7.664   9.960  0.2800  1.1120 -0.0646
  864MOL0     C13952   8.593   7.557   9.940 -0.4655 -0.0874  0.1381
  864MOL0     C13953   8.482   7.579  10.040  1.0703 -0.1217 -0.5217
  864MOL0     C13954   8.403   7.452  10.062  0.6669 -0.0460 -0.2115
  864MOL0     C13955   8.275   7.466  10.146 -0.1498 -0.7861  0.3931
  864MOL0     C13956   8.291   7.499  10.290  0.5094  0.8649 -0.1783
  864MOL0     C13957   8.160   7.461  10.373 -0.2763 -0.1905  0.1349
  864MOL0     C13958   8.164   7.541  10.491  0.1205 -0.1640 -0.0172
  864MOL0     C13959   8.061   7.505  10.601  0.8360 -0.2481  0.1290
  864MOL0    Cl13960   7.896   7.559  10.548  0.2290 -0.3658 -0.0215
  864MOL0     C13961   8.902   7.745   9.958  0.3094 -0.2278  0.1132
  864MOL0     C13962   9.036   7.748   9.900  0.2944 -1.0303 -0.6442
  864MOL0     O13963   9.174   7.613   9.540 -0.2766  0.7914  0.0687
  864MOL0     C13964   9.468   7.680   9.728 -1.0779  0.0645 -0.9719
  864MOL0     C13965   9.605   7.655   9.732 -0.0346 -0.7585 -0.5071
  864MOL0     N13966  10.047   7.195   9.735 -0.3565  0.7275 -0.1237
  864MOL0     N13967  10.001   7.072   9.755  1.1082  0.1419  0.0524
  864MOL0     C13968   9.795   5.987   9.052  0.4074 -0.1142  0.0719
  864MOL0     C13969   9.686   5.929   8.981  0.1009  0.6235 -0.6271
  864MOL0     C13970   9.256   5.729   8.922 -0.6024 -0.1691  0.6797
  864MOL0     C13971   9.128   5.724   8.957 -0.0676 -0.1296 -0.0987
  864MOL0     C13972   9.040   5.646   8.878 -0.2630 -0.6040  0.1783
  864MOL0     C13973   9.074   5.588   8.753 -0.4531 -0.5734 -0.1700
  864MOL0     O13974   8.997   5.497   8.682 -0.0153 -0.3091  0.0241
  864MOL0     C13975   8.865   5.465   8.727 -0.1843  0.3234  0.0878
  864MOL0     C13976   8.829   5.329   8.666 -0.4736  0.3888 -0.0884
  864MOL0     C13977   8.822   5.332   8.518 -0.2644 -0.2920 -0.2323
  864MOL0     C13978   8.796   5.199   8.457  0.6928  0.4615 -0.2887
  864MOL0     C13979   8.654   5.160   8.477 -1.1144 -0.5883 -1.0138
  864MOL0     C13980   8.540   5.132   8.474  0.9304  0.3188 -0.6551
  864MOL0     C13981   9.206   5.614   8.715 -0.2220 -0.6737 -0.1923
  864MOL0     C13982   9.295   5.690   8.798  0.2352  0.7552  0.5362
  864MOL0     H13983   9.523   5.792   9.246  0.0039  1.5405  2.4796
  864MOL0     H13984   9.685   5.905   9.369  1.4223 -2.8064  0.2312
  864MOL0     H13985   9.879   6.023   9.455 -0.1226 -1.7775 -1.0561
  864MOL0     H13986   9.792   6.162   9.381  1.6908  2.4384  2.1151
  864MOL0     H13987  10.083   6.180   9.355  0.1429  1.1478  0.3678
  864MOL0     H13988  10.038   6.149   9.523 -0.4784 -1.0443  0.3349
  864MOL0     H13989   9.877   6.360   9.495 -0.4813 -0.4012 -1.0505
  864MOL0     H13990   9.975   6.397   9.348  2.5305 -1.6246 -1.7222
  864MOL0     H13991  10.112   6.369   9.621  2.6282  1.2919  0.1569
  864MOL0     H13992  10.182   6.378   9.473 -0.6040 -0.1774 -0.5479
  864MOL0     H13993  10.132   6.587   9.424  0.2581 -0.0781 -0.2556
  864MOL0     H13994  10.180   6.571   9.597 -0.6182 -0.2355 -0.1512
  864MOL0     H13995   9.950   6.613   9.659 -0.4890  2.4683 -0.3805
  864MOL0     H13996   9.887   6.617   9.490  0.3040 -1.2537  0.9116
  864MOL0     H13997  10.048   6.817   9.456 -1.1966  3.7232  0.8521
  864MOL0     H13998   9.908   6.837   9.545  1.8009  2.3839  0.8217
  864MOL0     H13999  10.185   6.818   9.665 -0.7426  0.2342  0.0456
  864MOL0     H14000  10.039   6.801   9.765 -0.0488 -1.0529 -0.2760
  864MOL0     H14001  10.243   7.022   9.539  0.9972 -0.8120  1.0487
  864MOL0     H14002  10.266   7.291   9.493 -2.9396 -0.8389 -2.2129
  864MOL0     H14003  10.233   7.366   9.654 -3.4000  0.8264  1.8768
  864MOL0     H14004  10.018   7.334   9.452 -3.3903  1.6328  3.6592
  864MOL0     H14005  10.146   7.466   9.428 -0.4167  4.2321  1.6751
  864MOL0     H14006   9.987   7.432   9.680  0.6265 -0.2359  0.2000
  864MOL0     H14007  10.085   7.577   9.625 -0.0328 -0.0178  0.0877
  864MOL0     H14008   9.840   7.468   9.477 -0.1348  1.1141 -2.1130
  864MOL0     H14009   9.922   7.622   9.470  1.8515 -2.1821 -0.6423
  864MOL0     H14010   9.641   7.528   9.423  1.3954  2.5665 -0.5855
  864MOL0     H14011   9.392   7.573   9.416 -1.7990  2.8809 -0.2417
  864MOL0     H14012   9.000   7.517   9.657 -1.2019  1.6409 -1.6074
  864MOL0     H14013   8.764   7.535   9.748 -2.7068  3.0881  2.1654
  864MOL0     H14014   8.645   7.464   9.964  1.6152  0.7028 -1.0074
  864MOL0     H14015   8.561   7.563   9.836  0.2271  0.6608 -0.0457
  864MOL0     H14016   8.418   7.654   9.992  2.8048  2.3568  0.8292
  864MOL0     H14017   8.511   7.619  10.138 -0.3686  1.3934 -0.6641
  864MOL0     H14018   8.454   7.375  10.120 -3.1344  0.4520  4.5200
  864MOL0     H14019   8.370   7.413   9.966 -0.0008  1.1086 -0.4782
  864MOL0     H14020   8.220   7.547  10.098 -0.6610 -1.6014 -0.4242
  864MOL0     H14021   8.206   7.382  10.134 -1.9418  0.2881  2.5095
  864MOL0     H14022   8.320   7.605  10.301  1.5525  0.5060  0.7926
  864MOL0     H14023   8.372   7.443  10.338  0.2301  0.9956  0.4513
  864MOL0     H14024   8.161   7.355  10.401  0.2538 -1.1771 -3.2287
  864MOL0     H14025   8.067   7.483  10.320 -1.8246  0.1925  2.8527
  864MOL0     H14026   8.263   7.535  10.537  0.0051  0.7547  0.3890
  864MOL0     H14027   8.155   7.649  10.473  0.2517  0.1565  1.6577
  864MOL0     H14028   8.081   7.538  10.703  0.4552 -1.3879  0.5996
  864MOL0     H14029   8.053   7.396  10.605 -3.5481 -0.0490  1.4578
  864MOL0     H14030   8.864   7.807  10.039 -2.4403 -1.2511 -0.2934
  864MOL0     H14031   9.106   7.803   9.962  0.5012 -0.4399 -1.3922
  864MOL0     H14032   9.433   7.735   9.815  2.9025 -2.5195  2.6428
  864MOL0     H14033   9.662   7.667   9.823  2.5062  0.3821 -2.1162
  864MOL0     H14034   9.869   6.043   8.996  0.9923 -0.4459  0.4968
  864MOL0     H14035   9.696   5.940   8.874  1.6131 -0.0484 -0.5821
  864MOL0     H14036   9.090   5.781   9.042 -0.7437 -0.0736 -0.4276
  864MOL0     H14037   8.943   5.664   8.922  0.8148  1.2080  2.0202
  864MOL0     H14038   8.792   5.531   8.679 -0.3956  0.4629  0.5881
  864MOL0     H14039   8.854   5.477   8.836 -1.2074 -1.3483  0.2052
  864MOL0     H14040   8.914   5.264   8.689 -3.0003 -3.1630 -0.0398
  864MOL0     H14041   8.738   5.292   8.713  0.0923  0.2696  0.9435
  864MOL0     H14042   8.906   5.379   8.467 -1.7518  0.3196 -2.2452
  864MOL0     H14043   8.742   5.401   8.489  1.5814  0.2742 -4.7447
  864MOL0     H14044   8.812   5.213   8.350  0.0103  0.7236 -0.3646
  864MOL0     H14045   8.850   5.111   8.494 -0.8925 -0.1523  0.6693
  864MOL0     H14046   8.436   5.109   8.468  1.0522 -0.3822 -0.1165
  864MOL0     H14047   9.245   5.580   8.619  1.9210  0.0781  0.3587
  864MOL0     H14048   9.394   5.710   8.756  0.4802 -1.1998  0.0976
  865MOL0     O14049   7.931   4.569   1.842 -0.3657 -0.6919 -0.5058
  865MOL0     C14050   7.996   4.670   1.826 -0.5632  0.0327 -0.6565
  865MOL0     O14051   7.955   4.793   1.875 -0.0054  0.3686 -0.0872
  865MOL0     C14052   7.844   4.795   1.955 -0.2721 -0.3744  0.2974
  865MOL0     C14053   7.720   4.824   1.895  0.2165 -0.1753  0.0366
  865MOL0     C14054   7.617   4.841   1.987 -0.9483 -0.0368 -0.0262
  865MOL0     C14055   7.628   4.830   2.119 -0.6742 -0.4834 -1.0365
  865MOL0     O14056   7.512   4.861   2.195 -0.0359  0.2005  0.4259
  865MOL0     C14057   7.438   4.749   2.252 -0.5966  0.0244 -1.5642
  865MOL0     C14058   7.415   4.781   2.399 -0.6700 -0.6548 -0.6333
  865MOL0     C14059   7.343   4.672   2.490  0.4602 -0.4556  0.2930
  865MOL0     C14060   7.198   4.698   2.474 -0.2510 -0.0341 -0.4640
  865MOL0     C14061   7.102   4.595   2.534 -0.3816 -0.7954  0.1496
  865MOL0     C14062   6.953   4.635   2.509 -0.0066  0.3844 -0.2750
  865MOL0     C14063   6.843   4.561   2.594  1.1411 -0.1455  0.0210
  865MOL0     C14064   6.701   4.629   2.586  0.1428 -0.8426  0.2907
  865MOL0     N14065   6.593   4.542   2.648 -0.0153  0.1831  0.9390
  865MOL0     C14066   6.515   4.570   2.756 -0.1283  0.4564  0.5307
  865MOL0     C14067   6.398   4.502   2.740 -0.2206 -0.1583  0.5369
  865MOL0     C14068   6.279   4.496   2.838 -0.2595  0.0839  0.1844
  865MOL0     C14069   6.163   4.581   2.787  0.1507  0.4776 -0.2479
  865MOL0     C14070   6.081   4.493   2.689  0.1900 -0.0597 -0.4781
  865MOL0     C14071   5.947   4.561   2.658 -0.0419 -1.0393  0.3678
  865MOL0     O14072   5.875   4.510   2.548 -1.0669 -0.1184 -0.0351
  865MOL0     C14073   5.737   4.519   2.532  0.3475 -0.7135 -0.4282
  865MOL0     C14074   5.679   4.457   2.417  0.0918 -1.1849  0.1660
  865MOL0     C14075   5.536   4.457   2.399 -1.0530  0.3391  0.5010
  865MOL0     C14076   5.452   4.531   2.486 -0.4289 -0.3680  0.0091
  865MOL0     C14077   5.309   4.552   2.440  0.6230 -0.5925  0.3696
  865MOL0     O14078   5.231   4.614   2.528 -0.1788 -1.0101  0.0676
  865MOL0     C14079   5.098   4.640   2.502  0.5139  0.2492 -0.0950
  865MOL0     C14080   5.066   4.748   2.418  0.3423  0.4846  0.4835
  865MOL0     C14081   4.929   4.775   2.380 -0.3181 -0.9068  0.0591
  865MOL0     C14082   4.826   4.693   2.415 -0.3546  0.0448  0.2076
  865MOL0     O14083   4.705   4.706   2.358 -0.2151 -0.4881  0.5113
  865MOL0     C14084   4.601   4.620   2.401 -0.2454  0.4909  0.8134
  865MOL0     C14085   4.481   4.664   2.323  0.3894  0.4149 -0.2253
  865MOL0     C14086   4.371   4.553   2.334  0.2575  1.0291 -0.6267
  865MOL0     C14087   4.255   4.595   2.249  0.2453 -0.0997  0.1388
  865MOL0     C14088   4.145   4.491   2.244  0.7182  0.1872  0.1766
  865MOL0     C14089   4.024   4.549   2.169 -0.4063 -0.1897 -0.4858
  865MOL0     C14090   3.900   4.458   2.173 -0.3981 -0.2210 -0.3776
  865MOL0     C14091   3.782   4.528   2.105 -1.2055  0.0299  0.0239
  865MOL0    Cl14092   3.644   4.418   2.096 -0.0439  0.3293  0.3629
  865MOL0     C14093   4.854   4.594   2.512  0.0861  0.0391 -0.0601
  865MOL0     C14094   4.987   4.561   2.554 -0.3720 -0.3399  0.7248
  865MOL0     O14095   5.270   4.514   2.332 -1.3336 -0.1148  0.0242
  865MOL0     C14096   5.514   4.598   2.596  0.2217 -0.3731  0.3779
  865MOL0     C14097   5.647   4.590   2.617  0.3730 -0.5909  0.2780
  865MOL0     N14098   6.414   4.412   2.632 -0.0330  0.0096  0.3597
  865MOL0     N14099   6.526   4.446   2.579 -0.0879 -0.3804 -0.1033
  865MOL0     C14100   7.755   4.804   2.177  0.4207 -0.2823  0.7129
  865MOL0     C14101   7.859   4.780   2.091  0.9893  0.2124 -0.2721
  865MOL0     C14102   8.123   4.665   1.754  0.4314  0.1944 -0.6401
  865MOL0     C14103   8.201   4.780   1.762 -0.3065 -0.5024  0.2901
  865MOL0     C14104   8.322   4.789   1.689  0.7329 -0.0099  0.4021
  865MOL0     C14105   8.367   4.673   1.618 -0.8417  0.2868  0.4579
  865MOL0     O14106   8.481   4.668   1.538  1.0840 -0.8181 -0.1756
  865MOL0     C14107   8.571   4.784   1.526  0.4379 -0.0188  0.1345
  865MOL0     C14108   8.538   4.875   1.407 -0.2387 -0.2961 -0.3269
  865MOL0     C14109   8.650   4.982   1.387 -0.5787 -0.4041  0.2152
  865MOL0     C14110   8.764   4.941   1.293 -0.1476  0.2123  0.6161
  865MOL0     C14111   8.836   5.065   1.264 -0.1599  0.7488 -0.4964
  865MOL0     C14112   8.891   5.165   1.238 -0.0580 -0.2461  0.0490
  865MOL0     C14113   8.287   4.552   1.618 -0.0204 -0.2213  1.0069
  865MOL0     C14114   8.167   4.546   1.699 -0.6291 -0.6750  0.1414
  865MOL0     H14115   7.710   4.841   1.788  0.4657 -0.2394  0.0015
  865MOL0     H14116   7.521   4.875   1.948 -0.8960 -0.1197 -0.2296
  865MOL0     H14117   7.485   4.652   2.235  0.7470  0.1386  1.0303
  865MOL0     H14118   7.343   4.736   2.200 -0.4932 -1.5702 -1.3952
  865MOL0     H14119   7.370   4.880   2.403  0.6768 -0.0636  1.0282
  865MOL0     H14120   7.514   4.797   2.443 -1.2230  1.8365 -0.1584
  865MOL0     H14121   7.374   4.683   2.594  0.0993  2.5274  0.1902
  865MOL0     H14122   7.364   4.572   2.452  0.5678  0.0271 -0.9737
  865MOL0     H14123   7.183   4.798   2.517 -0.8914  0.4589 -1.7791
  865MOL0     H14124   7.172   4.707   2.368  0.3621  0.2899 -0.5903
  865MOL0     H14125   7.127   4.585   2.640  1.7407 -1.5848 -0.3724
  865MOL0     H14126   7.126   4.500   2.487  2.4624  1.9683 -4.8678
  865MOL0     H14127   6.920   4.617   2.406 -0.9980  2.1154 -0.2893
  865MOL0     H14128   6.937   4.739   2.538 -2.7441  0.2779 -1.1601
  865MOL0     H14129   6.820   4.458   2.565  1.4342 -1.2705  3.2889
  865MOL0     H14130   6.877   4.558   2.698  2.8285  0.6880 -0.4656
  865MOL0     H14131   6.671   4.647   2.482 -1.1777  1.1244  0.9387
  865MOL0     H14132   6.714   4.725   2.637 -2.2428  0.1739 -0.8513
  865MOL0     H14133   6.544   4.644   2.830 -2.5301  3.3786 -1.2272
  865MOL0     H14134   6.313   4.526   2.938 -0.8328  2.4268 -0.2748
  865MOL0     H14135   6.239   4.397   2.863  0.8776 -0.2535  0.7401
  865MOL0     H14136   6.184   4.678   2.741 -0.6387  0.0101 -1.6523
  865MOL0     H14137   6.090   4.594   2.868  1.1761  2.9293  0.3925
  865MOL0     H14138   6.149   4.483   2.605 -1.1877  2.8430 -2.0830
  865MOL0     H14139   6.052   4.398   2.735  2.8653 -0.5525  0.3491
  865MOL0     H14140   5.961   4.669   2.642 -2.3336 -0.6511  0.6731
  865MOL0     H14141   5.883   4.556   2.747 -2.2749  3.7549 -0.6532
  865MOL0     H14142   5.742   4.396   2.353 -0.9182 -1.2038 -0.8617
  865MOL0     H14143   5.496   4.417   2.307 -0.9545  3.0744 -0.8323
  865MOL0     H14144   5.147   4.814   2.388 -1.0358  1.4862 -1.1875
  865MOL0     H14145   4.906   4.851   2.306  1.4235 -0.2429  0.1501
  865MOL0     H14146   4.577   4.635   2.507 -0.4465 -1.2435  1.0394
  865MOL0     H14147   4.624   4.515   2.381 -0.7154  0.2185  1.6391
  865MOL0     H14148   4.515   4.681   2.220  0.0020  0.5753 -0.3303
  865MOL0     H14149   4.454   4.760   2.367  2.2002  0.4384  0.9583
  865MOL0     H14150   4.338   4.547   2.438 -0.2255 -0.4437 -0.8448
  865MOL0     H14151   4.409   4.455   2.304 -1.2870 -0.3147  1.5065
  865MOL0     H14152   4.215   4.684   2.299  0.7692  0.4680 -0.4198
  865MOL0     H14153   4.290   4.628   2.151  0.2903  1.7814  0.7402
  865MOL0     H14154   4.110   4.472   2.346 -0.1630  0.6357 -0.0249
  865MOL0     H14155   4.181   4.396   2.205  0.6194  0.9815 -1.9948
  865MOL0     H14156   4.060   4.574   2.069  1.8836 -1.5628 -0.0734
  865MOL0     H14157   3.982   4.644   2.204  3.1788  2.4636 -2.6621
  865MOL0     H14158   3.922   4.356   2.139 -1.0634 -0.9139  1.1773
  865MOL0     H14159   3.864   4.444   2.276  0.2338  1.8346  0.1849
  865MOL0     H14160   3.812   4.557   2.004 -0.7798  1.6175  0.5756
  865MOL0     H14161   3.756   4.625   2.147 -3.1717  1.5017 -4.0355
  865MOL0     H14162   4.774   4.536   2.555  1.1587 -2.2327 -0.9870
  865MOL0     H14163   4.997   4.479   2.624  2.0346  0.7234  1.7267
  865MOL0     H14164   5.455   4.662   2.661  0.5908 -0.1522  0.4936
  865MOL0     H14165   5.679   4.633   2.712 -2.0073  0.5491  0.6317
  865MOL0     H14166   7.763   4.801   2.285 -1.3447  1.2711  0.9471
  865MOL0     H14167   7.958   4.758   2.129  0.8679 -1.8580 -1.0295
  865MOL0     H14168   8.160   4.868   1.811 -2.0485 -1.4729  0.6889
  865MOL0     H14169   8.356   4.892   1.692 -3.9718  1.7651  1.4213
  865MOL0     H14170   8.674   4.752   1.509  1.5159  3.7370 -1.3293
  865MOL0     H14171   8.573   4.843   1.619 -0.5598  1.8684 -0.9805
  865MOL0     H14172   8.515   4.824   1.313 -3.3039  0.7775 -0.2708
  865MOL0     H14173   8.448   4.932   1.431 -0.4152 -0.1702 -1.2685
  865MOL0     H14174   8.693   5.021   1.480 -1.9899  1.0801  0.2929
  865MOL0     H14175   8.611   5.070   1.335  0.0586  0.0991  0.5719
  865MOL0     H14176   8.819   4.861   1.344  0.9006  0.3779 -0.2473
  865MOL0     H14177   8.733   4.908   1.194  0.3992  2.1840 -0.2494
  865MOL0     H14178   8.944   5.255   1.215  0.9097 -0.4520  1.3946
  865MOL0     H14179   8.332   4.473   1.559  0.3447  2.0901 -2.0541
  865MOL0     H14180   8.096   4.466   1.685 -2.5615  0.8217  1.0739
  866MOL0     O14181   7.426   1.752   2.492 -0.1539 -0.5118 -0.7149
  866MOL0     C14182   7.445   1.638   2.446  0.0379 -0.5864 -0.4774
  866MOL0     O14183   7.358   1.532   2.448  0.4472 -0.0131  0.2698
  866MOL0     C14184   7.230   1.570   2.495  0.8475 -0.1624  0.7725
  866MOL0     C14185   7.121   1.546   2.411 -0.6764 -0.6723  0.0154
  866MOL0     C14186   6.985   1.570   2.453  0.0511  0.0785 -0.5274
  866MOL0     C14187   6.961   1.633   2.579  0.5500 -0.1861 -0.8174
  866MOL0     O14188   6.841   1.673   2.625  0.2575 -0.1377 -0.0343
  866MOL0     C14189   6.727   1.680   2.535 -0.1319 -0.3482  0.1858
  866MOL0     C14190   6.592   1.718   2.603  0.4542  0.1401 -0.4116
  866MOL0     C14191   6.477   1.712   2.511  0.6633 -0.0341  0.2031
  866MOL0     C14192   6.346   1.681   2.587  0.2727  0.0937 -0.0415
  866MOL0     C14193   6.223   1.691   2.492 -0.0139  0.3888  0.7795
  866MOL0     C14194   6.093   1.651   2.563 -1.2407  0.1367 -0.0917
  866MOL0     C14195   5.973   1.665   2.471 -0.7908 -0.6448 -0.4085
  866MOL0     C14196   5.949   1.534   2.393 -0.3017 -0.1936  0.0945
  866MOL0     N14197   5.904   1.418   2.465 -0.1906  0.5699  0.4260
  866MOL0     C14198   5.778   1.420   2.520 -0.2044  1.0429 -0.5495
  866MOL0     C14199   5.775   1.309   2.600 -0.3793 -0.3697  0.6433
  866MOL0     C14200   5.650   1.264   2.681 -0.2258 -0.4463  0.5087
  866MOL0     C14201   5.592   1.148   2.598  0.2638  0.0404 -0.2735
  866MOL0     C14202   5.484   1.069   2.672  0.8395  0.3208  0.1594
  866MOL0     C14203   5.359   1.141   2.627  0.1925 -0.2329  0.4921
  866MOL0     O14204   5.244   1.070   2.687 -0.1157  0.4585 -0.5379
  866MOL0     C14205   5.118   1.100   2.645 -0.0144 -0.9376 -0.0568
  866MOL0     C14206   5.021   1.033   2.716 -1.2994 -0.3155  0.5324
  866MOL0     C14207   4.885   1.058   2.693  0.0221 -0.6227 -0.5465
  866MOL0     C14208   4.839   1.150   2.591  0.6536  0.5903 -0.0789
  866MOL0     C14209   4.696   1.180   2.577 -0.2235  0.2493  0.1198
  866MOL0     O14210   4.614   1.148   2.684 -0.1197  0.6394 -0.1848
  866MOL0     C14211   4.482   1.186   2.683 -0.4374  0.2416 -0.3594
  866MOL0     C14212   4.391   1.132   2.591 -0.1993  0.6355  0.0992
  866MOL0     C14213   4.260   1.145   2.603  1.6224 -0.1066  0.2621
  866MOL0     C14214   4.209   1.224   2.715 -0.2338 -0.2555 -0.2119
  866MOL0     O14215   4.068   1.240   2.727 -0.1971  1.0206 -0.1165
  866MOL0     C14216   4.031   1.289   2.857  0.3794 -0.1969  0.2747
  866MOL0     C14217   3.878   1.263   2.867 -0.5541 -0.0988 -0.6871
  866MOL0     C14218   3.802   1.301   2.748  0.7437  0.3441  0.0054
  866MOL0     C14219   3.646   1.308   2.778 -0.5057 -0.1264 -0.2348
  866MOL0     C14220   3.574   1.176   2.813 -0.2425 -0.2020 -0.0510
  866MOL0     C14221   3.435   1.185   2.872  0.7886  0.1810 -0.3311
  866MOL0     C14222   3.380   1.055   2.937  0.5377 -0.0736  0.6508
  866MOL0     C14223   3.253   1.081   3.015  0.3880 -0.1480  0.2922
  866MOL0    Cl14224   3.115   1.126   2.927  0.0312 -0.0571 -0.4054
  866MOL0     C14225   4.305   1.285   2.800 -0.3826  0.3238  0.5023
  866MOL0     C14226   4.438   1.266   2.788 -0.8181 -0.1236  0.3260
  866MOL0     O14227   4.660   1.236   2.473 -0.3781  0.0032  0.0333
  866MOL0     C14228   4.940   1.215   2.519  0.0678  1.7903 -0.0122
  866MOL0     C14229   5.081   1.194   2.549  0.4847  0.0671  1.6499
  866MOL0     N14230   5.908   1.259   2.599 -1.4775 -0.8736  0.4552
  866MOL0     N14231   5.989   1.332   2.523 -1.0136  0.5412 -0.1476
  866MOL0     C14232   7.072   1.638   2.670 -0.0103  0.1972 -0.0382
  866MOL0     C14233   7.205   1.611   2.624  1.4794  0.6961 -0.2784
  866MOL0     C14234   7.567   1.616   2.373 -0.1780  0.5112 -0.7716
  866MOL0     C14235   7.579   1.504   2.285 -1.3202 -0.8255 -1.2341
  866MOL0     C14236   7.700   1.484   2.215  0.3805 -0.4831 -0.1979
  866MOL0     C14237   7.806   1.569   2.227  0.6661 -0.0401  0.0115
  866MOL0     O14238   7.916   1.536   2.151  1.0492  0.6499 -0.3548
  866MOL0     C14239   8.038   1.613   2.164  0.2374  0.6916  0.8455
  866MOL0     C14240   8.143   1.570   2.252 -0.3856 -0.5084 -0.0693
  866MOL0     C14241   8.148   1.418   2.270 -0.7423  0.3656  0.6125
  866MOL0     C14242   8.270   1.362   2.331  0.0301 -0.4757 -0.5331
  866MOL0     C14243   8.378   1.379   2.241  0.4121 -0.2472 -0.2885
  866MOL0     C14244   8.467   1.372   2.166 -0.5809  0.6967 -0.4012
  866MOL0     C14245   7.786   1.683   2.308 -0.4622  0.6340 -0.0195
  866MOL0     C14246   7.668   1.709   2.371 -0.9092  0.3240  0.1375
  866MOL0     H14247   7.139   1.498   2.315 -1.1019 -1.4346  0.3145
  866MOL0     H14248   6.902   1.534   2.392  1.4472  0.4105 -2.7212
  866MOL0     H14249   6.724   1.579   2.493  2.6017 -0.6917  0.6003
  866MOL0     H14250   6.753   1.746   2.452 -0.0414 -1.7713 -0.9572
  866MOL0     H14251   6.610   1.818   2.644 -0.1868  0.1875 -0.2411
  866MOL0     H14252   6.574   1.653   2.688  0.9479  0.8341  0.2453
  866MOL0     H14253   6.494   1.637   2.433  1.4663 -1.5265  1.7560
  866MOL0     H14254   6.462   1.807   2.458 -1.8538  0.2206  1.2272
  866MOL0     H14255   6.354   1.583   2.635 -3.3631 -0.0941  0.4668
  866MOL0     H14256   6.327   1.748   2.671  3.0292 -0.6309  1.2734
  866MOL0     H14257   6.234   1.615   2.414  0.6140 -1.0695  2.2281
  866MOL0     H14258   6.208   1.791   2.450  0.4583  0.1315 -0.0146
  866MOL0     H14259   6.078   1.699   2.661 -1.2945 -1.4756  0.7229
  866MOL0     H14260   6.110   1.547   2.592  0.2421  0.2262 -0.5804
  866MOL0     H14261   5.890   1.677   2.541  1.1752  0.5224  1.8603
  866MOL0     H14262   5.991   1.745   2.398 -0.3483 -0.3642 -0.0005
  866MOL0     H14263   6.044   1.507   2.345 -0.0843 -4.9060  2.5359
  866MOL0     H14264   5.881   1.565   2.314  0.3096  2.9920  0.7090
  866MOL0     H14265   5.690   1.480   2.497 -0.8729  0.4777  0.4431
  866MOL0     H14266   5.572   1.338   2.699 -0.3849 -0.4142 -0.2557
  866MOL0     H14267   5.672   1.218   2.778 -3.7329 -1.8193  0.8272
  866MOL0     H14268   5.681   1.085   2.589 -1.2206 -1.9922 -1.9642
  866MOL0     H14269   5.557   1.178   2.499 -2.9996 -2.0612  0.0962
  866MOL0     H14270   5.478   0.967   2.632 -0.6344  0.0008  1.1161
  866MOL0     H14271   5.485   1.061   2.781 -2.6613 -3.7677  0.1628
  866MOL0     H14272   5.350   1.168   2.521  0.7233  0.6566  0.6596
  866MOL0     H14273   5.361   1.229   2.692 -0.2208  0.0225  0.1665
  866MOL0     H14274   5.064   0.961   2.784  0.4535  0.3954  0.2250
  866MOL0     H14275   4.811   1.023   2.764 -0.0391 -0.0149 -0.3046
  866MOL0     H14276   4.436   1.072   2.513  0.4028  1.6611 -0.3616
  866MOL0     H14277   4.190   1.103   2.532 -0.7057 -0.6301  2.7044
  866MOL0     H14278   4.063   1.393   2.863  3.3697 -1.0891  2.2916
  866MOL0     H14279   4.085   1.244   2.941 -0.0906  1.8598  1.7308
  866MOL0     H14280   3.833   1.312   2.954 -1.1783  1.6802 -1.9642
  866MOL0     H14281   3.868   1.155   2.876 -1.1498 -0.5277 -4.7642
  866MOL0     H14282   3.814   1.232   2.664 -0.2632 -0.8103  0.7690
  866MOL0     H14283   3.848   1.400   2.738  2.6590 -0.1196  2.8547
  866MOL0     H14284   3.621   1.393   2.842  3.1036  3.1866 -2.7959
  866MOL0     H14285   3.615   1.338   2.678  4.7461 -0.6788 -2.3586
  866MOL0     H14286   3.640   1.121   2.882 -0.3278 -1.2035 -0.7373
  866MOL0     H14287   3.561   1.113   2.724  1.5118 -0.2020 -0.3485
  866MOL0     H14288   3.365   1.219   2.795  0.7347 -0.2449 -0.4768
  866MOL0     H14289   3.449   1.259   2.951  1.2235  0.2674 -0.4877
  866MOL0     H14290   3.363   0.979   2.860  0.1778 -1.2304  1.8394
  866MOL0     H14291   3.457   1.019   3.006  1.5853  1.8431  0.5499
  866MOL0     H14292   3.280   1.157   3.089  2.2846  0.9035 -1.3663
  866MOL0     H14293   3.228   0.983   3.057 -2.3127  0.2839 -0.0973
  866MOL0     H14294   4.284   1.348   2.886  2.1936 -1.7219  2.7885
  866MOL0     H14295   4.514   1.309   2.852  0.3501 -1.2372 -0.2551
  866MOL0     H14296   4.912   1.289   2.445 -2.0193  0.7375 -0.3661
  866MOL0     H14297   5.156   1.244   2.489 -1.6412  0.7514 -0.6145
  866MOL0     H14298   7.055   1.683   2.767  0.8971  2.0433 -0.6749
  866MOL0     H14299   7.285   1.623   2.697  1.3654 -1.7689  0.3452
  866MOL0     H14300   7.500   1.429   2.287 -1.0876 -1.0848 -1.5340
  866MOL0     H14301   7.711   1.390   2.162  0.4224  0.1081 -1.2884
  866MOL0     H14302   8.008   1.716   2.181 -2.1829  0.5571 -1.8779
  866MOL0     H14303   8.083   1.611   2.064 -1.5065 -1.2021  0.0314
  866MOL0     H14304   8.235   1.618   2.215 -1.2242  1.3054  0.0722
  866MOL0     H14305   8.109   1.619   2.344 -1.5133 -1.3027 -0.0474
  866MOL0     H14306   8.136   1.374   2.170 -1.7644 -2.8075  2.0257
  866MOL0     H14307   8.060   1.390   2.329 -0.6808 -1.6236 -0.1610
  866MOL0     H14308   8.291   1.403   2.431 -0.4215 -1.3281 -0.0785
  866MOL0     H14309   8.266   1.253   2.344 -0.1888 -0.8203 -3.0110
  866MOL0     H14310   8.546   1.354   2.097  2.0810  0.2430  2.5530
  866MOL0     H14311   7.866   1.755   2.325 -0.8383  1.0483  0.0050
  866MOL0     H14312   7.659   1.810   2.410  1.3651  0.3987  0.5982
  867MOL0     O14313   4.279   7.141  10.120 -0.1673  0.1830 -0.0050
  867MOL0     C14314   4.303   7.141  10.240 -0.0725 -0.2216 -0.2364
  867MOL0     O14315   4.206   7.141  10.336 -0.2800  0.0165  0.4248
  867MOL0     C14316   4.068   7.129  10.296 -0.0116 -0.3817  0.0091
  867MOL0     C14317   3.982   7.030  10.353 -0.8494 -0.2741  0.2710
  867MOL0     C14318   3.849   7.018  10.332  1.0433 -0.5321  0.2141
  867MOL0     C14319   3.784   7.122  10.246 -0.2488  0.3338 -0.8603
  867MOL0     O14320   3.646   7.111  10.214  0.1029 -0.0225 -0.5721
  867MOL0     C14321   3.589   7.217  10.130 -0.4025  0.2367  0.0905
  867MOL0     C14322   3.451   7.174  10.071 -0.2208 -0.1120 -0.0099
  867MOL0     C14323   3.354   7.162  10.185  0.2749 -1.1918 -0.0408
  867MOL0     C14324   3.220   7.121  10.136 -0.5168 -0.2881 -0.6813
  867MOL0     C14325   3.134   7.134  10.261  0.4176 -0.5306  1.0519
  867MOL0     C14326   2.991   7.098  10.227  0.6686 -0.3943  0.2082
  867MOL0     C14327   2.887   7.134  10.339  0.1929 -0.4784  0.3941
  867MOL0     C14328   2.742   7.136  10.290 -0.8660  0.2088 -0.4336
  867MOL0     N14329   2.644   7.205  10.380  0.0973  0.2902 -0.6041
  867MOL0     C14330   2.576   7.318  10.339  1.1777  0.8228  0.6418
  867MOL0     C14331   2.498   7.347  10.452  0.0394  0.4480 -0.1096
  867MOL0     C14332   2.395   7.448  10.492 -0.9459 -0.4981 -0.2465
  867MOL0     C14333   2.248   7.408  10.490 -0.8581 -0.6227  0.6953
  867MOL0     C14334   2.207   7.387  10.344 -0.0340 -0.0019 -0.3557
  867MOL0     C14335   2.062   7.350  10.351 -0.6817  0.2353 -0.3763
  867MOL0     O14336   2.027   7.312  10.218  0.0726 -0.0617 -0.0472
  867MOL0     C14337   1.912   7.239  10.190 -0.0929  0.0399  0.2940
  867MOL0     C14338   1.804   7.240  10.272  0.1126  0.5782 -0.4806
  867MOL0     C14339   1.680   7.171  10.240 -0.4889 -0.0103  0.0156
  867MOL0     C14340   1.671   7.110  10.114 -0.2068  0.0760 -0.1520
  867MOL0     C14341   1.543   7.045  10.067 -0.5268  0.4546 -0.1912
  867MOL0     O14342   1.556   6.962   9.961  0.4983  0.1491  0.4370
  867MOL0     C14343   1.453   6.903   9.898  0.0544  0.0360  0.2943
  867MOL0     C14344   1.445   6.765   9.900 -0.4090  0.1523 -0.0832
  867MOL0     C14345   1.343   6.696   9.826 -0.7799 -0.4119 -0.2999
  867MOL0     C14346   1.243   6.769   9.760  0.9767  0.0076  1.0238
  867MOL0     O14347   1.143   6.732   9.672  0.3714 -0.8203 -0.2901
  867MOL0     C14348   1.087   6.607   9.693 -0.1341 -0.4439  0.0552
  867MOL0     C14349   1.025   6.604   9.830 -0.4912  0.6499  1.2092
  867MOL0     C14350   0.928   6.484   9.835  0.5492 -0.7123 -0.1398
  867MOL0     C14351   0.789   6.515   9.772  0.1716 -0.3772  0.1709
  867MOL0     C14352   0.692   6.403   9.811 -0.6271  0.3139 -1.6254
  867MOL0     C14353   0.559   6.427   9.747  0.1783  0.1721 -0.2429
  867MOL0     C14354   0.450   6.321   9.798 -0.8463  0.5758 -0.4046
  867MOL0     C14355   0.324   6.321   9.711  0.1371 -0.0806  0.3839
  867MOL0    Cl14356   0.205   6.194   9.750 -0.0759 -0.0397  0.0566
  867MOL0     C14357   1.248   6.908   9.772 -0.5651 -0.7894 -0.3474
  867MOL0     C14358   1.355   6.972   9.835  0.5229  0.2291 -1.0670
  867MOL0     O14359   1.441   7.060  10.129  0.3034 -0.5575  0.7412
  867MOL0     C14360   1.788   7.103  10.023  0.5495 -0.3065  0.9078
  867MOL0     C14361   1.897   7.182  10.058 -0.6224  0.0518 -0.4624
  867MOL0     N14362   2.512   7.244  10.539  0.3042 -1.0032  0.0419
  867MOL0     N14363   2.592   7.160  10.496 -0.0485 -0.2878  0.1109
  867MOL0     C14364   3.874   7.224  10.186  0.6441  0.5576  0.2378
  867MOL0     C14365   4.006   7.225  10.215 -0.2218 -0.1510  0.7733
  867MOL0     C14366   4.447   7.139  10.277 -0.6402  0.3873  0.2545
  867MOL0     C14367   4.552   7.097  10.186  0.0994  0.0885  0.5872
  867MOL0     C14368   4.685   7.106  10.224  0.3552 -0.2110 -0.8261
  867MOL0     C14369   4.713   7.162  10.356 -0.2880  0.9235  0.9800
  867MOL0     O14370   4.845   7.166  10.398 -0.5541  0.8571 -0.0428
  867MOL0     C14371   4.962   7.132  10.319  0.6785 -0.6516  0.5098
  867MOL0     C14372   5.082   7.161  10.420 -0.8820 -0.6238  0.3809
  867MOL0     C14373   5.213   7.190  10.332  0.1806  0.3705 -0.4779
  867MOL0     C14374   5.225   7.340  10.298 -0.6506  0.0496 -0.0098
  867MOL0     C14375   5.360   7.366  10.265  0.5978 -0.0970 -0.3443
  867MOL0     C14376   5.477   7.402  10.242  0.5205  0.9623  0.4718
  867MOL0     C14377   4.612   7.209  10.440 -0.5351 -0.4147 -0.0666
  867MOL0     C14378   4.480   7.193  10.404 -0.0405  0.2268 -0.6287
  867MOL0     H14379   4.031   6.952  10.411 -0.1968  1.0070  1.4918
  867MOL0     H14380   3.788   6.938  10.374 -1.0779 -1.0011 -3.3061
  867MOL0     H14381   3.647   7.244  10.042  2.6697 -0.1711  1.8551
  867MOL0     H14382   3.573   7.305  10.193  0.6311  1.0946 -0.8196
  867MOL0     H14383   3.463   7.087  10.005 -1.9798 -0.7421  0.4349
  867MOL0     H14384   3.422   7.255  10.003  1.6902 -0.7915 -1.7388
  867MOL0     H14385   3.345   7.263  10.224  0.8507 -0.2177 -2.2565
  867MOL0     H14386   3.389   7.100  10.268 -1.7749 -0.7588  1.2067
  867MOL0     H14387   3.196   7.183  10.049  2.1527  1.9325  0.0293
  867MOL0     H14388   3.226   7.016  10.107 -1.9056 -0.6426  0.1849
  867MOL0     H14389   3.130   7.238  10.294  0.2046 -0.7747  1.8000
  867MOL0     H14390   3.165   7.063  10.339  0.4613  1.0401  2.5146
  867MOL0     H14391   2.981   6.992  10.200 -0.1556 -0.4063  0.5348
  867MOL0     H14392   2.975   7.148  10.131  2.2048  2.8930  1.4980
  867MOL0     H14393   2.901   7.057  10.415  1.2133 -0.2534  0.4445
  867MOL0     H14394   2.911   7.232  10.383 -2.3571 -1.2994  4.1399
  867MOL0     H14395   2.713   7.030  10.292 -1.2601  0.2983 -1.2099
  867MOL0     H14396   2.737   7.175  10.188  0.3189  3.1770  0.5399
  867MOL0     H14397   2.580   7.379  10.250 -0.3045  0.3296  0.2101
  867MOL0     H14398   2.407   7.545  10.443  1.7866 -0.7664 -0.2837
  867MOL0     H14399   2.416   7.468  10.597  0.5380 -0.5601 -0.5100
  867MOL0     H14400   2.186   7.484  10.538 -1.4174 -0.5991 -0.0565
  867MOL0     H14401   2.229   7.324  10.558 -0.5344 -1.9698 -0.8325
  867MOL0     H14402   2.207   7.480  10.286 -1.7178  1.2451  1.5258
  867MOL0     H14403   2.278   7.323  10.291 -0.9195  0.0722 -1.6866
  867MOL0     H14404   1.997   7.426  10.397 -0.9590 -1.7022  2.6487
  867MOL0     H14405   2.057   7.258  10.409  2.3496  0.9732  1.2406
  867MOL0     H14406   1.802   7.288  10.369  1.0033 -0.2869 -0.0202
  867MOL0     H14407   1.593   7.177  10.305 -0.3681 -0.3123  0.2057
  867MOL0     H14408   1.527   6.708   9.941  1.3104  1.7549 -1.1718
  867MOL0     H14409   1.345   6.587   9.826  2.3821 -0.4579  0.1796
  867MOL0     H14410   1.170   6.536   9.683 -0.9770 -1.3954 -0.3618
  867MOL0     H14411   1.005   6.587   9.624 -1.3236  0.7501  1.0439
  867MOL0     H14412   0.982   6.702   9.856  1.0045  1.0435  2.3274
  867MOL0     H14413   1.102   6.582   9.905  1.0490  1.7483  0.0097
  867MOL0     H14414   0.913   6.460   9.940 -1.3464  3.3166  0.7042
  867MOL0     H14415   0.979   6.399   9.789  1.2668 -1.2997  1.6683
  867MOL0     H14416   0.752   6.615   9.796 -0.8538 -0.8836  0.7690
  867MOL0     H14417   0.792   6.519   9.663  0.0931 -0.5121  0.1636
  867MOL0     H14418   0.679   6.413   9.919  1.1533  0.5207 -1.4014
  867MOL0     H14419   0.725   6.302   9.784  1.4335  0.4399  0.1761
  867MOL0     H14420   0.568   6.419   9.638  2.3175 -1.5656 -0.0101
  867MOL0     H14421   0.521   6.527   9.768  0.2254  0.2758 -0.6404
  867MOL0     H14422   0.497   6.223   9.790 -0.1532  0.7634  1.1007
  867MOL0     H14423   0.425   6.346   9.902 -0.8173  0.8685 -0.4658
  867MOL0     H14424   0.346   6.298   9.606 -0.9248  1.0826 -0.1123
  867MOL0     H14425   0.280   6.421   9.709 -1.6075 -0.8277 -1.4723
  867MOL0     H14426   1.177   6.971   9.719  0.8917  0.6679 -0.6509
  867MOL0     H14427   1.368   7.080   9.839  0.9793  0.1456  0.8694
  867MOL0     H14428   1.784   7.052   9.927  2.2123 -1.8195  1.5805
  867MOL0     H14429   1.985   7.189   9.995  1.6660 -1.2800  2.3603
  867MOL0     H14430   3.832   7.306  10.128  2.7073  2.6030  1.4284
  867MOL0     H14431   4.059   7.309  10.171 -1.6883 -0.7482 -2.4186
  867MOL0     H14432   4.516   7.053  10.093 -1.5747  2.9812 -0.2704
  867MOL0     H14433   4.758   7.042  10.175  4.9296  1.7877  2.5937
  867MOL0     H14434   4.972   7.190  10.227  3.0977 -1.9342 -0.1290
  867MOL0     H14435   4.958   7.031  10.276 -0.5490 -0.1878 -0.5501
  867MOL0     H14436   5.070   7.251  10.481  0.9208 -0.3558  0.3995
  867MOL0     H14437   5.090   7.075  10.486 -0.7349 -1.9943 -1.3448
  867MOL0     H14438   5.201   7.126  10.244  1.5654  0.3894 -0.7054
  867MOL0     H14439   5.294   7.161  10.399 -0.6142 -2.3054 -0.5572
  867MOL0     H14440   5.157   7.368  10.217 -2.0129  1.6157  1.5763
  867MOL0     H14441   5.203   7.396  10.390 -0.8252  0.2289 -0.1588
  867MOL0     H14442   5.580   7.423  10.222  0.7509  0.0966  0.7159
  867MOL0     H14443   4.646   7.244  10.536 -1.8064 -0.5096  0.4365
  867MOL0     H14444   4.404   7.224  10.476 -0.4820  0.0537 -1.0163
  868MOL0     O14445   7.294   3.318   3.020  0.7229  0.0183  1.1137
  868MOL0     C14446   7.234   3.240   2.942  0.1829  0.2874  0.1105
  868MOL0     O14447   7.288   3.128   2.882 -0.1674 -0.2254 -0.1664
  868MOL0     C14448   7.425   3.110   2.904  0.8073 -0.3999  0.3152
  868MOL0     C14449   7.458   2.999   2.990  0.4447 -0.1753  1.3258
  868MOL0     C14450   7.595   2.975   3.016  0.2956  0.3689 -1.1616
  868MOL0     C14451   7.697   3.059   2.975  0.3406 -0.3210 -0.6855
  868MOL0     O14452   7.817   3.014   2.975 -0.2352  0.9185 -0.1862
  868MOL0     C14453   7.841   2.868   2.948 -0.3491 -1.0546 -0.2011
  868MOL0     C14454   7.977   2.861   2.864  0.5629 -0.3590 -0.0441
  868MOL0     C14455   8.094   2.913   2.936  0.0338  0.6003  0.9205
  868MOL0     C14456   8.213   2.900   2.840 -0.1892  0.8405  0.7568
  868MOL0     C14457   8.266   2.768   2.803  0.4480 -0.8158  0.5289
  868MOL0     C14458   8.406   2.781   2.742 -0.6060  1.0988 -0.6572
  868MOL0     C14459   8.452   2.636   2.695 -0.1921 -0.2284 -0.2643
  868MOL0     C14460   8.582   2.659   2.604  0.6618  0.2068  0.2490
  868MOL0     N14461   8.628   2.533   2.542  0.7114 -0.1145  0.0004
  868MOL0     C14462   8.611   2.512   2.409  0.1443  0.5750  0.5755
  868MOL0     C14463   8.692   2.402   2.388  0.6590  0.6566 -1.5570
  868MOL0     C14464   8.735   2.359   2.256  0.2548 -0.5439  1.4584
  868MOL0     C14465   8.622   2.376   2.145  0.0682  0.0497 -0.9787
  868MOL0     C14466   8.664   2.293   2.025  0.5451  0.1459  0.0349
  868MOL0     C14467   8.566   2.306   1.916 -0.3937  1.2732 -0.8042
  868MOL0     O14468   8.437   2.244   1.929  0.4150  1.0812 -0.5005
  868MOL0     C14469   8.316   2.301   1.952 -0.6973 -0.8257  0.2899
  868MOL0     C14470   8.313   2.438   1.987  0.4892 -0.1956  0.6410
  868MOL0     C14471   8.187   2.498   2.009  0.4728  0.0756 -0.0474
  868MOL0     C14472   8.068   2.427   2.015 -0.0619 -0.7825 -0.8926
  868MOL0     C14473   7.943   2.486   2.067  0.3621 -0.2532 -0.2751
  868MOL0     O14474   7.834   2.399   2.074 -0.7026  0.1167  0.4977
  868MOL0     C14475   7.708   2.452   2.098  0.2872 -1.1047  0.1252
  868MOL0     C14476   7.630   2.385   2.187 -0.0171 -0.1588  0.0763
  868MOL0     C14477   7.496   2.413   2.209 -0.4144 -0.5659 -0.6232
  868MOL0     C14478   7.437   2.530   2.153 -0.2245  0.1429  0.0971
  868MOL0     O14479   7.302   2.560   2.163  0.4685 -0.0302 -0.3924
  868MOL0     C14480   7.244   2.528   2.287  0.4300  0.1132 -0.2733
  868MOL0     C14481   7.112   2.604   2.323 -0.5153 -1.0837  0.4931
  868MOL0     C14482   7.001   2.518   2.256 -0.2517 -0.1974  0.5398
  868MOL0     C14483   7.008   2.502   2.104 -0.1720 -0.4620 -0.0046
  868MOL0     C14484   6.881   2.485   2.040 -0.1117 -0.2223  0.6954
  868MOL0     C14485   6.806   2.358   2.096 -0.0883 -0.3524  0.5612
  868MOL0     C14486   6.666   2.320   2.040 -0.7071  0.8898  0.2196
  868MOL0     C14487   6.622   2.189   2.100  0.2907  1.0155  1.1554
  868MOL0    Cl14488   6.497   2.122   1.986 -0.0935 -0.0378 -0.2099
  868MOL0     C14489   7.518   2.604   2.067  0.3788 -0.7437  0.4790
  868MOL0     C14490   7.652   2.573   2.036 -0.2367  0.9692 -0.0596
  868MOL0     O14491   7.934   2.611   2.100 -0.2889  0.0305  0.7741
  868MOL0     C14492   8.076   2.289   1.974  0.0835 -0.2733  0.3082
  868MOL0     C14493   8.199   2.224   1.946  0.4466 -1.0928 -0.2449
  868MOL0     N14494   8.741   2.355   2.509  0.1217 -0.4193  0.0864
  868MOL0     N14495   8.700   2.438   2.602 -0.9980 -0.2942 -0.2260
  868MOL0     C14496   7.660   3.173   2.902 -0.6934 -0.0859 -0.0613
  868MOL0     C14497   7.531   3.200   2.867  0.5584  0.4274 -0.1986
  868MOL0     C14498   7.089   3.261   2.938  0.4422 -0.7332 -0.8870
  868MOL0     C14499   7.016   3.356   3.008  0.6395 -0.5456 -0.2318
  868MOL0     C14500   6.881   3.367   2.984 -0.3748 -0.4432 -1.2671
  868MOL0     C14501   6.802   3.286   2.896 -0.1608  0.2029  0.3059
  868MOL0     O14502   6.667   3.304   2.897  0.1153 -0.0173  0.3694
  868MOL0     C14503   6.583   3.239   2.800  0.0909  0.4275  0.2851
  868MOL0     C14504   6.441   3.286   2.837 -0.6959 -0.4355  0.0917
  868MOL0     C14505   6.335   3.197   2.777 -0.5930  0.2979 -0.5411
  868MOL0     C14506   6.210   3.185   2.864 -0.9556 -0.2492 -0.6180
  868MOL0     C14507   6.121   3.095   2.785 -0.9234  0.2369 -0.6039
  868MOL0     C14508   6.047   3.023   2.727  0.5520 -0.0314 -0.0576
  868MOL0     C14509   6.882   3.200   2.821 -0.4055 -0.5777  0.2625
  868MOL0     C14510   7.020   3.180   2.843 -0.9694 -0.0478 -0.2374
  868MOL0     H14511   7.381   2.935   3.031 -1.7858  1.2606 -0.3956
  868MOL0     H14512   7.625   2.888   3.073 -1.8154 -0.5839 -1.3854
  868MOL0     H14513   7.757   2.829   2.890 -0.9240 -0.9802  0.5643
  868MOL0     H14514   7.849   2.801   3.035 -0.8144  1.4653  1.9147
  868MOL0     H14515   7.974   2.914   2.768  2.1867 -1.4559 -0.7477
  868MOL0     H14516   7.986   2.754   2.843  0.3507 -0.7128  1.5513
  868MOL0     H14517   8.121   2.857   3.026  1.7877  1.0847  0.7242
  868MOL0     H14518   8.079   3.016   2.969 -4.9680  0.0518  1.1470
  868MOL0     H14519   8.191   2.946   2.743 -0.5404  0.0283  0.4459
  868MOL0     H14520   8.292   2.956   2.891 -0.7172 -0.0912  2.7047
  868MOL0     H14521   8.195   2.717   2.738 -1.2424  0.5404  1.2187
  868MOL0     H14522   8.278   2.705   2.892 -1.8217 -2.2105 -0.0561
  868MOL0     H14523   8.485   2.811   2.811  1.9876 -1.0507 -2.5042
  868MOL0     H14524   8.408   2.853   2.660  1.7170  0.9934 -0.7539
  868MOL0     H14525   8.474   2.580   2.787 -0.4778 -0.1448 -0.1442
  868MOL0     H14526   8.371   2.593   2.637  0.2319  1.4563 -2.1731
  868MOL0     H14527   8.664   2.699   2.663 -0.0295 -0.5299  1.7555
  868MOL0     H14528   8.557   2.727   2.522  2.7084 -0.8316 -1.3291
  868MOL0     H14529   8.571   2.561   2.320  1.3242  0.9237  0.2077
  868MOL0     H14530   8.752   2.252   2.260  1.5244 -0.3228  3.2761
  868MOL0     H14531   8.824   2.410   2.217 -0.2331 -0.4398  0.4459
  868MOL0     H14532   8.610   2.484   2.131  0.0198  0.1768 -0.0447
  868MOL0     H14533   8.534   2.325   2.186 -0.4848 -0.0315 -2.2286
  868MOL0     H14534   8.763   2.331   1.998  1.3955 -2.5978 -1.0276
  868MOL0     H14535   8.672   2.189   2.056 -0.3199  0.8682  2.9427
  868MOL0     H14536   8.613   2.255   1.832 -0.8824  0.9648 -0.8947
  868MOL0     H14537   8.561   2.413   1.891 -3.0239  1.2886 -0.5165
  868MOL0     H14538   8.405   2.492   2.005  0.7140 -1.1081  2.4766
  868MOL0     H14539   8.183   2.605   2.026 -1.4565 -0.1648  1.4398
  868MOL0     H14540   7.669   2.302   2.244  1.6501  0.4268 -0.1346
  868MOL0     H14541   7.455   2.355   2.291 -0.7068 -1.2867 -1.2672
  868MOL0     H14542   7.317   2.564   2.360 -1.0847  1.9175  0.4266
  868MOL0     H14543   7.228   2.421   2.306  0.1137  0.1157 -0.5266
  868MOL0     H14544   7.110   2.701   2.274 -0.0411 -0.3122  1.9313
  868MOL0     H14545   7.088   2.613   2.430 -0.7151 -1.5181  0.4888
  868MOL0     H14546   6.913   2.581   2.272 -0.1804 -0.1012  0.5549
  868MOL0     H14547   6.997   2.424   2.312 -2.4467 -0.4437  0.0187
  868MOL0     H14548   7.061   2.592   2.071 -0.7734 -0.1187 -0.0436
  868MOL0     H14549   7.078   2.418   2.100  1.8373  0.9128  2.4730
  868MOL0     H14550   6.910   2.465   1.937  2.5221 -0.7704  1.4553
  868MOL0     H14551   6.826   2.579   2.047 -0.3897 -0.3326  0.0310
  868MOL0     H14552   6.792   2.374   2.204  1.7484 -0.7790  0.8880
  868MOL0     H14553   6.867   2.269   2.082  1.5830  1.1376 -2.5945
  868MOL0     H14554   6.597   2.403   2.055  1.2688  3.1222 -2.1412
  868MOL0     H14555   6.687   2.298   1.935  0.3163  2.0450  0.1516
  868MOL0     H14556   6.585   2.197   2.203  2.2230  0.6443  1.9057
  868MOL0     H14557   6.706   2.119   2.106  0.5579  1.2875  0.6809
  868MOL0     H14558   7.475   2.687   2.013  2.8326  2.3981  2.9721
  868MOL0     H14559   7.712   2.630   1.966  3.6863  0.0292  2.2307
  868MOL0     H14560   7.987   2.227   1.967 -0.2702  0.4363 -2.2972
  868MOL0     H14561   8.213   2.117   1.933 -0.5923 -1.2957  0.2101
  868MOL0     H14562   7.739   3.239   2.867 -0.5513 -0.1386  0.1592
  868MOL0     H14563   7.507   3.289   2.809 -2.5777  1.0604  1.8054
  868MOL0     H14564   7.068   3.408   3.088  4.4739 -0.3871 -2.5949
  868MOL0     H14565   6.824   3.436   3.045  1.7439  0.5301 -0.2591
  868MOL0     H14566   6.599   3.131   2.796  0.7974  0.5430 -0.1499
  868MOL0     H14567   6.615   3.287   2.707  0.5171  1.9787  1.1881
  868MOL0     H14568   6.419   3.271   2.943  0.5404 -0.1066  0.4164
  868MOL0     H14569   6.419   3.391   2.812  0.2618 -0.3456 -0.4057
  868MOL0     H14570   6.374   3.096   2.759  0.0055  0.2897  0.7722
  868MOL0     H14571   6.312   3.236   2.677  0.9185  0.3211 -0.9042
  868MOL0     H14572   6.240   3.156   2.965  2.1299 -0.9301 -1.6146
  868MOL0     H14573   6.153   3.278   2.874  0.3414  0.4488  0.7352
  868MOL0     H14574   5.986   2.964   2.661  0.8971  1.7981 -2.1216
  868MOL0     H14575   6.836   3.129   2.753 -2.5774  1.4763 -0.5511
  868MOL0     H14576   7.075   3.102   2.792 -0.7841  0.0155 -0.1362
  869MOL0     O14577   8.721   2.005   7.051  0.1587  0.2550  0.0632
  869MOL0     C14578   8.800   2.001   7.142 -0.8913  0.2549  0.0042
  869MOL0     O14579   8.767   1.991   7.279  0.8322 -0.0609 -0.0052
  869MOL0     C14580   8.632   1.970   7.304 -0.4757  0.1851 -0.3322
  869MOL0     C14581   8.579   1.851   7.358 -1.0751  0.9378  0.3508
  869MOL0     C14582   8.442   1.822   7.358 -0.0012  0.5934  0.7087
  869MOL0     C14583   8.353   1.921   7.323 -0.3402  0.6175 -0.7546
  869MOL0     O14584   8.212   1.912   7.319  0.0007 -0.6670  0.1456
  869MOL0     C14585   8.160   1.786   7.265 -0.4583  0.6001 -0.1009
  869MOL0     C14586   8.009   1.783   7.249 -0.2753  0.1016  0.1139
  869MOL0     C14587   7.928   1.840   7.368  0.0198  0.6754  0.6987
  869MOL0     C14588   7.777   1.836   7.361 -0.1407 -0.5924  0.4369
  869MOL0     C14589   7.729   1.689   7.378 -0.1468  0.4098 -0.6866
  869MOL0     C14590   7.752   1.622   7.516 -0.2193 -0.3079  0.5286
  869MOL0     C14591   7.757   1.467   7.502  0.4588  0.2393 -0.7412
  869MOL0     C14592   7.635   1.404   7.450 -0.0995  0.2829 -0.1424
  869MOL0     N14593   7.532   1.393   7.559 -0.1274 -0.3981  0.1497
  869MOL0     C14594   7.543   1.307   7.668 -0.9248  0.1581  0.9093
  869MOL0     C14595   7.459   1.363   7.759  0.4375  0.1003  0.6653
  869MOL0     C14596   7.446   1.316   7.902  0.6576  0.7539 -0.2262
  869MOL0     C14597   7.300   1.311   7.949  0.3093  0.0996 -1.3158
  869MOL0     C14598   7.272   1.315   8.106  0.2465  0.0132  0.3146
  869MOL0     C14599   7.134   1.266   8.138  0.0516  0.6997 -0.1637
  869MOL0     O14600   7.030   1.305   8.046 -0.1173 -0.3949 -0.0335
  869MOL0     C14601   6.911   1.243   8.061  0.6230  0.7254 -0.3744
  869MOL0     C14602   6.806   1.329   8.086 -0.3813  0.7518 -0.4817
  869MOL0     C14603   6.679   1.281   8.094  0.3903 -0.3935 -0.0165
  869MOL0     C14604   6.656   1.143   8.081  0.5076 -0.3272 -0.4755
  869MOL0     C14605   6.521   1.083   8.090  0.7565 -0.4774 -0.8383
  869MOL0     O14606   6.422   1.175   8.119 -0.3038 -0.7094  0.3022
  869MOL0     C14607   6.289   1.142   8.130  0.0474  0.4743 -0.2910
  869MOL0     C14608   6.214   1.228   8.208 -0.1174  0.3881 -0.1098
  869MOL0     C14609   6.082   1.197   8.237 -0.5498  0.7946 -0.1427
  869MOL0     C14610   6.015   1.085   8.175 -0.4189  0.5572 -0.0845
  869MOL0     O14611   5.880   1.078   8.199  0.5399 -0.3221  0.4871
  869MOL0     C14612   5.810   0.993   8.116 -0.1583 -0.3837  0.4442
  869MOL0     C14613   5.664   0.991   8.144 -0.6440  0.9482  1.2781
  869MOL0     C14614   5.657   0.932   8.283  1.0228  1.0341  0.4497
  869MOL0     C14615   5.513   0.938   8.337  0.1762  0.2902  0.7169
  869MOL0     C14616   5.486   0.840   8.446  0.8132 -0.1533 -0.5286
  869MOL0     C14617   5.381   0.893   8.541  0.4040  0.3629 -0.9707
  869MOL0     C14618   5.252   0.813   8.515 -0.5485 -0.4960 -0.7964
  869MOL0     C14619   5.225   0.683   8.588 -0.2281 -0.2249 -0.4234
  869MOL0    Cl14620   5.085   0.605   8.510 -0.3065  0.0367  0.4492
  869MOL0     C14621   6.091   0.997   8.093 -0.2302  0.5402  0.2482
  869MOL0     C14622   6.228   1.035   8.063 -0.0806 -0.3090 -0.2752
  869MOL0     O14623   6.512   0.962   8.106  0.6029  0.1151  0.4181
  869MOL0     C14624   6.766   1.054   8.058  1.1641  0.0426 -0.7644
  869MOL0     C14625   6.889   1.109   8.043 -0.1748  1.1659  0.1077
  869MOL0     N14626   7.413   1.482   7.704  0.1612 -0.2340  0.8311
  869MOL0     N14627   7.435   1.493   7.579 -0.4703 -0.0521 -0.1251
  869MOL0     C14628   8.402   2.049   7.289  0.0305 -0.3189  0.7726
  869MOL0     C14629   8.543   2.072   7.275  0.3133 -0.7199  0.8531
  869MOL0     C14630   8.944   2.004   7.108  0.4653 -0.1855 -0.3393
  869MOL0     C14631   9.037   1.999   7.210 -0.3614 -0.2716 -1.3993
  869MOL0     C14632   9.176   1.999   7.187 -0.2571  0.2633  0.9611
  869MOL0     C14633   9.227   2.001   7.051  0.2868  0.3123  0.0677
  869MOL0     O14634   9.351   2.010   7.004 -0.4305 -0.9160 -0.9011
  869MOL0     C14635   9.451   2.033   7.104 -0.4244 -0.4356 -0.3828
  869MOL0     C14636   9.562   2.079   7.019  0.4121 -0.2494 -0.0854
  869MOL0     C14637   9.699   2.101   7.091  0.5541 -0.0977  0.7166
  869MOL0     C14638   9.815   2.007   7.045  0.0459 -0.0297  0.1646
  869MOL0     C14639   9.947   2.057   7.079  0.7053 -0.9804 -0.0360
  869MOL0     C14640  10.061   2.094   7.096  1.3317 -0.5551  0.2133
  869MOL0     C14641   9.128   2.004   6.956 -0.5584 -0.1201 -0.1047
  869MOL0     C14642   8.995   2.009   6.980  0.4893 -0.1150  0.8554
  869MOL0     H14643   8.644   1.767   7.379 -0.8021  0.8988 -0.5977
  869MOL0     H14644   8.392   1.728   7.377  1.5990 -0.4736 -0.2202
  869MOL0     H14645   8.172   1.710   7.342  0.4894 -1.2357 -1.9793
  869MOL0     H14646   8.196   1.755   7.167 -1.9556 -2.7116  0.2697
  869MOL0     H14647   7.987   1.677   7.229  2.1108 -0.6736  1.1158
  869MOL0     H14648   7.980   1.831   7.155 -1.3909  0.1338  0.4691
  869MOL0     H14649   7.959   1.945   7.370  0.1395  0.6462  0.4735
  869MOL0     H14650   7.971   1.801   7.460  0.7241  1.7692  0.8543
  869MOL0     H14651   7.741   1.902   7.440 -0.9283 -0.3810 -0.0886
  869MOL0     H14652   7.748   1.877   7.264  1.9128 -1.9016 -0.8025
  869MOL0     H14653   7.775   1.630   7.298  0.2361  1.0478 -0.9568
  869MOL0     H14654   7.621   1.687   7.362 -0.3789  2.6185  0.1717
  869MOL0     H14655   7.683   1.651   7.597 -1.4149 -3.7684  0.9363
  869MOL0     H14656   7.852   1.651   7.550 -0.6726  1.1979  0.6715
  869MOL0     H14657   7.834   1.443   7.427 -0.6351 -1.5748 -1.3511
  869MOL0     H14658   7.779   1.427   7.601  0.6275  2.9024  0.3825
  869MOL0     H14659   7.647   1.301   7.417  0.3844  0.1048  0.5742
  869MOL0     H14660   7.595   1.462   7.366 -0.6262 -0.1201 -0.1742
  869MOL0     H14661   7.625   1.238   7.685 -0.6733 -0.5180 -2.3401
  869MOL0     H14662   7.502   1.373   7.978 -0.5487 -0.3017  1.5388
  869MOL0     H14663   7.492   1.218   7.919  0.4967  0.9013  1.2099
  869MOL0     H14664   7.261   1.217   7.909 -1.8729  1.2043 -1.9458
  869MOL0     H14665   7.247   1.398   7.908  1.2448  0.9138 -0.8309
  869MOL0     H14666   7.342   1.244   8.152 -0.5042 -1.0888 -0.1963
  869MOL0     H14667   7.291   1.414   8.149 -0.9004 -0.5572  2.2647
  869MOL0     H14668   7.110   1.283   8.243  0.2266 -3.2588  0.6331
  869MOL0     H14669   7.148   1.159   8.128 -0.5082  0.5387  0.6396
  869MOL0     H14670   6.808   1.438   8.093 -1.2148  0.9235 -2.3542
  869MOL0     H14671   6.599   1.352   8.111 -1.9664 -2.6169 -1.0207
  869MOL0     H14672   6.255   1.323   8.240  1.0317 -0.7324  1.9481
  869MOL0     H14673   6.025   1.256   8.308  1.1351  0.6284  1.4312
  869MOL0     H14674   5.841   0.891   8.137 -1.8176 -0.4935  2.8218
  869MOL0     H14675   5.828   1.016   8.011  3.0127  0.9843  1.1598
  869MOL0     H14676   5.617   0.938   8.060 -0.3043  3.3597 -0.5412
  869MOL0     H14677   5.626   1.093   8.151 -1.0530  0.8515  0.6367
  869MOL0     H14678   5.724   0.978   8.356  1.8243 -1.0988  1.1254
  869MOL0     H14679   5.690   0.828   8.288  0.1702  0.5371 -2.5004
  869MOL0     H14680   5.511   1.037   8.384  3.6293  0.7464  0.1901
  869MOL0     H14681   5.443   0.930   8.254  2.0420  1.4658 -1.0658
  869MOL0     H14682   5.581   0.834   8.500  0.2741  3.1104  1.0229
  869MOL0     H14683   5.475   0.736   8.413 -0.5015  0.3439 -1.7539
  869MOL0     H14684   5.362   0.999   8.526  0.3735  0.4428 -0.3752
  869MOL0     H14685   5.418   0.889   8.644 -0.1798  0.2160 -0.7619
  869MOL0     H14686   5.166   0.874   8.542 -1.2819 -1.1134 -1.6872
  869MOL0     H14687   5.247   0.806   8.406  2.5248  2.6813 -1.3371
  869MOL0     H14688   5.202   0.690   8.695  2.9751 -2.8992  0.5927
  869MOL0     H14689   5.311   0.616   8.576 -0.3089 -0.4219  0.0831
  869MOL0     H14690   6.038   0.913   8.049  1.7458 -0.1823 -0.8816
  869MOL0     H14691   6.294   0.965   8.012  2.8463  0.7674  1.7345
  869MOL0     H14692   6.755   0.946   8.060  0.4253  0.1189 -0.4686
  869MOL0     H14693   6.963   1.031   8.030 -0.6336  0.4185  1.6582
  869MOL0     H14694   8.335   2.133   7.273 -0.5431 -0.8599  0.2621
  869MOL0     H14695   8.556   2.173   7.237 -3.7029  0.3739  1.8999
  869MOL0     H14696   9.003   1.998   7.313 -0.3577 -0.9272 -1.4020
  869MOL0     H14697   9.250   1.992   7.267  0.9527  0.9044 -0.0735
  869MOL0     H14698   9.494   1.948   7.157  0.7838  0.1755 -0.3495
  869MOL0     H14699   9.430   2.112   7.177  0.1371  0.1290 -0.8195
  869MOL0     H14700   9.579   2.005   6.939 -1.6428  0.1756 -0.9851
  869MOL0     H14701   9.522   2.166   6.965 -0.8510  1.2128  2.9560
  869MOL0     H14702   9.686   2.082   7.198 -0.2315  2.6949  1.1946
  869MOL0     H14703   9.722   2.205   7.069  1.0587 -0.5264 -0.9421
  869MOL0     H14704   9.792   1.908   7.085  0.2953  0.0181  0.4254
  869MOL0     H14705   9.823   1.996   6.936 -1.2673  1.2540 -0.0984
  869MOL0     H14706  10.167   2.107   7.087  1.6821 -2.1876  1.6989
  869MOL0     H14707   9.163   2.007   6.853  0.8382  2.6993  0.3682
  869MOL0     H14708   8.921   2.003   6.901 -1.8137  1.2733  2.7803
  870MOL0     O14709   8.866   3.978   8.869 -0.2408  0.6117 -0.4383
  870MOL0     C14710   8.972   4.050   8.861  0.4343  0.7219  0.2673
  870MOL0     O14711   8.988   4.179   8.875 -0.3875 -0.4839  0.0625
  870MOL0     C14712   8.882   4.267   8.857  0.7984 -0.5967  0.0904
  870MOL0     C14713   8.772   4.253   8.768 -0.5171  0.9862  0.0306
  870MOL0     C14714   8.655   4.336   8.776 -0.2928  0.2774 -0.3820
  870MOL0     C14715   8.669   4.451   8.854  0.1228 -0.3788  0.3875
  870MOL0     O14716   8.563   4.538   8.878 -0.0124 -0.4766  0.3771
  870MOL0     C14717   8.434   4.533   8.814  0.6390 -0.7208 -0.9515
  870MOL0     C14718   8.337   4.596   8.920 -0.1765 -0.3590  0.1950
  870MOL0     C14719   8.202   4.628   8.850  0.5976  0.3457 -0.0068
  870MOL0     C14720   8.119   4.700   8.954 -0.9683 -0.6898 -0.1283
  870MOL0     C14721   7.979   4.707   8.900 -0.0589  0.1086 -0.3096
  870MOL0     C14722   7.884   4.732   9.013 -0.0761 -0.0696 -0.3137
  870MOL0     C14723   7.746   4.715   8.963  0.0547  0.8995 -0.1053
  870MOL0     C14724   7.644   4.790   9.045  0.6243 -0.2028  0.0199
  870MOL0     N14725   7.669   4.803   9.186  0.1525  0.0862 -0.3836
  870MOL0     C14726   7.601   4.743   9.297 -0.1992 -0.2102  0.0430
  870MOL0     C14727   7.636   4.815   9.411 -0.6166  0.0996  0.4089
  870MOL0     C14728   7.585   4.801   9.555  0.1888 -0.5026 -0.1847
  870MOL0     C14729   7.438   4.842   9.579  0.1357  1.1494  0.0780
  870MOL0     C14730   7.415   4.989   9.605  0.5130 -0.4870 -1.1611
  870MOL0     C14731   7.266   5.014   9.629 -0.0791 -0.0195 -0.2942
  870MOL0     O14732   7.198   5.002   9.508 -0.4945  0.4791 -0.8404
  870MOL0     C14733   7.066   5.009   9.521  0.3934 -0.2235  0.5488
  870MOL0     C14734   6.983   4.897   9.538  0.2911  0.3196  0.2613
  870MOL0     C14735   6.844   4.906   9.541  0.2405  0.3590  0.1055
  870MOL0     C14736   6.781   5.031   9.513 -0.2680  0.2231 -0.3790
  870MOL0     C14737   6.640   5.040   9.498 -0.5709  0.1324  0.4345
  870MOL0     O14738   6.575   4.923   9.509  0.0231 -0.4385 -0.4961
  870MOL0     C14739   6.439   4.922   9.540 -1.0793  0.7956  0.5602
  870MOL0     C14740   6.385   4.851   9.646  0.8082 -0.2812  0.1090
  870MOL0     C14741   6.246   4.854   9.672 -0.0858  0.9916 -0.0826
  870MOL0     C14742   6.164   4.941   9.603  0.3811  0.8635  0.2299
  870MOL0     O14743   6.036   4.937   9.642  0.2190 -0.5985 -0.1030
  870MOL0     C14744   5.927   4.954   9.548 -0.1956  0.7503  0.3557
  870MOL0     C14745   5.810   4.893   9.622 -0.0023  0.2511 -0.4446
  870MOL0     C14746   5.676   4.902   9.544 -0.4101  0.3915 -1.7083
  870MOL0     C14747   5.565   4.822   9.619  0.2308  0.6158 -0.1315
  870MOL0     C14748   5.428   4.854   9.558  0.3461  0.0681 -0.9318
  870MOL0     C14749   5.327   4.744   9.596 -1.0080  0.4341  0.1762
  870MOL0     C14750   5.192   4.758   9.534  0.0410  0.1822 -0.6378
  870MOL0     C14751   5.121   4.886   9.559 -0.6943  0.1483 -1.0008
  870MOL0    Cl14752   5.103   4.936   9.738  0.4187  0.0062 -0.4795
  870MOL0     C14753   6.214   5.001   9.488 -0.0119 -0.2142  0.0305
  870MOL0     C14754   6.347   4.993   9.457  0.2800 -0.0098  0.8336
  870MOL0     O14755   6.593   5.156   9.501 -0.2946 -0.1267 -1.1123
  870MOL0     C14756   6.863   5.142   9.489  0.2169  0.2358  0.1247
  870MOL0     C14757   7.001   5.136   9.508 -0.1801  0.0790 -0.3462
  870MOL0     N14758   7.732   4.908   9.370 -0.5491 -0.5019  0.2492
  870MOL0     N14759   7.747   4.903   9.245 -0.4261  0.5620  0.1917
  870MOL0     C14760   8.781   4.470   8.930 -0.4354  0.2238  0.4875
  870MOL0     C14761   8.885   4.373   8.941 -0.0335  0.1470  0.4490
  870MOL0     C14762   9.094   3.966   8.840  0.1795 -0.1399  0.0541
  870MOL0     C14763   9.216   4.022   8.804 -0.3907  0.0040 -0.5117
  870MOL0     C14764   9.320   3.941   8.767 -0.2426  0.0546 -0.2773
  870MOL0     C14765   9.310   3.806   8.759  0.5407  0.6910 -0.1570
  870MOL0     O14766   9.410   3.720   8.729  0.2219 -0.9632  0.1702
  870MOL0     C14767   9.538   3.771   8.702 -0.2151 -0.2059  0.3079
  870MOL0     C14768   9.639   3.663   8.691 -0.3886 -0.0431 -0.5682
  870MOL0     C14769   9.791   3.694   8.671  0.6709  0.1416  0.7289
  870MOL0     C14770   9.826   3.729   8.524 -0.1029  0.4267 -0.2795
  870MOL0     C14771   9.793   3.625   8.427 -1.2459  0.0641 -0.6168
  870MOL0     C14772   9.759   3.544   8.349  0.4903  0.0900  0.5247
  870MOL0     C14773   9.188   3.747   8.798 -0.2367  0.0397  0.8824
  870MOL0     C14774   9.084   3.825   8.837  0.4379  0.0405 -0.1609
  870MOL0     H14775   8.783   4.175   8.693 -0.3341  0.9536  0.0925
  870MOL0     H14776   8.566   4.318   8.717 -0.3024  0.1577 -0.3321
  870MOL0     H14777   8.390   4.435   8.792 -1.1982  0.6300 -3.8508
  870MOL0     H14778   8.443   4.586   8.718 -2.7978 -1.4043 -1.7948
  870MOL0     H14779   8.378   4.694   8.944 -1.2533  0.4679 -1.1660
  870MOL0     H14780   8.329   4.532   9.008 -2.2295 -0.2971  0.1071
  870MOL0     H14781   8.165   4.529   8.823  0.8763  0.3286 -0.3215
  870MOL0     H14782   8.226   4.693   8.766  2.7230  0.2918  0.5002
  870MOL0     H14783   8.118   4.637   9.044  2.5492  0.1533  0.6662
  870MOL0     H14784   8.157   4.800   8.979  1.3469 -1.6789  0.5679
  870MOL0     H14785   7.955   4.613   8.849 -1.7506  0.5220 -0.3446
  870MOL0     H14786   7.965   4.779   8.819  1.5342  0.3848 -0.3622
  870MOL0     H14787   7.897   4.834   9.052 -2.2823  0.0331  0.3275
  870MOL0     H14788   7.906   4.652   9.084  1.9652 -3.2972 -4.1871
  870MOL0     H14789   7.727   4.757   8.864 -2.4210  0.0710 -0.0366
  870MOL0     H14790   7.725   4.608   8.964 -0.1750  0.7987 -3.4509
  870MOL0     H14791   7.545   4.748   9.024  1.4965 -1.1185 -2.7654
  870MOL0     H14792   7.644   4.887   8.995 -0.4377 -0.1809  0.0344
  870MOL0     H14793   7.533   4.658   9.298  0.3680 -0.6738  1.3955
  870MOL0     H14794   7.640   4.863   9.626 -0.7388  0.9906 -0.7434
  870MOL0     H14795   7.595   4.696   9.587  3.6337 -0.5785 -1.0929
  870MOL0     H14796   7.401   4.793   9.670  1.0983 -1.7120 -0.9736
  870MOL0     H14797   7.375   4.814   9.495  1.3329 -0.9201 -0.2018
  870MOL0     H14798   7.464   5.025   9.696 -1.1363 -1.1383  0.0284
  870MOL0     H14799   7.446   5.052   9.521  3.0041  0.1691  0.1291
  870MOL0     H14800   7.255   5.116   9.668 -0.6353  0.9337 -2.7990
  870MOL0     H14801   7.219   4.946   9.701  0.8639  0.3661  0.7248
  870MOL0     H14802   7.034   4.802   9.550  0.4265 -0.2989 -3.9399
  870MOL0     H14803   6.804   4.805   9.548 -2.1085  1.1546 -0.7924
  870MOL0     H14804   6.465   4.811   9.707  0.1250 -0.2068  1.0928
  870MOL0     H14805   6.200   4.799   9.753  1.7125  1.2096  1.1582
  870MOL0     H14806   5.939   4.898   9.455 -2.6366  0.4920  0.1324
  870MOL0     H14807   5.891   5.057   9.538 -2.4649  0.1232  1.4691
  870MOL0     H14808   5.794   4.956   9.711  0.6559  1.1759 -0.9597
  870MOL0     H14809   5.830   4.791   9.653 -1.1900 -0.0950 -0.7723
  870MOL0     H14810   5.684   4.877   9.438 -0.2468 -0.9414 -1.3902
  870MOL0     H14811   5.649   5.008   9.549 -0.0634  0.6751 -4.2507
  870MOL0     H14812   5.585   4.715   9.602 -0.4712  0.6005 -0.9622
  870MOL0     H14813   5.571   4.847   9.725  4.1472  0.1928 -0.0994
  870MOL0     H14814   5.442   4.852   9.449  4.1501  0.0364 -0.5928
  870MOL0     H14815   5.398   4.949   9.602  3.2029 -0.3408  2.3066
  870MOL0     H14816   5.313   4.756   9.703 -0.5250  0.0753  0.2834
  870MOL0     H14817   5.365   4.641   9.587  1.9608  1.3307  1.2760
  870MOL0     H14818   5.189   4.749   9.425 -2.5410  1.5468 -0.7633
  870MOL0     H14819   5.116   4.691   9.575 -1.5659  2.6129  0.5558
  870MOL0     H14820   5.020   4.877   9.518 -0.6841  0.3555 -1.0732
  870MOL0     H14821   5.182   4.966   9.516  3.2754 -1.8665  0.4146
  870MOL0     H14822   6.149   5.061   9.424 -0.0801  1.7306  1.7955
  870MOL0     H14823   6.388   5.043   9.370 -1.3990 -1.5978 -0.9302
  870MOL0     H14824   6.812   5.233   9.460 -0.2791 -0.4526 -1.2595
  870MOL0     H14825   7.067   5.222   9.507  1.4046 -0.9795  2.7646
  870MOL0     H14826   8.776   4.563   8.986 -2.8976  0.3465  0.1678
  870MOL0     H14827   8.973   4.386   9.003 -1.6795  1.7300  2.5993
  870MOL0     H14828   9.237   4.126   8.828  0.1267 -0.5736  1.6968
  870MOL0     H14829   9.411   4.000   8.761 -0.4893  0.4300 -0.4319
  870MOL0     H14830   9.561   3.856   8.766  1.0825 -0.5294  0.2901
  870MOL0     H14831   9.535   3.825   8.607 -2.5369  1.1359  1.0565
  870MOL0     H14832   9.628   3.612   8.787 -0.3648  0.1601 -0.4570
  870MOL0     H14833   9.607   3.597   8.609 -1.8786  1.6094 -1.3789
  870MOL0     H14834   9.846   3.605   8.704 -0.8495 -0.9868  0.3523
  870MOL0     H14835   9.811   3.780   8.735  0.1777 -0.6018  1.9288
  870MOL0     H14836   9.761   3.813   8.500 -0.5430  0.2722  0.3430
  870MOL0     H14837   9.931   3.761   8.519 -0.2715  0.9601 -0.4782
  870MOL0     H14838   9.719   3.473   8.279  4.4677  0.5649 -2.5704
  870MOL0     H14839   9.177   3.639   8.806  2.7500 -0.7545 -2.7033
  870MOL0     H14840   8.990   3.780   8.867  0.0653  2.2135  2.2878
  871MOL0     O14841   6.470   4.609   5.956  0.0725 -0.0213 -0.4139
  871MOL0     C14842   6.546   4.646   6.050  0.1972 -0.6062  0.5195
  871MOL0     O14843   6.504   4.648   6.188  0.3450 -0.7026 -0.3029
  871MOL0     C14844   6.390   4.579   6.220  0.1094  0.4793  0.5773
  871MOL0     C14845   6.391   4.444   6.243  0.6612 -1.3321 -0.4890
  871MOL0     C14846   6.276   4.371   6.276 -0.4137 -0.0150 -0.2529
  871MOL0     C14847   6.159   4.438   6.305  0.2463 -1.5213  0.3087
  871MOL0     O14848   6.049   4.383   6.365 -0.0710 -0.7261  0.0865
  871MOL0     C14849   6.066   4.250   6.416 -0.6312  0.1237 -0.7053
  871MOL0     C14850   5.918   4.209   6.423 -0.5869 -0.3309 -0.1692
  871MOL0     C14851   5.865   4.179   6.288 -0.3283 -0.1663 -0.2446
  871MOL0     C14852   5.722   4.175   6.285  0.1912  0.0372 -0.8663
  871MOL0     C14853   5.642   4.119   6.167  0.4110  0.0662 -0.2968
  871MOL0     C14854   5.496   4.093   6.212  0.2966 -0.2838 -0.3378
  871MOL0     C14855   5.404   4.081   6.088 -0.4369 -0.2116  0.1552
  871MOL0     C14856   5.401   3.941   6.032  0.5751 -0.2507  0.0169
  871MOL0     N14857   5.304   3.939   5.920  0.7163  0.7215 -0.5905
  871MOL0     C14858   5.311   4.020   5.802  0.5277  0.3473  0.1819
  871MOL0     C14859   5.200   3.980   5.735  0.6162 -0.1762 -0.0150
  871MOL0     C14860   5.149   4.021   5.602  0.2974 -0.0507  0.6406
  871MOL0     C14861   5.144   3.901   5.505 -0.0265 -0.9247  0.1475
  871MOL0     C14862   5.087   3.958   5.371 -0.0986  0.3828 -0.1909
  871MOL0     C14863   5.061   3.839   5.277  0.1430 -0.6548  0.3824
  871MOL0     O14864   5.010   3.888   5.151  0.0065 -0.0170 -0.3770
  871MOL0     C14865   4.876   3.873   5.133  0.2625 -0.4839  0.0812
  871MOL0     C14866   4.827   3.766   5.068  0.4080  0.4657  0.7590
  871MOL0     C14867   4.687   3.748   5.059  0.2118 -0.4461  0.5144
  871MOL0     C14868   4.601   3.849   5.099 -0.4134  0.2365 -1.4700
  871MOL0     C14869   4.457   3.838   5.094 -0.0144 -0.0557  0.9621
  871MOL0     O14870   4.374   3.928   5.161  0.2009 -0.1265 -0.2141
  871MOL0     C14871   4.239   3.933   5.151  0.4154  0.8126  0.1809
  871MOL0     C14872   4.164   3.907   5.035 -0.5608 -0.8225 -0.4320
  871MOL0     C14873   4.022   3.917   5.023 -0.4339 -0.5507 -0.2357
  871MOL0     C14874   3.951   3.938   5.150 -0.1450  0.0720  0.5027
  871MOL0     O14875   3.814   3.911   5.152 -0.1546 -0.1830  0.3736
  871MOL0     C14876   3.745   3.825   5.242  0.2621 -0.0775  0.1596
  871MOL0     C14877   3.605   3.885   5.255 -0.6045  1.0416  0.1957
  871MOL0     C14878   3.611   3.983   5.375  0.3409  0.0089 -0.5728
  871MOL0     C14879   3.463   4.017   5.413  0.3723 -0.7141 -0.1760
  871MOL0     C14880   3.464   4.137   5.513 -0.4945  0.3553 -0.3151
  871MOL0     C14881   3.322   4.195   5.529  0.0911 -0.1714  0.1666
  871MOL0     C14882   3.231   4.121   5.617 -0.5293  0.1589  0.6078
  871MOL0     C14883   3.097   4.185   5.599  0.5887  0.7186 -1.0092
  871MOL0    Cl14884   3.036   4.150   5.438  0.0927 -0.0959 -0.1714
  871MOL0     C14885   4.025   3.959   5.273  0.0404  0.7923  0.2434
  871MOL0     C14886   4.167   3.951   5.269 -0.1526  0.5076  0.1340
  871MOL0     O14887   4.418   3.753   5.019  0.5079 -0.4440  0.6818
  871MOL0     C14888   4.654   3.963   5.161 -0.1276  0.2666 -0.3097
  871MOL0     C14889   4.791   3.972   5.185 -0.2000 -0.3430  0.0693
  871MOL0     N14890   5.124   3.898   5.816  0.1009  0.8768 -0.6031
  871MOL0     N14891   5.192   3.861   5.920 -0.6619 -0.2180  0.2747
  871MOL0     C14892   6.155   4.578   6.277  0.4729 -0.3516  0.7050
  871MOL0     C14893   6.262   4.647   6.219 -0.4820 -0.3172 -0.7345
  871MOL0     C14894   6.685   4.683   6.030  0.0788  0.7747  0.0145
  871MOL0     C14895   6.769   4.738   6.129 -0.3175 -0.8560 -0.1328
  871MOL0     C14896   6.897   4.768   6.103  0.4702  0.0772 -0.4392
  871MOL0     C14897   6.954   4.736   5.981 -0.2675 -0.4111  0.4684
  871MOL0     O14898   7.086   4.730   5.958 -0.1762  0.3949  0.3360
  871MOL0     C14899   7.160   4.668   6.060 -0.5047 -0.1762  0.8266
  871MOL0     C14900   7.307   4.648   6.005 -0.1238  1.5046 -0.2182
  871MOL0     C14901   7.386   4.779   5.990  0.7321 -0.1006  0.5214
  871MOL0     C14902   7.543   4.759   5.996 -0.0768  0.6110 -0.1066
  871MOL0     C14903   7.577   4.705   6.131  0.0715 -0.3435  0.5973
  871MOL0     C14904   7.609   4.660   6.237 -0.5483 -0.0283 -0.2761
  871MOL0     C14905   6.878   4.669   5.885 -0.0253 -0.1081 -0.1341
  871MOL0     C14906   6.745   4.649   5.910  0.9997  0.3605  0.1347
  871MOL0     H14907   6.486   4.393   6.231  0.8603 -1.0832  0.0283
  871MOL0     H14908   6.291   4.265   6.288 -2.9317 -0.2084  2.1183
  871MOL0     H14909   6.116   4.253   6.513 -1.7684 -0.1865 -0.0994
  871MOL0     H14910   6.112   4.179   6.346 -2.7178 -3.6909  1.4821
  871MOL0     H14911   5.855   4.284   6.471  1.8719  1.7757 -0.0099
  871MOL0     H14912   5.904   4.122   6.487 -0.8214  1.7601  2.8549
  871MOL0     H14913   5.908   4.081   6.267 -0.6109 -0.9607  2.4957
  871MOL0     H14914   5.899   4.252   6.214 -0.0090  0.1305  0.1939
  871MOL0     H14915   5.696   4.109   6.369 -0.3376  1.1229 -0.1609
  871MOL0     H14916   5.686   4.274   6.313  0.9298  0.0976 -0.0753
  871MOL0     H14917   5.688   4.025   6.136 -0.2092 -0.6721  0.9452
  871MOL0     H14918   5.648   4.193   6.087  0.6510 -0.0102 -0.3501
  871MOL0     H14919   5.458   4.178   6.269 -0.9995 -1.4653  0.6170
  871MOL0     H14920   5.487   4.009   6.282  1.0242 -0.3491 -0.3101
  871MOL0     H14921   5.302   4.103   6.122  0.2318  0.0467  2.0963
  871MOL0     H14922   5.427   4.154   6.009  0.1377 -1.3352 -0.7488
  871MOL0     H14923   5.375   3.863   6.103  0.0649 -2.9475 -2.8880
  871MOL0     H14924   5.496   3.916   5.984  0.7524 -1.6777  1.0664
  871MOL0     H14925   5.387   4.091   5.771  2.6791 -0.1530  3.7222
  871MOL0     H14926   5.210   4.105   5.567  0.3498  0.0663  1.0111
  871MOL0     H14927   5.048   4.060   5.616  0.0188 -0.6262  0.2972
  871MOL0     H14928   5.089   3.819   5.551 -2.1142 -0.0996 -0.7774
  871MOL0     H14929   5.248   3.872   5.488  0.6059  1.0541  0.3730
  871MOL0     H14930   4.994   4.011   5.394  0.2601  0.2494  1.7715
  871MOL0     H14931   5.162   4.028   5.334 -0.1943  0.8639  0.5014
  871MOL0     H14932   4.992   3.764   5.318 -0.5615  0.1179  0.6208
  871MOL0     H14933   5.153   3.785   5.255 -0.4263 -1.6550  0.3666
  871MOL0     H14934   4.900   3.691   5.039  1.7637  0.9286  2.7635
  871MOL0     H14935   4.643   3.654   5.026  0.9082 -0.0732 -1.6578
  871MOL0     H14936   4.223   3.906   4.944 -0.3604  0.8486 -0.3562
  871MOL0     H14937   3.972   3.885   4.932  1.8907 -2.0414 -1.0604
  871MOL0     H14938   3.792   3.835   5.340 -0.1858  2.8885  0.1767
  871MOL0     H14939   3.740   3.724   5.201  1.2631  0.8181 -2.4018
  871MOL0     H14940   3.536   3.807   5.289 -0.8146  1.2142  0.1657
  871MOL0     H14941   3.561   3.935   5.168 -0.3608  0.8887 -0.0172
  871MOL0     H14942   3.658   4.072   5.332 -1.5941  1.5328  0.3089
  871MOL0     H14943   3.658   3.957   5.470 -1.9223 -0.6884  0.4059
  871MOL0     H14944   3.394   4.041   5.332 -2.0961 -0.7749  1.7684
  871MOL0     H14945   3.423   3.930   5.466  0.0046 -0.7308 -0.4822
  871MOL0     H14946   3.529   4.220   5.483 -1.5611  2.1874  2.0999
  871MOL0     H14947   3.492   4.095   5.611  1.4931 -1.5685 -1.6091
  871MOL0     H14948   3.277   4.188   5.430 -0.4689 -0.1720  0.4161
  871MOL0     H14949   3.325   4.302   5.552 -0.0408  0.1546 -1.2940
  871MOL0     H14950   3.228   4.017   5.584 -0.7052  0.4043 -0.1625
  871MOL0     H14951   3.254   4.114   5.724  0.6954  1.5260  0.4603
  871MOL0     H14952   3.127   4.290   5.611 -0.5931  0.9920 -0.3448
  871MOL0     H14953   3.023   4.152   5.672  1.5365 -0.2164 -0.4539
  871MOL0     H14954   3.968   3.988   5.361 -0.1190  2.1139 -0.2721
  871MOL0     H14955   4.221   3.956   5.362 -0.2254  0.4007  0.1820
  871MOL0     H14956   4.583   4.033   5.204  1.2781  0.8699  1.1108
  871MOL0     H14957   4.840   4.048   5.245  2.4101 -1.6689 -0.2446
  871MOL0     H14958   6.058   4.626   6.288  0.1637 -0.8574  0.2218
  871MOL0     H14959   6.256   4.753   6.196 -3.3306 -0.3021 -0.3136
  871MOL0     H14960   6.730   4.773   6.224 -0.7767  1.5394 -1.1262
  871MOL0     H14961   6.961   4.807   6.182 -0.3847 -0.2399  0.4218
  871MOL0     H14962   7.111   4.572   6.081  0.0045 -0.9826 -1.3309
  871MOL0     H14963   7.168   4.736   6.145 -2.4958  4.0086 -1.9936
  871MOL0     H14964   7.346   4.584   6.085 -2.3681 -0.7540 -0.8153
  871MOL0     H14965   7.321   4.592   5.912 -3.0646 -0.2453  0.2511
  871MOL0     H14966   7.346   4.851   6.062  0.4235 -2.1267  2.4629
  871MOL0     H14967   7.371   4.812   5.886  0.8213 -0.9868  0.2193
  871MOL0     H14968   7.583   4.688   5.923 -1.4917  1.2890 -1.6027
  871MOL0     H14969   7.595   4.855   5.990  1.2057 -0.0093  0.5860
  871MOL0     H14970   7.640   4.632   6.335  1.8229  2.0762 -0.3327
  871MOL0     H14971   6.916   4.630   5.792 -0.8602 -1.8919  0.2362
  871MOL0     H14972   6.695   4.585   5.839  2.1092 -0.3096 -0.0666
  872MOL0     O14973   3.753   0.885   2.947  0.5002 -0.3979  0.5509
  872MOL0     C14974   3.691   0.816   2.866  0.5624 -0.0470 -0.2728
  872MOL0     O14975   3.586   0.733   2.895 -0.4980 -0.4516 -0.6117
  872MOL0     C14976   3.527   0.731   3.018  0.4281  0.2545 -0.0586
  872MOL0     C14977   3.388   0.702   3.021 -0.0285 -0.2345  0.6910
  872MOL0     C14978   3.313   0.707   3.142 -0.0972 -0.8294  0.1037
  872MOL0     C14979   3.380   0.721   3.266  0.5384 -0.5315 -0.5324
  872MOL0     O14980   3.305   0.701   3.385 -0.3902 -0.7173 -0.7840
  872MOL0     C14981   3.357   0.757   3.502  0.2514 -0.8568  0.4576
  872MOL0     C14982   3.352   0.659   3.620  1.0846 -0.0141  0.2148
  872MOL0     C14983   3.489   0.599   3.675  0.5400 -0.8051  1.0806
  872MOL0     C14984   3.465   0.499   3.792 -0.5818 -0.7816 -0.4686
  872MOL0     C14985   3.601   0.455   3.841 -0.7833  0.6506  1.2371
  872MOL0     C14986   3.586   0.371   3.967  0.8960  0.3403 -0.5731
  872MOL0     C14987   3.472   0.263   3.975  1.0072 -0.2489 -0.6231
  872MOL0     C14988   3.480   0.156   3.864 -0.2071  0.6016  0.7069
  872MOL0     N14989   3.380   0.045   3.879  0.1437  0.3515  0.1623
  872MOL0     C14990   3.329  -0.006   3.999  0.4433  0.5992 -0.7270
  872MOL0     C14991   3.236  -0.099   3.958 -0.3410 -0.3129 -0.2819
  872MOL0     C14992   3.133  -0.156   4.056  0.1727 -0.2570 -0.5302
  872MOL0     C14993   3.009  -0.082   4.097  0.6930 -0.0053  0.2988
  872MOL0     C14994   2.915  -0.053   3.965  0.0800  0.4727  0.1551
  872MOL0     C14995   2.807   0.050   4.004  0.6928  0.0905  0.0488
  872MOL0     O14996   2.701   0.045   3.912  0.1580  0.0560  0.5353
  872MOL0     C14997   2.593  -0.041   3.936 -0.1830  0.0869  0.3053
  872MOL0     C14998   2.602  -0.168   3.994 -0.2565  0.0886  0.5965
  872MOL0     C14999   2.495  -0.253   3.994  0.3710  1.3413 -1.0632
  872MOL0     C15000   2.367  -0.211   3.956 -0.1058 -0.4214 -0.8062
  872MOL0     C15001   2.248  -0.296   3.954  0.6109  0.3602  0.0766
  872MOL0     O15002   2.142  -0.257   3.873 -0.0021 -0.1494  0.2736
  872MOL0     C15003   2.027  -0.322   3.881 -0.2331  0.2649 -0.7720
  872MOL0     C15004   1.946  -0.318   3.999  0.2440  0.4270  0.1308
  872MOL0     C15005   1.830  -0.395   4.010 -0.2334 -0.4925  0.8747
  872MOL0     C15006   1.793  -0.480   3.902  0.1896  0.3943 -1.2770
  872MOL0     O15007   1.689  -0.578   3.897  0.8722 -0.7630  0.8414
  872MOL0     C15008   1.695  -0.676   3.998  0.3591  0.2694 -0.3606
  872MOL0     C15009   1.575  -0.776   3.996 -0.0283  0.5892  0.9317
  872MOL0     C15010   1.446  -0.705   4.032  0.3029 -0.0351 -0.0693
  872MOL0     C15011   1.437  -0.646   4.172  1.0185 -0.5084  0.0990
  872MOL0     C15012   1.292  -0.612   4.214  0.2471 -0.1397  0.7050
  872MOL0     C15013   1.279  -0.575   4.360  0.6677  0.4474  0.2100
  872MOL0     C15014   1.144  -0.541   4.423  0.8016 -0.6417 -0.6353
  872MOL0     C15015   1.123  -0.393   4.403  0.3465  0.4287  0.3945
  872MOL0    Cl15016   1.249  -0.289   4.495 -0.5210 -0.4919 -0.3491
  872MOL0     C15017   1.870  -0.482   3.783 -0.2216  0.5844 -0.9818
  872MOL0     C15018   1.981  -0.398   3.776 -0.4593 -0.0991  0.1378
  872MOL0     O15019   2.238  -0.397   4.033  0.0183 -0.9304 -0.3938
  872MOL0     C15020   2.368  -0.078   3.896  0.6178  0.3036 -0.0495
  872MOL0     C15021   2.473  -0.003   3.876  0.1623  0.1004  0.0850
  872MOL0     N15022   3.221  -0.095   3.822  0.7111  0.9171  1.4580
  872MOL0     N15023   3.309  -0.011   3.776 -0.3459  0.3500 -0.1144
  872MOL0     C15024   3.520   0.731   3.256 -0.2792  0.9927  0.1232
  872MOL0     C15025   3.595   0.737   3.141 -0.2219 -0.1370  0.3989
  872MOL0     C15026   3.708   0.836   2.721 -0.0828 -0.1639  0.0444
  872MOL0     C15027   3.653   0.747   2.626 -0.8153 -0.6797 -0.1155
  872MOL0     C15028   3.655   0.765   2.485  0.6367 -0.2992 -0.3509
  872MOL0     C15029   3.729   0.876   2.435 -0.5384 -0.0616 -0.3874
  872MOL0     O15030   3.757   0.887   2.302  0.5730 -0.4608 -0.1800
  872MOL0     C15031   3.769   0.768   2.227  0.1761  0.3087  0.5450
  872MOL0     C15032   3.795   0.820   2.080 -0.2421 -0.7831 -0.0203
  872MOL0     C15033   3.837   0.713   1.980 -0.0802 -0.1948 -0.1233
  872MOL0     C15034   3.975   0.655   2.018  0.1685  0.3932 -0.2077
  872MOL0     C15035   4.006   0.541   1.934 -0.8884 -0.6394 -0.2067
  872MOL0     C15036   4.044   0.444   1.874 -0.0679  0.3143  0.6773
  872MOL0     C15037   3.797   0.950   2.534 -0.7608 -0.1962  0.1183
  872MOL0     C15038   3.778   0.939   2.672  0.5303  0.2069 -0.2874
  872MOL0     H15039   3.331   0.690   2.930  0.4354  0.1645  0.3365
  872MOL0     H15040   3.205   0.697   3.147 -0.0801 -0.8373  4.3321
  872MOL0     H15041   3.289   0.841   3.516  0.5633 -0.0545 -2.2939
  872MOL0     H15042   3.452   0.808   3.485  0.0823 -0.5019  0.5659
  872MOL0     H15043   3.273   0.584   3.613  0.7124  0.3404  0.5249
  872MOL0     H15044   3.320   0.723   3.703  1.6214 -1.3814  1.5317
  872MOL0     H15045   3.553   0.678   3.716  1.9449 -1.9866  1.2324
  872MOL0     H15046   3.539   0.550   3.591  0.8183  2.1140 -0.6179
  872MOL0     H15047   3.411   0.544   3.876  2.2195 -0.6809  1.3961
  872MOL0     H15048   3.401   0.417   3.756 -2.2330  0.2238  0.0599
  872MOL0     H15049   3.657   0.545   3.865  0.2912  1.0520 -2.2997
  872MOL0     H15050   3.659   0.396   3.770 -1.9497  0.6545  0.2455
  872MOL0     H15051   3.591   0.436   4.055  0.4075 -1.0781  0.5366
  872MOL0     H15052   3.683   0.320   3.980  1.7654  1.8572 -0.9163
  872MOL0     H15053   3.475   0.216   4.073 -0.3703 -0.9597 -0.9016
  872MOL0     H15054   3.374   0.310   3.967  1.8252  1.6908  0.1979
  872MOL0     H15055   3.571   0.095   3.860 -0.5639  0.1325 -0.5474
  872MOL0     H15056   3.482   0.211   3.770 -1.4969 -2.0286 -0.9502
  872MOL0     H15057   3.337   0.004   4.107 -3.1798 -0.1879 -0.2361
  872MOL0     H15058   3.182  -0.163   4.153  1.6280 -0.0463 -1.2190
  872MOL0     H15059   3.101  -0.253   4.015  0.9097 -1.4528  1.6032
  872MOL0     H15060   3.035   0.014   4.143 -2.4835  0.1020  2.0967
  872MOL0     H15061   2.945  -0.139   4.165 -0.1459 -0.9343 -1.2328
  872MOL0     H15062   2.983  -0.017   3.887  0.0028 -0.5435 -0.4038
  872MOL0     H15063   2.869  -0.145   3.929 -2.6006  1.8575 -0.1695
  872MOL0     H15064   2.859   0.146   3.999  2.6624 -0.8779  0.9572
  872MOL0     H15065   2.771   0.025   4.104  1.7058 -1.4475  0.0567
  872MOL0     H15066   2.693  -0.210   4.035 -1.8762 -1.9619  2.2960
  872MOL0     H15067   2.514  -0.359   4.010  1.0448  1.1798 -2.7379
  872MOL0     H15068   1.956  -0.254   4.086 -1.6917 -0.6914  1.2489
  872MOL0     H15069   1.759  -0.398   4.092 -2.0149  1.7695 -0.4837
  872MOL0     H15070   1.704  -0.630   4.097  1.3027 -0.2704 -0.1860
  872MOL0     H15071   1.781  -0.742   3.985 -0.9939 -1.2844 -1.9670
  872MOL0     H15072   1.596  -0.850   4.075  3.3495  1.3927  0.9435
  872MOL0     H15073   1.572  -0.826   3.899  1.0081 -0.9014  1.6124
  872MOL0     H15074   1.367  -0.781   4.026 -0.5440  0.9110 -1.8983
  872MOL0     H15075   1.418  -0.631   3.956  0.3184  1.0245  0.9277
  872MOL0     H15076   1.483  -0.712   4.246 -0.9743 -0.8438  1.0878
  872MOL0     H15077   1.496  -0.554   4.169  0.6051 -0.1882 -3.6508
  872MOL0     H15078   1.232  -0.702   4.198  1.5894 -0.6674 -2.0105
  872MOL0     H15079   1.251  -0.533   4.151  0.4593  0.5037  1.3644
  872MOL0     H15080   1.345  -0.490   4.382 -1.3266  2.4929 -1.3537
  872MOL0     H15081   1.309  -0.677   4.387 -4.8330 -2.8491 -3.9044
  872MOL0     H15082   1.061  -0.602   4.386  0.6556 -1.0096  0.2630
  872MOL0     H15083   1.150  -0.563   4.530  1.0717  1.3608 -0.2058
  872MOL0     H15084   1.024  -0.355   4.431 -0.6012 -0.8093 -1.0827
  872MOL0     H15085   1.129  -0.372   4.296  0.0261  3.8470  0.9532
  872MOL0     H15086   1.851  -0.546   3.698 -0.6884  1.8653 -1.8783
  872MOL0     H15087   2.037  -0.400   3.683  1.9151  0.3904  1.4981
  872MOL0     H15088   2.277  -0.031   3.860  0.2302  1.1600  1.9159
  872MOL0     H15089   2.469   0.092   3.825  0.5795  0.6788  1.1150
  872MOL0     H15090   3.583   0.716   3.343 -1.3594 -0.4061  0.6928
  872MOL0     H15091   3.703   0.741   3.133 -0.0450 -3.9707 -1.6160
  872MOL0     H15092   3.598   0.662   2.666 -1.5525  0.4312  1.3261
  872MOL0     H15093   3.590   0.701   2.427  0.0681  0.8616 -1.0363
  872MOL0     H15094   3.691   0.691   2.229  0.5467 -0.1091 -0.5435
  872MOL0     H15095   3.857   0.719   2.269  1.2893  1.7313 -0.0198
  872MOL0     H15096   3.708   0.866   2.032 -0.2818 -0.6264  0.2013
  872MOL0     H15097   3.884   0.883   2.072 -1.9594  1.9044  0.6964
  872MOL0     H15098   3.849   0.763   1.884  3.2541  4.6402  2.3809
  872MOL0     H15099   3.758   0.640   1.965  2.0048 -1.9584 -3.9384
  872MOL0     H15100   4.044   0.737   1.995  1.7945 -1.1169 -0.8993
  872MOL0     H15101   3.979   0.623   2.123 -0.3222 -0.8026 -0.5500
  872MOL0     H15102   4.065   0.353   1.821 -0.7192  0.1348  0.7119
  872MOL0     H15103   3.862   1.024   2.488  1.6658 -3.5687 -2.4029
  872MOL0     H15104   3.838   0.994   2.745  1.4495 -3.0655  1.6120
  873MOL0     O15105   1.889   0.301   6.141 -0.0488  0.2744  0.0256
  873MOL0     C15106   1.891   0.229   6.039  0.3215 -0.2299 -0.8842
  873MOL0     O15107   1.793   0.152   5.983  0.3276 -0.1525 -0.0770
  873MOL0     C15108   1.665   0.147   6.034  0.7653  0.6325 -0.3662
  873MOL0     C15109   1.561   0.115   5.944 -0.0351  0.4220  0.1977
  873MOL0     C15110   1.429   0.097   5.982  0.1297 -0.8021  0.6487
  873MOL0     C15111   1.400   0.113   6.119  0.0193 -0.1408  0.0427
  873MOL0     O15112   1.265   0.112   6.140 -0.0418 -0.2400 -0.7464
  873MOL0     C15113   1.206   0.159   6.262 -0.1203 -0.5098  0.0005
  873MOL0     C15114   1.072   0.214   6.212  0.5395  0.6331  0.4926
  873MOL0     C15115   0.995   0.275   6.329 -0.4814 -0.2683 -0.3338
  873MOL0     C15116   0.881   0.372   6.278 -1.4762  0.1329 -0.5841
  873MOL0     C15117   0.765   0.381   6.384 -0.4080 -0.6322  0.3632
  873MOL0     C15118   0.654   0.478   6.361  1.0558  0.4222 -0.0352
  873MOL0     C15119   0.546   0.459   6.472 -0.0943  0.4607 -0.7749
  873MOL0     C15120   0.456   0.582   6.486  0.4393  0.3603  0.2780
  873MOL0     N15121   0.324   0.552   6.519 -0.5416 -0.1905  0.3425
  873MOL0     C15122   0.249   0.630   6.606  0.4402 -0.5950  0.1994
  873MOL0     C15123   0.117   0.574   6.586 -0.4164 -1.1809  0.2624
  873MOL0     C15124  -0.012   0.611   6.657 -0.8323 -0.1215 -0.3810
  873MOL0     C15125  -0.030   0.747   6.718 -0.0342  0.6321  0.4790
  873MOL0     C15126  -0.022   0.855   6.609  0.5065  0.1953 -0.1865
  873MOL0     C15127  -0.113   0.975   6.629  0.5836  0.1025  0.1626
  873MOL0     O15128  -0.256   0.936   6.622 -0.3896  0.2983  0.0911
  873MOL0     C15129  -0.350   1.030   6.633  0.1606 -0.3664 -0.3271
  873MOL0     C15130  -0.321   1.175   6.623 -0.4121  0.2433 -0.8802
  873MOL0     C15131  -0.420   1.267   6.650  0.1326 -0.4160 -0.6773
  873MOL0     C15132  -0.558   1.227   6.671  0.1708 -0.1239 -0.0548
  873MOL0     C15133  -0.665   1.336   6.699  0.1872  0.0082 -0.5555
  873MOL0     O15134  -0.788   1.295   6.751 -0.3089 -0.1785  1.2203
  873MOL0     C15135  -0.894   1.370   6.790 -0.9426 -0.0204 -0.6480
  873MOL0     C15136  -0.923   1.490   6.728 -0.5662 -0.1710 -0.3098
  873MOL0     C15137  -1.036   1.566   6.762  0.3561  0.8307 -0.0462
  873MOL0     C15138  -1.114   1.518   6.871 -0.2974 -1.6911  0.1414
  873MOL0     O15139  -1.222   1.601   6.902  0.0796  0.1756  0.3084
  873MOL0     C15140  -1.343   1.559   6.831 -0.0013 -1.2534  0.0179
  873MOL0     C15141  -1.439   1.670   6.849  0.1985 -0.4215 -0.1807
  873MOL0     C15142  -1.544   1.657   6.951 -0.9961  0.2379 -0.1407
  873MOL0     C15143  -1.489   1.596   7.085  0.5121 -0.1080  1.2132
  873MOL0     C15144  -1.592   1.564   7.195  0.0522  0.0148 -0.9095
  873MOL0     C15145  -1.521   1.504   7.321  0.9908 -0.1831 -0.0795
  873MOL0     C15146  -1.631   1.492   7.429  0.3872  0.9248  0.0622
  873MOL0     C15147  -1.584   1.386   7.523 -0.5649  0.1299  1.1957
  873MOL0    Cl15148  -1.661   1.434   7.677  0.1228  0.0820  0.0159
  873MOL0     C15149  -1.083   1.397   6.934 -0.0265 -0.2177  0.2067
  873MOL0     C15150  -0.971   1.324   6.891  0.1997 -0.0403 -0.0891
  873MOL0     O15151  -0.640   1.455   6.667 -0.1978  0.1152 -0.8935
  873MOL0     C15152  -0.587   1.091   6.675 -0.0473 -0.0868  0.4011
  873MOL0     C15153  -0.483   0.993   6.646  0.3042 -0.4424 -0.6148
  873MOL0     N15154   0.131   0.456   6.519  0.2216  0.2520 -0.8972
  873MOL0     N15155   0.250   0.445   6.482 -0.0328  0.1861  0.6104
  873MOL0     C15156   1.500   0.145   6.210  0.3188 -0.5354  0.3679
  873MOL0     C15157   1.634   0.163   6.172 -1.1120  0.3520 -0.4092
  873MOL0     C15158   2.028   0.227   5.976  0.1842  0.2751 -0.6043
  873MOL0     C15159   2.114   0.341   5.980 -0.6178 -0.1192 -0.8867
  873MOL0     C15160   2.240   0.337   5.915  0.3890 -0.5602 -0.7226
  873MOL0     C15161   2.284   0.227   5.843 -0.4267 -0.1903  0.7006
  873MOL0     O15162   2.406   0.223   5.783 -0.2547  1.0423  0.3049
  873MOL0     C15163   2.495   0.329   5.764 -0.2495 -0.2690 -0.7484
  873MOL0     C15164   2.626   0.287   5.694  0.2465  0.6849 -0.8246
  873MOL0     C15165   2.721   0.409   5.679 -0.1851  0.8487 -0.0554
  873MOL0     C15166   2.841   0.378   5.586  0.4900  0.1984 -0.4561
  873MOL0     C15167   2.945   0.312   5.670 -0.5910 -0.0898  1.0195
  873MOL0     C15168   3.041   0.276   5.746  0.3960 -0.4227 -0.0257
  873MOL0     C15169   2.197   0.120   5.837 -0.4711 -0.0284 -0.2741
  873MOL0     C15170   2.074   0.114   5.907  0.5393  0.1068  0.4290
  873MOL0     H15171   1.583   0.129   5.839  3.1771 -2.0027  0.3833
  873MOL0     H15172   1.346   0.087   5.913 -1.8934  0.1827  2.8167
  873MOL0     H15173   1.257   0.242   6.312  0.4928 -0.9315  0.1041
  873MOL0     H15174   1.193   0.082   6.339 -0.9319  1.3296  1.7738
  873MOL0     H15175   1.002   0.145   6.164 -0.4109  1.1243  1.1302
  873MOL0     H15176   1.093   0.300   6.148 -1.9806  2.2500  1.6617
  873MOL0     H15177   1.061   0.338   6.390 -1.9056  0.2700  0.7400
  873MOL0     H15178   0.946   0.202   6.394  1.0461 -0.7753  0.2769
  873MOL0     H15179   0.931   0.466   6.256  2.0434 -0.8956  2.0661
  873MOL0     H15180   0.840   0.328   6.186 -0.9772  0.7521 -1.1045
  873MOL0     H15181   0.805   0.404   6.483 -0.6131  4.4843 -0.4816
  873MOL0     H15182   0.721   0.281   6.391  2.4076 -1.9327  1.0835
  873MOL0     H15183   0.612   0.447   6.265 -2.8018  0.3485  1.5073
  873MOL0     H15184   0.688   0.582   6.352  0.1373  0.6303 -1.3080
  873MOL0     H15185   0.491   0.368   6.451  0.9502  0.1133 -2.1881
  873MOL0     H15186   0.600   0.446   6.567 -1.8134  3.4810  0.7864
  873MOL0     H15187   0.456   0.630   6.388  2.0574 -0.5824 -0.2299
  873MOL0     H15188   0.504   0.657   6.550 -0.3970  2.0344 -0.9831
  873MOL0     H15189   0.287   0.708   6.672 -0.2672 -0.3194  0.2947
  873MOL0     H15190  -0.018   0.552   6.750 -1.2249  1.4708  0.6351
  873MOL0     H15191  -0.094   0.582   6.591 -0.3455 -3.2270  0.1740
  873MOL0     H15192   0.050   0.772   6.788  0.6362  4.8324 -1.4548
  873MOL0     H15193  -0.123   0.758   6.773 -0.9245  3.7916 -1.4224
  873MOL0     H15194   0.081   0.889   6.622  0.4374 -0.7127  5.1669
  873MOL0     H15195  -0.025   0.818   6.506  1.4729  0.4870 -0.3267
  873MOL0     H15196  -0.090   1.039   6.544 -1.8055  0.2700 -0.4298
  873MOL0     H15197  -0.094   1.016   6.729  1.7823  3.1986 -1.1977
  873MOL0     H15198  -0.219   1.213   6.619 -0.4767  0.4903 -0.3412
  873MOL0     H15199  -0.391   1.371   6.645 -0.8637 -0.1535 -1.2486
  873MOL0     H15200  -0.870   1.525   6.640  0.4797 -0.2661  0.2580
  873MOL0     H15201  -1.044   1.658   6.705  2.4662 -0.0711 -1.9642
  873MOL0     H15202  -1.374   1.459   6.862 -2.2654 -0.3980  0.7918
  873MOL0     H15203  -1.318   1.573   6.726  3.0986 -0.5621  0.7549
  873MOL0     H15204  -1.493   1.681   6.754  2.6744  1.3505 -1.4939
  873MOL0     H15205  -1.385   1.764   6.868 -0.7134  0.1638 -0.4113
  873MOL0     H15206  -1.632   1.603   6.914 -4.3018  4.2247  1.1388
  873MOL0     H15207  -1.581   1.756   6.977 -2.2551 -0.7224  2.0283
  873MOL0     H15208  -1.429   1.507   7.061 -0.7924 -0.3506 -1.5418
  873MOL0     H15209  -1.423   1.672   7.126  1.3888 -0.0534 -0.2208
  873MOL0     H15210  -1.672   1.495   7.165 -1.7908  0.3265  2.7599
  873MOL0     H15211  -1.640   1.655   7.233  1.9109 -0.1263  2.0825
  873MOL0     H15212  -1.439   1.570   7.350  0.0783  2.3684 -2.7121
  873MOL0     H15213  -1.475   1.406   7.305 -0.7204 -1.0638  0.2007
  873MOL0     H15214  -1.648   1.580   7.491 -0.3404  0.2211  0.8965
  873MOL0     H15215  -1.724   1.452   7.388  0.3455  2.7696 -1.8067
  873MOL0     H15216  -1.479   1.391   7.553 -0.4946 -0.7973  1.1450
  873MOL0     H15217  -1.611   1.285   7.492  1.1475 -0.3066  1.0188
  873MOL0     H15218  -1.146   1.369   7.019 -1.6494  0.5913 -0.6758
  873MOL0     H15219  -0.952   1.229   6.939  0.4272  2.0897  4.5253
  873MOL0     H15220  -0.691   1.060   6.680 -1.2728  3.4050 -0.4242
  873MOL0     H15221  -0.498   0.886   6.638  0.8390 -0.3979 -4.6609
  873MOL0     H15222   1.469   0.160   6.313 -4.7655  0.6765 -1.0664
  873MOL0     H15223   1.711   0.183   6.245 -0.4132  0.2699 -1.1074
  873MOL0     H15224   2.074   0.435   6.018  0.1284 -0.4092  0.6918
  873MOL0     H15225   2.305   0.423   5.909  2.1599 -1.8489 -0.7894
  873MOL0     H15226   2.518   0.380   5.859 -0.5686  0.2663 -0.9515
  873MOL0     H15227   2.447   0.415   5.715  3.3145  2.6736  0.4387
  873MOL0     H15228   2.680   0.212   5.752  0.5832  0.7171 -1.0909
  873MOL0     H15229   2.615   0.238   5.596 -0.2845 -2.1178  0.5393
  873MOL0     H15230   2.766   0.448   5.770 -1.1819  0.2830  0.6980
  873MOL0     H15231   2.666   0.495   5.640  0.6720  1.4393  0.0005
  873MOL0     H15232   2.806   0.314   5.505 -1.1555 -1.1360  1.2476
  873MOL0     H15233   2.880   0.469   5.538  1.3318 -1.9865 -4.3683
  873MOL0     H15234   3.100   0.245   5.830  0.2727 -1.7157 -0.3868
  873MOL0     H15235   2.235   0.032   5.786  1.4392  0.0600  0.8917
  873MOL0     H15236   2.008   0.028   5.903 -1.3342  1.5053  0.1371
  874MOL0     O15237  10.125  10.729   3.966  0.1586  0.6413  0.1289
  874MOL0     C15238  10.198  10.704   3.870 -0.2543  0.1174 -0.4714
  874MOL0     O15239  10.155  10.629   3.764  0.3027  0.1292  0.3258
  874MOL0     C15240  10.024  10.588   3.741 -0.0234  0.2988  0.3239
  874MOL0     C15241   9.916  10.673   3.761 -0.7919  0.3455  0.7869
  874MOL0     C15242   9.782  10.632   3.750 -0.3364 -0.4484  0.4895
  874MOL0     C15243   9.760  10.493   3.732 -0.7216  0.9070  0.9465
  874MOL0     O15244   9.637  10.425   3.734  0.1366  0.0106 -0.3060
  874MOL0     C15245   9.518  10.505   3.728 -0.5961  0.1633  0.6660
  874MOL0     C15246   9.459  10.525   3.869  0.7371  0.4178  0.8005
  874MOL0     C15247   9.341  10.616   3.858  0.5584 -0.0175 -0.3458
  874MOL0     C15248   9.219  10.547   3.790  0.0927 -0.1363 -0.0596
  874MOL0     C15249   9.125  10.662   3.749 -1.3831  0.3359  0.4516
  874MOL0     C15250   9.003  10.608   3.678 -0.9835 -0.1197  1.1638
  874MOL0     C15251   8.905  10.728   3.676 -0.6440 -0.3485  0.1978
  874MOL0     C15252   8.793  10.685   3.582  0.1764 -0.0327  0.1094
  874MOL0     N15253   8.674  10.770   3.619 -0.3196  0.0334  0.4416
  874MOL0     C15254   8.599  10.762   3.727 -0.1741 -0.5011  0.2202
  874MOL0     C15255   8.520  10.874   3.723  0.7152  0.0405  0.3553
  874MOL0     C15256   8.409  10.912   3.826 -1.1644  0.0873  0.3926
  874MOL0     C15257   8.279  10.864   3.773  0.5574  0.9392  0.2324
  874MOL0     C15258   8.194  10.852   3.896  0.2554  1.5740 -0.4440
  874MOL0     C15259   8.052  10.787   3.880  0.0444  0.0833 -0.4881
  874MOL0     O15260   8.082  10.661   3.825  0.5719  0.1331  0.1317
  874MOL0     C15261   7.981  10.575   3.794  0.8322 -0.2907  0.1509
  874MOL0     C15262   7.850  10.616   3.809 -0.5778 -0.4170  0.1722
  874MOL0     C15263   7.751  10.519   3.771 -0.6565  0.2222 -0.8466
  874MOL0     C15264   7.786  10.390   3.733 -0.5154  0.2897 -0.1957
  874MOL0     C15265   7.676  10.298   3.681 -0.2183 -1.1842 -0.8768
  874MOL0     O15266   7.556  10.321   3.739  0.1819  0.1187 -0.1083
  874MOL0     C15267   7.444  10.271   3.681  0.1760 -0.6345 -0.1698
  874MOL0     C15268   7.352  10.252   3.784 -0.0521  0.1243  0.3529
  874MOL0     C15269   7.228  10.199   3.762  0.1828 -0.2184  0.0555
  874MOL0     C15270   7.190  10.158   3.632  0.4870 -0.2509  0.6023
  874MOL0     O15271   7.078  10.078   3.599  0.1290 -0.0867  0.3868
  874MOL0     C15272   6.966  10.085   3.689 -0.6860 -0.3680 -0.5331
  874MOL0     C15273   6.845  10.013   3.642 -0.2844  0.6399  0.3917
  874MOL0     C15274   6.798  10.057   3.496 -0.3944 -0.0347 -0.6388
  874MOL0     C15275   6.686   9.960   3.463 -1.1354 -1.2108  0.1872
  874MOL0     C15276   6.546  10.011   3.513 -0.3600  0.4539 -0.0687
  874MOL0     C15277   6.431   9.907   3.491 -0.0136 -0.1688 -0.9891
  874MOL0     C15278   6.376   9.910   3.348  0.0796  0.6996  0.5723
  874MOL0     C15279   6.259   9.817   3.343  0.2387  0.5922 -0.0293
  874MOL0    Cl15280   6.092   9.899   3.325  0.2145 -0.0344  0.0164
  874MOL0     C15281   7.278  10.182   3.528 -0.2110 -0.0823  0.5982
  874MOL0     C15282   7.401  10.243   3.549 -0.5625  0.1917 -0.8988
  874MOL0     O15283   7.703  10.210   3.597  0.5305  0.4003 -0.2056
  874MOL0     C15284   7.920  10.354   3.735 -1.5871  0.1400  0.4580
  874MOL0     C15285   8.019  10.445   3.757 -0.6265  0.5993  0.2343
  874MOL0     N15286   8.532  10.922   3.594 -0.5567  0.4362 -0.1242
  874MOL0     N15287   8.624  10.859   3.530  0.6697  0.0882 -0.2074
  874MOL0     C15288   9.865  10.406   3.715 -0.9018  1.3605 -0.2090
  874MOL0     C15289   9.998  10.454   3.723 -0.4706 -0.3192  0.0157
  874MOL0     C15290  10.339  10.753   3.863  0.4299 -0.0940  0.5941
  874MOL0     C15291  10.371  10.864   3.944 -0.6196 -0.2348 -0.4525
  874MOL0     C15292  10.498  10.926   3.928 -0.0471 -0.2433  0.2852
  874MOL0     C15293  10.594  10.873   3.852 -0.0712 -0.1725 -0.4688
  874MOL0     O15294  10.717  10.938   3.849  0.0043 -0.0123  0.2672
  874MOL0     C15295  10.834  10.851   3.821  0.7507  0.0635 -0.9855
  874MOL0     C15296  10.963  10.937   3.823  0.6304  0.6956  0.2088
  874MOL0     C15297  11.092  10.848   3.808 -0.0640  0.2443  0.0694
  874MOL0     C15298  11.223  10.928   3.838 -0.1325  0.9244 -0.7099
  874MOL0     C15299  11.250  11.005   3.725 -1.0323  0.1037  0.3205
  874MOL0     C15300  11.261  11.078   3.632 -0.0328 -1.4053 -0.2045
  874MOL0     C15301  10.566  10.767   3.765 -0.0968  0.4973 -0.4315
  874MOL0     C15302  10.433  10.716   3.773 -0.1351  0.0336 -0.7760
  874MOL0     H15303   9.932  10.778   3.786  0.6286 -0.1107  1.8994
  874MOL0     H15304   9.705  10.709   3.749  0.7573  0.6685 -0.1802
  874MOL0     H15305   9.454  10.436   3.671  2.2402 -0.6598 -1.7609
  874MOL0     H15306   9.528  10.595   3.667 -3.1069  2.6242  3.5653
  874MOL0     H15307   9.540  10.563   3.932  1.0894 -0.6284  0.9927
  874MOL0     H15308   9.421  10.435   3.917  2.4024 -0.7008  0.0975
  874MOL0     H15309   9.360  10.710   3.805 -0.8320 -0.3029 -1.3943
  874MOL0     H15310   9.306  10.646   3.957 -1.5627  1.6557 -1.5208
  874MOL0     H15311   9.249  10.502   3.696 -2.7860 -0.8433 -0.7574
  874MOL0     H15312   9.159  10.471   3.842  0.5762 -1.2795 -1.1364
  874MOL0     H15313   9.183  10.726   3.683  2.7706 -0.2670  3.1735
  874MOL0     H15314   9.098  10.718   3.839 -1.6365 -0.6209  0.9900
  874MOL0     H15315   8.957  10.521   3.725 -1.5182 -1.5849 -1.8569
  874MOL0     H15316   9.037  10.577   3.579 -1.5063  0.4713  0.7921
  874MOL0     H15317   8.857  10.743   3.773 -3.1046 -0.8329 -0.8714
  874MOL0     H15318   8.958  10.817   3.640  2.5253 -1.5927  1.3496
  874MOL0     H15319   8.758  10.582   3.592 -2.2550  0.5892 -1.0990
  874MOL0     H15320   8.835  10.705   3.483 -0.4990  2.6348  0.2982
  874MOL0     H15321   8.604  10.688   3.806 -1.4588 -1.0434 -0.1833
  874MOL0     H15322   8.407  11.021   3.826 -1.9706  0.0760 -0.3101
  874MOL0     H15323   8.439  10.872   3.924  1.7592  0.7243 -0.1332
  874MOL0     H15324   8.292  10.762   3.737 -1.2902 -0.1111  2.2976
  874MOL0     H15325   8.232  10.932   3.701 -2.0026 -0.0303  0.8662
  874MOL0     H15326   8.246  10.788   3.967 -2.0023  0.6988  0.5427
  874MOL0     H15327   8.181  10.953   3.937 -1.1862  1.7997 -1.3613
  874MOL0     H15328   8.000  10.848   3.805 -0.7412  3.2368  2.4046
  874MOL0     H15329   7.998  10.769   3.973 -1.9809  1.4366 -1.3279
  874MOL0     H15330   7.824  10.715   3.847  1.6262  0.1660  0.2634
  874MOL0     H15331   7.647  10.549   3.782 -0.7575 -0.9370  2.6084
  874MOL0     H15332   7.377  10.303   3.877 -0.6450  2.1644 -0.5573
  874MOL0     H15333   7.166  10.193   3.851  2.3710  2.3467  1.9243
  874MOL0     H15334   6.953  10.192   3.711 -0.3752 -0.1001 -1.5872
  874MOL0     H15335   7.000  10.052   3.788 -2.5604 -0.1080  0.2370
  874MOL0     H15336   6.767  10.033   3.716  0.4776  1.7252  0.9348
  874MOL0     H15337   6.876   9.909   3.656  0.2283  0.7861  0.3895
  874MOL0     H15338   6.883  10.045   3.428  1.5883 -0.1444  1.7177
  874MOL0     H15339   6.773  10.163   3.502 -0.6761 -0.1716  1.1264
  874MOL0     H15340   6.681   9.950   3.354 -4.3695 -0.6047  0.1816
  874MOL0     H15341   6.691   9.866   3.519 -2.6032 -0.7341  1.1944
  874MOL0     H15342   6.514  10.098   3.454  2.2727  1.6524  0.1358
  874MOL0     H15343   6.559  10.043   3.617 -1.1359  2.1218 -0.4385
  874MOL0     H15344   6.351   9.929   3.563  0.2672 -4.5480  0.9489
  874MOL0     H15345   6.472   9.810   3.518  0.8752  1.3225  4.0924
  874MOL0     H15346   6.351  10.014   3.326  0.9495  0.8495  0.2341
  874MOL0     H15347   6.450   9.863   3.282 -2.8332 -3.1337 -0.3030
  874MOL0     H15348   6.253   9.752   3.430 -1.1544 -2.2766 -2.1293
  874MOL0     H15349   6.249   9.754   3.255 -1.4668 -1.5831  1.6183
  874MOL0     H15350   7.254  10.129   3.437 -1.1750 -1.0154  1.3693
  874MOL0     H15351   7.478  10.237   3.473  0.6561 -0.0233  0.3246
  874MOL0     H15352   7.951  10.250   3.724  1.5364  1.0964 -0.9127
  874MOL0     H15353   8.124  10.417   3.753 -0.4455  1.3417 -2.0624
  874MOL0     H15354   9.846  10.299   3.708  2.2856  0.5997  0.8393
  874MOL0     H15355  10.082  10.386   3.711  0.7908  0.9722  1.2017
  874MOL0     H15356  10.297  10.896   4.016 -2.4211 -1.1427 -1.8147
  874MOL0     H15357  10.515  11.006   4.000 -0.1898  0.2092 -0.1767
  874MOL0     H15358  10.826  10.797   3.726  0.8177 -2.0954  0.1803
  874MOL0     H15359  10.828  10.773   3.897 -1.5865  1.6015  0.5396
  874MOL0     H15360  10.965  11.014   3.745  1.7964  0.5552  0.0884
  874MOL0     H15361  10.960  10.979   3.925 -0.2933 -0.1484  0.5461
  874MOL0     H15362  11.095  10.805   3.708 -0.7982  0.9979 -0.2930
  874MOL0     H15363  11.083  10.773   3.887 -1.9731  0.5600  0.2040
  874MOL0     H15364  11.210  10.988   3.928  0.1555 -2.7095  1.9844
  874MOL0     H15365  11.302  10.853   3.851  0.1785  1.2894 -0.4625
  874MOL0     H15366  11.278  11.145   3.550 -1.4187 -0.2911  0.3820
  874MOL0     H15367  10.638  10.717   3.701  0.1225 -4.9661  3.3527
  874MOL0     H15368  10.420  10.629   3.710  3.8731 -0.5974 -0.9782
  875MOL0     O15369   1.391   1.581   3.979 -0.0696 -0.1076  0.1564
  875MOL0     C15370   1.361   1.465   3.947 -0.9453  1.3548  0.2849
  875MOL0     O15371   1.265   1.392   4.011  0.2353  0.6692  0.2482
  875MOL0     C15372   1.182   1.448   4.103 -0.2777 -0.5191 -0.0952
  875MOL0     C15373   1.137   1.352   4.193 -0.0593  1.1515 -0.3801
  875MOL0     C15374   1.049   1.385   4.301  0.3308  0.3957 -0.7000
  875MOL0     C15375   1.017   1.524   4.313  1.2643 -0.2956 -0.7685
  875MOL0     O15376   0.918   1.553   4.413 -0.9136  0.5098  0.1253
  875MOL0     C15377   0.854   1.684   4.400 -0.1151 -0.0976  0.2760
  875MOL0     C15378   0.722   1.714   4.478 -0.2452  0.5737  0.4923
  875MOL0     C15379   0.617   1.600   4.447 -0.1854 -0.4956  0.5323
  875MOL0     C15380   0.491   1.625   4.532 -0.6674 -0.4872 -0.5725
  875MOL0     C15381   0.378   1.515   4.520  0.0458 -0.2110 -0.1033
  875MOL0     C15382   0.269   1.542   4.620 -0.5507  0.1987 -0.0868
  875MOL0     C15383   0.132   1.478   4.569 -0.2680  0.3511  0.0270
  875MOL0     C15384   0.030   1.543   4.665  0.3262  0.0623 -0.6707
  875MOL0     N15385  -0.106   1.493   4.637  0.0156 -0.3772 -0.0764
  875MOL0     C15386  -0.131   1.362   4.597  0.7079  0.0068 -0.7758
  875MOL0     C15387  -0.267   1.365   4.567  0.3746 -0.6424  0.1026
  875MOL0     C15388  -0.363   1.256   4.522  0.2191 -0.2886 -0.2384
  875MOL0     C15389  -0.463   1.211   4.642 -0.4483  0.2944  1.0372
  875MOL0     C15390  -0.554   1.098   4.582  0.3956  0.2892  0.4726
  875MOL0     C15391  -0.653   1.031   4.683  0.2675 -0.2084  0.0368
  875MOL0     O15392  -0.711   1.132   4.772  0.7866  0.2464  0.0202
  875MOL0     C15393  -0.849   1.130   4.788  0.0141  0.0529  0.3816
  875MOL0     C15394  -0.936   1.187   4.697 -0.7473 -0.8632 -0.7199
  875MOL0     C15395  -1.069   1.216   4.718  0.1932 -0.2935 -0.2369
  875MOL0     C15396  -1.135   1.187   4.835  0.5505  0.3348  0.3713
  875MOL0     C15397  -1.273   1.214   4.875  0.1422  0.3915  1.0981
  875MOL0     O15398  -1.325   1.140   4.978  0.1346  0.0131  0.1258
  875MOL0     C15399  -1.457   1.117   4.992  0.2864 -0.2589  1.0278
  875MOL0     C15400  -1.541   1.075   4.884  0.2508  0.0017 -0.3304
  875MOL0     C15401  -1.673   1.025   4.914 -0.0568  0.2614  0.3231
  875MOL0     C15402  -1.719   1.022   5.048 -0.1498 -0.1515  0.6521
  875MOL0     O15403  -1.845   0.975   5.074 -0.0465  0.3334 -0.5452
  875MOL0     C15404  -1.950   1.074   5.057 -0.0220 -0.5492  0.3260
  875MOL0     C15405  -2.005   1.088   4.910  0.3732 -0.5446  0.0050
  875MOL0     C15406  -2.153   1.142   4.918  0.8979 -0.0940 -0.1254
  875MOL0     C15407  -2.205   1.209   4.793  0.3328  0.0894  0.1959
  875MOL0     C15408  -2.354   1.238   4.798  0.4370 -0.1261  0.1815
  875MOL0     C15409  -2.414   1.242   4.656  0.3077  0.2311 -0.7730
  875MOL0     C15410  -2.554   1.309   4.655 -0.3187  0.2183  0.0738
  875MOL0     C15411  -2.595   1.338   4.510  0.0916 -0.7304 -0.5984
  875MOL0    Cl15412  -2.760   1.402   4.530 -0.0235 -0.1543  0.0975
  875MOL0     C15413  -1.630   1.073   5.149 -0.4849  0.8443  0.3591
  875MOL0     C15414  -1.502   1.113   5.124  0.3308 -0.0536 -0.4871
  875MOL0     O15415  -1.334   1.288   4.800 -0.1417  0.1656  0.1903
  875MOL0     C15416  -1.047   1.132   4.931 -0.1329 -0.1900  0.4633
  875MOL0     C15417  -0.907   1.098   4.912  0.4975  0.1262  0.9148
  875MOL0     N15418  -0.319   1.490   4.589  1.0689 -0.6038 -0.5689
  875MOL0     N15419  -0.221   1.568   4.629 -0.2369  0.1421 -0.4129
  875MOL0     C15420   1.078   1.622   4.233 -0.0840  0.2444 -0.2092
  875MOL0     C15421   1.155   1.586   4.122 -1.2607  0.6759 -0.4165
  875MOL0     C15422   1.451   1.396   3.854 -0.0819 -0.0894  0.4383
  875MOL0     C15423   1.580   1.459   3.824  0.7313 -0.3063  0.4591
  875MOL0     C15424   1.647   1.407   3.709  0.0710  0.1307 -0.6962
  875MOL0     C15425   1.593   1.309   3.629  0.5005 -0.0213 -0.6730
  875MOL0     O15426   1.663   1.277   3.509  0.5540 -0.0658  0.0217
  875MOL0     C15427   1.576   1.289   3.389 -0.6984 -0.9598 -1.3195
  875MOL0     C15428   1.658   1.265   3.260  0.2564 -0.0496  0.3853
  875MOL0     C15429   1.813   1.303   3.250  0.9408  0.3936  0.4817
  875MOL0     C15430   1.831   1.454   3.223 -0.2499 -0.5218 -0.0050
  875MOL0     C15431   1.757   1.535   3.331 -0.2886  0.1886  0.7896
  875MOL0     C15432   1.697   1.611   3.412 -0.3130 -0.1572  0.2709
  875MOL0     C15433   1.476   1.242   3.666  0.9679 -0.0265 -0.3701
  875MOL0     C15434   1.402   1.290   3.780  0.0364  0.5985 -0.8071
  875MOL0     H15435   1.158   1.246   4.179  2.7908  1.2355  2.1432
  875MOL0     H15436   1.009   1.311   4.369 -1.0719  1.9516  0.2353
  875MOL0     H15437   0.827   1.693   4.294  0.2675  0.5581  0.2261
  875MOL0     H15438   0.933   1.754   4.431  2.6506 -1.9066 -2.1390
  875MOL0     H15439   0.683   1.804   4.430  2.0047 -0.2900 -3.3474
  875MOL0     H15440   0.738   1.720   4.586  2.3828 -3.2594  0.5203
  875MOL0     H15441   0.663   1.505   4.476 -0.0082 -0.1109  1.5314
  875MOL0     H15442   0.583   1.597   4.343  1.0832 -0.7892  0.0985
  875MOL0     H15443   0.526   1.611   4.635 -1.3929 -1.0367 -0.3995
  875MOL0     H15444   0.455   1.727   4.516  1.8353  0.1815 -2.6395
  875MOL0     H15445   0.417   1.412   4.518  2.4685  0.6312 -2.3133
  875MOL0     H15446   0.337   1.533   4.420  1.3591 -1.1166 -0.8374
  875MOL0     H15447   0.270   1.650   4.638  2.3537  0.8467 -3.1429
  875MOL0     H15448   0.311   1.504   4.713  2.0388 -0.4075 -1.4259
  875MOL0     H15449   0.115   1.501   4.463  0.2631  1.3354  0.1401
  875MOL0     H15450   0.134   1.370   4.585  1.1240  0.5605  1.5363
  875MOL0     H15451   0.027   1.652   4.657  1.4268  0.1212 -0.5207
  875MOL0     H15452   0.045   1.516   4.771  0.3522 -1.6096 -1.0702
  875MOL0     H15453  -0.062   1.279   4.584  3.1015  2.0045 -1.5232
  875MOL0     H15454  -0.316   1.173   4.468 -1.5540 -1.5195  0.0211
  875MOL0     H15455  -0.423   1.311   4.449  0.1917  1.4449  1.0368
  875MOL0     H15456  -0.527   1.292   4.677 -2.6921  0.1917 -2.4031
  875MOL0     H15457  -0.408   1.178   4.731  0.1529  3.8395  2.1284
  875MOL0     H15458  -0.601   1.134   4.490  2.6395  0.9876 -0.4720
  875MOL0     H15459  -0.488   1.020   4.545 -0.3133  0.2445 -0.7372
  875MOL0     H15460  -0.590   0.968   4.746 -0.2906  0.9601  1.8551
  875MOL0     H15461  -0.730   0.970   4.637  1.2600 -0.2403 -1.6667
  875MOL0     H15462  -0.910   1.196   4.592 -1.6063  1.3106 -0.7849
  875MOL0     H15463  -1.129   1.276   4.649  0.4943  1.4227  0.9299
  875MOL0     H15464  -1.508   1.065   4.781  0.5192 -1.3520 -0.1289
  875MOL0     H15465  -1.743   1.010   4.832  1.1857  4.0229 -1.6452
  875MOL0     H15466  -1.924   1.171   5.101 -1.8086  1.8566 -3.4436
  875MOL0     H15467  -2.033   1.043   5.121  1.8392 -2.0809  2.1896
  875MOL0     H15468  -2.004   0.990   4.862 -2.6575 -2.0156  2.5632
  875MOL0     H15469  -1.940   1.156   4.855  0.9063 -2.3056 -1.6608
  875MOL0     H15470  -2.170   1.213   4.999 -0.2227 -2.9551  2.3513
  875MOL0     H15471  -2.221   1.061   4.947  0.1460  1.2933  2.2843
  875MOL0     H15472  -2.153   1.303   4.772 -0.6449  0.6384  0.1589
  875MOL0     H15473  -2.191   1.134   4.714  1.3993  1.3621 -0.8916
  875MOL0     H15474  -2.370   1.327   4.860 -0.5501 -1.5564  2.0934
  875MOL0     H15475  -2.409   1.163   4.855 -1.0422  2.1900  1.9973
  875MOL0     H15476  -2.415   1.142   4.613 -2.2664  0.7913 -2.1903
  875MOL0     H15477  -2.349   1.300   4.590 -0.5409  1.5405 -0.4949
  875MOL0     H15478  -2.624   1.254   4.719 -1.6146  2.5873  0.8414
  875MOL0     H15479  -2.549   1.404   4.709 -2.7901  1.8652 -2.3061
  875MOL0     H15480  -2.595   1.244   4.455 -0.2885 -1.8218  1.2083
  875MOL0     H15481  -2.539   1.418   4.461 -0.8979  1.3301  1.3896
  875MOL0     H15482  -1.652   1.049   5.253  0.9467  0.7606  0.6611
  875MOL0     H15483  -1.440   1.143   5.208 -3.4469 -0.9776  2.9382
  875MOL0     H15484  -1.083   1.111   5.031 -2.1132  3.2908  0.6189
  875MOL0     H15485  -0.856   1.069   5.003  2.0289  1.3089  0.4760
  875MOL0     H15486   1.070   1.728   4.254 -2.6086  0.2221 -0.7569
  875MOL0     H15487   1.185   1.666   4.056 -2.3978  3.1869  1.9190
  875MOL0     H15488   1.612   1.549   3.874 -2.3808  1.3386 -0.2090
  875MOL0     H15489   1.742   1.448   3.677  1.6388 -0.7114  2.3925
  875MOL0     H15490   1.547   1.394   3.382 -0.4622 -0.8872 -1.2414
  875MOL0     H15491   1.487   1.227   3.391 -0.2441 -1.6138 -0.2044
  875MOL0     H15492   1.653   1.159   3.235  1.1189 -0.1172  0.4782
  875MOL0     H15493   1.604   1.320   3.182 -1.6675  0.8512  2.2229
  875MOL0     H15494   1.843   1.250   3.160  0.3411  0.2062  0.3861
  875MOL0     H15495   1.868   1.257   3.333 -0.2312 -2.7600 -0.3548
  875MOL0     H15496   1.938   1.473   3.215 -0.0923 -2.1532 -5.4992
  875MOL0     H15497   1.792   1.479   3.124  1.2264 -1.3987 -0.8565
  875MOL0     H15498   1.665   1.694   3.472  3.4907  0.7801  1.2489
  875MOL0     H15499   1.422   1.170   3.606 -2.2668 -0.0656  2.2598
  875MOL0     H15500   1.307   1.246   3.807  0.0749  0.4719 -0.8779
  876MOL0     O15501   4.601   8.903   1.689 -0.3742 -0.5060 -0.0592
  876MOL0     C15502   4.601   8.997   1.610  1.4388 -0.6490 -0.4180
  876MOL0     O15503   4.705   9.044   1.537 -0.4365  0.1734  0.6993
  876MOL0     C15504   4.808   8.967   1.497 -0.0803  0.3915 -0.3217
  876MOL0     C15505   4.807   8.823   1.477  0.2280 -0.3811 -0.2736
  876MOL0     C15506   4.919   8.759   1.446 -0.2603 -0.0310  0.5232
  876MOL0     C15507   5.044   8.826   1.422  0.1303  0.6176 -0.2633
  876MOL0     O15508   5.159   8.759   1.381 -0.8369  0.8187  0.1128
  876MOL0     C15509   5.293   8.819   1.407 -0.2712  0.2349 -0.5782
  876MOL0     C15510   5.399   8.706   1.405 -0.3674 -0.1608 -0.1777
  876MOL0     C15511   5.539   8.760   1.444  0.1471 -0.1566 -0.3842
  876MOL0     C15512   5.648   8.651   1.413  0.6361  0.3784  0.6090
  876MOL0     C15513   5.795   8.698   1.431 -1.9023 -0.4182 -0.3622
  876MOL0     C15514   5.886   8.592   1.371 -0.3880  0.2229 -0.4199
  876MOL0     C15515   6.030   8.600   1.421 -0.6748 -0.1159 -0.3106
  876MOL0     C15516   6.123   8.690   1.323  0.4732 -0.2780 -0.0595
  876MOL0     N15517   6.127   8.644   1.185 -0.3252 -0.1896  0.0276
  876MOL0     C15518   6.073   8.709   1.081  0.2791  0.0187  0.3555
  876MOL0     C15519   6.104   8.644   0.971  0.2561  0.5105  0.4676
  876MOL0     C15520   6.084   8.688   0.833 -0.1767 -0.1499 -0.0045
  876MOL0     C15521   5.947   8.663   0.784  0.8835 -0.1788 -0.4785
  876MOL0     C15522   5.917   8.535   0.713 -0.0915  0.1433  0.5920
  876MOL0     C15523   5.925   8.414   0.806 -0.6971 -0.2124 -0.4058
  876MOL0     O15524   5.863   8.415   0.937  0.0947 -0.0452  0.1054
  876MOL0     C15525   5.730   8.422   0.953  1.2641  0.5422  0.6777
  876MOL0     C15526   5.675   8.418   1.085 -0.0507 -0.4916 -1.2043
  876MOL0     C15527   5.540   8.424   1.118 -0.9491  0.0128  0.3806
  876MOL0     C15528   5.457   8.434   1.012  0.9730  1.0450 -0.9575
  876MOL0     C15529   5.314   8.448   1.049  1.0997 -0.2969 -0.2888
  876MOL0     O15530   5.242   8.465   0.943 -0.1007  0.0437  0.6758
  876MOL0     C15531   5.108   8.502   0.953  0.0923 -0.2987  0.4301
  876MOL0     C15532   5.045   8.563   1.060  0.0045  0.1574 -0.7874
  876MOL0     C15533   4.910   8.603   1.058  0.3963 -0.0710 -1.0775
  876MOL0     C15534   4.842   8.578   0.939  0.1582 -0.6606  0.9719
  876MOL0     O15535   4.717   8.618   0.918  0.1017 -0.3355 -0.2505
  876MOL0     C15536   4.627   8.577   1.020  0.1553  0.3283  0.5739
  876MOL0     C15537   4.618   8.423   1.011 -0.0686 -0.7721  0.1486
  876MOL0     C15538   4.675   8.333   1.118  0.7296  0.3654 -0.7550
  876MOL0     C15539   4.613   8.369   1.258 -0.6288  1.0505  0.7412
  876MOL0     C15540   4.665   8.274   1.365  0.6942  0.2366  0.1264
  876MOL0     C15541   4.620   8.320   1.504  0.0547 -0.1970  0.7057
  876MOL0     C15542   4.664   8.225   1.617  0.6548  0.4364 -0.3543
  876MOL0     C15543   4.591   8.253   1.746  0.0781 -0.2412  0.0015
  876MOL0    Cl15544   4.691   8.161   1.872 -0.4549  0.3685 -0.2583
  876MOL0     C15545   4.899   8.512   0.830  0.1425  0.1752  0.5375
  876MOL0     C15546   5.032   8.473   0.835 -0.0243 -0.0718 -0.3110
  876MOL0     O15547   5.274   8.426   1.165  1.0355 -0.2414 -0.4028
  876MOL0     C15548   5.503   8.427   0.879  0.4780  0.4137 -0.1507
  876MOL0     C15549   5.635   8.412   0.850  0.4257 -0.6667 -0.2793
  876MOL0     N15550   6.171   8.528   1.018  0.6366 -0.5619 -0.5934
  876MOL0     N15551   6.175   8.527   1.150  0.4513  0.2707 -0.3972
  876MOL0     C15552   5.046   8.967   1.430  0.3271  0.9817 -0.2668
  876MOL0     C15553   4.929   9.036   1.473  0.3888 -0.3103  0.2458
  876MOL0     C15554   4.467   9.059   1.586  0.1281  0.2094 -0.2094
  876MOL0     C15555   4.447   9.140   1.475 -0.8523  0.4458  0.2787
  876MOL0     C15556   4.318   9.193   1.457  0.1003  0.0635 -0.9710
  876MOL0     C15557   4.211   9.179   1.545 -0.6197  0.6786  0.5013
  876MOL0     O15558   4.080   9.229   1.533 -0.1587 -0.4480  0.2585
  876MOL0     C15559   4.048   9.339   1.456  0.5686 -0.4061  0.1868
  876MOL0     C15560   3.970   9.302   1.323 -0.6921 -0.1296 -0.8728
  876MOL0     C15561   3.868   9.416   1.299 -0.3582  1.2557  0.5887
  876MOL0     C15562   3.790   9.384   1.159  1.0333 -0.5336 -0.1473
  876MOL0     C15563   3.690   9.471   1.116  0.1133  1.3214  1.0140
  876MOL0     C15564   3.593   9.550   1.090 -0.4962 -0.3117  0.0289
  876MOL0     C15565   4.231   9.084   1.653  0.5118  0.0247 -0.4032
  876MOL0     C15566   4.361   9.021   1.669 -0.1049 -0.5800 -0.2620
  876MOL0     H15567   4.725   8.761   1.513  1.6934 -1.0305  2.1441
  876MOL0     H15568   4.917   8.651   1.441 -2.4220 -0.3733  4.4331
  876MOL0     H15569   5.295   8.864   1.507  0.6697 -1.4981  0.2296
  876MOL0     H15570   5.312   8.898   1.334 -0.0651  0.7805  0.0522
  876MOL0     H15571   5.399   8.652   1.310  0.8156  0.6217 -0.6589
  876MOL0     H15572   5.375   8.632   1.482  1.2111  2.4738  3.0910
  876MOL0     H15573   5.539   8.798   1.546 -2.3083  0.7689 -0.6622
  876MOL0     H15574   5.550   8.848   1.380 -1.0074 -0.8298 -1.5682
  876MOL0     H15575   5.628   8.561   1.472 -3.0552  2.2637  2.6235
  876MOL0     H15576   5.633   8.624   1.308  1.2262 -1.6774  1.0127
  876MOL0     H15577   5.813   8.714   1.538 -2.2123 -0.4897 -0.2996
  876MOL0     H15578   5.797   8.794   1.379  0.8599 -0.5141 -0.5459
  876MOL0     H15579   5.883   8.594   1.262  1.7371  3.4248 -0.5173
  876MOL0     H15580   5.839   8.499   1.407 -1.9784  1.7423  1.7153
  876MOL0     H15581   6.032   8.637   1.524  0.4449  1.9820 -1.0345
  876MOL0     H15582   6.071   8.499   1.431 -1.1996 -0.2979  0.0227
  876MOL0     H15583   6.220   8.698   1.371  1.0179 -1.1899 -0.9720
  876MOL0     H15584   6.069   8.785   1.326  2.1857  1.0261 -3.8484
  876MOL0     H15585   6.031   8.808   1.093 -1.0464 -0.0489 -2.7427
  876MOL0     H15586   6.151   8.638   0.763  0.0253 -3.1749  2.1280
  876MOL0     H15587   6.098   8.796   0.831 -0.1138 -0.1656 -1.7292
  876MOL0     H15588   5.932   8.747   0.716  1.8085  2.9760  2.8855
  876MOL0     H15589   5.866   8.690   0.853 -2.1977 -3.0156 -2.6596
  876MOL0     H15590   5.816   8.529   0.672  0.1204 -3.1918  0.3009
  876MOL0     H15591   5.988   8.523   0.631  0.9056  0.1157  1.4297
  876MOL0     H15592   6.031   8.389   0.815  0.5334  3.0981 -3.2540
  876MOL0     H15593   5.884   8.327   0.754 -0.3855 -2.5818  3.0104
  876MOL0     H15594   5.756   8.412   1.157 -0.8466 -0.3663 -0.2859
  876MOL0     H15595   5.515   8.420   1.223 -0.0273 -2.2301  0.5687
  876MOL0     H15596   5.099   8.585   1.151 -1.6952 -3.9237  1.4375
  876MOL0     H15597   4.857   8.649   1.141  1.1386 -0.4529 -0.3705
  876MOL0     H15598   4.528   8.620   1.004 -0.0518 -0.2342  0.3162
  876MOL0     H15599   4.648   8.618   1.119 -1.1952  2.8276 -0.1149
  876MOL0     H15600   4.672   8.398   0.920 -0.4567  1.4568 -0.7582
  876MOL0     H15601   4.516   8.389   0.994  0.5125 -2.4738 -0.1407
  876MOL0     H15602   4.783   8.352   1.114  0.8690  0.2494  1.3990
  876MOL0     H15603   4.650   8.228   1.098 -1.5988  0.8508 -0.6697
  876MOL0     H15604   4.610   8.475   1.288 -2.0192  1.2427 -0.0059
  876MOL0     H15605   4.509   8.337   1.254 -0.3184  0.0946 -2.0994
  876MOL0     H15606   4.775   8.274   1.363  0.7217  0.1110  0.9708
  876MOL0     H15607   4.621   8.176   1.342  0.3084  0.0700  1.4444
  876MOL0     H15608   4.512   8.327   1.491  0.0888  1.0042  0.9155
  876MOL0     H15609   4.644   8.423   1.531 -1.2318  0.3467 -0.1464
  876MOL0     H15610   4.643   8.118   1.605  1.2255  0.1895  0.6932
  876MOL0     H15611   4.772   8.224   1.635  0.3223 -2.3901  2.4175
  876MOL0     H15612   4.490   8.210   1.739 -0.0014  0.0461 -0.6649
  876MOL0     H15613   4.584   8.359   1.770 -1.5910 -0.3602  0.1680
  876MOL0     H15614   4.843   8.492   0.738  0.1659  0.3342  0.4891
  876MOL0     H15615   5.073   8.413   0.754 -1.2849 -1.5460  0.0910
  876MOL0     H15616   5.436   8.426   0.793 -0.3212  0.3689  0.4528
  876MOL0     H15617   5.657   8.398   0.745 -2.4860  0.2076 -1.0804
  876MOL0     H15618   5.130   9.030   1.402 -1.3331  3.1897 -0.4781
  876MOL0     H15619   4.924   9.143   1.490  1.9761 -0.3725  1.3313
  876MOL0     H15620   4.530   9.149   1.406 -0.8643  0.3458  0.2506
  876MOL0     H15621   4.315   9.256   1.368 -0.0964  1.0125 -0.3108
  876MOL0     H15622   4.136   9.398   1.428  1.1689  1.4354  5.1373
  876MOL0     H15623   3.997   9.413   1.518  0.0602  0.3282 -1.0685
  876MOL0     H15624   4.047   9.287   1.246  0.4273  2.3445 -0.3473
  876MOL0     H15625   3.914   9.209   1.337 -0.0847 -0.2036  1.3501
  876MOL0     H15626   3.922   9.511   1.295  2.3457 -0.1929  0.5398
  876MOL0     H15627   3.800   9.435   1.382  2.0966  0.6235  2.8919
  876MOL0     H15628   3.871   9.378   1.086 -0.5470  2.7445 -2.4275
  876MOL0     H15629   3.748   9.285   1.176  2.8018 -1.3395 -0.2681
  876MOL0     H15630   3.529   9.635   1.079 -0.2082  0.0411  0.9711
  876MOL0     H15631   4.151   9.055   1.720  2.6062 -2.2232  1.2981
  876MOL0     H15632   4.375   8.943   1.743  2.6807 -1.4325 -1.5691
  877MOL0     O15633   5.332   2.279   1.068  0.1228  0.5584  0.1178
  877MOL0     C15634   5.374   2.386   1.027 -0.0779 -0.1831  0.5654
  877MOL0     O15635   5.311   2.485   0.982 -0.1414 -0.2565  0.7265
  877MOL0     C15636   5.179   2.472   0.952  0.2994 -0.3943  0.1633
  877MOL0     C15637   5.148   2.416   0.825  1.1620 -0.3110 -0.7190
  877MOL0     C15638   5.007   2.406   0.791 -1.0061 -1.6138 -0.2076
  877MOL0     C15639   4.906   2.440   0.876 -0.0057  0.3309 -0.1518
  877MOL0     O15640   4.778   2.443   0.826 -0.2343 -0.8016  0.0937
  877MOL0     C15641   4.669   2.372   0.887 -0.2106 -0.5446 -0.1287
  877MOL0     C15642   4.543   2.377   0.810  0.0611 -0.6475 -0.6408
  877MOL0     C15643   4.565   2.354   0.663 -0.2339 -0.5872  0.0485
  877MOL0     C15644   4.444   2.369   0.575  0.3905 -0.3486 -0.3425
  877MOL0     C15645   4.473   2.359   0.428  0.4896  0.3232  0.1481
  877MOL0     C15646   4.356   2.438   0.361 -0.1558 -0.5620 -0.2502
  877MOL0     C15647   4.387   2.438   0.212  0.4271 -0.5067 -0.6150
  877MOL0     C15648   4.280   2.530   0.135 -0.5739 -0.3028 -0.2525
  877MOL0     N15649   4.285   2.496  -0.009  0.4364 -0.5087  0.1418
  877MOL0     C15650   4.176   2.461  -0.083  0.8747 -0.0325 -0.0682
  877MOL0     C15651   4.221   2.417  -0.206  0.1971 -0.5065 -0.0368
  877MOL0     C15652   4.142   2.371  -0.317  0.4356  0.1107  0.0913
  877MOL0     C15653   4.114   2.470  -0.429 -0.0209 -0.0072 -0.4985
  877MOL0     C15654   4.047   2.589  -0.381  0.9725 -0.8027 -0.3695
  877MOL0     C15655   4.024   2.691  -0.497 -0.5243 -0.0155 -0.2040
  877MOL0     O15656   3.920   2.641  -0.578  0.2858  0.2581  0.1466
  877MOL0     C15657   3.877   2.736  -0.673 -0.7115  0.7077  0.4520
  877MOL0     C15658   3.756   2.699  -0.738 -0.3649 -0.5431  0.7462
  877MOL0     C15659   3.707   2.780  -0.840  0.9624  0.1193 -0.4166
  877MOL0     C15660   3.773   2.896  -0.869  0.5409 -0.6852 -0.1905
  877MOL0     C15661   3.738   2.984  -0.984  1.0317 -0.5497 -0.3451
  877MOL0     O15662   3.603   2.983  -1.016  0.5541 -0.7578  1.1977
  877MOL0     C15663   3.560   3.054  -1.130  0.6983  0.7741 -1.1627
  877MOL0     C15664   3.461   3.003  -1.205  0.1661 -1.5936  0.4518
  877MOL0     C15665   3.410   3.078  -1.316 -0.7125  0.7317 -0.1499
  877MOL0     C15666   3.448   3.207  -1.343 -1.2562  0.1409  0.0360
  877MOL0     O15667   3.398   3.285  -1.448  0.3026 -0.4049  0.0736
  877MOL0     C15668   3.275   3.258  -1.512 -0.3627 -0.4326  0.2437
  877MOL0     C15669   3.201   3.390  -1.534 -0.6417 -1.0008 -0.0031
  877MOL0     C15670   3.080   3.364  -1.624  0.2573  1.0571  0.5110
  877MOL0     C15671   3.003   3.497  -1.640  0.0372 -0.4469 -0.1126
  877MOL0     C15672   2.872   3.469  -1.715 -0.4260 -0.5219  0.2819
  877MOL0     C15673   2.821   3.599  -1.782  0.9873 -0.3034 -1.0628
  877MOL0     C15674   2.680   3.594  -1.843  0.5989  0.1493  0.0014
  877MOL0     C15675   2.624   3.733  -1.882  0.8287 -0.5597  0.4033
  877MOL0    Cl15676   2.744   3.828  -1.971  0.0285  0.0110 -0.0960
  877MOL0     C15677   3.538   3.265  -1.250 -1.2291 -0.3717 -0.1512
  877MOL0     C15678   3.592   3.192  -1.145  0.4184 -0.9674  0.2410
  877MOL0     O15679   3.825   3.046  -1.043 -0.0153 -0.5366  0.2556
  877MOL0     C15680   3.896   2.931  -0.805  0.2580  0.1690 -0.8288
  877MOL0     C15681   3.946   2.851  -0.708  0.5426  0.8284  0.4051
  877MOL0     N15682   4.363   2.441  -0.201 -0.7207  0.0904 -0.3379
  877MOL0     N15683   4.394   2.485  -0.085 -0.2254  1.0351  0.2539
  877MOL0     C15684   4.942   2.476   1.002  0.4233  0.9907 -0.0898
  877MOL0     C15685   5.075   2.491   1.042  0.0095 -0.0587 -0.0133
  877MOL0     C15686   5.531   2.396   1.025  0.1124  0.3593 -0.3894
  877MOL0     C15687   5.589   2.509   0.973  0.1607 -0.0273  1.2397
  877MOL0     C15688   5.730   2.515   0.951  0.0224 -0.1361 -0.0642
  877MOL0     C15689   5.809   2.409   0.997 -0.0697  0.3402 -0.1015
  877MOL0     O15690   5.940   2.412   0.965 -0.1733  1.0810 -0.2982
  877MOL0     C15691   6.044   2.338   1.028 -0.2852 -1.3090 -0.3137
  877MOL0     C15692   6.060   2.385   1.177 -0.2111 -0.1808 -0.0872
  877MOL0     C15693   6.210   2.380   1.229  0.0348 -0.3707  0.0589
  877MOL0     C15694   6.289   2.509   1.184 -0.1739 -0.4794 -0.5987
  877MOL0     C15695   6.442   2.502   1.198  0.2377  0.3230 -0.6192
  877MOL0     C15696   6.554   2.502   1.230 -0.3203  0.8288  0.2790
  877MOL0     C15697   5.750   2.286   1.044  0.2419 -0.3181  0.1444
  877MOL0     C15698   5.614   2.284   1.060 -0.2200  0.6048 -0.0030
  877MOL0     H15699   5.228   2.381   0.761  0.0594 -0.4540 -2.0498
  877MOL0     H15700   4.965   2.381   0.695 -0.7395  0.0791 -0.7991
  877MOL0     H15701   4.660   2.400   0.993 -0.9879  2.5191 -0.9040
  877MOL0     H15702   4.695   2.266   0.879 -3.6242 -1.2935 -4.0400
  877MOL0     H15703   4.502   2.478   0.822 -1.0562 -1.2347  0.6836
  877MOL0     H15704   4.468   2.312   0.856  2.5710 -1.5890  2.4948
  877MOL0     H15705   4.627   2.267   0.641 -1.4054 -0.9106 -2.2458
  877MOL0     H15706   4.627   2.442   0.644  1.3847 -1.3787  1.4529
  877MOL0     H15707   4.372   2.292   0.606 -2.9537  1.7078 -2.3390
  877MOL0     H15708   4.395   2.464   0.599 -0.0141 -1.0023  1.6054
  877MOL0     H15709   4.474   2.254   0.399  0.7614 -0.6303  3.2578
  877MOL0     H15710   4.564   2.415   0.405  1.1250 -1.5669 -2.3367
  877MOL0     H15711   4.336   2.537   0.404  0.5217  0.2113 -1.6492
  877MOL0     H15712   4.277   2.366   0.384  1.1754 -1.7423  0.8741
  877MOL0     H15713   4.490   2.473   0.202  0.2653 -0.0622 -0.7612
  877MOL0     H15714   4.378   2.335   0.179 -3.2634 -0.5049 -0.0545
  877MOL0     H15715   4.312   2.634   0.146 -0.4552 -0.6261  3.5006
  877MOL0     H15716   4.179   2.516   0.176 -0.0664 -1.2699  0.7158
  877MOL0     H15717   4.071   2.462  -0.056  1.3705 -0.2786  2.0203
  877MOL0     H15718   4.044   2.331  -0.292  0.7647 -1.1843 -0.6073
  877MOL0     H15719   4.189   2.282  -0.361  2.7211  1.6046 -0.6912
  877MOL0     H15720   4.051   2.409  -0.495  0.3705  0.7454 -1.6018
  877MOL0     H15721   4.213   2.495  -0.469  0.1138  0.7697  0.3105
  877MOL0     H15722   3.948   2.562  -0.345 -0.0972  3.1135  0.0849
  877MOL0     H15723   4.105   2.643  -0.306 -0.3110  0.0805  0.0227
  877MOL0     H15724   4.122   2.709  -0.541  0.0797  2.8316  1.9793
  877MOL0     H15725   3.990   2.782  -0.447 -1.0411 -0.2349 -0.1479
  877MOL0     H15726   3.711   2.601  -0.723  1.7952 -1.4998  1.3855
  877MOL0     H15727   3.614   2.757  -0.890  0.3623 -2.5107  1.6769
  877MOL0     H15728   3.432   2.901  -1.181  0.9021 -1.0444  4.4393
  877MOL0     H15729   3.341   3.030  -1.384 -0.0408 -2.6708  1.3726
  877MOL0     H15730   3.214   3.188  -1.455  1.6399 -2.2182  0.3182
  877MOL0     H15731   3.309   3.213  -1.606  1.3970 -1.8693  1.4877
  877MOL0     H15732   3.275   3.451  -1.587 -0.6394 -0.1048  1.0003
  877MOL0     H15733   3.174   3.442  -1.442 -1.4329 -0.6435 -0.4302
  877MOL0     H15734   3.016   3.294  -1.569  1.7942 -1.0994 -0.3036
  877MOL0     H15735   3.097   3.320  -1.723  1.3898  0.0242  1.1373
  877MOL0     H15736   2.984   3.543  -1.543  0.5058  0.2177 -0.3286
  877MOL0     H15737   3.059   3.562  -1.708 -2.3722 -1.7474 -3.6799
  877MOL0     H15738   2.800   3.422  -1.648  1.0929 -0.5390  1.9933
  877MOL0     H15739   2.874   3.398  -1.798  0.1702  1.1146 -1.1663
  877MOL0     H15740   2.899   3.629  -1.852  1.4584 -2.7555 -1.6927
  877MOL0     H15741   2.827   3.678  -1.707  2.6999 -2.0596  0.7861
  877MOL0     H15742   2.674   3.523  -1.926  2.2596  0.6960 -0.6451
  877MOL0     H15743   2.627   3.549  -1.759  1.7469 -0.5507  0.3708
  877MOL0     H15744   2.601   3.796  -1.796 -0.5508  0.0131 -0.3480
  877MOL0     H15745   2.534   3.725  -1.945  0.0801  0.3518  1.3318
  877MOL0     H15746   3.569   3.369  -1.259 -2.5222  0.2128  1.5971
  877MOL0     H15747   3.656   3.236  -1.069  1.4675  2.2675 -2.2979
  877MOL0     H15748   3.950   3.020  -0.835 -0.5108  0.9734  0.0859
  877MOL0     H15749   4.043   2.881  -0.670  0.3013  1.5986  0.4345
  877MOL0     H15750   4.863   2.490   1.076  0.6267  0.2475  0.2750
  877MOL0     H15751   5.091   2.521   1.145  4.6351  1.1443 -0.8451
  877MOL0     H15752   5.530   2.595   0.942  1.0397 -0.6876 -2.8158
  877MOL0     H15753   5.779   2.607   0.920  2.5834 -0.6637  1.9950
  877MOL0     H15754   6.133   2.355   0.967 -1.3285 -0.7459 -1.7458
  877MOL0     H15755   6.029   2.230   1.042 -1.4635 -0.9312  1.7544
  877MOL0     H15756   6.014   2.482   1.198 -0.6939 -0.3075 -0.5319
  877MOL0     H15757   5.994   2.319   1.233  0.8179 -0.1324  1.2133
  877MOL0     H15758   6.265   2.291   1.198 -0.3374 -0.5401 -0.1197
  877MOL0     H15759   6.231   2.368   1.336  3.2653 -0.2513 -0.4576
  877MOL0     H15760   6.251   2.536   1.085 -2.3806  0.2886  0.3997
  877MOL0     H15761   6.250   2.598   1.234 -2.0006  0.5964 -3.6314
  877MOL0     H15762   6.657   2.519   1.254  0.3334  1.2900 -2.4754
  877MOL0     H15763   5.816   2.209   1.082  0.1775  1.0599  3.3633
  877MOL0     H15764   5.575   2.201   1.117  0.2208  2.0511  2.5650
  878MOL0     O15765   1.033   8.752   9.347  0.6301  0.5444  0.3175
  878MOL0     C15766   1.082   8.843   9.281  0.7239 -0.3337 -0.2343
  878MOL0     O15767   1.013   8.931   9.203  0.1850  0.5089  0.0225
  878MOL0     C15768   0.880   8.919   9.219  1.0680 -0.0608 -0.3186
  878MOL0     C15769   0.803   8.828   9.150  0.1544 -0.2480  0.3965
  878MOL0     C15770   0.659   8.827   9.173  0.0864 -0.4668 -0.3229
  878MOL0     C15771   0.599   8.934   9.246  0.5372 -0.4648 -1.1033
  878MOL0     O15772   0.458   8.946   9.276 -0.4281 -0.4629 -0.9317
  878MOL0     C15773   0.361   8.869   9.193 -0.0124  0.3917  0.1342
  878MOL0     C15774   0.222   8.913   9.253  0.8420  0.4613  0.0623
  878MOL0     C15775   0.112   8.830   9.196 -0.6729  0.6799 -0.4320
  878MOL0     C15776   0.072   8.711   9.284 -0.8855  0.3793  0.0030
  878MOL0     C15777  -0.053   8.636   9.252 -0.4763  0.4803  0.1406
  878MOL0     C15778  -0.174   8.710   9.199  0.4191 -0.1414 -0.1083
  878MOL0     C15779  -0.246   8.788   9.310 -0.2672  0.4361 -0.7767
  878MOL0     C15780  -0.356   8.705   9.381 -0.6088 -0.0902 -0.2008
  878MOL0     N15781  -0.409   8.781   9.494  0.0007  0.3781 -0.4335
  878MOL0     C15782  -0.500   8.885   9.487 -0.0961 -0.4627  0.1325
  878MOL0     C15783  -0.487   8.951   9.604 -1.1532  0.7209  0.4604
  878MOL0     C15784  -0.575   9.069   9.649  0.3034  1.0674  0.4473
  878MOL0     C15785  -0.720   9.046   9.607  0.0271  0.1081  0.7444
  878MOL0     C15786  -0.811   9.166   9.660 -0.1884  0.8377 -0.0866
  878MOL0     C15787  -0.960   9.144   9.639  1.2505  0.4587  0.1648
  878MOL0     O15788  -1.033   9.255   9.701 -0.4359  0.5201 -0.5422
  878MOL0     C15789  -1.173   9.235   9.714 -0.8501  0.1312 -0.2002
  878MOL0     C15790  -1.248   9.134   9.670  0.0536  0.1933  0.2255
  878MOL0     C15791  -1.381   9.110   9.710  0.5544 -0.2453  0.2491
  878MOL0     C15792  -1.446   9.209   9.776  0.0456  0.0449  0.2102
  878MOL0     C15793  -1.592   9.198   9.788 -0.2300 -0.8320  0.2906
  878MOL0     O15794  -1.660   9.125   9.693 -0.5677  0.4406 -0.4866
  878MOL0     C15795  -1.798   9.134   9.686 -0.9152 -0.1550 -0.5327
  878MOL0     C15796  -1.886   9.084   9.784  0.0124 -0.1115 -0.1233
  878MOL0     C15797  -2.029   9.096   9.780  0.9583 -1.2340  0.9027
  878MOL0     C15798  -2.079   9.142   9.654 -0.9500  0.5335 -0.0083
  878MOL0     O15799  -2.207   9.163   9.619  0.5881 -0.7629 -0.6107
  878MOL0     C15800  -2.299   9.086   9.700 -0.1421 -0.3857  0.1210
  878MOL0     C15801  -2.434   9.089   9.627  0.3971 -1.1886 -0.5543
  878MOL0     C15802  -2.548   9.015   9.705 -0.6048 -0.1285 -0.2041
  878MOL0     C15803  -2.684   9.031   9.645  0.2805  0.9189 -0.6421
  878MOL0     C15804  -2.784   9.008   9.760 -0.2836  0.4094 -0.1407
  878MOL0     C15805  -2.925   9.036   9.712  1.3580 -1.0309  0.8534
  878MOL0     C15806  -3.025   9.034   9.829 -1.2991 -0.3659 -0.1774
  878MOL0     C15807  -3.165   9.018   9.783 -0.0113 -0.0378 -0.0813
  878MOL0    Cl15808  -3.252   9.143   9.684 -0.1065 -0.0709  0.0624
  878MOL0     C15809  -1.988   9.192   9.555  1.2106  0.1642 -0.0922
  878MOL0     C15810  -1.852   9.189   9.573  0.2898  0.2351 -0.5160
  878MOL0     O15811  -1.641   9.269   9.875  0.0823  0.0468 -1.1937
  878MOL0     C15812  -1.373   9.315   9.825 -0.4074 -0.1747 -0.2878
  878MOL0     C15813  -1.237   9.326   9.799 -0.4137 -0.1817 -0.2778
  878MOL0     N15814  -0.384   8.888   9.682 -0.0329  0.9528  0.1848
  878MOL0     N15815  -0.342   8.794   9.607 -0.9389 -0.1106  0.3239
  878MOL0     C15816   0.682   9.013   9.323  0.5202 -0.4900 -0.4726
  878MOL0     C15817   0.817   9.005   9.315 -0.9353 -0.2028  0.5626
  878MOL0     C15818   1.230   8.866   9.298  0.6756  0.4608 -0.0710
  878MOL0     C15819   1.303   8.785   9.387 -0.8515  0.1352 -0.0601
  878MOL0     C15820   1.442   8.806   9.404  0.5044  0.0010 -0.4465
  878MOL0     C15821   1.503   8.915   9.348  0.5192  0.0608  0.1627
  878MOL0     O15822   1.634   8.929   9.383 -0.2709  0.5220 -0.7843
  878MOL0     C15823   1.712   9.045   9.352  0.1313  0.0240 -0.8617
  878MOL0     C15824   1.689   9.159   9.447 -0.4956 -0.5871 -0.1400
  878MOL0     C15825   1.745   9.290   9.395  0.3293 -0.6472 -0.2261
  878MOL0     C15826   1.888   9.278   9.343 -0.1223 -0.2457 -0.0072
  878MOL0     C15827   1.994   9.268   9.442 -0.2909 -0.1948 -0.4678
  878MOL0     C15828   2.069   9.250   9.540  0.6325 -0.1792  0.5636
  878MOL0     C15829   1.435   8.987   9.249 -0.0783 -0.3788 -0.2330
  878MOL0     C15830   1.293   8.969   9.231 -0.8297 -0.1874 -0.3181
  878MOL0     H15831   0.842   8.741   9.099 -3.8526 -2.7747  1.2675
  878MOL0     H15832   0.604   8.750   9.119 -2.5088  1.7066 -1.0192
  878MOL0     H15833   0.380   8.762   9.205  0.7531  0.7233  2.4632
  878MOL0     H15834   0.379   8.900   9.090  0.8455  1.6908  0.6464
  878MOL0     H15835   0.206   9.015   9.219 -1.2416  0.2849  0.4229
  878MOL0     H15836   0.214   8.919   9.362  0.1819 -0.9815  0.1174
  878MOL0     H15837   0.147   8.799   9.097  0.9127  1.0810 -0.0229
  878MOL0     H15838   0.022   8.890   9.180 -0.4777  0.6974 -1.5889
  878MOL0     H15839   0.153   8.638   9.294 -0.3399  0.7370 -1.4752
  878MOL0     H15840   0.064   8.742   9.388  2.4218 -0.9217  0.7616
  878MOL0     H15841  -0.093   8.580   9.337  2.6163 -4.1735 -1.0781
  878MOL0     H15842  -0.038   8.552   9.184  1.7677 -0.1848  1.3598
  878MOL0     H15843  -0.239   8.632   9.158  1.8992 -0.6813 -1.5014
  878MOL0     H15844  -0.164   8.777   9.113 -4.1915 -1.5498 -2.0420
  878MOL0     H15845  -0.167   8.826   9.375 -1.0219  2.5167 -0.9798
  878MOL0     H15846  -0.302   8.868   9.260 -0.3729 -0.4348 -2.0736
  878MOL0     H15847  -0.317   8.612   9.424 -0.6306 -0.3597 -0.7492
  878MOL0     H15848  -0.432   8.680   9.306 -0.3101 -0.3154 -0.4333
  878MOL0     H15849  -0.560   8.907   9.399 -2.1835 -3.3278  0.6956
  878MOL0     H15850  -0.539   9.166   9.614  0.1756  0.8475 -0.3189
  878MOL0     H15851  -0.559   9.066   9.757  4.6089 -1.0971 -0.0053
  878MOL0     H15852  -0.747   8.949   9.649  3.2058 -0.3171  2.1216
  878MOL0     H15853  -0.739   9.037   9.499 -3.1435 -1.2766  1.3197
  878MOL0     H15854  -0.793   9.165   9.768  0.5889 -0.9056 -0.1976
  878MOL0     H15855  -0.779   9.256   9.607 -2.5414  0.2726 -2.6444
  878MOL0     H15856  -0.990   9.047   9.680 -0.3868  0.5161 -0.8109
  878MOL0     H15857  -0.980   9.139   9.531 -1.0850 -1.2153  0.5903
  878MOL0     H15858  -1.216   9.051   9.607  0.7009  1.4995 -1.2419
  878MOL0     H15859  -1.439   9.023   9.682  0.3947 -0.2332  0.5278
  878MOL0     H15860  -1.838   9.029   9.864  1.1846  1.6409  0.4557
  878MOL0     H15861  -2.096   9.054   9.853 -1.8731 -1.2554 -1.5041
  878MOL0     H15862  -2.308   9.145   9.791  2.5046 -0.7354  0.7108
  878MOL0     H15863  -2.276   8.985   9.735 -3.2112 -0.6720  1.6332
  878MOL0     H15864  -2.431   9.042   9.529 -2.7492 -0.8446 -0.9120
  878MOL0     H15865  -2.459   9.195   9.617  3.7002 -0.4847 -3.0011
  878MOL0     H15866  -2.546   9.054   9.807  0.3759  1.8230 -0.9289
  878MOL0     H15867  -2.530   8.907   9.703 -0.6170 -0.1322 -1.8963
  878MOL0     H15868  -2.690   9.123   9.586 -0.1124  0.9976 -0.4852
  878MOL0     H15869  -2.709   8.954   9.571  0.3832 -0.1687  0.4220
  878MOL0     H15870  -2.755   9.079   9.839 -0.3579  1.5934 -1.1434
  878MOL0     H15871  -2.791   8.906   9.798 -0.9433  0.2044 -0.7959
  878MOL0     H15872  -2.947   8.971   9.627  1.2981  1.3644 -1.0410
  878MOL0     H15873  -2.941   9.138   9.676 -0.3605 -2.0925 -1.6903
  878MOL0     H15874  -3.003   8.941   9.882  3.3156 -0.2919 -1.5189
  878MOL0     H15875  -3.015   9.123   9.891 -1.2086 -0.2514 -0.3525
  878MOL0     H15876  -3.219   9.000   9.876  1.5064 -0.0157  0.8385
  878MOL0     H15877  -3.177   8.925   9.726  0.9701 -0.6686  0.7249
  878MOL0     H15878  -2.026   9.231   9.461  2.4685  1.0634 -0.2550
  878MOL0     H15879  -1.795   9.220   9.487 -2.4028  1.2336 -2.0781
  878MOL0     H15880  -1.428   9.386   9.886  0.1984  2.0945 -2.2633
  878MOL0     H15881  -1.174   9.407   9.833 -2.6141  0.4891  2.5429
  878MOL0     H15882   0.633   9.095   9.374 -1.1912 -0.5674 -1.8814
  878MOL0     H15883   0.877   9.081   9.363 -0.7310  1.0953 -1.6267
  878MOL0     H15884   1.262   8.702   9.443 -0.8734 -0.3678 -0.8036
  878MOL0     H15885   1.501   8.766   9.485  1.2195  0.9527 -0.4799
  878MOL0     H15886   1.685   9.069   9.249 -1.6269  0.2108 -0.3885
  878MOL0     H15887   1.815   9.014   9.374  1.6740  5.9119  2.2977
  878MOL0     H15888   1.583   9.185   9.454 -0.2258  0.4043  0.4891
  878MOL0     H15889   1.724   9.136   9.548 -2.3523 -3.7090 -0.1111
  878MOL0     H15890   1.745   9.362   9.477  4.6487  0.2205 -0.7277
  878MOL0     H15891   1.676   9.310   9.313  1.1566  0.0515 -0.7618
  878MOL0     H15892   1.899   9.188   9.282  1.2265 -0.5040  0.5741
  878MOL0     H15893   1.905   9.368   9.283 -0.3193  0.2592  0.6810
  878MOL0     H15894   2.135   9.251   9.625 -1.4701 -0.9797  2.2896
  878MOL0     H15895   1.469   9.075   9.195 -0.4148 -0.6583 -0.9204
  878MOL0     H15896   1.246   9.037   9.161  2.7754  2.0865 -0.7727
  879MOL0     O15897   6.428   6.575  10.955  0.0745 -0.2854 -0.1209
  879MOL0     C15898   6.487   6.550  11.061  0.1441  0.3357 -0.9983
  879MOL0     O15899   6.437   6.574  11.195 -0.2546  0.1282 -0.5292
  879MOL0     C15900   6.319   6.642  11.197  0.3545  0.1057 -0.4450
  879MOL0     C15901   6.317   6.777  11.204 -0.2409 -0.5223  0.1967
  879MOL0     C15902   6.206   6.859  11.209 -0.5762  0.4263 -0.0615
  879MOL0     C15903   6.080   6.798  11.194 -0.3118  0.3854  0.5681
  879MOL0     O15904   5.968   6.880  11.209 -0.7486  0.0296  0.7059
  879MOL0     C15905   5.840   6.826  11.193  0.5369  0.1894  0.6811
  879MOL0     C15906   5.739   6.924  11.227  0.2360 -0.5831  0.3833
  879MOL0     C15907   5.599   6.891  11.188 -0.1600  0.3623  0.6095
  879MOL0     C15908   5.505   7.002  11.234 -0.7798 -0.7909 -0.3081
  879MOL0     C15909   5.358   6.963  11.200  0.0199 -0.2024 -0.4671
  879MOL0     C15910   5.268   7.086  11.239 -0.4751  0.4704  0.5508
  879MOL0     C15911   5.119   7.054  11.232 -0.4173 -0.2305 -0.1536
  879MOL0     C15912   5.052   7.189  11.238  0.6462  0.1285  0.7496
  879MOL0     N15913   4.911   7.164  11.253 -0.0934  0.4085  0.4408
  879MOL0     C15914   4.819   7.234  11.181 -0.2777  0.0889 -0.3272
  879MOL0     C15915   4.699   7.204  11.238  0.7113 -0.0775  0.9722
  879MOL0     C15916   4.566   7.248  11.196  0.5799 -0.4289  0.0994
  879MOL0     C15917   4.507   7.350  11.295  0.0216  0.1293  0.5094
  879MOL0     C15918   4.415   7.299  11.396  0.2373  1.0455  0.0573
  879MOL0     C15919   4.368   7.407  11.505  0.0521  0.4905  0.4868
  879MOL0     O15920   4.260   7.476  11.433  0.6885 -0.1093  0.0132
  879MOL0     C15921   4.148   7.514  11.499 -0.1386 -0.7418 -0.3356
  879MOL0     C15922   4.163   7.565  11.628  1.4095 -1.0813  0.1740
  879MOL0     C15923   4.045   7.594  11.698  0.2589  0.3030  0.0537
  879MOL0     C15924   3.924   7.572  11.638  0.0408  0.2280 -0.3697
  879MOL0     C15925   3.804   7.630  11.706  0.2704  0.6964  0.7011
  879MOL0     O15926   3.699   7.658  11.625  0.5859  1.3857 -0.0711
  879MOL0     C15927   3.572   7.655  11.689  0.0176  0.3763 -0.0922
  879MOL0     C15928   3.486   7.766  11.671 -0.0059 -0.7026 -0.1037
  879MOL0     C15929   3.367   7.771  11.732  0.1823  0.7669 -0.1234
  879MOL0     C15930   3.328   7.667  11.814 -0.5869  0.4248 -0.6784
  879MOL0     O15931   3.210   7.675  11.868 -0.5209 -0.2419 -0.3446
  879MOL0     C15932   3.121   7.557  11.873 -0.5985 -0.1317 -0.2953
  879MOL0     C15933   2.980   7.627  11.852  0.4297  0.0227  0.2421
  879MOL0     C15934   2.877   7.512  11.857 -0.4516 -0.4978 -0.0737
  879MOL0     C15935   2.738   7.573  11.839 -0.1138  0.2563 -0.2255
  879MOL0     C15936   2.627   7.485  11.878  0.3423 -0.0276 -0.1497
  879MOL0     C15937   2.503   7.542  11.796  0.0225  0.2188  0.7057
  879MOL0     C15938   2.374   7.485  11.858 -0.5896 -0.7170 -0.7974
  879MOL0     C15939   2.261   7.484  11.758 -0.9804  0.5149 -0.0038
  879MOL0    Cl15940   2.101   7.435  11.827 -0.6692 -0.1057 -0.0011
  879MOL0     C15941   3.411   7.551  11.834 -0.1729 -0.3470 -0.2069
  879MOL0     C15942   3.537   7.555  11.774 -0.1516  0.7136 -0.3407
  879MOL0     O15943   3.809   7.655  11.829 -0.5044  0.8673  0.5173
  879MOL0     C15944   3.910   7.532  11.504 -0.1347  0.2331  0.0482
  879MOL0     C15945   4.025   7.505  11.432  0.0967  0.3626 -1.3877
  879MOL0     N15946   4.726   7.111  11.337 -0.1252  0.2484 -0.6820
  879MOL0     N15947   4.856   7.092  11.347 -0.0091  0.0944  0.3768
  879MOL0     C15948   6.080   6.652  11.180 -0.5886  0.4503 -0.5251
  879MOL0     C15949   6.197   6.576  11.176  0.6569  0.0289 -0.8814
  879MOL0     C15950   6.600   6.451  11.060 -0.5254 -0.0554  0.3876
  879MOL0     C15951   6.618   6.360  10.947 -0.0525 -0.5543  0.0087
  879MOL0     C15952   6.726   6.274  10.944 -0.0101 -0.3823  0.0166
  879MOL0     C15953   6.802   6.255  11.065  1.3258  0.1056 -0.2718
  879MOL0     O15954   6.897   6.155  11.067  0.8368  0.6116  0.8008
  879MOL0     C15955   7.020   6.190  11.002  0.5037  0.8171 -0.7138
  879MOL0     C15956   7.127   6.105  11.062 -0.0892 -0.2309  0.8979
  879MOL0     C15957   7.258   6.119  10.978  0.8756  0.4012  0.2928
  879MOL0     C15958   7.358   6.026  11.047 -0.1062  0.5076  0.6932
  879MOL0     C15959   7.501   6.040  10.987  0.8257 -0.4359  0.4146
  879MOL0     C15960   7.618   6.042  10.951 -0.1700 -0.6354 -0.0690
  879MOL0     C15961   6.773   6.331  11.179 -0.5329  0.4799 -0.5440
  879MOL0     C15962   6.675   6.432  11.174 -0.4194 -0.4212  1.0301
  879MOL0     H15963   6.419   6.815  11.213 -0.0664 -1.1705  1.1402
  879MOL0     H15964   6.221   6.967  11.211  1.8742  0.1674 -0.6575
  879MOL0     H15965   5.828   6.732  11.247 -0.6682 -1.6152 -2.4713
  879MOL0     H15966   5.819   6.807  11.087 -1.3196  0.2972  0.9973
  879MOL0     H15967   5.764   7.015  11.171 -0.0477 -0.3712  0.6002
  879MOL0     H15968   5.751   6.945  11.333  2.7425 -0.6555  0.1863
  879MOL0     H15969   5.567   6.804  11.246 -1.0792 -0.1707 -0.6267
  879MOL0     H15970   5.590   6.870  11.081  0.0322  1.0015  0.4688
  879MOL0     H15971   5.509   7.021  11.342 -1.4199 -0.1445 -0.3873
  879MOL0     H15972   5.538   7.098  11.191 -0.9389 -1.2717 -1.5503
  879MOL0     H15973   5.327   6.875  11.257  1.8345  0.2464  1.3062
  879MOL0     H15974   5.353   6.938  11.093  0.2643  0.4824 -0.6424
  879MOL0     H15975   5.287   7.165  11.166  1.9954 -0.2018  0.3864
  879MOL0     H15976   5.283   7.124  11.341 -0.8843  1.4782  0.2452
  879MOL0     H15977   5.099   7.015  11.132  0.5477 -0.4902 -0.2538
  879MOL0     H15978   5.090   6.984  11.310 -1.3446  0.8332  0.4855
  879MOL0     H15979   5.078   7.247  11.150  2.0862  0.5074  1.3940
  879MOL0     H15980   5.086   7.233  11.332 -3.3540 -0.0790  2.5177
  879MOL0     H15981   4.825   7.303  11.098 -0.4465  1.7078  0.9493
  879MOL0     H15982   4.498   7.163  11.183  0.7724 -0.9304  2.0417
  879MOL0     H15983   4.574   7.298  11.099  0.2828 -0.9975 -0.2234
  879MOL0     H15984   4.451   7.426  11.240 -0.1405  0.1899  0.7555
  879MOL0     H15985   4.588   7.411  11.335 -0.6224  1.9553 -0.8485
  879MOL0     H15986   4.335   7.247  11.342  0.7236 -0.1140  0.4112
  879MOL0     H15987   4.465   7.222  11.456 -1.9892  0.9623  1.9771
  879MOL0     H15988   4.441   7.482  11.538  1.7123 -0.7191 -0.2520
  879MOL0     H15989   4.333   7.352  11.593 -1.3965  0.1490 -0.2770
  879MOL0     H15990   4.255   7.596  11.678  0.1537  1.2831  1.1699
  879MOL0     H15991   4.054   7.625  11.802  2.7993  2.8523 -0.7761
  879MOL0     H15992   3.521   7.850  11.611  4.5120 -0.5088  2.3473
  879MOL0     H15993   3.291   7.847  11.722  2.6003  3.0238 -3.0727
  879MOL0     H15994   3.142   7.518  11.973  0.8908  0.9095 -0.1692
  879MOL0     H15995   3.133   7.482  11.795 -0.3853 -1.8082  1.2817
  879MOL0     H15996   2.976   7.669  11.751  0.5642 -0.6180 -0.0338
  879MOL0     H15997   2.954   7.702  11.927 -1.7239 -0.2802 -0.1458
  879MOL0     H15998   2.885   7.446  11.944  0.2524  1.4884  1.4407
  879MOL0     H15999   2.906   7.450  11.771  0.7768  0.8379 -0.6558
  879MOL0     H16000   2.732   7.659  11.907 -1.7488 -0.6023  0.7992
  879MOL0     H16001   2.742   7.608  11.735  3.0684 -0.5565 -0.4853
  879MOL0     H16002   2.612   7.479  11.986 -0.1611 -1.7617 -0.2856
  879MOL0     H16003   2.638   7.381  11.845  0.1177 -0.0948 -0.0129
  879MOL0     H16004   2.510   7.506  11.693  0.7816  1.9461  0.1019
  879MOL0     H16005   2.492   7.651  11.799  0.4063  0.2474  2.4934
  879MOL0     H16006   2.387   7.388  11.906 -0.7353  0.4482  1.7946
  879MOL0     H16007   2.339   7.550  11.939  1.8677  0.6359 -0.7172
  879MOL0     H16008   2.303   7.418  11.681  4.1683  1.7751  1.2836
  879MOL0     H16009   2.254   7.584  11.713  0.6423  0.5954 -0.1699
  879MOL0     H16010   3.376   7.471  11.898  0.0869 -0.9439 -0.7947
  879MOL0     H16011   3.606   7.472  11.783 -0.0779  0.8322  0.1736
  879MOL0     H16012   3.819   7.530  11.445  0.3935  1.8627 -0.9059
  879MOL0     H16013   4.026   7.456  11.335  0.5371 -1.2081 -0.6197
  879MOL0     H16014   5.989   6.594  11.173 -1.7136  2.1595 -0.7469
  879MOL0     H16015   6.202   6.471  11.147  0.0870 -1.0304  2.4128
  879MOL0     H16016   6.553   6.380  10.862  0.1564 -1.3751 -0.3552
  879MOL0     H16017   6.754   6.214  10.858 -0.2321 -1.2003  0.5108
  879MOL0     H16018   7.056   6.294  11.008  1.3834  0.4791  0.4526
  879MOL0     H16019   7.014   6.162  10.897  1.6332  1.5132 -0.9846
  879MOL0     H16020   7.147   6.140  11.164  1.1189  3.3776 -0.4096
  879MOL0     H16021   7.101   5.999  11.066 -1.4043 -0.2706 -3.4053
  879MOL0     H16022   7.295   6.221  10.967  0.9776  0.1245 -2.7884
  879MOL0     H16023   7.233   6.076  10.881  0.5569  2.0014 -0.3597
  879MOL0     H16024   7.357   6.042  11.155 -2.4308 -1.5129  1.0635
  879MOL0     H16025   7.320   5.923  11.037 -3.3068  1.7577 -2.2925
  879MOL0     H16026   7.723   6.034  10.931 -0.4089  0.1271 -1.7969
  879MOL0     H16027   6.833   6.320  11.269 -1.4052  0.8639  0.0992
  879MOL0     H16028   6.659   6.499  11.258  1.8331  0.5194  0.7827
  880MOL0     O16029   4.040   0.304   6.039 -0.7658 -0.2533 -0.0172
  880MOL0     C16030   4.136   0.383   6.024 -0.5761  0.1888  0.2324
  880MOL0     O16031   4.123   0.519   6.046  0.0768  0.4613 -0.8418
  880MOL0     C16032   4.004   0.569   6.082  0.7113  0.2075 -0.2881
  880MOL0     C16033   3.926   0.653   6.002  0.8835 -1.2818  0.2055
  880MOL0     C16034   3.799   0.698   6.043 -0.3215  0.3276  0.5086
  880MOL0     C16035   3.753   0.672   6.167 -0.6149 -0.6773  0.1225
  880MOL0     O16036   3.627   0.704   6.215 -0.7077  0.2778 -0.4967
  880MOL0     C16037   3.520   0.620   6.157 -0.9768 -1.0788  0.1579
  880MOL0     C16038   3.380   0.653   6.217  0.2441  0.7364  0.2560
  880MOL0     C16039   3.283   0.539   6.190  0.6485  0.3440 -0.7460
  880MOL0     C16040   3.150   0.558   6.258  0.7581  0.1983 -0.1268
  880MOL0     C16041   3.047   0.444   6.219 -0.0792 -0.8998 -0.2715
  880MOL0     C16042   2.912   0.489   6.260  0.1296  0.1598  0.0694
  880MOL0     C16043   2.797   0.403   6.222  0.0747 -0.1608  0.1632
  880MOL0     C16044   2.660   0.465   6.260 -0.3050  0.4226 -1.3825
  880MOL0     N16045   2.630   0.584   6.185  0.2240  0.2882 -0.5879
  880MOL0     C16046   2.591   0.707   6.239 -0.7716 -0.0865 -0.7778
  880MOL0     C16047   2.530   0.774   6.140 -0.2443 -0.6036 -0.1293
  880MOL0     C16048   2.466   0.914   6.152 -0.1046  0.0984  0.3653
  880MOL0     C16049   2.314   0.912   6.134 -0.6662 -0.2785 -0.4466
  880MOL0     C16050   2.276   0.889   5.987 -0.2655  0.0396  0.4546
  880MOL0     C16051   2.122   0.914   5.960  0.0900  0.2690 -0.0289
  880MOL0     O16052   2.083   1.049   5.988 -0.7352  0.1650 -0.1523
  880MOL0     C16053   1.951   1.088   5.970 -0.0490  0.5969  0.7888
  880MOL0     C16054   1.919   1.221   5.974 -0.0634 -0.0199 -0.3582
  880MOL0     C16055   1.787   1.271   5.982 -0.7385  0.7485 -0.2796
  880MOL0     C16056   1.684   1.183   5.975  0.9001  0.0775  0.8643
  880MOL0     C16057   1.541   1.218   5.979 -0.2862 -0.2375  0.1558
  880MOL0     O16058   1.447   1.114   5.964 -0.1436 -0.2310  0.8627
  880MOL0     C16059   1.310   1.126   5.967  0.0650 -0.5235 -0.1524
  880MOL0     C16060   1.239   1.250   5.937 -0.0075 -0.1151 -0.3409
  880MOL0     C16061   1.098   1.237   5.930  0.0939 -0.3438 -1.3174
  880MOL0     C16062   1.021   1.116   5.948 -0.1397  0.2723 -0.5137
  880MOL0     O16063   0.891   1.111   5.964 -0.6701  0.7050  0.7398
  880MOL0     C16064   0.814   1.224   6.004  0.4453 -0.1875  0.0989
  880MOL0     C16065   0.668   1.191   6.020  0.0694  0.1161  1.5494
  880MOL0     C16066   0.592   1.240   5.901  0.4698 -0.4385  0.5548
  880MOL0     C16067   0.443   1.210   5.919 -0.0115  0.2801 -0.1112
  880MOL0     C16068   0.348   1.238   5.809  0.7037 -0.3956  0.6493
  880MOL0     C16069   0.205   1.220   5.844  0.3957 -0.0970 -0.2197
  880MOL0     C16070   0.130   1.243   5.724  0.1324  0.4602  0.1759
  880MOL0     C16071  -0.016   1.209   5.741 -0.6539  0.1525 -0.2815
  880MOL0    Cl16072  -0.104   1.346   5.832  0.0638  0.3883  0.1421
  880MOL0     C16073   1.106   0.998   5.964  0.1360  0.2497 -0.1638
  880MOL0     C16074   1.243   1.002   5.982 -0.6212 -0.1008 -0.1718
  880MOL0     O16075   1.513   1.334   5.987 -0.7791 -0.1859  0.0564
  880MOL0     C16076   1.712   1.042   5.964 -0.5890 -0.9603 -0.2435
  880MOL0     C16077   1.845   1.003   5.955  0.0358 -0.2042  0.5795
  880MOL0     N16078   2.540   0.700   6.023 -0.8565  0.5860  0.1490
  880MOL0     N16079   2.602   0.593   6.057  0.7676 -0.5493  0.4980
  880MOL0     C16080   3.834   0.608   6.259 -0.7724  0.1221 -0.2646
  880MOL0     C16081   3.958   0.552   6.218  0.6471  0.0306  0.1239
  880MOL0     C16082   4.264   0.330   5.980  0.0839 -0.1004 -0.2731
  880MOL0     C16083   4.372   0.420   5.975  0.3446  0.1223 -0.2837
  880MOL0     C16084   4.494   0.357   5.939 -0.7219 -0.0662  0.5931
  880MOL0     C16085   4.507   0.222   5.915 -0.6273  0.3481  0.5348
  880MOL0     O16086   4.630   0.164   5.866  0.4797  0.1440  0.1857
  880MOL0     C16087   4.757   0.235   5.884  0.0790  0.0033 -0.1832
  880MOL0     C16088   4.869   0.127   5.867 -0.1171 -0.8170  0.0293
  880MOL0     C16089   5.012   0.186   5.900 -1.0564  0.3019 -0.2875
  880MOL0     C16090   5.122   0.076   5.902  0.6111  0.3220  0.4694
  880MOL0     C16091   5.245   0.138   5.944 -1.1955 -1.1243 -0.0630
  880MOL0     C16092   5.354   0.197   5.961  0.1395  0.0037  0.2545
  880MOL0     C16093   4.396   0.142   5.910  0.5943 -0.0669  0.4463
  880MOL0     C16094   4.274   0.192   5.935 -0.1426 -1.0182 -0.5593
  880MOL0     H16095   3.956   0.693   5.906 -0.3070  1.8437  1.0087
  880MOL0     H16096   3.732   0.753   5.976  2.3268  1.5302 -1.3332
  880MOL0     H16097   3.545   0.514   6.148  0.4130 -0.7384 -0.2027
  880MOL0     H16098   3.519   0.658   6.054 -1.3611  2.1146  1.2420
  880MOL0     H16099   3.347   0.744   6.166  0.8720  0.2390 -1.0873
  880MOL0     H16100   3.390   0.686   6.321  0.9502  0.8567  0.1539
  880MOL0     H16101   3.324   0.445   6.229 -1.6777 -0.3852  0.1360
  880MOL0     H16102   3.266   0.527   6.083  1.3808 -1.0871 -0.7267
  880MOL0     H16103   3.158   0.551   6.367 -0.4488 -0.2163 -0.0583
  880MOL0     H16104   3.118   0.660   6.234  2.1347  0.5094 -0.7789
  880MOL0     H16105   3.064   0.351   6.273  0.4623  0.3167  1.7665
  880MOL0     H16106   3.062   0.437   6.111  1.3060  0.1469 -0.1811
  880MOL0     H16107   2.894   0.589   6.220  0.2862  0.1906  0.0752
  880MOL0     H16108   2.910   0.494   6.370  0.4318  0.6613  0.0550
  880MOL0     H16109   2.804   0.372   6.117  1.7060  2.1595 -0.4843
  880MOL0     H16110   2.799   0.314   6.285  0.0789 -1.0057 -0.9902
  880MOL0     H16111   2.664   0.491   6.366  1.0159 -2.6235 -0.5835
  880MOL0     H16112   2.572   0.401   6.258 -1.2641  1.5759  0.5334
  880MOL0     H16113   2.611   0.745   6.339  1.6587  1.3048 -1.7077
  880MOL0     H16114   2.506   0.974   6.070 -1.8978  0.5055 -0.2480
  880MOL0     H16115   2.496   0.945   6.252 -0.0669 -3.1647  1.4791
  880MOL0     H16116   2.281   1.014   6.154  0.7635  0.3318 -1.0560
  880MOL0     H16117   2.275   0.834   6.201  1.6299 -2.3955 -1.4070
  880MOL0     H16118   2.323   0.961   5.919 -0.3691 -0.3334 -0.0155
  880MOL0     H16119   2.308   0.789   5.956 -0.0731 -0.1244  1.1522
  880MOL0     H16120   2.064   0.842   6.019  2.3772  0.3836  2.5784
  880MOL0     H16121   2.092   0.896   5.857  0.5879  1.7514 -0.4652
  880MOL0     H16122   2.007   1.284   5.981 -2.9863  4.5240 -0.6331
  880MOL0     H16123   1.774   1.377   5.996  0.7957  1.0406 -0.8141
  880MOL0     H16124   1.301   1.339   5.928  3.7894 -2.2663  1.8798
  880MOL0     H16125   1.036   1.319   5.896  1.4895  1.3219 -0.0540
  880MOL0     H16126   0.826   1.310   5.937  1.3803  1.5583  2.3599
  880MOL0     H16127   0.863   1.260   6.095 -1.6846  0.4235  1.0577
  880MOL0     H16128   0.640   1.255   6.104  1.8306  1.3115  1.2858
  880MOL0     H16129   0.660   1.082   6.029 -1.3720  0.1346  0.6929
  880MOL0     H16130   0.635   1.197   5.810  0.5492 -1.1565  0.9252
  880MOL0     H16131   0.607   1.348   5.889 -1.2997 -0.3245 -1.1384
  880MOL0     H16132   0.435   1.101   5.933  0.8960  0.1968 -0.1833
  880MOL0     H16133   0.415   1.252   6.016 -2.7753  0.0111 -0.7244
  880MOL0     H16134   0.375   1.178   5.721  1.7335  0.1688  0.5591
  880MOL0     H16135   0.362   1.339   5.769 -0.3619 -1.0702 -1.6406
  880MOL0     H16136   0.168   1.277   5.930 -0.0580  0.6189 -0.8779
  880MOL0     H16137   0.189   1.118   5.878 -2.4482  1.0867  2.5933
  880MOL0     H16138   0.143   1.349   5.697  0.7733  0.6658  1.2149
  880MOL0     H16139   0.178   1.175   5.653  0.6479  0.0403  0.9067
  880MOL0     H16140  -0.023   1.113   5.792  2.7561 -0.6517 -1.0520
  880MOL0     H16141  -0.056   1.205   5.639  2.0602  1.0136 -1.4783
  880MOL0     H16142   1.044   0.909   5.974 -0.7241  0.8685  0.1534
  880MOL0     H16143   1.306   0.914   5.987  0.6870  0.8743  1.4383
  880MOL0     H16144   1.627   0.977   5.944  1.5888 -4.4279  0.8732
  880MOL0     H16145   1.853   0.902   5.916 -5.6104 -0.2262 -1.3637
  880MOL0     H16146   3.801   0.598   6.362 -1.1653  1.5532 -0.2295
  880MOL0     H16147   4.017   0.495   6.289  1.0384  0.2608 -0.0118
  880MOL0     H16148   4.364   0.526   5.996 -0.2148 -0.3562  2.2202
  880MOL0     H16149   4.578   0.426   5.928 -0.2141 -0.4176  2.0127
  880MOL0     H16150   4.760   0.282   5.983  0.4749  0.5736 -0.4601
  880MOL0     H16151   4.777   0.312   5.809  2.4959  0.4674  0.8718
  880MOL0     H16152   4.854   0.053   5.946  3.1507 -1.7405 -0.0544
  880MOL0     H16153   4.872   0.074   5.772  0.2574  0.1008 -0.4792
  880MOL0     H16154   4.996   0.236   5.996 -3.8973 -0.5103 -0.2274
  880MOL0     H16155   5.049   0.254   5.823 -2.3054 -1.0212 -2.1447
  880MOL0     H16156   5.109  -0.001   5.978 -0.2352  0.4771  0.4849
  880MOL0     H16157   5.130   0.024   5.806 -0.4406 -0.8068  0.9608
  880MOL0     H16158   5.450   0.240   5.977  1.4130 -1.4107 -2.6852
  880MOL0     H16159   4.402   0.041   5.872  1.1635 -0.7157  2.1504
  880MOL0     H16160   4.187   0.127   5.923  1.2658 -2.8066 -1.7315
  881MOL0     O16161   1.101   0.720   3.672  0.2475 -0.8836 -0.2463
  881MOL0     C16162   1.112   0.705   3.544  0.4309  0.0670  0.0046
  881MOL0     O16163   1.017   0.667   3.463 -0.6094  0.7328  0.7557
  881MOL0     C16164   0.880   0.656   3.507 -0.2163  0.0891  1.4131
  881MOL0     C16165   0.843   0.589   3.624 -0.2576  0.3326  0.4356
  881MOL0     C16166   0.711   0.559   3.646 -0.4975  0.5857 -0.0468
  881MOL0     C16167   0.608   0.606   3.557 -0.4069 -0.2203  0.7492
  881MOL0     O16168   0.480   0.572   3.584  0.0634 -0.4131 -0.0586
  881MOL0     C16169   0.393   0.685   3.587 -0.3023 -0.0003 -0.0894
  881MOL0     C16170   0.259   0.680   3.509 -0.0838 -0.9555 -0.0389
  881MOL0     C16171   0.173   0.555   3.531 -0.1197  0.7429  0.0226
  881MOL0     C16172   0.043   0.555   3.453 -0.1295  0.9019 -0.3368
  881MOL0     C16173  -0.058   0.458   3.518 -0.7838  0.1362 -0.4985
  881MOL0     C16174  -0.195   0.460   3.456  0.1172  0.7667 -0.1321
  881MOL0     C16175  -0.292   0.391   3.545  1.1682  0.0368 -0.0109
  881MOL0     C16176  -0.437   0.384   3.482 -0.0347 -0.3326 -0.1950
  881MOL0     N16177  -0.516   0.276   3.556 -0.6258 -0.0692  0.0418
  881MOL0     C16178  -0.511   0.139   3.544  0.3330  0.2770 -0.1410
  881MOL0     C16179  -0.617   0.088   3.618 -0.1097  0.4191 -0.2077
  881MOL0     C16180  -0.639  -0.064   3.635 -0.9370 -0.1289 -0.1309
  881MOL0     C16181  -0.766  -0.115   3.585  0.6964 -0.7152 -0.3895
  881MOL0     C16182  -0.873  -0.106   3.687 -0.4502 -0.0679  0.4344
  881MOL0     C16183  -1.001  -0.072   3.606 -0.0324 -0.3306  0.2247
  881MOL0     O16184  -1.109  -0.062   3.696 -0.4853  0.1635 -0.0654
  881MOL0     C16185  -1.236  -0.071   3.643 -0.0284  0.6494 -0.0043
  881MOL0     C16186  -1.338  -0.127   3.716 -0.0633 -0.0539  0.3931
  881MOL0     C16187  -1.473  -0.132   3.669 -1.1893 -0.4240 -0.1223
  881MOL0     C16188  -1.502  -0.077   3.545 -0.3523 -0.7498  0.2652
  881MOL0     C16189  -1.637  -0.082   3.477 -0.0406  0.6866 -0.0903
  881MOL0     O16190  -1.734  -0.160   3.539 -0.8292  0.4959 -0.1023
  881MOL0     C16191  -1.866  -0.133   3.538  0.2521  0.5280 -0.6795
  881MOL0     C16192  -1.950  -0.229   3.600  0.4212 -0.2927  0.6932
  881MOL0     C16193  -2.087  -0.214   3.615  0.4084  0.6805 -0.0733
  881MOL0     C16194  -2.140  -0.088   3.594 -0.8264  0.3658 -0.1236
  881MOL0     O16195  -2.267  -0.054   3.626  0.4867  0.7508  0.5682
  881MOL0     C16196  -2.363  -0.161   3.629  0.6617 -0.1283  0.2815
  881MOL0     C16197  -2.498  -0.083   3.668 -0.0836 -0.6030 -0.3059
  881MOL0     C16198  -2.574  -0.015   3.544 -0.0625 -0.2910 -0.3805
  881MOL0     C16199  -2.713   0.046   3.592 -0.4157  0.1862  0.6953
  881MOL0     C16200  -2.776   0.130   3.489 -0.5118 -0.1361  0.2275
  881MOL0     C16201  -2.814   0.073   3.340 -0.4281 -0.4298 -0.0647
  881MOL0     C16202  -2.699   0.060   3.239  0.2974 -0.6239 -0.5744
  881MOL0     C16203  -2.747   0.106   3.104  0.5641 -0.0197  0.0489
  881MOL0    Cl16204  -2.895   0.005   3.054  0.3930  0.3456 -0.6020
  881MOL0     C16205  -2.062   0.015   3.543 -0.2311  0.0116 -0.0669
  881MOL0     C16206  -1.930  -0.012   3.501 -0.3287 -0.8129 -0.0005
  881MOL0     O16207  -1.658  -0.010   3.379 -0.0984 -0.0958  0.3866
  881MOL0     C16208  -1.395  -0.017   3.472  0.1290  0.7887  0.3770
  881MOL0     C16209  -1.268  -0.032   3.517  0.5058 -0.2196  0.1079
  881MOL0     N16210  -0.680   0.195   3.680 -0.2764 -0.2249  1.2091
  881MOL0     N16211  -0.614   0.301   3.638  0.4861 -0.5466 -0.5486
  881MOL0     C16212   0.645   0.682   3.445  0.5309 -0.0923  0.2618
  881MOL0     C16213   0.781   0.709   3.421  0.0927  0.1187 -1.2433
  881MOL0     C16214   1.239   0.733   3.488  0.4313 -0.0803  0.6746
  881MOL0     C16215   1.324   0.839   3.535 -0.6988 -0.1736 -0.2193
  881MOL0     C16216   1.449   0.876   3.483  0.7970 -0.3597 -0.1922
  881MOL0     C16217   1.502   0.801   3.376  0.0035 -0.4307  1.2400
  881MOL0     O16218   1.639   0.826   3.361  0.0633  0.3226 -0.4956
  881MOL0     C16219   1.707   0.747   3.266 -0.4723  0.0731  0.1350
  881MOL0     C16220   1.861   0.778   3.266  0.4128  0.7159  0.8213
  881MOL0     C16221   1.906   0.920   3.302 -0.2111  0.5069  0.3168
  881MOL0     C16222   2.063   0.921   3.294  0.8207 -0.1119  0.5379
  881MOL0     C16223   2.106   1.054   3.259  0.4499 -1.0329 -0.0208
  881MOL0     C16224   2.131   1.162   3.216 -0.1601 -0.3148  0.2699
  881MOL0     C16225   1.430   0.691   3.335  0.0896 -0.5378  0.2536
  881MOL0     C16226   1.298   0.661   3.379  0.3105 -0.0767  0.4916
  881MOL0     H16227   0.919   0.539   3.684 -1.1586 -2.6168 -0.6629
  881MOL0     H16228   0.682   0.508   3.738 -1.1697  0.6577 -0.2120
  881MOL0     H16229   0.448   0.771   3.546 -0.9931  0.1142 -0.7958
  881MOL0     H16230   0.379   0.705   3.694  0.7749  3.4190 -0.4633
  881MOL0     H16231   0.275   0.697   3.402 -2.2748 -1.1699 -0.4540
  881MOL0     H16232   0.195   0.763   3.540  0.3117 -1.1084  1.2570
  881MOL0     H16233   0.153   0.547   3.638  0.0542  2.8905  0.2537
  881MOL0     H16234   0.223   0.463   3.499 -0.1205  2.1154 -4.7160
  881MOL0     H16235   0.002   0.657   3.454  0.7271  1.2487  0.7232
  881MOL0     H16236   0.063   0.537   3.347  2.3496 -0.4143  0.2639
  881MOL0     H16237  -0.061   0.490   3.623 -0.1846 -0.4130 -0.3041
  881MOL0     H16238  -0.016   0.357   3.516  2.8414  1.4656  0.1058
  881MOL0     H16239  -0.171   0.400   3.368  0.6732  0.2926  0.3306
  881MOL0     H16240  -0.229   0.559   3.426 -2.8425 -0.4470 -1.0741
  881MOL0     H16241  -0.254   0.296   3.582  2.7590  1.4549  2.2294
  881MOL0     H16242  -0.288   0.454   3.634 -1.0024 -1.9545  1.6448
  881MOL0     H16243  -0.418   0.363   3.377  1.1727  3.5028 -0.9117
  881MOL0     H16244  -0.499   0.473   3.477 -3.1551 -2.2780  1.0466
  881MOL0     H16245  -0.444   0.088   3.475  1.4330 -0.2442  1.2563
  881MOL0     H16246  -0.626  -0.081   3.742  0.2152  0.0485 -0.2347
  881MOL0     H16247  -0.554  -0.111   3.585 -0.5823  2.7765 -2.5739
  881MOL0     H16248  -0.751  -0.218   3.551 -1.6909 -1.0253 -0.7097
  881MOL0     H16249  -0.777  -0.049   3.498  2.2151  3.2309  2.1475
  881MOL0     H16250  -0.890  -0.199   3.742 -0.8489 -0.1079  0.2483
  881MOL0     H16251  -0.843  -0.029   3.759 -1.6956  2.1629 -1.3031
  881MOL0     H16252  -1.018  -0.138   3.521 -1.3583  1.4895 -1.0042
  881MOL0     H16253  -0.994   0.025   3.556  1.9173  0.0961  1.2256
  881MOL0     H16254  -1.319  -0.157   3.819  1.0217  0.1549  0.2560
  881MOL0     H16255  -1.545  -0.184   3.731  0.3677 -1.3344  1.0191
  881MOL0     H16256  -1.908  -0.322   3.638 -1.9405 -0.6516  2.6952
  881MOL0     H16257  -2.150  -0.284   3.670  0.0738  3.2472  3.0976
  881MOL0     H16258  -2.339  -0.232   3.708  1.0295 -1.4023 -0.9374
  881MOL0     H16259  -2.369  -0.199   3.526 -0.9036  1.1367 -0.1350
  881MOL0     H16260  -2.481   0.004   3.731 -2.0433  1.6758 -2.7088
  881MOL0     H16261  -2.559  -0.148   3.732  0.9948  0.1212  1.5413
  881MOL0     H16262  -2.592  -0.103   3.481  0.5373  0.2031 -1.2534
  881MOL0     H16263  -2.514   0.064   3.500 -0.1043  0.1704  0.3657
  881MOL0     H16264  -2.771  -0.045   3.610 -0.7474  0.5274  1.4006
  881MOL0     H16265  -2.689   0.096   3.687  0.9280  0.1342  0.4007
  881MOL0     H16266  -2.707   0.212   3.470  0.0111  0.1441  2.9030
  881MOL0     H16267  -2.865   0.174   3.534 -0.7591 -1.1114  0.7268
  881MOL0     H16268  -2.891   0.145   3.312 -1.1190 -1.3910 -0.6799
  881MOL0     H16269  -2.854  -0.029   3.349  0.5013 -0.6170  3.4048
  881MOL0     H16270  -2.616   0.128   3.260  0.4830 -1.1424  0.4359
  881MOL0     H16271  -2.669  -0.045   3.235 -1.7285 -1.2989  0.1639
  881MOL0     H16272  -2.674   0.086   3.025  1.6806  2.2188  0.4438
  881MOL0     H16273  -2.774   0.211   3.110 -0.2275 -0.1487 -0.9644
  881MOL0     H16274  -2.108   0.112   3.528 -3.0014 -0.8908  1.7548
  881MOL0     H16275  -1.880   0.080   3.474 -1.9468  1.5684  4.1975
  881MOL0     H16276  -1.402   0.039   3.380 -2.9520  0.7529  0.4587
  881MOL0     H16277  -1.197  -0.004   3.439 -0.4247  1.1225 -0.3089
  881MOL0     H16278   0.570   0.710   3.372 -0.6710 -3.5640 -0.0134
  881MOL0     H16279   0.811   0.777   3.341  1.2555  1.6021  0.3581
  881MOL0     H16280   1.283   0.907   3.609 -2.9459 -1.1564 -0.4877
  881MOL0     H16281   1.500   0.960   3.529  0.4447 -0.0037 -0.4375
  881MOL0     H16282   1.674   0.759   3.163 -0.6411 -0.3452  0.1359
  881MOL0     H16283   1.699   0.641   3.293  1.3978 -0.8534 -2.4936
  881MOL0     H16284   1.916   0.710   3.332  1.5928  0.0796 -0.7508
  881MOL0     H16285   1.894   0.745   3.168 -0.4573 -0.7229  0.9840
  881MOL0     H16286   1.869   0.953   3.400  0.1419 -1.8847  1.3323
  881MOL0     H16287   1.869   0.989   3.225 -1.3286 -0.8702 -0.4374
  881MOL0     H16288   2.100   0.887   3.391  0.5861  1.4027  1.1862
  881MOL0     H16289   2.098   0.857   3.213 -1.5846 -2.0634  0.9145
  881MOL0     H16290   2.142   1.261   3.176 -1.4064  0.9251  2.7947
  881MOL0     H16291   1.484   0.607   3.294  1.9972  0.3425  0.8512
  881MOL0     H16292   1.249   0.580   3.325  1.8967 -0.6874 -0.0865
  882MOL0     O16293   3.688   9.535   3.702 -0.4885  0.6309 -0.8073
  882MOL0     C16294   3.730   9.418   3.692  0.3882 -0.9640  0.2670
  882MOL0     O16295   3.853   9.374   3.718  0.1227 -0.1669  0.6116
  882MOL0     C16296   3.949   9.451   3.771 -0.2690 -0.1298  0.3530
  882MOL0     C16297   4.076   9.421   3.723  0.0135  0.9096  0.3743
  882MOL0     C16298   4.184   9.503   3.751 -0.3796 -0.3411 -0.0194
  882MOL0     C16299   4.161   9.613   3.842  0.1333  0.1503 -0.5370
  882MOL0     O16300   4.260   9.699   3.889 -0.3141 -0.6579 -0.4834
  882MOL0     C16301   4.387   9.655   3.867 -0.4871 -0.0279 -0.7801
  882MOL0     C16302   4.495   9.747   3.934 -0.1886  0.7117  0.4296
  882MOL0     C16303   4.633   9.722   3.870  0.8245 -0.1867  0.4010
  882MOL0     C16304   4.725   9.643   3.972 -0.7030  0.6840  0.3410
  882MOL0     C16305   4.870   9.652   3.919  0.2950  1.0335 -0.2428
  882MOL0     C16306   4.960   9.591   4.030 -0.8634 -0.5760 -0.2706
  882MOL0     C16307   5.101   9.595   3.971 -0.5935 -0.1935 -0.3153
  882MOL0     C16308   5.200   9.548   4.085 -0.7813 -0.3892 -0.0144
  882MOL0     N16309   5.334   9.566   4.030  0.2254  0.0245  0.6076
  882MOL0     C16310   5.429   9.669   4.038  0.0131  0.2331  0.1748
  882MOL0     C16311   5.539   9.616   3.971 -0.7118  0.6092 -0.2633
  882MOL0     C16312   5.665   9.697   3.941  1.1093 -0.8565 -0.3593
  882MOL0     C16313   5.765   9.702   4.056 -0.2580 -0.7198 -0.6544
  882MOL0     C16314   5.797   9.572   4.124 -0.4654  0.1593 -0.6092
  882MOL0     C16315   5.898   9.600   4.235 -0.5806 -0.0939  0.4502
  882MOL0     O16316   6.022   9.635   4.167  0.4840  0.1618  0.0982
  882MOL0     C16317   6.124   9.660   4.261 -0.6435  0.4912 -0.1551
  882MOL0     C16318   6.112   9.643   4.396 -0.4181  0.8862 -0.2504
  882MOL0     C16319   6.215   9.684   4.479 -0.5447  0.2872  0.7568
  882MOL0     C16320   6.337   9.723   4.426  0.3206  0.2517 -0.2280
  882MOL0     C16321   6.447   9.767   4.508 -0.7146 -0.6548  0.3744
  882MOL0     O16322   6.577   9.747   4.462 -0.7339 -0.0139  0.2227
  882MOL0     C16323   6.686   9.764   4.538 -1.7811 -0.7242 -0.0731
  882MOL0     C16324   6.795   9.815   4.473 -0.6688 -0.6537  0.3253
  882MOL0     C16325   6.916   9.831   4.538  0.5695  0.2908 -0.6778
  882MOL0     C16326   6.941   9.790   4.666  0.4750 -0.3669 -0.6813
  882MOL0     O16327   7.070   9.808   4.712  0.2927  0.0293  0.0421
  882MOL0     C16328   7.106   9.702   4.798  0.3865 -0.1380 -0.0333
  882MOL0     C16329   7.260   9.680   4.806  0.0886 -0.0115  0.6622
  882MOL0     C16330   7.324   9.642   4.667  0.7778 -0.5175 -0.3277
  882MOL0     C16331   7.462   9.599   4.688 -0.1152  0.5554  0.0839
  882MOL0     C16332   7.539   9.581   4.552 -0.1269  0.4276  0.3187
  882MOL0     C16333   7.667   9.504   4.575  0.4191  0.3653  0.6465
  882MOL0     C16334   7.726   9.473   4.445  0.0566  0.7407 -0.5384
  882MOL0     C16335   7.867   9.424   4.471 -0.0406 -0.5262  0.2711
  882MOL0    Cl16336   7.842   9.256   4.525 -0.5737 -0.1846  0.5613
  882MOL0     C16337   6.820   9.745   4.740 -0.0952 -0.8087  0.6097
  882MOL0     C16338   6.701   9.726   4.670 -0.3230 -0.8953 -0.9652
  882MOL0     O16339   6.419   9.809   4.624 -0.1521  0.1217  0.5726
  882MOL0     C16340   6.352   9.733   4.289 -0.7606  0.1007  0.0076
  882MOL0     C16341   6.240   9.710   4.204  0.1205 -0.1160 -0.8535
  882MOL0     N16342   5.525   9.481   3.935 -0.5872 -0.7186  0.5320
  882MOL0     N16343   5.409   9.453   3.982 -0.1940 -0.9561 -0.1273
  882MOL0     C16344   4.036   9.629   3.905  0.2264 -0.7991  0.8227
  882MOL0     C16345   3.928   9.554   3.871  0.9341  0.1986  0.3728
  882MOL0     C16346   3.629   9.315   3.647 -0.9151  0.0921  0.1457
  882MOL0     C16347   3.683   9.190   3.613  0.2054  0.2232  0.1023
  882MOL0     C16348   3.592   9.096   3.571  0.5014  1.2494 -1.1172
  882MOL0     C16349   3.449   9.122   3.553  0.7161 -0.1159 -0.0590
  882MOL0     O16350   3.347   9.033   3.507  0.3628 -0.8330 -0.5377
  882MOL0     C16351   3.390   8.901   3.475  0.9012 -0.7202 -0.1187
  882MOL0     C16352   3.263   8.814   3.481  0.3404 -0.6457  0.0116
  882MOL0     C16353   3.156   8.856   3.375 -0.9544  0.6583  0.2738
  882MOL0     C16354   3.052   8.747   3.352  0.2727 -0.0186  0.2087
  882MOL0     C16355   2.932   8.803   3.289 -0.2095 -0.4127 -0.5145
  882MOL0     C16356   2.837   8.851   3.230  0.1530  0.2114  0.2572
  882MOL0     C16357   3.408   9.251   3.596  0.6680  0.3416 -0.5349
  882MOL0     C16358   3.490   9.348   3.644 -0.4259  0.2951 -0.5459
  882MOL0     H16359   4.098   9.333   3.664 -2.2545  0.3003  0.3500
  882MOL0     H16360   4.276   9.495   3.693 -0.5705  3.6254 -1.1840
  882MOL0     H16361   4.397   9.656   3.758 -0.7849 -0.2885 -0.8104
  882MOL0     H16362   4.408   9.555   3.905  2.7397  0.1939 -1.6970
  882MOL0     H16363   4.498   9.736   4.042  0.6861 -1.5060  0.2294
  882MOL0     H16364   4.468   9.850   3.907  3.5763  2.0592  1.2482
  882MOL0     H16365   4.671   9.820   3.838  0.7712 -1.4548 -4.3432
  882MOL0     H16366   4.615   9.657   3.784 -1.6388  1.2922 -0.3046
  882MOL0     H16367   4.722   9.689   4.071  0.8553 -0.9057  1.1821
  882MOL0     H16368   4.696   9.538   3.976 -1.2091  0.8374  0.9798
  882MOL0     H16369   4.895   9.758   3.904  2.4076  0.6579  0.2988
  882MOL0     H16370   4.875   9.591   3.828 -0.3922 -3.7153  2.5683
  882MOL0     H16371   4.928   9.489   4.052  1.1318 -0.8577  1.7474
  882MOL0     H16372   4.952   9.651   4.120  0.9712  0.1676 -0.5468
  882MOL0     H16373   5.096   9.517   3.895  0.3748 -0.4640 -0.1195
  882MOL0     H16374   5.134   9.689   3.927  2.0124  0.0468  1.8755
  882MOL0     H16375   5.190   9.446   4.124 -1.8922  0.8666  3.3142
  882MOL0     H16376   5.191   9.608   4.176 -0.3989 -1.5100  0.7829
  882MOL0     H16377   5.417   9.767   4.083  1.2106  0.0361  0.9943
  882MOL0     H16378   5.623   9.796   3.920  2.8240  0.0046  0.0974
  882MOL0     H16379   5.717   9.654   3.854  3.0918 -2.0629  1.3252
  882MOL0     H16380   5.727   9.761   4.141  0.8212 -2.6332  1.2376
  882MOL0     H16381   5.856   9.748   4.017 -0.8052  0.9889 -0.0415
  882MOL0     H16382   5.714   9.519   4.171  0.3875 -0.0831  0.6951
  882MOL0     H16383   5.849   9.512   4.048 -2.2726  0.2201 -1.9401
  882MOL0     H16384   5.910   9.505   4.288 -1.1666  1.6418  3.9930
  882MOL0     H16385   5.870   9.679   4.305  2.0958  1.6232 -0.2637
  882MOL0     H16386   6.022   9.612   4.446  0.9496  1.2133  2.6438
  882MOL0     H16387   6.198   9.688   4.586 -0.0782 -1.4572  0.9328
  882MOL0     H16388   6.765   9.834   4.370  1.0799  0.2300 -0.0646
  882MOL0     H16389   6.993   9.874   4.474  0.6001 -0.4066 -1.1207
  882MOL0     H16390   7.050   9.618   4.757 -3.7902  2.2420  0.1703
  882MOL0     H16391   7.073   9.723   4.901  3.4366 -0.4201  1.0992
  882MOL0     H16392   7.292   9.604   4.878  1.3717  0.4402  0.5922
  882MOL0     H16393   7.300   9.779   4.831 -4.2984  2.0204  0.6670
  882MOL0     H16394   7.326   9.730   4.601 -0.7197  2.0811  2.7899
  882MOL0     H16395   7.264   9.562   4.624  0.6980  0.3877 -1.9965
  882MOL0     H16396   7.515   9.664   4.758  3.3490 -0.7792 -1.1091
  882MOL0     H16397   7.451   9.503   4.741  2.1022 -0.2331 -0.7748
  882MOL0     H16398   7.553   9.673   4.494 -1.4042  0.0793 -0.5765
  882MOL0     H16399   7.472   9.519   4.492 -2.1186  1.4379  1.4188
  882MOL0     H16400   7.641   9.412   4.627  0.2768  0.2316  0.3419
  882MOL0     H16401   7.733   9.556   4.646  3.0567 -3.4491  1.3075
  882MOL0     H16402   7.667   9.392   4.400  3.3160 -1.1157 -1.7742
  882MOL0     H16403   7.718   9.561   4.380 -0.6500  2.0675  1.2799
  882MOL0     H16404   7.919   9.485   4.545 -0.6224 -0.2701  0.4770
  882MOL0     H16405   7.922   9.427   4.377 -0.9379  0.2008 -0.2537
  882MOL0     H16406   6.837   9.744   4.847  1.9069 -1.6455  0.3225
  882MOL0     H16407   6.621   9.682   4.730  1.0662 -1.4578  0.5508
  882MOL0     H16408   6.434   9.791   4.250  0.1675  0.0141  1.7467
  882MOL0     H16409   6.242   9.715   4.096 -2.1848 -2.0002 -1.0709
  882MOL0     H16410   4.018   9.715   3.969  0.6543  1.6227 -2.0418
  882MOL0     H16411   3.836   9.589   3.917  1.7355  0.7465  1.5912
  882MOL0     H16412   3.787   9.162   3.630  0.1858  1.0882  1.8886
  882MOL0     H16413   3.630   8.999   3.540 -0.3536 -0.2906  2.1806
  882MOL0     H16414   3.456   8.858   3.551  0.2463 -0.5726  0.5471
  882MOL0     H16415   3.430   8.899   3.373  1.1989 -0.2444 -0.0131
  882MOL0     H16416   3.288   8.709   3.465  0.2413 -0.3769 -2.1259
  882MOL0     H16417   3.228   8.815   3.585  0.7619  0.7144  0.1570
  882MOL0     H16418   3.201   8.887   3.280 -0.6676 -0.6528 -0.0375
  882MOL0     H16419   3.107   8.951   3.401  0.6455  1.6640 -0.2269
  882MOL0     H16420   3.100   8.674   3.287 -0.1766 -0.2186  0.1035
  882MOL0     H16421   3.035   8.698   3.448  4.1391  2.2433  2.3220
  882MOL0     H16422   2.753   8.868   3.166  0.7271  1.5385 -0.1728
  882MOL0     H16423   3.300   9.258   3.612  0.9156  0.5109  1.1897
  882MOL0     H16424   3.458   9.443   3.685 -1.2986 -0.6655  1.1144
  883MOL0     O16425   0.049  10.039   6.547  0.6700  0.2966  0.1687
  883MOL0     C16426   0.131  10.034   6.642 -0.3451 -0.3224 -0.6047
  883MOL0     O16427   0.097  10.031   6.774  0.0898 -0.7531 -0.5559
  883MOL0     C16428  -0.030  10.027   6.814 -0.4745 -0.4818 -0.8975
  883MOL0     C16429  -0.113   9.907   6.819 -0.8302 -0.0468  0.2285
  883MOL0     C16430  -0.239   9.911   6.884  0.1097 -0.2808 -0.7664
  883MOL0     C16431  -0.281  10.029   6.946 -0.0561 -0.5204  0.4280
  883MOL0     O16432  -0.401  10.036   7.015  0.1817  0.0975 -0.2898
  883MOL0     C16433  -0.503   9.942   6.974  0.1324 -0.5212 -0.3883
  883MOL0     C16434  -0.638   9.992   7.022 -0.1593 -0.1958 -0.4083
  883MOL0     C16435  -0.750   9.906   6.967 -0.2544  0.3738 -0.4287
  883MOL0     C16436  -0.878   9.971   7.024  0.0604 -0.4498  0.0570
  883MOL0     C16437  -0.998   9.900   6.961  0.0422  0.0791 -0.1776
  883MOL0     C16438  -1.115   9.953   7.048  0.8810 -0.4086  0.1971
  883MOL0     C16439  -1.262   9.913   7.004  0.6850 -0.0574  0.4462
  883MOL0     C16440  -1.365   9.988   7.090 -0.2627 -0.0220 -0.5306
  883MOL0     N16441  -1.500   9.938   7.078  0.1367 -0.6244  0.4854
  883MOL0     C16442  -1.605   9.959   7.163  0.3821 -0.0194 -0.2660
  883MOL0     C16443  -1.720   9.904   7.116 -0.0266  0.8844 -0.6357
  883MOL0     C16444  -1.864   9.932   7.172 -0.7525  0.9549 -0.3642
  883MOL0     C16445  -1.970   9.835   7.121 -0.3467  0.8060  0.0087
  883MOL0     C16446  -2.099   9.886   7.173  0.3387 -0.6378  0.7752
  883MOL0     C16447  -2.218   9.803   7.133 -0.0229  0.0974 -0.0266
  883MOL0     O16448  -2.346   9.871   7.170 -0.2764  0.5109 -0.3980
  883MOL0     C16449  -2.462   9.796   7.167 -0.2495 -0.6497  0.6835
  883MOL0     C16450  -2.582   9.868   7.153  0.7700 -0.2625 -0.1874
  883MOL0     C16451  -2.708   9.801   7.137 -1.0192 -0.4891  0.3081
  883MOL0     C16452  -2.717   9.664   7.109  0.3685 -0.5529 -0.7465
  883MOL0     C16453  -2.846   9.592   7.078  0.1834  0.1749  0.4118
  883MOL0     O16454  -2.971   9.662   7.092  0.4080  0.1139  0.1260
  883MOL0     C16455  -3.100   9.616   7.097 -0.0988 -0.1682 -0.2993
  883MOL0     C16456  -3.135   9.483   7.097  0.1479  0.8119 -0.4100
  883MOL0     C16457  -3.268   9.447   7.090  0.2793 -0.2333 -0.0728
  883MOL0     C16458  -3.371   9.542   7.102 -0.0364 -0.2493 -0.3275
  883MOL0     O16459  -3.499   9.493   7.101 -0.2390 -0.1076  1.0179
  883MOL0     C16460  -3.610   9.579   7.145  0.2997  0.5651  0.0904
  883MOL0     C16461  -3.730   9.491   7.183 -0.0657 -0.7347  0.0341
  883MOL0     C16462  -3.831   9.547   7.274  0.2280  0.2667  0.5366
  883MOL0     C16463  -3.949   9.445   7.296 -0.8102 -0.9799  0.2664
  883MOL0     C16464  -4.039   9.490   7.416 -0.4115 -0.2822  0.1007
  883MOL0     C16465  -4.181   9.430   7.423 -0.3451 -0.6922  0.2373
  883MOL0     C16466  -4.192   9.278   7.427 -0.4530  0.4095  0.1847
  883MOL0     C16467  -4.332   9.230   7.466  0.3683  0.1937  0.2969
  883MOL0    Cl16468  -4.364   9.306   7.630  0.0080  0.2195 -0.0045
  883MOL0     C16469  -3.339   9.679   7.106  0.0423  0.1443 -0.0643
  883MOL0     C16470  -3.200   9.717   7.098 -0.2026 -0.5058 -0.3950
  883MOL0     O16471  -2.836   9.473   7.070  0.3670  0.0748 -0.0681
  883MOL0     C16472  -2.592   9.594   7.115 -0.5347 -0.7518 -0.8522
  883MOL0     C16473  -2.472   9.661   7.132 -0.1516 -0.6248 -0.0242
  883MOL0     N16474  -1.685   9.860   6.994 -0.3359  0.5266 -0.6727
  883MOL0     N16475  -1.554   9.879   6.972  0.2908  0.4058 -0.4475
  883MOL0     C16476  -0.203  10.141   6.942  0.0621  0.8329 -0.2444
  883MOL0     C16477  -0.077  10.139   6.879  0.6547 -0.7946  0.2182
  883MOL0     C16478   0.276  10.039   6.610 -0.2069 -0.7461 -0.0263
  883MOL0     C16479   0.371  10.022   6.717 -0.4749 -0.4171 -0.2474
  883MOL0     C16480   0.509  10.039   6.682 -0.2450  0.1919 -0.7078
  883MOL0     C16481   0.551  10.031   6.548 -0.2451  0.7471  0.2424
  883MOL0     O16482   0.685  10.031   6.514  0.4368 -0.4230  0.5284
  883MOL0     C16483   0.794  10.003   6.605 -0.5230 -0.4760 -0.5110
  883MOL0     C16484   0.878  10.130   6.613  0.2825 -0.1330  0.5670
  883MOL0     C16485   1.010  10.097   6.679  0.0189  0.2490  0.0893
  883MOL0     C16486   1.099  10.219   6.664  1.0572  0.3305 -0.8304
  883MOL0     C16487   1.212  10.208   6.756 -0.6495 -0.0255 -0.9378
  883MOL0     C16488   1.310  10.197   6.832 -0.7631  0.3172 -0.8024
  883MOL0     C16489   0.453  10.044   6.446 -0.6193 -0.2332  0.3074
  883MOL0     C16490   0.320  10.061   6.483 -0.0656  0.4690  1.2955
  883MOL0     H16491  -0.062   9.820   6.779  0.6064 -0.1107  2.0825
  883MOL0     H16492  -0.290   9.815   6.890 -1.1893  0.4587  1.5377
  883MOL0     H16493  -0.479   9.848   7.024 -1.1360 -1.8321 -2.0736
  883MOL0     H16494  -0.496   9.927   6.866  3.0910  1.0472 -0.5230
  883MOL0     H16495  -0.657  10.094   6.988  1.4849  0.8338  1.5990
  883MOL0     H16496  -0.645   9.977   7.130 -3.1295  0.4986 -0.4104
  883MOL0     H16497  -0.746   9.804   7.005 -1.1589  0.8187  0.9385
  883MOL0     H16498  -0.752   9.908   6.858  0.8427  2.3292 -0.4539
  883MOL0     H16499  -0.879   9.960   7.133  2.7323 -0.4079  0.1522
  883MOL0     H16500  -0.878  10.080   7.013  0.1856 -0.5849 -1.6745
  883MOL0     H16501  -0.996   9.790   6.964 -1.3666 -0.0679 -2.4162
  883MOL0     H16502  -1.018   9.929   6.858 -0.8990 -0.1279 -0.0595
  883MOL0     H16503  -1.124  10.062   7.050 -2.6392 -0.5606 -0.4726
  883MOL0     H16504  -1.099   9.925   7.153  1.0431  0.4368  0.4095
  883MOL0     H16505  -1.284   9.921   6.898 -2.3029 -2.2318  0.7879
  883MOL0     H16506  -1.265   9.805   7.023 -0.3035 -0.4268 -1.5991
  883MOL0     H16507  -1.357  10.094   7.066 -1.4764  0.1997 -0.0326
  883MOL0     H16508  -1.344   9.975   7.197 -0.7567  0.9335 -0.3057
  883MOL0     H16509  -1.597  10.021   7.253 -0.8549 -0.4797  0.1822
  883MOL0     H16510  -1.911  10.030   7.157 -1.1573  1.0247  1.1201
  883MOL0     H16511  -1.865   9.922   7.281  1.2952  2.5676 -0.1359
  883MOL0     H16512  -1.944   9.731   7.140  0.1969  1.0833  0.8377
  883MOL0     H16513  -1.956   9.834   7.012  3.4933  0.6514  0.3698
  883MOL0     H16514  -2.099   9.895   7.282 -1.0015  1.2870  0.6794
  883MOL0     H16515  -2.118   9.981   7.122  0.5094 -0.7612  0.4795
  883MOL0     H16516  -2.210   9.707   7.186 -1.3618 -0.8665 -1.5015
  883MOL0     H16517  -2.220   9.778   7.027  0.8222 -0.8511  0.1605
  883MOL0     H16518  -2.591   9.976   7.145 -1.7411 -0.4471 -0.7193
  883MOL0     H16519  -2.799   9.858   7.120  0.4755  1.7660 -0.6125
  883MOL0     H16520  -3.058   9.407   7.093  0.0375  0.7567 -1.9725
  883MOL0     H16521  -3.299   9.344   7.073  3.2062 -1.1948 -0.2047
  883MOL0     H16522  -3.627   9.658   7.072  2.6314  0.0039 -1.1572
  883MOL0     H16523  -3.585   9.635   7.236  2.0730 -0.6225  0.3968
  883MOL0     H16524  -3.698   9.410   7.248  1.4543 -3.2022 -3.4981
  883MOL0     H16525  -3.763   9.443   7.090 -1.0052  1.1112 -0.6566
  883MOL0     H16526  -3.860   9.639   7.222  2.8439  0.7765 -0.1992
  883MOL0     H16527  -3.779   9.560   7.369  0.2630 -1.8377  0.8593
  883MOL0     H16528  -4.005   9.445   7.202  1.1260  1.4060 -0.9976
  883MOL0     H16529  -3.918   9.342   7.317  2.7588  0.1688  1.2066
  883MOL0     H16530  -4.054   9.597   7.398 -0.0423 -0.6001 -2.4702
  883MOL0     H16531  -3.986   9.472   7.510  0.8957  1.3074 -0.2788
  883MOL0     H16532  -4.238   9.463   7.335  1.7633 -2.4785 -1.9348
  883MOL0     H16533  -4.231   9.474   7.510  1.0855 -0.4850  0.9904
  883MOL0     H16534  -4.168   9.229   7.332  0.5345 -1.0251  1.1477
  883MOL0     H16535  -4.112   9.254   7.496 -1.0107 -0.3725  0.5687
  883MOL0     H16536  -4.341   9.121   7.470 -3.9813  0.2772 -1.4156
  883MOL0     H16537  -4.404   9.260   7.390  0.5648 -2.5923 -1.0932
  883MOL0     H16538  -3.414   9.758   7.102 -0.8484 -0.7487 -3.0911
  883MOL0     H16539  -3.190   9.825   7.094 -5.2941  0.6094  4.2125
  883MOL0     H16540  -2.595   9.489   7.085 -0.0347 -0.0057 -3.7719
  883MOL0     H16541  -2.386   9.595   7.129 -0.5267 -1.5578  4.1322
  883MOL0     H16542  -0.233  10.230   6.996 -1.8650 -1.9598  3.8031
  883MOL0     H16543  -0.023  10.233   6.884 -1.7203  0.9692 -3.1237
  883MOL0     H16544   0.331  10.006   6.816 -2.2267  2.2908 -0.4166
  883MOL0     H16545   0.579  10.041   6.765 -0.2637  0.0038 -0.6868
  883MOL0     H16546   0.863   9.934   6.554  1.1983  3.0607 -3.4557
  883MOL0     H16547   0.765   9.963   6.702 -2.3550  0.4268 -0.6534
  883MOL0     H16548   0.896  10.170   6.512  0.0929 -1.1308  0.1192
  883MOL0     H16549   0.829  10.203   6.677  0.6369 -0.5216  1.2955
  883MOL0     H16550   1.045  10.013   6.618  1.5909  2.0549 -1.6205
  883MOL0     H16551   0.993  10.076   6.785  1.4339 -0.5825  0.1898
  883MOL0     H16552   1.130  10.229   6.560  0.6184 -1.9874 -1.2404
  883MOL0     H16553   1.046  10.312   6.683 -1.6114 -1.3113  0.4172
  883MOL0     H16554   1.395  10.189   6.897 -0.5486  1.7085 -0.8835
  883MOL0     H16555   0.472  10.039   6.339 -2.1694 -3.5151  0.0679
  883MOL0     H16556   0.246  10.063   6.403  0.0239 -0.2982  1.1843
  884MOL0     O16557  10.816   9.454   6.513 -0.6482  0.6209 -0.3501
  884MOL0     C16558  10.853   9.474   6.631 -0.7003 -1.7038  1.5341
  884MOL0     O16559  10.775   9.512   6.729 -0.0002 -0.3897 -0.4299
  884MOL0     C16560  10.638   9.513   6.714  0.3427 -0.0074  0.7503
  884MOL0     C16561  10.574   9.401   6.661 -0.4153  0.4699 -0.3552
  884MOL0     C16562  10.435   9.407   6.633 -0.7920  0.3300  0.0639
  884MOL0     C16563  10.360   9.517   6.649 -0.4671 -0.0580 -0.9792
  884MOL0     O16564  10.228   9.517   6.616 -0.1221  0.5023  0.2407
  884MOL0     C16565  10.134   9.619   6.649 -0.3117 -0.1656  0.7686
  884MOL0     C16566  10.023   9.621   6.549 -0.1790 -0.7874  0.3745
  884MOL0     C16567   9.929   9.742   6.569 -0.3219  0.0863  0.5425
  884MOL0     C16568   9.816   9.756   6.460 -0.9476 -0.5109 -1.1121
  884MOL0     C16569   9.709   9.649   6.485  0.0981  0.3023  0.0506
  884MOL0     C16570   9.588   9.665   6.397 -0.0518  0.0282  0.2406
  884MOL0     C16571   9.479   9.574   6.444 -0.3391  0.1417  0.1498
  884MOL0     C16572   9.341   9.625   6.396  0.6641  0.9614 -0.4836
  884MOL0     N16573   9.245   9.512   6.395  0.1791 -0.4655  0.1996
  884MOL0     C16574   9.191   9.446   6.515  0.0013 -0.8068  0.4941
  884MOL0     C16575   9.130   9.340   6.460 -0.2068 -0.5301  0.5799
  884MOL0     C16576   9.057   9.229   6.528  0.0136 -0.2759 -0.1499
  884MOL0     C16577   8.898   9.228   6.521 -0.7992 -0.0188 -0.1116
  884MOL0     C16578   8.837   9.346   6.431 -0.7495 -0.2560 -0.7160
  884MOL0     C16579   8.685   9.365   6.434 -0.1593  0.0061  0.4125
  884MOL0     O16580   8.642   9.408   6.567 -0.3584 -0.3614 -0.0055
  884MOL0     C16581   8.511   9.410   6.595 -0.2278  0.8350  0.4404
  884MOL0     C16582   8.419   9.390   6.489 -0.0572 -0.1646  0.7110
  884MOL0     C16583   8.278   9.380   6.522 -0.1159 -1.0562  0.5350
  884MOL0     C16584   8.223   9.400   6.649  0.3440 -0.7928 -0.3989
  884MOL0     C16585   8.083   9.383   6.682  0.9312  0.6231  0.7286
  884MOL0     O16586   7.997   9.385   6.578 -0.3949  0.5987 -0.2500
  884MOL0     C16587   7.863   9.368   6.594  0.1871  0.6868  0.4321
  884MOL0     C16588   7.775   9.370   6.705  0.0331  0.3951  0.2268
  884MOL0     C16589   7.639   9.344   6.697 -0.1213  0.7871  0.6568
  884MOL0     C16590   7.583   9.313   6.574  0.2504 -0.2086 -0.2016
  884MOL0     O16591   7.451   9.295   6.569  0.2461 -0.1745 -0.3349
  884MOL0     C16592   7.423   9.177   6.494  0.6550  0.1910 -0.3105
  884MOL0     C16593   7.310   9.100   6.556 -0.3932 -0.0795 -0.6194
  884MOL0     C16594   7.325   9.070   6.707  0.6158  0.0717 -0.4145
  884MOL0     C16595   7.194   9.063   6.771  0.5233  0.2124 -0.8157
  884MOL0     C16596   7.196   9.029   6.919 -0.1324 -0.1827  0.4580
  884MOL0     C16597   7.056   9.047   6.981 -0.3577  0.3849  0.3559
  884MOL0     C16598   7.007   9.193   6.986 -0.8201 -0.1467  0.4482
  884MOL0     C16599   6.871   9.202   7.050 -1.1797  0.1251 -0.3346
  884MOL0    Cl16600   6.741   9.170   6.918 -0.2863 -0.5828  0.1944
  884MOL0     C16601   7.658   9.311   6.463 -0.8818 -0.0911  0.1684
  884MOL0     C16602   7.800   9.334   6.470 -0.0649  0.0461 -0.2157
  884MOL0     O16603   8.052   9.359   6.802 -0.6024 -0.6574  0.1536
  884MOL0     C16604   8.321   9.422   6.746  0.0124  0.0302 -0.6608
  884MOL0     C16605   8.456   9.416   6.722  0.0745  0.1537 -0.3768
  884MOL0     N16606   9.133   9.345   6.329 -0.8225  0.0797 -0.0816
  884MOL0     N16607   9.202   9.448   6.287  0.1241 -0.0755 -0.1081
  884MOL0     C16608  10.415   9.630   6.715  0.4398  0.0945  0.1609
  884MOL0     C16609  10.558   9.625   6.740  0.2238 -0.3238  0.8415
  884MOL0     C16610  10.994   9.476   6.655  0.8339 -0.1122 -0.5370
  884MOL0     C16611  11.052   9.491   6.779 -0.2773 -0.0463  0.3428
  884MOL0     C16612  11.190   9.515   6.798 -0.2039  0.6786 -1.2471
  884MOL0     C16613  11.282   9.514   6.694  0.3089 -0.2422 -0.2591
  884MOL0     O16614  11.415   9.535   6.700 -0.0115  0.2717 -0.4502
  884MOL0     C16615  11.471   9.580   6.816 -0.5786 -0.6886 -0.3448
  884MOL0     C16616  11.620   9.627   6.797  0.0783  0.5390 -0.8084
  884MOL0     C16617  11.705   9.496   6.795  0.3335 -0.2958 -0.4963
  884MOL0     C16618  11.853   9.530   6.753  0.5434  0.0503  0.3060
  884MOL0     C16619  11.933   9.586   6.863 -0.1055 -0.1461 -0.5365
  884MOL0     C16620  12.003   9.630   6.956  0.8575 -0.0842  0.0926
  884MOL0     C16621  11.219   9.504   6.567  0.2011 -0.6318 -0.3644
  884MOL0     C16622  11.084   9.489   6.549  0.9448  0.0372  0.6051
  884MOL0     H16623  10.637   9.315   6.645 -1.0784  0.2271 -1.9364
  884MOL0     H16624  10.378   9.331   6.581 -1.0414  0.5018  0.0864
  884MOL0     H16625  10.177   9.719   6.638  3.0203 -1.7874 -3.5505
  884MOL0     H16626  10.101   9.592   6.750 -2.2728 -2.3108 -0.3358
  884MOL0     H16627   9.966   9.527   6.555 -0.0571 -0.7870  2.0086
  884MOL0     H16628  10.063   9.633   6.448  0.4670 -0.9841  0.5982
  884MOL0     H16629   9.996   9.826   6.550 -1.0038  0.2837 -1.1657
  884MOL0     H16630   9.894   9.743   6.673 -0.1785 -1.8531  0.6533
  884MOL0     H16631   9.765   9.850   6.480  1.1625  0.2910  0.9463
  884MOL0     H16632   9.862   9.766   6.361  2.8774  0.0582  0.5298
  884MOL0     H16633   9.677   9.654   6.589  1.2447  1.5304  0.3708
  884MOL0     H16634   9.749   9.548   6.470  0.4083  0.3789  0.3759
  884MOL0     H16635   9.594   9.645   6.290  1.2566 -0.7496  0.4492
  884MOL0     H16636   9.555   9.770   6.402 -0.9992 -0.2175 -0.5282
  884MOL0     H16637   9.512   9.479   6.402 -0.0849 -1.1254  2.9892
  884MOL0     H16638   9.476   9.558   6.552 -0.1328 -3.4505 -0.2539
  884MOL0     H16639   9.342   9.663   6.294  3.5573 -1.8715 -1.7036
  884MOL0     H16640   9.314   9.706   6.464  2.0372  0.5246  0.6473
  884MOL0     H16641   9.202   9.459   6.622  3.6311 -0.9826  0.2368
  884MOL0     H16642   9.090   9.224   6.633  3.1841  0.7232 -0.9811
  884MOL0     H16643   9.080   9.127   6.496 -2.7916 -1.1581  0.3926
  884MOL0     H16644   8.861   9.224   6.624 -2.0634  0.6353 -0.5208
  884MOL0     H16645   8.870   9.137   6.467 -0.5424  0.2627 -0.7257
  884MOL0     H16646   8.887   9.438   6.463  1.0614 -0.7677 -1.8424
  884MOL0     H16647   8.863   9.330   6.325  0.7418  1.0251 -0.5934
  884MOL0     H16648   8.636   9.269   6.414  0.3563 -0.4452  1.2483
  884MOL0     H16649   8.656   9.438   6.358 -2.0569 -1.1972 -0.0922
  884MOL0     H16650   8.448   9.381   6.385  1.9873 -1.5546  1.3340
  884MOL0     H16651   8.211   9.370   6.437  1.1893 -0.5884 -0.5769
  884MOL0     H16652   7.802   9.400   6.805  2.1116 -0.4448 -0.0147
  884MOL0     H16653   7.577   9.339   6.786  1.7073 -1.3795  1.9194
  884MOL0     H16654   7.507   9.107   6.490 -0.4622 -1.9014  4.7634
  884MOL0     H16655   7.414   9.211   6.391 -0.0788 -1.3112 -0.7628
  884MOL0     H16656   7.302   9.006   6.499  0.6549 -0.3496 -0.3483
  884MOL0     H16657   7.223   9.164   6.541  1.1657  1.8830 -1.7083
  884MOL0     H16658   7.394   9.136   6.760 -0.3886  0.8897 -0.1045
  884MOL0     H16659   7.379   8.975   6.719  1.7102  0.3759 -2.3656
  884MOL0     H16660   7.146   9.159   6.750  0.9738  0.7475  0.4951
  884MOL0     H16661   7.134   8.983   6.726  2.6608 -2.0438  0.0847
  884MOL0     H16662   7.269   9.095   6.967 -0.5015  0.7786 -0.2593
  884MOL0     H16663   7.218   8.926   6.947  0.0823 -0.3150 -0.1853
  884MOL0     H16664   7.064   9.009   7.083  0.8302  2.0263  0.9165
  884MOL0     H16665   6.977   8.991   6.931  0.6237  0.1741 -0.9978
  884MOL0     H16666   7.083   9.253   7.038 -0.7105 -0.1076  0.2435
  884MOL0     H16667   6.993   9.232   6.885 -0.9997 -0.9414  0.1628
  884MOL0     H16668   6.856   9.304   7.086  1.0432 -0.1523  1.5590
  884MOL0     H16669   6.869   9.126   7.129 -0.9540 -0.0946 -0.5359
  884MOL0     H16670   7.616   9.301   6.363 -2.4300 -1.5265  0.8967
  884MOL0     H16671   7.840   9.327   6.369 -1.4061 -2.1377 -0.6626
  884MOL0     H16672   8.283   9.432   6.848  0.0232  0.2666 -0.6810
  884MOL0     H16673   8.525   9.428   6.804 -0.4720 -3.8379  0.9076
  884MOL0     H16674  10.357   9.719   6.738 -0.2211 -0.8223  2.2639
  884MOL0     H16675  10.617   9.700   6.793 -2.9019  1.3708  2.2369
  884MOL0     H16676  11.000   9.496   6.874  1.5138  0.4810  1.3530
  884MOL0     H16677  11.229   9.530   6.898 -2.7740  1.1793 -0.2313
  884MOL0     H16678  11.458   9.513   6.901  1.0991  0.7509  1.1219
  884MOL0     H16679  11.410   9.667   6.842 -0.6006 -0.2952 -1.6489
  884MOL0     H16680  11.629   9.678   6.701 -0.8912  1.6175 -0.3522
  884MOL0     H16681  11.649   9.706   6.867  3.8329  0.2294 -1.8067
  884MOL0     H16682  11.677   9.410   6.734 -0.6766 -0.0844 -0.3640
  884MOL0     H16683  11.688   9.465   6.898 -1.6959  2.6504  0.1965
  884MOL0     H16684  11.902   9.438   6.720 -1.2078 -1.2971  1.2861
  884MOL0     H16685  11.856   9.610   6.678  2.7628 -0.1983  0.0793
  884MOL0     H16686  12.071   9.664   7.031  2.4290 -2.8472  0.0471
  884MOL0     H16687  11.288   9.502   6.483  0.9760 -3.4258  0.2520
  884MOL0     H16688  11.055   9.483   6.445 -0.5585 -1.5685  1.0712
  885MOL0     O16689  10.227   8.981   5.359  0.0488  0.0228 -0.1866
  885MOL0     C16690  10.233   8.892   5.442 -0.1672  0.0037  0.7259
  885MOL0     O16691  10.338   8.821   5.476  0.0865  0.1725 -0.1061
  885MOL0     C16692  10.477   8.861   5.461  0.4945  0.7373 -0.1673
  885MOL0     C16693  10.566   8.833   5.558 -0.2403  0.2808  0.0855
  885MOL0     C16694  10.709   8.840   5.541 -0.4729 -0.4564  0.8509
  885MOL0     C16695  10.762   8.887   5.411 -0.3081  0.3315 -0.6662
  885MOL0     O16696  10.890   8.896   5.374  0.1651  0.0975 -0.4765
  885MOL0     C16697  10.986   8.892   5.476  0.1353  0.3581  0.1966
  885MOL0     C16698  11.109   8.846   5.405 -0.2109 -0.2411 -0.3377
  885MOL0     C16699  11.227   8.849   5.506 -0.0027  0.1486 -0.3227
  885MOL0     C16700  11.360   8.803   5.452 -0.0384 -0.6229 -0.2626
  885MOL0     C16701  11.470   8.807   5.556 -0.2329  0.1389  0.3709
  885MOL0     C16702  11.606   8.812   5.480  0.1556 -0.1223  0.7611
  885MOL0     C16703  11.715   8.848   5.579  0.3783 -0.5690  0.3733
  885MOL0     C16704  11.849   8.870   5.517  0.7775  0.1495 -0.1568
  885MOL0     N16705  11.952   8.914   5.606 -0.1378 -0.3623  0.2435
  885MOL0     C16706  11.952   9.035   5.666 -0.3284  0.4454  0.0662
  885MOL0     C16707  12.048   9.026   5.758  0.6053  0.7700 -0.8819
  885MOL0     C16708  12.082   9.141   5.850 -0.8843 -0.0134 -0.6939
  885MOL0     C16709  12.152   9.103   5.987  0.0118  0.5147 -0.6814
  885MOL0     C16710  12.073   9.011   6.084  0.0772 -0.3829 -0.3017
  885MOL0     C16711  11.934   9.070   6.116 -0.6028 -0.6130  1.0651
  885MOL0     O16712  11.847   9.041   6.005  0.0180  0.5966 -0.6441
  885MOL0     C16713  11.724   9.107   6.019  0.0802  0.4304 -0.0521
  885MOL0     C16714  11.655   9.145   5.901  0.4519  0.6436  0.1539
  885MOL0     C16715  11.529   9.203   5.904  0.9731  0.3471 -0.0860
  885MOL0     C16716  11.469   9.239   6.024 -0.2651 -0.0270 -0.6503
  885MOL0     C16717  11.346   9.323   6.028  0.6099 -0.7791  0.8493
  885MOL0     O16718  11.274   9.328   5.911 -0.1652  0.2990  0.4106
  885MOL0     C16719  11.142   9.376   5.905 -0.1388 -0.6508 -0.3415
  885MOL0     C16720  11.105   9.413   5.776 -0.1344 -0.1815 -0.4263
  885MOL0     C16721  10.988   9.490   5.762  0.3501  0.3832 -0.4338
  885MOL0     C16722  10.903   9.532   5.867  0.4748  0.4173 -0.0391
  885MOL0     O16723  10.782   9.595   5.830  0.3877 -0.0278 -0.1992
  885MOL0     C16724  10.714   9.652   5.949 -0.4790  0.6901 -0.5256
  885MOL0     C16725  10.611   9.758   5.912  0.2535 -0.1127  0.0234
  885MOL0     C16726  10.655   9.861   5.811 -0.6375  0.0390 -0.6211
  885MOL0     C16727  10.583  10.002   5.835  1.3550  0.8536 -0.1290
  885MOL0     C16728  10.430   9.976   5.808 -0.1978  0.1212 -0.2561
  885MOL0     C16729  10.347  10.096   5.862 -0.7960 -0.2679 -0.0716
  885MOL0     C16730  10.193  10.069   5.868  0.2480  0.3695 -0.9511
  885MOL0     C16731  10.114  10.195   5.911 -0.0598 -0.0840 -0.0747
  885MOL0    Cl16732  10.135  10.325   5.788 -0.2345 -0.5289 -0.1881
  885MOL0     C16733  10.944   9.481   5.998  0.7153 -0.4269 -0.2939
  885MOL0     C16734  11.061   9.411   6.015  0.3474  0.6098 -0.9857
  885MOL0     O16735  11.320   9.394   6.127  0.2309  0.4914 -0.4954
  885MOL0     C16736  11.542   9.211   6.142 -0.3070 -0.0028 -0.0791
  885MOL0     C16737  11.671   9.149   6.137  0.5556  1.0294 -0.0251
  885MOL0     N16738  12.104   8.900   5.765  0.4468  0.1662  0.3540
  885MOL0     N16739  12.045   8.833   5.671  0.0474 -0.3375  0.0450
  885MOL0     C16740  10.662   8.909   5.312 -0.0231  0.0762  0.3292
  885MOL0     C16741  10.522   8.899   5.335  0.7079  0.4018 -0.1409
  885MOL0     C16742  10.102   8.841   5.497  0.8617  0.3937 -0.6234
  885MOL0     C16743   9.992   8.919   5.498 -0.2168  1.1386 -0.2553
  885MOL0     C16744   9.872   8.879   5.555  0.1760 -0.6739  0.2268
  885MOL0     C16745   9.865   8.749   5.615  0.1460 -0.4824 -0.1685
  885MOL0     O16746   9.751   8.729   5.689 -0.8143  0.1744  0.0294
  885MOL0     C16747   9.742   8.618   5.775 -0.4189  0.7610 -0.1261
  885MOL0     C16748   9.617   8.533   5.738 -0.1485  0.5797  0.5822
  885MOL0     C16749   9.602   8.416   5.829 -0.0670  1.3955 -0.1921
  885MOL0     C16750   9.476   8.430   5.910 -1.1281  0.0795 -0.6195
  885MOL0     C16751   9.487   8.552   5.987  0.4058 -1.4737  0.9466
  885MOL0     C16752   9.489   8.659   6.046 -0.3958  0.2348 -0.5317
  885MOL0     C16753   9.982   8.668   5.614 -0.0394 -0.0145 -1.0319
  885MOL0     C16754  10.103   8.714   5.558  1.1212  0.1009  0.0187
  885MOL0     H16755  10.526   8.778   5.643  2.0102 -0.3408  0.8055
  885MOL0     H16756  10.777   8.808   5.619 -1.5558 -1.2247  1.5056
  885MOL0     H16757  10.963   8.813   5.549 -3.1321 -0.3951 -1.4766
  885MOL0     H16758  11.014   8.988   5.520  1.2211 -0.6908  1.9300
  885MOL0     H16759  11.136   8.915   5.324 -1.1088  0.6145  0.0586
  885MOL0     H16760  11.080   8.748   5.366 -0.1262 -1.4461  2.4412
  885MOL0     H16761  11.196   8.786   5.590 -0.2990  2.6870  1.5770
  885MOL0     H16762  11.241   8.947   5.552 -0.2381 -0.7258  1.7377
  885MOL0     H16763  11.353   8.698   5.420 -1.5490 -0.5514 -0.2325
  885MOL0     H16764  11.373   8.856   5.357 -1.6787 -0.1006 -0.2304
  885MOL0     H16765  11.452   8.721   5.620  1.0142 -1.2946 -1.1006
  885MOL0     H16766  11.456   8.898   5.615 -1.9376  0.7683 -0.9058
  885MOL0     H16767  11.593   8.893   5.407  1.8372 -2.2610 -2.1256
  885MOL0     H16768  11.631   8.721   5.424  0.7007  1.2402 -1.3603
  885MOL0     H16769  11.692   8.945   5.623  2.4007 -0.4535  1.2821
  885MOL0     H16770  11.714   8.771   5.657 -2.2153 -0.8643  0.1057
  885MOL0     H16771  11.836   8.946   5.439  0.6487 -1.9444 -2.3027
  885MOL0     H16772  11.875   8.776   5.466  0.4152  0.5046 -1.0032
  885MOL0     H16773  11.901   9.130   5.653  0.1925  1.0360  1.9459
  885MOL0     H16774  11.987   9.188   5.875  0.8095  1.9254  2.8506
  885MOL0     H16775  12.145   9.214   5.797 -1.3986 -0.9006 -2.6466
  885MOL0     H16776  12.173   9.192   6.046  0.1846 -0.1051  0.2192
  885MOL0     H16777  12.250   9.057   5.969  0.4771  1.7838 -1.5263
  885MOL0     H16778  12.073   8.911   6.039 -2.0036 -0.7852  0.4566
  885MOL0     H16779  12.135   9.003   6.174 -0.1322 -1.1723 -0.2151
  885MOL0     H16780  11.947   9.179   6.120  0.6653 -0.6483 -0.7321
  885MOL0     H16781  11.915   9.017   6.210  1.6253 -3.0229  0.2983
  885MOL0     H16782  11.707   9.121   5.809 -1.4543  0.5553 -0.9584
  885MOL0     H16783  11.484   9.229   5.809 -0.9329  0.3220  0.7555
  885MOL0     H16784  11.167   9.391   5.690  1.2537 -2.0525  0.9551
  885MOL0     H16785  10.972   9.521   5.659  0.7291  0.9413 -0.3270
  885MOL0     H16786  10.774   9.701   6.026 -2.0760  1.7366  0.1168
  885MOL0     H16787  10.663   9.567   5.995 -0.0792 -0.6030 -2.3534
  885MOL0     H16788  10.555   9.803   5.994  0.0951 -0.5377  0.1477
  885MOL0     H16789  10.530   9.703   5.864  0.3057 -0.3266  0.1798
  885MOL0     H16790  10.649   9.814   5.712 -0.4893 -1.9030  0.2486
  885MOL0     H16791  10.761   9.867   5.833 -0.4855 -1.2409 -0.9268
  885MOL0     H16792  10.587  10.024   5.942 -0.2608 -4.6524  1.4174
  885MOL0     H16793  10.630  10.079   5.773  1.4236  0.3857 -0.6659
  885MOL0     H16794  10.392   9.887   5.860 -2.1530  1.8760  1.4698
  885MOL0     H16795  10.413   9.962   5.701 -0.1064 -0.5221 -0.1951
  885MOL0     H16796  10.369  10.186   5.803 -1.5826 -0.4441 -0.6565
  885MOL0     H16797  10.381  10.111   5.965 -2.5374  2.0432  0.2455
  885MOL0     H16798  10.150  10.035   5.774 -2.1853 -0.4631  0.3883
  885MOL0     H16799  10.172   9.990   5.941 -1.0234  0.4611 -1.2056
  885MOL0     H16800  10.152  10.238   6.004  2.4816  0.4452 -1.2814
  885MOL0     H16801  10.007  10.172   5.919  0.3779 -3.4897 -1.9483
  885MOL0     H16802  10.888   9.500   6.089  2.3980 -0.4650  0.7829
  885MOL0     H16803  11.087   9.402   6.120 -0.6447 -4.3323 -0.9396
  885MOL0     H16804  11.508   9.242   6.240  0.0055 -0.0235  0.0364
  885MOL0     H16805  11.727   9.131   6.229  0.2636 -0.7359 -0.1523
  885MOL0     H16806  10.694   8.918   5.209 -3.0986 -0.5506 -0.8015
  885MOL0     H16807  10.445   8.908   5.260  0.5454 -1.0394 -0.1805
  885MOL0     H16808  10.003   9.014   5.446 -0.1917  1.8117  0.9365
  885MOL0     H16809   9.782   8.938   5.549 -1.3371 -2.9461 -0.6086
  885MOL0     H16810   9.740   8.659   5.876 -1.9206 -2.3030  1.2142
  885MOL0     H16811   9.833   8.557   5.779 -0.1944  1.1402  0.8384
  885MOL0     H16812   9.521   8.585   5.732 -1.0858 -1.2883 -2.5848
  885MOL0     H16813   9.622   8.498   5.635 -0.7321 -1.6612  1.2654
  885MOL0     H16814   9.686   8.411   5.899 -0.8892  1.3094  0.8016
  885MOL0     H16815   9.599   8.318   5.780 -2.2530  0.6295  1.3450
  885MOL0     H16816   9.392   8.428   5.841 -0.5786  3.9001 -1.6218
  885MOL0     H16817   9.468   8.345   5.978  3.7213 -1.1454 -1.1409
  885MOL0     H16818   9.486   8.754   6.096  1.9248  0.2258 -0.2817
  885MOL0     H16819   9.969   8.565   5.647 -1.1264  0.4215 -0.0390
  885MOL0     H16820  10.185   8.647   5.538  3.7882  1.0880  5.5845
  886MOL0     O16821   6.955  10.749   2.641  0.1899 -0.2766  0.1531
  886MOL0     C16822   6.877  10.839   2.679 -0.8180  0.1767  0.8226
  886MOL0     O16823   6.735  10.837   2.675  0.2927  0.2879 -0.0557
  886MOL0     C16824   6.663  10.756   2.581  0.0847  0.1814 -0.7067
  886MOL0     C16825   6.717  10.697   2.465  0.0953 -0.0185  0.0494
  886MOL0     C16826   6.628  10.650   2.364 -0.4623 -0.2780  0.2448
  886MOL0     C16827   6.487  10.638   2.388  0.3934 -0.1223  0.0851
  886MOL0     O16828   6.398  10.575   2.301  0.3039 -0.5268 -0.0245
  886MOL0     C16829   6.434  10.567   2.163 -0.2942 -0.1074 -0.4849
  886MOL0     C16830   6.330  10.483   2.094 -0.5621 -0.0342  0.3628
  886MOL0     C16831   6.294  10.530   1.950 -0.1742 -0.3843  0.4321
  886MOL0     C16832   6.204  10.422   1.904 -0.3851  0.1534  0.9101
  886MOL0     C16833   6.112  10.480   1.795 -0.5073  0.4380 -0.0684
  886MOL0     C16834   6.022  10.378   1.718  0.8103 -0.2091 -0.1989
  886MOL0     C16835   6.100  10.330   1.592  0.1667  0.7290  0.3026
  886MOL0     C16836   6.033  10.199   1.531  0.0058 -0.2025  0.1061
  886MOL0     N16837   5.930  10.245   1.430 -0.0911 -0.1073 -0.2456
  886MOL0     C16838   5.922  10.192   1.308  0.7305  0.3124  0.4417
  886MOL0     C16839   5.839  10.271   1.232 -0.2577 -0.1558  1.7336
  886MOL0     C16840   5.802  10.261   1.091  0.0096 -0.4418  0.4561
  886MOL0     C16841   5.661  10.210   1.070 -0.3052  0.4669 -0.0536
  886MOL0     C16842   5.600  10.252   0.938 -0.0183 -0.2031  0.1765
  886MOL0     C16843   5.486  10.158   0.897  0.7996 -0.3661 -0.0607
  886MOL0     O16844   5.360  10.178   0.967 -0.6591 -0.2802 -0.5418
  886MOL0     C16845   5.239  10.160   0.909  0.2071  1.2451  0.6594
  886MOL0     C16846   5.121  10.198   0.981  0.7718 -0.4220 -0.7509
  886MOL0     C16847   4.992  10.185   0.924 -0.0560 -0.3257  0.3841
  886MOL0     C16848   4.969  10.121   0.800 -0.0270  0.6065 -0.1332
  886MOL0     C16849   4.832  10.087   0.748 -0.8072 -0.7716 -0.5216
  886MOL0     O16850   4.815  10.053   0.616  0.2943  0.4082  0.2460
  886MOL0     C16851   4.699   9.994   0.580 -0.7159  0.0832 -0.8992
  886MOL0     C16852   4.706   9.866   0.525 -0.1084  0.9716 -0.0170
  886MOL0     C16853   4.588   9.807   0.467 -0.0838  0.4794 -0.9642
  886MOL0     C16854   4.467   9.877   0.464 -0.2366 -0.0737  0.4991
  886MOL0     O16855   4.355   9.818   0.408  0.4570  0.2938 -0.1863
  886MOL0     C16856   4.247   9.898   0.364 -0.2964 -0.3614  0.8410
  886MOL0     C16857   4.156   9.797   0.299  0.4547 -0.2364  0.0833
  886MOL0     C16858   4.015   9.858   0.277  0.0855 -0.5806 -0.0323
  886MOL0     C16859   3.976   9.930   0.145 -0.1726 -0.0119  0.6082
  886MOL0     C16860   3.828   9.932   0.120 -0.4398 -0.7109 -0.5647
  886MOL0     C16861   3.744  10.010   0.235 -0.1845 -0.2568 -0.5237
  886MOL0     C16862   3.592  10.018   0.188  0.2028 -0.0360 -0.5895
  886MOL0     C16863   3.540   9.878   0.190  0.3149 -0.4761 -0.0442
  886MOL0    Cl16864   3.354   9.880   0.216 -0.0577 -0.1360 -0.4623
  886MOL0     C16865   4.462  10.002   0.530  0.5880  0.9949  0.1217
  886MOL0     C16866   4.579  10.060   0.582  0.0405  0.3377 -0.6165
  886MOL0     O16867   4.742  10.083   0.834  0.2059 -0.3012 -0.4534
  886MOL0     C16868   5.084  10.083   0.730 -1.2853  0.9561 -0.7405
  886MOL0     C16869   5.211  10.104   0.783  0.1905  0.4208  0.3319
  886MOL0     N16870   5.804  10.378   1.319  0.3473  0.7229  0.0370
  886MOL0     N16871   5.856  10.357   1.438 -0.4868  0.2620 -0.1934
  886MOL0     C16872   6.434  10.702   2.500 -0.4992  0.3639 -0.2315
  886MOL0     C16873   6.526  10.760   2.597 -1.4323 -0.2555  0.5277
  886MOL0     C16874   6.946  10.959   2.739 -0.0676  0.2254 -0.3517
  886MOL0     C16875   6.869  11.072   2.769 -0.3999  0.1536  0.6033
  886MOL0     C16876   6.926  11.170   2.854 -0.2389 -0.0923 -0.1444
  886MOL0     C16877   7.061  11.160   2.897 -0.1399  0.4189  0.3790
  886MOL0     O16878   7.112  11.256   2.979 -0.0086  0.0997 -0.6699
  886MOL0     C16879   7.163  11.204   3.100 -0.2280  1.2808  0.0899
  886MOL0     C16880   7.163  11.313   3.200  0.4155  0.5770  0.1560
  886MOL0     C16881   7.027  11.361   3.248 -0.9971  0.1551  0.0287
  886MOL0     C16882   7.052  11.458   3.364  0.1598  0.2918  0.1139
  886MOL0     C16883   7.079  11.593   3.316  1.2694 -0.0888 -0.4315
  886MOL0     C16884   7.092  11.709   3.270 -0.2164  0.5598 -0.0502
  886MOL0     C16885   7.131  11.043   2.866 -0.0702  0.5092 -0.4845
  886MOL0     C16886   7.083  10.944   2.781 -0.5954 -0.1513 -0.1181
  886MOL0     H16887   6.822  10.711   2.440  1.3427 -3.9948  2.1824
  886MOL0     H16888   6.676  10.617   2.272 -1.3339 -2.7314  0.5956
  886MOL0     H16889   6.535  10.536   2.134 -0.5133  0.2897 -1.7197
  886MOL0     H16890   6.405  10.667   2.129 -1.3325 -0.6558 -1.2813
  886MOL0     H16891   6.236  10.511   2.144  0.0654 -1.1071  2.2728
  886MOL0     H16892   6.357  10.377   2.098  0.0138  0.0957 -0.0820
  886MOL0     H16893   6.388  10.540   1.896 -1.6642  2.6237 -1.8966
  886MOL0     H16894   6.242  10.626   1.963  0.4472 -0.2974  2.7074
  886MOL0     H16895   6.266  10.341   1.864 -0.1425  0.7661 -0.0118
  886MOL0     H16896   6.135  10.397   1.984 -0.7886  0.9328  0.8121
  886MOL0     H16897   6.172  10.526   1.716  0.2561 -1.6873 -0.8156
  886MOL0     H16898   6.050  10.554   1.846  1.5585  1.4819  1.0635
  886MOL0     H16899   5.933  10.430   1.683  0.5963  0.2202  0.9291
  886MOL0     H16900   5.995  10.293   1.781  1.9052  0.4583  1.2284
  886MOL0     H16901   6.115  10.410   1.519 -0.5541  0.6187  0.0311
  886MOL0     H16902   6.193  10.278   1.619  1.2861  1.5189 -1.8097
  886MOL0     H16903   5.982  10.150   1.614 -0.2812  0.8761  0.5899
  886MOL0     H16904   6.112  10.137   1.487  1.9949 -0.3894  3.5839
  886MOL0     H16905   5.967  10.102   1.266 -2.0842 -1.2789  0.6643
  886MOL0     H16906   5.877  10.200   1.040  1.4293 -1.2727  3.3678
  886MOL0     H16907   5.816  10.364   1.055  0.9952 -0.1719  1.5614
  886MOL0     H16908   5.586  10.244   1.143  0.1759 -2.2796  1.8947
  886MOL0     H16909   5.662  10.102   1.086  0.1807  0.4983  0.1435
  886MOL0     H16910   5.563  10.355   0.939  1.0660  0.1911  0.1139
  886MOL0     H16911   5.674  10.232   0.860 -2.3122 -4.2859 -1.2994
  886MOL0     H16912   5.509  10.054   0.922  0.2592 -1.1631 -2.5458
  886MOL0     H16913   5.466  10.151   0.789 -0.0264 -4.4725  0.1903
  886MOL0     H16914   5.134  10.232   1.083 -1.1071 -0.1801 -0.5561
  886MOL0     H16915   4.899  10.210   0.975  0.0229 -0.4712  0.6033
  886MOL0     H16916   4.799   9.811   0.531 -0.4334  0.4349  0.1793
  886MOL0     H16917   4.585   9.711   0.415  0.2989  0.3012 -0.6607
  886MOL0     H16918   4.281   9.973   0.293 -0.7509 -1.5955 -0.7471
  886MOL0     H16919   4.200   9.947   0.450  0.4466  0.1728  0.9431
  886MOL0     H16920   4.154   9.708   0.362  3.2358 -0.8758 -0.5733
  886MOL0     H16921   4.197   9.768   0.201 -1.4909  0.8684 -1.1252
  886MOL0     H16922   4.008   9.930   0.360 -4.4536 -0.3441 -0.3738
  886MOL0     H16923   3.938   9.781   0.284  0.3956 -0.8781  0.1824
  886MOL0     H16924   4.012  10.033   0.141  2.5896 -0.8982 -0.2426
  886MOL0     H16925   4.014   9.864   0.066  0.4497 -1.5072  2.0864
  886MOL0     H16926   3.798   9.827   0.132 -0.5399 -0.5540  0.6925
  886MOL0     H16927   3.806   9.974   0.022 -1.5437 -1.1425 -0.5193
  886MOL0     H16928   3.787  10.110   0.243  0.9820 -0.6647 -1.4335
  886MOL0     H16929   3.751   9.962   0.333 -3.8577  0.5750  0.2945
  886MOL0     H16930   3.536  10.086   0.254  1.3066  0.2226  0.1298
  886MOL0     H16931   3.592  10.047   0.083  0.9168  0.7422 -0.3946
  886MOL0     H16932   3.588   9.819   0.269  1.8354 -1.5768 -1.7094
  886MOL0     H16933   3.556   9.834   0.091 -2.7070  1.0632 -1.3456
  886MOL0     H16934   4.365  10.051   0.539  0.0572 -0.2856  2.0254
  886MOL0     H16935   4.575  10.158   0.628  0.0078 -0.1253  0.4128
  886MOL0     H16936   5.080  10.032   0.634 -1.9797 -0.1775 -0.1353
  886MOL0     H16937   5.294  10.062   0.727 -0.0361 -0.8771  0.9472
  886MOL0     H16938   6.330  10.704   2.531  0.2001  0.2130  2.2971
  886MOL0     H16939   6.480  10.811   2.681  0.4878 -1.0711  2.1835
  886MOL0     H16940   6.762  11.074   2.750 -0.6928 -0.5018  2.0626
  886MOL0     H16941   6.872  11.260   2.884 -0.0551 -0.1858  0.4746
  886MOL0     H16942   7.269  11.182   3.083 -0.5178  0.6028 -0.9370
  886MOL0     H16943   7.102  11.122   3.139  2.5109 -1.5787 -1.2646
  886MOL0     H16944   7.224  11.291   3.288 -1.0781  0.9193  1.3144
  886MOL0     H16945   7.210  11.401   3.156 -1.9737  1.4275 -0.8694
  886MOL0     H16946   6.982  11.268   3.283  1.3727 -1.2335 -0.4480
  886MOL0     H16947   6.968  11.398   3.163 -2.2891 -4.7373 -1.4932
  886MOL0     H16948   6.969  11.459   3.435 -1.2683  0.6696 -1.5078
  886MOL0     H16949   7.139  11.426   3.423 -0.6063  0.4596  1.3729
  886MOL0     H16950   7.118  11.799   3.218  0.2759  0.9381  0.8360
  886MOL0     H16951   7.234  11.036   2.899 -0.3555 -2.9369  0.0595
  886MOL0     H16952   7.142  10.856   2.758  1.2294  0.1597  2.9108
  887MOL0     O16953  10.790   3.566   2.034 -1.0359 -0.3014 -0.1342
  887MOL0     C16954  10.758   3.534   2.147 -0.2354 -0.3957 -0.9971
  887MOL0     O16955  10.835   3.454   2.224  1.1122  0.0385 -0.8048
  887MOL0     C16956  10.934   3.383   2.167  0.1173  0.6041  0.5120
  887MOL0     C16957  10.908   3.248   2.121 -0.8712 -1.0452 -0.7272
  887MOL0     C16958  11.025   3.178   2.090  0.0635  0.1558  0.3586
  887MOL0     C16959  11.153   3.234   2.087 -0.1799  0.3450  0.2697
  887MOL0     O16960  11.248   3.142   2.073  0.6214 -0.2867 -0.1920
  887MOL0     C16961  11.380   3.182   2.028  0.3702  0.9043 -0.1772
  887MOL0     C16962  11.458   3.056   1.988  0.2976  0.0410 -0.3162
  887MOL0     C16963  11.603   3.101   1.952  0.5852  0.5285  0.0128
  887MOL0     C16964  11.670   2.992   1.871  1.3925  1.1264  0.2499
  887MOL0     C16965  11.822   3.017   1.899 -0.1765  0.0612  0.3245
  887MOL0     C16966  11.895   2.890   1.858 -0.3361  1.4064 -0.0413
  887MOL0     C16967  12.046   2.882   1.903  0.3573  0.0186 -0.1615
  887MOL0     C16968  12.113   2.759   1.841  0.2905  0.1871  0.3332
  887MOL0     N16969  12.044   2.629   1.859  0.1631  0.8117 -0.5351
  887MOL0     C16970  12.047   2.524   1.769 -0.3657 -0.8493 -0.5550
  887MOL0     C16971  11.972   2.422   1.819 -0.7750 -0.1210 -0.0724
  887MOL0     C16972  11.949   2.290   1.755 -1.2224  0.4692 -0.1890
  887MOL0     C16973  11.806   2.252   1.765  0.4205 -0.1800 -0.1274
  887MOL0     C16974  11.729   2.269   1.631  0.2973 -1.0654 -0.2563
  887MOL0     C16975  11.581   2.247   1.669 -0.3998  0.8161  0.1257
  887MOL0     O16976  11.495   2.279   1.557  0.2524  0.1267  0.1272
  887MOL0     C16977  11.355   2.287   1.587  0.1792  0.2798 -0.2249
  887MOL0     C16978  11.302   2.221   1.694  0.4304  0.8268  1.0308
  887MOL0     C16979  11.166   2.224   1.727  0.0097 -0.6388 -0.0323
  887MOL0     C16980  11.074   2.290   1.638 -0.3332  0.5367 -0.0699
  887MOL0     C16981  10.923   2.285   1.659 -1.1234  0.3441  0.2863
  887MOL0     O16982  10.878   2.244   1.783 -0.2886  0.0129  0.3221
  887MOL0     C16983  10.747   2.248   1.825  0.2123  0.0532  0.0200
  887MOL0     C16984  10.694   2.124   1.886 -0.4840 -0.5124  0.2293
  887MOL0     C16985  10.564   2.128   1.927  0.6596  0.4753 -1.4369
  887MOL0     C16986  10.484   2.243   1.920 -0.6676 -0.0175 -0.6912
  887MOL0     O16987  10.367   2.267   1.980 -0.4162  0.3998  0.3999
  887MOL0     C16988  10.290   2.150   2.017  1.0059 -0.1432 -0.5886
  887MOL0     C16989  10.152   2.184   2.093 -0.3395  0.0266 -0.1089
  887MOL0     C16990  10.055   2.274   2.016  0.6391 -0.2624 -0.7048
  887MOL0     C16991   9.928   2.305   2.094  0.5856  0.7964  0.0329
  887MOL0     C16992   9.798   2.315   2.002  0.4866  0.0161  0.1277
  887MOL0     C16993   9.669   2.369   2.064  0.1685 -0.1029  0.1070
  887MOL0     C16994   9.613   2.258   2.152  0.4201  0.6489 -0.6014
  887MOL0     C16995   9.475   2.283   2.204 -0.0585 -0.3020 -0.0510
  887MOL0    Cl16996   9.473   2.433   2.318 -0.0262 -0.1096  0.0154
  887MOL0     C16997  10.538   2.361   1.875 -0.1003  0.5814 -0.0690
  887MOL0     C16998  10.669   2.362   1.831 -0.2963  0.3204  0.7208
  887MOL0     O16999  10.855   2.328   1.568  0.1267 -0.2756  0.1713
  887MOL0     C17000  11.131   2.358   1.534 -0.2166  0.4211  0.7896
  887MOL0     C17001  11.266   2.365   1.509  0.3540  0.3757  0.1157
  887MOL0     N17002  11.932   2.466   1.943  0.2705 -0.1792  0.1343
  887MOL0     N17003  11.966   2.584   1.962  0.1439  0.1808  0.2779
  887MOL0     C17004  11.170   3.363   2.110 -0.1286 -0.5314 -0.3499
  887MOL0     C17005  11.063   3.443   2.144 -0.4717 -0.1830  0.4704
  887MOL0     C17006  10.631   3.574   2.203  0.1085 -0.4670 -0.6233
  887MOL0     C17007  10.613   3.530   2.332 -0.2893  0.6373  0.2439
  887MOL0     C17008  10.489   3.543   2.395 -1.3887  0.0774 -0.3173
  887MOL0     C17009  10.383   3.590   2.325  0.4370 -0.3855 -0.0369
  887MOL0     O17010  10.254   3.613   2.372  0.4965  0.0538  0.0999
  887MOL0     C17011  10.224   3.568   2.504  0.9348 -0.6833  0.3874
  887MOL0     C17012  10.067   3.596   2.538  0.4566 -0.1129  0.6151
  887MOL0     C17013   9.966   3.512   2.455  0.2968 -0.2320  0.5902
  887MOL0     C17014   9.861   3.608   2.392 -0.8327 -0.8537  0.2346
  887MOL0     C17015   9.782   3.679   2.491  1.1139  1.1957 -0.6186
  887MOL0     C17016   9.694   3.733   2.561  0.8021 -0.2880  0.4607
  887MOL0     C17017  10.399   3.636   2.197 -0.0478 -0.6920  0.7630
  887MOL0     C17018  10.525   3.640   2.133  0.1348  0.8253  0.1590
  887MOL0     H17019  10.807   3.210   2.133 -0.0168 -4.0110 -1.9891
  887MOL0     H17020  11.018   3.073   2.066  1.9812 -0.0088  0.4059
  887MOL0     H17021  11.433   3.228   2.112 -2.9902  0.3845  2.4597
  887MOL0     H17022  11.354   3.252   1.948 -0.6247  2.1851  1.2120
  887MOL0     H17023  11.414   3.008   1.900 -0.3938  0.7572 -0.3640
  887MOL0     H17024  11.467   2.985   2.072  0.8934 -1.6487 -1.7332
  887MOL0     H17025  11.658   3.126   2.044  0.6031  3.3985 -0.6847
  887MOL0     H17026  11.603   3.187   1.885  1.2647  0.7591  0.2944
  887MOL0     H17027  11.641   2.893   1.907  0.1270 -0.2099 -3.8749
  887MOL0     H17028  11.637   2.992   1.766  0.2021 -2.8742  0.4634
  887MOL0     H17029  11.838   3.032   2.006  0.2238 -1.8129  0.5613
  887MOL0     H17030  11.859   3.099   1.838  0.9821  0.1121  1.0737
  887MOL0     H17031  11.889   2.885   1.749 -2.3076  0.9037  0.0650
  887MOL0     H17032  11.837   2.805   1.895  0.2219 -0.3482 -2.8545
  887MOL0     H17033  12.100   2.976   1.882 -0.9227  0.4559 -1.7029
  887MOL0     H17034  12.037   2.863   2.010  0.3713 -2.0789 -0.4908
  887MOL0     H17035  12.210   2.749   1.892  0.2954 -1.3138  0.0800
  887MOL0     H17036  12.130   2.776   1.735 -0.4669 -0.2557  0.1321
  887MOL0     H17037  12.078   2.532   1.666  1.7158  1.4753  0.1594
  887MOL0     H17038  12.015   2.226   1.813  0.5302  1.4715 -0.9968
  887MOL0     H17039  11.987   2.296   1.653  0.7128  0.7517  0.5135
  887MOL0     H17040  11.748   2.298   1.846 -0.6663 -1.9016  0.1181
  887MOL0     H17041  11.803   2.144   1.779 -1.6067 -0.1967 -0.3613
  887MOL0     H17042  11.739   2.374   1.600 -1.1090  0.1960  3.1231
  887MOL0     H17043  11.759   2.201   1.551  1.5509  0.4680 -1.1526
  887MOL0     H17044  11.551   2.291   1.765  0.4097  1.2992  0.1677
  887MOL0     H17045  11.557   2.141   1.681 -2.4298  1.1359 -0.7795
  887MOL0     H17046  11.359   2.157   1.760  3.0996  2.3301  0.3434
  887MOL0     H17047  11.134   2.179   1.820  0.0150 -2.5048 -0.8890
  887MOL0     H17048  10.765   2.045   1.909  0.7834  0.7149  0.6667
  887MOL0     H17049  10.524   2.044   1.982  1.5355  0.8296 -0.2367
  887MOL0     H17050  10.343   2.070   2.070  4.0116  1.4664 -0.9812
  887MOL0     H17051  10.265   2.100   1.923 -0.2747 -3.0398  1.1525
  887MOL0     H17052  10.185   2.235   2.184  2.2480 -1.5735 -0.0435
  887MOL0     H17053  10.091   2.096   2.120 -3.7424  2.4450  0.7754
  887MOL0     H17054  10.026   2.219   1.927  1.4292 -1.7698 -0.0686
  887MOL0     H17055  10.097   2.368   1.980  3.1908 -1.7715 -1.9345
  887MOL0     H17056   9.916   2.215   2.155 -0.4873  0.1445 -1.0846
  887MOL0     H17057   9.934   2.397   2.151  2.5429  1.1461 -0.6444
  887MOL0     H17058   9.779   2.226   1.942 -0.1800  0.2984 -0.0890
  887MOL0     H17059   9.824   2.389   1.926  2.2962  0.7687  1.3952
  887MOL0     H17060   9.600   2.384   1.980  3.4157 -2.4217 -3.3360
  887MOL0     H17061   9.692   2.463   2.115 -1.3429 -0.7515  2.0936
  887MOL0     H17062   9.592   2.160   2.108  1.9179  0.3109 -0.6279
  887MOL0     H17063   9.681   2.239   2.236  0.1675 -1.0990 -0.7487
  887MOL0     H17064   9.450   2.189   2.255  0.1770 -1.1875 -1.5029
  887MOL0     H17065   9.394   2.295   2.131 -2.9923  1.3766  3.1606
  887MOL0     H17066  10.481   2.453   1.882 -1.0881  0.0110 -0.2979
  887MOL0     H17067  10.700   2.454   1.784 -1.9136  0.9016  0.7233
  887MOL0     H17068  11.059   2.405   1.468 -2.3889  0.8010  3.2610
  887MOL0     H17069  11.302   2.418   1.421 -0.3984  0.0702 -0.3897
  887MOL0     H17070  11.268   3.409   2.117  0.3497 -1.7165  0.9955
  887MOL0     H17071  11.059   3.547   2.172 -1.8409 -0.6883  2.3773
  887MOL0     H17072  10.680   3.471   2.393 -0.8541 -0.9502 -0.6001
  887MOL0     H17073  10.491   3.530   2.502  0.9110 -1.2627 -0.4551
  887MOL0     H17074  10.289   3.615   2.578 -0.1195  0.4139  0.6567
  887MOL0     H17075  10.249   3.462   2.507  2.5651 -0.3104  1.9696
  887MOL0     H17076  10.066   3.575   2.645 -0.6361  3.1546  1.3755
  887MOL0     H17077  10.050   3.704   2.523  0.2356  0.1002  2.2381
  887MOL0     H17078   9.916   3.444   2.524 -0.8838 -0.0425 -0.0471
  887MOL0     H17079  10.017   3.451   2.380 -1.3198 -0.5377 -0.3037
  887MOL0     H17080   9.908   3.695   2.345 -0.8752 -0.2466  1.2748
  887MOL0     H17081   9.796   3.558   2.319  1.6896 -1.3438 -1.8100
  887MOL0     H17082   9.617   3.799   2.596  1.9023  1.4298 -0.2345
  887MOL0     H17083  10.318   3.688   2.148  0.1647 -1.9248 -0.9610
  887MOL0     H17084  10.520   3.677   2.031 -1.9728 -6.1097 -2.9041
  888MOL0     O17085  10.518   5.107   5.819  0.5934  0.6094  0.3619
  888MOL0     C17086  10.541   5.140   5.938 -0.6995  0.1553  0.7337
  888MOL0     O17087  10.452   5.168   6.027 -0.3756 -0.2635  0.2455
  888MOL0     C17088  10.328   5.177   5.980  0.0967  0.0133 -1.0016
  888MOL0     C17089  10.261   5.059   5.927 -0.2253 -0.4955 -0.5232
  888MOL0     C17090  10.128   5.071   5.894  0.3912 -0.5615 -0.2697
  888MOL0     C17091  10.054   5.189   5.914 -0.3473  0.4563  0.2139
  888MOL0     O17092   9.923   5.211   5.883  0.3292  0.1709  0.3175
  888MOL0     C17093   9.831   5.103   5.878  0.5321 -0.6178  0.1448
  888MOL0     C17094   9.691   5.150   5.845 -0.5629 -0.9110  0.6772
  888MOL0     C17095   9.591   5.062   5.911  0.7387 -0.0189  0.3792
  888MOL0     C17096   9.449   5.088   5.870 -0.5611 -0.0543  0.9484
  888MOL0     C17097   9.341   4.996   5.940  0.5313 -0.6497 -0.7402
  888MOL0     C17098   9.202   5.004   5.885  0.1539  0.3052 -0.4848
  888MOL0     C17099   9.090   4.927   5.975 -0.0703  0.0536 -0.0918
  888MOL0     C17100   9.107   4.778   5.959 -0.9152 -0.3070  1.0363
  888MOL0     N17101   9.055   4.738   5.828 -0.0535 -0.6811  0.5047
  888MOL0     C17102   8.925   4.755   5.785  0.5617 -0.0744  0.5763
  888MOL0     C17103   8.932   4.692   5.663  0.0650  0.6218 -1.1441
  888MOL0     C17104   8.825   4.675   5.562 -0.3780 -0.6571 -0.3975
  888MOL0     C17105   8.771   4.527   5.551  0.7241  0.2367 -0.3884
  888MOL0     C17106   8.729   4.466   5.695  0.8028  0.1574 -0.3431
  888MOL0     C17107   8.681   4.317   5.668 -0.4484  0.3300  0.4522
  888MOL0     O17108   8.629   4.239   5.780 -0.1422 -0.2462  0.7283
  888MOL0     C17109   8.496   4.231   5.791  0.1558  0.7414  0.2402
  888MOL0     C17110   8.402   4.323   5.742  0.0854 -0.1578  0.2744
  888MOL0     C17111   8.270   4.290   5.750  0.5462  0.1281 -0.1013
  888MOL0     C17112   8.221   4.163   5.783 -0.1202 -0.1671  0.4149
  888MOL0     C17113   8.073   4.139   5.788 -0.3982  0.3922  1.0185
  888MOL0     O17114   7.992   4.253   5.781  0.2220 -0.4603  0.1851
  888MOL0     C17115   7.859   4.236   5.802  0.1766 -0.8107 -0.1479
  888MOL0     C17116   7.798   4.272   5.928 -0.1449  0.8765  0.0954
  888MOL0     C17117   7.660   4.258   5.948 -0.0337 -0.1033 -0.4636
  888MOL0     C17118   7.586   4.194   5.848 -0.5242 -0.4595  0.0123
  888MOL0     O17119   7.453   4.166   5.859  0.1742 -0.1255 -0.5496
  888MOL0     C17120   7.377   4.260   5.939  0.2209 -0.6421 -0.2554
  888MOL0     C17121   7.233   4.277   5.892  0.0308 -0.7382 -0.5824
  888MOL0     C17122   7.143   4.262   6.018  0.0112 -0.1286  0.6435
  888MOL0     C17123   7.004   4.314   5.972 -0.8432  0.1185 -0.2448
  888MOL0     C17124   6.920   4.335   6.093  0.2797 -0.4157  0.7557
  888MOL0     C17125   6.780   4.289   6.066  0.2200 -0.1970 -0.1056
  888MOL0     C17126   6.745   4.135   6.077  0.6524 -0.8116  0.1048
  888MOL0     C17127   6.611   4.109   6.015  0.7899  0.9712 -0.9746
  888MOL0    Cl17128   6.481   4.123   6.153 -0.0984  0.0448 -0.5436
  888MOL0     C17129   7.640   4.167   5.725  0.2419 -0.6221 -0.2512
  888MOL0     C17130   7.773   4.186   5.696 -0.6512 -0.5355  0.2468
  888MOL0     O17131   8.036   4.023   5.788 -0.1758 -0.2622  0.3105
  888MOL0     C17132   8.314   4.068   5.834  0.0448 -0.2370 -0.1044
  888MOL0     C17133   8.448   4.113   5.846 -0.8423  0.8335 -0.0810
  888MOL0     N17134   9.060   4.650   5.631  0.6376  0.1508  0.0664
  888MOL0     N17135   9.132   4.694   5.726 -0.3691 -0.2024 -0.6434
  888MOL0     C17136  10.124   5.306   5.939 -0.6773 -0.1805  0.7398
  888MOL0     C17137  10.257   5.297   5.980  0.6454  0.9089 -0.7483
  888MOL0     C17138  10.686   5.138   5.977 -0.6072 -0.4944  0.2771
  888MOL0     C17139  10.787   5.110   5.894 -0.8439 -0.0610  0.1835
  888MOL0     C17140  10.925   5.092   5.934  0.3794  0.1878 -0.5800
  888MOL0     C17141  10.952   5.100   6.073 -0.6631  0.2403  0.3359
  888MOL0     O17142  11.081   5.101   6.125  0.2483  0.4711  0.6069
  888MOL0     C17143  11.190   5.077   6.035  0.2818 -0.3837 -0.2388
  888MOL0     C17144  11.237   5.213   5.979  0.8111 -0.6561  0.1280
  888MOL0     C17145  11.309   5.292   6.087  0.5101 -0.9663  0.0144
  888MOL0     C17146  11.355   5.437   6.031 -0.3918  0.6324  0.1878
  888MOL0     C17147  11.445   5.434   5.916  0.5080  0.6904  1.3170
  888MOL0     C17148  11.516   5.464   5.821 -0.4368 -0.4423  0.4979
  888MOL0     C17149  10.850   5.129   6.165  0.1130 -0.2883 -0.4086
  888MOL0     C17150  10.720   5.152   6.113 -0.1597  0.5397 -0.1249
  888MOL0     H17151  10.318   4.967   5.918  0.4837 -0.3175  1.5956
  888MOL0     H17152  10.072   4.983   5.865 -4.6495  1.9753  0.6786
  888MOL0     H17153   9.840   5.048   5.973  2.3247  0.7905  0.8378
  888MOL0     H17154   9.868   5.045   5.793 -0.1870  1.4630 -1.6648
  888MOL0     H17155   9.673   5.158   5.737  2.0336  1.7930  0.3091
  888MOL0     H17156   9.684   5.257   5.867  0.8378 -0.2603 -1.6256
  888MOL0     H17157   9.595   5.078   6.019 -2.9598 -0.1096  0.6477
  888MOL0     H17158   9.620   4.957   5.894  0.7477  0.2652 -1.6793
  888MOL0     H17159   9.430   5.195   5.877 -0.4351 -0.0642  1.4491
  888MOL0     H17160   9.453   5.065   5.763  2.1920  0.4890  0.8487
  888MOL0     H17161   9.322   5.023   6.045  1.5976  0.3780 -0.7934
  888MOL0     H17162   9.371   4.893   5.920  1.8171 -0.4474  0.0140
  888MOL0     H17163   9.188   4.985   5.778 -2.4969  0.6281 -0.2662
  888MOL0     H17164   9.172   5.109   5.889 -0.1976  0.1906 -0.0706
  888MOL0     H17165   9.117   4.954   6.078  0.0707  2.2284 -0.6571
  888MOL0     H17166   8.988   4.964   5.962 -0.2800 -1.0580 -2.0099
  888MOL0     H17167   9.051   4.728   6.038 -1.3164  1.6057  2.0164
  888MOL0     H17168   9.212   4.747   5.967 -1.0270 -0.6945  1.0380
  888MOL0     H17169   8.834   4.790   5.832 -0.0698 -1.0302  0.0860
  888MOL0     H17170   8.865   4.717   5.469  0.3153  0.5459  0.4124
  888MOL0     H17171   8.738   4.737   5.585 -0.2096 -0.0131 -1.3959
  888MOL0     H17172   8.852   4.467   5.509  0.6074 -0.5564  0.4999
  888MOL0     H17173   8.684   4.512   5.487  0.9127 -2.8914 -0.0476
  888MOL0     H17174   8.814   4.468   5.762 -0.8314  0.3256  1.8393
  888MOL0     H17175   8.649   4.529   5.736  1.8547 -0.7711  3.5321
  888MOL0     H17176   8.766   4.252   5.646 -0.5436  0.2559  0.3032
  888MOL0     H17177   8.610   4.330   5.586 -0.6550  0.0954  0.5914
  888MOL0     H17178   8.423   4.420   5.697  2.5205 -1.0109 -0.6016
  888MOL0     H17179   8.194   4.354   5.706  0.9304  0.1793 -0.7079
  888MOL0     H17180   7.861   4.314   6.005 -0.3753  0.7119  0.3767
  888MOL0     H17181   7.622   4.281   6.048  1.1813  1.5805 -0.3466
  888MOL0     H17182   7.424   4.359   5.938 -2.1814  0.6079 -2.3987
  888MOL0     H17183   7.376   4.214   6.038  3.3248 -1.8777 -0.7132
  888MOL0     H17184   7.205   4.202   5.818  0.1353 -0.2781 -1.0948
  888MOL0     H17185   7.213   4.370   5.838  1.7534 -0.9405 -1.6741
  888MOL0     H17186   7.182   4.309   6.109  2.3977 -3.1182  1.3260
  888MOL0     H17187   7.122   4.157   6.040  0.6303 -0.0945  1.4496
  888MOL0     H17188   7.014   4.406   5.914 -0.9679  0.8078  0.7909
  888MOL0     H17189   6.956   4.246   5.901  1.7699 -0.6530 -1.4041
  888MOL0     H17190   6.930   4.438   6.127  3.2087 -0.0872 -0.8212
  888MOL0     H17191   6.967   4.276   6.172  2.8121  0.8005  0.2636
  888MOL0     H17192   6.756   4.324   5.965  1.3633  0.0600 -0.2980
  888MOL0     H17193   6.718   4.345   6.136 -1.9050  0.2256 -2.1863
  888MOL0     H17194   6.821   4.089   6.013 -0.6294 -0.6075 -1.6317
  888MOL0     H17195   6.743   4.089   6.176 -1.8372  0.1825  0.5714
  888MOL0     H17196   6.589   4.009   5.976 -1.8028  1.1134 -0.1121
  888MOL0     H17197   6.594   4.177   5.931  0.8873  0.6375 -1.2647
  888MOL0     H17198   7.561   4.136   5.656 -0.9850  2.6425 -0.5118
  888MOL0     H17199   7.811   4.159   5.598  0.4027 -1.1493  0.8070
  888MOL0     H17200   8.280   3.971   5.866 -0.8152 -0.2922 -1.1691
  888MOL0     H17201   8.517   4.035   5.877 -0.9260  0.6111 -0.4388
  888MOL0     H17202  10.064   5.397   5.942 -0.1479  0.1881  0.3709
  888MOL0     H17203  10.316   5.382   6.013  0.4557 -0.3950  3.5651
  888MOL0     H17204  10.771   5.107   5.786  2.4190  0.4565 -0.4173
  888MOL0     H17205  11.005   5.081   5.862  2.3161 -2.8936  1.7870
  888MOL0     H17206  11.169   5.005   5.955 -0.7747  3.4230 -3.7376
  888MOL0     H17207  11.276   5.059   6.099  0.2023  0.0881  0.0050
  888MOL0     H17208  11.315   5.190   5.906  1.2504 -3.5906  1.3662
  888MOL0     H17209  11.158   5.274   5.935 -1.1461 -0.5473  3.4320
  888MOL0     H17210  11.400   5.240   6.117  1.4997  0.6559 -0.0410
  888MOL0     H17211  11.239   5.310   6.169 -0.2239 -0.3090 -0.7307
  888MOL0     H17212  11.267   5.498   6.007  0.5954  1.6958 -0.8366
  888MOL0     H17213  11.401   5.484   6.118  1.0368 -0.2983 -0.0178
  888MOL0     H17214  11.568   5.497   5.734 -2.1802  1.7079  0.1891
  888MOL0     H17215  10.867   5.132   6.272  4.6369 -0.3623 -0.8955
  888MOL0     H17216  10.636   5.169   6.181 -0.5162 -1.8272  0.1298
  889MOL0     O17217   4.806   3.787  10.330  0.5491 -0.8100 -0.2747
  889MOL0     C17218   4.855   3.726  10.420 -0.6220 -0.6034  0.4167
  889MOL0     O17219   4.787   3.651  10.518 -0.7764 -0.7361  0.1664
  889MOL0     C17220   4.647   3.662  10.506  0.2257  0.2914  0.6872
  889MOL0     C17221   4.573   3.549  10.478 -0.3164  0.0369 -0.0025
  889MOL0     C17222   4.438   3.539  10.494  0.3728 -0.5075 -1.1139
  889MOL0     C17223   4.371   3.653  10.530  0.3174 -0.6072 -0.5372
  889MOL0     O17224   4.237   3.637  10.538 -0.1054 -0.6138 -0.7393
  889MOL0     C17225   4.151   3.695  10.434 -0.8705 -0.9563 -0.2930
  889MOL0     C17226   4.009   3.637  10.423 -0.1931  0.2725  0.1955
  889MOL0     C17227   3.938   3.678  10.298  0.2073 -0.0895 -0.4036
  889MOL0     C17228   3.799   3.628  10.289 -0.5650  0.5076 -0.1311
  889MOL0     C17229   3.711   3.697  10.181 -0.3226  0.8632  0.4685
  889MOL0     C17230   3.559   3.649  10.187 -0.8186 -0.6951  0.3201
  889MOL0     C17231   3.471   3.743  10.108 -0.2604  0.0556  0.8217
  889MOL0     C17232   3.503   3.715   9.955  0.3646  0.4408 -0.6981
  889MOL0     N17233   3.414   3.797   9.876 -0.0853 -0.3080 -0.0476
  889MOL0     C17234   3.455   3.894   9.781 -0.4476 -0.0137  1.2183
  889MOL0     C17235   3.356   3.909   9.693 -0.4447  0.1448 -0.1320
  889MOL0     C17236   3.360   3.998   9.577  0.3111 -0.1238 -0.5488
  889MOL0     C17237   3.332   4.139   9.640  0.0012  0.3315 -0.1691
  889MOL0     C17238   3.314   4.243   9.530 -0.2238  0.2263  0.2064
  889MOL0     C17239   3.176   4.246   9.469  0.2982  0.1262 -0.2836
  889MOL0     O17240   3.166   4.363   9.384 -0.0974 -0.1614 -0.2605
  889MOL0     C17241   3.041   4.390   9.340  0.6482 -0.7735 -0.9754
  889MOL0     C17242   3.015   4.519   9.290 -0.3069 -0.4150  0.4826
  889MOL0     C17243   2.889   4.560   9.244  0.2816  0.2899  0.4353
  889MOL0     C17244   2.778   4.462   9.226  0.2206 -0.3169 -0.3347
  889MOL0     C17245   2.646   4.499   9.172  0.1670 -0.3060  0.1348
  889MOL0     O17246   2.632   4.637   9.140 -0.1955  0.0270  0.3906
  889MOL0     C17247   2.501   4.687   9.111  0.0151 -1.1538  0.2187
  889MOL0     C17248   2.394   4.619   9.061  0.5831 -0.1604 -0.1636
  889MOL0     C17249   2.273   4.685   9.053  0.2968 -0.4734 -0.9712
  889MOL0     C17250   2.256   4.812   9.100  0.1708 -0.1254  0.0168
  889MOL0     O17251   2.136   4.884   9.095 -0.1485  0.0112  0.1146
  889MOL0     C17252   2.032   4.840   9.002  0.8245 -0.7928 -0.4462
  889MOL0     C17253   1.925   4.945   8.992  0.0775  0.4091  0.5888
  889MOL0     C17254   1.821   4.912   8.882 -0.2849  0.7083  0.0385
  889MOL0     C17255   1.738   5.036   8.857  0.0904  0.7445 -0.3337
  889MOL0     C17256   1.636   5.012   8.744 -0.0575  0.3888 -0.7042
  889MOL0     C17257   1.523   5.122   8.748 -0.1354  0.2566 -0.2696
  889MOL0     C17258   1.543   5.244   8.667  0.0547  0.1096 -0.9476
  889MOL0     C17259   1.660   5.326   8.708  0.0862  0.0012 -0.1358
  889MOL0    Cl17260   1.624   5.489   8.644 -0.0477 -0.2044 -0.2745
  889MOL0     C17261   2.367   4.883   9.142 -0.8015  0.0569  0.7460
  889MOL0     C17262   2.487   4.816   9.143  0.4150  0.1039  0.3322
  889MOL0     O17263   2.564   4.410   9.172 -0.8832 -0.1980  0.3083
  889MOL0     C17264   2.804   4.332   9.278 -0.1259 -0.0177  0.6011
  889MOL0     C17265   2.936   4.295   9.323  0.7803  0.0655  0.7963
  889MOL0     N17266   3.269   3.804   9.717  0.2617  0.5754  0.0730
  889MOL0     N17267   3.302   3.737   9.816  0.5544 -0.0034  0.3997
  889MOL0     C17268   4.439   3.773  10.560 -0.1161 -0.4594 -0.6859
  889MOL0     C17269   4.583   3.774  10.550 -0.5185 -0.1303 -0.6581
  889MOL0     C17270   5.011   3.748  10.448 -0.1614 -0.6217  0.4751
  889MOL0     C17271   5.099   3.810  10.354  0.5776  0.2043 -0.4303
  889MOL0     C17272   5.230   3.840  10.395  0.7603 -1.3238 -0.8065
  889MOL0     C17273   5.288   3.794  10.511 -0.6060  0.0272 -0.0749
  889MOL0     O17274   5.418   3.810  10.544 -0.3516 -0.5736 -0.1894
  889MOL0     C17275   5.475   3.942  10.522 -0.1429  0.0186 -0.6130
  889MOL0     C17276   5.610   3.956  10.597  0.1482 -0.2327  1.3304
  889MOL0     C17277   5.670   4.088  10.553  0.9086 -0.5947 -0.5096
  889MOL0     C17278   5.788   4.142  10.644  0.8790 -0.4636 -0.1077
  889MOL0     C17279   5.744   4.207  10.758  0.3603 -0.5558 -0.1464
  889MOL0     C17280   5.696   4.264  10.856  0.5184 -0.3630  0.6789
  889MOL0     C17281   5.211   3.714  10.598  0.1653 -0.4850 -0.1119
  889MOL0     C17282   5.071   3.703  10.567  0.1252 -0.5586 -0.2393
  889MOL0     H17283   4.614   3.452  10.451 -2.4718 -1.6254  2.2851
  889MOL0     H17284   4.376   3.456  10.463 -3.2665  0.8934  1.6879
  889MOL0     H17285   4.203   3.691  10.338  0.2864  1.2411  0.1607
  889MOL0     H17286   4.142   3.801  10.460  0.6326 -0.0078 -3.1485
  889MOL0     H17287   3.942   3.664  10.506 -0.2942  1.2785 -0.2013
  889MOL0     H17288   4.026   3.529  10.434  0.5222  0.0005 -2.8021
  889MOL0     H17289   3.996   3.652  10.209  1.5522  2.0383 -0.2121
  889MOL0     H17290   3.917   3.785  10.304 -1.3051 -0.1631 -3.0190
  889MOL0     H17291   3.806   3.522  10.262  1.3855  1.0425 -2.0734
  889MOL0     H17292   3.752   3.636  10.387  1.6255  0.4526  0.9632
  889MOL0     H17293   3.759   3.673  10.085  0.4249  1.1670  0.7610
  889MOL0     H17294   3.718   3.805  10.192  0.7164  1.2422 -2.8650
  889MOL0     H17295   3.525   3.662  10.290 -2.2456  1.2757 -0.3339
  889MOL0     H17296   3.548   3.545  10.155 -0.1781 -0.4719 -0.6661
  889MOL0     H17297   3.364   3.721  10.121 -0.0334 -2.9090 -1.3185
  889MOL0     H17298   3.492   3.847  10.134 -0.3231  0.8958 -2.1544
  889MOL0     H17299   3.487   3.609   9.934 -0.2602 -0.1960  2.4619
  889MOL0     H17300   3.611   3.727   9.937  0.3106 -1.5721 -2.8805
  889MOL0     H17301   3.547   3.952   9.776  1.0350 -2.3308 -0.7305
  889MOL0     H17302   3.291   3.974   9.495 -0.5063  1.0735 -0.2473
  889MOL0     H17303   3.457   3.999   9.526 -0.8173 -1.6771 -2.8898
  889MOL0     H17304   3.418   4.166   9.702  1.8517 -0.8027 -2.0893
  889MOL0     H17305   3.251   4.144   9.713  0.8214  1.4165  0.7122
  889MOL0     H17306   3.328   4.339   9.580 -1.0416 -0.4635  1.8348
  889MOL0     H17307   3.392   4.231   9.454  0.1808  1.6289  0.3667
  889MOL0     H17308   3.100   4.245   9.548  0.3706  0.7161 -0.2022
  889MOL0     H17309   3.154   4.159   9.407 -5.7888  1.8897 -1.3425
  889MOL0     H17310   3.096   4.590   9.303  1.2357 -2.3955  2.5693
  889MOL0     H17311   2.872   4.666   9.224  1.4317  0.5436  0.7346
  889MOL0     H17312   2.402   4.519   9.019  3.5721 -0.7655  1.4988
  889MOL0     H17313   2.193   4.628   9.006  1.1686 -0.9077 -1.9605
  889MOL0     H17314   1.982   4.748   9.035  0.5775 -1.4437 -2.5043
  889MOL0     H17315   2.064   4.826   8.899 -1.0870 -1.3142 -1.0260
  889MOL0     H17316   1.967   5.044   8.971 -2.8788  2.0127  1.5941
  889MOL0     H17317   1.873   4.952   9.088 -1.4135 -0.3339 -0.1267
  889MOL0     H17318   1.764   4.823   8.911  0.1763  0.4363  0.1261
  889MOL0     H17319   1.867   4.880   8.788  0.2354 -0.9599  0.8299
  889MOL0     H17320   1.676   5.048   8.946  1.0597 -0.9512  0.6155
  889MOL0     H17321   1.802   5.119   8.826  1.6776 -0.3315 -0.0498
  889MOL0     H17322   1.602   4.908   8.751  0.6112  0.0597 -2.0111
  889MOL0     H17323   1.678   5.012   8.643 -0.2331  2.5860 -0.8103
  889MOL0     H17324   1.483   5.143   8.848  0.3177  1.0209 -0.2447
  889MOL0     H17325   1.435   5.076   8.702 -1.1050  1.9904 -0.2115
  889MOL0     H17326   1.551   5.221   8.560  0.5177 -2.4165 -0.4436
  889MOL0     H17327   1.451   5.302   8.680 -0.9988 -1.3673 -1.4276
  889MOL0     H17328   1.750   5.285   8.661 -1.1144 -2.8746 -0.0846
  889MOL0     H17329   1.665   5.329   8.818 -2.8815  1.5072  0.0655
  889MOL0     H17330   2.366   4.982   9.185  2.4989 -0.2684  1.8315
  889MOL0     H17331   2.569   4.862   9.198  0.8589  1.3091 -1.2721
  889MOL0     H17332   2.727   4.256   9.283  1.0866 -1.2984  0.3276
  889MOL0     H17333   2.946   4.196   9.365 -2.3537  0.2721  2.3551
  889MOL0     H17334   4.383   3.861  10.593  1.7817  0.1989  1.0070
  889MOL0     H17335   4.642   3.855  10.592 -0.8546 -0.4370  0.4469
  889MOL0     H17336   5.052   3.859  10.269 -0.4220  0.5223  0.2799
  889MOL0     H17337   5.286   3.901  10.325 -1.4112  2.1217  0.1797
  889MOL0     H17338   5.410   4.020  10.564  0.7004  1.3482 -1.6749
  889MOL0     H17339   5.495   3.960  10.416  2.7198 -2.1347 -0.5467
  889MOL0     H17340   5.593   3.949  10.704  0.8566  3.6110  1.8461
  889MOL0     H17341   5.668   3.868  10.567 -1.0127 -1.6113  2.9907
  889MOL0     H17342   5.591   4.163  10.558 -0.1838 -1.4749 -2.9689
  889MOL0     H17343   5.711   4.064  10.454 -1.0723  1.4784 -1.9305
  889MOL0     H17344   5.834   4.055  10.691 -1.1422 -0.8196  1.3956
  889MOL0     H17345   5.851   4.198  10.575 -3.6731 -0.6021 -5.0272
  889MOL0     H17346   5.662   4.316  10.944  0.8311 -1.5758  1.5263
  889MOL0     H17347   5.263   3.678  10.686 -1.1510  1.6289  1.6238
  889MOL0     H17348   5.011   3.641  10.633  1.9149  1.3567  3.4687
  890MOL0     O17349   8.239   1.870   6.358  0.6633  0.0985 -0.1581
  890MOL0     C17350   8.236   1.952   6.269 -0.3754 -0.0826  0.2459
  890MOL0     O17351   8.131   2.021   6.229 -0.6606 -0.2374 -0.2373
  890MOL0     C17352   8.023   2.026   6.310  1.7295 -1.0592 -0.3335
  890MOL0     C17353   8.021   2.022   6.454 -0.1650  0.2193  1.0011
  890MOL0     C17354   7.903   2.030   6.520  0.4861 -0.3117 -0.6397
  890MOL0     C17355   7.780   2.044   6.454 -1.0020 -0.4605 -0.2237
  890MOL0     O17356   7.656   2.052   6.519 -0.5519  0.1809  0.2816
  890MOL0     C17357   7.652   2.162   6.607 -0.4235  0.0790 -0.9347
  890MOL0     C17358   7.511   2.184   6.661 -0.0485  0.3667  0.2722
  890MOL0     C17359   7.446   2.321   6.622 -0.3750  0.8526 -0.3038
  890MOL0     C17360   7.346   2.362   6.733 -0.2491 -0.2934  0.2709
  890MOL0     C17361   7.236   2.459   6.690 -0.3571  0.4977  0.2813
  890MOL0     C17362   7.115   2.378   6.631  0.6028 -0.1617  0.4184
  890MOL0     C17363   7.011   2.480   6.589  1.0436 -0.5622 -0.1898
  890MOL0     C17364   6.907   2.413   6.505  0.3619 -0.0427  0.5561
  890MOL0     N17365   6.800   2.506   6.474 -0.5825  0.0058  0.1268
  890MOL0     C17366   6.806   2.606   6.377  0.6813  0.0196  0.2639
  890MOL0     C17367   6.714   2.701   6.426 -0.9527  0.0875  0.3533
  890MOL0     C17368   6.661   2.813   6.339 -0.1528  0.6711 -0.2865
  890MOL0     C17369   6.676   2.953   6.401  0.3401 -0.8745 -0.1958
  890MOL0     C17370   6.560   2.984   6.491  0.3173 -0.1358  0.1480
  890MOL0     C17371   6.574   3.124   6.558  0.0167 -0.3070  0.8651
  890MOL0     O17372   6.577   3.233   6.460 -0.1575  0.6475 -0.2788
  890MOL0     C17373   6.475   3.243   6.365  0.2517  1.3689 -0.2590
  890MOL0     C17374   6.342   3.206   6.389 -0.6800 -0.3917  0.6991
  890MOL0     C17375   6.235   3.240   6.292  0.1752 -0.3770 -0.2399
  890MOL0     C17376   6.265   3.311   6.175 -0.0777 -0.4824  0.6326
  890MOL0     C17377   6.161   3.360   6.086 -0.2762  0.5168 -0.3580
  890MOL0     O17378   6.191   3.362   5.957  0.1381  0.1975 -0.5341
  890MOL0     C17379   6.121   3.424   5.858  0.7130 -0.1408  0.1057
  890MOL0     C17380   6.153   3.387   5.727  0.2875 -0.2879 -0.2501
  890MOL0     C17381   6.099   3.449   5.611  0.3955 -0.2833  0.7444
  890MOL0     C17382   5.990   3.531   5.631  0.1081 -0.6935 -0.2832
  890MOL0     O17383   5.926   3.609   5.535 -0.4780 -0.3596  1.0597
  890MOL0     C17384   5.809   3.544   5.488  0.4184 -0.0212  0.3024
  890MOL0     C17385   5.836   3.486   5.352 -0.1006 -0.2298  0.4356
  890MOL0     C17386   5.716   3.462   5.260 -0.0468  0.8643  0.2456
  890MOL0     C17387   5.637   3.593   5.228 -0.0913 -0.6442  0.4986
  890MOL0     C17388   5.529   3.594   5.113  0.4391  0.7775 -0.3364
  890MOL0     C17389   5.422   3.488   5.137 -0.3964 -0.6574 -0.3630
  890MOL0     C17390   5.319   3.480   5.026  0.4093 -0.1577 -0.1734
  890MOL0     C17391   5.202   3.561   5.065  1.0255  0.2510  0.6758
  890MOL0    Cl17392   5.211   3.733   5.009 -0.0484 -0.0120 -0.2649
  890MOL0     C17393   5.949   3.565   5.764 -0.0180  0.0486  0.1058
  890MOL0     C17394   6.013   3.517   5.876 -0.1026 -0.1701 -0.4357
  890MOL0     O17395   6.048   3.385   6.139  0.4759  0.8089  0.3278
  890MOL0     C17396   6.400   3.346   6.145  0.0168 -0.3585 -0.4200
  890MOL0     C17397   6.497   3.319   6.250 -0.2261 -0.1178 -0.3847
  890MOL0     N17398   6.648   2.645   6.534  0.6078  0.0193  0.4848
  890MOL0     N17399   6.704   2.538   6.567  0.2369 -0.0558  0.6266
  890MOL0     C17400   7.783   2.045   6.307  0.4970  1.0711 -1.0124
  890MOL0     C17401   7.904   2.044   6.242  0.3456  0.4566  0.3423
  890MOL0     C17402   8.356   1.973   6.192 -0.9910  0.3666 -0.4372
  890MOL0     C17403   8.344   2.058   6.081 -0.5304 -0.3101 -0.2132
  890MOL0     C17404   8.462   2.102   6.016  0.3524 -0.1909  0.0109
  890MOL0     C17405   8.586   2.048   6.054 -0.8090 -0.2678 -0.2803
  890MOL0     O17406   8.689   2.097   5.988  0.8574 -0.2887 -0.2230
  890MOL0     C17407   8.820   2.052   6.014 -0.5863  0.2242 -0.0841
  890MOL0     C17408   8.887   2.113   6.136 -0.0756  0.0999 -0.2086
  890MOL0     C17409   9.040   2.102   6.116  0.2239  1.0177  0.6830
  890MOL0     C17410   9.109   2.151   6.243  0.7427 -0.5555 -0.5651
  890MOL0     C17411   9.246   2.179   6.232  0.8289  0.7499  0.4393
  890MOL0     C17412   9.368   2.193   6.222  0.3417 -0.0155 -0.0558
  890MOL0     C17413   8.589   1.945   6.157 -0.0405 -0.0610 -0.2197
  890MOL0     C17414   8.480   1.920   6.236 -0.0115  0.3298  0.4525
  890MOL0     H17415   8.109   2.002   6.513 -0.3200 -0.1924  1.0977
  890MOL0     H17416   7.907   2.026   6.628 -0.2309 -0.1799 -0.6015
  890MOL0     H17417   7.683   2.249   6.548  1.0244 -1.2161 -2.1592
  890MOL0     H17418   7.726   2.135   6.683 -2.5500 -2.1433  0.4932
  890MOL0     H17419   7.529   2.171   6.769  4.5617 -0.9865 -0.4378
  890MOL0     H17420   7.444   2.108   6.622  0.4948 -0.2829  0.5838
  890MOL0     H17421   7.389   2.299   6.531  0.0368  1.4528 -0.7162
  890MOL0     H17422   7.526   2.393   6.604  1.3172 -0.9312 -0.2035
  890MOL0     H17423   7.293   2.273   6.768 -1.2976  0.3663  0.4180
  890MOL0     H17424   7.409   2.402   6.812  0.7024 -1.0535 -0.0873
  890MOL0     H17425   7.269   2.540   6.625 -1.7639  2.0730  1.4163
  890MOL0     H17426   7.207   2.518   6.778 -2.8087 -1.6029  1.0139
  890MOL0     H17427   7.069   2.307   6.700  2.2721  0.7021  2.5568
  890MOL0     H17428   7.151   2.326   6.542 -0.9150 -1.0365  0.2785
  890MOL0     H17429   6.967   2.525   6.678 -0.4474 -2.8246  0.2736
  890MOL0     H17430   7.073   2.559   6.544  3.2798 -1.4936  1.1261
  890MOL0     H17431   6.860   2.333   6.562  0.7422 -1.2668 -0.7801
  890MOL0     H17432   6.937   2.359   6.414  0.6843 -0.5496  0.9544
  890MOL0     H17433   6.870   2.604   6.289  0.4190 -0.9056  0.0898
  890MOL0     H17434   6.558   2.801   6.304  0.2915  2.2046 -2.3358
  890MOL0     H17435   6.726   2.814   6.251 -1.7135  0.0756 -1.4971
  890MOL0     H17436   6.684   3.018   6.314  5.5355 -1.4077 -0.4328
  890MOL0     H17437   6.766   2.954   6.463 -0.4104  1.0008  0.9862
  890MOL0     H17438   6.461   2.979   6.445 -1.2544  1.0168  3.1722
  890MOL0     H17439   6.561   2.906   6.568  2.8449 -0.9864 -0.6254
  890MOL0     H17440   6.668   3.124   6.614  0.9663 -0.7125 -0.6566
  890MOL0     H17441   6.484   3.148   6.615 -1.5180  1.7696 -2.1404
  890MOL0     H17442   6.306   3.152   6.476 -1.8684  0.8909  1.0482
  890MOL0     H17443   6.134   3.204   6.309 -0.1543 -0.0801 -1.4391
  890MOL0     H17444   6.233   3.317   5.706 -0.3222 -1.2153  0.4528
  890MOL0     H17445   6.140   3.432   5.512  0.9971 -0.4818  1.0279
  890MOL0     H17446   5.723   3.612   5.485  0.3342 -0.1358  0.0840
  890MOL0     H17447   5.785   3.473   5.568  0.2366  0.0920  0.3490
  890MOL0     H17448   5.889   3.392   5.373  0.8963 -0.4014 -2.3929
  890MOL0     H17449   5.905   3.556   5.303  0.3320  3.5074  5.4885
  890MOL0     H17450   5.643   3.392   5.300 -0.9872  2.1370  0.8362
  890MOL0     H17451   5.759   3.418   5.169 -1.5894  1.3392 -0.7589
  890MOL0     H17452   5.593   3.626   5.322  0.5873  2.3267 -0.1321
  890MOL0     H17453   5.712   3.670   5.210 -1.5665  0.7632  0.1402
  890MOL0     H17454   5.583   3.591   5.018  1.4726  1.7139  0.2025
  890MOL0     H17455   5.477   3.691   5.112  0.5100  0.8156 -0.2995
  890MOL0     H17456   5.371   3.519   5.229  2.0449 -1.6783  1.4239
  890MOL0     H17457   5.464   3.387   5.142  1.4870  0.0311 -1.4660
  890MOL0     H17458   5.360   3.502   4.926  0.6758 -1.7870 -0.4483
  890MOL0     H17459   5.291   3.375   5.022 -3.4160  0.7378 -1.5234
  890MOL0     H17460   5.183   3.565   5.173  0.4810  0.0147  0.5922
  890MOL0     H17461   5.114   3.521   5.014  2.0967  1.9377 -2.8270
  890MOL0     H17462   5.870   3.640   5.772  0.5526  0.5077  2.2189
  890MOL0     H17463   5.974   3.551   5.972 -0.4588  0.7312 -0.8831
  890MOL0     H17464   6.426   3.388   6.049  0.7293  0.4518  0.1062
  890MOL0     H17465   6.601   3.350   6.236  0.1576 -1.1711  0.0617
  890MOL0     H17466   7.689   2.053   6.254  0.6805  0.2105 -1.4861
  890MOL0     H17467   7.910   2.039   6.134  1.5414 -0.0171  0.4180
  890MOL0     H17468   8.248   2.095   6.046 -1.7117 -1.4145  1.6875
  890MOL0     H17469   8.440   2.173   5.938 -1.3913  1.8009  2.1696
  890MOL0     H17470   8.869   2.085   5.922 -0.0988  1.0452  0.4545
  890MOL0     H17471   8.822   1.943   6.023 -1.7546  0.3871  3.9865
  890MOL0     H17472   8.864   2.220   6.145  2.1916  0.6631 -0.5117
  890MOL0     H17473   8.845   2.053   6.217  2.8949 -1.7288  0.1447
  890MOL0     H17474   9.065   2.171   6.034  0.6847 -1.1762 -1.1324
  890MOL0     H17475   9.073   2.002   6.085 -0.2265  1.2279 -0.5559
  890MOL0     H17476   9.071   2.249   6.271  4.3504  1.2966 -1.5780
  890MOL0     H17477   9.089   2.076   6.320 -0.7550 -0.6551 -1.0230
  890MOL0     H17478   9.472   2.218   6.208  0.5773 -1.1134 -0.3645
  890MOL0     H17479   8.685   1.901   6.181 -1.6843 -2.8974  1.6911
  890MOL0     H17480   8.482   1.854   6.322 -4.3872 -3.8188 -2.1120
  891MOL0     O17481   3.375   9.469   9.989 -0.1416 -1.2094  0.3355
  891MOL0     C17482   3.490   9.468  10.025  0.2934  0.5200 -0.2343
  891MOL0     O17483   3.550   9.511  10.143  0.2342 -0.5641  0.6568
  891MOL0     C17484   3.464   9.522  10.246 -0.0385  1.0481 -0.7690
  891MOL0     C17485   3.356   9.612  10.249 -0.8494  0.5000  0.2813
  891MOL0     C17486   3.270   9.620  10.352 -0.5507  0.5404  0.5407
  891MOL0     C17487   3.277   9.530  10.459 -1.0182  0.1271 -0.7868
  891MOL0     O17488   3.186   9.511  10.562  0.7160  0.1086 -0.9954
  891MOL0     C17489   3.069   9.599  10.543  0.2725 -0.2979 -1.0447
  891MOL0     C17490   2.972   9.587  10.673 -0.7975 -0.5541 -0.1878
  891MOL0     C17491   2.840   9.666  10.634  0.1970  0.2463 -0.1121
  891MOL0     C17492   2.734   9.633  10.742  0.6414 -0.2254  0.1102
  891MOL0     C17493   2.599   9.711  10.737  0.0215 -0.4117 -0.0806
  891MOL0     C17494   2.485   9.643  10.809  0.2851  0.6699 -0.4334
  891MOL0     C17495   2.530   9.610  10.949  0.1148  0.0801  0.9751
  891MOL0     C17496   2.406   9.579  11.038 -0.6565  0.2132  0.5357
  891MOL0     N17497   2.313   9.478  10.981 -0.1974  0.3129  0.8039
  891MOL0     C17498   2.361   9.358  10.929 -0.1690  0.5728 -0.3014
  891MOL0     C17499   2.249   9.316  10.868 -0.6286  0.4881 -0.5208
  891MOL0     C17500   2.237   9.187  10.801  1.1006  0.2173 -0.3959
  891MOL0     C17501   2.257   9.212  10.645  0.0105 -0.3121 -0.9008
  891MOL0     C17502   2.291   9.088  10.561 -0.6276  0.3546  0.1445
  891MOL0     C17503   2.199   8.965  10.586  0.6810 -0.0886  0.1260
  891MOL0     O17504   2.181   8.901  10.459  0.3482  0.1279 -0.4035
  891MOL0     C17505   2.069   8.818  10.438  0.4386  0.0579 -0.8135
  891MOL0     C17506   2.061   8.778  10.307  0.0955 -0.9920 -0.1538
  891MOL0     C17507   1.963   8.687  10.264  0.6638  0.3016  0.2665
  891MOL0     C17508   1.860   8.656  10.353  0.3779 -0.0626 -0.2541
  891MOL0     C17509   1.748   8.561  10.320 -0.4874  0.2046  0.4826
  891MOL0     O17510   1.656   8.547  10.411 -0.1235 -0.3011 -0.8938
  891MOL0     C17511   1.573   8.453  10.384  0.0434 -1.2354 -0.8003
  891MOL0     C17512   1.580   8.341  10.471 -0.4233 -0.3108  0.1223
  891MOL0     C17513   1.482   8.241  10.467  0.2303  0.7774 -0.5795
  891MOL0     C17514   1.379   8.237  10.373  1.4703  0.5697 -0.0189
  891MOL0     O17515   1.290   8.131  10.365  0.1826 -0.5103 -0.2357
  891MOL0     C17516   1.330   8.017  10.441 -0.5663 -0.1645  0.2991
  891MOL0     C17517   1.234   7.905  10.426 -0.4825  0.1541 -0.1987
  891MOL0     C17518   1.096   7.942  10.473 -0.0791  0.6624 -0.2984
  891MOL0     C17519   0.997   7.832  10.438 -0.5339  0.4319 -0.4141
  891MOL0     C17520   0.856   7.880  10.477  0.3213  0.9404  0.4090
  891MOL0     C17521   0.751   7.770  10.441  0.5261  0.4383  0.2721
  891MOL0     C17522   0.615   7.814  10.490 -0.3867 -1.2029  0.5366
  891MOL0     C17523   0.511   7.716  10.435  0.6350 -0.4697 -0.8331
  891MOL0    Cl17524   0.339   7.775  10.462 -0.3690  0.2993  0.3000
  891MOL0     C17525   1.371   8.354  10.289 -0.9610 -0.5326  0.1860
  891MOL0     C17526   1.465   8.465  10.292 -0.0034  0.3063 -0.5020
  891MOL0     O17527   1.756   8.501  10.207  0.0226  0.5269  0.3492
  891MOL0     C17528   1.868   8.696  10.491 -0.4296 -0.2659 -0.1968
  891MOL0     C17529   1.975   8.776  10.534 -0.3717 -0.3698 -0.6528
  891MOL0     N17530   2.140   9.395  10.900 -1.0028 -0.4625  0.2577
  891MOL0     N17531   2.177   9.499  10.958  1.0045  0.3372 -0.0549
  891MOL0     C17532   3.392   9.447  10.456 -0.2890 -0.0259 -0.3305
  891MOL0     C17533   3.485   9.446  10.358  0.5236  0.8760  0.7132
  891MOL0     C17534   3.585   9.439   9.921 -0.1744  0.1855  0.5216
  891MOL0     C17535   3.544   9.400   9.798  0.2228  0.1035 -0.2152
  891MOL0     C17536   3.631   9.370   9.693 -0.0005 -0.1271  0.1357
  891MOL0     C17537   3.770   9.401   9.700 -0.0215 -0.8019  0.3689
  891MOL0     O17538   3.869   9.377   9.610 -0.1074  0.1716  0.1473
  891MOL0     C17539   3.842   9.285   9.504  0.1148 -0.3218 -0.3641
  891MOL0     C17540   3.798   9.146   9.534 -0.0959 -0.3385 -0.1662
  891MOL0     C17541   3.896   9.076   9.634  1.0153 -0.1054 -0.1949
  891MOL0     C17542   3.845   8.931   9.669  0.3036 -0.0617 -0.0886
  891MOL0     C17543   3.877   8.849   9.556  0.2919  0.6158 -0.8277
  891MOL0     C17544   3.901   8.786   9.458 -0.4532  0.1850 -0.9334
  891MOL0     C17545   3.808   9.450   9.826 -0.8564  0.2100  0.4588
  891MOL0     C17546   3.724   9.457   9.935 -0.2621  0.2782  0.7352
  891MOL0     H17547   3.339   9.668  10.158 -1.4923  1.9204  1.2368
  891MOL0     H17548   3.182   9.684  10.344 -0.7294  0.5322  2.0950
  891MOL0     H17549   3.009   9.584  10.453 -0.7968 -0.3641 -0.3367
  891MOL0     H17550   3.090   9.706  10.532  0.0967  0.0160  1.1253
  891MOL0     H17551   3.016   9.637  10.760  0.6564 -0.1746 -1.1135
  891MOL0     H17552   2.953   9.480  10.685  2.1144 -1.3683 -1.8089
  891MOL0     H17553   2.803   9.656  10.531  1.4895  2.0802 -0.8091
  891MOL0     H17554   2.857   9.774  10.636  1.0387  0.1079  1.1869
  891MOL0     H17555   2.702   9.530  10.721 -2.6935  0.5740  0.6797
  891MOL0     H17556   2.782   9.633  10.840 -0.2774  0.1499  0.5722
  891MOL0     H17557   2.567   9.724  10.634  0.4358 -1.9019 -0.4194
  891MOL0     H17558   2.608   9.812  10.780 -0.2297 -2.0043  4.1769
  891MOL0     H17559   2.460   9.556  10.747  0.0888  0.0944  0.4311
  891MOL0     H17560   2.400   9.712  10.812  0.3130  0.7227 -0.8331
  891MOL0     H17561   2.591   9.519  10.942 -0.3297 -0.1341 -0.3161
  891MOL0     H17562   2.586   9.689  11.000  1.5091 -1.4113  1.8698
  891MOL0     H17563   2.359   9.677  11.051 -2.4653 -0.1611 -2.3810
  891MOL0     H17564   2.444   9.544  11.135 -1.2975  1.5255  1.3007
  891MOL0     H17565   2.456   9.307  10.920 -0.7839 -0.2889 -2.7508
  891MOL0     H17566   2.131   9.161  10.808  1.0052  0.6461 -0.2346
  891MOL0     H17567   2.302   9.108  10.840 -0.9650  0.1667  3.4813
  891MOL0     H17568   2.336   9.287  10.631  1.2937 -0.7541  2.8025
  891MOL0     H17569   2.167   9.252  10.598 -1.2561 -1.4541  0.4836
  891MOL0     H17570   2.295   9.116  10.455  0.3662  3.8402  0.9992
  891MOL0     H17571   2.392   9.054  10.586 -0.9855 -1.0132 -0.1865
  891MOL0     H17572   2.104   8.998  10.631  1.1100 -3.2853  3.9877
  891MOL0     H17573   2.231   8.890  10.659 -3.4992 -2.4762 -0.1639
  891MOL0     H17574   2.128   8.816  10.231  0.5240 -2.6522 -0.6546
  891MOL0     H17575   1.946   8.663  10.160 -1.6730  2.0413  0.1407
  891MOL0     H17576   1.660   8.319  10.541  0.7104  0.9518 -0.7238
  891MOL0     H17577   1.503   8.168  10.545 -1.1453  1.1374  0.1577
  891MOL0     H17578   1.328   8.043  10.548  1.0525  0.4176  0.2148
  891MOL0     H17579   1.433   7.996  10.412 -0.2123 -0.2085  1.5117
  891MOL0     H17580   1.266   7.820  10.486 -0.1073 -0.8237 -1.7141
  891MOL0     H17581   1.237   7.882  10.319  1.8032  2.5270 -0.7683
  891MOL0     H17582   1.065   8.034  10.423  1.4493 -0.1185 -2.8718
  891MOL0     H17583   1.082   7.964  10.579 -0.2867 -4.1796  0.9161
  891MOL0     H17584   1.006   7.789  10.338 -1.5058 -0.8364  0.0103
  891MOL0     H17585   1.017   7.750  10.507 -1.2156  0.4698 -0.1660
  891MOL0     H17586   0.821   7.964  10.416 -1.2813 -0.3059 -0.4686
  891MOL0     H17587   0.840   7.912  10.580 -2.6965  1.5575 -0.1613
  891MOL0     H17588   0.769   7.677  10.495 -0.3677  0.2390  0.2398
  891MOL0     H17589   0.735   7.760  10.333 -1.5211  0.1304  0.5723
  891MOL0     H17590   0.603   7.817  10.598 -1.3032 -1.6500  0.4538
  891MOL0     H17591   0.595   7.912  10.444 -0.6765 -2.5401 -2.4552
  891MOL0     H17592   0.532   7.618  10.479 -1.6803 -0.0696  1.3607
  891MOL0     H17593   0.513   7.703  10.326  0.5185 -2.5053 -0.6202
  891MOL0     H17594   1.293   8.351  10.214  0.7043  2.0271 -1.8055
  891MOL0     H17595   1.449   8.549  10.226 -0.6709 -0.7691 -1.7561
  891MOL0     H17596   1.791   8.670  10.564 -1.4504 -2.4771 -1.9530
  891MOL0     H17597   1.981   8.805  10.638  2.7241  3.3131 -1.6253
  891MOL0     H17598   3.396   9.372  10.534  1.8822 -1.3801 -1.6503
  891MOL0     H17599   3.579   9.392  10.364  0.6034  0.5866 -1.9218
  891MOL0     H17600   3.438   9.376   9.797 -0.1875  1.2693  2.9187
  891MOL0     H17601   3.587   9.333   9.601  1.2631  0.7184 -0.8504
  891MOL0     H17602   3.938   9.282   9.452  0.9283 -1.9367  1.1169
  891MOL0     H17603   3.768   9.323   9.433 -1.0215 -2.0071 -0.1442
  891MOL0     H17604   3.699   9.152   9.581 -0.2058  0.1982 -0.4573
  891MOL0     H17605   3.788   9.084   9.445  0.2987  0.9547 -1.1318
  891MOL0     H17606   3.914   9.140   9.720  3.0380  0.1193 -0.7374
  891MOL0     H17607   3.994   9.067   9.586  1.1422 -2.6326  0.3688
  891MOL0     H17608   3.880   8.892   9.765 -1.1959  1.5602  1.1803
  891MOL0     H17609   3.736   8.935   9.678  0.3131  0.9415 -0.3227
  891MOL0     H17610   3.932   8.725   9.375 -0.4969 -1.7973  0.4343
  891MOL0     H17611   3.908   9.485   9.845 -0.6975 -1.1018  2.3525
  891MOL0     H17612   3.763   9.495  10.028 -0.4629  2.7328 -0.0891
  892MOL0     O17613   1.038   7.211   1.582 -0.9895  0.0671 -0.2625
  892MOL0     C17614   1.052   7.322   1.534  0.8905 -0.7741  0.2342
  892MOL0     O17615   0.954   7.409   1.526 -0.0987 -0.0822 -0.1209
  892MOL0     C17616   0.825   7.382   1.564 -0.6324  0.7065  1.0914
  892MOL0     C17617   0.746   7.289   1.501  0.0553  0.0885  0.1222
  892MOL0     C17618   0.615   7.255   1.543  0.1942 -0.5919  0.9341
  892MOL0     C17619   0.564   7.329   1.646 -0.2939 -0.6315 -0.7818
  892MOL0     O17620   0.427   7.321   1.671 -0.0921 -0.2735 -0.0278
  892MOL0     C17621   0.352   7.424   1.742 -0.1365  0.0348 -0.1837
  892MOL0     C17622   0.206   7.411   1.712 -0.7185  0.0451  0.8402
  892MOL0     C17623   0.129   7.525   1.776  0.4863  0.5108 -0.2250
  892MOL0     C17624  -0.020   7.489   1.770 -0.4338  0.5407  0.3263
  892MOL0     C17625  -0.106   7.616   1.800 -1.0550 -0.1273 -0.3656
  892MOL0     C17626  -0.085   7.672   1.938  0.2805  0.1310  0.9881
  892MOL0     C17627  -0.117   7.577   2.059  0.3743 -0.2709 -0.1588
  892MOL0     C17628  -0.250   7.493   2.049  0.3476  0.3169  0.7198
  892MOL0     N17629  -0.370   7.578   2.052  0.0947  0.3730  0.1757
  892MOL0     C17630  -0.408   7.657   2.152 -0.3257 -0.2044 -0.2099
  892MOL0     C17631  -0.522   7.717   2.112  0.4959 -0.2135  0.0645
  892MOL0     C17632  -0.593   7.810   2.208  0.3982  0.2836  0.2012
  892MOL0     C17633  -0.606   7.956   2.163 -0.5128  0.1454 -0.5220
  892MOL0     C17634  -0.705   7.976   2.052 -1.0292  0.4742  0.9366
  892MOL0     C17635  -0.846   7.992   2.113  0.1044  0.0869 -0.1091
  892MOL0     O17636  -0.955   7.995   2.025 -0.0107  0.4095 -0.1907
  892MOL0     C17637  -1.072   8.041   2.070  0.0827 -0.1851 -0.0019
  892MOL0     C17638  -1.114   8.071   2.197  0.1395 -0.6874  0.1473
  892MOL0     C17639  -1.244   8.123   2.230 -1.2745  1.0193  1.0205
  892MOL0     C17640  -1.333   8.138   2.130  0.4916 -0.4653  1.0909
  892MOL0     C17641  -1.473   8.177   2.156 -0.1673 -0.4001 -0.5476
  892MOL0     O17642  -1.494   8.226   2.277 -0.3689  0.7263  0.1140
  892MOL0     C17643  -1.627   8.250   2.324 -0.3217  0.2438 -0.4554
  892MOL0     C17644  -1.743   8.199   2.273 -0.0081  0.4329  0.4700
  892MOL0     C17645  -1.868   8.212   2.344 -0.4953 -1.0069 -0.2766
  892MOL0     C17646  -1.874   8.284   2.462  0.7861 -0.2262 -0.7197
  892MOL0     O17647  -1.990   8.308   2.538 -0.7718  0.6040  0.8520
  892MOL0     C17648  -2.109   8.231   2.506  0.2494 -0.2444 -0.5389
  892MOL0     C17649  -2.234   8.291   2.572  0.7974 -0.5870 -0.3586
  892MOL0     C17650  -2.276   8.416   2.489  0.2864 -0.4441 -0.3022
  892MOL0     C17651  -2.383   8.497   2.569  1.3823 -0.7165  0.3247
  892MOL0     C17652  -2.526   8.433   2.557  0.1877 -0.4319 -0.5910
  892MOL0     C17653  -2.631   8.529   2.611 -0.3746  0.3692 -0.0797
  892MOL0     C17654  -2.766   8.464   2.617  0.0518 -0.0130 -0.0759
  892MOL0     C17655  -2.878   8.566   2.654  0.0840 -0.6671 -0.5310
  892MOL0    Cl17656  -3.036   8.486   2.694  0.3481 -0.2609  0.5480
  892MOL0     C17657  -1.762   8.340   2.517  0.3370  0.0253  0.6414
  892MOL0     C17658  -1.638   8.317   2.451 -0.7196  0.2103  0.5326
  892MOL0     O17659  -1.552   8.172   2.062  0.1157  0.3241 -0.3932
  892MOL0     C17660  -1.296   8.112   1.992 -0.7106 -0.2916 -0.1491
  892MOL0     C17661  -1.163   8.064   1.966  0.2024 -0.1006  0.4358
  892MOL0     N17662  -0.552   7.655   1.992  0.2003 -0.1495  0.3668
  892MOL0     N17663  -0.459   7.583   1.947  1.1602 -0.3927 -0.4880
  892MOL0     C17664   0.645   7.428   1.719  0.0294  0.1583  0.1453
  892MOL0     C17665   0.774   7.458   1.671  0.0071 -1.1768  0.5437
  892MOL0     C17666   1.180   7.359   1.461 -0.2649  0.3835 -1.0129
  892MOL0     C17667   1.280   7.265   1.451  0.5249  0.0234 -0.4980
  892MOL0     C17668   1.399   7.295   1.397 -0.6145 -0.5153  0.0902
  892MOL0     C17669   1.434   7.428   1.351 -0.0242  0.4828 -0.8136
  892MOL0     O17670   1.555   7.469   1.301  0.5868 -0.7846  0.3854
  892MOL0     C17671   1.657   7.375   1.265 -0.0090  0.0009  0.4041
  892MOL0     C17672   1.737   7.316   1.391  0.3105 -0.6760  0.8529
  892MOL0     C17673   1.856   7.411   1.420 -0.3785  0.0638  0.1596
  892MOL0     C17674   1.866   7.414   1.576 -0.0699  0.1254 -0.1343
  892MOL0     C17675   2.006   7.434   1.619 -0.4702 -0.0217  0.2806
  892MOL0     C17676   2.120   7.452   1.645 -0.7359 -0.1918 -0.1447
  892MOL0     C17677   1.336   7.522   1.363  0.3611 -0.8742  1.4686
  892MOL0     C17678   1.211   7.489   1.421  0.8839  0.3685  0.1282
  892MOL0     H17679   0.783   7.231   1.417  1.8058 -0.0214  0.9269
  892MOL0     H17680   0.554   7.182   1.490  0.4241 -0.4460  0.4591
  892MOL0     H17681   0.382   7.526   1.716 -1.3377  0.0022 -1.7958
  892MOL0     H17682   0.364   7.406   1.849  1.0049 -1.5020 -0.5431
  892MOL0     H17683   0.170   7.312   1.739  0.9143 -2.0010 -3.4815
  892MOL0     H17684   0.191   7.409   1.603  0.1455  0.6450  0.6960
  892MOL0     H17685   0.149   7.615   1.718 -2.8775 -0.4787 -3.3285
  892MOL0     H17686   0.161   7.532   1.881  1.1513 -2.1591 -0.1870
  892MOL0     H17687  -0.037   7.453   1.669  0.0165 -1.0104  0.7782
  892MOL0     H17688  -0.050   7.405   1.833 -1.5934  0.5719 -0.1646
  892MOL0     H17689  -0.212   7.595   1.781 -1.0417  0.4157 -1.0918
  892MOL0     H17690  -0.066   7.696   1.737 -0.7391 -0.5542 -0.7106
  892MOL0     H17691  -0.151   7.759   1.943  0.8195  0.5279  1.2426
  892MOL0     H17692   0.019   7.707   1.939  0.9951 -1.8117  3.2443
  892MOL0     H17693  -0.038   7.500   2.065  0.6587  0.1391  1.9435
  892MOL0     H17694  -0.115   7.627   2.156  2.0088 -2.7473  1.1911
  892MOL0     H17695  -0.254   7.419   2.129 -1.7383 -2.3088 -1.6125
  892MOL0     H17696  -0.262   7.438   1.956 -2.8213 -0.7131  1.6164
  892MOL0     H17697  -0.359   7.679   2.246  1.5763  0.3718 -1.2838
  892MOL0     H17698  -0.544   7.815   2.306 -1.2405  1.5404  1.0209
  892MOL0     H17699  -0.692   7.767   2.228  0.9893 -1.2832 -0.0993
  892MOL0     H17700  -0.509   7.987   2.123 -0.3718  2.2414  1.2657
  892MOL0     H17701  -0.623   8.022   2.248  0.7401  2.3822 -1.9361
  892MOL0     H17702  -0.675   8.065   1.995  0.6477 -1.2860 -1.0774
  892MOL0     H17703  -0.711   7.892   1.983 -2.0673  1.9585 -0.8917
  892MOL0     H17704  -0.840   8.085   2.169  1.7807  0.8802 -1.5128
  892MOL0     H17705  -0.866   7.905   2.176  1.7086 -3.4374 -3.9477
  892MOL0     H17706  -1.039   8.063   2.276  2.6501  1.9550 -1.7341
  892MOL0     H17707  -1.266   8.145   2.334 -1.5925  4.8729  0.2744
  892MOL0     H17708  -1.743   8.140   2.182 -0.1594 -1.5694  1.7071
  892MOL0     H17709  -1.954   8.162   2.302 -0.6714  0.1973 -1.4062
  892MOL0     H17710  -2.099   8.131   2.549  1.4688 -0.0036 -0.2259
  892MOL0     H17711  -2.127   8.228   2.398 -0.0394 -0.8300 -0.4776
  892MOL0     H17712  -2.221   8.325   2.675 -0.8229 -1.2699  0.0986
  892MOL0     H17713  -2.312   8.214   2.576 -1.0735  1.2533  1.9860
  892MOL0     H17714  -2.308   8.394   2.387 -2.1078  1.2942 -0.0203
  892MOL0     H17715  -2.189   8.481   2.478  1.1046 -1.1694  1.5264
  892MOL0     H17716  -2.362   8.513   2.675 -0.1608 -0.8721  0.6794
  892MOL0     H17717  -2.387   8.590   2.512  1.4386 -2.6699 -3.1823
  892MOL0     H17718  -2.526   8.338   2.611  2.6308 -1.5380 -2.2963
  892MOL0     H17719  -2.531   8.412   2.450  2.6625  0.3523 -0.9372
  892MOL0     H17720  -2.632   8.630   2.568 -3.3177  0.9035  1.0431
  892MOL0     H17721  -2.606   8.546   2.716 -0.5213  0.5957 -0.0810
  892MOL0     H17722  -2.791   8.404   2.529 -0.7519 -0.7633  0.6393
  892MOL0     H17723  -2.772   8.385   2.693 -0.1768 -1.3982 -1.4728
  892MOL0     H17724  -2.879   8.658   2.595 -0.5830 -0.6754 -0.5382
  892MOL0     H17725  -2.847   8.613   2.748  2.1205 -0.6254 -1.1813
  892MOL0     H17726  -1.773   8.401   2.606  0.8668  2.3187 -0.7773
  892MOL0     H17727  -1.553   8.367   2.498 -0.1043  0.6981 -1.0475
  892MOL0     H17728  -1.353   8.116   1.900 -3.2789 -0.9211  1.3279
  892MOL0     H17729  -1.140   8.046   1.862  4.0830 -0.4653  1.2151
  892MOL0     H17730   0.604   7.481   1.805  0.1118 -0.0251  0.2969
  892MOL0     H17731   0.822   7.539   1.725  0.8804 -0.9356 -0.5434
  892MOL0     H17732   1.269   7.161   1.481 -2.1988  0.4874  0.3007
  892MOL0     H17733   1.468   7.211   1.397 -0.6513 -0.5469 -0.2073
  892MOL0     H17734   1.720   7.419   1.187  0.9502 -1.7638  0.1426
  892MOL0     H17735   1.590   7.307   1.212  1.0990 -0.1129 -0.9145
  892MOL0     H17736   1.663   7.307   1.472 -1.2808 -2.1412 -0.6751
  892MOL0     H17737   1.769   7.215   1.364  1.0581  0.2836 -2.2270
  892MOL0     H17738   1.836   7.513   1.387 -0.2241 -0.4041 -1.5138
  892MOL0     H17739   1.954   7.384   1.378  0.8073  0.9493  2.2228
  892MOL0     H17740   1.803   7.484   1.632  0.3949 -2.1519  3.6169
  892MOL0     H17741   1.824   7.318   1.610 -1.8839  0.7160 -0.6121
  892MOL0     H17742   2.225   7.471   1.644 -0.6386 -0.7241 -0.6150
  892MOL0     H17743   1.374   7.621   1.340  0.7269 -1.1188  1.0058
  892MOL0     H17744   1.135   7.566   1.428 -0.6579 -1.1166  0.4042
  893MOL0     O17745   5.205   8.735   9.753 -0.0956  0.2716  0.5711
  893MOL0     C17746   5.177   8.731   9.871 -0.1206  0.7142 -0.0684
  893MOL0     O17747   5.078   8.664   9.932  0.1459 -0.5635  0.3707
  893MOL0     C17748   4.967   8.619   9.875  0.2896 -0.0902 -0.3325
  893MOL0     C17749   4.938   8.624   9.730  0.0411  0.2642  0.7804
  893MOL0     C17750   4.816   8.572   9.680 -0.7665  0.7196 -0.1358
  893MOL0     C17751   4.729   8.515   9.775 -0.0172  0.2353  0.3545
  893MOL0     O17752   4.596   8.487   9.741 -0.3392  0.6544  0.0827
  893MOL0     C17753   4.582   8.348   9.710  0.2305  0.0426 -0.9967
  893MOL0     C17754   4.448   8.329   9.637 -0.6648 -0.2161 -0.9754
  893MOL0     C17755   4.424   8.176   9.628 -0.8181  0.8417 -0.3464
  893MOL0     C17756   4.277   8.144   9.589 -0.2466  0.2550 -0.2086
  893MOL0     C17757   4.260   7.989   9.566 -0.1618 -0.4580 -0.9193
  893MOL0     C17758   4.163   7.978   9.451  0.1621 -0.9011 -0.1352
  893MOL0     C17759   4.106   7.840   9.447  0.7306  0.4320  0.8094
  893MOL0     C17760   4.007   7.818   9.320 -0.4613  0.3611  1.3231
  893MOL0     N17761   3.972   7.675   9.321 -0.2863  0.3521  0.3261
  893MOL0     C17762   3.894   7.608   9.406  1.3370 -0.6025 -0.1879
  893MOL0     C17763   3.903   7.477   9.373 -0.1662 -1.1420  0.2847
  893MOL0     C17764   3.843   7.365   9.444  0.6339 -0.6007 -0.3640
  893MOL0     C17765   3.757   7.271   9.358 -0.1838  1.4483 -0.3469
  893MOL0     C17766   3.844   7.191   9.257  0.3820 -0.6870 -0.0203
  893MOL0     C17767   3.775   7.078   9.197  0.0888  0.4877  0.3481
  893MOL0     O17768   3.760   6.987   9.303 -0.1118  0.3928 -0.4375
  893MOL0     C17769   3.676   6.886   9.293  0.5706 -0.6868 -0.3481
  893MOL0     C17770   3.658   6.815   9.412  0.3841 -0.4443 -0.6279
  893MOL0     C17771   3.570   6.709   9.417  0.5665  0.1144 -0.8022
  893MOL0     C17772   3.500   6.671   9.295  0.3800  0.5259 -0.2603
  893MOL0     C17773   3.402   6.559   9.292 -0.6032 -0.1619 -0.0721
  893MOL0     O17774   3.346   6.522   9.177 -0.2924 -0.5568  0.0093
  893MOL0     C17775   3.249   6.425   9.153  0.0818 -0.4317 -0.2745
  893MOL0     C17776   3.202   6.425   9.022 -0.0673 -0.9922  0.0214
  893MOL0     C17777   3.100   6.335   8.985  1.2572  0.2819 -0.4498
  893MOL0     C17778   3.048   6.245   9.080 -0.3311  0.0633  1.0523
  893MOL0     O17779   2.967   6.137   9.043  0.3522  0.1970  0.5139
  893MOL0     C17780   2.883   6.155   8.935  0.3209  0.2044 -0.0983
  893MOL0     C17781   2.767   6.048   8.926 -1.3138 -0.6585 -0.4117
  893MOL0     C17782   2.649   6.077   9.025  0.9006  0.6366 -0.0923
  893MOL0     C17783   2.585   5.942   9.048 -0.6090  0.5927 -0.0142
  893MOL0     C17784   2.473   5.959   9.151 -0.3257  0.2410 -0.1328
  893MOL0     C17785   2.350   6.054   9.109  0.7370 -0.2604 -0.7570
  893MOL0     C17786   2.241   6.043   9.222  0.0350 -1.0929  0.6492
  893MOL0     C17787   2.281   6.120   9.349 -0.4469 -0.1578  0.0888
  893MOL0    Cl17788   2.134   6.136   9.462 -0.1975  0.2786  0.0513
  893MOL0     C17789   3.100   6.242   9.213 -0.4945 -0.9673  0.7839
  893MOL0     C17790   3.206   6.333   9.245  0.1140 -0.6491 -0.9801
  893MOL0     O17791   3.381   6.509   9.404  0.0197 -0.3486  0.4336
  893MOL0     C17792   3.524   6.741   9.176 -0.6007 -0.5756 -0.4836
  893MOL0     C17793   3.612   6.843   9.180 -0.1779 -0.4343 -0.2707
  893MOL0     N17794   3.997   7.466   9.269  0.2218  0.0599 -0.0455
  893MOL0     N17795   4.033   7.588   9.240  0.6962 -0.4782 -0.9353
  893MOL0     C17796   4.767   8.492   9.905 -0.1504 -0.4318  0.4768
  893MOL0     C17797   4.869   8.558   9.962  0.1730 -0.2092  0.0356
  893MOL0     C17798   5.283   8.793   9.954  0.3513  0.8468 -0.0145
  893MOL0     C17799   5.391   8.852   9.887  0.6951  0.6541 -0.1600
  893MOL0     C17800   5.482   8.917   9.968 -1.8855  0.0294 -0.0108
  893MOL0     C17801   5.490   8.898  10.108 -0.4542  0.6877  0.0888
  893MOL0     O17802   5.601   8.945  10.171  0.5009 -0.3738 -0.4161
  893MOL0     C17803   5.728   8.879  10.138 -0.2179  0.0095 -0.3270
  893MOL0     C17804   5.856   8.938  10.193  0.1111  0.0536 -0.4225
  893MOL0     C17805   5.836   8.979  10.344 -1.4946 -0.2938 -0.5948
  893MOL0     C17806   5.969   9.034  10.392  1.1895 -1.3760 -0.6181
  893MOL0     C17807   5.955   9.064  10.530  0.6303 -0.1150  0.1377
  893MOL0     C17808   5.949   9.095  10.646 -1.1339  0.0813  0.3511
  893MOL0     C17809   5.381   8.838  10.173  0.6176 -0.6960  0.1512
  893MOL0     C17810   5.279   8.780  10.095  0.8710 -0.6169 -0.7791
  893MOL0     H17811   5.012   8.666   9.663 -0.1722 -2.1322 -1.0758
  893MOL0     H17812   4.771   8.583   9.582 -2.6366 -1.3240  0.4163
  893MOL0     H17813   4.581   8.298   9.807  0.9218 -0.7479 -1.3839
  893MOL0     H17814   4.665   8.307   9.652 -0.3844 -0.2542 -1.6797
  893MOL0     H17815   4.449   8.383   9.542  0.2700  0.5073 -0.5749
  893MOL0     H17816   4.378   8.377   9.707 -0.1094  3.2741 -2.5773
  893MOL0     H17817   4.454   8.137   9.726 -1.1704 -1.7023 -1.1683
  893MOL0     H17818   4.486   8.126   9.554 -0.5562 -1.2851  1.2152
  893MOL0     H17819   4.195   8.189   9.646 -1.7730 -1.5954 -0.8246
  893MOL0     H17820   4.265   8.185   9.488 -3.4150 -2.7077 -1.2668
  893MOL0     H17821   4.233   7.944   9.662  0.1800 -1.4463 -1.2666
  893MOL0     H17822   4.348   7.925   9.555 -1.2501 -2.2863  0.4168
  893MOL0     H17823   4.218   8.011   9.363  0.2909  0.3170  0.3769
  893MOL0     H17824   4.073   8.040   9.463  0.3623 -0.9303  2.0989
  893MOL0     H17825   4.188   7.767   9.448 -0.1152 -0.7221 -2.6045
  893MOL0     H17826   4.055   7.810   9.539  0.9142 -2.5608  0.0393
  893MOL0     H17827   4.056   7.840   9.225 -2.0831 -2.0611 -0.1871
  893MOL0     H17828   3.919   7.884   9.321 -2.4230 -2.0450 -0.4396
  893MOL0     H17829   3.835   7.639   9.492  0.3823 -4.4655  0.7354
  893MOL0     H17830   3.769   7.412   9.511  0.3142  1.3255 -1.9800
  893MOL0     H17831   3.912   7.314   9.511  2.0835  2.9406  1.0831
  893MOL0     H17832   3.677   7.331   9.315  0.4704  1.5735 -1.4178
  893MOL0     H17833   3.713   7.210   9.438 -0.0346  1.6590 -0.1029
  893MOL0     H17834   3.880   7.258   9.179 -2.6852  0.1892 -0.8229
  893MOL0     H17835   3.934   7.153   9.306 -0.0941 -1.8878 -0.0394
  893MOL0     H17836   3.830   7.033   9.114 -1.2898 -1.8199  0.6263
  893MOL0     H17837   3.677   7.107   9.159 -0.2814  0.7768  1.4791
  893MOL0     H17838   3.710   6.859   9.497 -0.5204  1.5834 -1.0606
  893MOL0     H17839   3.542   6.657   9.508 -1.2528 -0.5338 -1.6713
  893MOL0     H17840   3.248   6.495   8.953  1.1288 -1.5224  0.2484
  893MOL0     H17841   3.070   6.338   8.881 -1.0237  1.2474  0.1608
  893MOL0     H17842   2.936   6.155   8.839  0.3033  0.4038 -0.1077
  893MOL0     H17843   2.836   6.253   8.948  2.6312  1.5164 -0.9782
  893MOL0     H17844   2.808   5.949   8.944 -1.0598 -0.3058  1.0694
  893MOL0     H17845   2.727   6.049   8.824 -1.7594  1.6340 -0.2842
  893MOL0     H17846   2.577   6.143   8.976  0.0940 -0.1688 -0.0336
  893MOL0     H17847   2.687   6.130   9.113  0.7324  1.4388 -0.4965
  893MOL0     H17848   2.559   5.884   8.958 -1.0014 -1.4483  1.3487
  893MOL0     H17849   2.662   5.881   9.095 -2.4679 -0.3230  1.9774
  893MOL0     H17850   2.513   5.994   9.247 -0.6976 -0.3144  0.2281
  893MOL0     H17851   2.437   5.857   9.169  1.1925 -0.0153  1.8129
  893MOL0     H17852   2.303   6.020   9.016  1.1791 -0.0591 -1.0544
  893MOL0     H17853   2.379   6.156   9.083  0.5279  0.0538  0.2013
  893MOL0     H17854   2.145   6.086   9.193 -1.2169 -1.2907  4.0984
  893MOL0     H17855   2.215   5.939   9.242 -0.4572 -1.0050  0.4703
  893MOL0     H17856   2.316   6.221   9.322 -0.5209 -0.8756 -3.0668
  893MOL0     H17857   2.360   6.065   9.401  1.2533  2.8661  0.9621
  893MOL0     H17858   3.059   6.190   9.298  3.3139 -1.8219  2.2739
  893MOL0     H17859   3.247   6.325   9.345  2.1833  1.6559 -1.5475
  893MOL0     H17860   3.473   6.725   9.082 -0.1878 -0.9967 -0.6412
  893MOL0     H17861   3.637   6.905   9.094  3.0823 -0.5134  0.5050
  893MOL0     H17862   4.698   8.448   9.977 -3.7539  0.1321 -2.3380
  893MOL0     H17863   4.887   8.565  10.069 -0.9917  2.7045  0.1373
  893MOL0     H17864   5.415   8.863   9.782  3.0282  0.2753  0.2695
  893MOL0     H17865   5.559   8.974   9.916  0.3557 -0.3279  2.6934
  893MOL0     H17866   5.744   8.855  10.032  1.4411  1.2218 -0.4028
  893MOL0     H17867   5.739   8.784  10.191 -0.2435  0.4667  0.5149
  893MOL0     H17868   5.936   8.864  10.188 -1.3764 -1.6447  0.0049
  893MOL0     H17869   5.893   9.020  10.130  1.8353 -1.5993 -1.6625
  893MOL0     H17870   5.804   8.885  10.390 -0.9379 -0.9405 -1.4862
  893MOL0     H17871   5.772   9.067  10.360  0.9719  1.6624 -0.8592
  893MOL0     H17872   6.048   8.959  10.385  2.4625 -0.1396 -0.0400
  893MOL0     H17873   5.993   9.126  10.339 -1.5492  1.7122  2.9131
  893MOL0     H17874   5.944   9.120  10.751 -0.1932  0.6689  0.2655
  893MOL0     H17875   5.377   8.829  10.281 -0.2428  0.6977  0.2572
  893MOL0     H17876   5.212   8.709  10.143  0.3263 -0.4836 -1.3309
  894MOL0     O17877   7.765   9.928   5.275  0.6361 -0.1021 -0.3624
  894MOL0     C17878   7.869   9.915   5.341  0.8110  0.2362 -0.1118
  894MOL0     O17879   7.868   9.851   5.457  0.3574 -0.3376 -0.1708
  894MOL0     C17880   7.746   9.835   5.518 -1.1964  0.3357 -0.0410
  894MOL0     C17881   7.676   9.946   5.567 -1.0251 -0.0371 -0.4499
  894MOL0     C17882   7.560   9.923   5.642  0.6692  0.1674  0.3144
  894MOL0     C17883   7.517   9.798   5.685  0.2337 -0.6337  0.0240
  894MOL0     O17884   7.407   9.768   5.757 -0.7617  0.0823  0.4508
  894MOL0     C17885   7.316   9.871   5.800 -0.5148  0.2941  0.8005
  894MOL0     C17886   7.227   9.826   5.919  0.1482 -1.1109  1.2233
  894MOL0     C17887   7.104   9.729   5.895 -1.2321 -0.0264 -0.0359
  894MOL0     C17888   6.979   9.813   5.865  0.4323 -0.0838 -0.2299
  894MOL0     C17889   6.855   9.735   5.889  0.3377 -0.7240 -0.3249
  894MOL0     C17890   6.729   9.823   5.857 -0.5845  0.4400  0.3111
  894MOL0     C17891   6.602   9.746   5.830 -0.2036  0.6066 -0.2820
  894MOL0     C17892   6.522   9.733   5.958  0.4000 -0.1953  0.4462
  894MOL0     N17893   6.402   9.661   5.922  0.1344  0.8999  0.3782
  894MOL0     C17894   6.380   9.535   5.878 -1.0829 -0.2220 -1.0393
  894MOL0     C17895   6.253   9.531   5.826 -0.4740  0.5486 -0.4295
  894MOL0     C17896   6.183   9.410   5.766  0.6267  0.5233  0.4758
  894MOL0     C17897   6.124   9.292   5.847  0.4501  0.0758  0.6011
  894MOL0     C17898   6.044   9.347   5.963  0.4069  0.3870 -0.0422
  894MOL0     C17899   5.901   9.398   5.919 -0.7183  0.4082  0.0296
  894MOL0     O17900   5.824   9.278   5.921 -0.3070  0.1765 -0.0234
  894MOL0     C17901   5.695   9.281   5.887 -0.4354  0.4504  0.7934
  894MOL0     C17902   5.615   9.174   5.918 -0.0140  0.8075  0.1413
  894MOL0     C17903   5.476   9.171   5.903 -0.5418 -0.0698  0.0490
  894MOL0     C17904   5.407   9.288   5.864 -0.3779  0.0607 -0.4482
  894MOL0     C17905   5.261   9.284   5.844  0.5679 -0.8763 -0.3492
  894MOL0     O17906   5.207   9.372   5.757  0.0084  0.3479  0.8627
  894MOL0     C17907   5.070   9.362   5.738  0.9785  0.0361 -0.2626
  894MOL0     C17908   5.006   9.290   5.633  0.2580 -0.2051  0.0177
  894MOL0     C17909   4.867   9.288   5.619  0.3476 -0.1863  0.3502
  894MOL0     C17910   4.783   9.366   5.705 -0.4881  0.3819 -0.6091
  894MOL0     O17911   4.648   9.389   5.700  0.4622 -0.1409 -0.5422
  894MOL0     C17912   4.565   9.307   5.613 -0.6336 -0.0220  0.1945
  894MOL0     C17913   4.412   9.351   5.637  0.1847  0.3209  0.0293
  894MOL0     C17914   4.354   9.301   5.777  0.5481  0.3549  0.4297
  894MOL0     C17915   4.218   9.359   5.797  0.2802  0.0124  0.5086
  894MOL0     C17916   4.141   9.302   5.917  0.6346  0.1738 -0.4169
  894MOL0     C17917   4.010   9.377   5.941 -0.5572  0.3087 -0.2231
  894MOL0     C17918   3.909   9.303   6.018  0.3880 -0.0745  0.1586
  894MOL0     C17919   3.783   9.382   6.054 -0.2044 -1.0112  0.5582
  894MOL0    Cl17920   3.695   9.417   5.898  0.0158 -0.5965 -0.2445
  894MOL0     C17921   4.846   9.434   5.809 -0.2870 -0.4721 -0.1828
  894MOL0     C17922   4.988   9.425   5.821 -0.4039 -0.6558  0.2571
  894MOL0     O17923   5.190   9.216   5.917 -0.3924 -0.4562  0.2709
  894MOL0     C17924   5.480   9.401   5.837 -0.2209  0.0471  0.3572
  894MOL0     C17925   5.620   9.391   5.853 -0.2293 -0.1098  0.6224
  894MOL0     N17926   6.191   9.648   5.861 -0.7652 -0.2342 -0.0670
  894MOL0     N17927   6.281   9.718   5.916  0.2966 -0.1126 -0.0163
  894MOL0     C17928   7.594   9.692   5.644 -1.6935  0.6404  0.2796
  894MOL0     C17929   7.706   9.702   5.562 -0.1549 -0.0702 -0.6462
  894MOL0     C17930   8.002   9.958   5.295 -0.5971 -0.6770 -0.9934
  894MOL0     C17931   8.119   9.953   5.378  0.2073  0.3882 -0.1817
  894MOL0     C17932   8.244  10.005   5.347  0.2032  0.6664  0.7891
  894MOL0     C17933   8.258  10.061   5.224 -0.2966 -0.0886 -0.2885
  894MOL0     O17934   8.384  10.119   5.183  0.7764  0.0555  0.2309
  894MOL0     C17935   8.514  10.069   5.221 -0.3474  0.0228 -0.5150
  894MOL0     C17936   8.537   9.919   5.210 -0.0011  0.8006 -0.8333
  894MOL0     C17937   8.690   9.888   5.232 -0.5818  0.4214 -0.3627
  894MOL0     C17938   8.717   9.740   5.277  0.6625 -0.0398 -0.7100
  894MOL0     C17939   8.702   9.712   5.420 -0.4075 -0.1570 -0.3624
  894MOL0     C17940   8.717   9.697   5.539 -0.4455 -0.1205  0.1805
  894MOL0     C17941   8.146  10.083   5.143 -0.0879  0.8391 -0.3305
  894MOL0     C17942   8.017  10.033   5.176  0.3367 -0.4784 -0.7391
  894MOL0     H17943   7.700  10.050   5.548 -1.9801  0.5248  1.2622
  894MOL0     H17944   7.516  10.016   5.678  1.1291  0.4719  0.1034
  894MOL0     H17945   7.263   9.889   5.706  0.8426  2.4726  0.4032
  894MOL0     H17946   7.360   9.967   5.826  1.5831 -0.1034 -1.0121
  894MOL0     H17947   7.197   9.917   5.973 -1.3831  0.4600 -2.0405
  894MOL0     H17948   7.289   9.768   5.989 -1.5004  1.0594  4.7556
  894MOL0     H17949   7.088   9.659   5.977 -0.6949 -0.7451 -0.5347
  894MOL0     H17950   7.120   9.675   5.801  0.4024  2.4309 -1.3073
  894MOL0     H17951   6.979   9.899   5.931  1.4871  0.9617 -1.5232
  894MOL0     H17952   6.983   9.858   5.765  0.9000  0.8126  0.1813
  894MOL0     H17953   6.865   9.697   5.992  1.5924  3.7811  1.4565
  894MOL0     H17954   6.843   9.658   5.812 -1.1235  0.6494 -1.5370
  894MOL0     H17955   6.739   9.874   5.761 -2.1968  0.2462  0.0152
  894MOL0     H17956   6.724   9.906   5.928  0.6427  1.6660 -0.9759
  894MOL0     H17957   6.538   9.804   5.762  0.4999  0.6061 -0.9586
  894MOL0     H17958   6.623   9.647   5.790 -1.1805 -0.3793  1.5523
  894MOL0     H17959   6.498   9.836   5.986  0.4811  0.5194 -1.9355
  894MOL0     H17960   6.571   9.674   6.037  1.0879 -1.2984 -0.7598
  894MOL0     H17961   6.459   9.460   5.884  1.0707  2.0626  1.8861
  894MOL0     H17962   6.252   9.361   5.695 -0.0612  2.2646 -1.5121
  894MOL0     H17963   6.113   9.449   5.691  1.5544 -0.4228 -0.9441
  894MOL0     H17964   6.210   9.239   5.889  1.0114 -0.8271 -1.5581
  894MOL0     H17965   6.066   9.228   5.780  1.1122  0.4081 -0.3035
  894MOL0     H17966   6.039   9.269   6.040  1.3888  2.5057  2.3360
  894MOL0     H17967   6.096   9.437   5.998 -0.9324  1.2531 -0.1845
  894MOL0     H17968   5.906   9.458   5.828  0.7934  2.3551  1.3121
  894MOL0     H17969   5.863   9.471   5.991 -1.7752  0.2110 -0.3077
  894MOL0     H17970   5.658   9.085   5.963 -1.1140 -1.8114 -3.5796
  894MOL0     H17971   5.426   9.078   5.930  2.5875 -1.8236  0.2670
  894MOL0     H17972   5.059   9.235   5.556  1.2238 -1.3323  1.4353
  894MOL0     H17973   4.825   9.236   5.533  1.3929  1.0017 -0.9243
  894MOL0     H17974   4.576   9.199   5.627 -2.5719 -0.4026 -0.7758
  894MOL0     H17975   4.587   9.326   5.507 -1.8494  0.6303  0.0394
  894MOL0     H17976   4.339   9.302   5.571  0.2772 -0.3577  0.4172
  894MOL0     H17977   4.403   9.460   5.630  0.8638  0.5129  1.7350
  894MOL0     H17978   4.430   9.341   5.845  3.3143 -0.2259 -2.1169
  894MOL0     H17979   4.342   9.193   5.776 -1.5475  0.5217 -1.8015
  894MOL0     H17980   4.229   9.466   5.817  1.3691  0.1249 -0.6153
  894MOL0     H17981   4.157   9.344   5.707 -0.7530  0.2717  1.1452
  894MOL0     H17982   4.194   9.304   6.012 -2.4240 -0.7424  1.4734
  894MOL0     H17983   4.114   9.197   5.905  1.9849 -0.3713  1.0253
  894MOL0     H17984   3.973   9.398   5.841  0.8671  0.6634 -0.7102
  894MOL0     H17985   4.027   9.471   5.994  1.3315  1.4923 -2.7341
  894MOL0     H17986   3.877   9.218   5.957 -0.8598  1.1505 -0.9699
  894MOL0     H17987   3.961   9.267   6.107 -0.8166 -3.3844 -0.3127
  894MOL0     H17988   3.823   9.468   6.109 -1.8056 -0.3194  0.6866
  894MOL0     H17989   3.722   9.333   6.129  0.1582 -0.2675  1.3626
  894MOL0     H17990   4.786   9.494   5.877  0.6113 -1.8260  1.8596
  894MOL0     H17991   5.035   9.475   5.906 -1.2202 -2.2270  1.6792
  894MOL0     H17992   5.437   9.490   5.793  3.2863  2.7560  1.9092
  894MOL0     H17993   5.672   9.483   5.828 -1.4738  0.1901 -1.0769
  894MOL0     H17994   7.574   9.590   5.675  1.8497 -0.2264  0.1401
  894MOL0     H17995   7.758   9.616   5.521 -1.6690  0.4345 -4.0547
  894MOL0     H17996   8.114   9.916   5.480 -3.4461  0.8977 -0.0764
  894MOL0     H17997   8.329   9.987   5.413  0.5031  0.7815  0.4383
  894MOL0     H17998   8.527  10.089   5.328 -2.3351 -0.1369 -0.2176
  894MOL0     H17999   8.581  10.132   5.161  0.2490  0.9459  1.0462
  894MOL0     H18000   8.480   9.854   5.278  1.2208  0.8703  0.2920
  894MOL0     H18001   8.511   9.882   5.110  0.6807 -0.9617 -0.3955
  894MOL0     H18002   8.734   9.953   5.308 -0.5635 -1.1071  0.9905
  894MOL0     H18003   8.745   9.901   5.138 -2.5388 -0.5065 -1.6998
  894MOL0     H18004   8.630   9.691   5.235  0.0512  1.4051 -1.2093
  894MOL0     H18005   8.810   9.700   5.235  1.0477  1.0703 -0.9795
  894MOL0     H18006   8.744   9.673   5.640  1.4538 -0.1891 -0.3014
  894MOL0     H18007   8.166  10.151   5.061  0.2482  1.7173  0.4650
  894MOL0     H18008   7.935  10.055   5.109 -0.4562 -1.9266 -0.2876
  895MOL0     O18009   3.620   4.879   2.172  0.5868  0.3055  0.1609
  895MOL0     C18010   3.596   4.840   2.288  0.4878 -0.7573  0.0070
  895MOL0     O18011   3.475   4.829   2.346 -0.2049  0.6517  0.7977
  895MOL0     C18012   3.364   4.815   2.271  0.2064  0.6899  0.1756
  895MOL0     C18013   3.323   4.920   2.186  0.5720  0.7872 -0.6622
  895MOL0     C18014   3.193   4.918   2.125 -0.1344 -0.8106  0.3715
  895MOL0     C18015   3.106   4.814   2.148  0.5460  0.2261 -1.0196
  895MOL0     O18016   3.007   4.785   2.068 -0.0959 -1.2642 -0.6910
  895MOL0     C18017   2.903   4.881   2.052  0.2953  0.3022 -0.2415
  895MOL0     C18018   2.806   4.861   2.175 -0.3162 -0.2781 -0.3647
  895MOL0     C18019   2.666   4.915   2.156  0.6749  0.7257  0.8763
  895MOL0     C18020   2.582   4.827   2.051 -0.2460  0.0814 -0.5001
  895MOL0     C18021   2.457   4.906   2.002  0.5633  0.2104 -0.2595
  895MOL0     C18022   2.410   4.852   1.866 -0.3277  0.2157  0.3584
  895MOL0     C18023   2.286   4.929   1.814  1.1294  0.8751 -1.2029
  895MOL0     C18024   2.192   4.859   1.723  0.1528  0.8840  0.4966
  895MOL0     N18025   2.065   4.940   1.711 -0.3438  0.3250 -0.1709
  895MOL0     C18026   2.042   5.027   1.612  0.8464  0.0682  0.2024
  895MOL0     C18027   1.919   5.076   1.627 -0.6067 -0.2102  0.1451
  895MOL0     C18028   1.870   5.206   1.566 -0.7323  0.2838 -0.7750
  895MOL0     C18029   1.735   5.179   1.497 -0.2554  0.1464  1.0785
  895MOL0     C18030   1.694   5.301   1.419  0.6817  0.0275 -0.5711
  895MOL0     C18031   1.543   5.265   1.386 -0.2112 -0.8131  0.3253
  895MOL0     O18032   1.495   5.384   1.325  0.9890  0.2307 -0.1709
  895MOL0     C18033   1.363   5.402   1.308  0.0209  0.5759 -0.0699
  895MOL0     C18034   1.266   5.295   1.283 -0.2047 -0.7628 -0.3291
  895MOL0     C18035   1.125   5.329   1.277  0.3484 -0.0450  0.1470
  895MOL0     C18036   1.083   5.463   1.276  0.1502 -0.8462 -0.4202
  895MOL0     C18037   0.938   5.505   1.267 -0.2759 -0.4376  0.3492
  895MOL0     O18038   0.844   5.410   1.267 -0.0409 -0.0299 -0.0523
  895MOL0     C18039   0.706   5.443   1.276 -0.5334  0.4769 -0.3473
  895MOL0     C18040   0.657   5.511   1.385 -0.2270  0.6139 -0.0466
  895MOL0     C18041   0.515   5.522   1.402  0.1567  0.4626  0.9595
  895MOL0     C18042   0.430   5.482   1.307 -0.3517  0.5924  0.7035
  895MOL0     O18043   0.294   5.506   1.328 -1.3749 -0.1119  0.0166
  895MOL0     C18044   0.226   5.575   1.220 -0.7761 -0.3306  0.0227
  895MOL0     C18045   0.095   5.623   1.263  0.3080  0.8604 -0.8856
  895MOL0     C18046  -0.009   5.684   1.161  0.2891  0.5160 -1.0573
  895MOL0     C18047  -0.157   5.684   1.212  0.5173 -0.3949 -0.9310
  895MOL0     C18048  -0.248   5.733   1.097  0.6502  0.3275 -0.0856
  895MOL0     C18049  -0.395   5.719   1.138  0.5100 -0.0242  0.8555
  895MOL0     C18050  -0.490   5.776   1.033 -0.1395  0.0579 -0.6396
  895MOL0     C18051  -0.633   5.770   1.077 -0.1379 -0.3387 -0.7713
  895MOL0    Cl18052  -0.665   5.777   1.262 -0.4004  0.0754  0.8163
  895MOL0     C18053   0.478   5.409   1.198  0.6433 -0.8228  0.1731
  895MOL0     C18054   0.624   5.396   1.180  0.0676  0.4958 -0.3682
  895MOL0     O18055   0.911   5.627   1.254  0.2470 -0.1101  0.7763
  895MOL0     C18056   1.181   5.562   1.299  0.9519 -1.0256  0.1482
  895MOL0     C18057   1.316   5.537   1.305  0.1064 -0.0697 -0.0835
  895MOL0     N18058   1.862   5.009   1.736 -0.1396 -0.7057  0.6703
  895MOL0     N18059   1.950   4.924   1.778 -0.7459  0.3522 -0.3175
  895MOL0     C18060   3.155   4.708   2.226 -0.0767 -0.2362 -0.3377
  895MOL0     C18061   3.278   4.712   2.291 -0.1505 -1.0043  0.0704
  895MOL0     C18062   3.717   4.807   2.368 -0.6268  0.7902  0.4767
  895MOL0     C18063   3.718   4.724   2.480  0.0939 -0.1008 -0.7188
  895MOL0     C18064   3.834   4.707   2.558  0.2147 -0.6503 -0.3558
  895MOL0     C18065   3.952   4.763   2.512 -0.3376  0.4745 -0.7506
  895MOL0     O18066   4.066   4.739   2.586  0.0562  0.5102 -0.1201
  895MOL0     C18067   4.179   4.838   2.584  0.2299 -0.7221  0.0114
  895MOL0     C18068   4.143   4.975   2.639  0.6738 -0.7378 -0.8161
  895MOL0     C18069   4.268   5.041   2.674 -0.1565 -0.0616 -1.3753
  895MOL0     C18070   4.241   5.181   2.725 -0.2065  0.1824  0.0838
  895MOL0     C18071   4.381   5.243   2.737  0.6704 -0.1886  0.1085
  895MOL0     C18072   4.490   5.293   2.759  0.2177 -0.2121 -0.3940
  895MOL0     C18073   3.951   4.851   2.398  0.0666  0.0142  0.0439
  895MOL0     C18074   3.837   4.869   2.331  1.0590  0.0721  0.4639
  895MOL0     H18075   3.387   5.004   2.161 -2.2462  2.2579 -3.6036
  895MOL0     H18076   3.173   5.000   2.057  0.5886  1.4047  2.6503
  895MOL0     H18077   2.851   4.865   1.956 -2.5936  0.6904  1.1408
  895MOL0     H18078   2.937   4.984   2.047 -0.2812  0.6079  1.5704
  895MOL0     H18079   2.848   4.897   2.269 -2.7659 -0.4366  0.8683
  895MOL0     H18080   2.780   4.755   2.183  3.2188 -1.2664 -0.4744
  895MOL0     H18081   2.671   5.020   2.127 -4.0565  1.1353  0.7784
  895MOL0     H18082   2.616   4.901   2.252 -2.4815 -0.7641 -0.8169
  895MOL0     H18083   2.647   4.804   1.966  3.2540 -1.2412  2.2784
  895MOL0     H18084   2.551   4.728   2.085 -1.0546  0.6508  0.4736
  895MOL0     H18085   2.474   5.013   1.983  3.1891  0.1493  1.2308
  895MOL0     H18086   2.382   4.891   2.080 -3.6051  1.0176 -3.7374
  895MOL0     H18087   2.407   4.743   1.852  0.5704  0.3051 -0.6441
  895MOL0     H18088   2.489   4.873   1.794  0.0770  0.2269  0.7981
  895MOL0     H18089   2.228   4.949   1.905  2.4938  4.2482 -0.9318
  895MOL0     H18090   2.322   5.022   1.770  0.9095  1.0914 -0.9360
  895MOL0     H18091   2.174   4.769   1.783  2.0673  1.1826  1.6074
  895MOL0     H18092   2.242   4.845   1.627  0.7483  0.0816  0.9060
  895MOL0     H18093   2.113   5.054   1.535 -0.7998  2.5495 -0.5419
  895MOL0     H18094   1.936   5.248   1.490  1.5612  1.1386  1.5636
  895MOL0     H18095   1.853   5.269   1.654  0.4917 -2.0132  1.2310
  895MOL0     H18096   1.662   5.161   1.576 -1.5780  2.5743  0.5265
  895MOL0     H18097   1.753   5.089   1.439  2.0375  1.5103 -0.4942
  895MOL0     H18098   1.706   5.393   1.478 -1.6010 -0.1319  0.2498
  895MOL0     H18099   1.742   5.319   1.322  0.7263 -1.0674 -0.7646
  895MOL0     H18100   1.485   5.248   1.477 -1.9963  1.8136 -0.2169
  895MOL0     H18101   1.535   5.183   1.315  1.9595  0.4728 -1.5550
  895MOL0     H18102   1.303   5.194   1.293  1.9192 -0.2147 -1.9410
  895MOL0     H18103   1.049   5.251   1.278  2.3785 -2.1652 -0.4489
  895MOL0     H18104   0.721   5.558   1.459 -0.2907  1.5429 -0.5660
  895MOL0     H18105   0.469   5.569   1.489 -2.2209 -3.1725  1.8721
  895MOL0     H18106   0.218   5.512   1.131  3.3355  1.2289 -1.6851
  895MOL0     H18107   0.274   5.665   1.181 -0.8389 -0.9288 -1.4999
  895MOL0     H18108   0.098   5.687   1.351 -0.4978 -0.9331  0.5108
  895MOL0     H18109   0.051   5.536   1.312 -0.3545  2.2697  1.1358
  895MOL0     H18110  -0.006   5.619   1.072  0.3638 -0.9177 -0.0364
  895MOL0     H18111   0.020   5.787   1.138 -0.0364  0.7038 -0.6323
  895MOL0     H18112  -0.192   5.585   1.243 -1.2771  0.4617 -0.1213
  895MOL0     H18113  -0.166   5.750   1.299 -0.1183 -1.4277 -0.1867
  895MOL0     H18114  -0.222   5.676   1.007 -0.0189 -1.7424  0.9690
  895MOL0     H18115  -0.230   5.840   1.081 -1.4236  0.9141  1.2209
  895MOL0     H18116  -0.415   5.784   1.224 -0.0738 -0.6727  1.2117
  895MOL0     H18117  -0.426   5.617   1.161  0.4270  0.0642  1.1358
  895MOL0     H18118  -0.465   5.881   1.017 -1.5717  0.3448 -1.1421
  895MOL0     H18119  -0.480   5.735   0.933 -0.2182  1.2552 -1.1525
  895MOL0     H18120  -0.668   5.670   1.049  0.3926 -0.6291 -0.4027
  895MOL0     H18121  -0.682   5.854   1.025  1.7479  1.0183 -0.4623
  895MOL0     H18122   0.412   5.365   1.124 -0.0608  1.4217 -0.6430
  895MOL0     H18123   0.669   5.338   1.100  1.7051 -2.9797  2.8085
  895MOL0     H18124   1.151   5.666   1.306  1.1420 -0.8917 -0.8457
  895MOL0     H18125   1.385   5.618   1.326  0.8450 -1.0987  1.7004
  895MOL0     H18126   3.092   4.620   2.234 -1.3724  0.8108  2.4329
  895MOL0     H18127   3.307   4.621   2.343 -0.2143 -0.2411  1.4814
  895MOL0     H18128   3.633   4.676   2.527 -0.1836  0.1142 -1.0017
  895MOL0     H18129   3.832   4.655   2.653 -1.3551  0.6856  0.4079
  895MOL0     H18130   4.227   4.835   2.486  0.0670 -3.2165 -0.0524
  895MOL0     H18131   4.256   4.801   2.653 -0.3583  0.5252  1.3970
  895MOL0     H18132   4.088   5.036   2.566 -0.0282 -1.3135 -0.7837
  895MOL0     H18133   4.079   4.964   2.727  1.6509  2.3886  0.4200
  895MOL0     H18134   4.328   5.041   2.582  1.4159  2.4290 -0.4546
  895MOL0     H18135   4.331   4.993   2.749 -0.0903  2.3281  0.2087
  895MOL0     H18136   4.177   5.244   2.662  1.1972 -1.1348 -2.8706
  895MOL0     H18137   4.195   5.182   2.824  1.4900  0.4815  0.8936
  895MOL0     H18138   4.588   5.336   2.760 -0.7810  2.2214 -0.7626
  895MOL0     H18139   4.040   4.902   2.361  0.9379 -4.1758 -4.8898
  895MOL0     H18140   3.836   4.951   2.259 -0.8218  0.1114  0.4680
  896MOL0     O18141   8.007   1.690  10.209  0.8998  0.1312  0.2750
  896MOL0     C18142   8.081   1.770  10.264  1.1048 -0.2696  0.0184
  896MOL0     O18143   8.042   1.874  10.332 -0.0274 -0.3082 -0.3673
  896MOL0     C18144   7.915   1.913  10.312  0.8387  0.3557  0.2913
  896MOL0     C18145   7.818   1.882  10.400  0.1931  0.1762  0.4600
  896MOL0     C18146   7.687   1.907  10.364 -0.2818  1.1659 -0.3966
  896MOL0     C18147   7.655   1.955  10.239 -0.7944 -0.1180  0.2041
  896MOL0     O18148   7.536   1.961  10.186  0.1237  0.3764  0.4938
  896MOL0     C18149   7.431   2.014  10.269 -0.3563 -0.2918  0.2700
  896MOL0     C18150   7.317   2.074  10.180 -0.7017 -0.0015 -0.1576
  896MOL0     C18151   7.198   2.103  10.254  0.0420  0.0057 -0.4197
  896MOL0     C18152   7.099   2.190  10.174  0.0248  1.0244 -0.0302
  896MOL0     C18153   6.959   2.210  10.245 -0.6635 -0.6678  0.3923
  896MOL0     C18154   6.878   2.086  10.260 -0.4558 -0.3370 -0.2460
  896MOL0     C18155   6.736   2.118  10.285  0.1262  0.0702 -0.0684
  896MOL0     C18156   6.700   2.163  10.423  0.4744 -0.0928 -0.4601
  896MOL0     N18157   6.559   2.148  10.464 -0.0184  0.5489 -0.5472
  896MOL0     C18158   6.513   2.041  10.521  0.4713 -0.1271  0.4144
  896MOL0     C18159   6.379   2.053  10.509 -0.5021  0.0759 -1.2623
  896MOL0     C18160   6.278   1.972  10.589 -0.3966 -0.0646  0.9113
  896MOL0     C18161   6.284   2.003  10.740  0.5218 -0.0807 -0.6281
  896MOL0     C18162   6.144   2.012  10.807 -0.8504 -0.1831  0.0478
  896MOL0     C18163   6.143   2.081  10.954 -0.1466 -0.2517  0.2866
  896MOL0     O18164   6.258   2.044  11.035 -0.3899  0.8604 -0.2607
  896MOL0     C18165   6.254   1.916  11.093  0.7117  0.0396  0.7413
  896MOL0     C18166   6.153   1.821  11.078 -0.2125 -0.5443  0.9345
  896MOL0     C18167   6.164   1.688  11.114 -0.0253 -0.0534  0.6700
  896MOL0     C18168   6.271   1.646  11.182  0.5320  0.2565 -0.2573
  896MOL0     C18169   6.283   1.506  11.231  0.9868  0.3354 -0.5664
  896MOL0     O18170   6.409   1.467  11.266  0.5029 -0.2869 -0.0215
  896MOL0     C18171   6.424   1.343  11.320  0.1149 -0.0076 -0.5106
  896MOL0     C18172   6.459   1.231  11.240 -0.2390  0.4055  0.1002
  896MOL0     C18173   6.448   1.102  11.296  0.0044  0.0581  0.0514
  896MOL0     C18174   6.408   1.078  11.427  0.2337 -0.3469 -0.3578
  896MOL0     O18175   6.387   0.957  11.493 -0.5200 -0.3563 -0.8548
  896MOL0     C18176   6.437   0.837  11.427 -0.4706  0.2773  0.4613
  896MOL0     C18177   6.582   0.817  11.464 -0.5587  0.3517 -0.1480
  896MOL0     C18178   6.601   0.786  11.618 -0.5508  0.0234 -0.5847
  896MOL0     C18179   6.752   0.807  11.647 -0.5134  0.6089  0.3163
  896MOL0     C18180   6.754   0.840  11.800 -0.2776  0.3052 -0.2933
  896MOL0     C18181   6.888   0.789  11.863  0.1046 -0.5073  0.4338
  896MOL0     C18182   7.002   0.864  11.800 -0.7169  0.8770 -0.9981
  896MOL0     C18183   7.124   0.829  11.881 -1.0658  0.2938  1.0971
  896MOL0    Cl18184   7.258   0.919  11.789 -0.1905  0.3493  0.2709
  896MOL0     C18185   6.377   1.194  11.512  0.9687 -0.0137  0.1886
  896MOL0     C18186   6.385   1.326  11.455 -0.4158 -0.0484  0.1520
  896MOL0     O18187   6.185   1.436  11.242 -0.1824 -0.0447  0.0209
  896MOL0     C18188   6.378   1.734  11.195  0.0672  0.5022 -0.1391
  896MOL0     C18189   6.365   1.873  11.152 -0.2077 -0.3749 -0.3575
  896MOL0     N18190   6.350   2.176  10.470  0.1363  0.6064  0.0568
  896MOL0     N18191   6.462   2.231  10.426  0.8334 -0.5526 -0.5519
  896MOL0     C18192   7.758   1.992  10.151  0.5551 -0.3640 -0.3581
  896MOL0     C18193   7.885   1.971  10.186 -0.8030 -0.1417  0.2271
  896MOL0     C18194   8.230   1.750  10.241  0.7442 -0.1714 -0.0962
  896MOL0     C18195   8.266   1.637  10.174  0.4254  0.1618  0.4281
  896MOL0     C18196   8.402   1.609  10.154 -0.5299 -0.5727 -1.0350
  896MOL0     C18197   8.499   1.701  10.199  0.1114  0.6407  0.2482
  896MOL0     O18198   8.630   1.692  10.166  0.0231 -0.3584 -0.5760
  896MOL0     C18199   8.673   1.607  10.063 -0.2606  0.2467  0.6922
  896MOL0     C18200   8.812   1.630  10.028 -0.1382  0.0805  0.3311
  896MOL0     C18201   8.912   1.634  10.148  0.6960  0.0856 -0.9227
  896MOL0     C18202   9.062   1.644  10.115  0.0634  0.7184  0.4030
  896MOL0     C18203   9.099   1.776  10.056  0.2791  1.4420 -0.1720
  896MOL0     C18204   9.134   1.885  10.019  0.5018  0.5442 -1.3329
  896MOL0     C18205   8.460   1.817  10.268  0.1088  0.1984 -0.7042
  896MOL0     C18206   8.323   1.838  10.289 -0.7198 -0.4376 -0.2232
  896MOL0     H18207   7.853   1.857  10.499  0.0564 -2.1461 -0.0222
  896MOL0     H18208   7.605   1.883  10.431 -0.8977 -0.2621 -1.6022
  896MOL0     H18209   7.468   2.093  10.337 -1.2635  2.1068 -1.8528
  896MOL0     H18210   7.395   1.934  10.334  0.8172 -1.6248 -0.6667
  896MOL0     H18211   7.299   2.005  10.097  0.8480  0.7315 -1.1465
  896MOL0     H18212   7.358   2.167  10.140 -1.4491 -0.1566 -1.3516
  896MOL0     H18213   7.232   2.155  10.344 -0.2734 -5.3523  3.2608
  896MOL0     H18214   7.151   2.009  10.285  0.5295  0.6660  2.7056
  896MOL0     H18215   7.151   2.286  10.180 -0.2878  1.1693  0.4222
  896MOL0     H18216   7.088   2.161  10.069  3.2470 -1.3416  0.1229
  896MOL0     H18217   6.914   2.270  10.165  0.8312  0.9740  0.7352
  896MOL0     H18218   6.958   2.262  10.341  0.1351  1.0124 -0.4773
  896MOL0     H18219   6.912   2.014  10.335 -3.5151  0.4859  2.1212
  896MOL0     H18220   6.889   2.032  10.165 -2.3843 -2.7948  0.8037
  896MOL0     H18221   6.702   2.199  10.221  0.2994 -1.1925 -1.8440
  896MOL0     H18222   6.679   2.027  10.263 -1.7332  0.7655  1.5913
  896MOL0     H18223   6.741   2.264  10.438  2.3086 -0.8383 -0.2096
  896MOL0     H18224   6.758   2.098  10.489  1.3260 -0.2521 -1.3376
  896MOL0     H18225   6.561   1.949  10.554 -0.4903 -1.8367 -2.5426
  896MOL0     H18226   6.293   1.866  10.565 -0.3745 -0.3499  2.1493
  896MOL0     H18227   6.176   1.995  10.559 -1.4427 -3.4942  1.3629
  896MOL0     H18228   6.331   2.100  10.758 -0.5155  0.5396 -1.1371
  896MOL0     H18229   6.339   1.928  10.797 -3.4232 -1.3467  1.9395
  896MOL0     H18230   6.070   2.070  10.752  1.2018  1.1920 -1.3858
  896MOL0     H18231   6.118   1.906  10.822  1.2668 -0.7776 -0.0930
  896MOL0     H18232   6.044   2.066  10.998 -0.6851  4.4964  1.1848
  896MOL0     H18233   6.155   2.189  10.939 -1.6683 -0.2226 -0.9835
  896MOL0     H18234   6.058   1.848  11.033 -0.1014  0.2764  1.1614
  896MOL0     H18235   6.092   1.616  11.078  0.1112  0.6864 -1.2600
  896MOL0     H18236   6.490   1.251  11.138  0.5254 -0.3562  0.1654
  896MOL0     H18237   6.462   1.015  11.232 -2.6544 -2.1389  2.1721
  896MOL0     H18238   6.410   0.820  11.322 -0.8881 -1.7098  0.8377
  896MOL0     H18239   6.391   0.750  11.476  1.6729  0.4108  2.9016
  896MOL0     H18240   6.638   0.904  11.428 -0.5338  1.4701  2.4230
  896MOL0     H18241   6.619   0.722  11.424 -0.0621 -1.3470  3.9016
  896MOL0     H18242   6.558   0.690  11.651 -1.3345 -0.2015 -2.1435
  896MOL0     H18243   6.547   0.860  11.678  1.6021 -1.4207  3.4837
  896MOL0     H18244   6.794   0.708  11.625  1.2825  2.1182 -4.0295
  896MOL0     H18245   6.794   0.881  11.579  2.0036 -0.7700  0.2290
  896MOL0     H18246   6.680   0.785  11.860  0.8433 -1.1223 -0.1596
  896MOL0     H18247   6.745   0.948  11.814  0.7078  0.3577  0.0344
  896MOL0     H18248   6.901   0.681  11.845 -1.0185 -0.4970 -0.5740
  896MOL0     H18249   6.882   0.802  11.971 -0.7336  1.5170  0.1729
  896MOL0     H18250   7.017   0.822  11.700 -2.6499 -1.1299 -0.5024
  896MOL0     H18251   6.981   0.971  11.792 -0.7049  0.9589 -0.0976
  896MOL0     H18252   7.145   0.722  11.869  1.6017  0.6827  1.6139
  896MOL0     H18253   7.114   0.848  11.988  0.4096 -0.4042  1.3884
  896MOL0     H18254   6.338   1.194  11.613  1.3995  1.2315  0.3723
  896MOL0     H18255   6.354   1.415  11.510 -3.4584 -2.7920  3.4298
  896MOL0     H18256   6.472   1.717  11.246 -0.5552  0.1621  0.9168
  896MOL0     H18257   6.447   1.945  11.155 -2.3276  2.2444 -1.6056
  896MOL0     H18258   7.732   2.029  10.052  0.2934 -1.9941 -0.9357
  896MOL0     H18259   7.974   1.995  10.130 -2.2922  2.3559 -1.2777
  896MOL0     H18260   8.197   1.565  10.133 -0.8128  1.7711 -0.4368
  896MOL0     H18261   8.429   1.522  10.094  1.6787 -1.3899  0.9925
  896MOL0     H18262   8.611   1.606   9.973  0.0887  2.7966  0.3647
  896MOL0     H18263   8.668   1.507  10.107 -0.9015 -1.4263 -2.9011
  896MOL0     H18264   8.842   1.551   9.958  0.0379 -0.1656  0.6797
  896MOL0     H18265   8.822   1.726   9.976  0.1453 -0.5760 -0.8549
  896MOL0     H18266   8.894   1.539  10.198 -1.2794 -0.5560 -2.6972
  896MOL0     H18267   8.885   1.722  10.207  0.3323  0.4649 -1.6322
  896MOL0     H18268   9.127   1.616  10.198  1.4187 -2.8492 -1.6579
  896MOL0     H18269   9.086   1.566  10.042  1.7884  1.4802  0.0992
  896MOL0     H18270   9.186   1.977  10.002  2.3554 -0.0750  0.5793
  896MOL0     H18271   8.522   1.894  10.314 -0.5195 -0.3932  1.2256
  896MOL0     H18272   8.289   1.914  10.359  1.2198  0.4785 -0.2020
  897MOL0     O18273   7.348   5.807   9.542 -0.0931 -0.5195 -0.9351
  897MOL0     C18274   7.438   5.884   9.577 -0.2919  0.8438 -0.3145
  897MOL0     O18275   7.427   6.000   9.646  0.0338  0.2504  0.4284
  897MOL0     C18276   7.301   6.052   9.668  0.9547 -0.1167  0.1354
  897MOL0     C18277   7.252   6.070   9.797  0.5145  0.4506  0.6088
  897MOL0     C18278   7.121   6.118   9.829  0.6933 -0.5020 -0.3273
  897MOL0     C18279   7.040   6.155   9.718  0.2332  0.8602 -0.1031
  897MOL0     O18280   6.923   6.211   9.755 -0.0120  0.8706  0.1792
  897MOL0     C18281   6.820   6.225   9.653  0.5952  0.5278 -0.1759
  897MOL0     C18282   6.687   6.205   9.720 -1.0207 -0.3092 -0.9058
  897MOL0     C18283   6.567   6.282   9.660  0.2792  0.7797  0.2725
  897MOL0     C18284   6.438   6.205   9.714 -0.0606 -0.3749 -0.2292
  897MOL0     C18285   6.316   6.247   9.641 -0.3638  0.1748  0.1966
  897MOL0     C18286   6.288   6.403   9.652  0.5678  0.0052  0.4913
  897MOL0     C18287   6.214   6.448   9.519  0.3244 -0.7863  1.0449
  897MOL0     C18288   6.134   6.568   9.548  0.1409  0.1096 -0.2708
  897MOL0     N18289   5.998   6.536   9.600  0.7592  0.6276 -0.2906
  897MOL0     C18290   5.884   6.609   9.581  0.0613  0.4060 -0.8508
  897MOL0     C18291   5.786   6.529   9.628  0.5001 -0.6165 -0.2781
  897MOL0     C18292   5.645   6.565   9.620 -0.9817  0.1788  0.8708
  897MOL0     C18293   5.595   6.577   9.475 -0.1658  0.3040 -0.3332
  897MOL0     C18294   5.450   6.630   9.471 -0.2491 -0.0236 -0.2777
  897MOL0     C18295   5.332   6.533   9.492  0.1992 -0.1428 -0.5185
  897MOL0     O18296   5.217   6.605   9.455  0.3317 -0.3747  0.3179
  897MOL0     C18297   5.090   6.559   9.498  0.2930 -0.4405  0.1349
  897MOL0     C18298   5.045   6.429   9.468  0.0437  0.2463  0.7443
  897MOL0     C18299   4.918   6.381   9.503 -0.5026  0.9718 -1.0229
  897MOL0     C18300   4.832   6.460   9.580  0.0783  0.8071 -0.3410
  897MOL0     C18301   4.694   6.404   9.618 -0.4886  0.0268  0.0021
  897MOL0     O18302   4.631   6.470   9.720 -0.0219 -0.5564  0.4797
  897MOL0     C18303   4.503   6.451   9.751 -0.0354 -0.4053 -0.5445
  897MOL0     C18304   4.392   6.528   9.712  0.5520  0.1921 -0.2859
  897MOL0     C18305   4.264   6.487   9.750 -1.6892 -0.6092 -0.3592
  897MOL0     C18306   4.234   6.382   9.832 -0.0914  0.0677  0.6758
  897MOL0     O18307   4.106   6.368   9.864 -0.2654  1.0852 -0.2759
  897MOL0     C18308   4.080   6.250   9.937 -0.0953 -0.7453  0.1309
  897MOL0     C18309   3.928   6.222   9.949 -0.9112 -0.0362  0.6960
  897MOL0     C18310   3.856   6.313  10.042 -0.5378  0.8218  0.0599
  897MOL0     C18311   3.702   6.280  10.057 -0.0742  0.2985 -1.9100
  897MOL0     C18312   3.645   6.359  10.172 -0.8542  0.1293 -0.4412
  897MOL0     C18313   3.490   6.327  10.201 -0.1477 -0.3552 -0.1217
  897MOL0     C18314   3.404   6.420  10.114 -0.1907 -1.8873  0.4083
  897MOL0     C18315   3.247   6.405  10.139 -0.4234  0.2763 -0.3196
  897MOL0    Cl18316   3.195   6.245  10.060  0.0149 -0.2221  0.3150
  897MOL0     C18317   4.349   6.301   9.873 -0.0645 -0.5344 -0.4068
  897MOL0     C18318   4.473   6.335   9.820  0.2037  0.3217  0.4223
  897MOL0     O18319   4.651   6.303   9.565 -0.6330 -0.3844  0.3268
  897MOL0     C18320   4.876   6.590   9.615  0.3077 -0.3022  0.5560
  897MOL0     C18321   5.003   6.634   9.574 -0.4259  0.5202 -0.1745
  897MOL0     N18322   5.835   6.405   9.674 -0.0169 -0.0347  0.9291
  897MOL0     N18323   5.968   6.414   9.655  0.2691  0.1318 -0.1657
  897MOL0     C18324   7.088   6.134   9.585  0.7301 -0.4542 -1.0585
  897MOL0     C18325   7.214   6.087   9.565  0.7181 -0.2647  0.7157
  897MOL0     C18326   7.575   5.846   9.520  0.5081  0.0925  0.2390
  897MOL0     C18327   7.685   5.921   9.554 -0.3895  0.4791 -0.0419
  897MOL0     C18328   7.810   5.889   9.502 -0.2122 -0.1611 -0.5304
  897MOL0     C18329   7.832   5.791   9.404 -0.8508 -0.8472  0.8765
  897MOL0     O18330   7.964   5.778   9.363  0.2075  0.3650 -0.2126
  897MOL0     C18331   7.993   5.690   9.258  0.2349  0.7040 -0.0852
  897MOL0     C18332   8.035   5.547   9.294  0.1876  1.0196  0.2464
  897MOL0     C18333   7.955   5.436   9.221 -0.5079  0.2849  0.2613
  897MOL0     C18334   8.022   5.292   9.253 -0.0600  0.5963 -0.3000
  897MOL0     C18335   8.139   5.272   9.183 -0.0098  1.3417  0.7720
  897MOL0     C18336   8.243   5.281   9.127 -0.6251 -0.1002 -1.2254
  897MOL0     C18337   7.714   5.716   9.361  0.3207 -0.0416 -0.8511
  897MOL0     C18338   7.588   5.739   9.422 -0.3532  0.1080 -0.0875
  897MOL0     H18339   7.313   6.044   9.883  3.3590  3.5544 -0.2393
  897MOL0     H18340   7.089   6.145   9.929 -0.0759 -0.2421 -0.6392
  897MOL0     H18341   6.821   6.148   9.575  0.9461 -0.0099  0.3537
  897MOL0     H18342   6.820   6.321   9.601 -0.7669  0.1311 -0.9484
  897MOL0     H18343   6.681   6.226   9.828 -2.9414  1.7607 -1.3347
  897MOL0     H18344   6.680   6.096   9.720  3.4451 -0.8086 -0.1644
  897MOL0     H18345   6.583   6.277   9.552  1.5128  1.0466  0.4238
  897MOL0     H18346   6.580   6.383   9.699 -1.2552 -0.2765  3.9837
  897MOL0     H18347   6.454   6.099   9.693  1.7452 -0.2706  0.3844
  897MOL0     H18348   6.426   6.225   9.821 -0.2749 -0.4620 -0.2380
  897MOL0     H18349   6.231   6.187   9.675  0.1854 -2.3058 -2.4320
  897MOL0     H18350   6.337   6.219   9.537  2.9896  1.4178  0.4407
  897MOL0     H18351   6.381   6.460   9.661  0.4328  0.2393  0.4207
  897MOL0     H18352   6.228   6.431   9.740 -3.2250  1.2831 -2.2062
  897MOL0     H18353   6.287   6.460   9.439 -1.0892  0.7201 -0.0833
  897MOL0     H18354   6.139   6.375   9.488 -2.5042  1.0549  2.9541
  897MOL0     H18355   6.114   6.621   9.454  0.1457 -0.2904 -0.4959
  897MOL0     H18356   6.181   6.639   9.618  1.0134  0.1846 -0.9204
  897MOL0     H18357   5.865   6.703   9.532 -0.8334  0.5142 -0.3131
  897MOL0     H18358   5.621   6.655   9.678 -1.5655  0.4803  0.1697
  897MOL0     H18359   5.594   6.483   9.672  0.7582 -3.7637 -3.1093
  897MOL0     H18360   5.602   6.487   9.413  1.7316  0.9629 -1.1622
  897MOL0     H18361   5.662   6.650   9.430 -0.3321  1.0362  0.5715
  897MOL0     H18362   5.448   6.711   9.544 -2.5634  0.1226 -0.4427
  897MOL0     H18363   5.431   6.684   9.378  0.9749  0.0619 -0.4958
  897MOL0     H18364   5.326   6.478   9.586 -0.1580 -0.9088 -0.9757
  897MOL0     H18365   5.349   6.453   9.419 -0.1827 -0.2567 -0.4818
  897MOL0     H18366   5.111   6.363   9.412 -0.8394 -1.8090  1.9956
  897MOL0     H18367   4.890   6.280   9.476 -2.9024  1.2669  0.1666
  897MOL0     H18368   4.411   6.617   9.653  0.7392 -0.2658 -0.9290
  897MOL0     H18369   4.183   6.553   9.718 -3.8271 -1.0324  3.5654
  897MOL0     H18370   4.120   6.271  10.037  2.0670  0.1831 -0.8574
  897MOL0     H18371   4.129   6.160   9.897  0.4373  0.1226 -1.2288
  897MOL0     H18372   3.926   6.117   9.980  0.9644 -0.3813 -0.2004
  897MOL0     H18373   3.883   6.215   9.850  0.4248  0.4058  0.0325
  897MOL0     H18374   3.877   6.415  10.010  0.6514  0.4198 -0.5019
  897MOL0     H18375   3.899   6.309  10.142  0.0895  1.5223 -0.1758
  897MOL0     H18376   3.652   6.291   9.961 -0.6608 -1.8214 -1.9042
  897MOL0     H18377   3.703   6.173  10.080 -4.4317  0.2963 -0.7912
  897MOL0     H18378   3.660   6.465  10.151 -1.5482  0.6543  1.4610
  897MOL0     H18379   3.712   6.350  10.258  1.8717 -1.0075 -2.5239
  897MOL0     H18380   3.482   6.361  10.305  0.2687 -1.0097  0.1310
  897MOL0     H18381   3.456   6.222  10.197 -0.4848 -0.2416 -0.3251
  897MOL0     H18382   3.421   6.516  10.162  1.1165 -0.8790 -1.9262
  897MOL0     H18383   3.445   6.418  10.013  0.2547 -0.6364  0.5586
  897MOL0     H18384   3.203   6.497  10.100  4.1521  2.9211  0.0353
  897MOL0     H18385   3.227   6.400  10.247  1.9921 -0.4418  0.1530
  897MOL0     H18386   4.343   6.214   9.937  0.7308  0.1798  0.6662
  897MOL0     H18387   4.557   6.267   9.828  0.8780  0.9060 -1.2223
  897MOL0     H18388   4.801   6.648   9.669  1.6616  1.6976  0.3921
  897MOL0     H18389   5.021   6.740   9.590  1.1819 -0.0803  2.5589
  897MOL0     H18390   7.021   6.154   9.502 -0.2321 -0.1320 -0.2368
  897MOL0     H18391   7.241   6.069   9.462 -2.2537 -0.6207 -0.0963
  897MOL0     H18392   7.684   5.990   9.638  0.9924 -1.7769  1.9556
  897MOL0     H18393   7.895   5.945   9.541 -0.1353  0.2951 -1.3308
  897MOL0     H18394   8.069   5.742   9.199 -0.2285  1.0849 -0.3612
  897MOL0     H18395   7.906   5.686   9.191 -0.6335 -1.2791  1.0932
  897MOL0     H18396   8.141   5.544   9.266 -0.7747  1.1759 -4.1814
  897MOL0     H18397   8.009   5.530   9.398 -2.6157  0.2454 -0.4947
  897MOL0     H18398   7.956   5.462   9.114 -0.9867  1.4539  0.5170
  897MOL0     H18399   7.849   5.439   9.248 -1.1532  0.6075 -2.0544
  897MOL0     H18400   8.039   5.295   9.361  2.0086  0.4608 -0.5874
  897MOL0     H18401   7.952   5.212   9.227  1.3327 -0.2995 -1.4550
  897MOL0     H18402   8.337   5.272   9.078  0.4610 -2.0873  1.0367
  897MOL0     H18403   7.733   5.633   9.293 -1.1778 -1.4490  0.3612
  897MOL0     H18404   7.509   5.668   9.396  0.5744 -1.1969  0.5572
  898MOL0     O18405   1.576  10.675  10.345 -0.2423 -0.5068  0.2371
  898MOL0     C18406   1.574  10.762  10.256 -0.3681 -0.1460 -0.0080
  898MOL0     O18407   1.466  10.838  10.224  0.0814  0.2485  0.4274
  898MOL0     C18408   1.337  10.795  10.264 -0.8576  0.2135 -0.0685
  898MOL0     C18409   1.246  10.719  10.189 -0.1031  0.1988 -0.3188
  898MOL0     C18410   1.122  10.669  10.243  0.3861  0.1855 -0.3434
  898MOL0     C18411   1.093  10.712  10.380  0.3485  0.1754  1.2119
  898MOL0     O18412   0.974  10.667  10.430 -0.3376 -0.3470  1.0117
  898MOL0     C18413   0.917  10.724  10.552 -0.1168  0.5265 -0.4480
  898MOL0     C18414   0.872  10.871  10.519  0.1037  0.2180 -0.2705
  898MOL0     C18415   0.724  10.895  10.533  0.2538 -0.0414  0.4866
  898MOL0     C18416   0.703  11.044  10.495 -0.2700  0.3188 -0.2519
  898MOL0     C18417   0.560  11.085  10.521  0.1638  0.4940  1.4606
  898MOL0     C18418   0.462  10.996  10.446 -1.1496 -0.5849  0.6141
  898MOL0     C18419   0.324  11.067  10.442 -0.8294 -1.2370  0.1906
  898MOL0     C18420   0.228  10.986  10.356  0.2256  0.2569  0.2633
  898MOL0     N18421   0.097  10.984  10.427  0.7574  0.3287  0.3872
  898MOL0     C18422   0.046  10.872  10.500 -0.1621 -0.0411  0.4903
  898MOL0     C18423  -0.090  10.901  10.517 -0.1368 -0.4493 -0.3441
  898MOL0     C18424  -0.194  10.811  10.581  0.2530 -0.5935  1.0640
  898MOL0     C18425  -0.277  10.752  10.465 -0.7293  0.4604  0.5628
  898MOL0     C18426  -0.389  10.665  10.512  0.4735 -0.2459 -0.2569
  898MOL0     C18427  -0.475  10.585  10.408  0.8145 -0.6674 -0.1352
  898MOL0     O18428  -0.575  10.518  10.490  0.0069 -0.0086  0.1011
  898MOL0     C18429  -0.688  10.488  10.426 -1.1871 -0.2302  0.4302
  898MOL0     C18430  -0.804  10.485  10.502  0.2180 -0.1828  0.7480
  898MOL0     C18431  -0.925  10.449  10.445  0.5664  0.8411 -0.2772
  898MOL0     C18432  -0.938  10.408  10.310 -0.6813  0.3374  0.5740
  898MOL0     C18433  -1.069  10.373  10.252 -0.5029  0.1337 -0.8330
  898MOL0     O18434  -1.169  10.381  10.343  0.3617 -0.3462  0.0127
  898MOL0     C18435  -1.294  10.341  10.326  0.1826  0.1154  0.9252
  898MOL0     C18436  -1.339  10.251  10.225  0.2112 -0.5624  0.1227
  898MOL0     C18437  -1.472  10.208  10.225 -0.3691  0.1220  0.4748
  898MOL0     C18438  -1.562  10.247  10.325 -0.0802 -0.4574 -0.3945
  898MOL0     O18439  -1.691  10.198  10.313 -0.9095  0.2147  0.3007
  898MOL0     C18440  -1.788  10.255  10.396 -0.0294  0.4641  1.1812
  898MOL0     C18441  -1.871  10.377  10.331  1.2288  0.0260 -0.1867
  898MOL0     C18442  -2.012  10.385  10.401  1.0374  0.1635 -0.2603
  898MOL0     C18443  -2.105  10.263  10.370  0.4327 -0.6116 -0.8268
  898MOL0     C18444  -2.252  10.296  10.408  0.9052  0.3924  0.5881
  898MOL0     C18445  -2.274  10.311  10.560  0.7743  0.2193  0.5239
  898MOL0     C18446  -2.423  10.292  10.603  0.4769  1.0600  0.0505
  898MOL0     C18447  -2.490  10.431  10.620 -0.0263  0.4711 -0.5473
  898MOL0    Cl18448  -2.664  10.408  10.644  0.0128  0.1143 -0.2388
  898MOL0     C18449  -1.521  10.341  10.416  0.2394 -0.3214  0.0157
  898MOL0     C18450  -1.388  10.387  10.421  0.8389  0.6401  0.8380
  898MOL0     O18451  -1.077  10.330  10.139  0.0558 -0.4755 -0.6623
  898MOL0     C18452  -0.819  10.415  10.228 -0.2227  0.9538  0.5901
  898MOL0     C18453  -0.698  10.460  10.293  0.5588  0.0817  0.5293
  898MOL0     N18454  -0.109  11.025  10.461  0.9009 -0.8552 -0.2614
  898MOL0     N18455  -0.003  11.074  10.410  0.4060  0.3402  0.8472
  898MOL0     C18456   1.178  10.801  10.445 -0.2108 -0.2118 -1.2632
  898MOL0     C18457   1.303  10.837  10.391 -0.2900  0.6593  0.5351
  898MOL0     C18458   1.702  10.815  10.197 -0.6689 -0.1297 -0.1219
  898MOL0     C18459   1.823  10.762  10.247 -0.3441 -0.8641  0.4308
  898MOL0     C18460   1.943  10.808  10.195 -1.6598  0.1227  0.1913
  898MOL0     C18461   1.946  10.903  10.091  0.1809  0.4981 -0.0822
  898MOL0     O18462   2.070  10.942  10.049  0.3064 -0.0898 -0.2687
  898MOL0     C18463   2.078  10.986   9.915 -0.9266  0.8888 -0.6936
  898MOL0     C18464   2.226  11.026   9.876 -0.3414  1.1993  0.4093
  898MOL0     C18465   2.281  11.114   9.989 -0.4317 -0.0613  0.9130
  898MOL0     C18466   2.392  11.206   9.943  0.5983 -0.0355 -0.0280
  898MOL0     C18467   2.514  11.141   9.900  0.0308 -0.2220 -0.0236
  898MOL0     C18468   2.605  11.058   9.861 -0.8143 -1.2422  0.5230
  898MOL0     C18469   1.824  10.946  10.038  0.0555 -0.3348 -1.3272
  898MOL0     C18470   1.701  10.902  10.090  0.0679  0.1460 -0.6807
  898MOL0     H18471   1.273  10.697  10.086  1.7577  1.5391 -0.1532
  898MOL0     H18472   1.042  10.613  10.196  1.6299 -0.3335 -1.9717
  898MOL0     H18473   0.985  10.721  10.637  0.8633 -2.4235 -1.2237
  898MOL0     H18474   0.836  10.663  10.594  2.4605 -2.9704 -0.1139
  898MOL0     H18475   0.911  10.898  10.420  1.2642 -0.4742 -0.0287
  898MOL0     H18476   0.930  10.940  10.581  2.2444 -1.0070 -0.8062
  898MOL0     H18477   0.694  10.866  10.634 -0.8679  0.5299  0.3271
  898MOL0     H18478   0.677  10.829  10.460  0.1138 -0.1069  0.6377
  898MOL0     H18479   0.768  11.104  10.560 -1.6087  1.2534  0.2936
  898MOL0     H18480   0.725  11.057  10.389  1.3516  2.2153  0.2548
  898MOL0     H18481   0.550  11.187  10.484 -0.8652  0.2792  1.1205
  898MOL0     H18482   0.542  11.078  10.629 -0.9996  2.9490  1.4840
  898MOL0     H18483   0.457  10.897  10.492  0.0895 -0.1104  1.8473
  898MOL0     H18484   0.503  10.976  10.347 -0.3064  0.5291  0.7112
  898MOL0     H18485   0.299  11.089  10.546 -0.1566  1.8376 -0.1906
  898MOL0     H18486   0.325  11.158  10.381 -3.7580 -1.7778 -0.7806
  898MOL0     H18487   0.255  10.880  10.345  1.7632  0.8388 -2.4305
  898MOL0     H18488   0.217  11.032  10.258  2.0242  0.2525  0.0363
  898MOL0     H18489   0.118  10.795  10.526 -0.8028 -0.7570  0.1638
  898MOL0     H18490  -0.258  10.870  10.647 -0.7520 -0.4393 -0.0309
  898MOL0     H18491  -0.142  10.740  10.646 -3.3487 -1.9683  2.7071
  898MOL0     H18492  -0.213  10.684  10.408 -1.4189 -1.1774  1.6393
  898MOL0     H18493  -0.326  10.829  10.405  0.5169  1.3263  0.6241
  898MOL0     H18494  -0.347  10.589  10.578  3.4574  1.6776  0.2326
  898MOL0     H18495  -0.456  10.718  10.580  2.3828  0.7723  0.9241
  898MOL0     H18496  -0.416  10.514  10.349  2.3308  1.5020 -1.3700
  898MOL0     H18497  -0.527  10.647  10.333  1.5536  0.6478  0.4093
  898MOL0     H18498  -0.795  10.514  10.606 -0.7831  0.9894  0.5314
  898MOL0     H18499  -1.014  10.445  10.508 -0.3497 -1.1817 -1.5876
  898MOL0     H18500  -1.285  10.201  10.146 -1.1489 -0.7618 -0.7143
  898MOL0     H18501  -1.491  10.132  10.150 -0.3346  0.0933  0.4949
  898MOL0     H18502  -1.755  10.278  10.498  1.3291  2.5515  0.3450
  898MOL0     H18503  -1.855  10.170  10.409 -0.3675  0.4298 -0.5864
  898MOL0     H18504  -1.875  10.358  10.224  0.5853  1.0518 -0.3558
  898MOL0     H18505  -1.809  10.465  10.351  1.8855 -0.6398  0.8626
  898MOL0     H18506  -2.061  10.475  10.362  0.8640  2.2569  4.1636
  898MOL0     H18507  -1.998  10.409  10.507  0.2083 -1.2902  0.2022
  898MOL0     H18508  -2.108  10.242  10.262 -2.1744  0.6132 -1.0896
  898MOL0     H18509  -2.084  10.178  10.435 -1.0597  0.0421  0.5862
  898MOL0     H18510  -2.309  10.212  10.368 -1.3562  1.7905  0.6744
  898MOL0     H18511  -2.280  10.389  10.356  3.4908  0.5102 -0.7730
  898MOL0     H18512  -2.245  10.413  10.585 -0.5532  1.1222 -1.4663
  898MOL0     H18513  -2.196  10.247  10.604  1.2926  0.1616 -0.4420
  898MOL0     H18514  -2.481  10.236  10.529 -1.0510  2.1962  0.3389
  898MOL0     H18515  -2.421  10.236  10.697  0.0917 -3.6914 -2.4897
  898MOL0     H18516  -2.471  10.484  10.526 -1.9483 -0.3406 -1.4630
  898MOL0     H18517  -2.448  10.499  10.695  0.4420  0.5047 -0.8381
  898MOL0     H18518  -1.586  10.378  10.495  2.5974 -0.3383  2.0787
  898MOL0     H18519  -1.364  10.465  10.492 -4.2634  0.1152  3.5918
  898MOL0     H18520  -0.828  10.396  10.122 -1.6882 -0.5529  0.9412
  898MOL0     H18521  -0.609  10.467  10.231 -0.9803  0.8142 -1.7339
  898MOL0     H18522   1.144  10.840  10.540  1.0120  1.3995 -1.4579
  898MOL0     H18523   1.365  10.894  10.460  0.4918  0.0244  0.3663
  898MOL0     H18524   1.827  10.686  10.325 -0.7245 -1.9481 -0.5785
  898MOL0     H18525   2.034  10.764  10.234 -1.5781 -0.2803 -0.4306
  898MOL0     H18526   2.009  11.069   9.896  1.4515  2.3533 -3.9640
  898MOL0     H18527   2.041  10.907   9.849 -0.6977 -0.6114  0.8807
  898MOL0     H18528   2.277  10.929   9.875  0.1758  1.4713 -0.0333
  898MOL0     H18529   2.226  11.063   9.773 -2.3598 -1.6808 -0.7788
  898MOL0     H18530   2.328  11.056  10.069 -0.2911  2.0337  2.4191
  898MOL0     H18531   2.207  11.180  10.034  1.2521  1.1761  1.9729
  898MOL0     H18532   2.353  11.273   9.866 -2.1064  1.6650  2.5921
  898MOL0     H18533   2.421  11.262  10.033  0.6762  0.2149 -0.2101
  898MOL0     H18534   2.679  10.986   9.835 -0.5900 -1.4314  1.6293
  898MOL0     H18535   1.820  11.027   9.966  0.2064 -0.3537 -1.3567
  898MOL0     H18536   1.613  10.928  10.032  1.0065 -0.0037 -2.2276
  899MOL0     O18537   8.284   1.386   9.855 -0.1576  0.7073  0.0910
  899MOL0     C18538   8.328   1.299   9.932  0.5830  0.6913 -0.2575
  899MOL0     O18539   8.249   1.223  10.014  0.1952  0.0503 -0.8492
  899MOL0     C18540   8.115   1.232   9.994 -0.4216 -0.1851  0.6130
  899MOL0     C18541   8.034   1.344  10.022  0.2802  0.3999 -0.1835
  899MOL0     C18542   7.896   1.362   9.989  0.0380  0.9024 -0.0006
  899MOL0     C18543   7.827   1.248   9.944 -0.0558 -0.1694  0.6708
  899MOL0     O18544   7.692   1.226   9.936  0.4745 -0.1092 -0.4697
  899MOL0     C18545   7.614   1.340   9.962  0.6584  0.1812  0.1422
  899MOL0     C18546   7.464   1.312   9.954  0.2832  0.0842 -0.2341
  899MOL0     C18547   7.384   1.443   9.959  0.0606 -0.3007 -0.9748
  899MOL0     C18548   7.233   1.414   9.923 -0.3754 -0.3063  0.2055
  899MOL0     C18549   7.161   1.550   9.896 -0.0507 -0.7458  0.2437
  899MOL0     C18550   7.013   1.524   9.858  0.2772  0.3690 -0.0131
  899MOL0     C18551   6.934   1.644   9.801 -0.2912 -0.3206 -0.4312
  899MOL0     C18552   6.921   1.757   9.903 -0.0696  0.2124  0.0457
  899MOL0     N18553   6.828   1.860   9.856  0.1505  0.3860 -0.3492
  899MOL0     C18554   6.852   1.952   9.756  0.1736 -0.1051 -0.2907
  899MOL0     C18555   6.750   2.044   9.767 -0.2856  0.8704 -0.3761
  899MOL0     C18556   6.726   2.162   9.683  0.1234  0.7729  0.2229
  899MOL0     C18557   6.582   2.140   9.620 -0.7118  0.2630 -0.1429
  899MOL0     C18558   6.591   2.051   9.506  1.3760 -0.2522  0.4386
  899MOL0     C18559   6.451   2.018   9.452 -0.1965 -0.8850  0.2693
  899MOL0     O18560   6.459   1.943   9.329 -0.0254  0.1570 -0.3849
  899MOL0     C18561   6.354   1.946   9.239  0.8860 -0.0644 -0.2844
  899MOL0     C18562   6.341   2.021   9.122 -0.1355 -1.1135 -0.5123
  899MOL0     C18563   6.226   2.017   9.041  0.2658 -0.3638 -0.1984
  899MOL0     C18564   6.120   1.928   9.065  0.3585 -0.4437 -0.4564
  899MOL0     C18565   6.001   1.924   8.980 -0.1841 -0.5004  0.1582
  899MOL0     O18566   5.904   1.844   9.025  0.1882 -0.0346  0.1696
  899MOL0     C18567   5.801   1.808   8.945 -0.1588  0.2029 -0.0454
  899MOL0     C18568   5.817   1.754   8.824 -0.5017  0.4108 -0.4856
  899MOL0     C18569   5.712   1.696   8.750 -0.1916 -0.2934  0.2170
  899MOL0     C18570   5.593   1.682   8.821 -0.0546 -0.4686 -0.5583
  899MOL0     O18571   5.467   1.642   8.781  0.7087 -0.5715 -0.2730
  899MOL0     C18572   5.460   1.611   8.641  0.1781  0.3953  0.0827
  899MOL0     C18573   5.315   1.578   8.624 -0.2759  0.4500  0.8387
  899MOL0     C18574   5.280   1.592   8.475  0.2001 -0.3177  0.2777
  899MOL0     C18575   5.155   1.513   8.416 -0.4382 -0.4117  0.4628
  899MOL0     C18576   5.163   1.364   8.437 -0.5910 -0.8992 -0.1453
  899MOL0     C18577   5.044   1.300   8.358  1.0744  0.6093  0.6172
  899MOL0     C18578   5.028   1.147   8.392 -0.3299  0.1431  0.4426
  899MOL0     C18579   4.882   1.105   8.364  0.0690 -0.1353 -0.6276
  899MOL0    Cl18580   4.886   0.926   8.346  0.0800 -0.4406 -0.4483
  899MOL0     C18581   5.575   1.736   8.950 -0.1877  1.0758 -0.1319
  899MOL0     C18582   5.679   1.797   9.014  0.0528 -0.6435  0.8291
  899MOL0     O18583   5.984   2.005   8.890  0.2461  0.4836 -0.1736
  899MOL0     C18584   6.137   1.845   9.176  0.2809 -0.1585 -0.1839
  899MOL0     C18585   6.254   1.853   9.265 -0.0586 -0.2790  0.7237
  899MOL0     N18586   6.668   2.008   9.869 -0.2906  0.6135  0.1757
  899MOL0     N18587   6.713   1.896   9.920 -0.3270 -0.1044 -0.3373
  899MOL0     C18588   7.906   1.140   9.895  0.2680 -0.1897 -0.7925
  899MOL0     C18589   8.047   1.136   9.927  0.5268  0.9286 -1.0105
  899MOL0     C18590   8.466   1.287   9.944 -0.7128  0.4835 -0.8584
  899MOL0     C18591   8.549   1.338   9.849 -0.2251 -0.7221 -0.9135
  899MOL0     C18592   8.689   1.322   9.859  0.3458 -0.3384  0.0138
  899MOL0     C18593   8.750   1.245   9.958 -1.0734 -1.5507 -0.3250
  899MOL0     O18594   8.881   1.239   9.951  0.4762 -0.6954  0.5252
  899MOL0     C18595   8.941   1.140  10.036  0.4303  0.4258  0.1714
  899MOL0     C18596   9.088   1.145  10.020 -0.3557  0.3830 -0.3144
  899MOL0     C18597   9.142   1.295  10.057 -0.4740 -0.3162 -0.3575
  899MOL0     C18598   9.294   1.301  10.072 -0.6465  0.2887  0.2310
  899MOL0     C18599   9.345   1.426  10.142  1.2096  0.0760  0.2295
  899MOL0     C18600   9.384   1.534  10.186  0.5305  0.3811  0.7212
  899MOL0     C18601   8.672   1.177  10.060  0.7405  0.5989  0.4303
  899MOL0     C18602   8.534   1.210  10.047  0.5481  0.0656 -0.6830
  899MOL0     H18603   8.074   1.432  10.072  0.6373 -0.2666  0.7225
  899MOL0     H18604   7.847   1.456  10.015  0.9657  1.3702  0.1027
  899MOL0     H18605   7.637   1.420   9.890 -2.8224  0.3895 -0.9431
  899MOL0     H18606   7.633   1.367  10.066 -1.4642 -0.0294  0.6210
  899MOL0     H18607   7.444   1.232  10.025  1.3432  0.1732  0.1695
  899MOL0     H18608   7.445   1.280   9.850 -0.7447  0.6257 -0.2345
  899MOL0     H18609   7.427   1.524   9.899  3.5898 -1.6324 -0.5323
  899MOL0     H18610   7.403   1.481  10.060  1.8887 -3.1616 -0.1045
  899MOL0     H18611   7.228   1.362   9.827 -1.1432  1.3631 -0.7113
  899MOL0     H18612   7.186   1.365  10.009 -0.9714  0.8032  0.5400
  899MOL0     H18613   7.207   1.619   9.824 -1.9695  1.3106  0.8978
  899MOL0     H18614   7.150   1.609   9.987 -2.9214  2.1551 -1.7383
  899MOL0     H18615   6.973   1.492   9.955 -2.1551 -0.4546 -1.2045
  899MOL0     H18616   7.012   1.443   9.785  1.8286 -0.2189  0.5882
  899MOL0     H18617   6.984   1.677   9.711 -2.9174  3.0124 -0.8802
  899MOL0     H18618   6.834   1.609   9.773 -0.6346 -0.8226  1.2848
  899MOL0     H18619   7.021   1.796   9.922  0.0881  1.3230 -2.6646
  899MOL0     H18620   6.880   1.717   9.997  0.4730  0.5568  0.4349
  899MOL0     H18621   6.924   1.949   9.675 -0.2243  0.3458 -0.6690
  899MOL0     H18622   6.803   2.168   9.605 -1.3479  0.5393 -1.2900
  899MOL0     H18623   6.735   2.255   9.740 -0.1621 -0.0745  1.7079
  899MOL0     H18624   6.549   2.239   9.588 -2.3030  0.0953  0.8557
  899MOL0     H18625   6.513   2.107   9.698 -0.5348  1.6151  0.6090
  899MOL0     H18626   6.653   2.102   9.432  1.1826 -0.6864 -0.0338
  899MOL0     H18627   6.648   1.960   9.532  0.5514 -0.8637  0.1466
  899MOL0     H18628   6.396   2.111   9.435  2.5082  1.2163  2.0835
  899MOL0     H18629   6.410   1.946   9.524 -0.8510  0.1462  0.9563
  899MOL0     H18630   6.430   2.080   9.102 -1.0739  2.0227  3.2834
  899MOL0     H18631   6.232   2.076   8.950  1.2786  1.5490  1.0299
  899MOL0     H18632   5.913   1.755   8.772 -0.8707 -0.3248 -1.2051
  899MOL0     H18633   5.739   1.661   8.651 -0.3677  2.4568 -0.9081
  899MOL0     H18634   5.520   1.527   8.604 -1.9353 -1.7043  1.1268
  899MOL0     H18635   5.478   1.705   8.588 -0.3018  0.6832  0.4195
  899MOL0     H18636   5.252   1.645   8.682 -2.2176  0.6344 -1.3623
  899MOL0     H18637   5.304   1.474   8.656 -0.7102 -0.2039 -1.2623
  899MOL0     H18638   5.364   1.561   8.413 -0.0157 -0.5330  0.0870
  899MOL0     H18639   5.256   1.695   8.448 -0.5032 -1.0794 -2.3112
  899MOL0     H18640   5.062   1.553   8.459 -0.3299  1.8149 -1.2157
  899MOL0     H18641   5.138   1.550   8.315 -4.2376  0.3985  1.2279
  899MOL0     H18642   5.187   1.336   8.540 -0.2088 -3.7039 -0.9316
  899MOL0     H18643   5.253   1.324   8.391  2.0582  0.1220  3.6811
  899MOL0     H18644   5.059   1.294   8.250 -1.1715  2.1694  0.1405
  899MOL0     H18645   4.947   1.350   8.373  0.7343  0.1410  0.0458
  899MOL0     H18646   5.102   1.089   8.338 -1.9934  1.5181 -3.7078
  899MOL0     H18647   5.049   1.133   8.499 -0.2271 -0.0197  0.3998
  899MOL0     H18648   4.838   1.157   8.278  0.4006  1.3720  0.0806
  899MOL0     H18649   4.821   1.151   8.442  0.8870 -0.5245  0.2587
  899MOL0     H18650   5.475   1.735   8.992 -0.7220 -2.6564 -1.0994
  899MOL0     H18651   5.662   1.834   9.115  1.8560  0.1815  0.8607
  899MOL0     H18652   6.068   1.763   9.190  1.1410 -0.6744  1.2353
  899MOL0     H18653   6.263   1.786   9.350  0.6362 -0.6354  0.3787
  899MOL0     H18654   7.854   1.057   9.849  1.3510  0.3175 -3.0536
  899MOL0     H18655   8.107   1.052   9.892  0.7284  0.4960  0.2924
  899MOL0     H18656   8.511   1.383   9.758 -1.5971  0.2010  0.0892
  899MOL0     H18657   8.747   1.385   9.793  1.8364 -0.2750  1.3478
  899MOL0     H18658   8.900   1.042  10.013  2.7195 -0.4413 -0.4623
  899MOL0     H18659   8.914   1.149  10.142 -3.9623 -1.9226 -0.5241
  899MOL0     H18660   9.132   1.066  10.082 -1.5554  0.2963  0.4644
  899MOL0     H18661   9.110   1.126   9.915  0.3470 -1.1975  0.0883
  899MOL0     H18662   9.087   1.333  10.143 -2.4049 -2.3011 -0.6466
  899MOL0     H18663   9.100   1.358   9.978 -0.4910  1.1548  0.7889
  899MOL0     H18664   9.335   1.213  10.121 -0.9091 -1.6961 -2.8447
  899MOL0     H18665   9.335   1.296   9.971 -0.7104 -0.8499  0.2490
  899MOL0     H18666   9.408   1.639  10.193 -0.3363  0.9152 -2.5259
  899MOL0     H18667   8.708   1.115  10.141 -2.0517 -0.6089  0.8504
  899MOL0     H18668   8.472   1.154  10.117  1.3262  0.0258 -0.0162
  900MOL0     O18669   3.344   1.094   8.588 -0.2596  0.1379 -0.5009
  900MOL0     C18670   3.398   1.162   8.503 -0.3387  0.8575  0.1231
  900MOL0     O18671   3.338   1.219   8.395  0.4218 -0.5120 -0.3456
  900MOL0     C18672   3.197   1.218   8.392 -0.1516 -0.4663 -0.5954
  900MOL0     C18673   3.097   1.254   8.497 -0.3387  0.6350 -0.3770
  900MOL0     C18674   2.955   1.262   8.483 -0.0271 -0.3611  0.4305
  900MOL0     C18675   2.912   1.238   8.356  0.3969  0.2902 -0.4816
  900MOL0     O18676   2.776   1.236   8.319 -0.2904  0.7989  0.4142
  900MOL0     C18677   2.677   1.317   8.376  0.6964 -0.5302  0.1807
  900MOL0     C18678   2.595   1.231   8.473 -0.0441  0.4034  0.2481
  900MOL0     C18679   2.467   1.310   8.526 -0.5284  0.9112  0.4013
  900MOL0     C18680   2.357   1.283   8.426 -0.1337 -0.2300 -0.2734
  900MOL0     C18681   2.229   1.354   8.483 -0.2726 -1.0309  0.8667
  900MOL0     C18682   2.113   1.344   8.400 -0.0221  0.1803 -0.2095
  900MOL0     C18683   1.992   1.302   8.488  0.4094 -0.1814  0.5032
  900MOL0     C18684   1.857   1.282   8.415  0.2537  0.2502 -0.3632
  900MOL0     N18685   1.729   1.304   8.496 -0.8914 -0.1847  0.5534
  900MOL0     C18686   1.700   1.403   8.585  0.0225 -0.1321 -0.6842
  900MOL0     C18687   1.572   1.381   8.625 -0.4061 -0.4925 -0.7974
  900MOL0     C18688   1.476   1.481   8.706  0.5596  0.5514  0.8949
  900MOL0     C18689   1.334   1.418   8.702 -0.4781 -0.0214 -1.0020
  900MOL0     C18690   1.248   1.506   8.802  0.2638 -0.1347 -0.8018
  900MOL0     C18691   1.236   1.437   8.938  0.7679  0.5841 -0.1487
  900MOL0     O18692   1.175   1.303   8.936 -0.1849  0.2842  0.2100
  900MOL0     C18693   1.037   1.283   8.925 -0.5081 -0.1868 -0.2760
  900MOL0     C18694   0.998   1.145   8.925  0.7506  0.4602 -0.6138
  900MOL0     C18695   0.862   1.107   8.930  0.0205 -1.0736  0.1672
  900MOL0     C18696   0.765   1.210   8.928 -0.5735  0.2555  0.1797
  900MOL0     C18697   0.623   1.169   8.944  0.6848  0.3698 -0.6305
  900MOL0     O18698   0.605   1.049   9.012 -0.2871  0.0810 -0.3376
  900MOL0     C18699   0.478   1.031   9.043  0.0602  0.0917  0.3636
  900MOL0     C18700   0.390   1.114   9.115 -0.0803 -0.5200 -0.9960
  900MOL0     C18701   0.261   1.080   9.138  0.0348  0.2768  0.2259
  900MOL0     C18702   0.210   0.957   9.095 -0.5973 -0.1956 -0.4708
  900MOL0     O18703   0.083   0.921   9.123 -0.1953 -0.1317  0.0820
  900MOL0     C18704   0.068   0.782   9.169  1.0052 -0.6152 -0.2209
  900MOL0     C18705  -0.069   0.780   9.232  0.1520 -0.6709 -0.0363
  900MOL0     C18706  -0.179   0.827   9.145 -0.8256  0.0883  0.3966
  900MOL0     C18707  -0.305   0.743   9.174  0.7697 -0.2801  0.0496
  900MOL0     C18708  -0.432   0.805   9.117  0.6062  1.5539 -0.9973
  900MOL0     C18709  -0.565   0.748   9.167  0.1315  0.6125 -0.2675
  900MOL0     C18710  -0.691   0.806   9.089 -0.6950 -1.4476 -0.9751
  900MOL0     C18711  -0.827   0.738   9.113  0.3857 -0.2315 -0.7336
  900MOL0    Cl18712  -0.831   0.564   9.088 -0.6934 -0.2631 -0.7547
  900MOL0     C18713   0.298   0.868   9.028  0.7186 -0.1455  0.0608
  900MOL0     C18714   0.423   0.901   9.000 -0.2112  0.0880 -1.2628
  900MOL0     O18715   0.530   1.245   8.918  0.2119 -0.0411 -0.3666
  900MOL0     C18716   0.797   1.334   8.903 -0.3840 -0.4280  0.1588
  900MOL0     C18717   0.934   1.376   8.910  1.0511  0.1415 -1.3505
  900MOL0     N18718   1.533   1.270   8.564  0.5014  0.2871  0.0868
  900MOL0     N18719   1.620   1.223   8.485 -0.0727 -0.4190 -0.2053
  900MOL0     C18720   3.000   1.207   8.254  0.1885  0.9711 -1.0199
  900MOL0     C18721   3.138   1.191   8.270  0.6996  0.8944 -0.3329
  900MOL0     C18722   3.547   1.184   8.513 -0.9434 -1.0237  0.1454
  900MOL0     C18723   3.604   1.274   8.423 -0.7540  0.6944  0.5842
  900MOL0     C18724   3.738   1.305   8.420 -0.4524 -0.6923 -0.4211
  900MOL0     C18725   3.825   1.230   8.510  0.5746  0.0343  0.1705
  900MOL0     O18726   3.958   1.268   8.499  0.7214 -0.3603 -0.5598
  900MOL0     C18727   4.042   1.210   8.599  0.9243  0.3336  0.0252
  900MOL0     C18728   4.187   1.256   8.595  0.8427  0.9660  0.0352
  900MOL0     C18729   4.257   1.175   8.704  0.2503  0.3220  0.1766
  900MOL0     C18730   4.407   1.218   8.713 -0.3370  0.8695 -0.9739
  900MOL0     C18731   4.491   1.144   8.616 -0.0869  0.3980  0.8731
  900MOL0     C18732   4.573   1.074   8.557 -0.9394 -0.1083  0.8212
  900MOL0     C18733   3.771   1.131   8.590 -0.7639 -0.4214  0.7402
  900MOL0     C18734   3.634   1.113   8.602 -0.2369 -0.7663  0.6443
  900MOL0     H18735   3.143   1.272   8.593  1.3962 -1.9501 -0.6353
  900MOL0     H18736   2.886   1.288   8.563 -0.8518 -0.4190 -0.2514
  900MOL0     H18737   2.609   1.356   8.299  1.8663 -1.7222 -1.5446
  900MOL0     H18738   2.727   1.395   8.434 -0.7372 -0.1314  0.9171
  900MOL0     H18739   2.667   1.210   8.553  0.0722 -2.5952 -0.5297
  900MOL0     H18740   2.577   1.135   8.423 -0.8264  1.0100 -0.6565
  900MOL0     H18741   2.491   1.417   8.535  1.0984  0.6357 -0.2492
  900MOL0     H18742   2.463   1.267   8.626  0.5561 -1.9259 -0.6799
  900MOL0     H18743   2.372   1.342   8.335 -1.3224 -0.0143 -0.3352
  900MOL0     H18744   2.347   1.175   8.409  0.8203 -0.1735 -1.2975
  900MOL0     H18745   2.246   1.462   8.491 -0.2944 -0.9004 -0.6797
  900MOL0     H18746   2.203   1.311   8.581 -2.6450 -1.2725  0.1817
  900MOL0     H18747   2.143   1.259   8.339  2.5914  1.3606 -0.6984
  900MOL0     H18748   2.100   1.434   8.339  1.1586  1.5922  1.5372
  900MOL0     H18749   2.024   1.204   8.526 -0.7097 -1.1458 -0.9128
  900MOL0     H18750   1.983   1.383   8.561  0.0263 -0.3740  0.6760
  900MOL0     H18751   1.858   1.178   8.381  0.1926 -0.6462  2.1744
  900MOL0     H18752   1.853   1.346   8.326  0.0260  1.9023  0.7954
  900MOL0     H18753   1.770   1.484   8.604 -1.5226  2.1170 -3.8077
  900MOL0     H18754   1.457   1.580   8.664 -2.0738 -0.2934 -0.1118
  900MOL0     H18755   1.511   1.494   8.809  2.0364  2.9328  0.1672
  900MOL0     H18756   1.331   1.320   8.750 -2.3318  1.7620  3.0202
  900MOL0     H18757   1.301   1.420   8.598  2.0633  0.3866 -1.8622
  900MOL0     H18758   1.288   1.605   8.822 -0.1249 -0.0564 -0.3907
  900MOL0     H18759   1.145   1.517   8.766 -1.1862  1.0198  3.0908
  900MOL0     H18760   1.174   1.497   9.004  3.8961  0.4218  3.2278
  900MOL0     H18761   1.336   1.426   8.981  2.8533  1.4847 -4.2432
  900MOL0     H18762   1.066   1.060   8.936 -2.5422 -2.0928  2.2499
  900MOL0     H18763   0.826   1.006   8.950  0.3618 -1.1754  0.2655
  900MOL0     H18764   0.433   1.208   9.150  2.0667 -1.5061 -0.8031
  900MOL0     H18765   0.200   1.150   9.194  1.4235  1.5520  0.2492
  900MOL0     H18766   0.137   0.750   9.248  0.1839  2.3357  1.8866
  900MOL0     H18767   0.069   0.710   9.087  1.3930 -0.5030 -0.3136
  900MOL0     H18768  -0.071   0.833   9.328 -1.8277  1.9220 -1.3759
  900MOL0     H18769  -0.097   0.678   9.258 -0.4063 -0.4460  0.2674
  900MOL0     H18770  -0.137   0.828   9.044 -0.1883  2.9791  0.5767
  900MOL0     H18771  -0.194   0.931   9.178  1.8704  0.5744  0.2905
  900MOL0     H18772  -0.292   0.647   9.123  0.4150  0.4907 -1.5507
  900MOL0     H18773  -0.311   0.732   9.283 -1.2673  0.8375  0.1096
  900MOL0     H18774  -0.430   0.794   9.008 -0.0351 -2.4731 -0.7283
  900MOL0     H18775  -0.434   0.909   9.153  0.1358  0.2242  3.4459
  900MOL0     H18776  -0.573   0.783   9.270 -1.1737  1.2107 -0.5468
  900MOL0     H18777  -0.564   0.639   9.170  3.6285  0.5575  0.9113
  900MOL0     H18778  -0.687   0.912   9.113  0.2980 -1.7829  0.5066
  900MOL0     H18779  -0.674   0.805   8.981  0.3102 -2.8686 -0.8325
  900MOL0     H18780  -0.901   0.797   9.058  0.0110 -0.2323 -0.2378
  900MOL0     H18781  -0.865   0.751   9.215  3.0870 -0.7215  0.4245
  900MOL0     H18782   0.259   0.772   8.996  3.5658 -1.2458 -0.3964
  900MOL0     H18783   0.491   0.832   8.951  1.0048  0.2102  0.2026
  900MOL0     H18784   0.721   1.411   8.911  1.1193  1.1707 -0.3441
  900MOL0     H18785   0.952   1.482   8.920 -2.6504  0.7449  1.3505
  900MOL0     H18786   2.946   1.182   8.163 -1.2476  0.5232 -0.0667
  900MOL0     H18787   3.197   1.156   8.185  1.2850 -1.8722  1.0969
  900MOL0     H18788   3.544   1.324   8.347 -2.2307 -2.1958 -0.3249
  900MOL0     H18789   3.780   1.383   8.356  0.3523 -0.3371  0.5120
  900MOL0     H18790   4.051   1.102   8.587 -0.4163 -0.0079  1.6402
  900MOL0     H18791   3.998   1.223   8.698 -1.7747  0.3723 -1.0784
  900MOL0     H18792   4.239   1.234   8.501  0.7026 -3.7692  0.8291
  900MOL0     H18793   4.193   1.364   8.613 -2.3934  0.9627  2.0199
  900MOL0     H18794   4.240   1.067   8.694 -0.8732  0.4133  0.9672
  900MOL0     H18795   4.211   1.206   8.798  1.0920  1.3247  0.2774
  900MOL0     H18796   4.428   1.325   8.706  3.9180  0.2981  0.2031
  900MOL0     H18797   4.441   1.184   8.811 -1.3089  1.1524 -0.5190
  900MOL0     H18798   4.632   1.001   8.506 -0.0820  0.3019  1.2135
  900MOL0     H18799   3.830   1.065   8.653  2.6386 -0.5969 -2.2804
  900MOL0     H18800   3.601   1.038   8.673 -0.4500 -0.6851  0.6301
  901MOL0     O18801   7.030   3.077   8.922 -0.6952 -0.7032  0.0777
  901MOL0     C18802   7.125   3.000   8.942  0.0888  0.2723  0.4099
  901MOL0     O18803   7.121   2.882   9.019 -0.2877 -1.1948  0.3022
  901MOL0     C18804   7.019   2.849   9.103 -0.8796  0.4018 -0.5437
  901MOL0     C18805   6.886   2.841   9.070 -0.4785 -0.3318 -0.9860
  901MOL0     C18806   6.795   2.799   9.162  0.9570  0.0287 -0.5822
  901MOL0     C18807   6.831   2.762   9.295  0.1773 -0.5276 -0.4107
  901MOL0     O18808   6.728   2.732   9.389  0.8553  0.2105 -0.6217
  901MOL0     C18809   6.731   2.822   9.505 -0.2483  0.1601  0.8544
  901MOL0     C18810   6.622   2.797   9.604  0.0427 -0.1297  0.7791
  901MOL0     C18811   6.655   2.659   9.677 -0.4596  0.7402  0.4683
  901MOL0     C18812   6.566   2.631   9.792  0.2581  0.4735  1.2023
  901MOL0     C18813   6.574   2.484   9.858  0.5721 -0.4034 -0.0956
  901MOL0     C18814   6.476   2.476   9.978 -0.2604  0.5167 -0.7703
  901MOL0     C18815   6.501   2.346  10.062  0.5686 -0.3948 -0.1157
  901MOL0     C18816   6.435   2.230   9.991 -0.1834  0.3099 -0.0149
  901MOL0     N18817   6.290   2.226  10.018 -0.7145  0.3385  0.6388
  901MOL0     C18818   6.230   2.205  10.137  0.2678  0.0670 -0.8820
  901MOL0     C18819   6.094   2.191  10.114 -0.5308 -0.8778 -0.5325
  901MOL0     C18820   5.985   2.179  10.211  1.1114 -0.2825 -0.1459
  901MOL0     C18821   5.897   2.055  10.206  0.2561  0.7522 -0.5989
  901MOL0     C18822   5.914   1.965  10.331  0.3032  1.2189 -0.4813
  901MOL0     C18823   5.792   1.875  10.356  0.6159  0.0503 -0.1829
  901MOL0     O18824   5.685   1.951  10.421 -0.1882  0.1503 -1.1296
  901MOL0     C18825   5.582   1.893  10.478 -0.0086 -1.5217 -0.5143
  901MOL0     C18826   5.516   1.965  10.576 -0.6221  0.0656 -0.8929
  901MOL0     C18827   5.402   1.917  10.632  0.7498 -0.5626 -0.0782
  901MOL0     C18828   5.345   1.794  10.590 -0.3257 -1.1267  0.4275
  901MOL0     C18829   5.223   1.730  10.646 -0.0742 -0.2029 -0.8719
  901MOL0     O18830   5.159   1.804  10.747  0.0963 -0.2683  0.2638
  901MOL0     C18831   5.053   1.743  10.811 -0.4422  0.2037  0.5840
  901MOL0     C18832   4.962   1.654  10.754 -0.0957 -0.3082  0.1590
  901MOL0     C18833   4.858   1.590  10.817 -0.5691  0.5371 -0.2397
  901MOL0     C18834   4.836   1.632  10.946  0.5117  0.4431 -0.4052
  901MOL0     O18835   4.734   1.571  11.022  0.2472 -0.0060  0.0380
  901MOL0     C18836   4.650   1.463  10.961  0.0126 -0.9012 -0.1697
  901MOL0     C18837   4.523   1.516  10.898 -0.4963 -0.5375  0.3210
  901MOL0     C18838   4.419   1.401  10.868 -0.4836 -0.0538  0.1923
  901MOL0     C18839   4.462   1.281  10.789  0.1470  0.4226 -0.7451
  901MOL0     C18840   4.513   1.310  10.651 -0.1792  0.6656  0.9328
  901MOL0     C18841   4.482   1.199  10.552 -0.3008 -0.3658  0.6524
  901MOL0     C18842   4.580   1.213  10.422  0.2088  0.0986  0.2342
  901MOL0     C18843   4.540   1.121  10.299  0.3194  0.0621  0.4716
  901MOL0    Cl18844   4.686   1.114  10.196  0.3672  0.1105  0.2453
  901MOL0     C18845   4.914   1.730  11.006 -0.2011 -0.4997 -0.0791
  901MOL0     C18846   5.023   1.786  10.947 -0.1760  0.2148 -0.4117
  901MOL0     O18847   5.193   1.614  10.610  0.3192 -0.4368 -0.3511
  901MOL0     C18848   5.420   1.723  10.498  1.2595  0.0866 -1.3522
  901MOL0     C18849   5.541   1.773  10.448  0.4297  0.3165  0.2939
  901MOL0     N18850   6.078   2.209   9.973 -0.2605 -0.7985  0.7517
  901MOL0     N18851   6.191   2.227   9.924 -0.0090  0.4206  0.5259
  901MOL0     C18852   6.968   2.758   9.320 -0.0933  0.8059 -0.4668
  901MOL0     C18853   7.067   2.796   9.228 -0.8111 -0.3926 -0.4028
  901MOL0     C18854   7.260   3.027   8.884  0.2653  0.0884 -0.1403
  901MOL0     C18855   7.272   3.126   8.779  0.9792  0.2337  0.6770
  901MOL0     C18856   7.399   3.141   8.718  0.2761 -0.0579 -0.3534
  901MOL0     C18857   7.516   3.080   8.775 -0.3006 -0.6023  0.3369
  901MOL0     O18858   7.648   3.094   8.729 -0.3293 -0.6473  0.0133
  901MOL0     C18859   7.665   3.204   8.636  0.1665  0.1321 -0.8138
  901MOL0     C18860   7.816   3.211   8.610 -0.1928  0.3648  0.0607
  901MOL0     C18861   7.907   3.249   8.729 -0.2088  0.1539  0.2610
  901MOL0     C18862   8.064   3.226   8.716  0.4827 -0.4960 -0.1422
  901MOL0     C18863   8.103   3.270   8.588 -0.1978 -0.5291 -0.0189
  901MOL0     C18864   8.157   3.329   8.492  0.4538  0.3139  1.0197
  901MOL0     C18865   7.509   3.004   8.889  0.9680 -0.4147  0.0988
  901MOL0     C18866   7.382   2.972   8.934 -0.0681 -0.3741  0.1320
  901MOL0     H18867   6.850   2.871   8.972  1.8367 -0.0711 -1.8082
  901MOL0     H18868   6.695   2.792   9.122  0.7749 -1.2207  0.0335
  901MOL0     H18869   6.722   2.926   9.474 -2.2722  0.8118  3.2318
  901MOL0     H18870   6.825   2.829   9.561  1.1891  0.8933 -1.5178
  901MOL0     H18871   6.525   2.795   9.554 -1.9886  6.3049  3.3428
  901MOL0     H18872   6.616   2.883   9.671 -3.0383  1.6718 -1.5361
  901MOL0     H18873   6.756   2.659   9.718 -0.5646  2.8482  0.8640
  901MOL0     H18874   6.651   2.581   9.601  2.7419  0.1613  0.7677
  901MOL0     H18875   6.585   2.710   9.865  0.3868 -0.5235  2.3005
  901MOL0     H18876   6.467   2.650   9.750  0.8686 -2.3250 -1.9292
  901MOL0     H18877   6.679   2.471   9.888  0.5882 -0.6842 -0.2703
  901MOL0     H18878   6.542   2.414   9.781 -3.5421  0.5334  0.5363
  901MOL0     H18879   6.372   2.474   9.945 -0.6777  1.5318  0.4022
  901MOL0     H18880   6.490   2.569  10.035  0.9539  2.9344 -4.6347
  901MOL0     H18881   6.609   2.327  10.060  0.7800  0.5228  1.2674
  901MOL0     H18882   6.465   2.362  10.164  2.2558  2.3452  0.1515
  901MOL0     H18883   6.474   2.135  10.029  1.8171  1.2259  0.3740
  901MOL0     H18884   6.450   2.237   9.883 -0.5152  2.3375  0.0443
  901MOL0     H18885   6.281   2.199  10.233 -0.5326 -0.7555 -0.5000
  901MOL0     H18886   5.911   2.259  10.203 -0.6885 -1.9537 -0.8394
  901MOL0     H18887   6.026   2.182  10.312  2.2614 -0.3487 -0.5892
  901MOL0     H18888   5.925   2.006  10.113 -0.9523 -0.0718 -0.5562
  901MOL0     H18889   5.795   2.094  10.208  0.1457  0.5497 -1.6669
  901MOL0     H18890   5.996   1.894  10.316 -1.3410 -0.7035 -0.8717
  901MOL0     H18891   5.927   2.025  10.421  1.6505 -2.1334  1.7601
  901MOL0     H18892   5.819   1.790  10.419  0.7170 -0.3517 -0.7630
  901MOL0     H18893   5.756   1.826  10.266  0.1492 -1.5139  0.8209
  901MOL0     H18894   5.552   2.058  10.619  4.3747 -2.2593  0.7284
  901MOL0     H18895   5.350   1.986  10.697  1.0659  0.6700 -1.0909
  901MOL0     H18896   4.962   1.635  10.647 -0.7999 -1.2994  0.3164
  901MOL0     H18897   4.800   1.523  10.753  3.8840  0.2933 -4.6411
  901MOL0     H18898   4.611   1.407  11.047 -0.2443 -1.2701 -0.5242
  901MOL0     H18899   4.701   1.391  10.896 -0.3395 -1.6209  0.3351
  901MOL0     H18900   4.550   1.582  10.815  0.7915  1.7508  2.4190
  901MOL0     H18901   4.481   1.584  10.973 -0.1739 -1.4950  1.3930
  901MOL0     H18902   4.333   1.453  10.827  0.2616 -0.1002 -1.5230
  901MOL0     H18903   4.375   1.364  10.962  0.3462 -1.2268  0.1506
  901MOL0     H18904   4.537   1.230  10.850  0.0849  0.9123 -0.2579
  901MOL0     H18905   4.373   1.218  10.784  0.1204  0.2636  1.0998
  901MOL0     H18906   4.622   1.320  10.645 -0.4695  5.2505 -1.9344
  901MOL0     H18907   4.469   1.406  10.620  1.3764  2.1491  3.0027
  901MOL0     H18908   4.379   1.223  10.524  0.1098  2.5394  1.3160
  901MOL0     H18909   4.503   1.098  10.588  1.5171  0.1811  1.2709
  901MOL0     H18910   4.573   1.314  10.382 -0.0670 -0.9034 -2.4644
  901MOL0     H18911   4.680   1.180  10.452 -1.0936 -3.3348  1.3736
  901MOL0     H18912   4.458   1.176  10.252 -0.7486  0.3804  2.6177
  901MOL0     H18913   4.500   1.031  10.346 -2.0648 -0.9059 -3.0256
  901MOL0     H18914   4.885   1.753  11.108 -0.4824 -1.3109  0.0326
  901MOL0     H18915   5.083   1.864  10.991 -1.5196  2.3573 -2.1321
  901MOL0     H18916   5.396   1.621  10.469 -1.0010 -0.0909  0.8187
  901MOL0     H18917   5.596   1.723  10.369 -0.3393 -2.1789  1.2358
  901MOL0     H18918   6.997   2.736   9.421 -0.1196 -1.3906 -0.9024
  901MOL0     H18919   7.173   2.794   9.250 -1.2399 -2.3115  1.9109
  901MOL0     H18920   7.193   3.188   8.738  1.7633 -0.8557 -2.8120
  901MOL0     H18921   7.411   3.216   8.640 -1.9342  2.0590  1.1824
  901MOL0     H18922   7.638   3.303   8.675  1.9316 -0.4443  2.1191
  901MOL0     H18923   7.625   3.173   8.539 -0.7956 -3.1148  0.4915
  901MOL0     H18924   7.853   3.117   8.568 -0.2609 -0.7032  2.2792
  901MOL0     H18925   7.822   3.289   8.533 -0.7633 -0.8094 -1.2354
  901MOL0     H18926   7.869   3.204   8.822 -2.0968  2.2257  0.5511
  901MOL0     H18927   7.887   3.356   8.730  1.3470  0.4924 -0.7837
  901MOL0     H18928   8.116   3.282   8.795 -0.0628 -1.6216  1.0649
  901MOL0     H18929   8.093   3.121   8.730  4.7342  0.5806  0.7363
  901MOL0     H18930   8.196   3.388   8.411 -3.7575 -0.1919 -1.6879
  901MOL0     H18931   7.599   2.965   8.935  1.4582  1.0789  0.4352
  901MOL0     H18932   7.377   2.907   9.020 -2.8853 -0.3857  0.0530
  902MOL0     O18933   8.842   8.390   8.070  0.4811  0.0220  0.0957
  902MOL0     C18934   8.882   8.439   8.177  0.2327  0.0248  0.2015
  902MOL0     O18935   8.807   8.467   8.284  0.1305  0.0259 -0.1626
  902MOL0     C18936   8.668   8.473   8.268  0.3609 -0.4181 -0.1012
  902MOL0     C18937   8.590   8.423   8.373  0.1738 -0.2470  0.0887
  902MOL0     C18938   8.449   8.414   8.367  0.1799 -0.5768 -0.3851
  902MOL0     C18939   8.383   8.450   8.248  0.4772  0.8155  0.1461
  902MOL0     O18940   8.242   8.439   8.245 -0.9556 -0.0874 -0.4958
  902MOL0     C18941   8.180   8.415   8.118  0.0709  0.1246 -0.2780
  902MOL0     C18942   8.025   8.416   8.126  0.8481  0.1131  0.0060
  902MOL0     C18943   7.970   8.559   8.145  0.8368 -0.0520 -0.0948
  902MOL0     C18944   7.815   8.584   8.154 -0.8375  0.4366 -0.1723
  902MOL0     C18945   7.747   8.565   8.027  0.0280  0.7639  0.5686
  902MOL0     C18946   7.614   8.636   8.020 -0.3430  0.6109 -1.5384
  902MOL0     C18947   7.531   8.606   7.889 -0.8331 -0.0848 -1.1990
  902MOL0     C18948   7.478   8.461   7.871  0.2096 -0.6000  0.7684
  902MOL0     N18949   7.396   8.461   7.747  0.4641  0.3758 -0.0401
  902MOL0     C18950   7.264   8.452   7.744  0.1836 -0.2914  0.3337
  902MOL0     C18951   7.226   8.497   7.626  0.2949  0.7089 -0.2282
  902MOL0     C18952   7.083   8.505   7.580  0.6169 -0.2897  0.3890
  902MOL0     C18953   6.990   8.410   7.651  0.4504 -0.4118  1.1848
  902MOL0     C18954   6.862   8.399   7.565  0.4339  0.5659 -0.1199
  902MOL0     C18955   6.775   8.303   7.640 -0.0176 -0.2989  0.3873
  902MOL0     O18956   6.648   8.286   7.576 -0.1020 -0.3653  0.5226
  902MOL0     C18957   6.523   8.291   7.635 -0.6357  0.2208 -0.3517
  902MOL0     C18958   6.420   8.212   7.589 -0.5827 -0.7290  0.6300
  902MOL0     C18959   6.295   8.233   7.635  0.2617  0.5197  0.2013
  902MOL0     C18960   6.262   8.337   7.729 -1.2031  0.7263 -0.7060
  902MOL0     C18961   6.132   8.346   7.789  0.0834  0.3259 -0.4765
  902MOL0     O18962   6.018   8.305   7.712 -0.1373  0.9822  0.5061
  902MOL0     C18963   5.893   8.309   7.770 -0.2219 -0.3686 -1.1361
  902MOL0     C18964   5.790   8.371   7.704 -0.2400 -0.0038 -0.2562
  902MOL0     C18965   5.663   8.385   7.757 -0.2983 -0.1443 -0.1658
  902MOL0     C18966   5.637   8.305   7.869 -0.0167 -1.6004 -0.5349
  902MOL0     O18967   5.511   8.307   7.926  0.0273  0.5167  0.7489
  902MOL0     C18968   5.456   8.437   7.960 -0.8231 -0.1072 -0.8126
  902MOL0     C18969   5.318   8.404   8.026 -0.3009  0.7135  0.4380
  902MOL0     C18970   5.335   8.342   8.169 -0.0991 -0.3170  0.4480
  902MOL0     C18971   5.206   8.259   8.217 -0.8467  0.3707 -0.2090
  902MOL0     C18972   5.097   8.355   8.280  0.2097  0.5404  0.0557
  902MOL0     C18973   4.954   8.305   8.237  0.5995  0.0079 -0.3912
  902MOL0     C18974   4.933   8.172   8.312 -0.6279  0.3116  0.0999
  902MOL0     C18975   4.903   8.193   8.464 -0.7564  0.0821  0.0216
  902MOL0    Cl18976   4.813   8.045   8.513 -0.1358  0.1362 -0.0151
  902MOL0     C18977   5.735   8.227   7.931 -0.0199 -0.0622 -0.3335
  902MOL0     C18978   5.861   8.226   7.884  0.5395 -0.1342  1.0876
  902MOL0     O18979   6.121   8.382   7.906 -0.8413  0.2926  0.8226
  902MOL0     C18980   6.367   8.418   7.775  0.0529 -0.3153  0.2006
  902MOL0     C18981   6.493   8.396   7.723 -0.0373  0.1085  0.2808
  902MOL0     N18982   7.342   8.516   7.555  0.5610 -1.1182  0.3713
  902MOL0     N18983   7.440   8.484   7.628  0.4600 -0.2005 -0.0479
  902MOL0     C18984   8.460   8.495   8.138  0.5513 -0.5819 -0.4515
  902MOL0     C18985   8.602   8.509   8.149  0.2250  0.1347  0.9010
  902MOL0     C18986   9.028   8.478   8.178  0.5171  0.7778 -0.0940
  902MOL0     C18987   9.083   8.540   8.295 -0.2447  0.1483 -0.3126
  902MOL0     C18988   9.216   8.588   8.290  0.3535 -0.0065  0.8429
  902MOL0     C18989   9.289   8.581   8.172  0.7505  0.8759  0.6598
  902MOL0     O18990   9.410   8.644   8.163  0.0544 -0.0487  0.1456
  902MOL0     C18991   9.489   8.634   8.044  0.4976 -0.9633 -0.0236
  902MOL0     C18992   9.637   8.661   8.064  0.0052  0.3921  0.1931
  902MOL0     C18993   9.658   8.803   8.118 -0.1027  0.6117 -0.3448
  902MOL0     C18994   9.789   8.813   8.189 -0.1436 -0.1132  1.7023
  902MOL0     C18995   9.903   8.794   8.094 -0.0856  0.9190 -0.5049
  902MOL0     C18996  10.001   8.768   8.024 -0.1571  0.0128 -0.6529
  902MOL0     C18997   9.230   8.529   8.061 -0.1826  0.8092  0.7311
  902MOL0     C18998   9.106   8.470   8.061  0.0647 -0.0356 -0.1991
  902MOL0     H18999   8.650   8.375   8.450  0.4036 -0.5671 -0.2881
  902MOL0     H19000   8.383   8.378   8.446 -1.9783 -0.5487 -2.0669
  902MOL0     H19001   8.212   8.315   8.088  1.5158  0.4804 -0.0286
  902MOL0     H19002   8.222   8.480   8.041 -1.3660  1.9251  0.3781
  902MOL0     H19003   7.995   8.351   8.209 -1.3785 -0.0915 -0.8782
  902MOL0     H19004   7.984   8.374   8.034  0.6876  0.8153 -0.2434
  902MOL0     H19005   8.025   8.629   8.081  2.2700 -1.3655 -0.3678
  902MOL0     H19006   8.008   8.594   8.241  1.6316  1.9370 -1.0778
  902MOL0     H19007   7.771   8.520   8.232  1.5653  1.5954  2.3336
  902MOL0     H19008   7.805   8.688   8.186 -0.9552  0.7062 -1.0637
  902MOL0     H19009   7.737   8.459   8.002  0.5374  0.5463  1.2577
  902MOL0     H19010   7.813   8.597   7.946  0.6093  0.8742  1.0815
  902MOL0     H19011   7.623   8.743   8.041 -0.7389 -0.0008  2.5536
  902MOL0     H19012   7.548   8.605   8.102  0.8593 -0.3587 -0.9015
  902MOL0     H19013   7.443   8.664   7.917  0.4207  2.0080 -1.3463
  902MOL0     H19014   7.570   8.652   7.798 -0.6393  1.4090 -0.3928
  902MOL0     H19015   7.407   8.466   7.955 -0.5652  0.7580  0.0609
  902MOL0     H19016   7.558   8.387   7.868  1.5925  0.8923 -1.5696
  902MOL0     H19017   7.192   8.425   7.821 -0.5149  0.7540  0.0726
  902MOL0     H19018   7.074   8.489   7.472  1.8728 -1.2262  0.3995
  902MOL0     H19019   7.054   8.610   7.592  0.7650 -0.1644 -0.2883
  902MOL0     H19020   6.968   8.433   7.755  2.1815 -0.8739  1.6801
  902MOL0     H19021   7.040   8.313   7.657 -1.4224 -1.3882  1.7821
  902MOL0     H19022   6.808   8.494   7.562 -1.6146 -0.5706 -1.2236
  902MOL0     H19023   6.877   8.355   7.467 -5.1930  0.4378 -1.2621
  902MOL0     H19024   6.763   8.342   7.742  2.1107  3.5211 -0.6372
  902MOL0     H19025   6.822   8.205   7.630  0.7751  0.3308 -4.0670
  902MOL0     H19026   6.429   8.132   7.516  0.3823  0.4372 -0.5967
  902MOL0     H19027   6.224   8.163   7.594 -0.3319  1.2300 -0.0114
  902MOL0     H19028   5.819   8.414   7.609 -0.4820  1.3524  0.2607
  902MOL0     H19029   5.585   8.453   7.724  3.1671  3.7900 -1.0443
  902MOL0     H19030   5.441   8.499   7.871  3.5185 -0.9623 -2.4105
  902MOL0     H19031   5.530   8.489   8.022 -0.8857  1.7114 -2.1724
  902MOL0     H19032   5.256   8.338   7.966 -0.4527  2.5569 -1.5392
  902MOL0     H19033   5.264   8.498   8.039 -0.3955  0.6053  0.8368
  902MOL0     H19034   5.376   8.416   8.238  1.4593  0.9248 -1.7237
  902MOL0     H19035   5.421   8.274   8.167  2.4849  2.7153  1.2811
  902MOL0     H19036   5.154   8.232   8.125 -0.3718  3.3071 -1.4483
  902MOL0     H19037   5.227   8.170   8.276  0.0047  0.1779 -0.7986
  902MOL0     H19038   5.108   8.459   8.247 -0.3272  0.6325  0.1649
  902MOL0     H19039   5.106   8.366   8.388  0.0034  0.0690  0.1240
  902MOL0     H19040   4.952   8.317   8.128  2.1881  2.1646 -0.2557
  902MOL0     H19041   4.891   8.373   8.296 -0.2332 -1.1519  0.0818
  902MOL0     H19042   4.847   8.122   8.266 -1.0615  1.0442  0.0847
  902MOL0     H19043   5.016   8.101   8.309 -0.6076  0.3591 -2.1292
  902MOL0     H19044   4.838   8.277   8.489  0.4672  0.6178  1.5659
  902MOL0     H19045   4.995   8.194   8.523  0.6248  0.2160 -2.0161
  902MOL0     H19046   5.708   8.179   8.024  2.7049  0.3860  0.7712
  902MOL0     H19047   5.936   8.167   7.936  1.7676 -0.5710 -1.0625
  902MOL0     H19048   6.339   8.500   7.841 -0.7055 -0.1175 -0.3517
  902MOL0     H19049   6.582   8.452   7.751  1.8603 -2.2826 -0.6059
  902MOL0     H19050   8.412   8.532   8.049 -3.4431 -1.3469  1.1854
  902MOL0     H19051   8.654   8.556   8.066 -0.6718  0.1581  0.3370
  902MOL0     H19052   9.019   8.547   8.382 -0.0760 -0.5884 -0.1265
  902MOL0     H19053   9.265   8.628   8.378 -0.5628  0.5528  1.1232
  902MOL0     H19054   9.453   8.700   7.965  1.2582  1.1940  1.3567
  902MOL0     H19055   9.490   8.536   7.995  1.2911  0.3899 -2.9251
  902MOL0     H19056   9.683   8.580   8.122 -1.6243 -1.5139 -1.0107
  902MOL0     H19057   9.687   8.651   7.967  0.7011  2.2379  0.3289
  902MOL0     H19058   9.579   8.830   8.188 -1.0219 -0.9335 -0.7264
  902MOL0     H19059   9.659   8.876   8.037  0.0808  2.7636  1.4894
  902MOL0     H19060   9.797   8.915   8.230 -3.2344  1.4721 -1.1233
  902MOL0     H19061   9.805   8.750   8.277  1.1210 -1.2588  0.6905
  902MOL0     H19062  10.080   8.728   7.964  0.3387 -0.3871  0.2404
  902MOL0     H19063   9.277   8.530   7.963 -1.5640  0.7331  0.0389
  902MOL0     H19064   9.066   8.436   7.966 -1.2800  1.8541 -0.3717
  903MOL0     O19065   9.162   0.258   0.095  0.0218 -0.1930 -0.8091
  903MOL0     C19066   9.188   0.143   0.131  0.0161 -0.6627  0.0182
  903MOL0     O19067   9.098   0.050   0.172 -0.5759 -0.1240 -0.7525
  903MOL0     C19068   8.969   0.079   0.173  0.2754  0.3907 -0.2000
  903MOL0     C19069   8.911   0.163   0.268  0.3248  0.1294 -0.2482
  903MOL0     C19070   8.773   0.192   0.272 -0.7150 -0.2652  0.2942
  903MOL0     C19071   8.684   0.127   0.191 -0.0486 -0.2799  0.5320
  903MOL0     O19072   8.546   0.126   0.199 -0.1889 -0.0441 -0.7413
  903MOL0     C19073   8.492   0.225   0.282 -0.2093  1.5076 -0.4094
  903MOL0     C19074   8.346   0.213   0.295  0.1209 -0.2701 -0.4050
  903MOL0     C19075   8.270   0.211   0.169 -0.3122  0.2150  0.9349
  903MOL0     C19076   8.126   0.242   0.210  0.3288 -0.8299 -0.0124
  903MOL0     C19077   8.035   0.205   0.089  0.2984  1.0224  0.4789
  903MOL0     C19078   8.039   0.309  -0.026  0.3644  1.0667 -0.5817
  903MOL0     C19079   8.031   0.456   0.023  0.9266  0.6515  0.6950
  903MOL0     C19080   7.895   0.490   0.084 -0.3325  0.5987  0.1138
  903MOL0     N19081   7.790   0.452  -0.012  0.0484  0.0743 -0.0440
  903MOL0     C19082   7.686   0.374   0.019  0.7179 -0.0240  0.1865
  903MOL0     C19083   7.613   0.370  -0.098  0.4445 -0.6086  0.6470
  903MOL0     C19084   7.485   0.291  -0.125  0.4441 -0.6820 -0.6280
  903MOL0     C19085   7.370   0.352  -0.054 -0.3437  0.6167 -0.7330
  903MOL0     C19086   7.236   0.333  -0.119  0.1577 -0.4442  0.4148
  903MOL0     C19087   7.128   0.435  -0.073  0.0875  0.2293  0.2594
  903MOL0     O19088   7.020   0.401  -0.164 -0.6708 -0.5260 -0.5481
  903MOL0     C19089   6.893   0.460  -0.159  0.0115 -0.6777  0.5679
  903MOL0     C19090   6.874   0.588  -0.117 -0.7173 -0.6721  0.3372
  903MOL0     C19091   6.753   0.644  -0.110  0.2883  0.2700  0.0174
  903MOL0     C19092   6.636   0.571  -0.141 -0.4051 -0.1161 -1.6801
  903MOL0     C19093   6.515   0.649  -0.150 -0.0552  0.5186  0.1700
  903MOL0     O19094   6.393   0.579  -0.140  0.4975  0.6505 -0.2430
  903MOL0     C19095   6.280   0.656  -0.126 -0.2891 -0.4980 -0.1951
  903MOL0     C19096   6.231   0.726  -0.239 -0.2224  0.6352  0.1131
  903MOL0     C19097   6.119   0.813  -0.232 -0.3388 -0.5960 -0.1836
  903MOL0     C19098   6.057   0.833  -0.114 -0.1640 -0.1649 -0.3285
  903MOL0     O19099   5.950   0.922  -0.096  0.0151 -0.1657  0.1969
  903MOL0     C19100   5.907   1.012  -0.196  0.3025  0.0343  0.0032
  903MOL0     C19101   5.787   0.961  -0.281  0.4007 -0.0023 -0.1508
  903MOL0     C19102   5.652   0.963  -0.211 -0.4358  0.0293 -0.0925
  903MOL0     C19103   5.559   0.861  -0.283 -0.7350  0.3057  0.2262
  903MOL0     C19104   5.418   0.898  -0.231  0.1818 -0.1922  0.0199
  903MOL0     C19105   5.305   0.825  -0.311 -0.3215 -0.0102  0.3176
  903MOL0     C19106   5.166   0.834  -0.235  0.4167 -0.5280 -0.2144
  903MOL0     C19107   5.163   0.746  -0.108  0.4954 -0.0687 -0.1329
  903MOL0    Cl19108   5.208   0.586  -0.154  0.2159 -0.3435 -0.3960
  903MOL0     C19109   6.101   0.762  -0.001 -0.1144  0.6206 -0.0197
  903MOL0     C19110   6.207   0.664  -0.004 -0.1313  0.5152 -0.0809
  903MOL0     O19111   6.524   0.770  -0.167  0.2457 -0.1168  0.0363
  903MOL0     C19112   6.652   0.434  -0.177  0.4247  0.6498 -0.0617
  903MOL0     C19113   6.779   0.381  -0.192  0.2098  0.4687 -0.7421
  903MOL0     N19114   7.681   0.444  -0.187 -0.1527 -0.8395 -0.5046
  903MOL0     N19115   7.783   0.497  -0.138 -0.8095  0.1782  0.5681
  903MOL0     C19116   8.748   0.033   0.097  0.5121 -0.5001  0.7546
  903MOL0     C19117   8.885   0.024   0.080  0.3820 -0.0302 -0.4479
  903MOL0     C19118   9.330   0.107   0.151 -0.0415 -0.1635 -0.3816
  903MOL0     C19119   9.435   0.198   0.122 -0.1003  0.1411  0.5331
  903MOL0     C19120   9.561   0.155   0.133 -0.0196 -0.1543  0.0393
  903MOL0     C19121   9.595   0.023   0.154 -0.7066 -0.4966 -0.0441
  903MOL0     O19122   9.729  -0.018   0.157  0.7905 -0.2681  1.0513
  903MOL0     C19123   9.762  -0.090   0.043  0.4558  0.8937  0.7214
  903MOL0     C19124   9.912  -0.145   0.064  0.1242  0.3587  0.5834
  903MOL0     C19125  10.031  -0.051   0.053  0.5893  0.2788 -0.9244
  903MOL0     C19126  10.143  -0.089   0.150 -0.3988 -0.4364 -0.3404
  903MOL0     C19127  10.112  -0.062   0.294 -0.8043  0.5294 -0.2557
  903MOL0     C19128  10.085  -0.038   0.416  0.3349  0.1157  0.0726
  903MOL0     C19129   9.495  -0.060   0.193 -0.4926 -0.1905 -0.6053
  903MOL0     C19130   9.359  -0.026   0.194 -0.7314 -0.2709  0.5072
  903MOL0     H19131   8.976   0.206   0.343  0.6129 -1.4530  0.4560
  903MOL0     H19132   8.739   0.258   0.352 -2.7210  1.4217 -1.8114
  903MOL0     H19133   8.522   0.325   0.251  2.9011  1.4233  1.8934
  903MOL0     H19134   8.537   0.213   0.381  4.2554 -2.4603 -2.5027
  903MOL0     H19135   8.315   0.298   0.356  0.2240 -0.5714  0.0745
  903MOL0     H19136   8.325   0.120   0.349 -0.0537 -1.0713 -1.8009
  903MOL0     H19137   8.276   0.117   0.113 -0.3962  0.9483 -0.3573
  903MOL0     H19138   8.313   0.288   0.104 -0.2120 -0.7879 -0.2361
  903MOL0     H19139   8.110   0.172   0.292  0.3907 -0.4668  0.3121
  903MOL0     H19140   8.105   0.344   0.243  0.0393 -0.0942 -2.2589
  903MOL0     H19141   7.929   0.196   0.116  0.7111 -0.3079  1.7560
  903MOL0     H19142   8.068   0.106   0.056 -1.9381  0.3148  0.1705
  903MOL0     H19143   7.960   0.281  -0.096 -0.8182 -1.3156  1.4922
  903MOL0     H19144   8.133   0.292  -0.078 -0.3068 -1.0116 -1.2320
  903MOL0     H19145   8.105   0.481   0.100 -1.0704  0.3356  2.8477
  903MOL0     H19146   8.055   0.520  -0.063 -0.7486  0.1044 -0.2403
  903MOL0     H19147   7.906   0.598   0.099  3.4256  0.6476 -1.8842
  903MOL0     H19148   7.865   0.439   0.176 -1.9598 -1.0409 -1.2504
  903MOL0     H19149   7.662   0.314   0.106  1.4203  1.1406  1.2132
  903MOL0     H19150   7.505   0.190  -0.086  1.4672  0.5815  2.4266
  903MOL0     H19151   7.477   0.297  -0.234 -0.6277  3.2816 -0.4545
  903MOL0     H19152   7.399   0.458  -0.047 -1.6545  1.0993 -2.2385
  903MOL0     H19153   7.363   0.305   0.045 -0.8350 -1.2861 -1.6429
  903MOL0     H19154   7.249   0.354  -0.225 -0.5955  1.4927  0.6681
  903MOL0     H19155   7.198   0.232  -0.104 -0.4525 -0.7410 -2.5561
  903MOL0     H19156   7.173   0.535  -0.072  2.6253 -0.8295  0.6832
  903MOL0     H19157   7.095   0.410   0.028  1.9855  2.8513  1.6690
  903MOL0     H19158   6.963   0.648  -0.100 -0.2479  0.3152 -4.2928
  903MOL0     H19159   6.755   0.747  -0.078 -0.5479  0.6696 -1.1692
  903MOL0     H19160   6.291   0.701  -0.325 -1.6481 -0.2694 -0.6432
  903MOL0     H19161   6.083   0.856  -0.325 -0.5386  0.4299  0.3533
  903MOL0     H19162   5.989   1.036  -0.264  0.0706 -1.7488 -0.9540
  903MOL0     H19163   5.886   1.104  -0.140  1.5525 -0.4682  1.3620
  903MOL0     H19164   5.802   0.854  -0.301  3.1696  0.0213  1.3118
  903MOL0     H19165   5.790   0.999  -0.383  1.0284  0.0889 -0.1034
  903MOL0     H19166   5.611   1.065  -0.206 -3.2287 -1.0602  1.0497
  903MOL0     H19167   5.664   0.928  -0.108  0.8672  0.1802 -0.1776
  903MOL0     H19168   5.564   0.876  -0.392 -0.3012  0.0018  0.2004
  903MOL0     H19169   5.586   0.757  -0.260  0.8452  0.8922  1.1871
  903MOL0     H19170   5.409   1.007  -0.239  0.8203 -0.2430 -2.4205
  903MOL0     H19171   5.416   0.866  -0.127 -2.2876  1.6325  0.6133
  903MOL0     H19172   5.333   0.724  -0.341  0.7574  0.3957 -0.0778
  903MOL0     H19173   5.288   0.882  -0.402 -1.4116  4.5015  2.9996
  903MOL0     H19174   5.159   0.939  -0.206  5.8822 -0.3260  1.5633
  903MOL0     H19175   5.074   0.812  -0.290 -0.7788  4.3388 -0.5997
  903MOL0     H19176   5.062   0.743  -0.064  0.6790 -1.4629  0.2340
  903MOL0     H19177   5.226   0.780  -0.025 -0.2562  0.1801  0.3541
  903MOL0     H19178   6.049   0.782   0.092  2.3650  3.6035  0.8881
  903MOL0     H19179   6.247   0.620   0.087  0.8129  1.2074 -0.1440
  903MOL0     H19180   6.563   0.375  -0.195 -0.7134  1.5552  2.2910
  903MOL0     H19181   6.795   0.277  -0.216 -0.8465  0.2364 -0.4852
  903MOL0     H19182   8.692  -0.019   0.021 -0.5232  1.7764 -0.1342
  903MOL0     H19183   8.910  -0.056   0.012 -2.5686 -1.4518 -0.0197
  903MOL0     H19184   9.430   0.306   0.108  2.2009  0.0945 -1.1627
  903MOL0     H19185   9.639   0.227   0.110  0.2815 -0.8734 -1.3628
  903MOL0     H19186   9.744  -0.033  -0.048 -1.1498  2.1753  1.7688
  903MOL0     H19187   9.699  -0.179   0.047 -0.0701  1.2435  0.3309
  903MOL0     H19188   9.903  -0.203   0.156  0.6316 -1.7195 -0.5870
  903MOL0     H19189   9.929  -0.226  -0.008  0.0281 -0.1222  1.0953
  903MOL0     H19190  10.001   0.045   0.095 -0.7545 -0.5084  0.0248
  903MOL0     H19191  10.062  -0.032  -0.049  1.7869  1.2124 -0.4078
  903MOL0     H19192  10.167  -0.193   0.129 -0.2083 -0.5918  0.5867
  903MOL0     H19193  10.232  -0.032   0.124  0.3826 -0.4434  2.0557
  903MOL0     H19194  10.065  -0.013   0.518 -3.0574  0.6382 -0.6227
  903MOL0     H19195   9.530  -0.161   0.213 -1.2851 -0.1834  1.0125
  903MOL0     H19196   9.285  -0.104   0.205 -0.4074 -1.3576 -3.5358
  904MOL0     O19197  10.299   6.952   5.181  0.6765  0.6326 -0.0779
  904MOL0     C19198  10.234   7.038   5.122  0.5704  0.3436  0.5058
  904MOL0     O19199  10.099   7.054   5.113 -0.7704  1.2274  0.2814
  904MOL0     C19200  10.014   7.027   5.214 -0.5210 -0.4926 -0.1243
  904MOL0     C19201  10.022   6.917   5.299  0.1771 -0.3613 -0.7737
  904MOL0     C19202   9.920   6.882   5.387 -0.8670 -0.0794 -0.4930
  904MOL0     C19203   9.811   6.973   5.399  0.1647  0.6971 -0.4635
  904MOL0     O19204   9.691   6.950   5.468 -0.0351 -0.2339 -0.1619
  904MOL0     C19205   9.684   6.847   5.569 -0.0376 -0.6467 -0.1721
  904MOL0     C19206   9.541   6.824   5.588  0.6004 -0.3552 -1.1422
  904MOL0     C19207   9.485   6.708   5.503 -0.4364 -0.1454  0.3254
  904MOL0     C19208   9.333   6.709   5.509  0.3394 -0.2009  0.5377
  904MOL0     C19209   9.277   6.580   5.451 -0.4033  0.7406 -0.3808
  904MOL0     C19210   9.127   6.559   5.472  0.9492  0.3674  0.3373
  904MOL0     C19211   9.071   6.432   5.408  0.6047 -0.7681  0.8564
  904MOL0     C19212   9.118   6.307   5.480  1.1736 -0.2621  0.6060
  904MOL0     N19213   9.114   6.301   5.631  0.2017  0.1912 -0.2243
  904MOL0     C19214   8.995   6.305   5.700  0.7664  0.6505 -0.3931
  904MOL0     C19215   9.024   6.324   5.826  0.4437 -0.5115  1.0764
  904MOL0     C19216   8.928   6.328   5.936 -0.7022 -0.0724 -0.2578
  904MOL0     C19217   8.784   6.398   5.912  0.0129  0.2042  0.0958
  904MOL0     C19218   8.718   6.425   6.056 -0.2365 -0.4145  0.2566
  904MOL0     C19219   8.703   6.302   6.149  0.4753 -0.2137  0.3797
  904MOL0     O19220   8.668   6.191   6.073  0.4460  0.7159  0.4929
  904MOL0     C19221   8.538   6.165   6.055  0.3869 -0.0076 -0.4264
  904MOL0     C19222   8.500   6.086   5.937 -0.8351 -0.8142  0.0211
  904MOL0     C19223   8.364   6.059   5.899 -0.2141  1.5242 -0.1770
  904MOL0     C19224   8.269   6.101   5.987  0.1290  0.2079 -0.0476
  904MOL0     C19225   8.127   6.056   5.968 -0.4928  0.7934 -0.7308
  904MOL0     O19226   8.096   6.003   5.854  0.5631  1.1948  0.2306
  904MOL0     C19227   7.959   5.985   5.834  0.5089 -0.8312  0.3172
  904MOL0     C19228   7.868   6.090   5.809 -0.6373  0.0394 -0.1208
  904MOL0     C19229   7.731   6.060   5.785  0.6208 -0.9971  0.4007
  904MOL0     C19230   7.668   5.933   5.798 -0.3893  0.6809  0.3867
  904MOL0     O19231   7.531   5.918   5.808 -0.3077  0.0951 -0.2612
  904MOL0     C19232   7.476   5.794   5.750 -0.0469 -0.5712 -0.8843
  904MOL0     C19233   7.323   5.825   5.718  0.0447 -0.1858  0.1599
  904MOL0     C19234   7.307   5.857   5.569  0.4732  0.4441 -0.4886
  904MOL0     C19235   7.167   5.872   5.531  0.3556 -0.3952  0.2621
  904MOL0     C19236   7.132   5.878   5.378 -1.3482 -0.4523 -0.1575
  904MOL0     C19237   7.222   5.975   5.293  0.6549  0.3200 -0.4790
  904MOL0     C19238   7.165   6.001   5.154 -0.1207 -0.1316 -0.4980
  904MOL0     C19239   7.261   6.068   5.057  0.4193 -0.4097  0.2937
  904MOL0    Cl19240   7.278   6.245   5.089 -0.0679  0.2104 -0.2112
  904MOL0     C19241   7.759   5.833   5.825 -1.5272  0.3159 -0.6918
  904MOL0     C19242   7.898   5.860   5.847  0.2280  0.1769  0.2167
  904MOL0     O19243   8.041   6.064   6.060  0.2418  0.1118 -0.4568
  904MOL0     C19244   8.303   6.170   6.107 -0.2399 -0.4178  0.0957
  904MOL0     C19245   8.436   6.200   6.139 -0.0207 -0.2072  0.9388
  904MOL0     N19246   9.162   6.347   5.833  0.3128 -0.5809 -0.5919
  904MOL0     N19247   9.217   6.325   5.716 -0.6369  0.1694 -0.2027
  904MOL0     C19248   9.807   7.081   5.315  0.4006 -0.0279 -0.1977
  904MOL0     C19249   9.902   7.108   5.216 -0.0790  0.2045 -0.0833
  904MOL0     C19250  10.302   7.119   5.023 -0.7014  0.9818  0.0065
  904MOL0     C19251  10.242   7.183   4.915  0.0545  0.5066 -0.7457
  904MOL0     C19252  10.323   7.255   4.821  0.4413 -0.0672 -0.1457
  904MOL0     C19253  10.466   7.259   4.826  0.7325  0.0454 -0.1767
  904MOL0     O19254  10.547   7.337   4.737 -0.4982 -0.4258 -0.1321
  904MOL0     C19255  10.496   7.453   4.677  0.1946  0.8796  0.1390
  904MOL0     C19256  10.608   7.544   4.643  0.3864 -0.8002  0.0601
  904MOL0     C19257  10.662   7.594   4.786 -0.0247 -0.0497  0.1289
  904MOL0     C19258  10.754   7.710   4.790 -0.1100  0.7353  0.0459
  904MOL0     C19259  10.879   7.689   4.713  1.0835  0.3855 -0.8489
  904MOL0     C19260  10.984   7.651   4.665  0.4911  1.1830  0.7227
  904MOL0     C19261  10.524   7.179   4.927  0.5727  0.8368 -0.0069
  904MOL0     C19262  10.443   7.125   5.032  0.3365 -0.1210  0.7095
  904MOL0     H19263  10.098   6.841   5.290  0.8539  0.0159  1.1555
  904MOL0     H19264   9.924   6.786   5.436  0.9589 -0.3006 -0.9914
  904MOL0     H19265   9.723   6.870   5.668 -2.2817 -0.4777  0.7319
  904MOL0     H19266   9.737   6.756   5.541  1.3908 -1.0495  3.3771
  904MOL0     H19267   9.482   6.911   5.559  1.0515  0.6155  0.7286
  904MOL0     H19268   9.534   6.799   5.695 -0.1906 -2.7078 -1.6657
  904MOL0     H19269   9.516   6.613   5.547 -1.8862  0.1713  2.1302
  904MOL0     H19270   9.511   6.726   5.398 -0.5088 -0.6338  0.2202
  904MOL0     H19271   9.305   6.708   5.615 -0.8492 -0.2941  0.2403
  904MOL0     H19272   9.288   6.785   5.444 -0.1694 -0.4503  0.5938
  904MOL0     H19273   9.327   6.504   5.510  0.2572  0.9196 -0.7028
  904MOL0     H19274   9.294   6.572   5.343 -1.6631 -0.3645 -0.5257
  904MOL0     H19275   9.080   6.646   5.425 -1.2069 -0.1091  1.4883
  904MOL0     H19276   9.103   6.559   5.578  0.1891  0.6085  0.1713
  904MOL0     H19277   8.964   6.454   5.417  0.7475  1.0583 -1.2496
  904MOL0     H19278   9.083   6.441   5.300  0.2117  0.9925  0.9318
  904MOL0     H19279   9.218   6.283   5.443  1.5636 -0.8557  1.9629
  904MOL0     H19280   9.048   6.235   5.440 -0.2907  1.3364  0.1704
  904MOL0     H19281   8.893   6.276   5.677  0.0732  1.8956  0.9564
  904MOL0     H19282   8.974   6.385   6.017  0.2895 -1.6322  0.3287
  904MOL0     H19283   8.913   6.229   5.981  0.9172  0.3432  1.3032
  904MOL0     H19284   8.715   6.331   5.860 -0.4562  0.1008  0.8253
  904MOL0     H19285   8.784   6.491   5.856 -0.3607  0.5719  0.6992
  904MOL0     H19286   8.769   6.508   6.104 -1.2512  0.7466 -0.6039
  904MOL0     H19287   8.616   6.460   6.036 -1.6479 -4.3133 -0.4903
  904MOL0     H19288   8.635   6.343   6.225  0.5929 -0.7555  0.7851
  904MOL0     H19289   8.796   6.281   6.204  1.9333  0.8827 -1.5542
  904MOL0     H19290   8.578   6.065   5.865 -0.8024 -1.5067  0.2534
  904MOL0     H19291   8.338   6.005   5.809  1.7405  2.3047 -1.2524
  904MOL0     H19292   7.899   6.193   5.796 -0.8429 -0.0362 -1.3523
  904MOL0     H19293   7.672   6.151   5.778  0.4591 -0.7184  3.7921
  904MOL0     H19294   7.466   5.706   5.815 -2.8249  0.0209 -0.3842
  904MOL0     H19295   7.534   5.763   5.663  2.4782  0.3376  0.3932
  904MOL0     H19296   7.282   5.903   5.783 -1.4833  1.6212 -2.7490
  904MOL0     H19297   7.256   5.739   5.728 -3.5543  1.8878 -3.1093
  904MOL0     H19298   7.348   5.776   5.508  2.6668  0.1585  1.2439
  904MOL0     H19299   7.359   5.953   5.562  2.9673 -0.6432  1.4712
  904MOL0     H19300   7.107   5.786   5.564 -0.1514  0.0370  0.4782
  904MOL0     H19301   7.121   5.958   5.579  3.5475  1.0085  1.0774
  904MOL0     H19302   7.026   5.893   5.355 -1.2103 -2.0468 -2.1299
  904MOL0     H19303   7.148   5.776   5.340  3.5882  0.2814 -0.6718
  904MOL0     H19304   7.325   5.939   5.292  0.4617 -0.3051  0.7174
  904MOL0     H19305   7.218   6.075   5.336  0.4932  0.7383 -1.4394
  904MOL0     H19306   7.145   5.900   5.117  2.5860 -2.2074  3.0817
  904MOL0     H19307   7.067   6.048   5.166 -1.6976 -2.5697 -2.9342
  904MOL0     H19308   7.217   6.055   4.958 -1.3389  1.5313  0.7578
  904MOL0     H19309   7.352   6.008   5.066  1.2788  0.9626  1.1535
  904MOL0     H19310   7.721   5.735   5.852  3.7238 -1.4673  1.5610
  904MOL0     H19311   7.970   5.780   5.861 -0.7349 -1.1734 -1.9912
  904MOL0     H19312   8.232   6.189   6.186  2.6748  0.2109  2.7707
  904MOL0     H19313   8.456   6.252   6.233  0.6293  0.6228  0.3598
  904MOL0     H19314   9.717   7.140   5.327  0.9289  0.9255 -0.7978
  904MOL0     H19315   9.872   7.191   5.154 -3.4497  0.8136  2.0577
  904MOL0     H19316  10.134   7.187   4.906 -0.1366  1.1226  1.2076
  904MOL0     H19317  10.265   7.311   4.748 -0.4179 -0.6303  0.0932
  904MOL0     H19318  10.416   7.496   4.738  0.3081 -0.4917  1.3110
  904MOL0     H19319  10.441   7.433   4.585  0.2268 -2.7891  0.7938
  904MOL0     H19320  10.683   7.498   4.578  2.9241  2.6114  0.2804
  904MOL0     H19321  10.573   7.634   4.592 -2.0488 -1.3059  0.7168
  904MOL0     H19322  10.714   7.509   4.831  2.6750  0.6497 -1.4667
  904MOL0     H19323  10.571   7.615   4.843 -0.6542 -2.5740  0.1578
  904MOL0     H19324  10.705   7.795   4.741 -0.0909  1.6736  1.5798
  904MOL0     H19325  10.785   7.732   4.893  0.0830  0.4536  0.0484
  904MOL0     H19326  11.076   7.610   4.628  1.9647  0.9199  4.2467
  904MOL0     H19327  10.630   7.156   4.932  0.3768 -0.0091  0.3945
  904MOL0     H19328  10.488   7.065   5.110  1.6385 -1.8937 -1.2987
  905MOL0     O19329  10.323  10.418   7.874 -0.0562  0.0265 -0.4310
  905MOL0     C19330  10.406  10.472   7.800 -0.6442  0.0568  0.7124
  905MOL0     O19331  10.381  10.563   7.709  0.0289 -0.0328  0.1300
  905MOL0     C19332  10.253  10.599   7.684  0.2445  0.0173  0.7351
  905MOL0     C19333  10.152  10.523   7.652  0.3507 -0.4916 -0.3425
  905MOL0     C19334  10.031  10.577   7.597 -0.5787 -0.0791  0.2110
  905MOL0     C19335  10.014  10.718   7.580 -0.3384 -0.1185  0.3266
  905MOL0     O19336   9.901  10.780   7.531 -0.9104  0.3887 -0.4360
  905MOL0     C19337   9.775  10.707   7.551  0.0908 -0.1619 -0.5513
  905MOL0     C19338   9.664  10.803   7.501 -1.1589  1.0883 -0.3588
  905MOL0     C19339   9.526  10.752   7.502 -0.0067 -0.3278 -0.3189
  905MOL0     C19340   9.499  10.621   7.416 -0.6295  0.1614 -0.0183
  905MOL0     C19341   9.358  10.593   7.392  0.0809  0.0932 -0.7541
  905MOL0     C19342   9.287  10.595   7.529 -0.4656 -0.5292  0.4421
  905MOL0     C19343   9.152  10.531   7.516 -0.7736  0.2379 -0.2645
  905MOL0     C19344   9.033  10.630   7.512 -1.0039  0.2689 -0.0282
  905MOL0     N19345   8.902  10.563   7.506  0.1236  0.2435 -0.1592
  905MOL0     C19346   8.791  10.612   7.574 -0.5696 -0.3546  0.0385
  905MOL0     C19347   8.680  10.551   7.510  0.8570 -0.4631 -0.0685
  905MOL0     C19348   8.527  10.556   7.529 -0.7676  0.3517  0.4454
  905MOL0     C19349   8.478  10.550   7.673  0.1136  0.1495  0.0671
  905MOL0     C19350   8.478  10.688   7.744 -1.2065  0.5279 -0.0118
  905MOL0     C19351   8.357  10.771   7.699 -0.4632  0.2540  0.6806
  905MOL0     O19352   8.229  10.714   7.743 -0.1575  0.2582 -0.2384
  905MOL0     C19353   8.111  10.780   7.743  0.4957 -0.8316 -0.1100
  905MOL0     C19354   8.090  10.911   7.692 -0.4018  0.9694  0.2873
  905MOL0     C19355   7.962  10.968   7.694  0.7714 -0.1120  0.3788
  905MOL0     C19356   7.851  10.898   7.737 -1.1773 -0.6039  1.2160
  905MOL0     C19357   7.720  10.968   7.752  0.3641  0.2586 -0.3784
  905MOL0     O19358   7.622  10.898   7.814 -0.0739  0.0518  0.0175
  905MOL0     C19359   7.489  10.925   7.797  0.7744  0.2042 -0.4295
  905MOL0     C19360   7.413  10.829   7.868 -0.2929 -1.1534  1.3095
  905MOL0     C19361   7.276  10.835   7.866  1.1040  0.6890  0.2712
  905MOL0     C19362   7.207  10.923   7.777 -0.4492  1.0410  0.8053
  905MOL0     O19363   7.075  10.917   7.763 -0.1842 -0.0171  0.8040
  905MOL0     C19364   6.995  10.833   7.858  1.0385  0.0022  0.0807
  905MOL0     C19365   6.849  10.845   7.838  0.3631 -0.7920  0.1640
  905MOL0     C19366   6.804  10.982   7.883 -0.1240  0.0209 -0.2227
  905MOL0     C19367   6.657  10.989   7.860  1.3613  0.3147 -0.6158
  905MOL0     C19368   6.609  11.119   7.904 -0.2483  0.5375 -0.1427
  905MOL0     C19369   6.461  11.141   7.865  0.3111 -1.1553  0.3077
  905MOL0     C19370   6.354  11.043   7.912 -0.1076  0.1057 -0.4886
  905MOL0     C19371   6.213  11.109   7.906 -0.4456 -0.2466  0.0608
  905MOL0    Cl19372   6.094  10.985   7.960  0.2352  0.2435  0.2420
  905MOL0     C19373   7.286  11.021   7.715 -0.6007  0.2307 -0.2426
  905MOL0     C19374   7.425  11.022   7.728 -0.0063  0.1613  1.4229
  905MOL0     O19375   7.717  11.081   7.715  0.3901 -0.2536  0.3609
  905MOL0     C19376   7.868  10.764   7.791  0.0599  0.5856  0.6214
  905MOL0     C19377   7.999  10.703   7.781  0.9654 -0.7562 -0.2320
  905MOL0     N19378   8.735  10.471   7.413  0.8171  0.4677 -0.5239
  905MOL0     N19379   8.865  10.482   7.402 -0.4269 -0.2667 -0.4840
  905MOL0     C19380  10.125  10.802   7.613  0.5363 -0.1953  0.3027
  905MOL0     C19381  10.239  10.740   7.672 -0.6090 -0.4669 -0.4103
  905MOL0     C19382  10.551  10.434   7.820 -0.5838  0.0052  1.3470
  905MOL0     C19383  10.645  10.463   7.716  0.3829  0.4302 -0.6100
  905MOL0     C19384  10.776  10.418   7.724 -0.4359  0.1615  0.4410
  905MOL0     C19385  10.823  10.335   7.832  0.3956 -0.0029 -0.0124
  905MOL0     O19386  10.954  10.297   7.846 -0.0495 -0.4053  0.0577
  905MOL0     C19387  11.060  10.346   7.752 -0.0705 -0.7996  0.1352
  905MOL0     C19388  11.193  10.281   7.770  0.2818  0.0881 -0.5330
  905MOL0     C19389  11.245  10.256   7.915  0.1330  0.3263 -0.1897
  905MOL0     C19390  11.307  10.368   7.977  0.1212 -1.1051  0.3933
  905MOL0     C19391  11.253  10.504   7.983  0.2228  0.1504  0.2229
  905MOL0     C19392  11.225  10.615   7.974  0.2493 -0.1817 -0.9450
  905MOL0     C19393  10.726  10.316   7.935  0.0074  1.0762 -0.6851
  905MOL0     C19394  10.591  10.361   7.927 -0.1458 -0.4209  0.5010
  905MOL0     H19395  10.144  10.415   7.642  0.3200 -0.3975 -1.4692
  905MOL0     H19396   9.953  10.506   7.574  0.0757 -0.0845 -2.2649
  905MOL0     H19397   9.758  10.675   7.654  1.2687 -4.6604 -1.5105
  905MOL0     H19398   9.775  10.613   7.494 -0.7786 -0.5649  0.0905
  905MOL0     H19399   9.700  10.830   7.402  2.3024 -0.8896  0.2191
  905MOL0     H19400   9.675  10.890   7.566 -0.9265 -0.1012  1.2479
  905MOL0     H19401   9.465  10.833   7.462  0.9343 -0.6091 -2.4914
  905MOL0     H19402   9.497  10.732   7.606  0.2607  1.5015  0.1398
  905MOL0     H19403   9.542  10.628   7.316 -0.4014 -2.9241 -0.2414
  905MOL0     H19404   9.550  10.540   7.470 -1.8739 -1.5353 -1.2973
  905MOL0     H19405   9.356  10.490   7.356  2.2132 -0.5145  0.7149
  905MOL0     H19406   9.321  10.674   7.328  0.3328  0.3561 -0.5672
  905MOL0     H19407   9.266  10.698   7.560  0.2062  0.3442 -1.8283
  905MOL0     H19408   9.352  10.546   7.603  1.9634  1.6377 -0.1195
  905MOL0     H19409   9.151  10.458   7.435 -0.4816 -0.6378  0.5097
  905MOL0     H19410   9.138  10.471   7.606 -2.8016 -1.8832 -1.8671
  905MOL0     H19411   9.042  10.682   7.416  0.2282 -0.0416 -0.0978
  905MOL0     H19412   9.041  10.713   7.583  1.4081 -0.5121  0.7059
  905MOL0     H19413   8.790  10.688   7.651  1.6414 -1.7174  1.5319
  905MOL0     H19414   8.487  10.474   7.471  2.0201 -0.2058 -0.8561
  905MOL0     H19415   8.500  10.646   7.473  1.3185 -1.1027 -3.2538
  905MOL0     H19416   8.540  10.477   7.725 -1.3281 -1.3739 -0.2796
  905MOL0     H19417   8.374  10.517   7.674 -0.0762  0.5327 -2.0000
  905MOL0     H19418   8.486  10.678   7.852  0.9245  3.0093  0.1556
  905MOL0     H19419   8.569  10.744   7.719 -0.1722 -1.5243 -1.0825
  905MOL0     H19420   8.363  10.764   7.590  3.0643  1.3038  0.6854
  905MOL0     H19421   8.352  10.873   7.738  0.4865  0.7659 -0.4886
  905MOL0     H19422   8.182  10.958   7.661  1.8169 -2.4079  1.2068
  905MOL0     H19423   7.956  11.076   7.683  1.5583 -0.0629  0.4077
  905MOL0     H19424   7.465  10.751   7.923  1.8273 -1.2106 -0.5923
  905MOL0     H19425   7.221  10.750   7.906 -1.0931  0.5478 -2.7318
  905MOL0     H19426   7.025  10.865   7.958  1.4654  0.8934 -0.3221
  905MOL0     H19427   7.027  10.730   7.843  3.6998 -0.1066  4.6797
  905MOL0     H19428   6.792  10.775   7.901 -2.0356 -0.8914 -1.9549
  905MOL0     H19429   6.822  10.816   7.736  2.0592 -0.6635 -0.3505
  905MOL0     H19430   6.869  11.060   7.843  0.2097  0.6378  1.4397
  905MOL0     H19431   6.821  10.993   7.990 -0.5360  0.9166 -0.2449
  905MOL0     H19432   6.646  10.983   7.752  0.3367  2.6182 -0.7095
  905MOL0     H19433   6.598  10.913   7.912 -0.6425  1.2444 -1.4204
  905MOL0     H19434   6.680  11.189   7.859  0.0938  1.3238  1.5222
  905MOL0     H19435   6.618  11.126   8.013  4.0215  0.2727 -0.3172
  905MOL0     H19436   6.446  11.149   7.757 -0.4060  0.8461  0.5099
  905MOL0     H19437   6.435  11.241   7.902  2.5300  0.0961 -1.2473
  905MOL0     H19438   6.363  10.954   7.849  1.8626  0.3131 -0.5559
  905MOL0     H19439   6.382  11.010   8.013  0.4866  0.8560 -0.3987
  905MOL0     H19440   6.183  11.123   7.802  0.9665 -0.9087 -0.4523
  905MOL0     H19441   6.196  11.201   7.963 -2.3708 -0.5624  0.0936
  905MOL0     H19442   7.235  11.084   7.643 -0.0553  0.5135 -0.3921
  905MOL0     H19443   7.474  11.089   7.657 -0.3488 -0.2323  0.8128
  905MOL0     H19444   7.787  10.704   7.831 -3.1344  3.5608 -0.8445
  905MOL0     H19445   8.014  10.605   7.825  1.8469  0.0052  1.2312
  905MOL0     H19446  10.118  10.909   7.600 -1.6326  0.0931  3.0229
  905MOL0     H19447  10.331  10.793   7.694 -1.4992 -0.1291  2.9346
  905MOL0     H19448  10.618  10.521   7.628 -1.4879  0.3002 -0.1497
  905MOL0     H19449  10.854  10.439   7.651 -0.9701  0.0652 -0.1623
  905MOL0     H19450  11.086  10.452   7.753  1.3118 -1.0844 -1.6364
  905MOL0     H19451  11.026  10.330   7.649 -0.2127 -3.0309  0.4868
  905MOL0     H19452  11.194  10.181   7.725 -0.0610  0.4154 -1.2765
  905MOL0     H19453  11.263  10.346   7.717 -0.5930  2.1724  0.7386
  905MOL0     H19454  11.316  10.174   7.900  1.2105  0.9912  0.9983
  905MOL0     H19455  11.164  10.218   7.977  0.1185  0.8676  0.1311
  905MOL0     H19456  11.309  10.340   8.083 -3.3082 -0.3749  0.7946
  905MOL0     H19457  11.409  10.385   7.943 -0.0184  1.0709  0.8892
  905MOL0     H19458  11.210  10.721   7.967  2.5452  0.2537 -0.0684
  905MOL0     H19459  10.750  10.260   8.025 -0.8212 -3.1591 -2.8459
  905MOL0     H19460  10.527  10.346   8.014  1.6162 -2.1464  1.6038
  906MOL0     O19461   5.352   9.055   2.357  0.0134 -0.8915  0.0758
  906MOL0     C19462   5.413   9.029   2.459  0.5933  0.0895 -0.5408
  906MOL0     O19463   5.540   8.983   2.468 -0.8614 -0.4797  0.4246
  906MOL0     C19464   5.623   8.999   2.357  0.5621  0.2176  0.4479
  906MOL0     C19465   5.709   8.896   2.317 -0.5321 -0.3500 -0.6526
  906MOL0     C19466   5.808   8.910   2.218 -1.0714 -0.0541  0.1107
  906MOL0     C19467   5.817   9.032   2.143  0.4652 -0.2148 -0.6475
  906MOL0     O19468   5.907   9.062   2.049  0.4283 -0.1889 -0.3087
  906MOL0     C19469   6.049   9.046   2.075 -0.1769  0.4929  0.4886
  906MOL0     C19470   6.091   8.922   1.995  0.1557  0.4714  0.1398
  906MOL0     C19471   6.230   8.954   1.937  0.4694  0.9790  0.6761
  906MOL0     C19472   6.273   8.849   1.836  0.6504  0.2620  0.3142
  906MOL0     C19473   6.410   8.897   1.786  0.7597  0.3847  0.1270
  906MOL0     C19474   6.461   8.796   1.678 -0.4803 -0.6367 -0.1028
  906MOL0     C19475   6.591   8.858   1.622  0.3447  0.6129 -0.2310
  906MOL0     C19476   6.664   8.775   1.515 -0.4065  0.2136 -0.7135
  906MOL0     N19477   6.620   8.785   1.373 -0.4409  0.5586  0.2192
  906MOL0     C19478   6.701   8.819   1.268  0.2455 -0.2846 -0.0245
  906MOL0     C19479   6.621   8.830   1.166 -0.8848 -0.0842 -1.2249
  906MOL0     C19480   6.662   8.857   1.030  0.4058 -0.8506  0.1297
  906MOL0     C19481   6.550   8.820   0.927  0.2312  0.1433 -0.1541
  906MOL0     C19482   6.602   8.866   0.789  0.3425 -0.2009 -0.2141
  906MOL0     C19483   6.499   8.842   0.683  0.1862  0.4646 -0.0591
  906MOL0     O19484   6.386   8.919   0.714  0.6226  0.5925 -0.2582
  906MOL0     C19485   6.283   8.911   0.620  0.4377  0.1370 -0.2692
  906MOL0     C19486   6.201   9.027   0.614  0.5583 -0.2068 -0.0248
  906MOL0     C19487   6.098   9.040   0.520  0.7039  1.1616 -0.3842
  906MOL0     C19488   6.071   8.934   0.429  0.7268  0.3679 -0.7250
  906MOL0     C19489   5.957   8.951   0.334  0.4212 -0.0275  0.1810
  906MOL0     O19490   5.919   8.847   0.250 -0.1096  0.2221 -0.3981
  906MOL0     C19491   5.811   8.850   0.168 -0.3798 -0.1494  0.3479
  906MOL0     C19492   5.719   8.741   0.162  0.2216  0.5536 -0.0916
  906MOL0     C19493   5.605   8.737   0.072 -0.0471 -0.4618 -1.5431
  906MOL0     C19494   5.563   8.848  -0.000 -0.0297  0.6351 -0.3684
  906MOL0     O19495   5.440   8.841  -0.063 -0.5675  0.3787 -0.5784
  906MOL0     C19496   5.372   8.962  -0.100 -0.5338  0.5990 -0.4660
  906MOL0     C19497   5.250   8.909  -0.179 -0.3094 -0.9308  0.3097
  906MOL0     C19498   5.225   8.980  -0.320  0.4510  0.4495 -0.5157
  906MOL0     C19499   5.079   8.953  -0.358  0.6297  0.3029  0.3306
  906MOL0     C19500   4.992   9.054  -0.283  0.6306 -0.0633  0.4076
  906MOL0     C19501   4.838   9.038  -0.336 -0.0623  0.5082 -0.0389
  906MOL0     C19502   4.736   9.075  -0.234  0.7063 -0.7467 -0.4936
  906MOL0     C19503   4.603   9.065  -0.303  0.4385  0.1289 -0.2033
  906MOL0    Cl19504   4.533   8.902  -0.286  0.3177  0.1915 -0.2714
  906MOL0     C19505   5.652   8.953  -0.003 -0.0275 -0.3146 -0.4006
  906MOL0     C19506   5.781   8.955   0.069  0.7609  0.4161 -0.4030
  906MOL0     O19507   5.892   9.062   0.342 -0.0343  0.5908 -0.7822
  906MOL0     C19508   6.153   8.821   0.435  0.5329 -0.6047  0.2399
  906MOL0     C19509   6.259   8.806   0.526  0.4055  0.7980  0.4979
  906MOL0     N19510   6.494   8.804   1.217  0.6643 -0.1303  0.8248
  906MOL0     N19511   6.489   8.785   1.340  1.0307  0.1741  0.3898
  906MOL0     C19512   5.728   9.136   2.187 -0.7738  1.0054 -0.1211
  906MOL0     C19513   5.639   9.120   2.291 -0.4099 -0.5585  0.1693
  906MOL0     C19514   5.347   9.047   2.592  0.5513  0.2765 -0.0995
  906MOL0     C19515   5.213   9.080   2.604  0.8818  0.2910  0.5707
  906MOL0     C19516   5.149   9.083   2.721 -0.2784  0.3124 -0.8186
  906MOL0     C19517   5.216   9.050   2.844  0.1585 -0.7558  0.4680
  906MOL0     O19518   5.140   9.040   2.953  0.4597 -0.6516  0.5065
  906MOL0     C19519   5.198   9.009   3.083 -0.2495  0.5733 -0.0167
  906MOL0     C19520   5.263   9.133   3.146 -0.0603 -0.1644 -1.0505
  906MOL0     C19521   5.400   9.110   3.224 -0.4001 -0.7712  0.7285
  906MOL0     C19522   5.464   9.227   3.296 -0.3575  0.1190 -0.4153
  906MOL0     C19523   5.491   9.329   3.201 -0.0776 -0.7511  0.3467
  906MOL0     C19524   5.502   9.413   3.116 -0.7849 -0.5451  0.3829
  906MOL0     C19525   5.353   9.020   2.837  0.0040 -0.1661  1.1260
  906MOL0     C19526   5.413   9.016   2.708 -0.4433 -0.0492 -0.9200
  906MOL0     H19527   5.687   8.801   2.364 -3.1640  0.6221  0.2388
  906MOL0     H19528   5.875   8.829   2.193  0.2906  0.5567  1.6024
  906MOL0     H19529   6.076   9.029   2.180 -0.4744 -0.4085  0.4262
  906MOL0     H19530   6.105   9.128   2.030 -0.0795 -1.0746 -2.4813
  906MOL0     H19531   6.019   8.901   1.916  0.2928 -0.4337  0.2461
  906MOL0     H19532   6.098   8.832   2.058  2.8956  2.5429  3.1638
  906MOL0     H19533   6.310   8.951   2.012  1.0791  1.4188  0.0555
  906MOL0     H19534   6.227   9.048   1.881 -0.7107  0.6695  0.1980
  906MOL0     H19535   6.284   8.756   1.892  1.1373 -1.9488 -3.1255
  906MOL0     H19536   6.202   8.837   1.753 -2.0429  4.0343  1.8006
  906MOL0     H19537   6.475   8.887   1.873 -1.3253  0.0116  1.7236
  906MOL0     H19538   6.400   8.998   1.745 -0.8067 -0.4901 -1.8639
  906MOL0     H19539   6.389   8.792   1.596 -0.6537 -2.0664  0.0896
  906MOL0     H19540   6.473   8.696   1.719 -0.6182 -0.3346  0.6956
  906MOL0     H19541   6.580   8.951   1.566  1.5892  1.9125  1.5502
  906MOL0     H19542   6.661   8.868   1.706 -0.4316  0.3009  0.4734
  906MOL0     H19543   6.650   8.669   1.539  0.1010  0.2528 -0.2278
  906MOL0     H19544   6.771   8.797   1.505 -0.3472 -0.5084 -1.8278
  906MOL0     H19545   6.808   8.830   1.271  0.0470  2.2182 -0.2326
  906MOL0     H19546   6.744   8.786   1.012 -1.4680 -3.2672  0.5929
  906MOL0     H19547   6.701   8.959   1.020  0.8397 -0.8650  1.5595
  906MOL0     H19548   6.455   8.865   0.958 -1.8387 -3.4223 -0.6851
  906MOL0     H19549   6.544   8.711   0.941  3.3169  0.2899  3.8966
  906MOL0     H19550   6.622   8.973   0.802 -1.5785  0.1153  0.5026
  906MOL0     H19551   6.694   8.818   0.755  0.0237 -0.4177 -0.7669
  906MOL0     H19552   6.474   8.736   0.692 -0.5009  0.8076  4.5672
  906MOL0     H19553   6.529   8.869   0.581 -0.9246 -2.3574 -1.2305
  906MOL0     H19554   6.214   9.107   0.687  1.0229 -1.2799  1.1115
  906MOL0     H19555   6.046   9.135   0.517  0.4738  1.1938  2.2052
  906MOL0     H19556   5.737   8.650   0.219 -2.0483  0.2477  0.2413
  906MOL0     H19557   5.524   8.665   0.067 -2.3262  1.9433 -1.6531
  906MOL0     H19558   5.439   9.015  -0.168  0.4964 -0.3352 -0.2134
  906MOL0     H19559   5.346   9.031  -0.019 -1.8022 -0.6226  0.2116
  906MOL0     H19560   5.165   8.942  -0.118  0.3604  2.1852 -0.3085
  906MOL0     H19561   5.246   8.800  -0.184 -2.2180 -0.8745 -0.2673
  906MOL0     H19562   5.303   8.942  -0.387  0.8375 -2.3578  1.3188
  906MOL0     H19563   5.237   9.088  -0.308 -0.9039  0.4545  1.0984
  906MOL0     H19564   5.057   8.939  -0.464  1.0387 -1.1301  0.4176
  906MOL0     H19565   5.044   8.856  -0.320 -2.6425  0.9120 -0.7988
  906MOL0     H19566   5.023   9.157  -0.299 -0.6616  0.2033 -0.6240
  906MOL0     H19567   4.990   9.053  -0.174  0.3522  1.2164  0.4230
  906MOL0     H19568   4.821   8.931  -0.351 -1.2686  0.5003  1.1863
  906MOL0     H19569   4.828   9.096  -0.428  2.4314  2.0071  0.5257
  906MOL0     H19570   4.737   9.036  -0.132 -1.0494  0.9715  0.2243
  906MOL0     H19571   4.760   9.180  -0.218  1.4515 -1.1008  0.8938
  906MOL0     H19572   4.608   9.097  -0.407  0.7437 -0.7184 -0.4563
  906MOL0     H19573   4.534   9.136  -0.256  1.0414  0.5218  0.1097
  906MOL0     H19574   5.623   9.041  -0.060 -1.2104 -0.3912  0.0640
  906MOL0     H19575   5.843   9.043   0.056  0.7735  0.6143  0.8522
  906MOL0     H19576   6.145   8.741   0.362 -0.0282 -1.5647  1.3076
  906MOL0     H19577   6.324   8.720   0.516 -0.6635  0.1764 -2.2562
  906MOL0     H19578   5.730   9.234   2.139  3.2226  1.8509  1.3613
  906MOL0     H19579   5.574   9.205   2.307 -0.0706 -0.2668  0.0166
  906MOL0     H19580   5.162   9.105   2.512  0.6510 -0.1014  0.5868
  906MOL0     H19581   5.044   9.110   2.716 -0.7271 -1.5095 -2.4562
  906MOL0     H19582   5.268   8.925   3.090 -0.3425  0.3967 -0.9888
  906MOL0     H19583   5.115   8.984   3.148  0.7434 -0.3952  0.9142
  906MOL0     H19584   5.270   9.209   3.069 -2.9564  1.0119 -0.2969
  906MOL0     H19585   5.190   9.166   3.220 -0.9263 -2.1875 -0.9227
  906MOL0     H19586   5.483   9.074   3.162 -0.9279 -0.9358  0.0947
  906MOL0     H19587   5.383   9.037   3.303  0.6304  2.1403  3.8418
  906MOL0     H19588   5.408   9.275   3.377  1.7931  0.1268  1.1785
  906MOL0     H19589   5.559   9.191   3.338 -0.2196 -0.0881 -0.9003
  906MOL0     H19590   5.527   9.486   3.042  0.4469 -0.9179  0.4052
  906MOL0     H19591   5.412   8.996   2.925  3.4130  0.2184 -0.8790
  906MOL0     H19592   5.515   8.980   2.698  0.2081  1.3431  0.3995
  907MOL0     O19593   4.565   4.194   1.643 -0.2376  0.2315  0.0874
  907MOL0     C19594   4.606   4.160   1.533 -0.7563  0.6067 -0.3993
  907MOL0     O19595   4.525   4.130   1.420 -0.4921 -0.2326 -0.4084
  907MOL0     C19596   4.403   4.081   1.460  1.0998 -0.1515  0.1823
  907MOL0     C19597   4.382   3.945   1.480 -0.1286  0.4942  0.4756
  907MOL0     C19598   4.262   3.900   1.533  0.0073  0.2917 -0.4318
  907MOL0     C19599   4.161   3.983   1.547 -0.7389  0.4380 -1.3406
  907MOL0     O19600   4.040   3.925   1.593 -0.0201  0.1018 -0.3706
  907MOL0     C19601   3.926   3.979   1.525  0.0094  0.5563  0.1474
  907MOL0     C19602   3.806   3.883   1.577  0.2106 -0.1703  0.8466
  907MOL0     C19603   3.800   3.757   1.492  0.4011 -0.0899  0.2620
  907MOL0     C19604   3.666   3.682   1.529  0.8885 -0.1477  0.8204
  907MOL0     C19605   3.613   3.584   1.420 -0.3651 -0.3095 -0.6666
  907MOL0     C19606   3.554   3.658   1.293 -0.0362  0.5797  0.5453
  907MOL0     C19607   3.409   3.641   1.290 -0.2360 -0.4337 -0.3754
  907MOL0     C19608   3.345   3.731   1.396  1.0012  0.5274 -0.7653
  907MOL0     N19609   3.194   3.709   1.380 -0.5140 -0.4706 -0.2406
  907MOL0     C19610   3.121   3.614   1.446 -0.2309 -0.0807 -0.2155
  907MOL0     C19611   2.994   3.631   1.397 -0.7468  0.1359  1.0514
  907MOL0     C19612   2.859   3.560   1.433  0.5661 -0.3682 -0.4906
  907MOL0     C19613   2.738   3.624   1.361  0.3403  0.5811 -0.7834
  907MOL0     C19614   2.620   3.530   1.383 -0.2088  0.7242  0.3649
  907MOL0     C19615   2.494   3.590   1.318  0.4767 -0.5115 -0.3686
  907MOL0     O19616   2.395   3.500   1.372 -0.2124 -0.2061 -0.7420
  907MOL0     C19617   2.261   3.537   1.370 -0.3901  0.6339  0.2686
  907MOL0     C19618   2.209   3.643   1.295 -0.6625 -0.5199  0.5460
  907MOL0     C19619   2.072   3.667   1.283 -0.3006 -0.3467  0.0619
  907MOL0     C19620   1.978   3.586   1.355 -0.2445  0.7360 -0.3280
  907MOL0     C19621   1.831   3.602   1.345  0.2729  0.0301 -0.2423
  907MOL0     O19622   1.782   3.721   1.290  0.4691  0.2234  0.3171
  907MOL0     C19623   1.645   3.737   1.285 -0.1118 -0.5597  0.2328
  907MOL0     C19624   1.560   3.670   1.191  0.2816  0.3422 -0.4844
  907MOL0     C19625   1.419   3.685   1.197 -0.1633  0.0078 -0.2441
  907MOL0     C19626   1.367   3.780   1.289  0.6488 -0.2232 -0.9913
  907MOL0     O19627   1.234   3.817   1.288 -0.2698  0.4516  0.1451
  907MOL0     C19628   1.147   3.731   1.210  0.8357 -0.0816 -0.0011
  907MOL0     C19629   1.005   3.779   1.252 -0.4673  0.3508  0.6920
  907MOL0     C19630   0.969   3.719   1.396 -0.0694 -1.0983 -0.5473
  907MOL0     C19631   0.828   3.747   1.433  0.3544  0.1130  0.1267
  907MOL0     C19632   0.800   3.867   1.506  0.5995  0.4813  0.6708
  907MOL0     C19633   0.660   3.866   1.578 -0.6649 -0.7630  0.3210
  907MOL0     C19634   0.636   3.992   1.671 -0.1387  0.9598  0.0086
  907MOL0     C19635   0.512   3.963   1.758 -0.2629  0.2912  0.3667
  907MOL0    Cl19636   0.548   3.846   1.891 -0.1916 -0.3349 -0.0303
  907MOL0     C19637   1.451   3.855   1.377  0.1033 -0.3341  0.4879
  907MOL0     C19638   1.588   3.824   1.378 -0.3854 -0.6667  1.3425
  907MOL0     O19639   1.752   3.515   1.387 -0.5271  0.3097  0.8892
  907MOL0     C19640   2.030   3.483   1.431 -0.3611 -0.5212 -0.9058
  907MOL0     C19641   2.169   3.461   1.444 -0.3523 -0.7028  1.3184
  907MOL0     N19642   2.995   3.746   1.310 -1.1913 -0.5245 -0.1786
  907MOL0     N19643   3.116   3.784   1.297  0.0161  0.1931 -0.8240
  907MOL0     C19644   4.175   4.126   1.525  0.2897 -0.1274 -0.3849
  907MOL0     C19645   4.300   4.173   1.484  1.0621  0.7144 -0.3101
  907MOL0     C19646   4.751   4.149   1.512 -1.0234 -1.0131  0.7136
  907MOL0     C19647   4.858   4.177   1.605 -0.3559 -0.9554  0.3441
  907MOL0     C19648   4.988   4.171   1.561  0.3319 -0.2118  0.0186
  907MOL0     C19649   5.023   4.129   1.432 -0.4479 -0.4079 -0.3090
  907MOL0     O19650   5.157   4.147   1.393  0.0734 -0.2326 -0.1431
  907MOL0     C19651   5.206   4.119   1.262 -0.3108  0.2143  0.5078
  907MOL0     C19652   5.235   3.966   1.249 -0.8251  0.3590 -0.3842
  907MOL0     C19653   5.342   3.922   1.348  0.1756 -1.0359  0.6301
  907MOL0     C19654   5.377   3.776   1.328  0.5231  1.0122  0.1142
  907MOL0     C19655   5.253   3.696   1.352 -1.0344 -0.6392 -0.4859
  907MOL0     C19656   5.160   3.626   1.375  0.0599  0.0062  1.2681
  907MOL0     C19657   4.920   4.098   1.343 -0.1525  0.4303 -0.1931
  907MOL0     C19658   4.792   4.109   1.379 -0.3659 -0.1796 -0.2254
  907MOL0     H19659   4.465   3.879   1.458  0.3991  1.4915 -0.6116
  907MOL0     H19660   4.255   3.795   1.558 -0.7291  0.5005  0.2960
  907MOL0     H19661   3.933   3.978   1.416 -2.0976 -1.3603 -0.0330
  907MOL0     H19662   3.908   4.080   1.563  0.5577  0.2390  1.2925
  907MOL0     H19663   3.713   3.937   1.558  0.4298  1.5585  4.0739
  907MOL0     H19664   3.808   3.863   1.684 -0.2124 -2.4213  0.5035
  907MOL0     H19665   3.894   3.703   1.499 -0.5270 -1.5113  3.8890
  907MOL0     H19666   3.783   3.797   1.391  0.2108 -0.5372  0.1109
  907MOL0     H19667   3.684   3.625   1.621  0.6942 -3.5332 -1.0776
  907MOL0     H19668   3.586   3.750   1.560  0.2562 -0.6700  0.3608
  907MOL0     H19669   3.537   3.520   1.467 -0.4845  0.5556  0.3643
  907MOL0     H19670   3.685   3.511   1.382  1.9065  1.3024  0.3377
  907MOL0     H19671   3.612   3.612   1.212 -0.1783  1.6980 -0.2049
  907MOL0     H19672   3.575   3.765   1.301 -1.0452  0.7009  2.0560
  907MOL0     H19673   3.371   3.672   1.192 -0.8841 -0.5492 -0.1627
  907MOL0     H19674   3.384   3.537   1.314  2.4359 -0.5480  2.5694
  907MOL0     H19675   3.363   3.838   1.380 -1.8604  1.3581  0.9958
  907MOL0     H19676   3.365   3.711   1.501  3.0067  1.9558 -0.8081
  907MOL0     H19677   3.148   3.540   1.521 -3.0003 -1.2480 -0.2441
  907MOL0     H19678   2.835   3.562   1.539 -0.6848 -0.7474 -0.7504
  907MOL0     H19679   2.865   3.455   1.401  0.6561  0.2595 -2.7182
  907MOL0     H19680   2.759   3.644   1.256 -0.5615  2.3025 -0.6754
  907MOL0     H19681   2.714   3.718   1.411 -1.7514 -0.2770 -0.0130
  907MOL0     H19682   2.646   3.429   1.349  0.9721  1.0029  0.3969
  907MOL0     H19683   2.617   3.526   1.493 -0.9512 -2.8040  0.3560
  907MOL0     H19684   2.510   3.591   1.210  2.7661 -0.0676 -0.0787
  907MOL0     H19685   2.481   3.694   1.349 -0.0321  0.0270 -2.2355
  907MOL0     H19686   2.273   3.698   1.226  2.3494 -2.2632  1.7455
  907MOL0     H19687   2.045   3.749   1.217  2.6507  0.7647  0.0647
  907MOL0     H19688   1.604   3.601   1.120  0.2868 -0.9285  0.7012
  907MOL0     H19689   1.361   3.619   1.133 -1.2203 -1.0522  1.7139
  907MOL0     H19690   1.159   3.625   1.233 -0.8592  0.3306  3.2470
  907MOL0     H19691   1.164   3.738   1.102 -2.7920  0.8937 -0.6480
  907MOL0     H19692   0.927   3.744   1.184  1.0502 -2.6183  0.2917
  907MOL0     H19693   1.008   3.888   1.250 -0.7760  0.3608 -2.1655
  907MOL0     H19694   1.042   3.740   1.474 -1.0755 -2.1931  0.7260
  907MOL0     H19695   0.960   3.610   1.393 -0.3636 -1.0657 -1.0474
  907MOL0     H19696   0.776   3.746   1.336  1.0059 -0.9400 -0.2295
  907MOL0     H19697   0.782   3.664   1.487 -0.8041 -0.6749 -1.9151
  907MOL0     H19698   0.797   3.950   1.434  2.4330  1.2236  1.3967
  907MOL0     H19699   0.883   3.892   1.573  2.4157  0.9737 -1.5960
  907MOL0     H19700   0.655   3.775   1.640 -0.5280 -0.0585  1.3898
  907MOL0     H19701   0.580   3.867   1.504 -0.0760 -0.8752 -0.3313
  907MOL0     H19702   0.718   4.012   1.741  0.4919  2.4231 -1.1133
  907MOL0     H19703   0.610   4.081   1.614 -3.2183 -0.7781 -1.5752
  907MOL0     H19704   0.438   3.916   1.692  0.6774 -1.8607  0.7607
  907MOL0     H19705   0.466   4.055   1.798  0.3597  0.2692  1.1624
  907MOL0     H19706   1.400   3.925   1.443 -3.2950 -1.3536 -0.8058
  907MOL0     H19707   1.644   3.892   1.441 -0.1509  1.9777 -1.4529
  907MOL0     H19708   1.970   3.410   1.485 -1.6987 -0.9127 -2.8363
  907MOL0     H19709   2.196   3.373   1.501  1.6834 -2.2740 -1.8260
  907MOL0     H19710   4.090   4.194   1.533 -0.7473 -1.3906 -0.2622
  907MOL0     H19711   4.320   4.279   1.470 -1.8953  1.3154 -0.5594
  907MOL0     H19712   4.826   4.213   1.703 -3.2424 -0.3370 -0.7112
  907MOL0     H19713   5.068   4.202   1.627  1.9177 -0.4937 -1.6648
  907MOL0     H19714   5.296   4.180   1.245 -0.6171 -0.3940 -5.0914
  907MOL0     H19715   5.133   4.151   1.187  0.7413  1.3045 -0.0891
  907MOL0     H19716   5.142   3.911   1.270  0.8627 -2.8267 -0.6260
  907MOL0     H19717   5.262   3.938   1.147 -2.3944 -0.3104 -0.6505
  907MOL0     H19718   5.300   3.941   1.447 -1.6762 -0.8683 -0.1454
  907MOL0     H19719   5.427   3.989   1.332 -0.6836  0.8633  3.3005
  907MOL0     H19720   5.404   3.759   1.224  0.5180  1.6389  0.0048
  907MOL0     H19721   5.460   3.752   1.396 -0.7364  3.1045  2.5688
  907MOL0     H19722   5.074   3.568   1.401 -0.5326  0.4547  0.3636
  907MOL0     H19723   4.950   4.069   1.243  0.8144  1.7835 -0.3296
  907MOL0     H19724   4.730   4.085   1.293  0.9923  3.2851 -2.3948
  908MOL0     O19725   8.228   6.292   9.850 -0.1216  0.3359 -0.1429
  908MOL0     C19726   8.318   6.201   9.855  1.2451  0.3060  0.4002
  908MOL0     O19727   8.289   6.061   9.850  0.0900  0.3018 -0.9924
  908MOL0     C19728   8.165   6.010   9.854  0.2146 -0.5190  0.1300
  908MOL0     C19729   8.126   5.896   9.786  0.1712 -0.5140 -0.1374
  908MOL0     C19730   7.999   5.844   9.809  0.0897 -0.2267 -0.6226
  908MOL0     C19731   7.905   5.896   9.896  0.7389  0.9287 -0.0084
  908MOL0     O19732   7.781   5.843   9.894 -0.5421 -0.3924 -0.7448
  908MOL0     C19733   7.675   5.918   9.954  0.2064 -0.4148  0.4531
  908MOL0     C19734   7.552   5.837   9.952 -0.5497 -0.2849  0.0387
  908MOL0     C19735   7.550   5.737  10.073  0.1077 -0.1402 -0.1571
  908MOL0     C19736   7.415   5.666  10.084  0.4367  0.1723  0.3798
  908MOL0     C19737   7.396   5.609  10.221  0.2159  0.4252  0.3843
  908MOL0     C19738   7.257   5.541  10.233  0.8379  0.0040 -0.5154
  908MOL0     C19739   7.224   5.497  10.379 -0.3947 -0.0619 -0.7376
  908MOL0     C19740   7.080   5.435  10.389 -0.4079  0.6859 -0.3621
  908MOL0     N19741   6.961   5.529  10.369  0.1720  0.8880 -0.3320
  908MOL0     C19742   6.920   5.628  10.456 -0.1327 -0.2165 -0.6338
  908MOL0     C19743   6.802   5.676  10.402 -0.0700  0.3427 -0.2139
  908MOL0     C19744   6.704   5.762  10.473 -0.4450 -0.3944  0.2763
  908MOL0     C19745   6.598   5.694  10.555  0.6438  0.1350  0.3418
  908MOL0     C19746   6.471   5.772  10.556 -0.4665  0.6442  0.7205
  908MOL0     C19747   6.361   5.682  10.624 -1.3187 -0.7085 -0.3002
  908MOL0     O19748   6.265   5.766  10.679 -0.0504 -0.9778 -0.8115
  908MOL0     C19749   6.166   5.703  10.738  0.8440  0.1178 -0.2189
  908MOL0     C19750   6.036   5.747  10.709 -0.4781 -0.6590  0.7070
  908MOL0     C19751   5.921   5.689  10.766 -0.2011  0.2470 -0.5889
  908MOL0     C19752   5.939   5.603  10.874  0.1513  0.5285  0.0551
  908MOL0     C19753   5.829   5.526  10.924  0.1715  0.1599 -0.0087
  908MOL0     O19754   5.697   5.567  10.894 -0.2931 -0.2129 -0.3137
  908MOL0     C19755   5.589   5.485  10.921 -0.2414 -0.1134 -0.4927
  908MOL0     C19756   5.498   5.521  11.013  0.5122  0.3231 -0.2286
  908MOL0     C19757   5.390   5.444  11.054 -0.4588 -0.7440 -0.0508
  908MOL0     C19758   5.373   5.322  10.986  0.9184  0.2334  1.2054
  908MOL0     O19759   5.264   5.238  11.009 -0.8815  0.4232 -0.1136
  908MOL0     C19760   5.147   5.284  11.076  0.5615 -0.1052 -0.7764
  908MOL0     C19761   5.067   5.382  10.983 -0.3622  0.2656 -0.5607
  908MOL0     C19762   4.936   5.443  11.041  0.7250  0.3022  0.1147
  908MOL0     C19763   4.829   5.337  11.073 -0.7955 -0.4598  0.6591
  908MOL0     C19764   4.693   5.406  11.114 -1.0008 -0.2038  0.3078
  908MOL0     C19765   4.606   5.289  11.176  0.1055 -0.2476 -0.1654
  908MOL0     C19766   4.472   5.350  11.219 -0.8375  0.4064 -0.9673
  908MOL0     C19767   4.364   5.242  11.240 -0.2596 -0.2831 -0.2694
  908MOL0    Cl19768   4.208   5.318  11.244 -0.1321 -0.0296 -0.3680
  908MOL0     C19769   5.470   5.274  10.896 -0.2281  0.0912  0.0100
  908MOL0     C19770   5.584   5.355  10.865 -0.0466  0.3148  0.0830
  908MOL0     O19771   5.855   5.426  10.989  0.1828 -0.0488 -0.4551
  908MOL0     C19772   6.068   5.587  10.924  0.4084  0.3611  0.1843
  908MOL0     C19773   6.178   5.624  10.850 -0.1589 -0.3898 -0.6394
  908MOL0     N19774   6.797   5.618  10.275  0.9987  0.0856  0.1515
  908MOL0     N19775   6.889   5.532  10.258  0.4763 -0.2361  0.7643
  908MOL0     C19776   7.954   6.002   9.981  0.1562  0.6376  0.5576
  908MOL0     C19777   8.082   6.063   9.957 -0.3536  0.3181 -0.3226
  908MOL0     C19778   8.457   6.227   9.846 -1.1981 -0.1816  0.1112
  908MOL0     C19779   8.553   6.123   9.830  0.8350 -0.5197 -0.7499
  908MOL0     C19780   8.692   6.151   9.820  0.4126  0.0213 -0.2933
  908MOL0     C19781   8.737   6.290   9.809 -0.2079  0.3698  0.0314
  908MOL0     O19782   8.869   6.324   9.789 -0.2649 -0.2367  0.3032
  908MOL0     C19783   8.965   6.235   9.726  0.1135 -0.0746  0.5262
  908MOL0     C19784   8.930   6.210   9.579  0.3905 -0.3742 -0.9765
  908MOL0     C19785   8.879   6.334   9.503  0.0744 -0.1575  0.5672
  908MOL0     C19786   8.781   6.294   9.393 -1.3152  1.0758  0.5351
  908MOL0     C19787   8.772   6.393   9.292 -0.6806  0.3782  1.2030
  908MOL0     C19788   8.759   6.490   9.217  0.4007 -0.4492 -0.1265
  908MOL0     C19789   8.638   6.390   9.821  0.1016  0.2231  0.1581
  908MOL0     C19790   8.501   6.357   9.844 -0.0135  0.5633 -0.0432
  908MOL0     H19791   8.193   5.844   9.718  0.6715  0.9668 -0.8076
  908MOL0     H19792   7.975   5.755   9.752  0.5562 -0.3273 -0.6651
  908MOL0     H19793   7.654   6.008   9.895  2.6627  0.0427  0.1882
  908MOL0     H19794   7.703   5.959  10.051  0.0596 -0.1337  0.3793
  908MOL0     H19795   7.547   5.783   9.857  1.7948  0.8722 -0.8381
  908MOL0     H19796   7.468   5.907   9.955  0.5580  1.2872 -2.3199
  908MOL0     H19797   7.574   5.774  10.172  0.4127 -1.7904  0.4227
  908MOL0     H19798   7.623   5.657  10.060  0.8494  0.1115  2.1230
  908MOL0     H19799   7.339   5.743  10.069 -0.0373  0.3052  3.0122
  908MOL0     H19800   7.400   5.589  10.009  0.5747 -2.8011  3.1838
  908MOL0     H19801   7.408   5.680  10.304 -0.2033  1.7100 -0.6051
  908MOL0     H19802   7.463   5.524  10.233 -0.4869 -0.0993  0.6630
  908MOL0     H19803   7.246   5.444  10.182 -0.3690  0.2231 -0.6949
  908MOL0     H19804   7.174   5.600  10.195  0.9961  0.2337 -0.5017
  908MOL0     H19805   7.293   5.421  10.416 -2.0681 -0.6972  1.2125
  908MOL0     H19806   7.233   5.590  10.437 -3.6194  0.0210 -0.2178
  908MOL0     H19807   7.081   5.385  10.487 -1.2329 -1.1407 -1.2293
  908MOL0     H19808   7.069   5.339  10.337  2.4168 -0.9526  1.7234
  908MOL0     H19809   6.966   5.636  10.554 -0.0444 -1.5205 -0.5525
  908MOL0     H19810   6.661   5.823  10.392 -0.3290 -0.0646  0.4580
  908MOL0     H19811   6.749   5.831  10.545 -1.4589 -0.7274  1.2584
  908MOL0     H19812   6.631   5.677  10.658 -1.0299  1.5827  1.1619
  908MOL0     H19813   6.579   5.591  10.526  1.1231 -0.3973  1.8234
  908MOL0     H19814   6.491   5.862  10.613  0.7750  0.6151  0.3548
  908MOL0     H19815   6.439   5.805  10.457  2.2215 -2.1980 -1.2906
  908MOL0     H19816   6.410   5.616  10.697 -1.2644 -1.2634 -0.8312
  908MOL0     H19817   6.321   5.618  10.545 -0.6777 -2.4583  0.7258
  908MOL0     H19818   6.021   5.803  10.617 -3.3596  0.7443  1.8762
  908MOL0     H19819   5.821   5.716  10.733  0.1040  1.1573 -0.8030
  908MOL0     H19820   5.524   5.617  11.055  4.1404 -0.4698 -0.3719
  908MOL0     H19821   5.323   5.481  11.131 -1.6566  1.2411 -1.9223
  908MOL0     H19822   5.169   5.345  11.164 -1.1745  0.2979 -0.5952
  908MOL0     H19823   5.078   5.202  11.100  1.1998 -0.3699  0.2097
  908MOL0     H19824   5.031   5.327  10.896  1.7660  3.4920 -3.7277
  908MOL0     H19825   5.128   5.464  10.945 -2.8269  2.5487  0.1306
  908MOL0     H19826   4.898   5.523  10.976  0.6165 -0.3570 -0.6529
  908MOL0     H19827   4.966   5.494  11.133 -1.4379  3.1333 -0.6062
  908MOL0     H19828   4.805   5.284  10.981  0.2800 -0.0302  0.1043
  908MOL0     H19829   4.857   5.279  11.161  0.6089 -4.4346 -2.1416
  908MOL0     H19830   4.643   5.451  11.028 -1.4647 -0.1500  0.6036
  908MOL0     H19831   4.707   5.476  11.196 -2.9713 -1.4844  1.8051
  908MOL0     H19832   4.654   5.242  11.263 -0.8915 -0.6659  0.1633
  908MOL0     H19833   4.594   5.210  11.102  2.1257  0.0122 -0.8481
  908MOL0     H19834   4.485   5.404  11.314  2.1178 -1.4168 -0.2100
  908MOL0     H19835   4.438   5.416  11.138  2.0412  2.3039 -0.7714
  908MOL0     H19836   4.385   5.192  11.335  0.6590 -3.0472 -1.7983
  908MOL0     H19837   4.361   5.161  11.166  0.7442  0.1035 -0.7521
  908MOL0     H19838   5.459   5.179  10.844  1.3301  0.3734 -0.9164
  908MOL0     H19839   5.652   5.307  10.796 -3.5696 -1.3557 -2.5655
  908MOL0     H19840   6.097   5.526  11.009  2.9814 -2.9474 -2.7749
  908MOL0     H19841   6.277   5.586  10.873 -0.2603 -1.0655 -1.2620
  908MOL0     H19842   7.884   6.053  10.047 -2.7218  0.3214 -2.0264
  908MOL0     H19843   8.119   6.145  10.017  1.9239 -0.2981 -0.8182
  908MOL0     H19844   8.533   6.017   9.819  2.8004 -0.8792 -1.1475
  908MOL0     H19845   8.751   6.060   9.818 -1.1426 -1.0018 -1.1349
  908MOL0     H19846   8.978   6.137   9.773  4.8759  0.0660 -0.0066
  908MOL0     H19847   9.071   6.262   9.720  0.8284 -1.8933  3.3035
  908MOL0     H19848   9.013   6.149   9.543  3.5042  2.0995  1.3603
  908MOL0     H19849   8.849   6.137   9.589  0.3422 -0.0830  1.7448
  908MOL0     H19850   8.965   6.384   9.457 -0.2928 -1.0369 -1.1321
  908MOL0     H19851   8.828   6.407   9.567  2.0930  2.4098 -0.5662
  908MOL0     H19852   8.822   6.208   9.340  0.6920  2.2189  0.1259
  908MOL0     H19853   8.685   6.276   9.443 -2.6044  2.7823 -1.1653
  908MOL0     H19854   8.747   6.574   9.152  0.7693 -0.7933 -0.6381
  908MOL0     H19855   8.667   6.494   9.810  2.4216 -0.3826 -0.0374
  908MOL0     H19856   8.425   6.434   9.845 -0.5407  0.0419  0.2222
  909MOL0     O19857   3.473   1.797   8.753 -0.0527 -0.3163 -0.0737
  909MOL0     C19858   3.496   1.680   8.725 -0.4858 -0.6570  0.2351
  909MOL0     O19859   3.405   1.598   8.674 -0.0725 -0.4490 -0.5993
  909MOL0     C19860   3.276   1.632   8.654 -0.1663 -0.2049  0.9956
  909MOL0     C19861   3.238   1.609   8.522 -0.0443 -1.3276  0.7146
  909MOL0     C19862   3.108   1.624   8.485  0.8471 -0.5277  0.0015
  909MOL0     C19863   3.026   1.699   8.567  1.0319 -0.5456  0.7740
  909MOL0     O19864   2.905   1.729   8.510  0.3664  0.0527  0.2093
  909MOL0     C19865   2.790   1.669   8.573 -0.4897 -0.3635 -0.0461
  909MOL0     C19866   2.652   1.745   8.533  0.6328  1.0401 -0.2489
  909MOL0     C19867   2.627   1.735   8.385 -0.1459  0.8350 -0.1671
  909MOL0     C19868   2.487   1.773   8.338 -1.3635  0.1052  0.7011
  909MOL0     C19869   2.476   1.837   8.197 -0.0198 -0.2658  0.1156
  909MOL0     C19870   2.320   1.860   8.176  0.0385 -0.3058  0.6159
  909MOL0     C19871   2.297   1.942   8.055  0.5261 -0.0971 -0.5009
  909MOL0     C19872   2.148   1.981   8.036 -0.7818 -0.1539 -0.0784
  909MOL0     N19873   2.072   1.867   7.982  0.7289  0.3360 -1.2343
  909MOL0     C19874   2.003   1.869   7.866  0.0670  0.2806  0.1047
  909MOL0     C19875   1.974   1.740   7.854  0.3758 -0.1739 -0.2531
  909MOL0     C19876   1.913   1.673   7.730  0.2212  0.3626  0.1238
  909MOL0     C19877   1.760   1.714   7.707 -0.3576  0.8181  0.7695
  909MOL0     C19878   1.675   1.674   7.833  0.4516 -0.5868  0.2388
  909MOL0     C19879   1.524   1.691   7.805 -0.8184  0.3283  0.4855
  909MOL0     O19880   1.459   1.709   7.928 -0.2361  1.4078 -0.2788
  909MOL0     C19881   1.325   1.710   7.921  0.2847 -0.2296  0.8924
  909MOL0     C19882   1.244   1.688   7.808 -0.0567 -0.0928  0.2344
  909MOL0     C19883   1.105   1.691   7.817  0.4331  0.1860  0.6232
  909MOL0     C19884   1.039   1.734   7.931  0.4855  0.0931 -0.2295
  909MOL0     C19885   0.894   1.730   7.939 -0.2121  0.0828 -0.3041
  909MOL0     O19886   0.832   1.738   8.060  0.3454 -0.4510 -0.0944
  909MOL0     C19887   0.693   1.740   8.056  0.2036  0.0042 -0.3827
  909MOL0     C19888   0.613   1.631   8.012  0.1360  0.2033 -0.1103
  909MOL0     C19889   0.472   1.627   8.012 -0.5387 -1.8028  0.3282
  909MOL0     C19890   0.401   1.741   8.058 -0.5791  0.3185 -0.2397
  909MOL0     O19891   0.266   1.749   8.084  0.5228 -0.1277  0.0255
  909MOL0     C19892   0.187   1.639   8.049 -0.1441  0.4518  0.0225
  909MOL0     C19893   0.038   1.653   8.059 -0.5257  0.1119  0.3414
  909MOL0     C19894  -0.003   1.643   8.202 -0.3965  0.6521  0.2541
  909MOL0     C19895  -0.153   1.645   8.216  0.8422  0.4256  0.6404
  909MOL0     C19896  -0.193   1.701   8.359 -0.2011 -0.5278 -0.3039
  909MOL0     C19897  -0.346   1.675   8.388  0.5702 -0.0591  0.3631
  909MOL0     C19898  -0.432   1.717   8.267  0.1121  0.0769  0.3454
  909MOL0     C19899  -0.573   1.723   8.310 -0.0533  0.3100  0.5150
  909MOL0    Cl19900  -0.676   1.686   8.170  0.4292  0.0759  0.6637
  909MOL0     C19901   0.477   1.848   8.119 -0.2392  0.0405 -0.7539
  909MOL0     C19902   0.620   1.844   8.111  0.3930  0.8579 -0.1964
  909MOL0     O19903   0.835   1.710   7.836  0.3620  0.1217 -0.0340
  909MOL0     C19904   1.122   1.764   8.035  0.2569  0.3221 -0.6136
  909MOL0     C19905   1.258   1.755   8.028  0.3560 -0.6566  0.3395
  909MOL0     N19906   2.007   1.657   7.963 -0.2882 -0.2070 -0.8570
  909MOL0     N19907   2.066   1.734   8.045 -0.0739 -0.3125 -0.0872
  909MOL0     C19908   3.069   1.749   8.692  0.6481  0.3554  1.1896
  909MOL0     C19909   3.198   1.713   8.740  0.5999  0.2817 -0.5199
  909MOL0     C19910   3.632   1.636   8.737  0.1636  0.7657  0.3211
  909MOL0     C19911   3.660   1.500   8.743 -0.1430  1.0515 -0.0555
  909MOL0     C19912   3.789   1.459   8.765  0.3336 -0.6726 -0.0878
  909MOL0     C19913   3.899   1.553   8.772  0.2642  0.7543 -0.0045
  909MOL0     O19914   4.030   1.506   8.790  0.2155  0.1595 -0.0692
  909MOL0     C19915   4.134   1.603   8.819 -0.4503  1.5987  0.0126
  909MOL0     C19916   4.264   1.535   8.871  1.0047  0.0404  0.5275
  909MOL0     C19917   4.385   1.626   8.878  0.2325 -0.7666 -0.6268
  909MOL0     C19918   4.514   1.537   8.902  0.1082  0.0210  0.4913
  909MOL0     C19919   4.632   1.614   8.950 -0.5864 -0.2773 -0.7155
  909MOL0     C19920   4.729   1.683   8.980  0.2949  0.2388  0.4786
  909MOL0     C19921   3.872   1.690   8.745  0.5914  0.4421 -0.1970
  909MOL0     C19922   3.737   1.725   8.741  0.9902 -0.3375 -0.0098
  909MOL0     H19923   3.309   1.561   8.456  3.0802  2.0335  1.2910
  909MOL0     H19924   3.066   1.593   8.390 -2.8094  0.3756  1.1433
  909MOL0     H19925   2.796   1.672   8.682  2.8349 -2.2453 -0.0680
  909MOL0     H19926   2.786   1.566   8.537  0.0593  0.1036 -1.4899
  909MOL0     H19927   2.639   1.848   8.569 -2.0047 -0.0067  2.2056
  909MOL0     H19928   2.565   1.694   8.577  0.8250  2.0771  1.4512
  909MOL0     H19929   2.631   1.627   8.366 -1.7875  0.2818  2.1216
  909MOL0     H19930   2.712   1.772   8.329 -0.6198  0.5938 -1.0629
  909MOL0     H19931   2.430   1.680   8.329 -0.3395 -0.3929 -0.9405
  909MOL0     H19932   2.443   1.838   8.415  0.1198 -0.7839  2.3690
  909MOL0     H19933   2.531   1.784   8.119  0.7821 -0.8491  1.0432
  909MOL0     H19934   2.538   1.926   8.212  1.0336 -1.3288  2.7623
  909MOL0     H19935   2.286   1.922   8.259 -3.5977  1.3919 -1.8866
  909MOL0     H19936   2.265   1.765   8.175 -0.7887  0.1216 -2.2917
  909MOL0     H19937   2.367   2.026   8.059  1.7718 -1.1147 -0.2580
  909MOL0     H19938   2.338   1.882   7.973  0.3560 -1.2223  0.2235
  909MOL0     H19939   2.155   2.062   7.963 -2.0032 -0.0411 -0.0807
  909MOL0     H19940   2.101   2.016   8.128 -2.8255 -0.5785 -0.9214
  909MOL0     H19941   1.972   1.948   7.799 -0.0193  1.3702  1.3870
  909MOL0     H19942   1.907   1.565   7.746  0.2804  0.4177  0.5319
  909MOL0     H19943   1.974   1.691   7.641 -0.3397 -0.3690 -0.4254
  909MOL0     H19944   1.717   1.654   7.626 -2.7251  5.1380 -1.5246
  909MOL0     H19945   1.738   1.815   7.672  1.6842  1.1900  0.4534
  909MOL0     H19946   1.706   1.574   7.864  1.0652 -0.9505 -1.4535
  909MOL0     H19947   1.708   1.747   7.908  2.2717 -0.1775 -0.9129
  909MOL0     H19948   1.494   1.607   7.742  2.1368  0.5667 -1.4368
  909MOL0     H19949   1.511   1.781   7.744 -2.9042 -1.3744 -1.7823
  909MOL0     H19950   1.293   1.677   7.712  0.7827  2.0611  0.3660
  909MOL0     H19951   1.059   1.650   7.727  2.5892  0.8666 -0.8729
  909MOL0     H19952   0.669   1.544   7.980 -0.7959 -1.0801  1.6114
  909MOL0     H19953   0.423   1.540   7.972 -3.4702 -0.7244  1.3265
  909MOL0     H19954   0.211   1.551   8.111 -0.4404  0.8784  0.7548
  909MOL0     H19955   0.203   1.624   7.942 -0.3028  3.4580 -0.5066
  909MOL0     H19956  -0.005   1.579   7.991  0.4513  0.3271 -0.5328
  909MOL0     H19957   0.017   1.752   8.017  1.5251 -0.5955 -2.7077
  909MOL0     H19958   0.035   1.738   8.241 -1.2078  1.6435 -1.2838
  909MOL0     H19959   0.035   1.556   8.257 -3.8364 -2.2334 -1.5469
  909MOL0     H19960  -0.189   1.702   8.131  3.8037 -0.4903 -1.3947
  909MOL0     H19961  -0.199   1.546   8.215 -3.6154  2.2754 -0.6097
  909MOL0     H19962  -0.175   1.808   8.370  0.5474 -0.6183 -0.6419
  909MOL0     H19963  -0.128   1.648   8.430 -1.6984 -1.8967  0.1261
  909MOL0     H19964  -0.377   1.738   8.472 -2.1808 -1.4998  0.5553
  909MOL0     H19965  -0.380   1.576   8.422 -0.7225  0.0948 -0.4164
  909MOL0     H19966  -0.396   1.814   8.230 -0.8442  0.8959  1.4860
  909MOL0     H19967  -0.421   1.641   8.189 -0.2225 -0.3383  0.7011
  909MOL0     H19968  -0.604   1.821   8.348 -2.5870 -1.1715  2.6546
  909MOL0     H19969  -0.598   1.657   8.393 -1.8052  0.5093  0.1918
  909MOL0     H19970   0.423   1.933   8.161  0.4010 -0.3297  0.8551
  909MOL0     H19971   0.673   1.921   8.166 -2.6727 -0.2760  5.0346
  909MOL0     H19972   1.074   1.802   8.125 -1.0110 -1.4085 -0.5097
  909MOL0     H19973   1.323   1.776   8.112 -0.4782 -1.6532  1.2776
  909MOL0     H19974   3.006   1.803   8.762  0.7427 -1.0856  2.4385
  909MOL0     H19975   3.225   1.721   8.844 -0.7130 -0.3455 -0.1113
  909MOL0     H19976   3.594   1.413   8.738  1.1885  0.1148 -2.6506
  909MOL0     H19977   3.800   1.351   8.773 -1.4448 -0.8376  0.7712
  909MOL0     H19978   4.093   1.677   8.888 -2.5670  0.4617  0.0735
  909MOL0     H19979   4.165   1.647   8.724 -1.8695 -0.8565 -1.7134
  909MOL0     H19980   4.239   1.500   8.971  1.7464  0.1177  0.7447
  909MOL0     H19981   4.288   1.443   8.816  0.3143  0.5504 -0.6819
  909MOL0     H19982   4.363   1.688   8.966 -0.4770  0.0252 -1.3445
  909MOL0     H19983   4.399   1.703   8.802 -1.7572  2.9877  2.4308
  909MOL0     H19984   4.490   1.457   8.973 -0.4058  1.5637  2.1201
  909MOL0     H19985   4.550   1.487   8.811  2.3753  0.4996  1.0543
  909MOL0     H19986   4.817   1.737   9.007 -1.3089  1.2701  4.3253
  909MOL0     H19987   3.949   1.765   8.737  2.3806 -1.0672  1.6216
  909MOL0     H19988   3.711   1.830   8.746  0.1777 -0.5852  4.1632
  910MOL0     O19989   7.203   3.390   8.493  0.0341  0.2173  0.1467
  910MOL0     C19990   7.102   3.437   8.441  0.9018 -0.5969 -0.4114
  910MOL0     O19991   7.089   3.496   8.318 -0.3519  0.1538  0.7973
  910MOL0     C19992   7.194   3.498   8.232 -0.3165  0.0083  0.6152
  910MOL0     C19993   7.236   3.612   8.170 -0.3734  0.1564 -0.1844
  910MOL0     C19994   7.334   3.613   8.077  0.0733  0.8044  0.1390
  910MOL0     C19995   7.395   3.488   8.040 -0.6193  0.1602 -0.7274
  910MOL0     O19996   7.476   3.493   7.931 -0.1152  0.1063  0.2850
  910MOL0     C19997   7.555   3.379   7.904  0.4146  0.0293 -0.4094
  910MOL0     C19998   7.661   3.399   7.795 -0.2483  0.3781 -0.4403
  910MOL0     C19999   7.587   3.457   7.681 -0.2991 -0.4276  0.0221
  910MOL0     C20000   7.648   3.445   7.543 -0.4133  1.1529  0.1810
  910MOL0     C20001   7.758   3.542   7.519  0.1763  0.0430 -0.6088
  910MOL0     C20002   7.714   3.693   7.525  0.3677 -1.1465 -0.5900
  910MOL0     C20003   7.802   3.790   7.446 -0.2302 -0.3171  0.4830
  910MOL0     C20004   7.940   3.799   7.504  0.5621  0.3321 -0.0275
  910MOL0     N20005   8.025   3.886   7.425 -0.8230 -0.8823 -0.3503
  910MOL0     C20006   8.080   3.870   7.301  0.3416 -0.3129 -0.1701
  910MOL0     C20007   8.126   3.996   7.262  0.2610  0.7301  0.1749
  910MOL0     C20008   8.183   4.070   7.142 -0.1519 -0.2609 -1.2124
  910MOL0     C20009   8.329   4.096   7.160  0.1127  0.5228  0.3209
  910MOL0     C20010   8.416   3.970   7.175 -0.8192  0.4146  0.0693
  910MOL0     C20011   8.566   4.000   7.174 -0.5641 -0.3673 -0.0916
  910MOL0     O20012   8.609   4.068   7.293 -0.1513 -0.8023 -0.5202
  910MOL0     C20013   8.747   4.100   7.285  0.2231 -0.2159  0.3876
  910MOL0     C20014   8.847   4.023   7.227  0.4845  0.4519  0.6026
  910MOL0     C20015   8.982   4.067   7.218  0.9799 -0.4737 -0.7459
  910MOL0     C20016   9.015   4.197   7.254  0.4092 -0.2457  0.4206
  910MOL0     C20017   9.153   4.257   7.243  0.4278  0.0918 -0.9838
  910MOL0     O20018   9.177   4.380   7.307 -0.4401 -0.2451 -0.2030
  910MOL0     C20019   9.279   4.462   7.275 -0.2716  0.0268  0.6640
  910MOL0     C20020   9.329   4.529   7.387 -0.5351  0.4382  1.2778
  910MOL0     C20021   9.413   4.634   7.366 -1.3214 -0.1885 -0.3928
  910MOL0     C20022   9.455   4.669   7.234 -0.2292 -0.6093 -0.5780
  910MOL0     O20023   9.550   4.771   7.209  0.2241  0.2793 -0.6389
  910MOL0     C20024   9.658   4.783   7.303 -0.6412  0.0942 -0.0823
  910MOL0     C20025   9.780   4.861   7.250 -0.0874  0.0136 -0.3544
  910MOL0     C20026   9.837   4.795   7.116 -0.0360 -0.2546  0.5519
  910MOL0     C20027   9.948   4.699   7.150 -0.5403 -0.5137  0.5180
  910MOL0     C20028  10.092   4.758   7.153 -0.4885  0.6740 -0.4883
  910MOL0     C20029  10.205   4.654   7.123  0.1542 -0.5606  0.4872
  910MOL0     C20030  10.348   4.706   7.164  0.8647 -1.0724 -0.2633
  910MOL0     C20031  10.453   4.605   7.141  1.0272  0.1895  0.1385
  910MOL0    Cl20032  10.618   4.647   7.204 -0.0594 -0.2711 -0.6758
  910MOL0     C20033   9.408   4.602   7.120  0.6750 -0.7739 -0.4126
  910MOL0     C20034   9.318   4.498   7.140 -0.2675 -1.1648 -0.8677
  910MOL0     O20035   9.234   4.179   7.186  0.1273 -0.5434 -0.6471
  910MOL0     C20036   8.912   4.275   7.318  0.9224 -0.1544 -0.5796
  910MOL0     C20037   8.788   4.222   7.332  0.8972  0.1905  0.6052
  910MOL0     N20038   8.110   4.077   7.372 -0.3765 -0.8126 -0.0166
  910MOL0     N20039   8.059   4.011   7.472 -0.3801  0.5021  0.5491
  910MOL0     C20040   7.359   3.372   8.108  0.3246 -0.1931 -1.1092
  910MOL0     C20041   7.263   3.378   8.204  0.4160 -0.0801 -0.3109
  910MOL0     C20042   6.977   3.417   8.524 -0.0615  0.2391 -0.2455
  910MOL0     C20043   6.996   3.398   8.662 -0.0081 -0.0347 -0.4119
  910MOL0     C20044   6.884   3.360   8.735  0.2227 -0.0604 -0.0613
  910MOL0     C20045   6.750   3.361   8.679  0.1863 -0.2427  0.1710
  910MOL0     O20046   6.638   3.306   8.744 -0.0257 -1.0546 -0.5577
  910MOL0     C20047   6.658   3.302   8.884  0.1619 -0.6289 -0.0523
  910MOL0     C20048   6.532   3.250   8.939  0.7887 -0.4716  0.2612
  910MOL0     C20049   6.520   3.250   9.089 -0.5554  0.4760 -0.7881
  910MOL0     C20050   6.398   3.179   9.137 -0.6093 -0.6736  0.9097
  910MOL0     C20051   6.412   3.032   9.143 -0.0594 -0.3887  0.6713
  910MOL0     C20052   6.438   2.912   9.153  0.6114  1.1519  0.5510
  910MOL0     C20053   6.744   3.387   8.547  0.8041 -0.1269  0.5441
  910MOL0     C20054   6.853   3.406   8.468 -0.5914  0.9239 -0.1989
  910MOL0     H20055   7.166   3.691   8.198 -0.1916 -0.2696  1.5798
  910MOL0     H20056   7.365   3.695   8.012 -1.7441  0.6372 -1.0099
  910MOL0     H20057   7.485   3.296   7.890 -1.7389  1.5529  0.6975
  910MOL0     H20058   7.608   3.337   7.991  3.3654  2.5556 -0.8318
  910MOL0     H20059   7.713   3.307   7.766  1.0745  0.8745  0.2561
  910MOL0     H20060   7.737   3.467   7.833  0.3126 -1.4236  1.8786
  910MOL0     H20061   7.557   3.560   7.703  0.8494 -0.0058 -0.3023
  910MOL0     H20062   7.490   3.408   7.674 -1.6446  2.1434 -0.4821
  910MOL0     H20063   7.684   3.344   7.521 -3.3966  0.4440 -2.1688
  910MOL0     H20064   7.557   3.455   7.484  0.8446  1.1369 -1.8877
  910MOL0     H20065   7.801   3.534   7.418 -1.1071  0.3332 -1.1953
  910MOL0     H20066   7.838   3.517   7.589 -1.5982 -1.5816  0.9330
  910MOL0     H20067   7.716   3.730   7.628  1.9028  1.6522 -1.5017
  910MOL0     H20068   7.610   3.696   7.494  0.3266 -0.2091 -0.4023
  910MOL0     H20069   7.812   3.760   7.341 -0.9773 -2.6866  1.0163
  910MOL0     H20070   7.756   3.889   7.452 -2.4178 -1.0467 -2.2204
  910MOL0     H20071   7.980   3.697   7.498 -1.6222 -0.6567  1.1394
  910MOL0     H20072   7.934   3.835   7.607  2.0405  0.7998 -0.0842
  910MOL0     H20073   8.066   3.784   7.236 -0.3639  1.3259 -2.2952
  910MOL0     H20074   8.123   4.161   7.133 -1.2149 -0.7748  0.2050
  910MOL0     H20075   8.167   4.015   7.049 -0.6000  0.6582 -1.6970
  910MOL0     H20076   8.347   4.168   7.241  0.0617  1.7028 -0.6969
  910MOL0     H20077   8.367   4.156   7.077  2.1744  1.0472  1.5736
  910MOL0     H20078   8.400   3.928   7.275 -2.5142  0.6034 -0.0978
  910MOL0     H20079   8.390   3.895   7.100  1.7979 -2.7529  2.0322
  910MOL0     H20080   8.591   4.056   7.083 -1.4918 -1.7574 -1.2482
  910MOL0     H20081   8.606   3.898   7.168 -1.4334 -0.6480 -1.5340
  910MOL0     H20082   8.828   3.921   7.193  2.2523  0.3460 -0.2127
  910MOL0     H20083   9.055   4.001   7.172  3.3605  1.5155 -0.0739
  910MOL0     H20084   9.295   4.504   7.487 -0.1974  1.0131  1.5404
  910MOL0     H20085   9.458   4.690   7.448  1.2001  1.8787 -2.9976
  910MOL0     H20086   9.690   4.680   7.321  2.3148  0.9901  0.3848
  910MOL0     H20087   9.631   4.824   7.401 -2.2600  0.4648 -0.6546
  910MOL0     H20088   9.862   4.880   7.320 -1.7901 -1.3492  2.1520
  910MOL0     H20089   9.756   4.965   7.224  1.1682  1.1174  2.4641
  910MOL0     H20090   9.880   4.872   7.051  0.8394 -2.9817 -2.2894
  910MOL0     H20091   9.761   4.742   7.058 -0.1531 -1.4097  1.7062
  910MOL0     H20092   9.926   4.650   7.245  1.1937 -2.9633 -0.2119
  910MOL0     H20093   9.960   4.616   7.079 -1.8263 -0.8660  0.6907
  910MOL0     H20094  10.107   4.781   7.259 -1.6209 -0.3790 -0.0759
  910MOL0     H20095  10.089   4.855   7.103 -0.9801 -0.3620 -2.5954
  910MOL0     H20096  10.199   4.639   7.015 -1.7351  4.4344 -0.3743
  910MOL0     H20097  10.182   4.555   7.164 -0.8909 -0.3232  0.5173
  910MOL0     H20098  10.374   4.787   7.095  1.6167 -0.3827  0.7935
  910MOL0     H20099  10.359   4.747   7.265  1.0969  3.1182 -1.7541
  910MOL0     H20100  10.464   4.576   7.037 -0.2432  1.6578 -0.4362
  910MOL0     H20101  10.421   4.516   7.196  2.3985 -2.0509 -2.4499
  910MOL0     H20102   9.442   4.621   7.019 -0.7715  0.3828 -0.7141
  910MOL0     H20103   9.275   4.436   7.062  0.4062 -1.9127 -0.6556
  910MOL0     H20104   8.939   4.376   7.349  0.2158  0.2374 -1.1807
  910MOL0     H20105   8.702   4.286   7.351  0.3940  0.0053 -0.9061
  910MOL0     H20106   7.403   3.276   8.085  3.7731  1.2393 -1.0613
  910MOL0     H20107   7.247   3.280   8.248  0.5597  1.4157  3.5052
  910MOL0     H20108   7.091   3.413   8.712  1.3098  1.5989 -3.1174
  910MOL0     H20109   6.898   3.340   8.840 -0.4524 -2.1633 -0.3297
  910MOL0     H20110   6.696   3.396   8.926  2.5068 -1.6025  0.1518
  910MOL0     H20111   6.724   3.224   8.922 -0.2260 -1.6013 -1.3150
  910MOL0     H20112   6.442   3.290   8.893  0.0138 -2.9856 -0.5815
  910MOL0     H20113   6.526   3.146   8.906 -0.4582 -0.2445 -0.2499
  910MOL0     H20114   6.506   3.354   9.119 -1.3894  0.3334 -0.6472
  910MOL0     H20115   6.611   3.212   9.136 -0.1039  0.1814 -1.8733
  910MOL0     H20116   6.384   3.213   9.240 -0.2979  4.8206 -0.5021
  910MOL0     H20117   6.305   3.206   9.086  1.0848  0.6211 -1.7286
  910MOL0     H20118   6.457   2.812   9.186 -0.5216  0.8295  0.2768
  910MOL0     H20119   6.652   3.400   8.491  1.7377 -0.2424 -1.0763
  910MOL0     H20120   6.848   3.413   8.360 -0.5993 -2.7977 -0.5780
  911MOL0     O20121   2.676   4.861   5.843 -0.1530  0.5284  0.0229
  911MOL0     C20122   2.690   4.888   5.956  0.7484 -0.7000 -0.5349
  911MOL0     O20123   2.597   4.870   6.055  0.1846  0.3354 -0.4958
  911MOL0     C20124   2.461   4.834   6.035  0.2506 -0.1087  0.0991
  911MOL0     C20125   2.396   4.751   6.134 -0.2547  0.5194 -0.1322
  911MOL0     C20126   2.268   4.695   6.106 -0.2013  0.1696  0.4319
  911MOL0     C20127   2.187   4.747   6.006  0.2330 -0.1908  0.3666
  911MOL0     O20128   2.047   4.703   6.001  0.4050 -0.5346 -0.2763
  911MOL0     C20129   1.949   4.770   5.924 -0.0417 -0.2421  0.4025
  911MOL0     C20130   1.826   4.692   5.912 -0.6897 -1.4965  0.5023
  911MOL0     C20131   1.716   4.776   5.853 -0.2253 -0.4171  0.9050
  911MOL0     C20132   1.588   4.692   5.858 -0.3651 -0.5066 -0.1188
  911MOL0     C20133   1.471   4.778   5.829  0.8636  0.1451  0.0458
  911MOL0     C20134   1.441   4.827   5.688 -0.0484 -0.1438  0.5891
  911MOL0     C20135   1.317   4.918   5.678 -0.2121  0.4097 -0.5131
  911MOL0     C20136   1.193   4.828   5.686  0.4533 -0.2593  0.6687
  911MOL0     N20137   1.072   4.906   5.639  1.0711  0.6847 -0.4170
  911MOL0     C20138   1.059   4.931   5.499  0.6359 -0.2002 -0.5445
  911MOL0     C20139   0.920   4.940   5.487 -0.6960  0.3097 -1.8075
  911MOL0     C20140   0.843   4.972   5.356  0.2128  1.1141 -0.2205
  911MOL0     C20141   0.712   4.889   5.335 -0.2136  0.6475  0.5790
  911MOL0     C20142   0.654   4.882   5.193  0.2218 -0.8269 -0.4981
  911MOL0     C20143   0.510   4.811   5.197  1.3069 -1.1063 -0.0077
  911MOL0     O20144   0.407   4.891   5.276  0.1961 -0.3576  0.9692
  911MOL0     C20145   0.291   4.826   5.293  0.0558 -0.4824 -0.4618
  911MOL0     C20146   0.280   4.721   5.386 -0.6517  0.1611 -0.6175
  911MOL0     C20147   0.155   4.664   5.412  0.6493 -0.7375  0.3901
  911MOL0     C20148   0.047   4.705   5.349  0.5980 -0.6811 -0.4653
  911MOL0     C20149  -0.079   4.648   5.378  0.3696 -0.9840 -0.5603
  911MOL0     O20150  -0.179   4.685   5.299 -0.4173 -0.3770 -0.2241
  911MOL0     C20151  -0.313   4.678   5.338  0.7419 -0.5205 -0.3897
  911MOL0     C20152  -0.371   4.712   5.473  0.0739 -0.3030  0.6552
  911MOL0     C20153  -0.510   4.723   5.500 -0.2357 -0.2211  0.2289
  911MOL0     C20154  -0.599   4.701   5.393  0.3712 -1.5426  0.3615
  911MOL0     O20155  -0.730   4.709   5.386  0.6282  0.1239  0.4685
  911MOL0     C20156  -0.804   4.750   5.504  1.2660 -0.1023  0.7026
  911MOL0     C20157  -0.961   4.743   5.464 -1.4509 -0.2281  0.0718
  911MOL0     C20158  -1.051   4.703   5.578  1.7128  0.0055 -0.9753
  911MOL0     C20159  -1.200   4.684   5.550 -0.0486  0.1825  0.1300
  911MOL0     C20160  -1.273   4.669   5.682  0.5638 -0.5870 -0.5133
  911MOL0     C20161  -1.421   4.643   5.651  0.1102 -0.3472  0.5900
  911MOL0     C20162  -1.500   4.623   5.776 -0.0577 -1.0626 -0.4448
  911MOL0     C20163  -1.656   4.619   5.745  0.3305 -0.3997 -0.2998
  911MOL0    Cl20164  -1.709   4.783   5.689  0.1474 -0.4758 -0.1596
  911MOL0     C20165  -0.549   4.676   5.268 -0.1953 -0.3961  0.4220
  911MOL0     C20166  -0.411   4.669   5.241 -0.6162 -0.3986  0.6351
  911MOL0     O20167  -0.090   4.583   5.483 -0.5688  0.3471  0.3683
  911MOL0     C20168   0.054   4.804   5.248  0.2781  0.6400 -0.3306
  911MOL0     C20169   0.179   4.864   5.223  0.1254  0.3970 -0.1593
  911MOL0     N20170   0.863   4.929   5.617  0.1118 -0.1904 -0.6566
  911MOL0     N20171   0.952   4.899   5.701 -0.6828 -0.2399 -0.3454
  911MOL0     C20172   2.248   4.841   5.919 -0.8882 -0.5156  0.7456
  911MOL0     C20173   2.385   4.875   5.925 -0.2312  0.3566 -0.1017
  911MOL0     C20174   2.829   4.945   5.993  0.8341  0.1640  0.1567
  911MOL0     C20175   2.868   4.951   6.122 -0.7874 -0.4527 -0.1550
  911MOL0     C20176   2.991   5.021   6.160  0.4418 -1.0216  0.2945
  911MOL0     C20177   3.078   5.059   6.062 -0.2577 -0.2086  0.7885
  911MOL0     O20178   3.185   5.137   6.103  1.0730  0.8575  0.1063
  911MOL0     C20179   3.265   5.193   6.004 -0.0168 -0.1197 -0.1087
  911MOL0     C20180   3.368   5.277   6.066  0.1688 -1.1339  0.2762
  911MOL0     C20181   3.467   5.358   5.980 -0.2474 -0.4638  0.2423
  911MOL0     C20182   3.577   5.417   6.063  0.7157 -0.3100  0.3210
  911MOL0     C20183   3.691   5.316   6.079  0.4845 -0.5181  0.8489
  911MOL0     C20184   3.778   5.234   6.087 -0.2034  0.1876  0.8318
  911MOL0     C20185   3.039   5.045   5.923  0.0294  0.4726 -0.3000
  911MOL0     C20186   2.913   4.996   5.894  0.3801 -1.0978  0.2879
  911MOL0     H20187   2.452   4.709   6.217 -1.0718  0.1912  0.2690
  911MOL0     H20188   2.224   4.613   6.162  0.4262 -1.7092 -1.6603
  911MOL0     H20189   1.987   4.800   5.826  1.9156  1.2250  1.5413
  911MOL0     H20190   1.925   4.865   5.972  0.3830  0.1989 -0.2401
  911MOL0     H20191   1.793   4.655   6.010  0.4076  0.6742  1.7706
  911MOL0     H20192   1.837   4.610   5.841 -1.0284  0.6297 -2.1512
  911MOL0     H20193   1.734   4.804   5.749 -0.8030  0.7201  1.0957
  911MOL0     H20194   1.698   4.870   5.907  0.4602  0.1766  0.1204
  911MOL0     H20195   1.589   4.621   5.774  0.5684  1.0310 -1.4679
  911MOL0     H20196   1.576   4.653   5.959 -0.4230 -3.5597 -1.2026
  911MOL0     H20197   1.481   4.858   5.903  0.0439 -0.2045  0.5472
  911MOL0     H20198   1.384   4.716   5.854  0.2880  0.2422 -1.5789
  911MOL0     H20199   1.422   4.743   5.620  0.3526 -0.3266  0.7025
  911MOL0     H20200   1.523   4.880   5.640 -2.3733 -0.0414 -3.8219
  911MOL0     H20201   1.327   4.993   5.757  0.8004 -0.2357 -0.0037
  911MOL0     H20202   1.322   4.974   5.584 -1.3622  0.1202 -0.7570
  911MOL0     H20203   1.175   4.797   5.790  0.7644 -1.5119  0.3544
  911MOL0     H20204   1.195   4.745   5.616 -0.4466  0.5348 -0.3308
  911MOL0     H20205   1.134   4.933   5.420  2.4965 -2.7370  0.9822
  911MOL0     H20206   0.907   4.950   5.270  1.1197 -1.0060  0.9324
  911MOL0     H20207   0.822   5.080   5.355  0.1993  1.1101 -0.4658
  911MOL0     H20208   0.633   4.919   5.404 -1.4538 -1.6924  0.3076
  911MOL0     H20209   0.736   4.785   5.362 -2.1098  0.5784  2.2549
  911MOL0     H20210   0.656   4.987   5.162 -1.0664  0.0928  2.2409
  911MOL0     H20211   0.721   4.833   5.121  0.0977 -2.0060  0.1618
  911MOL0     H20212   0.528   4.711   5.239 -1.4646 -2.8363 -2.5219
  911MOL0     H20213   0.481   4.782   5.096 -1.4433 -0.4211  0.5184
  911MOL0     H20214   0.362   4.687   5.449  0.3098  1.3690 -1.1658
  911MOL0     H20215   0.149   4.593   5.493 -0.8651 -1.2579 -0.1426
  911MOL0     H20216  -0.294   4.749   5.541 -0.1102  2.2395 -0.4012
  911MOL0     H20217  -0.542   4.754   5.600  1.0043  0.8452  0.3317
  911MOL0     H20218  -0.781   4.849   5.544  1.7867 -1.1830  3.2293
  911MOL0     H20219  -0.804   4.674   5.583  2.3309 -0.2212  0.5953
  911MOL0     H20220  -0.967   4.672   5.381  1.0711  0.8406 -1.1212
  911MOL0     H20221  -0.998   4.837   5.422 -3.3799 -0.1982  1.6864
  911MOL0     H20222  -1.036   4.782   5.652  1.1124  2.0456 -2.9095
  911MOL0     H20223  -1.025   4.605   5.618 -2.3818 -0.4953  0.9634
  911MOL0     H20224  -1.246   4.765   5.492 -2.2514 -0.7617  0.4985
  911MOL0     H20225  -1.214   4.594   5.489  0.7017 -0.3798  0.7685
  911MOL0     H20226  -1.254   4.763   5.734  2.2170 -0.5377 -1.1524
  911MOL0     H20227  -1.229   4.591   5.743 -0.5357  2.0301  4.0905
  911MOL0     H20228  -1.445   4.561   5.583 -0.9310 -1.9651  2.7740
  911MOL0     H20229  -1.455   4.735   5.602  0.3142 -0.4521  0.2483
  911MOL0     H20230  -1.474   4.532   5.831  2.3277  0.0857  0.4721
  911MOL0     H20231  -1.483   4.705   5.847  0.6597  1.5446 -3.3963
  911MOL0     H20232  -1.713   4.598   5.836  2.3970  1.1874  1.4841
  911MOL0     H20233  -1.678   4.552   5.662 -1.3304  0.9315 -1.0139
  911MOL0     H20234  -0.626   4.670   5.191  1.3973  1.3503 -1.4019
  911MOL0     H20235  -0.380   4.669   5.136  0.0954  1.7921  0.7808
  911MOL0     H20236  -0.035   4.835   5.195 -1.1764 -0.5017  1.3524
  911MOL0     H20237   0.195   4.945   5.153 -1.4873  2.2855  1.5653
  911MOL0     H20238   2.195   4.883   5.835  1.7303  2.0039  0.1985
  911MOL0     H20239   2.438   4.935   5.852  0.4202 -0.5462 -0.3872
  911MOL0     H20240   2.808   4.910   6.203 -0.1942  1.3614  1.2660
  911MOL0     H20241   2.997   5.035   6.268 -0.7547  0.4989  0.2129
  911MOL0     H20242   3.195   5.259   5.951  0.9728  3.0707  2.2468
  911MOL0     H20243   3.307   5.120   5.934 -3.8912 -3.3912  0.6394
  911MOL0     H20244   3.317   5.354   6.125 -1.1620  0.3625 -2.6083
  911MOL0     H20245   3.425   5.214   6.136  3.1573  1.3373  0.3356
  911MOL0     H20246   3.407   5.436   5.931  0.0931 -1.4993 -1.9622
  911MOL0     H20247   3.507   5.301   5.895 -0.7783 -0.0203 -0.3188
  911MOL0     H20248   3.610   5.507   6.011 -0.6108 -0.1057 -0.2074
  911MOL0     H20249   3.540   5.456   6.158  3.0881  0.6658  0.9311
  911MOL0     H20250   3.853   5.162   6.113 -0.4986  0.5944  2.9395
  911MOL0     H20251   3.100   5.089   5.844 -1.0048 -0.7391 -1.8488
  911MOL0     H20252   2.888   4.990   5.788  3.7851 -4.7567 -0.5410
  912MOL0     O20253   5.358   0.865   5.712 -0.4768  0.1818 -0.5453
  912MOL0     C20254   5.384   0.984   5.742  0.0616 -0.1035  0.0810
  912MOL0     O20255   5.294   1.088   5.724 -0.1375  0.2390  0.3933
  912MOL0     C20256   5.183   1.058   5.658  0.5724 -0.2506  0.1864
  912MOL0     C20257   5.189   1.061   5.516 -0.2425  0.6387 -0.0276
  912MOL0     C20258   5.081   1.018   5.445 -0.2054 -0.0524 -0.1360
  912MOL0     C20259   4.959   0.988   5.505  0.4160 -0.5642  0.0479
  912MOL0     O20260   4.858   0.951   5.422  1.1262 -0.3753  0.3591
  912MOL0     C20261   4.720   0.968   5.461  0.6608 -0.2520 -0.3774
  912MOL0     C20262   4.668   1.117   5.496  1.4352  0.0853 -0.0839
  912MOL0     C20263   4.522   1.119   5.551  0.0519 -0.1061 -0.0436
  912MOL0     C20264   4.425   1.074   5.444  0.1970  0.3725 -0.5118
  912MOL0     C20265   4.284   1.075   5.505 -0.1029 -0.6719  0.3383
  912MOL0     C20266   4.174   1.014   5.419  0.1388 -0.2908  0.5747
  912MOL0     C20267   4.047   0.968   5.495  0.0538 -0.2273  0.8603
  912MOL0     C20268   3.974   1.083   5.576 -0.0133 -0.0394 -0.1555
  912MOL0     N20269   3.844   1.044   5.629 -0.3937  0.0696 -0.3423
  912MOL0     C20270   3.725   1.038   5.549  0.3199 -0.6378  1.0627
  912MOL0     C20271   3.631   1.020   5.645  0.2999 -0.1675 -0.1019
  912MOL0     C20272   3.486   1.022   5.616 -0.2710  0.1852 -0.1655
  912MOL0     C20273   3.387   1.117   5.687 -1.0017 -0.3364  0.3404
  912MOL0     C20274   3.322   1.060   5.815 -0.4607  0.8980  0.7842
  912MOL0     C20275   3.261   1.173   5.897 -0.6405 -0.6167 -0.5240
  912MOL0     O20276   3.230   1.120   6.030 -0.4148  0.1424  0.2722
  912MOL0     C20277   3.326   1.078   6.123 -0.6832 -0.3595 -0.3931
  912MOL0     C20278   3.468   1.090   6.111  0.2677 -0.4362  0.5432
  912MOL0     C20279   3.560   1.031   6.194 -0.3248  0.1196  0.0366
  912MOL0     C20280   3.510   0.973   6.314 -0.2584 -0.3799  0.6241
  912MOL0     C20281   3.598   0.926   6.425  0.8170 -0.3796  0.2269
  912MOL0     O20282   3.539   0.867   6.528 -0.6007  0.1940  0.3876
  912MOL0     C20283   3.610   0.785   6.624  0.5011 -0.4524  0.4276
  912MOL0     C20284   3.527   0.699   6.695  0.3092  0.0520  0.4591
  912MOL0     C20285   3.578   0.611   6.794 -0.3402 -0.2383  1.0768
  912MOL0     C20286   3.720   0.592   6.811  0.1186 -0.8492  0.1628
  912MOL0     O20287   3.764   0.502   6.900  0.1330  0.3259 -0.4471
  912MOL0     C20288   3.741   0.361   6.873  0.3247  0.6185 -0.0585
  912MOL0     C20289   3.730   0.281   7.003 -0.7184 -0.2542 -1.0353
  912MOL0     C20290   3.858   0.221   7.057 -0.2620 -0.7952  0.3808
  912MOL0     C20291   3.967   0.324   7.086 -0.4355 -0.4950 -0.1970
  912MOL0     C20292   4.086   0.252   7.164  0.2646  0.4210 -0.7499
  912MOL0     C20293   4.206   0.342   7.204  0.2690  0.1176  0.2342
  912MOL0     C20294   4.291   0.290   7.318 -0.6295 -0.1881 -0.5076
  912MOL0     C20295   4.434   0.241   7.278 -0.1555  1.2958 -0.2890
  912MOL0    Cl20296   4.522   0.367   7.208  0.0728  0.6222  0.0954
  912MOL0     C20297   3.805   0.684   6.737  0.1401  0.8204 -0.0750
  912MOL0     C20298   3.747   0.773   6.644  0.0065  0.0830 -0.5447
  912MOL0     O20299   3.712   0.959   6.418 -0.7301  0.3284 -0.0981
  912MOL0     C20300   3.367   0.957   6.330  0.2753  0.5290  0.0512
  912MOL0     C20301   3.279   1.009   6.228 -0.4696  0.4272 -0.1716
  912MOL0     N20302   3.688   1.006   5.773  0.2042 -0.2860 -0.4118
  912MOL0     N20303   3.820   1.030   5.761 -0.3051  0.3406 -1.0264
  912MOL0     C20304   4.950   0.985   5.646 -0.2325 -0.6653  0.7206
  912MOL0     C20305   5.061   1.021   5.722  0.2116  0.1098  0.1778
  912MOL0     C20306   5.506   1.012   5.818 -1.4468  0.2649 -0.4751
  912MOL0     C20307   5.567   1.139   5.822 -0.0267  0.0987 -0.0529
  912MOL0     C20308   5.673   1.169   5.911  0.4989  0.2674  0.8053
  912MOL0     C20309   5.730   1.060   5.977 -0.3037 -0.2253 -0.2835
  912MOL0     O20310   5.843   1.092   6.045  0.3739 -0.4687  0.2012
  912MOL0     C20311   5.892   0.996   6.138 -0.1847  0.0357  0.3702
  912MOL0     C20312   6.026   1.046   6.203 -0.6645  0.0657 -0.6089
  912MOL0     C20313   6.134   1.083   6.095  0.2032 -0.0328 -0.2411
  912MOL0     C20314   6.261   1.145   6.152 -0.0349 -0.9814 -0.6871
  912MOL0     C20315   6.352   1.156   6.039 -0.9663  0.5081  0.2150
  912MOL0     C20316   6.413   1.160   5.929 -0.7857 -0.5308  0.0785
  912MOL0     C20317   5.673   0.938   5.966  0.4182  0.3971 -0.6172
  912MOL0     C20318   5.556   0.910   5.889 -0.2638  0.9919 -0.1773
  912MOL0     H20319   5.267   1.107   5.456 -1.7092  3.1845 -0.1438
  912MOL0     H20320   5.096   1.012   5.338  1.8337 -0.5079  0.1289
  912MOL0     H20321   4.695   0.896   5.540  0.8651  0.9448  0.8128
  912MOL0     H20322   4.669   0.930   5.371  1.4993 -1.2638 -0.4468
  912MOL0     H20323   4.660   1.183   5.409 -3.1271  0.5046  0.4313
  912MOL0     H20324   4.727   1.166   5.574 -0.1067 -1.0667  1.9039
  912MOL0     H20325   4.489   1.219   5.579 -0.3642 -0.3994  0.5253
  912MOL0     H20326   4.505   1.057   5.640 -0.5280  2.1899  1.5324
  912MOL0     H20327   4.419   1.146   5.362 -4.4506 -1.4931 -2.1294
  912MOL0     H20328   4.453   0.973   5.410  0.5511 -0.2799  1.5344
  912MOL0     H20329   4.275   1.175   5.547  0.2727 -1.2703  1.8963
  912MOL0     H20330   4.284   1.023   5.601 -3.7476  1.5249  1.7300
  912MOL0     H20331   4.215   0.928   5.365 -0.6325 -0.4426  0.2197
  912MOL0     H20332   4.148   1.089   5.344  2.1781 -1.1134 -1.0472
  912MOL0     H20333   3.978   0.933   5.418  2.9440  0.4203 -2.2441
  912MOL0     H20334   4.072   0.889   5.567  2.8786  0.5809  0.8913
  912MOL0     H20335   3.967   1.169   5.508 -1.2288 -0.7249 -0.9111
  912MOL0     H20336   4.033   1.116   5.662 -1.7450  3.1554 -0.0299
  912MOL0     H20337   3.716   1.049   5.441 -0.8512 -0.0095  1.2066
  912MOL0     H20338   3.446   0.921   5.623 -0.7785  0.3602 -0.4153
  912MOL0     H20339   3.495   1.054   5.512  2.3408  2.2800  0.6021
  912MOL0     H20340   3.304   1.131   5.617  1.4044  1.1386 -2.4751
  912MOL0     H20341   3.434   1.216   5.696 -0.3457 -0.4975 -1.0243
  912MOL0     H20342   3.250   0.982   5.788  2.2226 -1.9707  1.2611
  912MOL0     H20343   3.406   1.010   5.864  0.3385  0.5315 -0.8836
  912MOL0     H20344   3.170   1.217   5.855 -1.0082  2.3406  2.8360
  912MOL0     H20345   3.337   1.252   5.906  0.8783 -2.1709  1.0631
  912MOL0     H20346   3.513   1.149   6.032  2.5145 -0.0481  2.0022
  912MOL0     H20347   3.665   1.045   6.171 -0.3494 -1.7989 -1.5556
  912MOL0     H20348   3.421   0.725   6.693  1.1438  4.3430  1.9640
  912MOL0     H20349   3.517   0.547   6.857 -1.9377 -0.2407 -0.4085
  912MOL0     H20350   3.825   0.326   6.812  1.2926  1.0264  1.0065
  912MOL0     H20351   3.648   0.347   6.817  0.5522  0.5255 -0.4188
  912MOL0     H20352   3.651   0.205   6.995 -0.4762 -0.5513 -0.6371
  912MOL0     H20353   3.693   0.350   7.080 -0.0126 -0.1376 -0.7931
  912MOL0     H20354   3.889   0.142   6.988 -1.0878 -0.0489 -0.8828
  912MOL0     H20355   3.822   0.173   7.148 -3.5451 -1.8765 -1.3288
  912MOL0     H20356   4.006   0.380   7.000 -1.2481  1.0316  0.3966
  912MOL0     H20357   3.930   0.396   7.159  0.9813 -1.1107  1.2076
  912MOL0     H20358   4.108   0.154   7.122  0.6989  0.4315 -0.5541
  912MOL0     H20359   4.041   0.230   7.261  3.1762 -1.3427  0.3498
  912MOL0     H20360   4.173   0.443   7.228 -1.9685 -0.6485  0.5942
  912MOL0     H20361   4.262   0.365   7.113 -1.2649  0.2972 -0.6938
  912MOL0     H20362   4.313   0.381   7.376  2.8816 -1.2780  0.1065
  912MOL0     H20363   4.242   0.210   7.374  0.6112 -0.6308 -0.0259
  912MOL0     H20364   4.420   0.146   7.226  1.1022  1.1673 -0.4390
  912MOL0     H20365   4.499   0.222   7.365 -0.5721  0.6792 -0.1063
  912MOL0     H20366   3.910   0.682   6.765 -0.2698 -1.3108  1.5822
  912MOL0     H20367   3.825   0.829   6.593  0.8503 -0.0762  0.5479
  912MOL0     H20368   3.325   0.913   6.420  2.4040 -0.8661  0.4406
  912MOL0     H20369   3.172   0.995   6.239 -0.5233  0.2285 -0.8659
  912MOL0     H20370   4.852   0.968   5.689 -0.9328  1.4343  0.0953
  912MOL0     H20371   5.066   1.027   5.830  0.8696  0.9118  0.1129
  912MOL0     H20372   5.530   1.226   5.769  4.2276  0.5297 -2.7435
  912MOL0     H20373   5.696   1.275   5.915 -0.3425  0.5117 -0.1592
  912MOL0     H20374   5.914   0.902   6.086 -3.2152 -0.9667  0.6952
  912MOL0     H20375   5.815   0.973   6.212  0.1010 -0.0295  0.6470
  912MOL0     H20376   6.004   1.124   6.277 -2.4825  0.4412 -1.4815
  912MOL0     H20377   6.079   0.963   6.252 -0.5116 -1.8339 -3.7417
  912MOL0     H20378   6.089   1.161   6.034  0.5189  1.1359  0.9759
  912MOL0     H20379   6.164   0.993   6.041  4.2381  2.3805 -2.4566
  912MOL0     H20380   6.237   1.244   6.191  2.2959 -0.8212  0.5502
  912MOL0     H20381   6.311   1.092   6.234 -2.4294  0.0407  1.5655
  912MOL0     H20382   6.487   1.164   5.852 -0.4396 -1.8077  0.3289
  912MOL0     H20383   5.704   0.866   6.041 -1.8824  0.5717  0.5916
  912MOL0     H20384   5.508   0.813   5.877  2.4682 -0.2290 -2.6269
  913MOL0     O20385   9.763  10.040   2.397  0.8523 -0.2333 -0.6427
  913MOL0     C20386   9.793  10.093   2.506 -0.1892 -0.2654  0.3014
  913MOL0     O20387   9.705  10.149   2.599  0.3119 -0.0700 -0.2184
  913MOL0     C20388   9.565  10.151   2.591 -0.6453 -0.5908  0.2781
  913MOL0     C20389   9.485  10.168   2.707  0.3796  1.1109  0.0226
  913MOL0     C20390   9.344  10.174   2.698 -0.2236 -0.3392 -0.3106
  913MOL0     C20391   9.283  10.165   2.575  0.0622  0.0637  0.0373
  913MOL0     O20392   9.151  10.165   2.567  0.0529  0.7108 -0.1679
  913MOL0     C20393   9.094  10.301   2.532  0.7216 -0.9821  0.2301
  913MOL0     C20394   9.081  10.334   2.384  0.3647  0.9414 -0.6204
  913MOL0     C20395   9.018  10.216   2.308 -0.1062  0.4170 -0.1908
  913MOL0     C20396   8.875  10.172   2.343 -1.0887  0.0124 -0.6287
  913MOL0     C20397   8.763  10.280   2.363  0.0460 -0.2514  0.0136
  913MOL0     C20398   8.636  10.220   2.422  0.0717  0.6845  0.3445
  913MOL0     C20399   8.517  10.319   2.406  0.6819 -0.4658  0.4583
  913MOL0     C20400   8.395  10.296   2.493 -0.6599 -0.2960  0.1153
  913MOL0     N20401   8.266  10.339   2.435 -0.7648 -0.1566  0.8508
  913MOL0     C20402   8.216  10.295   2.318  0.5132  0.6869  0.3014
  913MOL0     C20403   8.099  10.359   2.291 -0.8043  0.2984 -1.3956
  913MOL0     C20404   8.027  10.345   2.159 -0.7303 -0.2804  0.0377
  913MOL0     C20405   7.949  10.212   2.174  0.6811  0.1232  0.6540
  913MOL0     C20406   7.907  10.147   2.037 -0.2243 -0.4327  0.5307
  913MOL0     C20407   7.822  10.250   1.959  0.6482  0.4981 -0.2572
  913MOL0     O20408   7.705  10.279   2.041 -0.1613  0.7148  0.5233
  913MOL0     C20409   7.633  10.392   2.001 -0.2010  0.2010 -0.0698
  913MOL0     C20410   7.529  10.419   2.085 -0.8444  0.4154  0.2323
  913MOL0     C20411   7.427  10.509   2.052  0.1486 -0.0723 -0.2318
  913MOL0     C20412   7.431  10.580   1.929  0.5350  0.1891  0.1359
  913MOL0     C20413   7.317  10.663   1.892  0.7878 -0.2516 -0.7085
  913MOL0     O20414   7.219  10.670   1.985 -0.5362 -0.4196  0.4301
  913MOL0     C20415   7.094  10.725   1.951  0.0280  0.4475 -0.3026
  913MOL0     C20416   7.068  10.854   1.909  0.2819 -1.2576  0.2820
  913MOL0     C20417   6.941  10.906   1.892  0.2320  0.2139 -0.9423
  913MOL0     C20418   6.826  10.816   1.909 -0.9262 -0.3553  0.4906
  913MOL0     O20419   6.694  10.853   1.885  0.5447 -0.1213 -0.7621
  913MOL0     C20420   6.664  10.985   1.856  0.1717 -0.0293 -0.3024
  913MOL0     C20421   6.507  11.011   1.839 -0.4323  0.0659 -0.8270
  913MOL0     C20422   6.466  11.167   1.836 -1.0160  0.7576  0.0258
  913MOL0     C20423   6.309  11.166   1.838 -0.1518  0.1087  0.3183
  913MOL0     C20424   6.251  11.306   1.888  0.4486  0.9812 -0.2578
  913MOL0     C20425   6.204  11.399   1.766  0.3544  0.5476 -0.8448
  913MOL0     C20426   6.318  11.477   1.714 -0.7950  0.3811 -0.4062
  913MOL0     C20427   6.272  11.578   1.600  0.6414  0.2973 -1.0393
  913MOL0    Cl20428   6.172  11.717   1.658  0.2608 -0.1461 -0.2078
  913MOL0     C20429   6.853  10.690   1.970 -0.1611  0.2777  0.9684
  913MOL0     C20430   6.985  10.653   1.993 -0.4584  0.3028 -0.1983
  913MOL0     O20431   7.310  10.714   1.788 -0.3537  0.4534 -0.1350
  913MOL0     C20432   7.546  10.558   1.853 -0.7291  0.1376  0.0613
  913MOL0     C20433   7.648  10.465   1.880  0.1466  0.0418 -0.3288
  913MOL0     N20434   8.082  10.448   2.402 -0.2753  0.4448 -0.3410
  913MOL0     N20435   8.183  10.438   2.482 -0.3409 -0.0032 -0.0815
  913MOL0     C20436   9.364  10.160   2.460  0.6052  1.3387 -0.9477
  913MOL0     C20437   9.505  10.156   2.462 -0.7585  0.0473  0.2568
  913MOL0     C20438   9.942  10.099   2.537 -0.8352  0.5698  0.4139
  913MOL0     C20439   9.990  10.145   2.657 -0.7531  1.1016  0.2127
  913MOL0     C20440  10.125  10.138   2.692 -0.8606  0.2994 -0.5203
  913MOL0     C20441  10.216  10.091   2.599 -0.2192 -0.1048  0.5840
  913MOL0     O20442  10.355  10.114   2.611  0.0172  1.0481 -0.2224
  913MOL0     C20443  10.405  10.068   2.738 -0.3319  0.6527 -0.5919
  913MOL0     C20444  10.556  10.040   2.730  0.4458 -0.4698  0.4775
  913MOL0     C20445  10.616   9.942   2.829  0.0604  0.1620  0.6323
  913MOL0     C20446  10.715  10.017   2.918 -0.2438  0.5174 -0.1968
  913MOL0     C20447  10.829  10.051   2.833 -0.7495 -0.5399  0.6681
  913MOL0     C20448  10.921  10.094   2.759 -0.2149 -0.4734  0.1883
  913MOL0     C20449  10.167  10.038   2.475 -1.3173 -0.3842 -0.3403
  913MOL0     C20450  10.036  10.034   2.449  0.1240 -0.3190  0.3336
  913MOL0     H20451   9.534  10.181   2.804  0.8018 -2.7000  0.4719
  913MOL0     H20452   9.275  10.200   2.777 -1.1691 -0.3841 -1.0982
  913MOL0     H20453   9.148  10.375   2.591 -2.0318  1.8554 -0.5793
  913MOL0     H20454   8.995  10.307   2.577 -0.4279  0.4480 -2.2645
  913MOL0     H20455   9.182  10.351   2.347 -0.4558  4.0175 -1.7672
  913MOL0     H20456   9.025  10.428   2.373 -1.2556  0.2860  1.4045
  913MOL0     H20457   9.076  10.124   2.314 -0.5027 -0.1285 -3.2312
  913MOL0     H20458   9.018  10.248   2.204 -0.1364 -2.4065 -1.1280
  913MOL0     H20459   8.847  10.098   2.267 -0.5262 -1.3467  0.4597
  913MOL0     H20460   8.879  10.112   2.434 -1.3146  1.9465  0.7295
  913MOL0     H20461   8.739  10.331   2.269  0.0983  0.7898  0.5558
  913MOL0     H20462   8.795  10.352   2.439 -0.1157 -0.0413 -0.1173
  913MOL0     H20463   8.653  10.197   2.528 -1.6378  1.4624  0.8195
  913MOL0     H20464   8.609  10.127   2.371 -0.6835  1.1961 -0.2036
  913MOL0     H20465   8.560  10.420   2.412 -1.2756  0.6274 -2.1000
  913MOL0     H20466   8.487  10.309   2.302  0.9307  2.6116 -0.0080
  913MOL0     H20467   8.408  10.332   2.595 -2.8404  0.9104  0.0306
  913MOL0     H20468   8.383  10.187   2.492  1.9300 -0.6971 -3.2363
  913MOL0     H20469   8.267  10.224   2.254  2.7574  0.7259  1.9170
  913MOL0     H20470   8.100  10.334   2.078  0.7656  2.8205  0.8132
  913MOL0     H20471   7.961  10.431   2.141  0.4099  0.6764  0.3170
  913MOL0     H20472   7.872  10.233   2.249  0.4132  0.9902  0.1563
  913MOL0     H20473   8.018  10.142   2.221  1.8709  1.5559  1.1148
  913MOL0     H20474   7.995  10.100   1.992  2.6718  1.8311  3.4065
  913MOL0     H20475   7.851  10.057   2.066  1.7138 -0.9995  2.8515
  913MOL0     H20476   7.796  10.207   1.862  0.5711  0.1991 -0.1019
  913MOL0     H20477   7.877  10.343   1.940 -1.4035  1.5445 -1.4045
  913MOL0     H20478   7.511  10.365   2.177  0.8713  0.2429  0.5050
  913MOL0     H20479   7.347  10.519   2.125  0.0967 -0.5468 -0.2239
  913MOL0     H20480   7.158  10.912   1.893  0.0755 -1.2008 -0.7706
  913MOL0     H20481   6.935  11.007   1.854 -0.5078  0.5087 -0.0785
  913MOL0     H20482   6.709  11.017   1.761 -0.5820  2.6002  0.1519
  913MOL0     H20483   6.689  11.055   1.937  1.0462 -2.1308  1.3445
  913MOL0     H20484   6.446  10.948   1.903  0.0411  0.6183  0.1971
  913MOL0     H20485   6.479  10.972   1.741 -0.1949 -0.5212 -0.6668
  913MOL0     H20486   6.510  11.218   1.750 -0.4861  0.3514  0.0478
  913MOL0     H20487   6.493  11.226   1.924 -0.6993  0.7561 -0.0713
  913MOL0     H20488   6.265  11.128   1.746 -2.1736 -1.2801  1.7683
  913MOL0     H20489   6.262  11.094   1.906 -2.2434 -3.0882 -4.0255
  913MOL0     H20490   6.314  11.368   1.951 -0.2480  3.1582 -1.5801
  913MOL0     H20491   6.159  11.275   1.938  0.1218 -1.2276 -2.0459
  913MOL0     H20492   6.130  11.466   1.811 -0.3784 -0.7240 -0.0848
  913MOL0     H20493   6.170  11.337   1.683  2.5124 -1.8241 -0.0712
  913MOL0     H20494   6.379  11.527   1.789 -0.1857 -1.6513  0.5174
  913MOL0     H20495   6.386  11.401   1.674 -1.8229 -1.4889  1.1821
  913MOL0     H20496   6.208  11.527   1.528 -0.6317  1.1632 -0.5544
  913MOL0     H20497   6.359  11.606   1.540  0.7715  0.5673 -0.7313
  913MOL0     H20498   6.772  10.618   1.970  0.5061 -0.4931  0.9164
  913MOL0     H20499   7.001  10.556   2.039 -2.3774  0.5345  1.1022
  913MOL0     H20500   7.572  10.607   1.760 -0.2176 -2.1412 -1.0744
  913MOL0     H20501   7.725  10.453   1.806  1.7407 -1.0266  1.4255
  913MOL0     H20502   9.317  10.144   2.363 -1.0313  1.9509 -0.2956
  913MOL0     H20503   9.566  10.160   2.373  3.2582  2.2746  2.7832
  913MOL0     H20504   9.918  10.195   2.722 -0.1215  0.4978  1.4205
  913MOL0     H20505  10.163  10.186   2.782 -2.0234 -0.9308  0.6681
  913MOL0     H20506  10.344   9.986   2.777  0.9600 -0.3402 -0.6114
  913MOL0     H20507  10.394  10.149   2.811 -0.0058 -0.8004  1.1374
  913MOL0     H20508  10.584  10.004   2.631 -1.9553 -0.7382 -0.1667
  913MOL0     H20509  10.599  10.140   2.742 -0.3004  0.2463 -2.2526
  913MOL0     H20510  10.659   9.850   2.789  1.0665 -0.4119  2.8749
  913MOL0     H20511  10.535   9.898   2.888  1.9193 -2.8977  1.1511
  913MOL0     H20512  10.667  10.111   2.945 -3.3546 -0.6854 -1.0839
  913MOL0     H20513  10.752   9.958   3.002 -0.6895  0.9217  0.2832
  913MOL0     H20514  11.005  10.131   2.705 -3.3389  0.0929 -4.8930
  913MOL0     H20515  10.237   9.991   2.407  0.3384 -0.8971  1.6015
  913MOL0     H20516  10.005  10.003   2.350 -1.2729  0.7532  0.4010
  914MOL0     O20517   8.118   7.277   9.504 -0.1273  0.1505 -0.2339
  914MOL0     C20518   8.196   7.342   9.429 -0.3570  0.3596 -0.2522
  914MOL0     O20519   8.168   7.468   9.381 -0.2527 -0.1007  0.4625
  914MOL0     C20520   8.049   7.533   9.408  0.4470 -0.2973  0.8178
  914MOL0     C20521   7.993   7.537   9.539 -0.5663 -0.6188 -0.3547
  914MOL0     C20522   7.868   7.593   9.555  0.4721 -0.1434 -0.2585
  914MOL0     C20523   7.800   7.662   9.458 -0.1287 -0.2297  0.5194
  914MOL0     O20524   7.676   7.722   9.473 -0.5752  0.1880  0.0591
  914MOL0     C20525   7.624   7.797   9.364 -0.4523 -0.8880  0.6288
  914MOL0     C20526   7.484   7.856   9.401  0.1886  0.4449  0.5623
  914MOL0     C20527   7.403   7.862   9.272  0.8607 -0.6711 -0.0285
  914MOL0     C20528   7.258   7.893   9.286  0.2967 -0.3179  0.1253
  914MOL0     C20529   7.242   8.049   9.327  0.4105  0.2548 -0.2987
  914MOL0     C20530   7.112   8.108   9.272  0.1945  0.0975 -0.0856
  914MOL0     C20531   7.080   8.249   9.314 -0.1544  0.4477 -1.2202
  914MOL0     C20532   6.960   8.295   9.234 -0.8372  0.6701 -0.3700
  914MOL0     N20533   6.915   8.427   9.285 -0.3062  0.0579  0.2053
  914MOL0     C20534   6.841   8.450   9.398  0.0706  0.7958  0.4569
  914MOL0     C20535   6.857   8.583   9.427 -0.9186 -0.5892  0.5727
  914MOL0     C20536   6.783   8.652   9.530  0.1976 -1.0328 -0.3553
  914MOL0     C20537   6.636   8.682   9.499 -0.5228 -0.2521  0.5569
  914MOL0     C20538   6.563   8.749   9.615 -0.4406 -0.7298 -0.4152
  914MOL0     C20539   6.427   8.804   9.570  0.3209  0.1861 -0.6112
  914MOL0     O20540   6.356   8.839   9.691  1.2245  0.2017  0.8278
  914MOL0     C20541   6.231   8.872   9.687  0.0836 -0.3596  0.5177
  914MOL0     C20542   6.152   8.860   9.799 -0.3302  0.3157 -0.5425
  914MOL0     C20543   6.020   8.890   9.794  0.1716 -0.1376  0.0245
  914MOL0     C20544   5.965   8.956   9.677  0.4941  0.3346 -0.2499
  914MOL0     C20545   5.824   9.004   9.682  0.0753 -1.2438  0.3162
  914MOL0     O20546   5.763   9.039   9.563 -0.1936  0.2736  0.1067
  914MOL0     C20547   5.657   9.122   9.586  0.1741  0.4831  0.1342
  914MOL0     C20548   5.662   9.262   9.573  0.6182 -0.5868 -0.1103
  914MOL0     C20549   5.549   9.343   9.595 -0.3935 -0.5207 -0.4800
  914MOL0     C20550   5.424   9.280   9.626 -1.0040 -0.8281 -0.2191
  914MOL0     O20551   5.322   9.360   9.677 -0.1382  0.5803  0.1637
  914MOL0     C20552   5.331   9.501   9.666 -0.3165  0.2050 -1.0285
  914MOL0     C20553   5.208   9.576   9.719  0.2861 -0.0771 -0.5238
  914MOL0     C20554   5.214   9.734   9.695  0.2372 -0.3341 -0.4597
  914MOL0     C20555   5.074   9.794   9.703 -1.2693 -0.4933  0.5931
  914MOL0     C20556   5.097   9.949   9.674 -0.6677 -0.1872 -0.0572
  914MOL0     C20557   4.962  10.014   9.689 -0.0044  0.1773  0.4946
  914MOL0     C20558   4.950  10.149   9.604  0.8934 -0.0292  0.0825
  914MOL0     C20559   5.053  10.248   9.624 -0.2043 -0.3873  0.0236
  914MOL0    Cl20560   5.069  10.299   9.807 -0.0912 -0.3313 -0.1852
  914MOL0     C20561   5.419   9.132   9.636  0.9939 -0.0287 -0.3777
  914MOL0     C20562   5.538   9.054   9.620  0.8388 -0.3704 -0.6485
  914MOL0     O20563   5.772   9.015   9.792 -0.5078 -0.0048  0.3549
  914MOL0     C20564   6.045   8.981   9.567 -0.9877  0.7625 -0.3751
  914MOL0     C20565   6.174   8.933   9.571 -0.2429  0.3938  0.2410
  914MOL0     N20566   6.931   8.629   9.327  0.1719  0.0001  0.3078
  914MOL0     N20567   6.961   8.542   9.237  0.8212 -0.6016 -0.3703
  914MOL0     C20568   7.858   7.670   9.330 -0.5457 -0.0791 -0.6989
  914MOL0     C20569   7.980   7.607   9.307 -0.1330 -0.5135  0.4485
  914MOL0     C20570   8.323   7.282   9.389  0.9424 -0.2026  0.2754
  914MOL0     C20571   8.415   7.362   9.313  0.0197  0.6014  0.4015
  914MOL0     C20572   8.544   7.319   9.298 -0.7594  0.2891 -0.0447
  914MOL0     C20573   8.584   7.189   9.336 -0.2603  0.3075 -0.2647
  914MOL0     O20574   8.713   7.152   9.312 -0.4015  0.5688 -0.1421
  914MOL0     C20575   8.805   7.206   9.407 -0.7444  0.0853 -0.5105
  914MOL0     C20576   8.949   7.174   9.370  0.0603 -1.0407  0.0143
  914MOL0     C20577   9.036   7.268   9.464 -0.6747  0.7900  0.3744
  914MOL0     C20578   9.190   7.250   9.450  0.5797 -0.4245  0.2260
  914MOL0     C20579   9.253   7.292   9.326 -0.0211 -0.9779 -0.2089
  914MOL0     C20580   9.320   7.330   9.236  0.3005 -0.4060  0.9175
  914MOL0     C20581   8.498   7.103   9.411 -0.4510  0.1274  0.2918
  914MOL0     C20582   8.367   7.157   9.447 -0.1195 -1.4182  0.7487
  914MOL0     H20583   8.047   7.491   9.621  1.6731  1.2540 -0.6625
  914MOL0     H20584   7.835   7.576   9.657  1.7903 -0.0014  0.2100
  914MOL0     H20585   7.619   7.731   9.277 -2.7259  1.0911 -0.8764
  914MOL0     H20586   7.677   7.888   9.335 -4.0320  1.0063 -0.6165
  914MOL0     H20587   7.487   7.946   9.462  1.4352  2.5244 -2.3274
  914MOL0     H20588   7.435   7.774   9.454  1.3793 -1.6082 -1.3265
  914MOL0     H20589   7.403   7.757   9.244 -0.2989 -0.5090 -0.7010
  914MOL0     H20590   7.446   7.921   9.190  1.1778 -1.0542 -0.1413
  914MOL0     H20591   7.197   7.879   9.197 -0.4876  2.6660  0.0894
  914MOL0     H20592   7.218   7.827   9.365 -2.0627  2.5442  1.5338
  914MOL0     H20593   7.329   8.104   9.288  0.4999  2.1514  2.2927
  914MOL0     H20594   7.253   8.058   9.436  0.1477 -3.5089  0.1514
  914MOL0     H20595   7.031   8.037   9.291  2.0288 -1.4404  2.6823
  914MOL0     H20596   7.127   8.103   9.164 -1.9608  0.4184 -0.4306
  914MOL0     H20597   7.049   8.261   9.418 -0.1248  1.6354 -1.3404
  914MOL0     H20598   7.159   8.321   9.292 -0.7840  1.4673 -0.2617
  914MOL0     H20599   6.886   8.218   9.259  0.8899 -0.2013  2.5975
  914MOL0     H20600   6.995   8.289   9.131  0.0929 -0.8707  0.0082
  914MOL0     H20601   6.781   8.376   9.450 -0.5348 -0.7513 -2.2331
  914MOL0     H20602   6.819   8.753   9.555 -4.4209  0.3129  1.9517
  914MOL0     H20603   6.790   8.598   9.625  0.6215  0.4422  0.4878
  914MOL0     H20604   6.591   8.587   9.469  1.9071 -0.7042 -2.0488
  914MOL0     H20605   6.635   8.756   9.418 -0.4613  1.8750  2.4088
  914MOL0     H20606   6.558   8.675   9.696  0.2695 -1.2509 -0.8386
  914MOL0     H20607   6.632   8.828   9.646  2.1726 -3.0756  0.1641
  914MOL0     H20608   6.363   8.726   9.527 -1.0371  1.0817 -0.2566
  914MOL0     H20609   6.443   8.889   9.503  3.1420  0.5560  0.3826
  914MOL0     H20610   6.190   8.821   9.893 -0.6495  1.6110  0.1505
  914MOL0     H20611   5.959   8.884   9.884  0.1738  1.6015  0.1611
  914MOL0     H20612   5.759   9.309   9.560 -0.9144  2.9169  0.0508
  914MOL0     H20613   5.565   9.450   9.602  2.4224 -0.9128 -0.0035
  914MOL0     H20614   5.357   9.536   9.566  0.2019  0.8929 -0.6620
  914MOL0     H20615   5.419   9.543   9.715  1.4171  0.2514 -3.9580
  914MOL0     H20616   5.215   9.568   9.828  1.1408  1.2158 -0.4596
  914MOL0     H20617   5.118   9.528   9.680  1.9038 -2.0378 -2.0417
  914MOL0     H20618   5.266   9.753   9.601 -1.6506 -2.6101 -2.0667
  914MOL0     H20619   5.275   9.767   9.779  0.4225 -4.4203  1.2558
  914MOL0     H20620   5.024   9.745   9.619  1.1232 -1.8876 -0.0859
  914MOL0     H20621   5.032   9.777   9.803 -0.7002  1.4530  1.2179
  914MOL0     H20622   5.133   9.958   9.571  1.0755  0.7129  0.5991
  914MOL0     H20623   5.167   9.999   9.742 -1.4671  1.0865 -0.1422
  914MOL0     H20624   4.949  10.050   9.791  0.9938 -0.3231  0.8059
  914MOL0     H20625   4.876   9.950   9.672  1.3142 -1.7164  0.6529
  914MOL0     H20626   4.944  10.119   9.499  1.5179  2.0928 -0.6142
  914MOL0     H20627   4.849  10.185   9.629  0.8483  0.7329 -1.1335
  914MOL0     H20628   5.037  10.337   9.562  2.9851  0.1340 -0.2250
  914MOL0     H20629   5.152  10.214   9.594  0.3458 -1.3494  2.6473
  914MOL0     H20630   5.329   9.080   9.668  2.0023 -0.9382  1.1294
  914MOL0     H20631   5.542   8.946   9.618 -0.1481 -0.4478  0.3626
  914MOL0     H20632   6.007   9.033   9.480  0.3215  1.6616 -0.4423
  914MOL0     H20633   6.244   8.930   9.487  0.1171  0.8303  0.5218
  914MOL0     H20634   7.817   7.732   9.251 -0.8679  0.4976 -0.0919
  914MOL0     H20635   8.028   7.616   9.210  0.2584 -1.1639  0.5740
  914MOL0     H20636   8.381   7.463   9.289  0.2578  0.2111 -1.7652
  914MOL0     H20637   8.608   7.382   9.237 -1.9951  0.4959 -1.1654
  914MOL0     H20638   8.793   7.151   9.500  3.0640 -0.6683 -0.2987
  914MOL0     H20639   8.785   7.312   9.427 -0.3851  0.4632 -2.0045
  914MOL0     H20640   8.968   7.067   9.383  0.0488 -1.0042  0.3437
  914MOL0     H20641   8.963   7.194   9.264 -0.9964 -0.5230 -0.0437
  914MOL0     H20642   9.006   7.255   9.568 -0.3459  3.0873  0.8035
  914MOL0     H20643   9.013   7.374   9.445  0.8164  0.7322 -2.4534
  914MOL0     H20644   9.235   7.317   9.523  0.8005  0.5764 -0.7961
  914MOL0     H20645   9.215   7.145   9.465 -1.3752 -0.7298  1.7521
  914MOL0     H20646   9.392   7.355   9.160 -2.6354  0.7145 -1.6926
  914MOL0     H20647   8.532   7.003   9.438  0.6251  0.4826  0.2948
  914MOL0     H20648   8.305   7.091   9.507 -1.5969  0.3350  1.2508
  915MOL0     O20649   4.110   8.039   4.568  0.4256  0.8011 -0.3105
  915MOL0     C20650   4.164   7.985   4.664  0.0256  0.2072  0.1797
  915MOL0     O20651   4.099   7.919   4.769 -0.6432 -0.2020  0.3785
  915MOL0     C20652   3.964   7.909   4.766  0.0792  0.3448 -0.4898
  915MOL0     C20653   3.885   7.991   4.854 -0.3998 -0.6505 -0.1448
  915MOL0     C20654   3.753   7.968   4.864  1.1798 -0.6932 -0.4038
  915MOL0     C20655   3.697   7.858   4.792  0.2387 -0.3770  0.2405
  915MOL0     O20656   3.561   7.837   4.803  0.1226  0.7206  0.6564
  915MOL0     C20657   3.481   7.795   4.685  0.5609 -0.7745  0.7327
  915MOL0     C20658   3.338   7.813   4.731  0.2400  1.0916  0.3724
  915MOL0     C20659   3.293   7.720   4.852  0.4237 -0.1664 -0.8030
  915MOL0     C20660   3.150   7.746   4.880  0.5498  1.2121  0.1828
  915MOL0     C20661   3.128   7.852   4.983 -0.5238  0.2643 -0.2988
  915MOL0     C20662   2.993   7.854   5.036  1.6683 -1.3322  0.2394
  915MOL0     C20663   2.896   7.919   4.940 -0.2299  0.1811 -0.0458
  915MOL0     C20664   2.751   7.893   4.980  0.4091 -0.2288  0.0143
  915MOL0     N20665   2.649   7.932   4.885 -0.0703  1.0547  0.4780
  915MOL0     C20666   2.640   8.069   4.846  0.3373  0.1747  0.1391
  915MOL0     C20667   2.526   8.072   4.780  0.2513  0.1738  0.2002
  915MOL0     C20668   2.462   8.184   4.707 -0.5007 -1.3081  0.2127
  915MOL0     C20669   2.307   8.190   4.715 -0.7046  0.3314 -0.0583
  915MOL0     C20670   2.260   8.268   4.595  0.1712 -0.3228  0.1151
  915MOL0     C20671   2.110   8.259   4.589  0.0009  0.3704 -0.5376
  915MOL0     O20672   2.028   8.377   4.633  0.8181  0.0314  0.1662
  915MOL0     C20673   1.926   8.336   4.721 -0.3097 -0.4125  0.4004
  915MOL0     C20674   1.802   8.302   4.662 -0.1162 -0.1433  0.6734
  915MOL0     C20675   1.692   8.295   4.740 -0.2767  0.3546 -0.6815
  915MOL0     C20676   1.701   8.306   4.883  0.1875 -0.1624  0.0916
  915MOL0     C20677   1.589   8.280   4.968  0.7910 -0.4181  1.0395
  915MOL0     O20678   1.613   8.259   5.103 -0.2440 -0.3287 -0.3388
  915MOL0     C20679   1.504   8.248   5.188 -0.8833 -0.5389 -0.2432
  915MOL0     C20680   1.463   8.371   5.250 -0.1263  0.1816 -0.7620
  915MOL0     C20681   1.353   8.376   5.339 -0.3384  0.2081  0.7003
  915MOL0     C20682   1.274   8.259   5.355  0.7740  0.0897 -1.4392
  915MOL0     O20683   1.156   8.267   5.429 -0.9669 -0.4480 -0.2883
  915MOL0     C20684   1.085   8.145   5.447 -0.4399 -0.6333  0.2679
  915MOL0     C20685   0.958   8.172   5.538  0.3481 -0.3308 -0.6073
  915MOL0     C20686   0.937   8.051   5.644 -0.7318 -0.3414  0.6901
  915MOL0     C20687   0.825   8.070   5.751 -0.3785  0.1102  0.4176
  915MOL0     C20688   0.825   7.957   5.856  0.8967 -0.7156 -0.2109
  915MOL0     C20689   0.707   7.973   5.957 -1.3119 -0.7808  0.4295
  915MOL0     C20690   0.724   7.890   6.088  1.0057 -0.2572 -0.0885
  915MOL0     C20691   0.608   7.894   6.180  0.1432  0.7491  0.0610
  915MOL0    Cl20692   0.472   7.794   6.119 -0.3105  0.2984  0.3883
  915MOL0     C20693   1.308   8.142   5.286  0.3603 -0.0501  0.6159
  915MOL0     C20694   1.419   8.137   5.197  0.0004  0.6895 -0.0069
  915MOL0     O20695   1.474   8.280   4.911 -0.0037 -0.2842  0.2934
  915MOL0     C20696   1.831   8.334   4.937  0.3324 -0.9291  0.5425
  915MOL0     C20697   1.950   8.342   4.859  0.3866  0.0435  1.2956
  915MOL0     N20698   2.478   7.939   4.767  0.5991  0.0760 -0.4081
  915MOL0     N20699   2.543   7.860   4.843  0.2625 -0.0905 -0.0703
  915MOL0     C20700   3.773   7.779   4.705 -1.4875 -0.5579 -0.3661
  915MOL0     C20701   3.899   7.810   4.690 -1.3743  0.5552 -0.1327
  915MOL0     C20702   4.316   7.985   4.663  0.1154 -0.0216  0.0207
  915MOL0     C20703   4.394   7.930   4.772 -0.3607  0.5037  0.1052
  915MOL0     C20704   4.542   7.947   4.766  0.6080  0.4326 -0.3207
  915MOL0     C20705   4.602   8.018   4.660  0.6684  0.1137 -0.4275
  915MOL0     O20706   4.741   8.010   4.651  0.8630 -0.0623  0.1536
  915MOL0     C20707   4.802   8.086   4.756 -0.5958  0.2115  0.2730
  915MOL0     C20708   4.851   8.001   4.874  0.0179 -0.4339  0.2174
  915MOL0     C20709   4.985   7.925   4.841  1.1818 -0.4994 -0.7359
  915MOL0     C20710   5.108   8.009   4.892 -0.0943 -0.8208  0.8160
  915MOL0     C20711   5.230   7.927   4.889 -0.3187  0.2508 -0.1805
  915MOL0     C20712   5.330   7.860   4.877 -0.6094 -0.2163 -0.8273
  915MOL0     C20713   4.523   8.078   4.566  1.4617  0.7708  0.1684
  915MOL0     C20714   4.382   8.064   4.574  0.0311  0.3968  0.4460
  915MOL0     H20715   3.939   8.064   4.914  2.6667 -1.0964 -2.0753
  915MOL0     H20716   3.671   8.015   4.918  0.3287 -0.2821 -2.0047
  915MOL0     H20717   3.505   7.692   4.657  1.7091 -0.8825  2.0073
  915MOL0     H20718   3.509   7.866   4.607 -0.7485 -0.6964  0.2954
  915MOL0     H20719   3.270   7.813   4.645  2.6908 -1.9035 -1.7930
  915MOL0     H20720   3.336   7.917   4.766  1.3817  1.7709 -1.4430
  915MOL0     H20721   3.357   7.729   4.941 -1.3245  1.8478  0.3381
  915MOL0     H20722   3.297   7.619   4.811 -0.9602 -1.5324  2.1510
  915MOL0     H20723   3.089   7.761   4.790 -2.0355  0.9380  1.7645
  915MOL0     H20724   3.122   7.655   4.934  0.1838  0.1639 -1.6858
  915MOL0     H20725   3.167   7.940   4.931  0.9195 -0.9742 -1.4001
  915MOL0     H20726   3.191   7.834   5.071 -2.2044 -0.3211  0.8380
  915MOL0     H20727   2.982   7.904   5.132  2.1465  0.6644 -0.7087
  915MOL0     H20728   2.948   7.756   5.057  1.6651 -1.2528  0.6043
  915MOL0     H20729   2.925   8.025   4.936  1.5488 -0.3054 -0.9681
  915MOL0     H20730   2.920   7.884   4.839  0.4872  1.9704 -0.5361
  915MOL0     H20731   2.736   7.939   5.078  0.6124 -0.8010  0.3142
  915MOL0     H20732   2.740   7.785   4.994 -1.3455  0.0353  0.9398
  915MOL0     H20733   2.710   8.145   4.880  1.8763 -2.0315  2.3202
  915MOL0     H20734   2.508   8.191   4.608 -0.8492 -1.1024  0.0623
  915MOL0     H20735   2.488   8.275   4.762  3.1109 -2.0541 -0.0157
  915MOL0     H20736   2.275   8.249   4.801  1.0672  3.0529 -1.1638
  915MOL0     H20737   2.263   8.090   4.719  0.5386 -0.3470 -2.0197
  915MOL0     H20738   2.292   8.372   4.609 -2.7286  0.4566  1.7241
  915MOL0     H20739   2.299   8.232   4.499 -0.3291  2.8696 -1.4443
  915MOL0     H20740   2.073   8.174   4.648 -1.2055  2.2719  1.6157
  915MOL0     H20741   2.076   8.243   4.486 -0.3543  2.4810 -0.7982
  915MOL0     H20742   1.795   8.290   4.554 -3.1041  0.9095  0.6683
  915MOL0     H20743   1.594   8.271   4.698 -0.4488  2.3780 -1.5268
  915MOL0     H20744   1.534   8.453   5.254  0.5864 -0.4105  3.5428
  915MOL0     H20745   1.311   8.467   5.381 -1.0589 -0.6219  1.8145
  915MOL0     H20746   1.147   8.067   5.491  1.7537  0.6637 -0.3913
  915MOL0     H20747   1.053   8.109   5.349  0.9012  0.0380 -0.4367
  915MOL0     H20748   0.865   8.194   5.485 -1.6133 -0.0890  2.6205
  915MOL0     H20749   0.977   8.264   5.594 -0.0811 -2.0541  2.6216
  915MOL0     H20750   1.022   8.035   5.710 -0.8803 -0.4219  0.8609
  915MOL0     H20751   0.914   7.966   5.579 -0.0870 -1.8037  2.2945
  915MOL0     H20752   0.821   8.171   5.794 -0.1949  0.4041 -0.2455
  915MOL0     H20753   0.731   8.074   5.694 -0.9728  0.3912  1.3899
  915MOL0     H20754   0.920   7.970   5.910 -0.9354  1.2188  2.8193
  915MOL0     H20755   0.813   7.861   5.806  1.2689 -1.0239  0.2845
  915MOL0     H20756   0.622   7.943   5.895  0.5987 -2.5927 -1.4737
  915MOL0     H20757   0.693   8.082   5.965  0.3395 -0.2792 -2.2253
  915MOL0     H20758   0.744   7.784   6.066  1.1207 -0.4666  0.9503
  915MOL0     H20759   0.803   7.937   6.147  2.0870 -0.1634 -1.5466
  915MOL0     H20760   0.584   7.999   6.196  0.1641  1.5075 -3.9892
  915MOL0     H20761   0.631   7.844   6.275 -0.6038 -1.2177 -0.7297
  915MOL0     H20762   1.267   8.042   5.294  1.3980 -0.3304  3.9591
  915MOL0     H20763   1.431   8.041   5.150 -2.5469 -0.3350  1.2374
  915MOL0     H20764   1.842   8.337   5.045  0.4075 -2.6751  0.6140
  915MOL0     H20765   2.045   8.375   4.899  0.7001  2.6091 -1.2610
  915MOL0     H20766   3.723   7.711   4.637 -3.6978  0.8474 -0.2763
  915MOL0     H20767   3.959   7.758   4.616  0.1840  1.4629  0.4465
  915MOL0     H20768   4.339   7.893   4.858  0.7069  1.9526  1.4616
  915MOL0     H20769   4.600   7.904   4.847  0.5595  0.3136 -0.3488
  915MOL0     H20770   4.748   8.174   4.792  0.9751  1.8405 -1.1515
  915MOL0     H20771   4.894   8.133   4.719 -0.9598  0.6050 -0.1479
  915MOL0     H20772   4.876   8.052   4.967  1.4471 -3.7871  1.8399
  915MOL0     H20773   4.776   7.923   4.889 -0.6618 -0.1718 -1.5842
  915MOL0     H20774   5.005   7.897   4.737  3.2650  1.5757 -0.9880
  915MOL0     H20775   4.980   7.833   4.900  1.4358 -0.9703 -1.4248
  915MOL0     H20776   5.127   8.105   4.843  0.3831 -1.2353  0.1586
  915MOL0     H20777   5.088   8.048   4.992  3.0029 -1.8848  1.9578
  915MOL0     H20778   5.424   7.809   4.877  1.2563  2.9032  2.0379
  915MOL0     H20779   4.573   8.130   4.485 -1.3108  1.7846 -1.0114
  915MOL0     H20780   4.318   8.112   4.501 -0.8668 -2.7316 -1.0050
  916MOL0     O20781   4.730   3.202   2.028 -0.7430 -0.9975 -0.2273
  916MOL0     C20782   4.756   3.299   2.105 -0.4111  0.1182 -0.2735
  916MOL0     O20783   4.654   3.380   2.161  0.3901  0.0965  1.1635
  916MOL0     C20784   4.531   3.386   2.103 -0.0332  0.6191  0.3682
  916MOL0     C20785   4.415   3.354   2.159  0.0710  0.0133 -0.4547
  916MOL0     C20786   4.297   3.336   2.086 -0.7150 -0.6510  0.5721
  916MOL0     C20787   4.297   3.382   1.950  0.2339 -0.6888 -0.9673
  916MOL0     O20788   4.178   3.380   1.881 -0.0207  0.0948 -0.4412
  916MOL0     C20789   4.134   3.482   1.789 -0.1400  0.1121 -0.1761
  916MOL0     C20790   3.991   3.448   1.749  0.4021 -0.3024  0.3569
  916MOL0     C20791   3.998   3.320   1.660  0.0167  1.6675 -0.5884
  916MOL0     C20792   3.875   3.316   1.572 -1.1236  0.4136  0.6641
  916MOL0     C20793   3.862   3.201   1.478  0.1204 -0.7500  0.3602
  916MOL0     C20794   3.742   3.200   1.384 -0.1396 -0.4792 -0.1665
  916MOL0     C20795   3.606   3.203   1.457  0.4012  0.0847 -0.3546
  916MOL0     C20796   3.500   3.197   1.344  0.6162  0.9622 -0.6862
  916MOL0     N20797   3.368   3.207   1.409  0.1167 -0.0810 -0.5178
  916MOL0     C20798   3.296   3.096   1.457 -1.6096 -0.0514 -0.5978
  916MOL0     C20799   3.185   3.151   1.510  0.0835 -0.1027  0.5025
  916MOL0     C20800   3.069   3.067   1.560  0.2484  0.5130  0.1806
  916MOL0     C20801   2.953   3.147   1.629  0.2931  0.5865  0.0131
  916MOL0     C20802   2.824   3.070   1.638 -0.8385 -0.0681  0.5011
  916MOL0     C20803   2.728   3.130   1.737 -0.3302 -0.8872  0.3140
  916MOL0     O20804   2.609   3.051   1.744  0.1081  0.3092 -0.0872
  916MOL0     C20805   2.498   3.130   1.764 -0.5026 -0.4374  0.2235
  916MOL0     C20806   2.403   3.065   1.840  0.1422  0.2009 -0.1377
  916MOL0     C20807   2.282   3.129   1.883 -0.0624 -0.4206  0.3857
  916MOL0     C20808   2.247   3.259   1.831 -0.4895  0.5010  0.6878
  916MOL0     C20809   2.124   3.321   1.853  0.0533  0.8133  0.6873
  916MOL0     O20810   2.076   3.302   1.976  0.6095  0.5252  0.2955
  916MOL0     C20811   1.945   3.327   2.006  0.6809 -0.0129 -0.0892
  916MOL0     C20812   1.833   3.329   1.925 -1.0927 -0.4048  0.4064
  916MOL0     C20813   1.707   3.339   1.982 -0.3239  1.5057  0.1472
  916MOL0     C20814   1.684   3.351   2.120 -0.0242 -0.4152  0.1993
  916MOL0     O20815   1.563   3.357   2.184  0.4871 -0.1380  0.5936
  916MOL0     C20816   1.448   3.400   2.113 -0.3122  0.1788  0.3504
  916MOL0     C20817   1.332   3.416   2.210 -0.4268 -0.2330 -0.3374
  916MOL0     C20818   1.200   3.455   2.126 -0.6230 -0.0785 -0.1160
  916MOL0     C20819   1.082   3.504   2.205  0.3134 -0.4944 -0.9714
  916MOL0     C20820   0.964   3.551   2.125  0.4247 -0.1252  0.1442
  916MOL0     C20821   0.850   3.586   2.218 -0.5754 -0.1865  1.0098
  916MOL0     C20822   0.740   3.657   2.143  0.6091  0.7554 -0.0161
  916MOL0     C20823   0.633   3.698   2.250 -0.5794 -0.5461 -1.1142
  916MOL0    Cl20824   0.711   3.811   2.379 -0.1744  0.2173 -0.1799
  916MOL0     C20825   1.798   3.350   2.197 -0.2325 -0.9502  0.2124
  916MOL0     C20826   1.932   3.343   2.143  0.6837  0.1793  0.0146
  916MOL0     O20827   2.068   3.379   1.758  0.3061  0.5144 -0.0124
  916MOL0     C20828   2.333   3.320   1.738 -0.3109 -0.0541  0.0983
  916MOL0     C20829   2.458   3.255   1.708  0.8736  0.8845  0.3031
  916MOL0     N20830   3.188   3.286   1.486  0.5706 -0.3420  0.2820
  916MOL0     N20831   3.295   3.321   1.428 -0.3320  0.2430  0.2659
  916MOL0     C20832   4.418   3.414   1.888 -0.0818  0.2802  0.5458
  916MOL0     C20833   4.535   3.421   1.962  0.1881 -0.4125  0.1532
  916MOL0     C20834   4.886   3.299   2.170  0.2094 -0.4809 -0.0776
  916MOL0     C20835   4.918   3.376   2.285  0.7308 -0.1990  0.0443
  916MOL0     C20836   5.044   3.367   2.345  0.0065 -0.3264 -0.2735
  916MOL0     C20837   5.141   3.288   2.288 -0.1455 -0.2530  0.7931
  916MOL0     O20838   5.265   3.300   2.354  0.9508  0.2043  0.5746
  916MOL0     C20839   5.365   3.205   2.322  0.0673  0.5627 -0.3965
  916MOL0     C20840   5.486   3.255   2.408  0.4847 -0.0903 -0.0407
  916MOL0     C20841   5.469   3.254   2.562 -0.6418  0.4502 -0.6239
  916MOL0     C20842   5.579   3.354   2.614  0.6294  0.1482  0.5811
  916MOL0     C20843   5.712   3.300   2.596 -0.9493  0.3390  0.2011
  916MOL0     C20844   5.822   3.253   2.583  0.3545  0.5563  0.2197
  916MOL0     C20845   5.107   3.205   2.175 -0.6938  0.2629 -0.7573
  916MOL0     C20846   4.983   3.212   2.117 -0.5518  0.6454  1.1064
  916MOL0     H20847   4.410   3.339   2.267 -0.3428  2.9336  0.0138
  916MOL0     H20848   4.206   3.302   2.133 -0.7154  0.2135  1.2318
  916MOL0     H20849   4.191   3.486   1.695 -0.9049 -1.2188 -0.7233
  916MOL0     H20850   4.147   3.575   1.845  2.0316  1.7452 -3.0798
  916MOL0     H20851   3.956   3.537   1.697 -3.8196  0.0563  3.2475
  916MOL0     H20852   3.934   3.437   1.843 -0.8457  0.6795 -0.2519
  916MOL0     H20853   4.005   3.230   1.721 -1.2053  0.5245 -2.0837
  916MOL0     H20854   4.087   3.326   1.597  1.3614  0.3992  1.1033
  916MOL0     H20855   3.785   3.315   1.635 -0.0961 -2.7589  2.2575
  916MOL0     H20856   3.878   3.399   1.500  2.7023 -1.3690 -1.5400
  916MOL0     H20857   3.864   3.112   1.541  0.6279  0.5025  2.1763
  916MOL0     H20858   3.949   3.210   1.412  2.9197  0.6620  3.9240
  916MOL0     H20859   3.755   3.105   1.330 -2.7973 -0.5887 -0.7604
  916MOL0     H20860   3.755   3.285   1.316 -3.1445  1.8647  1.9144
  916MOL0     H20861   3.600   3.116   1.523  0.7588  0.6760  0.4829
  916MOL0     H20862   3.592   3.294   1.517 -1.8912 -0.2506 -0.2916
  916MOL0     H20863   3.500   3.104   1.285 -2.0962  1.7664 -2.1235
  916MOL0     H20864   3.506   3.279   1.271 -5.5791  2.9134  0.4508
  916MOL0     H20865   3.338   2.996   1.466 -0.6001  0.3534 -0.5818
  916MOL0     H20866   3.115   2.984   1.615  0.6469 -1.4590 -2.8965
  916MOL0     H20867   3.023   3.011   1.478 -0.1213 -0.2308  0.8787
  916MOL0     H20868   2.933   3.245   1.584  0.3538  1.7043  2.3086
  916MOL0     H20869   2.983   3.161   1.733 -1.8367 -3.5952  1.4329
  916MOL0     H20870   2.790   3.078   1.534  2.3001 -1.3031 -0.7455
  916MOL0     H20871   2.849   2.968   1.668  2.0648  1.1585  2.8018
  916MOL0     H20872   2.708   3.234   1.708 -2.5910 -1.6534 -1.1664
  916MOL0     H20873   2.774   3.139   1.836  1.6636  0.0589 -0.6544
  916MOL0     H20874   2.443   2.973   1.882 -0.9604 -0.0880  0.3158
  916MOL0     H20875   2.211   3.078   1.947 -1.0793  0.0404 -0.3538
  916MOL0     H20876   1.832   3.322   1.816 -0.8740 -0.6497  0.4178
  916MOL0     H20877   1.629   3.314   1.911  1.2680 -2.0570 -0.5783
  916MOL0     H20878   1.421   3.336   2.028 -3.0907  0.3017  1.0501
  916MOL0     H20879   1.460   3.499   2.069  2.5529 -1.2078 -2.4886
  916MOL0     H20880   1.358   3.482   2.293 -3.8369  0.6593  0.1828
  916MOL0     H20881   1.308   3.324   2.264  0.3465 -1.2498 -1.6437
  916MOL0     H20882   1.169   3.381   2.052  0.8482 -0.3031 -0.5518
  916MOL0     H20883   1.244   3.531   2.060  3.0184 -1.6369  0.2802
  916MOL0     H20884   1.049   3.414   2.259 -3.2242  1.7406  0.9580
  916MOL0     H20885   1.111   3.589   2.267  0.1833 -1.3021  0.2250
  916MOL0     H20886   0.941   3.472   2.053  0.9181  0.3399 -0.5396
  916MOL0     H20887   0.991   3.642   2.070 -0.4006  1.3316  2.0274
  916MOL0     H20888   0.887   3.653   2.295  0.6333  0.8658 -0.4402
  916MOL0     H20889   0.814   3.496   2.269  1.7486 -0.7597  1.7508
  916MOL0     H20890   0.775   3.744   2.086  0.7795  1.1262  0.6337
  916MOL0     H20891   0.692   3.582   2.080  0.3726 -0.3891  1.4645
  916MOL0     H20892   0.585   3.612   2.299 -1.3748  1.7732  2.6429
  916MOL0     H20893   0.555   3.749   2.194 -2.4949 -0.4440  1.4357
  916MOL0     H20894   1.793   3.376   2.302  1.9316 -1.7162  0.5590
  916MOL0     H20895   2.025   3.346   2.198  1.8692 -0.9424 -1.7917
  916MOL0     H20896   2.313   3.419   1.699 -1.3873  0.7603  2.5087
  916MOL0     H20897   2.525   3.307   1.640  1.4904  1.2617  1.1770
  916MOL0     H20898   4.419   3.442   1.783  1.8202  1.5706  0.8739
  916MOL0     H20899   4.622   3.451   1.904 -2.9871  1.5586 -4.1801
  916MOL0     H20900   4.842   3.439   2.329  0.1170  1.3013 -2.9853
  916MOL0     H20901   5.060   3.428   2.434 -2.1909  0.5455 -0.4161
  916MOL0     H20902   5.389   3.202   2.215  1.0019  0.3986 -0.1955
  916MOL0     H20903   5.342   3.101   2.348 -2.8909  1.0691 -0.6755
  916MOL0     H20904   5.573   3.198   2.374  1.1375  0.4155  0.7203
  916MOL0     H20905   5.494   3.362   2.384 -1.2595  0.1448  0.2890
  916MOL0     H20906   5.480   3.157   2.612 -1.0508 -0.1306 -1.6240
  916MOL0     H20907   5.368   3.289   2.587 -0.8022 -2.1224  3.2439
  916MOL0     H20908   5.568   3.450   2.562  2.6307  0.0386 -0.1329
  916MOL0     H20909   5.552   3.363   2.720 -1.8062 -2.4847  0.3081
  916MOL0     H20910   5.919   3.210   2.572 -0.1387 -0.3992 -0.6290
  916MOL0     H20911   5.170   3.119   2.152 -0.8731 -0.6444  1.8689
  916MOL0     H20912   4.960   3.148   2.032  1.4827  0.4972  0.6248
  917MOL0     O20913   7.808   9.734   8.808  0.3899  0.5984  0.4844
  917MOL0     C20914   7.795   9.693   8.923  0.0800  0.4194 -0.2154
  917MOL0     O20915   7.894   9.695   9.022 -0.1944  0.6180 -0.4216
  917MOL0     C20916   8.015   9.739   8.985 -0.8293 -0.7413  0.7767
  917MOL0     C20917   8.037   9.872   8.943 -0.1388 -1.2169 -0.3487
  917MOL0     C20918   8.169   9.909   8.895 -0.0747 -0.1159  0.0198
  917MOL0     C20919   8.274   9.816   8.898  0.2182  0.4636 -0.0508
  917MOL0     O20920   8.394   9.867   8.842 -0.9210 -0.2032 -0.2850
  917MOL0     C20921   8.505   9.860   8.924 -0.1431 -0.3160  0.0147
  917MOL0     C20922   8.608   9.941   8.847 -0.1775 -0.5078  0.3775
  917MOL0     C20923   8.748   9.951   8.912  0.0780  0.7771 -0.5761
  917MOL0     C20924   8.843  10.027   8.812  0.3612  0.3063  0.0549
  917MOL0     C20925   8.978  10.059   8.874 -0.7904 -0.5828 -0.0308
  917MOL0     C20926   9.095  10.044   8.770  0.2035 -0.5362  0.2621
  917MOL0     C20927   9.238  10.096   8.807  0.6977  0.5885  0.1051
  917MOL0     C20928   9.257  10.251   8.790  0.3212  0.7379 -0.8169
  917MOL0     N20929   9.369  10.289   8.874 -0.0520 -0.7700 -0.2931
  917MOL0     C20930   9.414  10.422   8.897 -1.1265  0.3110  0.1996
  917MOL0     C20931   9.546  10.416   8.910 -0.4489 -0.0941 -0.2782
  917MOL0     C20932   9.640  10.532   8.908 -0.3986  0.4903  0.3125
  917MOL0     C20933   9.725  10.547   8.781  0.2620  0.2501 -0.7187
  917MOL0     C20934   9.646  10.583   8.651 -1.0203  0.0676 -0.8526
  917MOL0     C20935   9.722  10.559   8.519 -0.8901  0.2388 -0.9544
  917MOL0     O20936   9.643  10.607   8.408  0.9477 -0.5250 -0.2307
  917MOL0     C20937   9.528  10.529   8.395 -0.2963 -0.3221  0.1472
  917MOL0     C20938   9.411  10.587   8.437  0.2975  0.0650  0.6125
  917MOL0     C20939   9.284  10.522   8.429  0.1402 -0.2229 -0.9040
  917MOL0     C20940   9.280  10.391   8.382  0.1642 -0.4326 -0.1585
  917MOL0     C20941   9.153  10.313   8.403 -0.4533  0.6318  0.0714
  917MOL0     O20942   9.051  10.377   8.468 -0.2131 -0.1669  0.1267
  917MOL0     C20943   8.933  10.323   8.498 -0.0074 -0.1530 -0.4847
  917MOL0     C20944   8.865  10.230   8.417 -0.4925 -0.2712 -0.4887
  917MOL0     C20945   8.736  10.190   8.438 -0.0026  1.3114 -0.2464
  917MOL0     C20946   8.668  10.232   8.552  0.1905 -1.6897 -0.2158
  917MOL0     O20947   8.541  10.198   8.592 -0.3078  0.0550  0.5818
  917MOL0     C20948   8.475  10.111   8.503  0.1944  0.0640  0.3187
  917MOL0     C20949   8.339  10.069   8.552 -0.0941  0.8416 -0.5682
  917MOL0     C20950   8.223  10.146   8.476  0.3176 -0.4870  0.1977
  917MOL0     C20951   8.098  10.060   8.439  0.2477  0.3111 -1.0712
  917MOL0     C20952   8.022  10.007   8.563 -0.0414  0.1339 -0.3816
  917MOL0     C20953   7.871   9.968   8.549 -0.9352  0.4888  0.3833
  917MOL0     C20954   7.787  10.066   8.466  0.6979 -0.6206 -0.1952
  917MOL0     C20955   7.625  10.061   8.479 -0.3227 -0.1242  0.2704
  917MOL0    Cl20956   7.596  10.131   8.640  0.6229 -0.2249  0.0773
  917MOL0     C20957   8.733  10.327   8.642  0.2959  0.6620  0.4254
  917MOL0     C20958   8.862  10.371   8.607  0.8162 -0.9133 -0.4780
  917MOL0     O20959   9.166  10.189   8.386 -0.9371  0.0036 -0.1714
  917MOL0     C20960   9.397  10.339   8.324 -0.5507  0.0918  0.0589
  917MOL0     C20961   9.523  10.401   8.339  0.3589  0.5473  0.2178
  917MOL0     N20962   9.593  10.293   8.899  0.6288  0.2269 -0.2759
  917MOL0     N20963   9.486  10.221   8.877 -0.3027 -0.1580  0.7007
  917MOL0     C20964   8.252   9.687   8.938 -0.2201  0.0150 -0.6419
  917MOL0     C20965   8.129   9.655   8.980 -0.0976  0.4255  0.9290
  917MOL0     C20966   7.669   9.624   8.948 -0.1185  0.8464 -0.2002
  917MOL0     C20967   7.628   9.562   9.067 -0.4415  0.2717 -0.2348
  917MOL0     C20968   7.509   9.492   9.069 -0.7089 -0.1645 -0.0630
  917MOL0     C20969   7.410   9.499   8.969  0.2817  0.4066 -0.7900
  917MOL0     O20970   7.297   9.423   8.989 -0.5403 -0.7263 -0.1498
  917MOL0     C20971   7.235   9.359   8.872  0.5851 -0.2097 -0.5122
  917MOL0     C20972   7.109   9.276   8.915 -0.2284  1.0500  1.1483
  917MOL0     C20973   6.992   9.367   8.951 -0.7734 -0.9853  0.0933
  917MOL0     C20974   6.892   9.278   9.030 -0.3580 -0.0607  1.0495
  917MOL0     C20975   6.783   9.366   9.078  0.4986  0.2082  0.4603
  917MOL0     C20976   6.695   9.447   9.100 -0.7029  0.2400 -0.5734
  917MOL0     C20977   7.447   9.567   8.859  0.1435 -0.7392  0.2922
  917MOL0     C20978   7.574   9.621   8.840  0.0645  0.0887 -0.7114
  917MOL0     H20979   7.954   9.938   8.917  0.6068 -0.1051 -0.0030
  917MOL0     H20980   8.176  10.010   8.857 -1.1122 -0.4330 -1.0941
  917MOL0     H20981   8.543   9.757   8.921 -0.8399 -0.5887  0.2670
  917MOL0     H20982   8.483   9.884   9.029 -0.8740  0.9948 -0.4229
  917MOL0     H20983   8.565  10.041   8.832  0.0721 -0.6463 -1.4776
  917MOL0     H20984   8.619   9.892   8.750  1.4766  0.7898 -0.1419
  917MOL0     H20985   8.785   9.849   8.926 -1.0179 -0.0726 -3.1513
  917MOL0     H20986   8.741   9.994   9.012 -2.3461 -0.2976 -0.2262
  917MOL0     H20987   8.854   9.969   8.720  1.7649  0.0247  0.3845
  917MOL0     H20988   8.797  10.120   8.774 -3.6610 -1.3930  0.2414
  917MOL0     H20989   8.998   9.986   8.953  1.1829 -0.2022 -0.1073
  917MOL0     H20990   8.978  10.164   8.905 -0.5420 -0.2765 -1.0263
  917MOL0     H20991   9.050  10.093   8.684 -0.7012  2.1235  2.1064
  917MOL0     H20992   9.111   9.941   8.737  2.3560  0.1045 -0.8858
  917MOL0     H20993   9.272  10.051   8.901 -0.2132 -0.7317 -0.1770
  917MOL0     H20994   9.313  10.054   8.739  2.4486  1.4814  1.4137
  917MOL0     H20995   9.161  10.290   8.824  0.7564 -0.7983  2.5331
  917MOL0     H20996   9.283  10.280   8.687  2.6896  0.4689 -0.3603
  917MOL0     H20997   9.351  10.510   8.906 -1.8120 -0.3951  3.7712
  917MOL0     H20998   9.714  10.510   8.986 -2.3473 -4.1759  1.1377
  917MOL0     H20999   9.600  10.632   8.928 -0.3292  0.4224  0.8000
  917MOL0     H21000   9.762  10.445   8.768  2.3660  0.9131 -0.3850
  917MOL0     H21001   9.812  10.613   8.789  0.8093 -0.4182 -1.0638
  917MOL0     H21002   9.553  10.525   8.657 -0.2878 -1.0196  0.8895
  917MOL0     H21003   9.623  10.690   8.659  1.0843  0.5416 -0.5410
  917MOL0     H21004   9.749  10.453   8.508  1.3988  0.9301 -2.8975
  917MOL0     H21005   9.817  10.612   8.526 -0.9960  0.2770  0.5349
  917MOL0     H21006   9.411  10.686   8.482 -2.2538  0.2963  0.3029
  917MOL0     H21007   9.202  10.565   8.485  1.5473  2.2566 -0.5428
  917MOL0     H21008   8.922  10.199   8.330 -1.6915 -0.6773 -1.1546
  917MOL0     H21009   8.689  10.131   8.360 -3.1814  2.7896  0.4120
  917MOL0     H21010   8.541  10.024   8.488  0.0024  0.2826 -2.1161
  917MOL0     H21011   8.466  10.153   8.403 -1.2605 -4.3865 -1.6888
  917MOL0     H21012   8.339  10.071   8.661  0.5651  1.6316 -0.5755
  917MOL0     H21013   8.342   9.965   8.518  0.6716 -0.5315  3.1762
  917MOL0     H21014   8.270  10.166   8.379  0.1794 -0.4276  0.1426
  917MOL0     H21015   8.193  10.240   8.524  0.3611  1.2194 -2.7989
  917MOL0     H21016   8.030  10.126   8.384 -1.3143 -0.2856  0.0614
  917MOL0     H21017   8.127   9.973   8.380  0.3174  0.3324 -1.0704
  917MOL0     H21018   8.038  10.079   8.644  1.8531  0.9889 -1.4392
  917MOL0     H21019   8.077   9.921   8.603 -0.4720  0.4030  0.8272
  917MOL0     H21020   7.818   9.957   8.644 -1.2261  0.9116  0.2749
  917MOL0     H21021   7.874   9.866   8.508  0.6274 -0.4969  2.7484
  917MOL0     H21022   7.817  10.165   8.500 -0.0243 -0.9813  1.6356
  917MOL0     H21023   7.818  10.056   8.362  1.5845  0.9882 -0.1141
  917MOL0     H21024   7.588   9.959   8.466  1.4355 -0.7902  0.1974
  917MOL0     H21025   7.577  10.130   8.409  3.7790  1.0988 -1.6647
  917MOL0     H21026   8.670  10.360   8.723 -2.4891  3.3207 -2.5485
  917MOL0     H21027   8.919  10.433   8.676  0.0850  0.4843 -1.0932
  917MOL0     H21028   9.390  10.238   8.285 -2.7585 -0.3880  1.4846
  917MOL0     H21029   9.607  10.349   8.294  0.2670 -0.3264  1.0229
  917MOL0     H21030   8.328   9.610   8.938 -0.7103 -0.5148 -2.0842
  917MOL0     H21031   8.120   9.553   9.016 -3.3137  0.3398  0.1817
  917MOL0     H21032   7.696   9.553   9.151  1.2778 -0.6926 -1.6720
  917MOL0     H21033   7.493   9.436   9.160 -0.0310  0.6714  0.5785
  917MOL0     H21034   7.301   9.292   8.816  1.4479  0.9419 -0.9201
  917MOL0     H21035   7.201   9.445   8.814  0.8972  1.4521  1.6455
  917MOL0     H21036   7.081   9.207   8.834  2.7660 -0.4144  1.2218
  917MOL0     H21037   7.135   9.217   9.003  5.6482 -0.1471 -0.9663
  917MOL0     H21038   6.945   9.389   8.854 -0.9442 -2.8359 -0.2892
  917MOL0     H21039   7.020   9.464   8.993  0.3869 -1.7957  1.2801
  917MOL0     H21040   6.850   9.201   8.965  1.4932 -2.0358  2.0617
  917MOL0     H21041   6.935   9.222   9.114 -1.4277 -0.3664  1.4011
  917MOL0     H21042   6.619   9.521   9.113 -1.6816 -0.5970 -1.3688
  917MOL0     H21043   7.375   9.580   8.778 -0.3657 -3.4503  0.1850
  917MOL0     H21044   7.590   9.667   8.743 -1.3947  2.2491 -0.0205
  918MOL0     O21045   3.676  10.762   8.330 -0.2452  0.8897 -0.0051
  918MOL0     C21046   3.661  10.758   8.451  0.3023  0.5957 -0.2088
  918MOL0     O21047   3.552  10.793   8.511 -0.4014  0.0011 -0.1262
  918MOL0     C21048   3.440  10.837   8.453 -0.2940  0.2898  0.4248
  918MOL0     C21049   3.380  10.950   8.516 -0.0147 -0.6411 -0.6327
  918MOL0     C21050   3.250  10.993   8.475 -1.0489  0.1630 -0.8026
  918MOL0     C21051   3.183  10.918   8.383 -0.0922  0.6849 -0.0057
  918MOL0     O21052   3.051  10.952   8.349  0.6854 -0.5694 -0.1804
  918MOL0     C21053   2.953  10.850   8.320 -0.1945 -0.2129 -0.0391
  918MOL0     C21054   2.820  10.903   8.280 -0.0685 -0.3077  0.9442
  918MOL0     C21055   2.747  10.993   8.376  0.0109 -0.9244  0.3365
  918MOL0     C21056   2.623  11.049   8.311 -0.4709 -0.0443  0.2409
  918MOL0     C21057   2.564  11.158   8.399  0.0580 -0.0873  0.0386
  918MOL0     C21058   2.442  11.217   8.326 -0.1303  0.4052  0.0998
  918MOL0     C21059   2.330  11.119   8.294 -0.0304 -0.2330 -0.2788
  918MOL0     C21060   2.255  11.052   8.413  0.4550  0.0756  0.1463
  918MOL0     N21061   2.212  11.133   8.529  0.1732 -0.4039  0.9580
  918MOL0     C21062   2.264  11.124   8.650  0.0655  1.2751 -1.1553
  918MOL0     C21063   2.215  11.232   8.721  0.7414  0.8254 -0.7848
  918MOL0     C21064   2.244  11.281   8.862  0.4639  0.9363 -0.2107
  918MOL0     C21065   2.209  11.172   8.963 -0.0550  1.3262 -0.8486
  918MOL0     C21066   2.252  11.207   9.099 -0.0235 -0.0259 -0.7093
  918MOL0     C21067   2.199  11.111   9.210  0.5354  0.5172  0.3870
  918MOL0     O21068   2.057  11.122   9.205  0.7771 -0.2208  0.2359
  918MOL0     C21069   1.980  11.093   9.317  0.6581 -0.3590  0.2231
  918MOL0     C21070   2.022  11.091   9.452  0.0243 -0.2388 -0.3613
  918MOL0     C21071   1.939  11.037   9.546 -0.1109 -0.4342  0.4041
  918MOL0     C21072   1.808  11.009   9.516  0.9930  0.1774  0.2693
  918MOL0     C21073   1.714  10.954   9.616 -0.5752 -0.1055  1.1934
  918MOL0     O21074   1.578  10.954   9.559 -0.2763 -0.2763  0.3989
  918MOL0     C21075   1.464  10.894   9.608 -0.6851 -1.1645 -0.3857
  918MOL0     C21076   1.449  10.890   9.746 -0.3289 -0.0048 -0.7514
  918MOL0     C21077   1.334  10.835   9.798  0.4135  0.3478 -0.5979
  918MOL0     C21078   1.223  10.806   9.725 -0.5308  0.8107 -0.3280
  918MOL0     O21079   1.098  10.786   9.779 -0.1348  0.3885 -0.5194
  918MOL0     C21080   0.979  10.747   9.695 -0.5828  0.0110 -0.3135
  918MOL0     C21081   0.858  10.735   9.786 -0.4857  0.4710 -0.2874
  918MOL0     C21082   0.883  10.645   9.912  0.0131 -0.5490  0.0681
  918MOL0     C21083   0.772  10.667  10.011  0.2819  0.4688 -0.7162
  918MOL0     C21084   0.727  10.534  10.078  0.0786  0.4499 -0.1205
  918MOL0     C21085   0.614  10.566  10.174  0.4118 -0.0506 -0.6748
  918MOL0     C21086   0.488  10.608  10.099 -0.5214  0.4410 -0.8852
  918MOL0     C21087   0.404  10.693  10.197  0.3701  0.0752 -0.3871
  918MOL0    Cl21088   0.243  10.734  10.129 -0.1345 -0.6604 -0.2159
  918MOL0     C21089   1.243  10.802   9.584 -0.1274 -0.3799 -0.3807
  918MOL0     C21090   1.364  10.851   9.526  0.1163  0.1921  0.2385
  918MOL0     O21091   1.744  10.934   9.724 -0.1931  0.3496 -0.0432
  918MOL0     C21092   1.759  11.018   9.383  0.4371 -0.0035 -0.4213
  918MOL0     C21093   1.844  11.061   9.291 -1.4371 -0.3869  0.5634
  918MOL0     N21094   2.149  11.308   8.630 -0.0200  0.0039  0.9539
  918MOL0     N21095   2.150  11.243   8.516 -0.0659 -0.0646 -0.3176
  918MOL0     C21096   3.248  10.816   8.313 -0.4633  1.4573  0.0230
  918MOL0     C21097   3.370  10.769   8.356  0.6656  0.2220  0.1869
  918MOL0     C21098   3.774  10.735   8.542  0.2599  0.1811 -0.3460
  918MOL0     C21099   3.900  10.712   8.486  0.0244  0.3470  0.8157
  918MOL0     C21100   4.015  10.693   8.557  0.6854 -0.0742 -0.5994
  918MOL0     C21101   4.007  10.685   8.698 -0.2972 -0.8270  0.0544
  918MOL0     O21102   4.111  10.696   8.787  0.1751  0.1781  0.2620
  918MOL0     C21103   4.244  10.649   8.746 -0.3986 -0.6514 -0.1822
  918MOL0     C21104   4.314  10.583   8.867  0.6064  0.7229 -0.7546
  918MOL0     C21105   4.462  10.556   8.853 -0.4124 -0.9691 -0.2919
  918MOL0     C21106   4.548  10.681   8.874 -0.2289 -0.3594 -0.1890
  918MOL0     C21107   4.691  10.647   8.915  0.9686 -0.7322 -0.4457
  918MOL0     C21108   4.808  10.606   8.940 -0.7617 -0.6719 -0.3865
  918MOL0     C21109   3.883  10.700   8.750  0.6214 -0.1077  0.2093
  918MOL0     C21110   3.758  10.719   8.680 -0.7138 -0.4753 -0.5266
  918MOL0     H21111   3.424  11.006   8.598  0.6282  1.4753 -2.3376
  918MOL0     H21112   3.202  11.080   8.520 -2.5889 -1.0714  0.0058
  918MOL0     H21113   2.933  10.784   8.405  0.6888 -1.1940 -0.5789
  918MOL0     H21114   2.992  10.794   8.235 -0.8772 -0.8932  0.0869
  918MOL0     H21115   2.748  10.824   8.256 -1.7341  1.5437 -0.4957
  918MOL0     H21116   2.834  10.961   8.188  1.8486 -2.5190 -0.2527
  918MOL0     H21117   2.811  11.078   8.399 -1.7659  0.5715 -0.0611
  918MOL0     H21118   2.731  10.936   8.469 -1.0435  3.0306  2.8156
  918MOL0     H21119   2.644  11.094   8.213 -2.9329  0.7472 -0.0023
  918MOL0     H21120   2.552  10.967   8.295 -1.8469  1.3977 -1.5579
  918MOL0     H21121   2.643  11.233   8.410  0.5744 -0.8144  1.4538
  918MOL0     H21122   2.541  11.118   8.498 -0.7609 -0.5014 -0.3069
  918MOL0     H21123   2.479  11.252   8.229  1.4451 -4.0035 -1.1594
  918MOL0     H21124   2.399  11.306   8.373  1.1132  2.0639 -1.7464
  918MOL0     H21125   2.252  11.157   8.227  0.5735 -3.0606 -2.8436
  918MOL0     H21126   2.368  11.046   8.221  0.9546 -0.9575  0.9242
  918MOL0     H21127   2.316  10.967   8.447 -1.0335 -2.3807 -2.8665
  918MOL0     H21128   2.170  10.999   8.371 -2.2474  2.6097  2.0133
  918MOL0     H21129   2.323  11.040   8.685  0.0854  1.3927 -0.9039
  918MOL0     H21130   2.205  11.381   8.884  2.0047  1.3115  1.0208
  918MOL0     H21131   2.349  11.310   8.864  0.6098  0.4055  0.9061
  918MOL0     H21132   2.252  11.072   8.953 -1.0242  0.6788  0.9439
  918MOL0     H21133   2.100  11.160   8.958  0.1133  0.2769 -4.0314
  918MOL0     H21134   2.360  11.215   9.115 -0.0061  1.7057 -1.4437
  918MOL0     H21135   2.218  11.308   9.121  2.4853  0.5877  0.7740
  918MOL0     H21136   2.242  11.147   9.304  3.9557 -2.8190  0.3518
  918MOL0     H21137   2.224  11.005   9.199 -2.2638 -0.1871  0.0046
  918MOL0     H21138   2.120  11.116   9.491  0.2333 -2.2162  0.5002
  918MOL0     H21139   1.980  11.046   9.646  3.9274  0.3792 -1.1480
  918MOL0     H21140   1.518  10.936   9.816 -3.3789  1.3565  1.6013
  918MOL0     H21141   1.324  10.828   9.905 -0.7985 -2.5291 -0.8137
  918MOL0     H21142   0.990  10.653   9.641 -3.8409  0.1626 -1.4664
  918MOL0     H21143   0.971  10.824   9.618  1.1444  2.6305  1.9503
  918MOL0     H21144   0.784  10.684   9.723  0.9634  0.1989 -1.8329
  918MOL0     H21145   0.818  10.832   9.818  1.8537  2.0395 -1.7936
  918MOL0     H21146   0.979  10.659   9.962  0.2174  2.3954 -0.9527
  918MOL0     H21147   0.878  10.545   9.868 -2.6843  1.3810 -4.9612
  918MOL0     H21148   0.812  10.731  10.091 -2.8365 -0.7925  2.0816
  918MOL0     H21149   0.685  10.713   9.963 -2.2854  1.8403  4.5062
  918MOL0     H21150   0.808  10.489  10.136 -1.3105 -0.6278  1.0516
  918MOL0     H21151   0.679  10.463  10.010  1.8817 -0.6713 -0.2901
  918MOL0     H21152   0.648  10.640  10.247 -1.3360  1.9549 -1.7917
  918MOL0     H21153   0.575  10.481  10.232 -3.7040  0.9111 -1.7300
  918MOL0     H21154   0.500  10.671  10.010 -3.5523  1.6285 -0.5897
  918MOL0     H21155   0.431  10.523  10.061  1.1640 -0.2177 -2.0187
  918MOL0     H21156   0.463  10.774  10.240 -0.9382  0.4129  0.8533
  918MOL0     H21157   0.377  10.635  10.285 -1.3780  2.4570  0.7476
  918MOL0     H21158   1.174  10.771   9.507  1.1829 -2.4753 -0.7928
  918MOL0     H21159   1.379  10.848   9.419  2.4968  1.4981  0.4577
  918MOL0     H21160   1.656  11.005   9.352  1.4868  1.0535 -4.9694
  918MOL0     H21161   1.807  11.075   9.190 -1.4892 -1.8456  0.3602
  918MOL0     H21162   3.199  10.763   8.233 -1.7759  2.6114  0.0071
  918MOL0     H21163   3.409  10.680   8.309  1.7456  0.7314  0.0872
  918MOL0     H21164   3.915  10.716   8.379  0.5903 -1.1563  0.8227
  918MOL0     H21165   4.103  10.675   8.496  2.0745 -0.4664  1.4003
  918MOL0     H21166   4.304  10.723   8.692 -1.6743  2.1890  2.0044
  918MOL0     H21167   4.220  10.566   8.679 -3.2589  0.5697 -0.8626
  918MOL0     H21168   4.296  10.637   8.960 -4.7767 -1.9080  0.0555
  918MOL0     H21169   4.261  10.491   8.890  0.6007  1.4390  2.4852
  918MOL0     H21170   4.465  10.522   8.749 -0.9648 -0.3496 -0.5201
  918MOL0     H21171   4.492  10.482   8.928  1.4790 -0.6525 -0.6764
  918MOL0     H21172   4.542  10.744   8.784 -2.7516 -0.3012 -0.0303
  918MOL0     H21173   4.504  10.740   8.954 -2.6531  2.6633 -3.4266
  918MOL0     H21174   4.909  10.575   8.960 -0.1999  1.0693 -0.3630
  918MOL0     H21175   3.872  10.708   8.858  1.7103  1.5175  0.2264
  918MOL0     H21176   3.664  10.731   8.732 -0.0417  1.7598  0.2708
  919MOL0     O21177   9.930  10.197   7.358 -0.0712  0.0568 -0.1195
  919MOL0     C21178  10.014  10.278   7.327  0.4932 -0.2055 -0.4028
  919MOL0     O21179   9.986  10.391   7.253  0.3420 -0.2205 -0.6468
  919MOL0     C21180   9.870  10.418   7.190 -0.1659 -0.3158  0.4167
  919MOL0     C21181   9.865  10.550   7.148  1.3170 -0.3769 -0.2327
  919MOL0     C21182   9.744  10.598   7.089  0.4605 -0.2426  0.1314
  919MOL0     C21183   9.635  10.511   7.061  0.2663  0.8730 -0.1313
  919MOL0     O21184   9.516  10.570   7.019 -0.1777  0.3081 -0.8524
  919MOL0     C21185   9.401  10.482   6.997 -0.1476  0.6557 -0.4301
  919MOL0     C21186   9.273  10.548   6.955 -0.6302 -0.2493  0.2422
  919MOL0     C21187   9.169  10.439   6.960 -0.3075  0.3365  0.4193
  919MOL0     C21188   9.113  10.408   7.102 -0.5722 -0.2684 -0.1604
  919MOL0     C21189   9.007  10.303   7.111 -0.1746  0.4614  0.2712
  919MOL0     C21190   8.871  10.342   7.062  0.9555  0.8960  0.8056
  919MOL0     C21191   8.763  10.253   7.139  0.1699  0.1126 -0.3059
  919MOL0     C21192   8.618  10.293   7.081  0.7152  1.1594  0.2400
  919MOL0     N21193   8.516  10.193   7.105  0.0281  0.4096  0.5706
  919MOL0     C21194   8.494  10.140   7.233  0.2583  0.7026 -0.3536
  919MOL0     C21195   8.377  10.072   7.222 -0.2594 -0.3974 -0.4685
  919MOL0     C21196   8.309   9.999   7.331 -0.1376 -0.5222 -0.0332
  919MOL0     C21197   8.158  10.016   7.336 -1.1055 -0.3453 -0.5130
  919MOL0     C21198   8.117   9.991   7.479  0.2203  0.4470  0.3753
  919MOL0     C21199   7.964  10.028   7.491  0.6299  0.0990 -0.2458
  919MOL0     O21200   7.878   9.916   7.443 -0.3503  0.4500 -0.1230
  919MOL0     C21201   7.766   9.909   7.518  0.2945  1.1167  0.3469
  919MOL0     C21202   7.755   9.854   7.650  0.1341 -0.1900 -0.1646
  919MOL0     C21203   7.637   9.846   7.717 -0.8097  0.3406  0.0276
  919MOL0     C21204   7.521   9.877   7.645  0.6315 -0.2058  0.1929
  919MOL0     C21205   7.382   9.851   7.706 -0.2915 -0.0801 -0.8727
  919MOL0     O21206   7.271   9.853   7.621  0.4158  0.5342 -0.1054
  919MOL0     C21207   7.149   9.812   7.668  0.1452 -0.0862  0.2071
  919MOL0     C21208   7.045   9.899   7.657  0.2361  0.2164 -0.3594
  919MOL0     C21209   6.919   9.862   7.709  0.3894 -0.3924 -0.5617
  919MOL0     C21210   6.901   9.733   7.768 -0.3181 -0.5999  0.1310
  919MOL0     O21211   6.774   9.690   7.808  0.3984 -0.1390  0.5807
  919MOL0     C21212   6.764   9.634   7.938 -0.2569  0.1882  0.8078
  919MOL0     C21213   6.674   9.505   7.930  0.4932  0.6393 -0.4020
  919MOL0     C21214   6.704   9.395   8.037 -1.0686  0.4920  0.7096
  919MOL0     C21215   6.839   9.321   8.022  0.7252 -0.4254 -0.4372
  919MOL0     C21216   6.878   9.201   8.103  0.1827 -0.2592  0.1453
  919MOL0     C21217   6.867   9.205   8.254  0.0551 -0.5117 -0.0441
  919MOL0     C21218   6.997   9.239   8.326  0.3706  0.7668  0.1771
  919MOL0     C21219   6.979   9.228   8.476 -0.7212 -0.5848  0.6253
  919MOL0    Cl21220   7.122   9.265   8.583  0.2770 -0.2582  0.1157
  919MOL0     C21221   7.013   9.646   7.768  0.9774 -0.3833  0.0034
  919MOL0     C21222   7.131   9.685   7.723 -0.1693  1.1177  1.9927
  919MOL0     O21223   7.379   9.827   7.827  0.9623  0.8473 -0.1207
  919MOL0     C21224   7.521   9.924   7.511 -0.5309  0.6757 -0.4152
  919MOL0     C21225   7.651   9.944   7.449  0.6628 -0.3429 -0.9850
  919MOL0     N21226   8.341  10.089   7.088  0.1068 -0.7519 -0.2433
  919MOL0     N21227   8.419  10.162   7.019 -0.6395 -0.5572  0.3066
  919MOL0     C21228   9.651  10.375   7.091 -0.8276  1.3688 -0.6019
  919MOL0     C21229   9.770  10.328   7.150  0.1018  0.3544 -0.2271
  919MOL0     C21230  10.155  10.240   7.354 -0.1698  0.6725 -0.5620
  919MOL0     C21231  10.252  10.336   7.352 -0.4105 -0.5975 -0.2942
  919MOL0     C21232  10.382  10.304   7.370 -0.8310  0.8547  0.2386
  919MOL0     C21233  10.426  10.170   7.390 -0.3039  0.4001 -0.5841
  919MOL0     O21234  10.556  10.143   7.423  0.2416  0.3772 -0.5066
  919MOL0     C21235  10.652  10.237   7.381 -0.6458 -0.4405  0.1474
  919MOL0     C21236  10.793  10.192   7.429 -0.1418  0.0549  0.3312
  919MOL0     C21237  10.895  10.248   7.335  0.1165 -0.3336  0.7441
  919MOL0     C21238  11.035  10.186   7.355 -1.2728  0.4688 -0.6255
  919MOL0     C21239  11.133  10.264   7.277  0.4824  0.0754 -0.6560
  919MOL0     C21240  11.228  10.316   7.210 -0.1510 -0.3606  0.1785
  919MOL0     C21241  10.329  10.067   7.382  0.4008 -0.3514  0.7233
  919MOL0     C21242  10.190  10.103   7.372 -0.1856 -0.1718  0.1685
  919MOL0     H21243   9.941  10.626   7.167 -0.7609  1.4695  1.1721
  919MOL0     H21244   9.730  10.704   7.072 -3.6360 -0.4741  1.0533
  919MOL0     H21245   9.401  10.431   7.094 -0.1243  1.2091 -0.1397
  919MOL0     H21246   9.418  10.405   6.921  0.6720 -0.5356  0.8852
  919MOL0     H21247   9.280  10.588   6.854  1.0578  1.2392  0.8954
  919MOL0     H21248   9.247  10.633   7.018  1.4483  1.2650 -0.8081
  919MOL0     H21249   9.218  10.353   6.912  0.3833  2.0795 -2.2208
  919MOL0     H21250   9.095  10.469   6.885 -0.8272 -0.2934  0.6786
  919MOL0     H21251   9.196  10.370   7.163 -2.5022 -2.6546  1.1517
  919MOL0     H21252   9.078  10.504   7.139 -2.1285 -0.8695  0.0106
  919MOL0     H21253   8.998  10.272   7.216  1.1304 -0.4063  0.1612
  919MOL0     H21254   9.053  10.218   7.059 -1.4152  0.2526 -0.5149
  919MOL0     H21255   8.877  10.321   6.954  1.5784  0.6447  0.8861
  919MOL0     H21256   8.844  10.446   7.083 -0.0143  0.6295  0.9669
  919MOL0     H21257   8.778  10.145   7.125 -2.5115 -0.5716  1.3019
  919MOL0     H21258   8.776  10.279   7.244  0.0068  1.9610 -0.7180
  919MOL0     H21259   8.626  10.297   6.972 -1.6808 -3.2413 -0.3237
  919MOL0     H21260   8.577  10.391   7.108 -1.7388  0.4384 -0.6444
  919MOL0     H21261   8.557  10.155   7.320 -1.1210 -1.4758  1.1050
  919MOL0     H21262   8.355  10.041   7.421 -1.4815  1.6682 -0.2866
  919MOL0     H21263   8.334   9.893   7.323  2.5356  0.0316 -0.1339
  919MOL0     H21264   8.104   9.948   7.270 -3.1780  0.0710  0.6751
  919MOL0     H21265   8.127  10.111   7.292 -4.2549 -1.7151 -1.4985
  919MOL0     H21266   8.141   9.889   7.509  1.6981  0.1693 -1.5336
  919MOL0     H21267   8.174  10.052   7.550  1.9400 -1.0567  0.3715
  919MOL0     H21268   7.945  10.126   7.446 -0.5976  0.2355  0.5158
  919MOL0     H21269   7.947  10.047   7.597  1.2127 -2.8484  0.4714
  919MOL0     H21270   7.840   9.816   7.706  1.0016  0.6369 -0.8810
  919MOL0     H21271   7.631   9.824   7.823 -1.6242  2.1399  0.3869
  919MOL0     H21272   7.063   9.993   7.606 -1.4422  2.0457  2.1529
  919MOL0     H21273   6.836   9.931   7.692  1.7380  0.9874 -1.8592
  919MOL0     H21274   6.724   9.709   8.007  0.7155  2.1010 -0.5842
  919MOL0     H21275   6.861   9.604   7.978 -1.9069 -2.6052  3.0958
  919MOL0     H21276   6.686   9.465   7.828  3.2612 -2.4362  0.9162
  919MOL0     H21277   6.570   9.525   7.953  0.4663  1.5419 -1.2208
  919MOL0     H21278   6.621   9.325   8.048 -1.2950  0.5790 -0.3054
  919MOL0     H21279   6.711   9.447   8.132  1.0896 -0.8934  1.3826
  919MOL0     H21280   6.855   9.288   7.919  3.5082 -1.1145  0.1365
  919MOL0     H21281   6.917   9.395   8.038  0.9130 -0.5057 -0.9892
  919MOL0     H21282   6.976   9.161   8.074 -0.6176 -0.7189 -2.1523
  919MOL0     H21283   6.804   9.122   8.082  0.0125 -0.3522  1.0564
  919MOL0     H21284   6.828   9.113   8.297  3.0218 -2.1670 -0.6601
  919MOL0     H21285   6.787   9.277   8.278  1.4000  0.3665  2.1075
  919MOL0     H21286   7.075   9.168   8.295 -0.0207  0.4772 -0.1504
  919MOL0     H21287   7.036   9.337   8.294 -1.0545  1.0471 -0.7795
  919MOL0     H21288   6.928   9.134   8.498 -1.2736 -0.5944 -0.6325
  919MOL0     H21289   6.899   9.297   8.504 -2.5545 -2.0905 -0.6675
  919MOL0     H21290   6.997   9.540   7.785 -0.3972 -0.1269  0.4243
  919MOL0     H21291   7.207   9.607   7.723 -1.2247  0.0140 -0.0162
  919MOL0     H21292   7.435   9.937   7.446 -1.5248  1.3903  0.9927
  919MOL0     H21293   7.661   9.971   7.344  0.1754  0.6695 -0.7848
  919MOL0     H21294   9.573  10.300   7.080 -0.3153  0.8664 -0.8211
  919MOL0     H21295   9.789  10.223   7.173  1.3636  0.6207  0.0441
  919MOL0     H21296  10.224  10.439   7.332 -2.0066 -0.9251  0.1067
  919MOL0     H21297  10.453  10.386   7.364  1.7616 -1.3264 -2.9942
  919MOL0     H21298  10.637  10.336   7.425 -0.1839 -0.0541 -0.5316
  919MOL0     H21299  10.657  10.244   7.272  0.3104  0.3599  0.2278
  919MOL0     H21300  10.813  10.228   7.531 -0.7737 -0.1901  0.5492
  919MOL0     H21301  10.800  10.082   7.429  0.7925  0.1095  0.2095
  919MOL0     H21302  10.895  10.357   7.342 -3.6166 -0.2508  1.6379
  919MOL0     H21303  10.861  10.222   7.234  1.7081 -1.9517  0.5683
  919MOL0     H21304  11.066  10.210   7.457 -3.2111  1.6596 -0.2625
  919MOL0     H21305  11.044  10.079   7.335 -1.0057  0.2026  0.8257
  919MOL0     H21306  11.310  10.355   7.153  2.0971 -1.1654  2.6407
  919MOL0     H21307  10.354   9.963   7.403 -2.2062 -1.2002  0.0867
  919MOL0     H21308  10.111  10.030   7.386 -1.3658  1.2467  1.1909
  920MOL0     O21309   9.990   4.489   7.792  0.4633  0.8188  0.0758
  920MOL0     C21310   9.983   4.425   7.686  0.7161 -0.2556 -0.1918
  920MOL0     O21311   9.865   4.396   7.630 -0.0006 -0.6719  0.3703
  920MOL0     C21312   9.751   4.452   7.682  0.0747 -0.5295  0.2243
  920MOL0     C21313   9.747   4.595   7.699 -0.5369 -0.7691  0.1749
  920MOL0     C21314   9.622   4.647   7.728  0.5870 -0.5236  0.1383
  920MOL0     C21315   9.507   4.574   7.740  0.9103 -0.3049  0.0862
  920MOL0     O21316   9.376   4.613   7.768  0.4495 -0.1461 -0.1927
  920MOL0     C21317   9.355   4.743   7.828 -0.2491  0.5765 -0.1464
  920MOL0     C21318   9.355   4.859   7.721  0.1562  0.4946  0.2802
  920MOL0     C21319   9.233   4.841   7.639  1.3790 -0.3450  0.1939
  920MOL0     C21320   9.197   4.974   7.563 -0.0282  0.0657 -0.3615
  920MOL0     C21321   9.055   4.978   7.509  0.0787 -0.3203 -0.3170
  920MOL0     C21322   9.026   5.110   7.422 -0.0820  0.2337 -0.3105
  920MOL0     C21323   8.887   5.122   7.359 -0.3078  0.2310 -0.2079
  920MOL0     C21324   8.859   5.262   7.316  0.2955  0.0838 -0.1500
  920MOL0     N21325   8.762   5.285   7.206  0.4483  0.7386  0.0461
  920MOL0     C21326   8.621   5.298   7.232  0.1696 -0.2092 -0.2408
  920MOL0     C21327   8.568   5.306   7.109  0.4330 -0.4390 -0.3732
  920MOL0     C21328   8.419   5.299   7.073  0.0884  0.3134  0.0982
  920MOL0     C21329   8.363   5.439   7.031  0.3970  0.3825  0.1749
  920MOL0     C21330   8.275   5.504   7.141  0.3221  0.1302  0.2335
  920MOL0     C21331   8.139   5.438   7.165 -0.5373  0.3851 -0.4834
  920MOL0     O21332   8.030   5.481   7.075  0.2611 -0.7581 -0.6507
  920MOL0     C21333   7.900   5.442   7.095  0.5150 -0.8106 -0.3954
  920MOL0     C21334   7.800   5.468   6.997 -0.3359 -0.1327 -0.3215
  920MOL0     C21335   7.674   5.430   7.015  0.8797  0.0320  0.1969
  920MOL0     C21336   7.625   5.364   7.127  0.1397  0.8890  0.8820
  920MOL0     C21337   7.486   5.315   7.137 -0.5832 -0.1928  0.3750
  920MOL0     O21338   7.407   5.363   7.043 -0.4694  0.7438 -0.1097
  920MOL0     C21339   7.271   5.357   7.069 -0.4030 -0.2270 -0.8322
  920MOL0     C21340   7.199   5.465   7.021 -0.2370 -0.7150  0.5445
  920MOL0     C21341   7.059   5.476   7.027 -0.3222  0.2767 -0.8578
  920MOL0     C21342   6.979   5.373   7.080 -0.3391 -0.4389 -0.2532
  920MOL0     O21343   6.837   5.365   7.079 -0.1027 -0.5317  0.1581
  920MOL0     C21344   6.771   5.482   7.020 -0.0884  0.2786  0.3557
  920MOL0     C21345   6.619   5.470   7.006  0.2133  0.1576 -0.3303
  920MOL0     C21346   6.547   5.433   7.136 -0.1400  0.1837  0.2530
  920MOL0     C21347   6.551   5.277   7.156 -0.5415 -0.0998 -0.2908
  920MOL0     C21348   6.436   5.238   7.247 -0.6747 -0.1361 -0.3169
  920MOL0     C21349   6.296   5.274   7.199 -0.8126  0.7769 -0.3638
  920MOL0     C21350   6.177   5.213   7.289 -0.0777  0.0578  0.3132
  920MOL0     C21351   6.034   5.257   7.236  0.1868 -0.8917 -0.1265
  920MOL0    Cl21352   5.904   5.161   7.326  0.0578 -0.0344 -0.2731
  920MOL0     C21353   7.048   5.267   7.135  0.3429  0.1875 -0.1753
  920MOL0     C21354   7.191   5.249   7.123  0.3293 -0.2105  0.4509
  920MOL0     O21355   7.457   5.241   7.234 -0.1583 -0.4820  0.1403
  920MOL0     C21356   7.715   5.347   7.234  0.9180  0.0072 -0.4498
  920MOL0     C21357   7.851   5.389   7.219 -0.5881 -0.5940  0.1748
  920MOL0     N21358   8.669   5.306   7.015 -0.2314  0.0789  0.1813
  920MOL0     N21359   8.791   5.277   7.073  0.1379  0.2500  0.4689
  920MOL0     C21360   9.514   4.434   7.715 -0.2829 -0.1730 -0.6447
  920MOL0     C21361   9.634   4.376   7.684  0.3406  0.5848  0.3453
  920MOL0     C21362  10.099   4.355   7.619 -0.3198 -0.1673 -0.7627
  920MOL0     C21363  10.101   4.311   7.488  0.1253  0.4397  0.4857
  920MOL0     C21364  10.220   4.260   7.429 -0.0172 -0.6599  0.2904
  920MOL0     C21365  10.342   4.261   7.498 -0.3610 -0.1424 -0.2716
  920MOL0     O21366  10.452   4.227   7.427  0.0650  0.7024  0.1990
  920MOL0     C21367  10.578   4.239   7.489  0.0636  0.4248 -0.4013
  920MOL0     C21368  10.692   4.198   7.400  0.1964  0.6347 -0.0728
  920MOL0     C21369  10.725   4.310   7.303  0.3437 -0.6268  0.3025
  920MOL0     C21370  10.855   4.388   7.346 -0.5562 -0.0268  0.1496
  920MOL0     C21371  10.898   4.462   7.235  0.9411 -0.0864 -1.1636
  920MOL0     C21372  10.938   4.503   7.131  0.7830  0.0104  0.3716
  920MOL0     C21373  10.342   4.305   7.635  0.3060  0.3623  0.3618
  920MOL0     C21374  10.225   4.355   7.688 -0.1207 -0.1679  0.6096
  920MOL0     H21375   9.832   4.662   7.695  0.0740 -1.5822 -1.8353
  920MOL0     H21376   9.619   4.755   7.730 -1.9597 -0.5070 -0.5308
  920MOL0     H21377   9.423   4.757   7.913  0.5544 -0.3325 -0.6270
  920MOL0     H21378   9.258   4.738   7.878  0.0119  1.2852  0.4422
  920MOL0     H21379   9.449   4.877   7.667 -0.9577 -1.5006 -2.6189
  920MOL0     H21380   9.342   4.952   7.775  1.9426  0.7137  0.3866
  920MOL0     H21381   9.144   4.814   7.695 -0.3103  0.0833 -2.1219
  920MOL0     H21382   9.254   4.765   7.563  2.8534 -0.4000  0.6291
  920MOL0     H21383   9.212   5.052   7.639  3.0887 -2.3386  1.7373
  920MOL0     H21384   9.269   4.990   7.482  2.0858 -0.0798  1.4160
  920MOL0     H21385   8.984   4.971   7.592 -0.5188  0.4767 -0.7349
  920MOL0     H21386   9.031   4.893   7.445 -2.2927 -0.8148  1.1044
  920MOL0     H21387   9.112   5.118   7.355  0.8384 -2.3058  0.4829
  920MOL0     H21388   9.037   5.192   7.494 -1.9066  1.1081 -0.9771
  920MOL0     H21389   8.899   5.047   7.280  3.5376  1.6178 -1.1517
  920MOL0     H21390   8.806   5.099   7.429  0.6786 -0.9010  0.6169
  920MOL0     H21391   8.945   5.310   7.268  0.3652 -1.8331 -2.0616
  920MOL0     H21392   8.821   5.319   7.402  1.8470  0.2646  0.4415
  920MOL0     H21393   8.569   5.284   7.326  0.2312 -2.4720 -0.4862
  920MOL0     H21394   8.361   5.262   7.159 -1.9203 -2.4044 -2.2094
  920MOL0     H21395   8.409   5.226   6.992 -1.9948 -0.3138  0.8485
  920MOL0     H21396   8.299   5.425   6.943  1.9475  3.4134 -1.5852
  920MOL0     H21397   8.441   5.508   6.996  0.7102 -1.7037 -3.9263
  920MOL0     H21398   8.334   5.490   7.232  0.4373 -1.5303 -0.0764
  920MOL0     H21399   8.266   5.610   7.115  1.8592  0.0953 -0.5579
  920MOL0     H21400   8.111   5.478   7.263  0.2313  0.2835 -0.2179
  920MOL0     H21401   8.148   5.329   7.170 -2.5403  0.0362 -2.7820
  920MOL0     H21402   7.839   5.521   6.911  2.3891  0.6189  1.2493
  920MOL0     H21403   7.608   5.459   6.935  0.0053  1.6140  1.4366
  920MOL0     H21404   7.255   5.549   6.979  0.3138  0.3372  3.1573
  920MOL0     H21405   7.017   5.565   6.982  0.3361  1.2950  0.4909
  920MOL0     H21406   6.816   5.494   6.921  1.6603  1.7201  1.2652
  920MOL0     H21407   6.804   5.558   7.092 -2.0962  0.5446  1.0522
  920MOL0     H21408   6.591   5.402   6.925 -1.1328 -1.4194  1.3538
  920MOL0     H21409   6.578   5.565   6.968 -1.5278 -1.1241 -1.8289
  920MOL0     H21410   6.446   5.475   7.143  0.2351  0.9799  1.1731
  920MOL0     H21411   6.601   5.467   7.225  1.0001 -1.6585  0.3063
  920MOL0     H21412   6.536   5.222   7.063 -2.4224 -1.2354  0.6083
  920MOL0     H21413   6.637   5.232   7.206  1.5652  4.2390  0.5213
  920MOL0     H21414   6.454   5.276   7.348  3.3759  0.4052 -1.0955
  920MOL0     H21415   6.431   5.129   7.255  0.8623 -0.4021 -2.2822
  920MOL0     H21416   6.277   5.250   7.094  1.7467  0.8259 -0.8988
  920MOL0     H21417   6.288   5.383   7.206 -1.9075  0.6760  0.0927
  920MOL0     H21418   6.184   5.104   7.291  2.9393  0.1566  0.1808
  920MOL0     H21419   6.196   5.243   7.393 -1.5528  1.6382  0.1736
  920MOL0     H21420   6.029   5.223   7.133 -2.2244 -2.1865  0.3522
  920MOL0     H21421   6.015   5.364   7.237 -0.9938 -1.0617 -1.5891
  920MOL0     H21422   6.993   5.184   7.179  0.0807 -0.5167 -1.7438
  920MOL0     H21423   7.238   5.158   7.160  1.1655  0.8922  2.1912
  920MOL0     H21424   7.691   5.324   7.337 -1.7675  0.7976 -0.8204
  920MOL0     H21425   7.908   5.367   7.309 -2.6340 -2.2299  1.1363
  920MOL0     H21426   9.427   4.368   7.715 -0.1924 -0.3470  1.3919
  920MOL0     H21427   9.646   4.269   7.677  1.1239  0.6897 -0.0875
  920MOL0     H21428  10.009   4.317   7.430  1.5776  1.5928 -1.8843
  920MOL0     H21429  10.229   4.220   7.329 -1.0250  0.7668 -0.3970
  920MOL0     H21430  10.588   4.178   7.579 -0.2512  1.3586  0.2842
  920MOL0     H21431  10.592   4.344   7.517 -1.5135 -0.3929  4.4713
  920MOL0     H21432  10.780   4.171   7.460  1.0039  0.4621 -1.2908
  920MOL0     H21433  10.657   4.105   7.353 -0.5281 -0.3268  2.2405
  920MOL0     H21434  10.643   4.383   7.305 -0.1481 -1.1166 -0.9061
  920MOL0     H21435  10.740   4.274   7.201 -1.7516  3.3997 -1.6889
  920MOL0     H21436  10.832   4.458   7.426 -1.8165  0.1156 -0.3234
  920MOL0     H21437  10.935   4.314   7.358 -0.1052 -0.4922 -4.0979
  920MOL0     H21438  10.978   4.555   7.046  3.8212 -3.4257 -0.5963
  920MOL0     H21439  10.431   4.299   7.696  1.3090 -0.3224 -1.1235
  920MOL0     H21440  10.242   4.394   7.788 -0.8667  2.4558 -0.2036
  921MOL0     O21441   7.114   2.591   0.989 -0.1088  0.8497  0.5503
  921MOL0     C21442   7.194   2.505   0.940  1.7734 -0.6715 -0.8254
  921MOL0     O21443   7.148   2.396   0.873 -0.3046  0.0874 -0.1417
  921MOL0     C21444   7.022   2.361   0.858 -0.1321 -0.3541  0.0726
  921MOL0     C21445   6.909   2.403   0.930  0.4076  0.1270 -0.5337
  921MOL0     C21446   6.780   2.358   0.892 -0.2314 -0.4964 -1.6210
  921MOL0     C21447   6.762   2.265   0.787  0.1605  0.1732  0.2591
  921MOL0     O21448   6.634   2.208   0.764 -0.3929  0.2277  0.7005
  921MOL0     C21449   6.565   2.224   0.633 -0.4464 -0.6481  0.1082
  921MOL0     C21450   6.523   2.366   0.609  0.5637  0.1055 -0.4304
  921MOL0     C21451   6.417   2.423   0.710  0.0457 -0.3504  0.2564
  921MOL0     C21452   6.361   2.556   0.678  0.3785  0.7159  0.3568
  921MOL0     C21453   6.281   2.596   0.805  0.1249 -0.3851  0.2548
  921MOL0     C21454   6.171   2.706   0.782  0.1546 -0.2129 -0.2354
  921MOL0     C21455   6.225   2.844   0.772  0.4345  1.0043  0.2262
  921MOL0     C21456   6.109   2.945   0.753  0.3793  0.9331 -0.7413
  921MOL0     N21457   6.152   3.088   0.744  0.0247 -0.7189  0.2973
  921MOL0     C21458   6.257   3.144   0.814 -0.4426 -0.6036  0.0979
  921MOL0     C21459   6.255   3.278   0.777  0.1338  0.2297 -0.0950
  921MOL0     C21460   6.344   3.387   0.826  0.4803 -0.0723  0.1195
  921MOL0     C21461   6.487   3.385   0.786 -0.5562 -0.1350  0.2791
  921MOL0     C21462   6.571   3.492   0.847  0.3197 -0.5718  0.7680
  921MOL0     C21463   6.719   3.464   0.841  0.0462 -0.7488  0.0231
  921MOL0     O21464   6.760   3.346   0.900 -0.0396  0.9865  0.2676
  921MOL0     C21465   6.895   3.318   0.909  0.6798  1.1159 -0.5784
  921MOL0     C21466   6.993   3.420   0.897  0.5264  1.1070  0.1924
  921MOL0     C21467   7.127   3.386   0.897 -0.0143  1.0183  0.5236
  921MOL0     C21468   7.170   3.253   0.908 -0.2454 -0.7148 -0.2147
  921MOL0     C21469   7.315   3.221   0.915 -0.6763 -0.1847  0.1478
  921MOL0     O21470   7.410   3.321   0.913 -0.3688  0.1319  0.5047
  921MOL0     C21471   7.537   3.292   0.948 -0.2509 -0.2929  0.8159
  921MOL0     C21472   7.574   3.197   1.048 -1.3067 -0.2953  0.5467
  921MOL0     C21473   7.707   3.169   1.063 -0.2425  1.1527  0.8514
  921MOL0     C21474   7.806   3.228   0.980  0.4012  0.0459  0.3827
  921MOL0     O21475   7.938   3.198   0.993  0.5709 -0.1827 -0.9939
  921MOL0     C21476   7.978   3.072   1.034 -0.9593  0.1275 -0.2467
  921MOL0     C21477   8.135   3.067   1.022  0.6021  0.8533 -0.2527
  921MOL0     C21478   8.199   3.141   1.138  0.1381 -0.0764 -0.3889
  921MOL0     C21479   8.340   3.177   1.113 -0.9785  0.0366 -0.4344
  921MOL0     C21480   8.400   3.241   1.244 -0.7387  0.2051 -0.5812
  921MOL0     C21481   8.545   3.272   1.225  0.2588 -1.4497 -0.5076
  921MOL0     C21482   8.595   3.345   1.355 -0.3241  0.3203  0.1305
  921MOL0     C21483   8.745   3.341   1.370  0.5604  0.7384  0.6994
  921MOL0    Cl21484   8.804   3.384   1.535  0.0995  0.0105 -0.2179
  921MOL0     C21485   7.773   3.326   0.890  0.4928  0.1676 -0.1360
  921MOL0     C21486   7.638   3.353   0.872  0.5428 -0.0426 -0.0750
  921MOL0     O21487   7.335   3.096   0.917  0.3349  0.1883 -0.3799
  921MOL0     C21488   7.073   3.154   0.926  0.8426  0.4244  1.3518
  921MOL0     C21489   6.938   3.182   0.916 -0.8112  0.6073  0.2664
  921MOL0     N21490   6.150   3.294   0.689 -0.7611  0.2849  0.4859
  921MOL0     N21491   6.087   3.187   0.669 -0.5777  1.3133 -0.9967
  921MOL0     C21492   6.881   2.220   0.719 -0.3624  0.4214  0.1683
  921MOL0     C21493   7.006   2.268   0.756  0.8582 -0.2355  0.2948
  921MOL0     C21494   7.336   2.550   0.946  1.3868  0.8741  0.1876
  921MOL0     C21495   7.423   2.446   0.919  0.6482  0.2534 -0.1935
  921MOL0     C21496   7.561   2.456   0.954  0.2701  0.0048  0.2369
  921MOL0     C21497   7.622   2.576   0.994 -0.6788  0.0965 -0.3422
  921MOL0     O21498   7.759   2.585   1.015 -0.1803 -0.6187  0.5943
  921MOL0     C21499   7.811   2.681   1.101 -0.6267 -0.4349  0.5260
  921MOL0     C21500   7.771   2.644   1.242  0.1359 -0.1553  0.4683
  921MOL0     C21501   7.810   2.762   1.338  0.1241 -0.3490 -0.4646
  921MOL0     C21502   7.963   2.802   1.330  0.7175 -0.2483  0.6339
  921MOL0     C21503   7.983   2.933   1.399  0.3366  0.3465 -0.3121
  921MOL0     C21504   8.014   3.032   1.466 -0.0315  0.1579  0.1254
  921MOL0     C21505   7.534   2.682   1.004 -0.1172 -0.0880  0.5027
  921MOL0     C21506   7.394   2.669   0.983 -0.0218 -0.1385 -0.2314
  921MOL0     H21507   6.928   2.482   1.002 -0.1078 -0.4504  0.2638
  921MOL0     H21508   6.685   2.385   0.937 -0.6671 -2.9434 -0.9066
  921MOL0     H21509   6.482   2.154   0.618  1.9546 -3.3705 -1.6382
  921MOL0     H21510   6.630   2.199   0.549  2.2203  3.2711  0.7193
  921MOL0     H21511   6.467   2.369   0.515  1.2835  2.1716 -0.8607
  921MOL0     H21512   6.607   2.436   0.603  0.7508 -0.2255 -2.7924
  921MOL0     H21513   6.483   2.441   0.796  0.5933  0.3351 -0.3005
  921MOL0     H21514   6.345   2.342   0.731  2.1156 -2.1817  0.6612
  921MOL0     H21515   6.433   2.633   0.649 -1.1695  2.2918  0.5786
  921MOL0     H21516   6.289   2.538   0.598  2.7584  1.9068 -2.2407
  921MOL0     H21517   6.355   2.635   0.875  1.2433  1.7758 -1.9949
  921MOL0     H21518   6.219   2.515   0.845 -1.9592  0.7736 -0.4813
  921MOL0     H21519   6.096   2.703   0.863 -0.2035 -2.3187 -0.5877
  921MOL0     H21520   6.109   2.677   0.697 -1.4657 -0.0141  0.8134
  921MOL0     H21521   6.264   2.883   0.867 -1.3099  2.8386  0.2760
  921MOL0     H21522   6.311   2.852   0.706  2.9167 -0.3959  3.0234
  921MOL0     H21523   6.032   2.938   0.831 -0.7045 -1.4913 -1.9288
  921MOL0     H21524   6.066   2.915   0.657  2.5403 -0.1784 -1.4051
  921MOL0     H21525   6.325   3.099   0.886  3.2066 -0.7535 -3.0758
  921MOL0     H21526   6.345   3.386   0.936  1.9057  1.4666  0.1568
  921MOL0     H21527   6.304   3.485   0.798 -2.0882 -0.3037  2.4867
  921MOL0     H21528   6.515   3.386   0.680  0.0196  0.2620  0.4321
  921MOL0     H21529   6.526   3.289   0.821  0.0366  0.2909  0.8114
  921MOL0     H21530   6.543   3.585   0.799  1.7435 -0.0163  0.9668
  921MOL0     H21531   6.533   3.487   0.950 -4.8570 -2.5515 -0.8696
  921MOL0     H21532   6.758   3.555   0.887 -3.8930  0.0753  2.1345
  921MOL0     H21533   6.745   3.468   0.735 -3.3578  1.6746 -0.8928
  921MOL0     H21534   6.962   3.521   0.873 -0.7821  0.4500 -0.9792
  921MOL0     H21535   7.197   3.468   0.890  0.2235  0.6714 -3.2749
  921MOL0     H21536   7.498   3.161   1.117  0.3173 -1.4899  1.7933
  921MOL0     H21537   7.748   3.099   1.135  3.8433  3.0991  0.7041
  921MOL0     H21538   7.938   3.004   0.958  2.0845 -0.1023 -1.7850
  921MOL0     H21539   7.956   3.046   1.138  3.0337 -0.3117  0.6543
  921MOL0     H21540   8.152   3.106   0.921 -1.4800 -1.5570 -1.6355
  921MOL0     H21541   8.180   2.968   1.022  1.7963  1.3537  1.4142
  921MOL0     H21542   8.183   3.082   1.229 -0.4818  0.7630  0.0621
  921MOL0     H21543   8.154   3.239   1.155  0.3107  0.7373 -3.8985
  921MOL0     H21544   8.397   3.087   1.090  1.2123  1.0161  0.7831
  921MOL0     H21545   8.353   3.241   1.026  0.6924 -0.3194 -0.4700
  921MOL0     H21546   8.385   3.174   1.329  1.2911 -0.1671 -0.4646
  921MOL0     H21547   8.354   3.337   1.267  2.3026  1.8625 -0.9490
  921MOL0     H21548   8.551   3.338   1.138  0.4077  1.8639  1.8263
  921MOL0     H21549   8.601   3.182   1.200 -1.1625 -2.0159 -1.8115
  921MOL0     H21550   8.579   3.453   1.357  1.0591  0.5281  1.9230
  921MOL0     H21551   8.538   3.307   1.440 -1.3928  0.7315 -0.3802
  921MOL0     H21552   8.802   3.397   1.295  0.6782 -1.0337 -0.5985
  921MOL0     H21553   8.779   3.243   1.335 -0.0675  1.1250 -1.1240
  921MOL0     H21554   7.852   3.373   0.832  0.1635  0.5621 -0.2687
  921MOL0     H21555   7.600   3.421   0.797  2.6483 -0.4526 -1.5813
  921MOL0     H21556   7.094   3.048   0.936 -3.4376 -0.5727  1.7479
  921MOL0     H21557   6.866   3.100   0.920 -0.6001  0.2254 -2.3182
  921MOL0     H21558   6.873   2.160   0.629 -0.7227 -0.0629  0.5182
  921MOL0     H21559   7.088   2.236   0.692  0.7018  0.9776 -0.5331
  921MOL0     H21560   7.392   2.349   0.879 -0.6218  0.5262  0.0822
  921MOL0     H21561   7.621   2.379   0.907 -1.0967 -0.6762 -0.4476
  921MOL0     H21562   7.774   2.781   1.074 -1.3956  0.0841  3.2492
  921MOL0     H21563   7.920   2.680   1.092 -0.7284 -0.8812 -1.0477
  921MOL0     H21564   7.663   2.634   1.258 -0.7264  2.3924 -2.6677
  921MOL0     H21565   7.828   2.554   1.266  0.6253 -0.0643 -0.3050
  921MOL0     H21566   7.764   2.731   1.432 -2.8310 -1.0049 -2.0129
  921MOL0     H21567   7.754   2.853   1.317 -1.5499 -0.7862  1.7106
  921MOL0     H21568   8.028   2.726   1.376  1.2366 -1.5961 -2.1087
  921MOL0     H21569   8.004   2.816   1.230  1.2908  2.1788  1.1441
  921MOL0     H21570   8.024   3.113   1.536 -2.0230  1.4906 -1.0208
  921MOL0     H21571   7.566   2.780   1.038 -1.2206  1.1526 -1.8333
  921MOL0     H21572   7.334   2.754   1.015  0.9807  1.3322 -2.0726
  922MOL0     O21573   0.227   7.084  10.090  0.0678 -0.7349  0.0192
  922MOL0     C21574   0.290   7.008  10.165  0.0093  0.0953  0.3070
  922MOL0     O21575   0.238   6.957  10.280  0.3823  0.5736 -0.1192
  922MOL0     C21576   0.101   6.970  10.301 -0.5702  0.2165 -0.2593
  922MOL0     C21577   0.013   6.906  10.216  0.3569  0.6196 -0.0216
  922MOL0     C21578  -0.125   6.915  10.236 -0.4904  0.1863 -0.5484
  922MOL0     C21579  -0.180   6.995  10.338  0.2993  0.2320 -0.4274
  922MOL0     O21580  -0.313   7.013  10.369  0.3448  0.2149  1.0502
  922MOL0     C21581  -0.412   6.947  10.282 -0.2485  0.1202  0.5395
  922MOL0     C21582  -0.560   6.990  10.312  0.1209 -0.2795  0.1702
  922MOL0     C21583  -0.638   6.858  10.337 -0.4903  0.3508 -0.5773
  922MOL0     C21584  -0.788   6.869  10.345 -0.6265  0.5829 -0.2572
  922MOL0     C21585  -0.844   6.721  10.353 -0.3095 -0.2237  0.0145
  922MOL0     C21586  -0.999   6.718  10.329 -0.8638  0.0898  0.2777
  922MOL0     C21587  -1.038   6.579  10.381 -0.8006  0.0792  0.9971
  922MOL0     C21588  -1.190   6.581  10.401 -0.1284 -0.3155  0.2193
  922MOL0     N21589  -1.242   6.567  10.272  0.5745 -0.8343  0.0260
  922MOL0     C21590  -1.295   6.668  10.193  0.3801 -0.2482  0.4709
  922MOL0     C21591  -1.401   6.612  10.129  0.2894  0.4019 -0.4680
  922MOL0     C21592  -1.510   6.684  10.053  0.1395  0.3122  1.1997
  922MOL0     C21593  -1.511   6.638   9.906 -0.0659  0.1973 -0.3700
  922MOL0     C21594  -1.641   6.689   9.833  1.2321  0.0486  0.4163
  922MOL0     C21595  -1.645   6.642   9.683  0.4082 -1.0625  0.1096
  922MOL0     O21596  -1.713   6.734   9.597 -1.0459 -0.0216  0.4199
  922MOL0     C21597  -1.850   6.752   9.593  0.6138  1.4445 -0.1014
  922MOL0     C21598  -1.952   6.693   9.691  0.0157  0.4885  0.7563
  922MOL0     C21599  -2.092   6.682   9.656  0.5006  0.1778 -0.2268
  922MOL0     C21600  -2.139   6.758   9.554  0.2822 -1.0090  0.5681
  922MOL0     C21601  -2.284   6.779   9.544  0.5394  0.2054 -0.3507
  922MOL0     O21602  -2.355   6.736   9.652  0.1416  0.3526  0.4372
  922MOL0     C21603  -2.492   6.716   9.656 -0.1122  0.3522  0.2650
  922MOL0     C21604  -2.556   6.768   9.767 -0.1256  0.2417 -0.3080
  922MOL0     C21605  -2.695   6.765   9.778  0.5210 -0.1952 -0.3348
  922MOL0     C21606  -2.767   6.691   9.678  0.1234 -0.0169  0.6753
  922MOL0     O21607  -2.903   6.681   9.668 -0.3016 -0.9039 -0.3641
  922MOL0     C21608  -2.989   6.751   9.766 -0.5502 -0.5520  0.1172
  922MOL0     C21609  -3.128   6.754   9.707 -0.0294  0.4779 -0.7202
  922MOL0     C21610  -3.128   6.810   9.556 -0.6777 -0.2647 -0.8620
  922MOL0     C21611  -3.276   6.814   9.525  0.3643  0.7578 -0.0898
  922MOL0     C21612  -3.305   6.905   9.405  0.0035  0.4202  0.1954
  922MOL0     C21613  -3.459   6.947   9.401  0.4883  0.1728  0.7698
  922MOL0     C21614  -3.490   7.057   9.514 -0.6320 -0.6119 -0.0590
  922MOL0     C21615  -3.627   7.115   9.490  0.1184  0.4834 -0.4678
  922MOL0    Cl21616  -3.741   6.986   9.534 -0.0913 -0.2748 -0.4262
  922MOL0     C21617  -2.698   6.630   9.578 -0.4445 -0.8845  0.8777
  922MOL0     C21618  -2.564   6.646   9.561  0.2920 -0.7850 -0.0154
  922MOL0     O21619  -2.331   6.816   9.436  0.5044  0.8835  0.2431
  922MOL0     C21620  -2.050   6.832   9.468 -0.2856  0.3508 -1.4507
  922MOL0     C21621  -1.916   6.824   9.490  0.3288  1.3835  0.1394
  922MOL0     N21622  -1.410   6.477  10.159 -0.6183 -0.3886 -0.2656
  922MOL0     N21623  -1.304   6.454  10.241 -0.0358 -0.0518  0.4982
  922MOL0     C21624  -0.086   7.073  10.407  0.1634 -0.0817  0.1629
  922MOL0     C21625   0.051   7.056  10.394 -0.1099 -0.2998  0.1517
  922MOL0     C21626   0.440   7.009  10.137  0.5040 -0.2770 -0.3707
  922MOL0     C21627   0.490   7.045  10.012  0.4303  0.6118  0.6693
  922MOL0     C21628   0.631   7.056   9.986 -0.5037  1.1218 -0.0742
  922MOL0     C21629   0.716   7.044  10.100 -0.2397  0.0701 -0.0693
  922MOL0     O21630   0.849   7.056  10.083 -0.1531  0.3240 -0.1114
  922MOL0     C21631   0.923   6.953  10.022 -0.6449 -0.2394  0.1085
  922MOL0     C21632   1.000   6.883  10.148 -0.8391  0.9140  0.0527
  922MOL0     C21633   1.116   6.969  10.201 -0.0504  0.1616 -0.8446
  922MOL0     C21634   1.210   6.912  10.298  0.4154 -0.0382  0.4307
  922MOL0     C21635   1.246   6.773  10.276 -0.2309  0.6030  0.7501
  922MOL0     C21636   1.261   6.656  10.272 -0.7415  0.3834  0.0879
  922MOL0     C21637   0.661   7.012  10.224  0.2726 -0.0766  0.9974
  922MOL0     C21638   0.530   6.981  10.242  0.0951  0.5055 -0.0362
  922MOL0     H21639   0.040   6.842  10.132 -1.4163 -0.6519  0.3127
  922MOL0     H21640  -0.184   6.851  10.171  2.1837 -3.1432  0.0048
  922MOL0     H21641  -0.407   6.839  10.302 -0.7413  0.2509  1.4036
  922MOL0     H21642  -0.394   6.973  10.177  1.0270 -1.0176  0.4438
  922MOL0     H21643  -0.593   7.050  10.226 -0.7604 -0.7840  0.1478
  922MOL0     H21644  -0.569   7.044  10.407 -2.3368 -1.2741  0.5913
  922MOL0     H21645  -0.595   6.815  10.427  2.0413 -1.0747 -2.3625
  922MOL0     H21646  -0.613   6.790  10.255  0.6477 -2.0062  1.5928
  922MOL0     H21647  -0.816   6.923  10.436  1.9874  1.8693 -0.1207
  922MOL0     H21648  -0.833   6.918  10.259 -0.5465 -0.3324 -0.8343
  922MOL0     H21649  -0.812   6.676  10.448  0.4358 -2.5687 -1.2817
  922MOL0     H21650  -0.797   6.651  10.284  2.6034  0.0242  1.5852
  922MOL0     H21651  -1.011   6.725  10.221  4.8524  0.5433 -0.6716
  922MOL0     H21652  -1.053   6.799  10.378  0.7264 -0.2109  2.7523
  922MOL0     H21653  -1.005   6.511  10.302  2.5666  2.0941  0.5004
  922MOL0     H21654  -0.992   6.551  10.476  3.8425 -0.0658 -1.0708
  922MOL0     H21655  -1.232   6.672  10.444 -0.5578  0.1314 -1.0767
  922MOL0     H21656  -1.216   6.498  10.467 -0.7033  1.0844  1.8161
  922MOL0     H21657  -1.269   6.774  10.190 -1.3296  0.1792 -0.9613
  922MOL0     H21658  -1.516   6.793  10.044 -3.1859  0.0820 -1.3218
  922MOL0     H21659  -1.594   6.644  10.111  0.3165 -1.5883  0.2156
  922MOL0     H21660  -1.515   6.529   9.897 -0.4709  0.0986  0.8008
  922MOL0     H21661  -1.420   6.683   9.866 -0.5212  4.3641  2.5991
  922MOL0     H21662  -1.726   6.649   9.890  2.0184 -1.4452  0.6030
  922MOL0     H21663  -1.649   6.798   9.827  0.0639 -0.0654 -0.5318
  922MOL0     H21664  -1.697   6.545   9.681  0.2424 -1.0882  2.4594
  922MOL0     H21665  -1.542   6.624   9.650  0.1439 -3.0315  0.1816
  922MOL0     H21666  -1.914   6.636   9.775  1.0417 -3.0667 -1.9073
  922MOL0     H21667  -2.152   6.622   9.724 -1.6628  2.3157 -0.1046
  922MOL0     H21668  -2.518   6.830   9.847  0.5273 -2.1110  1.3172
  922MOL0     H21669  -2.744   6.811   9.863 -0.9578 -1.8257 -0.2315
  922MOL0     H21670  -2.954   6.853   9.785 -1.0542 -0.2674 -0.4542
  922MOL0     H21671  -2.992   6.701   9.863 -2.2310  0.0103  0.3739
  922MOL0     H21672  -3.191   6.819   9.769 -1.8581 -0.4119 -1.5804
  922MOL0     H21673  -3.172   6.654   9.704  0.4268  0.1580  1.3949
  922MOL0     H21674  -3.068   6.744   9.494  2.0339  0.4979  0.7962
  922MOL0     H21675  -3.077   6.906   9.548  0.6736 -0.9007 -0.2570
  922MOL0     H21676  -3.301   6.708   9.508  2.8118 -0.1626  1.5463
  922MOL0     H21677  -3.335   6.845   9.611  0.2638 -2.2068  1.0356
  922MOL0     H21678  -3.270   6.848   9.318 -2.6995 -1.5732  0.2770
  922MOL0     H21679  -3.247   6.997   9.413  0.5146  0.3780 -2.2185
  922MOL0     H21680  -3.523   6.858   9.403  1.0130 -0.2144  0.6839
  922MOL0     H21681  -3.483   6.996   9.306 -4.5266  0.2250  1.8323
  922MOL0     H21682  -3.480   7.029   9.619 -2.3767 -0.3509  0.2127
  922MOL0     H21683  -3.409   7.130   9.508 -1.5639  0.7733  2.7782
  922MOL0     H21684  -3.640   7.143   9.385 -1.0724  2.6689  0.2015
  922MOL0     H21685  -3.639   7.209   9.545  1.0696  0.5334 -0.3295
  922MOL0     H21686  -2.756   6.579   9.501  3.1367 -1.4018 -1.7224
  922MOL0     H21687  -2.510   6.604   9.477  1.3637  2.1417 -0.8984
  922MOL0     H21688  -2.082   6.882   9.377 -0.3274  0.6814 -1.2583
  922MOL0     H21689  -1.853   6.866   9.412 -0.3736 -0.2812 -1.4073
  922MOL0     H21690  -0.114   7.146  10.482 -0.7556  0.1232 -0.3680
  922MOL0     H21691   0.115   7.117  10.458  1.9430 -1.5616 -0.6009
  922MOL0     H21692   0.423   7.054   9.927  0.9065 -3.5967 -0.4065
  922MOL0     H21693   0.664   7.078   9.885  0.8302  0.6585  0.2310
  922MOL0     H21694   0.992   6.997   9.948 -1.2200  0.0418 -0.2650
  922MOL0     H21695   0.861   6.888   9.960 -1.7872  3.2000 -2.6443
  922MOL0     H21696   0.928   6.866  10.228 -2.2017 -1.9489 -1.6306
  922MOL0     H21697   1.026   6.781  10.119 -1.9304 -0.2846  2.9385
  922MOL0     H21698   1.074   7.055  10.253 -0.3868 -0.8594  0.6327
  922MOL0     H21699   1.177   7.001  10.116 -2.3648  1.2043 -2.2184
  922MOL0     H21700   1.297   6.978  10.296 -0.6380  1.5137  2.1371
  922MOL0     H21701   1.169   6.932  10.398 -0.8414  0.9011 -0.2416
  922MOL0     H21702   1.290   6.553  10.263  0.4589  0.5112  1.8989
  922MOL0     H21703   0.732   7.010  10.306 -1.4830  0.1322  2.5792
  922MOL0     H21704   0.497   6.950  10.340  2.6314  1.7759  1.3125
  923MOL0     O21705   5.488   9.580   0.879 -0.5205  0.2769 -0.8701
  923MOL0     C21706   5.536   9.482   0.826  0.8333  0.0688 -0.6858
  923MOL0     O21707   5.467   9.375   0.765 -0.6354 -0.0035  0.6455
  923MOL0     C21708   5.336   9.365   0.747  1.0892 -0.0475 -0.8193
  923MOL0     C21709   5.294   9.260   0.661  0.2085  0.4129  0.4318
  923MOL0     C21710   5.160   9.238   0.631 -0.2231  0.2021 -0.2763
  923MOL0     C21711   5.069   9.330   0.682 -0.5706 -0.6349  0.6276
  923MOL0     O21712   4.936   9.313   0.648 -0.0599 -0.4799 -0.1360
  923MOL0     C21713   4.891   9.179   0.644  0.2814  0.2961  0.0323
  923MOL0     C21714   4.739   9.185   0.658  0.0068  0.4400  0.4417
  923MOL0     C21715   4.673   9.266   0.548  0.2210  0.1006 -0.5680
  923MOL0     C21716   4.523   9.266   0.574  0.0707 -1.0354 -0.4226
  923MOL0     C21717   4.433   9.327   0.462 -0.0946  0.5567  0.3526
  923MOL0     C21718   4.282   9.314   0.481  1.4014 -0.3459  0.6597
  923MOL0     C21719   4.205   9.347   0.351  0.4688  1.0933 -0.3594
  923MOL0     C21720   4.058   9.383   0.382 -0.0449 -0.8190  0.1987
  923MOL0     N21721   3.988   9.411   0.261 -0.1294  0.0457  0.6837
  923MOL0     C21722   3.933   9.315   0.175 -0.5094 -0.3970 -0.2770
  923MOL0     C21723   3.866   9.386   0.090 -0.1650 -0.7073  0.1821
  923MOL0     C21724   3.770   9.328  -0.010  1.0914 -0.5305 -0.2847
  923MOL0     C21725   3.836   9.294  -0.142  0.0825 -1.0299  0.4077
  923MOL0     C21726   3.726   9.229  -0.230  0.0732  0.6991  0.2122
  923MOL0     C21727   3.777   9.205  -0.372  0.1824  0.3142  0.1035
  923MOL0     O21728   3.696   9.097  -0.442 -0.7647 -0.3663  0.0348
  923MOL0     C21729   3.569   9.137  -0.489  0.3459  0.6911 -0.2856
  923MOL0     C21730   3.516   9.269  -0.464  0.3186  0.3856  0.7691
  923MOL0     C21731   3.374   9.293  -0.482 -1.1071 -0.4448 -0.2474
  923MOL0     C21732   3.284   9.189  -0.527  0.0228 -0.1360 -1.0176
  923MOL0     C21733   3.144   9.222  -0.554 -0.2262 -0.5978 -0.2344
  923MOL0     O21734   3.080   9.160  -0.658  0.0610 -0.2534 -0.5237
  923MOL0     C21735   2.952   9.212  -0.681 -0.2995 -1.3201  0.3195
  923MOL0     C21736   2.839   9.182  -0.604 -0.1401 -0.0153  0.2495
  923MOL0     C21737   2.715   9.237  -0.641  0.2469  0.3051  0.5998
  923MOL0     C21738   2.703   9.319  -0.757 -0.4552  1.0604  0.7193
  923MOL0     O21739   2.582   9.378  -0.778 -0.2253  0.0570 -0.1329
  923MOL0     C21740   2.559   9.425  -0.911  0.3509  0.4628 -0.6388
  923MOL0     C21741   2.408   9.442  -0.921 -0.1575  0.3961  0.0505
  923MOL0     C21742   2.361   9.516  -1.040  0.4948 -0.0460 -0.1304
  923MOL0     C21743   2.210   9.507  -1.066  0.4863 -1.2484 -0.4666
  923MOL0     C21744   2.116   9.569  -0.963 -0.8413 -1.5085  0.2327
  923MOL0     C21745   2.115   9.726  -0.949 -0.6539 -0.2413 -0.2334
  923MOL0     C21746   2.034   9.786  -0.825  0.0920 -0.7748  0.0401
  923MOL0     C21747   2.088   9.730  -0.694  0.3216 -0.5503  0.5192
  923MOL0    Cl21748   2.273   9.775  -0.678 -0.0233  0.1749  0.0435
  923MOL0     C21749   2.823   9.368  -0.821  0.3764  0.5483 -0.0369
  923MOL0     C21750   2.942   9.309  -0.786  0.3931  0.3882  0.3556
  923MOL0     O21751   3.093   9.306  -0.477  0.3614 -0.1427  0.3368
  923MOL0     C21752   3.346   9.063  -0.561 -0.9407 -0.9356  0.8995
  923MOL0     C21753   3.486   9.041  -0.546 -0.0305  0.5123 -0.0490
  923MOL0     N21754   3.884   9.521   0.116  0.8777 -0.3959 -0.5634
  923MOL0     N21755   3.949   9.536   0.224  0.8684  0.0446  0.1756
  923MOL0     C21756   5.106   9.430   0.768  0.9785 -0.9094  0.1449
  923MOL0     C21757   5.244   9.449   0.801  0.2378  0.1257  0.4439
  923MOL0     C21758   5.681   9.460   0.832  0.1025 -0.4954  0.0461
  923MOL0     C21759   5.734   9.336   0.788 -0.1740  0.6915  0.2723
  923MOL0     C21760   5.874   9.307   0.798  0.7566 -0.3209  0.2948
  923MOL0     C21761   5.959   9.401   0.848 -0.1737 -0.3408  0.4678
  923MOL0     O21762   6.094   9.368   0.845 -1.0170  0.5748 -0.2475
  923MOL0     C21763   6.197   9.454   0.806 -0.5293 -0.5253 -0.0194
  923MOL0     C21764   6.340   9.390   0.804 -0.1598 -0.2090  1.3845
  923MOL0     C21765   6.369   9.318   0.936 -0.8308 -0.0394 -0.5276
  923MOL0     C21766   6.509   9.255   0.943 -0.0513  0.1111 -0.0976
  923MOL0     C21767   6.614   9.356   0.942  0.2376  0.7555 -0.8281
  923MOL0     C21768   6.707   9.436   0.940 -0.6932 -0.5862  0.6328
  923MOL0     C21769   5.907   9.518   0.895  0.7757 -0.0747 -0.2165
  923MOL0     C21770   5.769   9.562   0.868 -0.0132  0.9061 -1.1166
  923MOL0     H21771   5.375   9.193   0.635  1.4690  1.5491  1.2600
  923MOL0     H21772   5.141   9.158   0.561  2.2750 -1.7862  1.1213
  923MOL0     H21773   4.941   9.121   0.721  0.8215 -0.3778 -0.8122
  923MOL0     H21774   4.916   9.148   0.542 -1.6798  0.5392 -0.5662
  923MOL0     H21775   4.715   9.232   0.754  0.4015 -1.0495  1.3164
  923MOL0     H21776   4.704   9.082   0.673  0.5644  0.1906  0.0490
  923MOL0     H21777   4.681   9.212   0.453  3.0896 -1.1990  0.2852
  923MOL0     H21778   4.711   9.368   0.540 -0.9436  0.5664 -0.3947
  923MOL0     H21779   4.477   9.170   0.599 -1.4035 -0.5629 -1.2018
  923MOL0     H21780   4.519   9.330   0.663 -0.0898  1.8835 -2.3769
  923MOL0     H21781   4.451   9.265   0.373 -0.1289  3.2733 -1.6930
  923MOL0     H21782   4.471   9.427   0.441 -1.2523  0.8286 -0.5727
  923MOL0     H21783   4.250   9.389   0.554 -0.8880 -1.0872  0.4997
  923MOL0     H21784   4.248   9.213   0.505  1.3657 -1.3144 -3.0080
  923MOL0     H21785   4.258   9.434   0.313  1.7149  1.3988  1.9305
  923MOL0     H21786   4.208   9.267   0.277  0.7544  0.9527 -0.1947
  923MOL0     H21787   4.059   9.467   0.452 -2.1218  0.5549 -1.3106
  923MOL0     H21788   4.002   9.305   0.436  1.1972 -0.4478  2.1140
  923MOL0     H21789   3.954   9.211   0.199 -0.8061 -0.9568 -2.2696
  923MOL0     H21790   3.709   9.419  -0.014  3.9536  1.6399  1.5453
  923MOL0     H21791   3.711   9.247   0.035 -0.9722  0.9869 -0.1090
  923MOL0     H21792   3.907   9.213  -0.127  0.9030 -0.6871 -1.3505
  923MOL0     H21793   3.885   9.380  -0.189 -0.4229 -1.8816 -1.8173
  923MOL0     H21794   3.697   9.133  -0.186  1.9220  1.2688  2.9011
  923MOL0     H21795   3.636   9.293  -0.232  0.0951  0.8573  2.2584
  923MOL0     H21796   3.882   9.176  -0.376  1.1312  3.4912 -2.8268
  923MOL0     H21797   3.790   9.300  -0.425  0.7009  1.3248  1.9418
  923MOL0     H21798   3.570   9.363  -0.454  0.0893  0.7671 -1.1522
  923MOL0     H21799   3.331   9.392  -0.495  2.3138  1.1202 -0.7616
  923MOL0     H21800   2.852   9.119  -0.516 -0.1449  2.3887  2.0651
  923MOL0     H21801   2.628   9.233  -0.576  1.6113  1.2503  2.5497
  923MOL0     H21802   2.602   9.352  -0.980 -1.2316 -1.4655  0.3250
  923MOL0     H21803   2.602   9.526  -0.917 -1.1311  1.1061 -0.9461
  923MOL0     H21804   2.378   9.494  -0.830  0.6049 -1.8240  1.6614
  923MOL0     H21805   2.356   9.346  -0.927 -0.1717  0.4810 -4.0381
  923MOL0     H21806   2.415   9.476  -1.127  2.2046 -2.7500  1.9870
  923MOL0     H21807   2.380   9.623  -1.035 -1.8087  0.4956 -1.5457
  923MOL0     H21808   2.189   9.558  -1.160  2.7396  1.2401  0.2318
  923MOL0     H21809   2.171   9.409  -1.093  1.3616 -1.7153 -0.0894
  923MOL0     H21810   2.154   9.524  -0.870  2.8351  1.1714  0.2542
  923MOL0     H21811   2.016   9.528  -0.976 -1.0858 -0.8217 -0.0706
  923MOL0     H21812   2.094   9.775  -1.044  1.4152 -0.5062 -0.8735
  923MOL0     H21813   2.218   9.758  -0.931 -1.5683  1.9593  1.5087
  923MOL0     H21814   2.038   9.895  -0.817 -0.8790 -0.6713 -0.8080
  923MOL0     H21815   1.935   9.745  -0.842 -1.1944  1.4559  1.6159
  923MOL0     H21816   2.071   9.622  -0.692  1.7439 -0.8286 -0.4809
  923MOL0     H21817   2.030   9.771  -0.611  0.5162  1.1356 -0.1421
  923MOL0     H21818   2.840   9.441  -0.900  1.2880  0.1405 -0.2404
  923MOL0     H21819   3.035   9.319  -0.841  0.2804 -3.7801 -0.9236
  923MOL0     H21820   3.281   8.988  -0.605  0.2972 -3.2549  2.7541
  923MOL0     H21821   3.532   8.946  -0.571 -2.4009 -0.9155  0.6138
  923MOL0     H21822   5.026   9.493   0.808 -0.6281 -1.8835 -1.3902
  923MOL0     H21823   5.278   9.515   0.880  1.0709 -0.4126  0.5394
  923MOL0     H21824   5.692   9.249   0.739  0.4993 -0.7862  2.1809
  923MOL0     H21825   5.918   9.218   0.753  2.0362 -0.8187  2.3739
  923MOL0     H21826   6.198   9.538   0.876 -2.4279 -1.9516  1.8397
  923MOL0     H21827   6.183   9.496   0.706  0.2950 -0.9900 -0.3419
  923MOL0     H21828   6.351   9.329   0.713  2.5749  1.1955  0.6649
  923MOL0     H21829   6.412   9.472   0.794 -0.3197 -0.1355  0.7531
  923MOL0     H21830   6.288   9.246   0.949 -0.9122  0.4924  2.5341
  923MOL0     H21831   6.354   9.384   1.022  1.3344 -1.5121  1.0714
  923MOL0     H21832   6.513   9.182   1.025  0.0498  0.3668  0.1274
  923MOL0     H21833   6.522   9.191   0.856  0.6498 -1.6428  1.2298
  923MOL0     H21834   6.788   9.504   0.926 -1.0851 -0.0420  0.9606
  923MOL0     H21835   5.980   9.591   0.930 -0.3953  1.3888 -0.7476
  923MOL0     H21836   5.740   9.661   0.903 -1.5016 -0.3683  1.5432
  924MOL0     O21837   0.875   0.474   9.215 -0.3958  0.0159  0.1568
  924MOL0     C21838   0.907   0.557   9.296 -0.9469 -0.5481 -0.0816
  924MOL0     O21839   0.832   0.634   9.373 -0.3694 -0.5081  0.5433
  924MOL0     C21840   0.702   0.598   9.368 -0.0828 -0.8254 -1.2314
  924MOL0     C21841   0.624   0.636   9.259 -0.9021  0.5611  0.5728
  924MOL0     C21842   0.488   0.607   9.261  0.3738  0.8258  0.1294
  924MOL0     C21843   0.427   0.539   9.368 -0.1847 -0.3529 -0.2979
  924MOL0     O21844   0.290   0.530   9.364  0.1980  0.1370 -0.2213
  924MOL0     C21845   0.206   0.464   9.476  0.0618 -0.0689  0.4963
  924MOL0     C21846   0.063   0.505   9.439 -0.6317 -0.8772  0.6419
  924MOL0     C21847  -0.028   0.452   9.551 -0.4411 -0.4846 -0.1416
  924MOL0     C21848  -0.168   0.514   9.546  0.0189 -0.7354 -0.0810
  924MOL0     C21849  -0.260   0.428   9.638 -0.4861 -0.5282 -0.1540
  924MOL0     C21850  -0.376   0.514   9.686  0.2973  0.4452 -0.5027
  924MOL0     C21851  -0.472   0.460   9.797 -0.3654 -0.6432  0.7704
  924MOL0     C21852  -0.566   0.357   9.739  0.2769  0.0966  0.3719
  924MOL0     N21853  -0.666   0.420   9.645 -0.9660 -0.1788 -0.6495
  924MOL0     C21854  -0.745   0.532   9.674  0.7981  0.8024 -0.6112
  924MOL0     C21855  -0.785   0.573   9.551  0.2301 -0.1248  0.9100
  924MOL0     C21856  -0.875   0.682   9.519  0.5227 -0.2358  0.3228
  924MOL0     C21857  -0.999   0.628   9.446  0.6462  0.2085 -0.1229
  924MOL0     C21858  -1.087   0.535   9.528  0.4154  0.1824 -0.2499
  924MOL0     C21859  -1.223   0.516   9.464  0.1021 -0.0990 -0.2794
  924MOL0     O21860  -1.295   0.644   9.481  0.5583 -0.1427 -0.3675
  924MOL0     C21861  -1.423   0.630   9.533 -1.3787  0.8056  0.2942
  924MOL0     C21862  -1.521   0.577   9.446 -0.4263 -0.2993 -0.7074
  924MOL0     C21863  -1.651   0.575   9.493  0.4689 -0.5648 -0.2974
  924MOL0     C21864  -1.692   0.631   9.616  0.7974 -0.6418 -0.2731
  924MOL0     C21865  -1.836   0.633   9.661  0.1346  0.5015  0.7973
  924MOL0     O21866  -1.921   0.586   9.566 -0.0312 -0.0036  0.5982
  924MOL0     C21867  -2.052   0.556   9.592 -0.3566  0.1569  0.3068
  924MOL0     C21868  -2.099   0.480   9.699  0.7684 -0.1171 -1.0707
  924MOL0     C21869  -2.234   0.460   9.705  1.0455 -0.4807  0.2242
  924MOL0     C21870  -2.323   0.502   9.604  0.3214 -0.0113  0.6272
  924MOL0     O21871  -2.454   0.453   9.622  0.1843  0.0729 -0.0189
  924MOL0     C21872  -2.544   0.490   9.521  0.5182  0.0683  0.2900
  924MOL0     C21873  -2.695   0.425   9.535 -0.7952  0.8112 -0.2746
  924MOL0     C21874  -2.813   0.501   9.477 -0.1836 -0.2880  0.2310
  924MOL0     C21875  -2.953   0.434   9.483 -0.4923  0.7196 -0.2090
  924MOL0     C21876  -3.071   0.527   9.450  0.7145 -0.1805 -0.3207
  924MOL0     C21877  -3.196   0.451   9.392 -0.4212  1.0332  0.0399
  924MOL0     C21878  -3.323   0.525   9.411 -0.2712 -0.6153 -0.0681
  924MOL0     C21879  -3.441   0.484   9.314  0.5475  0.3362  0.2829
  924MOL0    Cl21880  -3.518   0.349   9.390  1.0372 -0.3924 -0.2747
  924MOL0     C21881  -2.276   0.585   9.500  0.1144 -0.2379 -0.6215
  924MOL0     C21882  -2.138   0.607   9.491  0.4249  0.3868 -0.9354
  924MOL0     O21883  -1.869   0.673   9.775 -0.4626  0.6637  0.4189
  924MOL0     C21884  -1.592   0.677   9.701 -0.1227  0.3965  0.4181
  924MOL0     C21885  -1.457   0.675   9.659 -0.3635  0.7860 -0.5984
  924MOL0     N21886  -0.737   0.480   9.454 -0.7010 -0.1782  0.1430
  924MOL0     N21887  -0.669   0.393   9.509 -0.3106  1.0266 -0.3281
  924MOL0     C21888   0.511   0.500   9.483  0.1395 -0.4145  0.0159
  924MOL0     C21889   0.641   0.534   9.480 -0.8225 -0.6514  0.8993
  924MOL0     C21890   1.058   0.567   9.304 -0.5292 -0.4872  0.1829
  924MOL0     C21891   1.144   0.500   9.206 -0.5290 -0.5467 -0.7326
  924MOL0     C21892   1.287   0.526   9.211 -0.3784  0.8386  0.1837
  924MOL0     C21893   1.341   0.609   9.302  0.0377  0.3164  0.7759
  924MOL0     O21894   1.469   0.643   9.278 -0.3697  0.1836 -0.6019
  924MOL0     C21895   1.521   0.759   9.342 -0.2173 -0.1514 -0.5325
  924MOL0     C21896   1.655   0.791   9.270 -0.7200 -0.6129 -0.3997
  924MOL0     C21897   1.765   0.684   9.291  0.8277  0.8715  0.0401
  924MOL0     C21898   1.899   0.738   9.250  1.4812  0.2371  0.0414
  924MOL0     C21899   1.956   0.845   9.337  0.8340 -0.6882 -1.0019
  924MOL0     C21900   1.985   0.932   9.414 -0.7104  0.6468  0.4915
  924MOL0     C21901   1.260   0.664   9.400  1.0207  0.2047  0.7033
  924MOL0     C21902   1.124   0.655   9.395  0.7230  0.3511 -0.6721
  924MOL0     H21903   0.668   0.678   9.170 -1.1060 -1.6460 -0.6125
  924MOL0     H21904   0.433   0.650   9.178  0.8338  1.8596  0.3417
  924MOL0     H21905   0.232   0.511   9.571 -0.9647 -0.3084  0.9044
  924MOL0     H21906   0.214   0.355   9.471 -3.3643 -0.4601  1.3861
  924MOL0     H21907   0.049   0.468   9.337 -0.1068 -0.6153  0.4681
  924MOL0     H21908   0.062   0.615   9.440  0.8010 -0.8057  2.7673
  924MOL0     H21909   0.023   0.490   9.640  1.7287 -1.1639 -1.0475
  924MOL0     H21910  -0.034   0.343   9.552  4.5425 -0.9433  0.6414
  924MOL0     H21911  -0.158   0.618   9.578  1.8583 -0.0895 -2.4322
  924MOL0     H21912  -0.205   0.500   9.444 -3.6996 -2.3524  1.3079
  924MOL0     H21913  -0.199   0.387   9.720  1.2991  1.2778 -0.5135
  924MOL0     H21914  -0.285   0.337   9.583  1.1556 -0.7055 -0.6602
  924MOL0     H21915  -0.437   0.544   9.601 -0.2214 -2.4443 -1.2694
  924MOL0     H21916  -0.334   0.607   9.725 -1.5022  0.2780  2.0407
  924MOL0     H21917  -0.419   0.411   9.879  1.7232 -1.5477 -1.0286
  924MOL0     H21918  -0.528   0.539   9.848 -0.0646 -1.3086  2.1948
  924MOL0     H21919  -0.617   0.303   9.819  0.9329  0.5908  1.1300
  924MOL0     H21920  -0.508   0.286   9.679  2.0411  2.4882 -0.8933
  924MOL0     H21921  -0.772   0.577   9.769  1.2883  1.3637 -0.7289
  924MOL0     H21922  -0.818   0.753   9.458  0.8353 -0.1077  0.7651
  924MOL0     H21923  -0.903   0.732   9.612  2.0789 -1.4923  1.5208
  924MOL0     H21924  -0.966   0.563   9.364 -1.3168  0.2694 -1.0125
  924MOL0     H21925  -1.060   0.707   9.401 -0.2290 -0.4018 -0.0366
  924MOL0     H21926  -1.035   0.438   9.525  2.7936  1.3779 -3.4748
  924MOL0     H21927  -1.115   0.569   9.628 -3.1137 -0.4209 -0.8877
  924MOL0     H21928  -1.272   0.440   9.526  1.1650  1.5428  2.7222
  924MOL0     H21929  -1.220   0.476   9.362 -0.4278 -1.6729  0.2834
  924MOL0     H21930  -1.487   0.546   9.347  1.4233  0.2365 -0.2782
  924MOL0     H21931  -1.729   0.527   9.435 -0.4299  0.3417  0.1366
  924MOL0     H21932  -2.033   0.444   9.777  0.3183 -2.2656 -1.6230
  924MOL0     H21933  -2.284   0.416   9.790  1.8261  0.8988  1.4346
  924MOL0     H21934  -2.511   0.450   9.425  2.1018 -0.4552  1.0065
  924MOL0     H21935  -2.547   0.598   9.503  0.8911 -0.3329 -2.6490
  924MOL0     H21936  -2.710   0.411   9.642  1.8060 -0.6033  0.0085
  924MOL0     H21937  -2.685   0.325   9.490 -0.5639  1.0003 -0.6514
  924MOL0     H21938  -2.791   0.520   9.372  0.2433  1.6441  0.6331
  924MOL0     H21939  -2.826   0.600   9.520 -0.5715 -0.5019  0.6271
  924MOL0     H21940  -2.960   0.347   9.418 -2.3127  1.4369 -1.0575
  924MOL0     H21941  -2.968   0.396   9.584  0.9418 -0.2743 -0.3361
  924MOL0     H21942  -3.041   0.598   9.373 -0.3986 -2.2420 -2.8211
  924MOL0     H21943  -3.103   0.588   9.535  0.1479  0.9985 -1.3498
  924MOL0     H21944  -3.206   0.362   9.454  1.0490  0.6451 -0.2474
  924MOL0     H21945  -3.181   0.425   9.287  0.2046  2.0743 -0.1417
  924MOL0     H21946  -3.359   0.512   9.513 -0.6418 -2.9544 -0.4256
  924MOL0     H21947  -3.303   0.631   9.394 -0.1150 -1.0186 -3.1082
  924MOL0     H21948  -3.413   0.452   9.213  1.0441 -0.6993  0.7247
  924MOL0     H21949  -3.504   0.573   9.313  0.2487  0.1262  0.1346
  924MOL0     H21950  -2.347   0.611   9.422 -2.1137 -0.0950  1.3202
  924MOL0     H21951  -2.087   0.656   9.408  1.1141 -0.1029 -0.8085
  924MOL0     H21952  -1.620   0.705   9.801  0.4720  0.7943  0.4750
  924MOL0     H21953  -1.381   0.713   9.725  0.8079 -1.1665 -0.7367
  924MOL0     H21954   0.469   0.458   9.574  0.3107 -1.6761 -0.4715
  924MOL0     H21955   0.706   0.505   9.562  2.1242  0.0474 -1.0219
  924MOL0     H21956   1.093   0.448   9.125 -0.3573  0.1986 -1.3323
  924MOL0     H21957   1.341   0.483   9.128 -0.3380 -1.6540  1.4336
  924MOL0     H21958   1.537   0.735   9.447 -2.0561 -0.9300 -0.3884
  924MOL0     H21959   1.461   0.850   9.329 -0.9734 -0.5742 -0.0942
  924MOL0     H21960   1.645   0.799   9.162  0.9450  2.0520 -0.4526
  924MOL0     H21961   1.693   0.889   9.300 -0.2225 -0.9901  0.2278
  924MOL0     H21962   1.748   0.602   9.220 -1.9455  0.5867  0.9453
  924MOL0     H21963   1.755   0.647   9.393 -2.3467 -2.3156 -1.2103
  924MOL0     H21964   1.967   0.652   9.247  4.1384  2.1507  1.0692
  924MOL0     H21965   1.891   0.772   9.146  1.6868 -0.0253 -0.0618
  924MOL0     H21966   2.015   1.010   9.481 -1.1708  1.1034  0.1772
  924MOL0     H21967   1.306   0.724   9.479  0.8545 -0.5453  1.3863
  924MOL0     H21968   1.063   0.711   9.466  0.7728 -0.1393 -0.2358
  925MOL0     O21969   5.259   4.322   2.684  0.1157 -0.2925  0.1332
  925MOL0     C21970   5.274   4.234   2.601  0.3176 -0.2363 -0.5241
  925MOL0     O21971   5.171   4.163   2.534  0.3571  0.4385  0.1511
  925MOL0     C21972   5.041   4.201   2.572 -1.2183  0.8587  0.5771
  925MOL0     C21973   4.986   4.206   2.705  0.4518 -0.1904 -0.5631
  925MOL0     C21974   4.856   4.244   2.735 -0.6799  0.1762  0.2804
  925MOL0     C21975   4.764   4.260   2.625 -1.0898 -0.3692 -0.1885
  925MOL0     O21976   4.629   4.279   2.641  0.7729 -0.6955 -0.1388
  925MOL0     C21977   4.576   4.266   2.783 -0.1227 -0.5573  0.5529
  925MOL0     C21978   4.442   4.194   2.784 -0.6429 -0.5081  0.5157
  925MOL0     C21979   4.327   4.273   2.714 -0.2411 -0.2696  0.4780
  925MOL0     C21980   4.192   4.205   2.710 -0.1945  0.1182  1.0124
  925MOL0     C21981   4.080   4.290   2.638 -0.0121  0.3300  0.5758
  925MOL0     C21982   4.036   4.428   2.695 -0.0335  1.0239 -0.3448
  925MOL0     C21983   3.994   4.416   2.843 -0.1786 -0.0876 -1.3414
  925MOL0     C21984   3.870   4.340   2.878  0.0224  0.0051 -0.0553
  925MOL0     N21985   3.748   4.377   2.808 -0.1349  0.2141 -0.0232
  925MOL0     C21986   3.719   4.330   2.681  0.3424  0.5342 -0.1122
  925MOL0     C21987   3.608   4.399   2.649  0.2577  0.1261  1.3159
  925MOL0     C21988   3.526   4.389   2.523  0.3003 -0.6722  1.9186
  925MOL0     C21989   3.377   4.377   2.553 -0.8382 -0.2346  0.2497
  925MOL0     C21990   3.293   4.338   2.431  0.0811  0.8615 -0.3408
  925MOL0     C21991   3.152   4.401   2.429  0.2557 -0.4780 -0.3989
  925MOL0     O21992   3.086   4.375   2.304  0.7110 -0.0724 -0.2087
  925MOL0     C21993   2.950   4.401   2.289 -1.4753  0.8669  0.7680
  925MOL0     C21994   2.898   4.384   2.160  0.5824 -0.4669  0.2211
  925MOL0     C21995   2.761   4.405   2.137 -0.0199 -0.4528  0.5014
  925MOL0     C21996   2.677   4.451   2.242  0.0782 -0.2786  0.2208
  925MOL0     C21997   2.538   4.490   2.212 -0.7463 -0.1981  0.1341
  925MOL0     O21998   2.483   4.585   2.293 -0.2513  0.1559 -0.4605
  925MOL0     C21999   2.346   4.633   2.292 -0.8055  0.0778 -0.6784
  925MOL0     C22000   2.234   4.568   2.231  0.3921  0.6114  0.4301
  925MOL0     C22001   2.105   4.622   2.219 -0.4316 -0.2359  0.1863
  925MOL0     C22002   2.072   4.732   2.297 -0.3388  0.7876 -0.0286
  925MOL0     O22003   1.945   4.768   2.305 -0.4403  0.4449 -0.8256
  925MOL0     C22004   1.900   4.877   2.393 -0.0576  0.0099  0.2366
  925MOL0     C22005   1.748   4.897   2.378 -0.1563  0.3273 -0.0096
  925MOL0     C22006   1.664   4.777   2.433 -0.6593  0.2254 -0.0311
  925MOL0     C22007   1.530   4.751   2.362  0.5875 -0.6760 -0.1196
  925MOL0     C22008   1.460   4.619   2.407 -0.1345  0.4487 -0.5554
  925MOL0     C22009   1.335   4.584   2.331 -0.7938  0.5169 -0.0445
  925MOL0     C22010   1.251   4.468   2.391  0.3815  0.5895 -0.0776
  925MOL0     C22011   1.337   4.338   2.390 -0.1527 -0.0766  0.4223
  925MOL0    Cl22012   1.405   4.319   2.554 -0.0148 -0.0571 -0.1319
  925MOL0     C22013   2.178   4.803   2.362 -0.0118 -0.8777  0.5227
  925MOL0     C22014   2.308   4.750   2.360 -0.5481 -0.5507  0.0598
  925MOL0     O22015   2.485   4.439   2.115  0.7397  0.3634  0.0367
  925MOL0     C22016   2.725   4.456   2.368 -0.3208  0.9134  0.4614
  925MOL0     C22017   2.864   4.447   2.389  0.8415  0.2021 -0.1374
  925MOL0     N22018   3.582   4.491   2.753  0.2994  0.6459  0.5770
  925MOL0     N22019   3.658   4.472   2.854 -0.1832  0.3907  0.0100
  925MOL0     C22020   4.820   4.256   2.492 -1.0610  0.3910  0.3935
  925MOL0     C22021   4.958   4.229   2.467  0.6325 -0.1982 -0.0821
  925MOL0     C22022   5.408   4.192   2.567 -0.5946 -1.0420 -0.4076
  925MOL0     C22023   5.436   4.110   2.454  0.3849  0.1950  0.6286
  925MOL0     C22024   5.566   4.069   2.420  0.8278 -0.0224 -0.5607
  925MOL0     C22025   5.673   4.119   2.497 -0.0595 -0.9216  0.0607
  925MOL0     O22026   5.805   4.095   2.457  0.8010 -0.6036 -0.6642
  925MOL0     C22027   5.918   4.162   2.524  0.1712 -0.3832  0.0655
  925MOL0     C22028   6.038   4.072   2.508 -0.6101  0.9621 -0.0696
  925MOL0     C22029   6.154   4.142   2.576  0.3263  0.1689 -0.1252
  925MOL0     C22030   6.287   4.073   2.557 -0.2801 -0.7549 -0.6294
  925MOL0     C22031   6.345   4.105   2.424 -0.0867 -0.1549 -1.0825
  925MOL0     C22032   6.372   4.111   2.309  0.0458  0.4808  0.8059
  925MOL0     C22033   5.648   4.192   2.608  1.1688  0.2909  0.1927
  925MOL0     C22034   5.514   4.232   2.648 -0.0798 -0.4228  0.2669
  925MOL0     H22035   5.043   4.166   2.789  0.2581 -0.8876 -0.7637
  925MOL0     H22036   4.822   4.259   2.837 -0.9139  1.1803  0.0640
  925MOL0     H22037   4.550   4.359   2.834 -1.5027 -0.4459 -0.2850
  925MOL0     H22038   4.628   4.191   2.843  1.5636 -4.6690 -5.1619
  925MOL0     H22039   4.406   4.181   2.886  0.0992 -3.1432  0.5131
  925MOL0     H22040   4.465   4.095   2.742  1.3785 -0.0310  0.3957
  925MOL0     H22041   4.364   4.305   2.616  0.8828 -0.3961  0.8427
  925MOL0     H22042   4.312   4.366   2.769  0.1285 -0.5543  1.0700
  925MOL0     H22043   4.194   4.105   2.666 -2.9115  0.7225 -0.7855
  925MOL0     H22044   4.162   4.203   2.815 -0.3683  1.8754  1.0304
  925MOL0     H22045   3.987   4.233   2.624  0.3796 -1.0355  3.0061
  925MOL0     H22046   4.120   4.302   2.537  1.0436  0.4390  0.9944
  925MOL0     H22047   3.956   4.477   2.640  1.2043  1.6444 -1.6658
  925MOL0     H22048   4.118   4.500   2.701 -0.9800  2.0189  1.5836
  925MOL0     H22049   4.076   4.386   2.907 -2.2095 -0.4568  1.2515
  925MOL0     H22050   3.976   4.517   2.881 -0.5413 -0.1541 -1.3318
  925MOL0     H22051   3.845   4.360   2.983 -1.2404 -1.0680 -0.1253
  925MOL0     H22052   3.884   4.232   2.869  0.3940  0.1732 -1.8038
  925MOL0     H22053   3.758   4.243   2.630 -2.5320  1.0902 -3.7462
  925MOL0     H22054   3.545   4.291   2.479 -0.7137  0.4675 -1.3823
  925MOL0     H22055   3.547   4.462   2.444 -1.0275 -1.2967  0.9437
  925MOL0     H22056   3.346   4.476   2.587  2.0187  1.4763 -1.7552
  925MOL0     H22057   3.353   4.297   2.624 -0.7295 -1.8531 -1.4534
  925MOL0     H22058   3.340   4.371   2.338  0.7697 -0.2597 -0.4130
  925MOL0     H22059   3.277   4.230   2.434 -1.8632  1.1000 -0.9042
  925MOL0     H22060   3.150   4.508   2.448  0.6163 -0.4151 -0.6962
  925MOL0     H22061   3.097   4.355   2.511  0.8687 -3.8267 -1.6632
  925MOL0     H22062   2.969   4.352   2.084  0.9386  2.7722 -0.9549
  925MOL0     H22063   2.719   4.400   2.037 -0.8902  0.2276  0.8219
  925MOL0     H22064   2.254   4.474   2.180 -2.2399  0.5205 -0.6197
  925MOL0     H22065   2.017   4.574   2.178 -0.1596 -1.1258  0.6209
  925MOL0     H22066   1.949   4.963   2.346 -0.4821 -1.1233 -2.4618
  925MOL0     H22067   1.941   4.871   2.495  1.4433  0.3461 -0.3208
  925MOL0     H22068   1.736   4.913   2.270  2.1430  0.7666 -0.2539
  925MOL0     H22069   1.723   4.994   2.422 -0.4257 -0.9321  2.8243
  925MOL0     H22070   1.655   4.790   2.541 -1.9710  0.0971 -0.1144
  925MOL0     H22071   1.712   4.682   2.407  0.3774  0.6913  0.1177
  925MOL0     H22072   1.465   4.837   2.380 -0.1859 -0.8579 -1.8419
  925MOL0     H22073   1.556   4.756   2.256 -1.0445 -0.2659 -0.5324
  925MOL0     H22074   1.448   4.621   2.515 -1.7602  0.8344 -0.7173
  925MOL0     H22075   1.538   4.544   2.390  2.5475  3.3395 -1.9938
  925MOL0     H22076   1.349   4.568   2.223  4.0246  0.6243  0.3641
  925MOL0     H22077   1.273   4.674   2.340  0.7843  1.5124  1.4152
  925MOL0     H22078   1.223   4.473   2.496 -1.0552 -4.5770  0.0603
  925MOL0     H22079   1.165   4.461   2.323  0.4708 -0.4202 -0.0993
  925MOL0     H22080   1.409   4.337   2.307 -2.1403  2.6237 -1.4933
  925MOL0     H22081   1.263   4.258   2.373  0.4973 -1.3725  3.1534
  925MOL0     H22082   2.163   4.895   2.418  2.8344  0.3341 -0.5085
  925MOL0     H22083   2.386   4.796   2.420 -0.8572 -2.6895  2.2863
  925MOL0     H22084   2.659   4.496   2.444 -3.1527 -1.6836 -0.4074
  925MOL0     H22085   2.910   4.472   2.484  2.2771 -0.3809 -0.6423
  925MOL0     H22086   4.756   4.285   2.409 -0.0609  1.7100  0.0445
  925MOL0     H22087   5.005   4.249   2.371  1.1666  0.8457  0.3818
  925MOL0     H22088   5.349   4.094   2.391  0.1869  0.7112  0.7636
  925MOL0     H22089   5.586   4.013   2.329  1.9143  0.5788 -0.7155
  925MOL0     H22090   5.906   4.185   2.630  5.1959  2.8069  0.3133
  925MOL0     H22091   5.945   4.260   2.484  1.7492  0.5974  3.1761
  925MOL0     H22092   6.008   3.979   2.557  1.4775  0.5350  0.4972
  925MOL0     H22093   6.054   4.049   2.402 -1.7037 -0.4957  0.0351
  925MOL0     H22094   6.129   4.147   2.682 -0.2587  5.0006 -0.2973
  925MOL0     H22095   6.173   4.238   2.529  0.8542  0.3612  0.4708
  925MOL0     H22096   6.353   4.089   2.643 -0.4646 -1.1309 -0.4153
  925MOL0     H22097   6.279   3.964   2.559  0.3865 -0.8191 -1.2047
  925MOL0     H22098   6.417   4.117   2.212  1.4258  3.3277  1.5023
  925MOL0     H22099   5.725   4.237   2.669  1.6495  2.1163 -1.6629
  925MOL0     H22100   5.495   4.301   2.729 -2.0349 -0.4426 -0.1362
  926MOL0     O22101   2.565   2.215   5.918 -0.0576 -1.0264  0.0647
  926MOL0     C22102   2.628   2.133   5.858 -0.9302  0.3736 -0.2080
  926MOL0     O22103   2.576   2.018   5.800  0.0638 -0.1205 -0.7484
  926MOL0     C22104   2.441   1.987   5.816  0.2055 -0.1963  0.2354
  926MOL0     C22105   2.336   2.057   5.769  0.4985 -0.5653 -0.4983
  926MOL0     C22106   2.203   2.009   5.766  0.2385 -0.1572 -0.3844
  926MOL0     C22107   2.167   1.885   5.826  0.7673 -0.0978 -0.0954
  926MOL0     O22108   2.032   1.854   5.822  0.4531 -0.1342  0.7619
  926MOL0     C22109   1.988   1.720   5.862 -0.9870 -0.6074 -0.1325
  926MOL0     C22110   2.016   1.603   5.769 -0.4701  0.3411 -0.1635
  926MOL0     C22111   1.913   1.605   5.654 -0.1886  0.1561  0.5940
  926MOL0     C22112   1.944   1.703   5.537  0.2843 -0.0226 -0.8491
  926MOL0     C22113   1.850   1.673   5.422 -0.7656  0.0632 -1.1217
  926MOL0     C22114   1.906   1.704   5.285  0.2944 -0.6293  0.7937
  926MOL0     C22115   1.850   1.618   5.170 -0.9129 -0.4929 -0.0394
  926MOL0     C22116   1.877   1.470   5.181 -0.0194 -0.2223  0.0831
  926MOL0     N22117   2.011   1.423   5.152  0.3225 -0.8280  0.3895
  926MOL0     C22118   2.070   1.436   5.026 -0.0728  0.2886 -0.7832
  926MOL0     C22119   2.190   1.359   5.035 -0.4964 -0.4675  0.1028
  926MOL0     C22120   2.282   1.329   4.923 -0.1801  0.9749  1.1516
  926MOL0     C22121   2.201   1.247   4.817 -0.6482 -0.5218 -0.8522
  926MOL0     C22122   2.275   1.234   4.690 -0.0386  0.2625  0.3198
  926MOL0     C22123   2.188   1.164   4.576 -0.8157 -0.5011 -0.3253
  926MOL0     O22124   2.068   1.229   4.564 -0.3855  0.4625  0.6914
  926MOL0     C22125   1.955   1.181   4.630 -0.1054  0.2170  0.0688
  926MOL0     C22126   1.844   1.253   4.596 -0.2767 -0.2285  0.2428
  926MOL0     C22127   1.718   1.238   4.659 -0.5108 -0.4762  0.7112
  926MOL0     C22128   1.698   1.136   4.748  0.3182  0.2082  0.2417
  926MOL0     C22129   1.562   1.108   4.786 -0.8542  0.2120 -1.1800
  926MOL0     O22130   1.547   0.972   4.827  0.1240 -0.8107  0.6289
  926MOL0     C22131   1.419   0.930   4.867 -0.3249 -0.3406 -0.0843
  926MOL0     C22132   1.327   1.004   4.943 -0.7229 -0.1800 -0.8114
  926MOL0     C22133   1.205   0.945   4.975 -0.3597  0.0452  0.3396
  926MOL0     C22134   1.171   0.819   4.930 -0.0969 -0.3395  0.4716
  926MOL0     O22135   1.044   0.771   4.945  0.1190 -0.3346 -0.3204
  926MOL0     C22136   0.970   0.809   5.062 -0.3549  0.7802  1.0295
  926MOL0     C22137   0.848   0.724   5.071 -0.2458 -0.8814 -0.5364
  926MOL0     C22138   0.883   0.575   5.085 -0.1119  0.5330 -0.4773
  926MOL0     C22139   0.783   0.489   5.011 -0.0748 -0.8290 -0.5407
  926MOL0     C22140   0.639   0.513   5.056 -0.5658 -0.0251 -0.8690
  926MOL0     C22141   0.547   0.423   4.976  0.0211 -0.5045  0.4659
  926MOL0     C22142   0.558   0.274   5.012 -0.2009  0.1570  0.5627
  926MOL0     C22143   0.416   0.209   5.030  0.2844 -0.2765  0.0991
  926MOL0    Cl22144   0.422   0.025   5.053  0.0348 -0.4537 -0.2524
  926MOL0     C22145   1.262   0.748   4.861 -0.2133 -0.1962 -0.2687
  926MOL0     C22146   1.387   0.800   4.829  0.0007 -0.3745  0.3969
  926MOL0     O22147   1.478   1.196   4.791  0.5003  0.1461 -0.1434
  926MOL0     C22148   1.816   1.061   4.783  0.3113 -0.5906  0.0075
  926MOL0     C22149   1.941   1.077   4.720  0.8150  0.3143 -0.4292
  926MOL0     N22150   2.191   1.286   5.153  0.8913 -1.1021  0.6547
  926MOL0     N22151   2.083   1.324   5.222  0.0017 -0.5896 -0.0299
  926MOL0     C22152   2.272   1.809   5.888 -0.2054  0.0039 -0.8209
  926MOL0     C22153   2.407   1.859   5.877 -0.0765 -0.7299  0.9672
  926MOL0     C22154   2.769   2.139   5.865  0.0978 -0.2820  0.1356
  926MOL0     C22155   2.852   2.027   5.832  0.1753  0.0880  0.4550
  926MOL0     C22156   2.987   2.033   5.808  0.4659  0.0641  0.2419
  926MOL0     C22157   3.051   2.159   5.821  0.1028  0.2842  1.1822
  926MOL0     O22158   3.178   2.164   5.768  0.0859  0.1485 -0.1892
  926MOL0     C22159   3.237   2.285   5.747  0.4468 -0.3466  0.7346
  926MOL0     C22160   3.369   2.266   5.675 -0.1122 -0.4987 -0.1133
  926MOL0     C22161   3.466   2.178   5.762 -0.4806 -0.7591  0.1070
  926MOL0     C22162   3.581   2.125   5.691 -0.3477 -0.2814 -0.7505
  926MOL0     C22163   3.540   2.014   5.605 -0.0121 -0.7475  0.0919
  926MOL0     C22164   3.510   1.908   5.555 -0.4702 -0.1141 -0.0762
  926MOL0     C22165   2.973   2.264   5.875 -0.2368  0.1162  0.0390
  926MOL0     C22166   2.842   2.258   5.887  0.4401 -0.9324  0.0951
  926MOL0     H22167   2.347   2.155   5.722  0.7785 -0.4594 -0.2170
  926MOL0     H22168   2.126   2.067   5.716 -0.9960 -1.4314 -0.0340
  926MOL0     H22169   1.879   1.727   5.870 -0.9200 -0.5412  0.8577
  926MOL0     H22170   2.027   1.696   5.962  0.5757 -1.0471 -0.8213
  926MOL0     H22171   2.013   1.508   5.824  3.8394 -0.4088 -0.8621
  926MOL0     H22172   2.121   1.602   5.738 -0.5277 -0.7118 -0.3900
  926MOL0     H22173   1.814   1.620   5.698 -0.5725 -0.0664 -0.1682
  926MOL0     H22174   1.914   1.502   5.616  0.0095 -0.4567  2.2069
  926MOL0     H22175   1.938   1.807   5.573  0.9850  0.5748 -2.3690
  926MOL0     H22176   2.048   1.696   5.506  1.0817 -1.4727  1.8523
  926MOL0     H22177   1.765   1.736   5.450  1.7186  2.7446  0.9590
  926MOL0     H22178   1.821   1.568   5.432  1.4030 -0.4527  0.3479
  926MOL0     H22179   2.015   1.702   5.279  0.3027 -2.5542  0.6750
  926MOL0     H22180   1.894   1.810   5.264  0.9997 -0.7361 -0.1690
  926MOL0     H22181   1.741   1.620   5.165 -0.9341 -2.1092 -0.9805
  926MOL0     H22182   1.895   1.651   5.076  0.8442 -0.8669  0.6319
  926MOL0     H22183   1.815   1.412   5.112 -1.4503 -2.6329  3.1344
  926MOL0     H22184   1.846   1.434   5.279 -2.0668  0.2312 -0.3659
  926MOL0     H22185   2.031   1.492   4.942 -0.5162  3.4125  1.3366
  926MOL0     H22186   2.362   1.264   4.960 -0.7399 -1.3006 -1.3106
  926MOL0     H22187   2.315   1.423   4.879  0.3741 -0.0653 -0.8189
  926MOL0     H22188   2.106   1.300   4.803 -0.3833  0.6703  1.3168
  926MOL0     H22189   2.178   1.147   4.855 -0.9920 -0.4513 -0.8758
  926MOL0     H22190   2.311   1.329   4.649  1.5672 -0.6926 -0.5646
  926MOL0     H22191   2.360   1.170   4.713  0.1663  0.9995  1.7500
  926MOL0     H22192   2.173   1.056   4.591 -0.2495 -0.7716 -1.5300
  926MOL0     H22193   2.244   1.169   4.482 -0.5385 -0.2559 -0.1469
  926MOL0     H22194   1.854   1.326   4.517  4.4007 -1.0107 -0.1865
  926MOL0     H22195   1.634   1.296   4.622 -1.3799 -1.8983  0.3505
  926MOL0     H22196   1.365   1.101   4.973  0.6803 -1.7097  3.1345
  926MOL0     H22197   1.137   1.015   5.023 -1.0999  0.3082 -1.0387
  926MOL0     H22198   0.945   0.915   5.059  0.7469  1.0968  2.1411
  926MOL0     H22199   1.047   0.796   5.139  2.1372 -0.4222 -1.4517
  926MOL0     H22200   0.798   0.736   4.975 -1.3139 -0.6694  0.0318
  926MOL0     H22201   0.778   0.757   5.148 -0.2519 -1.1170 -0.4404
  926MOL0     H22202   0.888   0.540   5.188  1.6800 -1.5949 -1.2025
  926MOL0     H22203   0.980   0.553   5.039 -0.2765 -1.3804  0.0118
  926MOL0     H22204   0.799   0.508   4.904 -2.0471  2.4129 -0.3837
  926MOL0     H22205   0.807   0.387   5.042  0.9065 -1.1309 -2.1556
  926MOL0     H22206   0.602   0.615   5.047 -3.0857 -0.6851  0.9092
  926MOL0     H22207   0.618   0.493   5.161 -2.0375 -0.9872 -1.3123
  926MOL0     H22208   0.565   0.431   4.868 -1.8305 -1.8261  0.0083
  926MOL0     H22209   0.445   0.460   4.995  0.7472  0.6233  2.4586
  926MOL0     H22210   0.612   0.230   4.928 -2.4996 -1.0411 -0.3858
  926MOL0     H22211   0.625   0.256   5.096  1.2881 -0.8460 -0.7934
  926MOL0     H22212   0.353   0.225   4.943 -0.3655  1.5618  0.8627
  926MOL0     H22213   0.363   0.257   5.113  1.2103  2.6999 -0.8927
  926MOL0     H22214   1.240   0.644   4.838  0.5878 -0.4678  0.1498
  926MOL0     H22215   1.461   0.750   4.766 -0.8278  1.8567 -2.6027
  926MOL0     H22216   1.815   0.979   4.854  0.9958  0.2914  1.0551
  926MOL0     H22217   2.026   1.013   4.745 -0.0282 -0.3180  0.9445
  926MOL0     H22218   2.242   1.721   5.944 -0.5121  1.4360  1.4018
  926MOL0     H22219   2.492   1.805   5.917  2.0644  2.3815  0.9785
  926MOL0     H22220   2.814   1.929   5.804 -0.4606  0.7640 -1.1897
  926MOL0     H22221   3.055   1.954   5.781  1.3371  1.2566 -1.2219
  926MOL0     H22222   3.247   2.338   5.842 -2.5336  1.1553  0.3317
  926MOL0     H22223   3.170   2.350   5.689  2.1547  0.8340  0.0088
  926MOL0     H22224   3.352   2.205   5.585 -1.0106 -0.2959 -0.0914
  926MOL0     H22225   3.420   2.358   5.645 -2.0176 -0.0642 -2.2670
  926MOL0     H22226   3.412   2.089   5.796 -1.5819 -0.2445 -0.2432
  926MOL0     H22227   3.495   2.243   5.845  2.7786  1.4663 -2.5110
  926MOL0     H22228   3.629   2.210   5.643 -0.0304  1.0350  1.7418
  926MOL0     H22229   3.654   2.079   5.758  0.8617 -1.6224 -2.8435
  926MOL0     H22230   3.493   1.814   5.506  1.3511 -0.4773 -0.0879
  926MOL0     H22231   3.024   2.359   5.888 -0.2464  0.0991  0.2047
  926MOL0     H22232   2.791   2.353   5.902  0.8402 -0.8069  0.6763
  927MOL0     O22233   2.504   2.167   0.259 -0.7080 -0.3101 -0.1063
  927MOL0     C22234   2.570   2.219   0.167  0.5560 -0.2389  0.1885
  927MOL0     O22235   2.514   2.289   0.064 -0.3265  0.1932 -0.5443
  927MOL0     C22236   2.382   2.313   0.059 -1.2069  0.4111  0.1489
  927MOL0     C22237   2.332   2.445   0.081 -0.6337 -0.0184  0.2171
  927MOL0     C22238   2.194   2.462   0.077  0.0189 -0.6577 -1.1001
  927MOL0     C22239   2.108   2.357   0.056  0.3144  0.2530  0.5196
  927MOL0     O22240   1.973   2.386   0.065 -0.7442 -0.6747 -0.4143
  927MOL0     C22241   1.872   2.310  -0.004 -0.0951 -0.2775 -0.3596
  927MOL0     C22242   1.738   2.345   0.068  0.1214  0.0227  0.0468
  927MOL0     C22243   1.620   2.274   0.005 -0.2545  0.1049  0.0582
  927MOL0     C22244   1.483   2.314   0.077  0.6005  0.0185  0.0120
  927MOL0     C22245   1.360   2.214   0.055  0.1001  0.1301  0.3303
  927MOL0     C22246   1.321   2.188  -0.088 -0.0556  0.6130  0.1164
  927MOL0     C22247   1.209   2.074  -0.089 -0.6701 -0.2416  0.0737
  927MOL0     C22248   1.155   2.066  -0.230  0.7047 -0.2973  0.1414
  927MOL0     N22249   1.047   2.173  -0.254 -0.9020  0.7713  0.1306
  927MOL0     C22250   0.933   2.194  -0.190  0.2721 -0.7318 -0.5904
  927MOL0     C22251   0.859   2.267  -0.275 -0.2764  0.0887 -0.4959
  927MOL0     C22252   0.730   2.326  -0.236  0.4255  0.3452 -0.0931
  927MOL0     C22253   0.738   2.438  -0.131  0.2177  0.1440 -0.1010
  927MOL0     C22254   0.605   2.503  -0.092 -0.8009  1.1547 -0.1121
  927MOL0     C22255   0.538   2.593  -0.189 -0.1135  0.1427  0.1488
  927MOL0     O22256   0.406   2.633  -0.139 -0.2921  0.3507 -0.2552
  927MOL0     C22257   0.339   2.724  -0.219  0.4003  0.7725  0.5068
  927MOL0     C22258   0.205   2.738  -0.180  0.3827  0.3209  0.2289
  927MOL0     C22259   0.120   2.830  -0.251  0.4557  0.6227  0.9024
  927MOL0     C22260   0.171   2.901  -0.364  0.3452  0.8453  0.0161
  927MOL0     C22261   0.081   2.982  -0.458  0.1776  0.5267 -0.0744
  927MOL0     O22262  -0.040   3.005  -0.408  0.2149 -0.5134 -0.1426
  927MOL0     C22263  -0.144   3.045  -0.484  0.4516  0.7926  0.0308
  927MOL0     C22264  -0.255   3.101  -0.409 -0.1929 -0.3694  1.0497
  927MOL0     C22265  -0.370   3.148  -0.469  0.2806  0.0401 -0.1393
  927MOL0     C22266  -0.391   3.124  -0.604 -0.1260  0.2011 -0.6884
  927MOL0     O22267  -0.510   3.163  -0.663 -0.1903 -0.5315  0.3329
  927MOL0     C22268  -0.609   3.056  -0.647  0.0910 -0.8566 -0.1249
  927MOL0     C22269  -0.740   3.073  -0.721  0.6052  0.6128  0.0136
  927MOL0     C22270  -0.810   3.203  -0.683 -0.2065  0.3234 -0.5106
  927MOL0     C22271  -0.961   3.193  -0.698  0.0691 -0.7455  0.6846
  927MOL0     C22272  -0.994   3.153  -0.846 -0.0704  0.3384 -0.2742
  927MOL0     C22273  -1.135   3.208  -0.890 -0.1008 -0.1341 -0.2906
  927MOL0     C22274  -1.168   3.142  -1.027  0.1512  0.4984  0.5472
  927MOL0     C22275  -1.307   3.204  -1.079 -0.1095  0.1770  0.4049
  927MOL0    Cl22276  -1.443   3.109  -1.001  0.2952 -0.3465 -0.1299
  927MOL0     C22277  -0.288   3.066  -0.689  0.4915  0.2061 -0.1154
  927MOL0     C22278  -0.168   3.025  -0.628  0.2438 -0.0129  0.4252
  927MOL0     O22279   0.127   3.016  -0.574  0.0674 -0.0067 -0.7241
  927MOL0     C22280   0.305   2.875  -0.405 -0.0423  0.2195 -0.6621
  927MOL0     C22281   0.389   2.795  -0.329  0.2947  0.8234 -0.2717
  927MOL0     N22282   0.913   2.270  -0.399  0.1429  0.4985  0.4206
  927MOL0     N22283   1.026   2.216  -0.378  0.1803 -0.1081 -0.5106
  927MOL0     C22284   2.155   2.225   0.041 -0.6386 -0.3182  0.1590
  927MOL0     C22285   2.292   2.208   0.050  0.0928 -0.4058 -0.2292
  927MOL0     C22286   2.714   2.199   0.178  0.3733  0.6758  0.0215
  927MOL0     C22287   2.775   2.121   0.277  0.0641  0.5784  0.1013
  927MOL0     C22288   2.909   2.106   0.291 -0.4724 -0.3255 -0.2102
  927MOL0     C22289   2.995   2.178   0.200  0.3625  0.6723 -0.3748
  927MOL0     O22290   3.128   2.172   0.216 -0.5755  0.1909  0.0259
  927MOL0     C22291   3.187   2.076   0.314  0.6185 -0.0679 -0.2690
  927MOL0     C22292   3.334   2.110   0.315 -0.3426 -0.3978 -0.8309
  927MOL0     C22293   3.422   2.008   0.397  0.4312 -0.5531 -0.3130
  927MOL0     C22294   3.568   2.035   0.398 -0.6025 -0.1984  0.1452
  927MOL0     C22295   3.628   2.074   0.269 -0.0601 -0.0638  0.5299
  927MOL0     C22296   3.672   2.136   0.172 -0.8629 -0.4032 -1.5738
  927MOL0     C22297   2.940   2.254   0.105 -0.1773 -0.1365 -0.1181
  927MOL0     C22298   2.803   2.268   0.089  0.0726 -0.1015 -0.2002
  927MOL0     H22299   2.393   2.531   0.108 -0.0904 -0.0986 -0.7336
  927MOL0     H22300   2.154   2.560   0.104  2.7366 -0.0941  1.2878
  927MOL0     H22301   1.901   2.205  -0.013  0.0485 -0.1809 -1.0859
  927MOL0     H22302   1.874   2.347  -0.107  0.0978  0.5979 -0.0552
  927MOL0     H22303   1.713   2.451   0.071 -2.4709 -0.5232  0.4747
  927MOL0     H22304   1.737   2.300   0.168  0.3121 -1.1038 -0.4487
  927MOL0     H22305   1.632   2.166  -0.008  1.5364  0.6117 -3.7684
  927MOL0     H22306   1.611   2.330  -0.088 -0.9856 -0.1812 -0.0545
  927MOL0     H22307   1.503   2.326   0.184  1.2525 -3.0785  0.3262
  927MOL0     H22308   1.460   2.412   0.035 -0.2632 -0.3717 -0.4636
  927MOL0     H22309   1.273   2.253   0.108 -0.1045 -1.6928  1.4264
  927MOL0     H22310   1.392   2.121   0.103  4.0490  0.7265 -0.8154
  927MOL0     H22311   1.410   2.154  -0.141  1.4987  2.0935  1.6574
  927MOL0     H22312   1.284   2.278  -0.140  2.5141  2.6162  1.5266
  927MOL0     H22313   1.251   1.981  -0.051  0.7393 -0.2061 -1.2997
  927MOL0     H22314   1.129   2.101  -0.020 -2.8171 -0.6503 -2.0961
  927MOL0     H22315   1.119   1.963  -0.235  0.9601 -0.3819  0.0322
  927MOL0     H22316   1.227   2.074  -0.312 -2.4030 -1.2707 -2.9640
  927MOL0     H22317   0.916   2.180  -0.084 -2.0949  0.5414 -0.7470
  927MOL0     H22318   0.671   2.247  -0.189 -0.0654 -0.0118 -1.2757
  927MOL0     H22319   0.672   2.356  -0.324  1.3218  4.3466  0.4646
  927MOL0     H22320   0.814   2.510  -0.160  2.7164 -2.1554  0.3789
  927MOL0     H22321   0.774   2.393  -0.038 -1.5937 -0.2147  0.4856
  927MOL0     H22322   0.538   2.423  -0.061 -1.2771  1.5263 -0.1675
  927MOL0     H22323   0.630   2.563  -0.004 -3.2713  4.1661 -1.2590
  927MOL0     H22324   0.532   2.543  -0.286 -2.3346  2.2585 -0.9111
  927MOL0     H22325   0.598   2.679  -0.222 -0.9879  0.1586 -1.5130
  927MOL0     H22326   0.159   2.683  -0.098  0.3724  1.2684  0.8691
  927MOL0     H22327   0.016   2.825  -0.221  0.8819 -1.5197  2.2332
  927MOL0     H22328  -0.252   3.116  -0.301  2.7066  1.3077  0.8334
  927MOL0     H22329  -0.450   3.196  -0.414 -1.2719 -0.0689 -2.1612
  927MOL0     H22330  -0.626   3.039  -0.540  3.8678 -0.9450  0.6118
  927MOL0     H22331  -0.563   2.959  -0.669 -1.4146 -1.9372  1.2232
  927MOL0     H22332  -0.795   2.983  -0.692  1.6621 -0.7456 -1.9173
  927MOL0     H22333  -0.728   3.067  -0.830 -3.1299 -2.1965 -0.4456
  927MOL0     H22334  -0.760   3.277  -0.746  1.5272 -1.3155 -1.1585
  927MOL0     H22335  -0.777   3.231  -0.582  0.0546 -0.3698 -0.4022
  927MOL0     H22336  -1.001   3.113  -0.635  0.1324 -0.3202  1.2714
  927MOL0     H22337  -1.011   3.286  -0.672  1.9424  1.1195 -1.9185
  927MOL0     H22338  -0.987   3.044  -0.854 -1.3108  0.0793  1.6495
  927MOL0     H22339  -0.922   3.199  -0.914  0.5051  0.6621  0.5477
  927MOL0     H22340  -1.135   3.316  -0.905 -1.6808 -0.2812 -1.5953
  927MOL0     H22341  -1.211   3.185  -0.815  1.4092  0.0589  1.3757
  927MOL0     H22342  -1.093   3.168  -1.102 -0.8732 -0.1533 -0.7639
  927MOL0     H22343  -1.176   3.033  -1.019  0.3807  0.3096 -1.2360
  927MOL0     H22344  -1.315   3.187  -1.187 -1.8167  0.4489  0.4669
  927MOL0     H22345  -1.316   3.310  -1.054 -1.6414 -0.2796  1.9250
  927MOL0     H22346  -0.305   3.048  -0.794 -0.0797  1.5031 -0.2608
  927MOL0     H22347  -0.092   2.989  -0.697  0.2716 -1.0765  0.9957
  927MOL0     H22348   0.351   2.929  -0.487  0.1695  1.1824  0.0721
  927MOL0     H22349   0.494   2.801  -0.357  0.3327  1.2216 -0.0482
  927MOL0     H22350   2.085   2.142   0.041 -0.9537 -0.0936 -1.8026
  927MOL0     H22351   2.343   2.112   0.053  0.3203 -0.2696  2.3808
  927MOL0     H22352   2.706   2.061   0.336  1.2002 -2.0212 -1.0888
  927MOL0     H22353   2.947   2.042   0.370  2.4988  0.2085 -1.0879
  927MOL0     H22354   3.173   1.972   0.283 -2.5941  0.4460 -0.9098
  927MOL0     H22355   3.157   2.088   0.419  2.3396 -0.3975  0.2869
  927MOL0     H22356   3.376   2.115   0.215 -0.4317  0.8436 -0.8278
  927MOL0     H22357   3.353   2.208   0.360  1.6469 -0.6362 -1.0949
  927MOL0     H22358   3.405   1.908   0.355 -1.7141 -0.3460 -0.0683
  927MOL0     H22359   3.393   2.010   0.503 -2.5905 -0.0062 -1.0577
  927MOL0     H22360   3.592   2.116   0.468  0.1623 -0.4937  0.2340
  927MOL0     H22361   3.629   1.953   0.436 -0.4588  1.6675  4.5224
  927MOL0     H22362   3.725   2.181   0.090  2.4279 -0.0666  0.5443
  927MOL0     H22363   2.993   2.294   0.019 -0.8543 -0.5534 -0.7404
  927MOL0     H22364   2.755   2.329   0.013 -3.0162 -1.2282  0.6702
  928MOL0     O22365   0.910   9.200   5.426  0.0546  0.0381  0.4184
  928MOL0     C22366   0.900   9.252   5.312 -0.3918 -0.7822 -0.5495
  928MOL0     O22367   0.788   9.311   5.267  0.2718 -0.5987 -0.0168
  928MOL0     C22368   0.666   9.290   5.331  0.4974  0.3523  0.2378
  928MOL0     C22369   0.646   9.354   5.449 -0.9145 -1.1593 -0.5750
  928MOL0     C22370   0.529   9.331   5.518 -0.6186  0.2371 -0.1684
  928MOL0     C22371   0.435   9.231   5.479  0.1058 -1.2644  0.5843
  928MOL0     O22372   0.350   9.191   5.577 -0.0244  0.4019  0.0853
  928MOL0     C22373   0.222   9.169   5.527  0.3906 -0.0675 -0.2635
  928MOL0     C22374   0.161   9.316   5.499 -0.0873  0.4065  0.2207
  928MOL0     C22375   0.048   9.307   5.399  0.0522 -0.8386  0.0970
  928MOL0     C22376  -0.041   9.427   5.396  0.0552 -0.0126 -0.7015
  928MOL0     C22377  -0.135   9.437   5.280 -0.6023 -0.7146 -0.0698
  928MOL0     C22378  -0.257   9.338   5.285 -0.4790 -0.0322  0.4937
  928MOL0     C22379  -0.356   9.350   5.401 -0.4265 -0.1185 -0.4146
  928MOL0     C22380  -0.451   9.464   5.383 -0.3043 -0.4900 -0.7134
  928MOL0     N22381  -0.547   9.419   5.294  0.3824 -0.2139 -0.1095
  928MOL0     C22382  -0.651   9.325   5.312 -0.9980  0.7566  0.1647
  928MOL0     C22383  -0.715   9.319   5.190  0.1096 -0.0962 -0.8370
  928MOL0     C22384  -0.833   9.234   5.146 -0.4287  1.0344 -0.0740
  928MOL0     C22385  -0.968   9.286   5.199 -0.5486  0.2259 -0.2228
  928MOL0     C22386  -1.073   9.211   5.120 -0.2556 -0.6817  0.2522
  928MOL0     C22387  -1.214   9.244   5.176 -0.2508  0.1164  0.0561
  928MOL0     O22388  -1.320   9.161   5.126  0.3477  0.4549  0.1144
  928MOL0     C22389  -1.440   9.158   5.183  0.8304 -0.3676 -0.6692
  928MOL0     C22390  -1.490   9.248   5.285 -0.4326 -0.1298  0.3992
  928MOL0     C22391  -1.621   9.242   5.336  0.1080 -0.2304 -0.1844
  928MOL0     C22392  -1.712   9.155   5.269  0.5408  0.4061 -1.2586
  928MOL0     C22393  -1.851   9.157   5.319 -0.7271  1.0758  0.0022
  928MOL0     O22394  -1.870   9.222   5.439  0.0541  0.0125  0.1073
  928MOL0     C22395  -1.989   9.216   5.501  0.1829  0.1286 -0.1871
  928MOL0     C22396  -2.049   9.337   5.541 -0.3002  0.2371 -0.3785
  928MOL0     C22397  -2.175   9.332   5.598 -0.0583 -0.4055 -0.6918
  928MOL0     C22398  -2.243   9.209   5.617 -0.0442 -0.1331  0.4069
  928MOL0     O22399  -2.364   9.222   5.664 -0.5476 -0.0366 -0.2704
  928MOL0     C22400  -2.468   9.214   5.578 -0.1119 -0.3369  0.6632
  928MOL0     C22401  -2.596   9.207   5.649 -0.2979  0.3362  1.3426
  928MOL0     C22402  -2.619   9.085   5.744  0.0624 -0.2662  0.1083
  928MOL0     C22403  -2.772   9.061   5.774 -0.0321 -0.6844  0.7026
  928MOL0     C22404  -2.786   8.920   5.833 -0.7642  1.0418 -0.0236
  928MOL0     C22405  -2.916   8.896   5.914 -0.1713  0.2080  1.0973
  928MOL0     C22406  -2.917   8.776   6.006 -0.3942  1.0813 -0.4216
  928MOL0     C22407  -2.905   8.645   5.936 -0.4041  0.4011 -0.2173
  928MOL0    Cl22408  -2.975   8.524   6.051  0.1756  0.0540  0.0149
  928MOL0     C22409  -2.181   9.091   5.572 -0.3668 -0.3448 -0.7164
  928MOL0     C22410  -2.057   9.093   5.521 -1.2147  0.6079  1.5503
  928MOL0     O22411  -1.942   9.107   5.247 -0.8129 -0.0575 -0.1681
  928MOL0     C22412  -1.662   9.070   5.162 -0.2556  0.5087 -1.3117
  928MOL0     C22413  -1.529   9.078   5.118 -0.5365 -0.0762  0.0283
  928MOL0     N22414  -0.660   9.420   5.115  0.2814  0.4890  0.0054
  928MOL0     N22415  -0.570   9.486   5.180 -0.5130 -0.1183 -0.2025
  928MOL0     C22416   0.451   9.175   5.356  0.1207 -0.8755  0.0520
  928MOL0     C22417   0.568   9.197   5.284 -0.2088 -0.0437 -0.1502
  928MOL0     C22418   1.012   9.251   5.223  0.1279  0.4243  0.0631
  928MOL0     C22419   1.115   9.158   5.245 -0.1774 -0.5668  0.2129
  928MOL0     C22420   1.216   9.147   5.153 -0.0625  0.3475 -0.6131
  928MOL0     C22421   1.231   9.228   5.043  0.4732 -0.3370  0.1586
  928MOL0     O22422   1.341   9.210   4.976  0.3581  0.0239  0.3284
  928MOL0     C22423   1.360   9.267   4.850  0.0702 -0.3615 -0.4742
  928MOL0     C22424   1.468   9.196   4.781  0.3964  0.0377 -0.4539
  928MOL0     C22425   1.414   9.065   4.727  0.5166  0.2108  0.0515
  928MOL0     C22426   1.364   9.062   4.582  0.2054  0.2191 -0.9382
  928MOL0     C22427   1.432   9.151   4.490 -0.7159 -0.4073  0.2111
  928MOL0     C22428   1.496   9.220   4.406  0.4592  0.2326  0.3189
  928MOL0     C22429   1.134   9.328   5.023  0.3891  0.3657 -0.5725
  928MOL0     C22430   1.019   9.338   5.114 -0.4215  0.1546  0.6537
  928MOL0     H22431   0.711   9.433   5.486 -0.8054 -0.2878 -2.4954
  928MOL0     H22432   0.521   9.372   5.618 -0.6064 -1.1612  0.4275
  928MOL0     H22433   0.172   9.124   5.614  1.2936  4.0163  2.6354
  928MOL0     H22434   0.218   9.099   5.443  0.4080 -0.9989  0.4873
  928MOL0     H22435   0.231   9.382   5.447 -1.6321  0.6605 -1.6366
  928MOL0     H22436   0.135   9.357   5.597  1.5016 -0.0133  0.8551
  928MOL0     H22437  -0.020   9.222   5.409 -0.2414 -0.4091  2.1081
  928MOL0     H22438   0.094   9.310   5.300  1.3421  3.1139  0.6528
  928MOL0     H22439  -0.090   9.429   5.493  1.7911  0.0501  0.2004
  928MOL0     H22440   0.031   9.509   5.389  2.4596 -1.8313  1.0003
  928MOL0     H22441  -0.082   9.417   5.187  2.2203 -0.8805  1.4688
  928MOL0     H22442  -0.174   9.539   5.280  1.8756  0.2883 -1.1680
  928MOL0     H22443  -0.207   9.240   5.285  0.7572  0.4547 -3.2011
  928MOL0     H22444  -0.310   9.344   5.190 -1.8980  1.8645  1.3262
  928MOL0     H22445  -0.407   9.254   5.405  1.6477 -1.2667 -0.1281
  928MOL0     H22446  -0.302   9.352   5.497  0.3170 -1.7262 -0.7735
  928MOL0     H22447  -0.401   9.555   5.348  0.4573 -0.7524 -0.3318
  928MOL0     H22448  -0.509   9.497   5.470 -0.0985  0.9473 -1.0877
  928MOL0     H22449  -0.686   9.268   5.398 -0.2201  1.6596  1.1021
  928MOL0     H22450  -0.819   9.132   5.183  0.4474  1.5371  1.0328
  928MOL0     H22451  -0.821   9.237   5.037  2.4917 -0.2551  0.1173
  928MOL0     H22452  -0.957   9.393   5.179  4.8621 -0.1290 -0.6131
  928MOL0     H22453  -0.974   9.284   5.308  0.2602  1.7915 -0.1327
  928MOL0     H22454  -1.078   9.226   5.011  0.4905  1.1306  0.4267
  928MOL0     H22455  -1.050   9.107   5.144 -1.9920 -0.6942  2.0885
  928MOL0     H22456  -1.247   9.346   5.159 -0.7731 -0.2017 -0.9441
  928MOL0     H22457  -1.213   9.228   5.284 -1.9369 -1.2057 -0.0709
  928MOL0     H22458  -1.421   9.311   5.341 -0.1758 -0.3468  0.3274
  928MOL0     H22459  -1.638   9.307   5.422  0.7542 -1.5469  0.9675
  928MOL0     H22460  -1.998   9.433   5.536 -1.5336  0.8962 -0.8632
  928MOL0     H22461  -2.224   9.422   5.632 -0.7416 -0.9235 -0.2951
  928MOL0     H22462  -2.454   9.128   5.512  1.3949  0.1973  0.2332
  928MOL0     H22463  -2.466   9.302   5.513 -0.0093 -1.4529 -0.8995
  928MOL0     H22464  -2.676   9.206   5.575  1.1541  1.6419 -0.3456
  928MOL0     H22465  -2.607   9.296   5.712  0.2427  0.5253  1.1780
  928MOL0     H22466  -2.550   9.108   5.826  3.3198  0.9237 -2.7116
  928MOL0     H22467  -2.576   8.998   5.694  0.5453  0.7609 -1.3392
  928MOL0     H22468  -2.806   9.138   5.845 -2.5459 -1.3436  0.3322
  928MOL0     H22469  -2.834   9.066   5.684 -1.4325  2.9704  1.7057
  928MOL0     H22470  -2.703   8.898   5.901  0.2990  0.9896 -1.2947
  928MOL0     H22471  -2.772   8.847   5.752 -2.9422  0.3926  0.1343
  928MOL0     H22472  -3.005   8.904   5.851 -0.4716 -0.6765  1.3911
  928MOL0     H22473  -2.927   8.985   5.977  1.4984  1.7256 -0.6630
  928MOL0     H22474  -2.835   8.787   6.077  1.3723 -0.6307 -2.0571
  928MOL0     H22475  -3.012   8.771   6.060  0.2057 -0.3235  0.5542
  928MOL0     H22476  -2.804   8.615   5.909 -0.5249  0.1048 -0.3440
  928MOL0     H22477  -2.970   8.653   5.848 -2.0546  2.1743  1.0771
  928MOL0     H22478  -2.235   9.003   5.606  1.3462 -0.4825  1.9034
  928MOL0     H22479  -2.006   9.004   5.488  2.5101  2.4817  1.7439
  928MOL0     H22480  -1.729   9.002   5.111 -0.4309 -1.2810  1.0756
  928MOL0     H22481  -1.502   9.000   5.047 -1.0860 -2.7093  2.5050
  928MOL0     H22482   0.378   9.102   5.323 -0.8564  0.3707 -0.5963
  928MOL0     H22483   0.588   9.141   5.193  1.3025  1.3108 -0.6808
  928MOL0     H22484   1.116   9.097   5.336  1.9814  0.2613  0.8025
  928MOL0     H22485   1.295   9.075   5.171 -0.5530 -0.1148 -0.2693
  928MOL0     H22486   1.387   9.372   4.865  0.9389 -0.5180 -0.8959
  928MOL0     H22487   1.269   9.272   4.790 -0.4900  2.8711  0.4766
  928MOL0     H22488   1.512   9.269   4.712  0.7869  0.4066  0.1800
  928MOL0     H22489   1.546   9.172   4.853  1.4412 -1.3763 -1.9831
  928MOL0     H22490   1.342   9.015   4.792 -0.6705  0.9108 -0.6957
  928MOL0     H22491   1.496   8.992   4.727 -0.1909 -0.6208 -0.6514
  928MOL0     H22492   1.376   8.961   4.543 -1.2427  0.1380 -1.2334
  928MOL0     H22493   1.260   9.091   4.569  0.5352  3.4372  1.9999
  928MOL0     H22494   1.566   9.253   4.332  1.2313 -0.2602  0.8176
  928MOL0     H22495   1.137   9.401   4.943 -0.6079 -0.5352 -1.4594
  928MOL0     H22496   0.946   9.415   5.093  0.2583  1.3430  2.3623
  929MOL0     O22497   9.643  10.621   1.215  0.1694  0.0619  0.2835
  929MOL0     C22498   9.696  10.714   1.158  0.3803 -0.6206 -0.7067
  929MOL0     O22499   9.642  10.834   1.141  0.4987 -0.5098 -0.2657
  929MOL0     C22500   9.545  10.875   1.229 -0.3777  0.2718  0.0293
  929MOL0     C22501   9.430  10.931   1.176  0.7678  1.0608  0.0774
  929MOL0     C22502   9.328  10.986   1.270  1.5267  0.0292 -0.1728
  929MOL0     C22503   9.341  10.964   1.411 -0.1872 -0.4966 -0.3619
  929MOL0     O22504   9.246  11.005   1.510 -0.8127 -0.0039 -0.1124
  929MOL0     C22505   9.113  11.035   1.472  0.0504  0.3161  0.4727
  929MOL0     C22506   9.096  11.181   1.452 -0.7132 -0.2653  0.1298
  929MOL0     C22507   8.951  11.232   1.430 -0.0450  0.4413  0.6603
  929MOL0     C22508   8.887  11.166   1.307 -0.8992  0.1451  0.5510
  929MOL0     C22509   8.753  11.235   1.280 -0.0063  0.4138 -1.2089
  929MOL0     C22510   8.640  11.188   1.377 -0.0108  0.0957  0.9579
  929MOL0     C22511   8.502  11.214   1.315  0.0765 -0.5692 -0.7940
  929MOL0     C22512   8.395  11.223   1.417  0.8825 -0.5171 -0.0866
  929MOL0     N22513   8.272  11.261   1.351  0.6720 -0.5781  0.0237
  929MOL0     C22514   8.195  11.189   1.258 -0.5893  1.0802 -0.4661
  929MOL0     C22515   8.102  11.276   1.216 -0.8481 -0.1017  0.1328
  929MOL0     C22516   8.001  11.239   1.111 -0.2060 -0.4744 -0.1013
  929MOL0     C22517   7.856  11.204   1.167 -1.2068  0.4732  0.0063
  929MOL0     C22518   7.792  11.313   1.236  0.7096 -0.9306  0.0991
  929MOL0     C22519   7.641  11.284   1.285 -0.4155  0.0972  0.4859
  929MOL0     O22520   7.548  11.286   1.175  0.4484 -0.3807  0.1103
  929MOL0     C22521   7.413  11.291   1.195 -0.1351 -0.6035  0.5118
  929MOL0     C22522   7.346  11.367   1.286  0.1991 -0.2379  0.9189
  929MOL0     C22523   7.208  11.362   1.301  0.1261 -0.1462 -0.2992
  929MOL0     C22524   7.129  11.303   1.212  0.4674  0.6275 -0.2825
  929MOL0     C22525   6.982  11.315   1.215  0.6497 -0.0288 -0.5198
  929MOL0     O22526   6.925  11.420   1.291  0.0487 -0.0019 -0.5444
  929MOL0     C22527   6.790  11.404   1.315  0.9453 -0.6361 -0.0595
  929MOL0     C22528   6.700  11.485   1.251  0.3058 -1.3056  0.8942
  929MOL0     C22529   6.565  11.479   1.264  0.1955 -0.1392 -0.4548
  929MOL0     C22530   6.511  11.385   1.348 -0.2487 -0.7999 -0.7738
  929MOL0     O22531   6.370  11.374   1.353 -0.0051  0.0109  0.3691
  929MOL0     C22532   6.311  11.269   1.419 -0.0619 -0.5935 -0.2587
  929MOL0     C22533   6.155  11.264   1.394 -0.4741 -0.4192 -1.0780
  929MOL0     C22534   6.117  11.176   1.279  0.4993 -0.9450 -0.5022
  929MOL0     C22535   5.968  11.177   1.265 -0.0832  0.8376  0.0074
  929MOL0     C22536   5.912  11.095   1.147 -0.4880  0.3106 -0.0573
  929MOL0     C22537   5.932  11.169   1.010  0.5756  0.1577  0.3132
  929MOL0     C22538   5.873  11.079   0.907 -0.1934  0.1682  0.0306
  929MOL0     C22539   5.895  11.137   0.764 -0.7434  0.0529  0.8017
  929MOL0    Cl22540   5.808  11.293   0.731  0.2905 -0.3700 -0.5437
  929MOL0     C22541   6.602  11.311   1.432  0.3598 -0.3627  1.1063
  929MOL0     C22542   6.739  11.313   1.408  0.5153  0.2346 -0.2197
  929MOL0     O22543   6.918  11.229   1.155 -0.4746 -0.1022  0.3726
  929MOL0     C22544   7.191  11.218   1.117 -0.4284 -0.2583 -0.0830
  929MOL0     C22545   7.337  11.218   1.108  0.1180  0.4601  0.4906
  929MOL0     N22546   8.110  11.395   1.287 -0.2453  0.8994 -0.1969
  929MOL0     N22547   8.204  11.384   1.369  0.2884  0.0084 -0.2043
  929MOL0     C22548   9.461  10.903   1.451 -0.0882  0.0763 -0.2735
  929MOL0     C22549   9.562  10.863   1.363 -0.9710  0.0387  0.3781
  929MOL0     C22550   9.835  10.704   1.103 -0.2663  0.4700 -0.6566
  929MOL0     C22551   9.887  10.582   1.080  0.5642 -0.3374  0.1725
  929MOL0     C22552  10.018  10.576   1.029  0.7042  0.7713 -1.3172
  929MOL0     C22553  10.108  10.674   1.020  0.2121  0.2109  0.1948
  929MOL0     O22554  10.238  10.640   0.979  0.1580  0.1039 -0.2484
  929MOL0     C22555  10.323  10.748   0.936 -0.3468  0.2962  0.3521
  929MOL0     C22556  10.462  10.685   0.904 -0.5825  0.7991  0.1058
  929MOL0     C22557  10.482  10.537   0.938 -0.4354 -0.1440  0.6252
  929MOL0     C22558  10.497  10.498   1.090  0.1329  0.3409 -0.0548
  929MOL0     C22559  10.634  10.499   1.141 -0.2413 -0.2652 -0.4843
  929MOL0     C22560  10.749  10.496   1.180  0.0884 -0.8408 -0.0464
  929MOL0     C22561  10.055  10.802   1.051  0.5240 -0.1849 -0.2387
  929MOL0     C22562   9.920  10.823   1.093 -0.6872 -0.2043 -0.0193
  929MOL0     H22563   9.421  10.937   1.068  2.7228 -4.0692 -0.6295
  929MOL0     H22564   9.245  11.054   1.251  1.8600  0.5445  0.1906
  929MOL0     H22565   9.057  11.021   1.564 -1.3339 -0.7694 -0.4792
  929MOL0     H22566   9.065  10.971   1.397 -0.6541 -0.1171  1.2858
  929MOL0     H22567   9.162  11.213   1.370  0.1090 -0.8724  0.5371
  929MOL0     H22568   9.146  11.233   1.534 -0.9151  0.4997 -0.2256
  929MOL0     H22569   8.950  11.341   1.425  0.2812  0.4220  0.1668
  929MOL0     H22570   8.888  11.194   1.512 -3.0721  0.7743 -1.3289
  929MOL0     H22571   8.954  11.185   1.222 -1.0936  0.1803  0.4064
  929MOL0     H22572   8.876  11.059   1.325  1.2149 -0.1390  0.4855
  929MOL0     H22573   8.724  11.201   1.180  1.0079 -0.0081 -1.3618
  929MOL0     H22574   8.767  11.343   1.268  1.4476  0.1446 -2.1939
  929MOL0     H22575   8.653  11.237   1.475  1.0650  0.1261  0.8175
  929MOL0     H22576   8.652  11.082   1.401 -0.2646  0.2247  1.6891
  929MOL0     H22577   8.502  11.313   1.270 -1.5748 -0.4369 -0.5378
  929MOL0     H22578   8.486  11.135   1.241  3.1186 -0.5795 -1.5724
  929MOL0     H22579   8.417  11.288   1.502 -1.5404 -1.6026  1.4526
  929MOL0     H22580   8.378  11.120   1.450  1.4621 -0.6522 -0.1924
  929MOL0     H22581   8.210  11.091   1.213 -1.0562  1.6166 -1.8313
  929MOL0     H22582   8.044  11.163   1.046  1.1327  0.4018 -0.2735
  929MOL0     H22583   7.988  11.321   1.040 -0.3777 -1.3368 -1.0819
  929MOL0     H22584   7.861  11.122   1.240 -1.7340  1.0215  0.6684
  929MOL0     H22585   7.805  11.165   1.078  2.3076 -1.1110 -1.5258
  929MOL0     H22586   7.839  11.344   1.330 -1.2996  0.0897  0.8358
  929MOL0     H22587   7.786  11.399   1.168 -3.3776  1.0814  2.5557
  929MOL0     H22588   7.614  11.361   1.358  3.8014 -0.2379  2.7570
  929MOL0     H22589   7.633  11.186   1.332 -2.1263  0.6364  1.3910
  929MOL0     H22590   7.407  11.428   1.352  2.9188 -3.9028  2.1494
  929MOL0     H22591   7.167  11.417   1.385  1.0789 -0.9345  0.7011
  929MOL0     H22592   6.738  11.561   1.184  0.6849 -3.3926 -1.4333
  929MOL0     H22593   6.495  11.539   1.206 -2.5101 -2.2111  0.4752
  929MOL0     H22594   6.339  11.273   1.525 -0.2740 -2.2001 -0.1215
  929MOL0     H22595   6.360  11.175   1.391 -0.6943 -1.8431  2.5171
  929MOL0     H22596   6.119  11.367   1.380  0.2690 -0.2479 -1.8498
  929MOL0     H22597   6.110  11.232   1.488  0.7455  3.1739  0.9147
  929MOL0     H22598   6.154  11.075   1.297 -0.0547 -2.0653 -4.7068
  929MOL0     H22599   6.171  11.224   1.197 -0.1320  0.4338 -0.1481
  929MOL0     H22600   5.926  11.138   1.358 -0.5038 -2.1817 -1.3386
  929MOL0     H22601   5.927  11.278   1.254 -2.2113  0.1101  0.7441
  929MOL0     H22602   5.808  11.070   1.172  0.1064  0.1211  2.4193
  929MOL0     H22603   5.970  11.003   1.143 -0.1445  0.2909  3.1591
  929MOL0     H22604   6.037  11.191   0.989  0.3271  2.5374  1.2530
  929MOL0     H22605   5.876  11.262   1.021  0.8144  0.1135  2.4335
  929MOL0     H22606   5.932  10.987   0.916  0.2622  0.6254  2.5830
  929MOL0     H22607   5.767  11.078   0.932  0.2763  1.0549  2.2712
  929MOL0     H22608   5.880  11.061   0.687 -0.8783 -0.3745  1.2445
  929MOL0     H22609   6.001  11.166   0.759 -0.7880  0.7476  2.8381
  929MOL0     H22610   6.557  11.242   1.504 -1.7883 -1.6528 -1.3125
  929MOL0     H22611   6.804  11.263   1.479  1.8114 -2.0195 -2.8050
  929MOL0     H22612   7.122  11.174   1.045 -3.5050  5.9861 -1.7454
  929MOL0     H22613   7.395  11.158   1.038 -1.2050 -1.3175  0.8474
  929MOL0     H22614   9.475  10.885   1.557 -1.2196  0.0366 -0.1267
  929MOL0     H22615   9.648  10.807   1.398  0.1724  1.3860 -0.1479
  929MOL0     H22616   9.825  10.493   1.088  0.0577 -0.0613 -0.5781
  929MOL0     H22617  10.055  10.477   1.005  3.2484  1.3234 -0.0431
  929MOL0     H22618  10.348  10.814   1.019 -0.9644  0.1273  0.6763
  929MOL0     H22619  10.287  10.803   0.848 -0.7564  0.8684  0.8751
  929MOL0     H22620  10.481  10.702   0.798 -0.1877 -3.5597 -0.6866
  929MOL0     H22621  10.538  10.755   0.941  2.2227 -0.7080 -2.4301
  929MOL0     H22622  10.563  10.482   0.890  2.0268 -0.0509  4.2570
  929MOL0     H22623  10.391  10.483   0.908 -0.4124  0.5882 -0.8507
  929MOL0     H22624  10.431  10.559   1.152  0.6126  1.6002 -0.7509
  929MOL0     H22625  10.457  10.397   1.102  1.2354 -0.1517 -0.4137
  929MOL0     H22626  10.850  10.500   1.216  0.1000 -0.2910 -0.1391
  929MOL0     H22627  10.115  10.892   1.044 -0.4601  0.4667 -0.5708
  929MOL0     H22628   9.879  10.914   1.137 -2.7620 -1.9935  2.0152
  930MOL0     O22629  11.130   6.349   3.697 -0.8277 -0.0331  0.7997
  930MOL0     C22630  11.182   6.250   3.634  1.3443 -0.4846 -0.1354
  930MOL0     O22631  11.111   6.139   3.587 -0.3078 -0.5548  0.4343
  930MOL0     C22632  10.976   6.150   3.576  0.0690 -0.0456  0.0051
  930MOL0     C22633  10.911   6.213   3.468 -0.2315 -0.1529  0.5830
  930MOL0     C22634  10.772   6.225   3.479  0.1232 -1.5849  0.3316
  930MOL0     C22635  10.700   6.180   3.588 -0.1818  1.3552 -0.3343
  930MOL0     O22636  10.566   6.202   3.590 -0.3570  0.1173  0.6487
  930MOL0     C22637  10.491   6.098   3.524 -0.4284 -0.6340  0.3328
  930MOL0     C22638  10.396   6.169   3.430  0.1981  0.4613  0.2062
  930MOL0     C22639  10.266   6.232   3.493 -1.3572 -0.1415  0.6189
  930MOL0     C22640  10.161   6.125   3.517 -0.0460 -0.3217  0.0523
  930MOL0     C22641  10.046   6.183   3.604 -0.5439  0.4012  0.3666
  930MOL0     C22642   9.909   6.104   3.588  0.2704  0.0191  1.0472
  930MOL0     C22643   9.920   5.951   3.603 -0.5245 -0.7225  0.2492
  930MOL0     C22644   9.815   5.867   3.525 -0.2937  0.0347 -0.5288
  930MOL0     N22645   9.821   5.888   3.376 -1.0761  0.6413 -0.6305
  930MOL0     C22646   9.710   5.918   3.295  0.0251 -0.1777  0.1140
  930MOL0     C22647   9.776   5.940   3.173 -0.8335  0.1474  0.5993
  930MOL0     C22648   9.710   5.964   3.038  0.2531  0.3127 -0.1091
  930MOL0     C22649   9.772   5.898   2.909  0.3846  0.3465  0.4387
  930MOL0     C22650   9.762   5.741   2.903 -0.8289 -0.1323 -0.1282
  930MOL0     C22651   9.619   5.682   2.920  0.6045 -0.3565  0.5081
  930MOL0     O22652   9.588   5.648   3.050  0.4719 -0.3130 -1.7737
  930MOL0     C22653   9.456   5.623   3.079 -0.6292  0.0493 -0.2755
  930MOL0     C22654   9.374   5.576   2.984  0.4234 -0.3209  0.6471
  930MOL0     C22655   9.230   5.603   2.993 -0.6934  0.6544 -0.7233
  930MOL0     C22656   9.179   5.651   3.115 -0.3091 -0.0202 -0.5564
  930MOL0     C22657   9.040   5.666   3.147  0.0976 -1.0990  0.6024
  930MOL0     O22658   9.013   5.706   3.284  0.6708  0.0447  0.3398
  930MOL0     C22659   8.893   5.690   3.357 -0.8345 -1.1960  0.4203
  930MOL0     C22660   8.890   5.764   3.482  0.3358 -0.2835  0.4559
  930MOL0     C22661   8.776   5.773   3.549 -0.1905 -0.3289 -0.4510
  930MOL0     C22662   8.654   5.725   3.500  0.2482  1.1249  0.2192
  930MOL0     O22663   8.532   5.752   3.559 -0.1727 -0.0052  0.2848
  930MOL0     C22664   8.509   5.882   3.611 -0.3815 -0.9897  0.3357
  930MOL0     C22665   8.409   5.887   3.730  0.2279 -0.4148 -1.3374
  930MOL0     C22666   8.269   5.840   3.701 -0.8230  0.0807 -0.5088
  930MOL0     C22667   8.185   5.843   3.830  1.2450  0.1457 -0.2081
  930MOL0     C22668   8.094   5.962   3.844  0.3190  0.5562 -0.2597
  930MOL0     C22669   8.002   5.944   3.968  0.3171  0.1941 -0.3083
  930MOL0     C22670   7.947   6.087   3.994 -0.7183 -0.6144 -0.4359
  930MOL0     C22671   7.834   6.126   3.897 -0.6609  0.5088 -0.3938
  930MOL0    Cl22672   7.734   6.266   3.949  0.0647  0.2885  0.0266
  930MOL0     C22673   8.656   5.648   3.383 -0.8229 -0.3414  0.3691
  930MOL0     C22674   8.773   5.626   3.309 -0.3365 -0.0487 -0.3520
  930MOL0     O22675   8.955   5.627   3.062  0.0641  0.5144  0.1758
  930MOL0     C22676   9.268   5.683   3.222 -0.2777 -0.4002  0.8204
  930MOL0     C22677   9.403   5.669   3.199  0.5184  0.1654  0.2430
  930MOL0     N22678   9.914   5.929   3.187 -0.4372  0.3449 -0.7526
  930MOL0     N22679   9.937   5.902   3.307 -0.0024  0.5939 -0.1850
  930MOL0     C22680  10.765   6.104   3.688  0.6199  0.1184 -0.3133
  930MOL0     C22681  10.896   6.083   3.670 -0.5877  0.8724 -0.0631
  930MOL0     C22682  11.323   6.246   3.621 -0.1415 -1.0534  1.0772
  930MOL0     C22683  11.410   6.347   3.682  0.5515  0.3633 -0.6813
  930MOL0     C22684  11.547   6.360   3.648  0.0749 -0.2977 -0.8448
  930MOL0     C22685  11.596   6.257   3.560 -0.6554 -0.0791 -0.5662
  930MOL0     O22686  11.729   6.243   3.525 -0.7474  0.3058 -0.4826
  930MOL0     C22687  11.799   6.345   3.459  0.3532  0.1798  0.0338
  930MOL0     C22688  11.846   6.289   3.317  0.1508  0.4659 -0.7120
  930MOL0     C22689  11.982   6.333   3.271 -0.0611 -0.4362  0.7085
  930MOL0     C22690  12.026   6.278   3.145 -0.6741  0.2239 -0.4178
  930MOL0     C22691  12.165   6.330   3.111  0.8648  0.6237  0.5162
  930MOL0     C22692  12.266   6.384   3.071 -0.5208  0.6216 -0.8207
  930MOL0     C22693  11.510   6.156   3.516 -0.0274 -0.2250  0.1136
  930MOL0     C22694  11.375   6.157   3.536  0.4698  1.2901  0.6393
  930MOL0     H22695  10.969   6.254   3.385  0.1058 -3.9131 -1.2584
  930MOL0     H22696  10.730   6.285   3.399 -2.6790 -2.7121  0.8449
  930MOL0     H22697  10.441   6.044   3.605 -1.1280  0.2256  0.4970
  930MOL0     H22698  10.558   6.034   3.467 -0.0797  1.4791 -1.7877
  930MOL0     H22699  10.368   6.097   3.352  1.2480 -0.7269  0.8757
  930MOL0     H22700  10.461   6.228   3.365 -1.6793  0.6093 -1.6008
  930MOL0     H22701  10.224   6.312   3.431 -2.6255 -1.5586 -0.4262
  930MOL0     H22702  10.288   6.280   3.589  0.9711  2.2345 -0.9752
  930MOL0     H22703  10.131   6.079   3.422  0.9003 -3.7488  1.2703
  930MOL0     H22704  10.204   6.043   3.574  2.6430  0.0037 -1.3463
  930MOL0     H22705  10.019   6.285   3.576  1.4523  0.2728 -2.4532
  930MOL0     H22706  10.074   6.179   3.710  2.3765  1.1723 -0.3020
  930MOL0     H22707   9.882   6.121   3.483 -1.2836  0.3938  1.4843
  930MOL0     H22708   9.837   6.136   3.664  0.6757 -0.6783  1.7368
  930MOL0     H22709  10.020   5.917   3.573 -2.0291 -4.6322 -0.8949
  930MOL0     H22710   9.918   5.918   3.708  2.8290  0.0207  0.6598
  930MOL0     H22711   9.716   5.885   3.568  0.1492  0.4694  0.3391
  930MOL0     H22712   9.832   5.760   3.543 -0.3132  0.0306 -0.5347
  930MOL0     H22713   9.603   5.921   3.317  0.4382 -1.0159  2.5045
  930MOL0     H22714   9.716   6.071   3.020  0.5064  0.3019 -0.0884
  930MOL0     H22715   9.603   5.944   3.048  0.1588  0.2719 -1.0800
  930MOL0     H22716   9.873   5.936   2.891  2.3571 -2.7987  3.7174
  930MOL0     H22717   9.710   5.941   2.829  1.0026  1.5452  0.5761
  930MOL0     H22718   9.788   5.708   2.802  0.5226 -1.9637  0.7590
  930MOL0     H22719   9.838   5.700   2.969 -1.3870 -2.4411 -0.8240
  930MOL0     H22720   9.606   5.600   2.849  2.2652 -0.8450  0.7247
  930MOL0     H22721   9.547   5.762   2.902 -0.0185 -0.7301  1.2459
  930MOL0     H22722   9.408   5.525   2.894 -2.1632 -1.1630  0.0493
  930MOL0     H22723   9.163   5.560   2.920 -0.3338  0.5358 -0.9874
  930MOL0     H22724   8.986   5.809   3.504  0.7162 -0.8717  0.0504
  930MOL0     H22725   8.780   5.815   3.649 -1.0284 -0.2448 -0.4483
  930MOL0     H22726   8.470   5.949   3.533 -0.4462  1.1315  2.1013
  930MOL0     H22727   8.601   5.924   3.652 -0.2801  0.9294 -1.6470
  930MOL0     H22728   8.400   5.992   3.759  2.4290  0.1341 -2.3719
  930MOL0     H22729   8.459   5.833   3.811  0.3665  1.1974 -0.3003
  930MOL0     H22730   8.304   5.739   3.680  4.5540  1.4561  0.2352
  930MOL0     H22731   8.218   5.891   3.619 -2.0980 -1.9263 -1.0299
  930MOL0     H22732   8.128   5.750   3.832  1.9161 -0.2903  2.2761
  930MOL0     H22733   8.247   5.843   3.920 -0.1204 -0.4321  0.7601
  930MOL0     H22734   8.026   5.976   3.759  1.3603  0.4713 -1.1259
  930MOL0     H22735   8.151   6.055   3.850  1.7016 -0.2372 -0.8214
  930MOL0     H22736   8.051   5.902   4.056 -0.9551  0.3067  0.4714
  930MOL0     H22737   7.920   5.873   3.956 -1.9450  2.4383  0.8061
  930MOL0     H22738   7.904   6.090   4.094  1.2450  1.5339  0.4529
  930MOL0     H22739   8.029   6.159   4.001 -0.9780 -0.2531 -0.9986
  930MOL0     H22740   7.774   6.036   3.883  1.5905 -0.9869 -0.9315
  930MOL0     H22741   7.874   6.143   3.796  1.0960 -1.8303 -0.1612
  930MOL0     H22742   8.558   5.617   3.349 -0.6671 -0.9025  0.4305
  930MOL0     H22743   8.772   5.570   3.215  2.4363  2.5825 -2.1517
  930MOL0     H22744   9.228   5.724   3.314 -0.5150  1.5454 -0.1082
  930MOL0     H22745   9.473   5.711   3.270  1.8337  1.1052 -1.5488
  930MOL0     H22746  10.710   6.082   3.779  0.2637 -0.9215 -0.7726
  930MOL0     H22747  10.937   6.021   3.749  0.5329  0.9334 -0.5746
  930MOL0     H22748  11.373   6.430   3.741 -3.4939 -0.5933 -1.5450
  930MOL0     H22749  11.598   6.450   3.682 -1.1109  1.2830 -2.9756
  930MOL0     H22750  11.882   6.365   3.528  0.4410 -3.1025  1.0910
  930MOL0     H22751  11.734   6.433   3.453 -1.6786 -1.0285  2.2530
  930MOL0     H22752  11.847   6.180   3.310  0.0892  0.4552 -0.5666
  930MOL0     H22753  11.769   6.319   3.246  0.7856 -1.0608 -2.1069
  930MOL0     H22754  12.049   6.298   3.350  0.7170  2.1407  1.2975
  930MOL0     H22755  11.995   6.441   3.280  1.4903 -0.4171 -1.0431
  930MOL0     H22756  12.039   6.170   3.155  0.8368  0.4081 -0.2127
  930MOL0     H22757  11.954   6.300   3.066 -2.8524  1.5949  1.8002
  930MOL0     H22758  12.349   6.436   3.028  0.1022  0.8674  0.6278
  930MOL0     H22759  11.560   6.077   3.463  1.8361  0.3200  0.9908
  930MOL0     H22760  11.317   6.089   3.474 -0.3071  2.8253 -0.3726
  931MOL0     O22761   1.965   9.040   7.488  0.3487  0.4083  0.2316
  931MOL0     C22762   2.029   8.934   7.493 -0.1442  0.3334 -1.1806
  931MOL0     O22763   1.970   8.816   7.493 -0.0315 -0.6444  0.3622
  931MOL0     C22764   1.870   8.789   7.398 -0.2100  0.9097 -0.2015
  931MOL0     C22765   1.782   8.676   7.417 -0.0894 -0.7524  0.5132
  931MOL0     C22766   1.677   8.649   7.325 -0.8371  0.6643 -0.4529
  931MOL0     C22767   1.669   8.719   7.205  0.0953 -0.2203  1.1841
  931MOL0     O22768   1.581   8.696   7.108  0.2401  0.2386  1.0109
  931MOL0     C22769   1.469   8.615   7.146 -0.8646 -0.1088 -0.2254
  931MOL0     C22770   1.349   8.637   7.060  0.3120  0.6337  0.8105
  931MOL0     C22771   1.256   8.757   7.106  0.5806  0.2036  0.0904
  931MOL0     C22772   1.123   8.759   7.023  0.2952  0.9286 -0.0779
  931MOL0     C22773   1.038   8.872   7.070  0.5600  0.5573 -0.4285
  931MOL0     C22774   0.962   8.821   7.197 -0.1738 -0.3784  0.1964
  931MOL0     C22775   0.870   8.929   7.246 -0.6781  0.6021 -0.0740
  931MOL0     C22776   0.797   8.869   7.364 -0.3298 -0.2809  0.2086
  931MOL0     N22777   0.693   8.959   7.414 -0.0943 -0.5182 -0.4641
  931MOL0     C22778   0.562   8.964   7.386 -0.4090 -0.6799 -1.0303
  931MOL0     C22779   0.510   9.060   7.463  0.2175  1.0265  0.0885
  931MOL0     C22780   0.363   9.089   7.485  0.6753 -0.2832  0.8909
  931MOL0     C22781   0.273   9.030   7.378 -0.1224 -0.1754 -0.6739
  931MOL0     C22782   0.128   9.075   7.403 -0.5925  1.0415 -0.0526
  931MOL0     C22783   0.028   9.013   7.304  0.5483  0.2140 -0.0473
  931MOL0     O22784  -0.001   8.878   7.350  0.2092  0.1995  0.0070
  931MOL0     C22785  -0.131   8.838   7.333  0.6811 -0.6833 -0.0971
  931MOL0     C22786  -0.181   8.756   7.436 -0.2100 -0.4208  0.6622
  931MOL0     C22787  -0.319   8.732   7.438  0.2047  0.5133 -0.2877
  931MOL0     C22788  -0.399   8.789   7.339  0.6747  1.3360  0.6012
  931MOL0     C22789  -0.547   8.772   7.331  0.5497 -0.2732  0.4362
  931MOL0     O22790  -0.615   8.769   7.215  0.0853 -0.0363 -0.2729
  931MOL0     C22791  -0.748   8.760   7.203  0.6461 -1.0030  0.4162
  931MOL0     C22792  -0.791   8.694   7.087 -0.2116 -0.6530 -0.5774
  931MOL0     C22793  -0.926   8.671   7.071 -0.0219 -0.6629  0.0424
  931MOL0     C22794  -1.019   8.716   7.158  0.1088 -0.1752 -0.4563
  931MOL0     O22795  -1.147   8.683   7.122 -0.4073  0.6664  0.2363
  931MOL0     C22796  -1.236   8.778   7.173 -0.3990  1.4647  0.9644
  931MOL0     C22797  -1.367   8.751   7.099 -0.2022 -1.1869 -0.6704
  931MOL0     C22798  -1.484   8.854   7.132 -0.9696 -0.6667 -0.0279
  931MOL0     C22799  -1.477   8.996   7.058  0.3548 -0.0112  0.1984
  931MOL0     C22800  -1.606   9.083   7.058 -0.3625 -0.6883 -0.3351
  931MOL0     C22801  -1.659   9.123   7.198  0.6096  0.5488  0.6089
  931MOL0     C22802  -1.559   9.174   7.303  0.3616  0.6109  1.1298
  931MOL0     C22803  -1.617   9.234   7.436 -0.3910 -0.3014 -0.4840
  931MOL0    Cl22804  -1.474   9.290   7.549  0.8496 -0.3458  0.4564
  931MOL0     C22805  -0.979   8.795   7.275  0.1832  0.9973  0.1947
  931MOL0     C22806  -0.849   8.817   7.295  0.0797 -0.4791  0.4475
  931MOL0     O22807  -0.602   8.746   7.434 -0.1552 -0.5156 -0.2404
  931MOL0     C22808  -0.348   8.856   7.228  0.3153 -0.0758 -0.1638
  931MOL0     C22809  -0.209   8.881   7.229  0.0187 -0.0199  0.3832
  931MOL0     N22810   0.614   9.117   7.540  0.1159  0.1849  0.1044
  931MOL0     N22811   0.718   9.052   7.510 -0.0621  0.1054  0.3048
  931MOL0     C22812   1.762   8.822   7.182  0.3529 -0.0035  0.1699
  931MOL0     C22813   1.866   8.853   7.275  0.0277  0.8829  0.2894
  931MOL0     C22814   2.176   8.942   7.510  0.9533 -0.9962 -0.1289
  931MOL0     C22815   2.229   8.846   7.602  0.7612  0.0461 -0.7803
  931MOL0     C22816   2.368   8.852   7.630 -0.3428  0.3240  0.1886
  931MOL0     C22817   2.454   8.944   7.565 -0.3643 -0.1877 -0.1634
  931MOL0     O22818   2.593   8.946   7.592 -0.3266 -0.0274 -0.2182
  931MOL0     C22819   2.660   8.817   7.614  0.4292  0.5222 -0.7331
  931MOL0     C22820   2.674   8.784   7.762 -0.6092  0.7141 -0.6952
  931MOL0     C22821   2.752   8.895   7.833 -0.3404  1.7711  0.2386
  931MOL0     C22822   2.806   8.848   7.974 -0.3231 -0.4506  0.3219
  931MOL0     C22823   2.931   8.924   7.997 -0.0661  0.1200 -0.6424
  931MOL0     C22824   3.035   8.984   8.024  0.1779  0.0270  0.0374
  931MOL0     C22825   2.398   9.045   7.484  0.0675  0.3157  0.4685
  931MOL0     C22826   2.258   9.041   7.458 -1.0271 -0.7168  0.1586
  931MOL0     H22827   1.777   8.630   7.515 -0.3421 -0.0145  0.8524
  931MOL0     H22828   1.610   8.565   7.345  2.8234 -2.3929  0.1189
  931MOL0     H22829   1.438   8.639   7.248  4.6269  1.3921  1.4098
  931MOL0     H22830   1.505   8.512   7.136 -1.4182 -0.1050 -2.8275
  931MOL0     H22831   1.296   8.541   7.062  5.1598 -2.5706 -2.8994
  931MOL0     H22832   1.380   8.660   6.958 -1.1451 -2.7505 -0.5257
  931MOL0     H22833   1.316   8.848   7.100  0.2811  0.5683  1.9734
  931MOL0     H22834   1.238   8.748   7.213 -0.4747  3.7515  0.3239
  931MOL0     H22835   1.145   8.794   6.922 -2.3584  2.8900 -0.0919
  931MOL0     H22836   1.069   8.664   7.014  2.0089 -0.0306 -0.7376
  931MOL0     H22837   0.960   8.892   6.995 -0.2361 -2.1505 -0.4345
  931MOL0     H22838   1.084   8.969   7.090  1.5236 -0.2506  1.4418
  931MOL0     H22839   1.033   8.794   7.276 -1.1749 -0.2467  1.1731
  931MOL0     H22840   0.898   8.734   7.185  0.1208 -0.8108  1.5554
  931MOL0     H22841   0.922   9.018   7.283 -0.9662 -0.2101  2.4816
  931MOL0     H22842   0.796   8.954   7.169 -1.3629 -1.7241 -0.2524
  931MOL0     H22843   0.867   8.844   7.443 -1.0511  1.6063  1.5198
  931MOL0     H22844   0.759   8.771   7.335 -0.5434 -0.3240  0.6197
  931MOL0     H22845   0.522   8.893   7.314  3.8808 -0.9736 -3.4334
  931MOL0     H22846   0.339   9.196   7.487  0.0488 -0.2025 -3.2473
  931MOL0     H22847   0.336   9.045   7.582 -1.5548  0.8327  0.8360
  931MOL0     H22848   0.276   8.921   7.377  1.4635 -0.1601 -1.5956
  931MOL0     H22849   0.314   9.074   7.286  3.9562 -0.6253  0.7452
  931MOL0     H22850   0.101   9.064   7.509  1.2657 -3.7181  0.1982
  931MOL0     H22851   0.115   9.182   7.387 -0.6763  0.8568 -1.2872
  931MOL0     H22852   0.068   9.017   7.202  0.9151  1.8625  0.1370
  931MOL0     H22853  -0.063   9.073   7.295 -0.9752 -1.4454  2.7704
  931MOL0     H22854  -0.113   8.714   7.509  1.4178  2.9165  1.2574
  931MOL0     H22855  -0.372   8.691   7.523  0.3360 -1.6035 -1.1588
  931MOL0     H22856  -0.720   8.651   7.017  1.9326  1.4126  0.2111
  931MOL0     H22857  -0.963   8.618   6.983  0.2372  0.5198 -0.8004
  931MOL0     H22858  -1.201   8.880   7.154  2.2970  0.2489 -1.5702
  931MOL0     H22859  -1.243   8.745   7.277 -1.1825 -1.1613  0.1729
  931MOL0     H22860  -1.409   8.654   7.125 -1.9891 -0.6024 -1.2233
  931MOL0     H22861  -1.361   8.766   6.991 -1.8964  4.2741 -0.2846
  931MOL0     H22862  -1.499   8.871   7.239  0.2951  0.9034 -0.0675
  931MOL0     H22863  -1.570   8.800   7.090  0.2996 -1.5921 -1.5871
  931MOL0     H22864  -1.398   9.059   7.101 -0.4976  0.7261  0.7348
  931MOL0     H22865  -1.452   8.991   6.952 -0.2972 -0.0163  0.0413
  931MOL0     H22866  -1.687   9.035   7.001  0.1877 -1.0893 -0.7914
  931MOL0     H22867  -1.587   9.175   7.003 -0.8833 -1.8683 -2.6188
  931MOL0     H22868  -1.692   9.032   7.247 -1.9215  0.7111 -0.6408
  931MOL0     H22869  -1.742   9.191   7.181  0.5178  0.0676 -1.0350
  931MOL0     H22870  -1.500   9.088   7.337  2.1614 -0.0551 -3.1301
  931MOL0     H22871  -1.486   9.241   7.257 -1.8952  1.2333 -1.8714
  931MOL0     H22872  -1.682   9.158   7.479 -0.8388  0.9827  1.1846
  931MOL0     H22873  -1.676   9.325   7.429 -3.8479 -2.1632  1.6170
  931MOL0     H22874  -1.036   8.835   7.358  1.5467  0.0220  1.6624
  931MOL0     H22875  -0.804   8.864   7.381 -0.7103  1.6674 -0.2468
  931MOL0     H22876  -0.399   8.904   7.145  1.3856  1.6419  0.1120
  931MOL0     H22877  -0.179   8.933   7.139 -0.6876  1.1174  0.7874
  931MOL0     H22878   1.760   8.874   7.086  1.9864 -0.3341 -0.0770
  931MOL0     H22879   1.943   8.924   7.246  1.0893  0.5180  2.0801
  931MOL0     H22880   2.166   8.776   7.655 -2.7610 -0.6409 -5.2579
  931MOL0     H22881   2.396   8.773   7.698 -1.7143  0.3018  0.7585
  931MOL0     H22882   2.755   8.822   7.561  0.6432  0.0154 -0.3985
  931MOL0     H22883   2.600   8.739   7.566  3.4148 -1.4111 -1.5910
  931MOL0     H22884   2.578   8.778   7.814  0.5991  1.8981  1.8419
  931MOL0     H22885   2.717   8.684   7.775 -2.7085 -0.2052 -0.3644
  931MOL0     H22886   2.696   8.988   7.847 -0.4259  1.8246 -0.3860
  931MOL0     H22887   2.833   8.915   7.762 -3.0927  1.8392 -3.1678
  931MOL0     H22888   2.735   8.878   8.051 -1.5229 -1.2769 -0.4237
  931MOL0     H22889   2.822   8.740   7.981  2.8816 -0.0297  0.8640
  931MOL0     H22890   3.117   9.047   8.053  0.4069 -1.1257  2.0918
  931MOL0     H22891   2.460   9.122   7.441 -0.0208  0.8734  1.3145
  931MOL0     H22892   2.217   9.113   7.388  0.9659  0.4566  0.1443
  932MOL0     O22893   1.957   8.794   0.891 -0.3687  0.4315 -0.1628
  932MOL0     C22894   2.021   8.787   0.994 -0.4983  0.1291 -0.8031
  932MOL0     O22895   1.971   8.782   1.120 -0.3045  0.2647 -0.3829
  932MOL0     C22896   1.839   8.755   1.152  0.7513 -0.2289  0.5748
  932MOL0     C22897   1.724   8.779   1.069 -0.0079 -0.1143  0.2313
  932MOL0     C22898   1.589   8.753   1.105 -0.1024 -0.7241 -1.2261
  932MOL0     C22899   1.567   8.685   1.227  0.0077  0.4534 -0.5497
  932MOL0     O22900   1.445   8.644   1.272  0.0659 -0.4937  0.0057
  932MOL0     C22901   1.330   8.709   1.225 -0.1899 -0.2749 -0.1647
  932MOL0     C22902   1.219   8.662   1.318  0.2817 -0.5655 -0.1812
  932MOL0     C22903   1.092   8.678   1.245 -0.2704  0.0370 -0.4132
  932MOL0     C22904   0.983   8.619   1.325  0.4434 -0.0757 -0.4614
  932MOL0     C22905   0.849   8.666   1.286  0.5050  0.6645 -0.1076
  932MOL0     C22906   0.748   8.569   1.342  0.2609  0.0970  0.2544
  932MOL0     C22907   0.610   8.628   1.319 -0.6721  0.3468 -0.1270
  932MOL0     C22908   0.564   8.716   1.434  0.0667  0.1400 -0.3688
  932MOL0     N22909   0.462   8.809   1.381 -0.8347  0.0227  0.9943
  932MOL0     C22910   0.330   8.790   1.374  0.2842  0.0343 -0.7259
  932MOL0     C22911   0.279   8.909   1.327  0.2683 -0.2147 -0.2919
  932MOL0     C22912   0.131   8.927   1.284  0.4651  0.3801 -0.0587
  932MOL0     C22913   0.052   9.004   1.391 -0.3149  0.3267 -0.0890
  932MOL0     C22914   0.081   9.151   1.376  0.2524 -1.1664  0.0046
  932MOL0     C22915  -0.020   9.255   1.434  0.2072 -0.4817 -0.5084
  932MOL0     O22916  -0.143   9.228   1.374  0.5580 -0.5099 -0.2218
  932MOL0     C22917  -0.250   9.316   1.393 -0.5820 -0.9116  0.1676
  932MOL0     C22918  -0.369   9.303   1.316 -0.1816  0.4750 -0.5466
  932MOL0     C22919  -0.483   9.371   1.342 -0.9270  0.1703 -0.7693
  932MOL0     C22920  -0.474   9.466   1.449  0.4065  1.6584 -0.2112
  932MOL0     C22921  -0.597   9.542   1.476  0.4864 -0.5970  0.1800
  932MOL0     O22922  -0.717   9.481   1.442 -0.6278 -1.2227  0.6615
  932MOL0     C22923  -0.836   9.549   1.467 -0.1748  0.5441  0.0312
  932MOL0     C22924  -0.935   9.491   1.552  0.3792  0.2683  0.3675
  932MOL0     C22925  -1.065   9.556   1.559  0.1404  0.4245  0.5499
  932MOL0     C22926  -1.102   9.666   1.486  0.0741  0.2566 -0.3399
  932MOL0     O22927  -1.226   9.722   1.505 -0.5410  1.2669 -0.0352
  932MOL0     C22928  -1.281   9.802   1.404 -0.2455 -0.0541  0.9165
  932MOL0     C22929  -1.402   9.885   1.463  0.0387 -0.4639 -0.5432
  932MOL0     C22930  -1.525   9.799   1.520 -0.0020  0.3065 -0.0050
  932MOL0     C22931  -1.616   9.886   1.605  0.6341  0.4108  0.4878
  932MOL0     C22932  -1.710   9.798   1.690  0.0894  0.6602 -0.2016
  932MOL0     C22933  -1.809   9.702   1.625  0.8721 -0.0453 -0.0647
  932MOL0     C22934  -1.954   9.701   1.688 -0.3317  0.4716  0.3411
  932MOL0     C22935  -2.049   9.625   1.595 -0.0494 -0.0814  0.0177
  932MOL0    Cl22936  -2.221   9.655   1.620 -0.4434  0.1212  0.3760
  932MOL0     C22937  -0.997   9.712   1.397 -0.9198 -0.9256  0.5244
  932MOL0     C22938  -0.871   9.654   1.394 -0.0800  0.1456  0.2069
  932MOL0     O22939  -0.588   9.645   1.537 -0.2914 -0.4156  1.0954
  932MOL0     C22940  -0.352   9.499   1.506  0.3208 -0.7640 -0.3564
  932MOL0     C22941  -0.243   9.422   1.487  1.0401  0.2507 -0.1277
  932MOL0     N22942   0.382   8.992   1.305 -0.3212 -0.1416 -0.2036
  932MOL0     N22943   0.497   8.927   1.320  1.3315 -0.3678 -0.1202
  932MOL0     C22944   1.685   8.643   1.305  0.5096  0.4924 -0.3297
  932MOL0     C22945   1.808   8.687   1.268 -0.3917 -0.2106 -0.7080
  932MOL0     C22946   2.163   8.808   0.975  0.1619 -0.0223  0.6336
  932MOL0     C22947   2.224   8.833   0.853  0.0953 -0.3290  0.4158
  932MOL0     C22948   2.362   8.827   0.840  0.1751  0.1039  0.4202
  932MOL0     C22949   2.442   8.824   0.955  0.2604  0.7545 -0.2339
  932MOL0     O22950   2.578   8.845   0.936 -0.3566  0.1230 -0.2252
  932MOL0     C22951   2.657   8.869   1.055 -0.1648 -0.0948 -0.6607
  932MOL0     C22952   2.702   8.744   1.117  0.0773 -0.3892 -0.2923
  932MOL0     C22953   2.762   8.643   1.013  0.3621 -0.1073  0.6731
  932MOL0     C22954   2.812   8.514   1.085  0.3579  0.3338 -0.3063
  932MOL0     C22955   2.870   8.431   0.981 -0.8821 -0.4757  0.7494
  932MOL0     C22956   2.916   8.378   0.884  0.7598 -0.0156  0.2824
  932MOL0     C22957   2.386   8.807   1.080 -0.3340 -0.2381  0.2728
  932MOL0     C22958   2.244   8.807   1.091 -0.7756  0.2083  0.5010
  932MOL0     H22959   1.725   8.826   0.971 -0.4066  1.5650  1.0122
  932MOL0     H22960   1.512   8.781   1.034 -1.1809  1.9910  0.7877
  932MOL0     H22961   1.304   8.669   1.127  1.0760 -0.2822 -0.5126
  932MOL0     H22962   1.342   8.817   1.226 -1.7114 -0.0620 -1.3530
  932MOL0     H22963   1.216   8.714   1.414  1.2996 -0.9129  0.0562
  932MOL0     H22964   1.230   8.554   1.331  0.4246 -0.4948  0.3254
  932MOL0     H22965   1.092   8.631   1.146  0.2071  1.3802 -1.0820
  932MOL0     H22966   1.073   8.785   1.229 -0.5064  0.3898  1.8819
  932MOL0     H22967   0.986   8.511   1.308 -1.6396  0.0311 -1.8099
  932MOL0     H22968   1.001   8.645   1.430 -0.2250 -0.4000 -0.2622
  932MOL0     H22969   0.850   8.660   1.177 -1.3943 -0.3720 -0.1096
  932MOL0     H22970   0.833   8.769   1.321 -0.1059  0.4530  0.2427
  932MOL0     H22971   0.767   8.557   1.450  0.6684 -0.0577  0.1690
  932MOL0     H22972   0.763   8.477   1.285 -2.9761  0.6381 -1.6930
  932MOL0     H22973   0.621   8.694   1.233  3.9593 -1.4509 -1.1966
  932MOL0     H22974   0.538   8.549   1.296  0.3689 -1.0892  1.3775
  932MOL0     H22975   0.641   8.779   1.479 -0.4044  0.3547  0.1521
  932MOL0     H22976   0.511   8.656   1.509 -1.0120  0.8759 -0.5218
  932MOL0     H22977   0.268   8.711   1.416 -1.3222  1.7388  0.2048
  932MOL0     H22978   0.088   8.828   1.263  0.6482  0.0638  0.9906
  932MOL0     H22979   0.125   8.976   1.186  0.1204  0.7624  0.1568
  932MOL0     H22980   0.087   8.969   1.489  0.5658  2.8022  0.5479
  932MOL0     H22981  -0.055   8.988   1.371 -0.1547  1.4238 -2.0182
  932MOL0     H22982   0.180   9.179   1.412 -0.1652  1.1728 -0.5137
  932MOL0     H22983   0.077   9.161   1.267  1.3484 -2.5758 -0.1906
  932MOL0     H22984   0.025   9.353   1.424  2.4895 -1.2646  1.2129
  932MOL0     H22985  -0.039   9.242   1.541 -3.2054  2.4688 -0.5780
  932MOL0     H22986  -0.384   9.244   1.226 -2.4927  1.1185 -0.6302
  932MOL0     H22987  -0.575   9.337   1.296 -0.6276 -0.8589 -0.6261
  932MOL0     H22988  -0.917   9.408   1.619  1.8928 -0.3194 -0.7122
  932MOL0     H22989  -1.140   9.513   1.624  0.6297 -0.8525  0.3152
  932MOL0     H22990  -1.305   9.728   1.326  1.1245 -0.9020  1.2708
  932MOL0     H22991  -1.203   9.865   1.360  1.1148 -1.5726  1.0526
  932MOL0     H22992  -1.442   9.957   1.391  1.9068  2.0094  0.7163
  932MOL0     H22993  -1.363   9.943   1.547  1.2917 -0.2971 -1.2241
  932MOL0     H22994  -1.485   9.726   1.591 -1.1173  0.5865  0.9538
  932MOL0     H22995  -1.585   9.741   1.448 -1.8508  3.2690 -1.0261
  932MOL0     H22996  -1.562   9.965   1.658  0.9359  2.8113 -3.0762
  932MOL0     H22997  -1.679   9.947   1.540  0.3696 -0.0486  0.3074
  932MOL0     H22998  -1.753   9.877   1.753  0.1456 -0.3481  1.1502
  932MOL0     H22999  -1.646   9.747   1.764  0.2803  0.1081 -0.7365
  932MOL0     H23000  -1.761   9.604   1.621  2.4618  0.7155 -0.1823
  932MOL0     H23001  -1.826   9.724   1.519 -0.3647  0.9047  0.2952
  932MOL0     H23002  -1.954   9.650   1.784  2.7823  2.2120  1.4285
  932MOL0     H23003  -1.982   9.806   1.698  2.2631  1.3426 -0.5209
  932MOL0     H23004  -2.032   9.517   1.587 -1.3591 -0.4601  1.6082
  932MOL0     H23005  -2.026   9.677   1.502  0.3841  1.5875  1.0270
  932MOL0     H23006  -1.016   9.798   1.334 -0.2995 -1.7979 -0.8773
  932MOL0     H23007  -0.785   9.680   1.334  1.7882  0.2478  2.8074
  932MOL0     H23008  -0.333   9.571   1.585  3.3150  0.1430 -1.7496
  932MOL0     H23009  -0.153   9.447   1.542  1.3771  1.3427 -1.1449
  932MOL0     H23010   1.691   8.595   1.402  3.2208 -0.4685 -0.8924
  932MOL0     H23011   1.885   8.653   1.337 -1.5059 -0.2734  0.5378
  932MOL0     H23012   2.168   8.859   0.763  0.9658  2.0750  0.5053
  932MOL0     H23013   2.397   8.841   0.739 -3.6689 -0.7125 -1.2083
  932MOL0     H23014   2.599   8.928   1.126 -1.3925  0.0772 -1.7622
  932MOL0     H23015   2.745   8.932   1.036  0.4300 -0.4601  0.7878
  932MOL0     H23016   2.786   8.765   1.184  1.8700 -0.9445 -2.2789
  932MOL0     H23017   2.621   8.703   1.178  0.2800  0.0969  0.3127
  932MOL0     H23018   2.847   8.690   0.964 -0.0538  0.4863  0.5094
  932MOL0     H23019   2.694   8.605   0.935 -1.0433 -1.6943  2.5683
  932MOL0     H23020   2.895   8.537   1.153 -1.2775  1.0241  1.5402
  932MOL0     H23021   2.736   8.460   1.141  0.9714  0.8785  1.1010
  932MOL0     H23022   2.955   8.316   0.805 -0.7404  0.6225 -1.0079
  932MOL0     H23023   2.446   8.807   1.170  1.8991 -0.3841 -1.1311
  932MOL0     H23024   2.207   8.807   1.193 -0.0927  0.4261  0.7576
  933MOL0     O23025   1.636   1.259   6.913 -0.7670 -0.3485  0.6210
  933MOL0     C23026   1.663   1.270   7.030  0.0224 -1.0162  0.7573
  933MOL0     O23027   1.576   1.288   7.127  0.2885  0.1901 -0.3634
  933MOL0     C23028   1.442   1.285   7.096  0.7674  0.4641  0.1571
  933MOL0     C23029   1.367   1.201   7.177 -0.1750  0.0664  0.3388
  933MOL0     C23030   1.225   1.187   7.164  0.3542  0.5720 -0.7992
  933MOL0     C23031   1.164   1.277   7.071  0.2594 -0.2957 -0.3889
  933MOL0     O23032   1.026   1.285   7.066 -0.3495  0.4212  0.4312
  933MOL0     C23033   0.938   1.168   7.074 -0.6969 -0.7279 -0.3839
  933MOL0     C23034   0.890   1.184   7.229  0.1246 -0.2618  0.2550
  933MOL0     C23035   0.798   1.067   7.278 -1.1575 -0.2557  0.1724
  933MOL0     C23036   0.717   1.105   7.404  0.5872 -0.6617  0.5121
  933MOL0     C23037   0.617   0.990   7.429  0.0787 -0.5416 -0.1218
  933MOL0     C23038   0.580   0.990   7.575  0.2760 -0.6219 -0.4958
  933MOL0     C23039   0.449   0.911   7.600  0.1498 -0.2894  0.2427
  933MOL0     C23040   0.484   0.768   7.607 -0.7122  0.1393 -0.4709
  933MOL0     N23041   0.359   0.681   7.595  0.4021  0.7840  0.0857
  933MOL0     C23042   0.280   0.635   7.697  0.4870  0.4966  1.1695
  933MOL0     C23043   0.181   0.577   7.627 -0.5311  0.4532  0.1778
  933MOL0     C23044   0.072   0.490   7.683  0.4170  0.6521 -0.5535
  933MOL0     C23045   0.118   0.343   7.683 -0.6326 -1.0848  0.0388
  933MOL0     C23046   0.008   0.251   7.746  0.0730  0.6193 -0.3022
  933MOL0     C23047  -0.133   0.250   7.678 -0.5888  0.6393  0.2623
  933MOL0     O23048  -0.232   0.191   7.767  0.4192  0.2584 -0.0449
  933MOL0     C23049  -0.365   0.194   7.738 -0.1809  0.0453  0.8068
  933MOL0     C23050  -0.465   0.179   7.837  0.3363 -0.3177 -0.1466
  933MOL0     C23051  -0.608   0.184   7.799 -0.3215 -0.5035  0.1626
  933MOL0     C23052  -0.643   0.202   7.656 -0.1510  0.7686 -0.5572
  933MOL0     C23053  -0.780   0.207   7.614  0.4130  0.2794  0.2843
  933MOL0     O23054  -0.877   0.192   7.703 -0.6894  0.6441 -0.1099
  933MOL0     C23055  -1.006   0.175   7.655  0.2325 -0.1786 -0.2188
  933MOL0     C23056  -1.070   0.272   7.585  0.3611 -1.1570  0.2985
  933MOL0     C23057  -1.194   0.253   7.536  0.5654  0.3133  0.4538
  933MOL0     C23058  -1.259   0.126   7.543  0.6977 -0.8057 -0.1705
  933MOL0     O23059  -1.389   0.108   7.496  0.2091  0.8570 -1.0585
  933MOL0     C23060  -1.463   0.225   7.455  0.0778  0.0906  0.5729
  933MOL0     C23061  -1.598   0.188   7.391 -0.0439  0.5304  0.5872
  933MOL0     C23062  -1.662   0.066   7.462  0.4542  0.1646  0.0448
  933MOL0     C23063  -1.796   0.039   7.400 -0.8030 -0.2931  0.1149
  933MOL0     C23064  -1.862  -0.077   7.470  1.0338  0.1063 -0.7368
  933MOL0     C23065  -2.009  -0.074   7.414 -0.2866 -0.9632  0.5628
  933MOL0     C23066  -2.118  -0.141   7.488 -0.0975 -0.3660 -0.3540
  933MOL0     C23067  -2.200  -0.235   7.408  0.6739  1.1303 -0.5762
  933MOL0    Cl23068  -2.272  -0.123   7.284  0.1562  0.0235  0.1773
  933MOL0     C23069  -1.189   0.026   7.611  0.5640  0.5042  0.8737
  933MOL0     C23070  -1.060   0.052   7.661  0.2532 -0.0745 -0.3863
  933MOL0     O23071  -0.796   0.223   7.494  0.1691 -0.1509 -0.3482
  933MOL0     C23072  -0.538   0.211   7.562  0.9434 -1.1705 -0.6576
  933MOL0     C23073  -0.408   0.206   7.606 -0.4332  0.2252  0.7742
  933MOL0     N23074   0.198   0.599   7.490 -0.0668  0.9136  0.0014
  933MOL0     N23075   0.307   0.662   7.472 -0.2784  0.5575 -0.4641
  933MOL0     C23076   1.239   1.362   6.991 -0.0492  1.0106 -0.0442
  933MOL0     C23077   1.377   1.370   7.006 -1.0569  0.1722  0.2567
  933MOL0     C23078   1.809   1.245   7.065 -0.6721  0.3696 -0.5546
  933MOL0     C23079   1.856   1.211   7.195  0.2084  0.5735 -0.2342
  933MOL0     C23080   1.990   1.177   7.221 -0.1779 -1.2856 -0.5608
  933MOL0     C23081   2.078   1.192   7.112 -0.2807  0.0471  0.1042
  933MOL0     O23082   2.211   1.196   7.115  0.1954  0.2059  0.4455
  933MOL0     C23083   2.265   1.233   7.235 -1.1103 -0.4336 -0.6739
  933MOL0     C23084   2.413   1.238   7.209 -0.5150 -0.1971 -0.9358
  933MOL0     C23085   2.468   1.356   7.294  0.0774  0.2121 -0.0405
  933MOL0     C23086   2.606   1.329   7.357 -0.0920 -0.8773 -0.3174
  933MOL0     C23087   2.610   1.253   7.482 -0.0697 -0.3913 -0.2706
  933MOL0     C23088   2.615   1.220   7.598  0.2374 -0.2472  0.3304
  933MOL0     C23089   2.040   1.221   6.983 -0.3602  0.0709  0.2049
  933MOL0     C23090   1.906   1.247   6.962 -0.1024 -1.0430 -0.0628
  933MOL0     H23091   1.410   1.147   7.261 -1.5854  0.8169  1.5866
  933MOL0     H23092   1.165   1.118   7.222  0.4966 -0.3772 -1.7506
  933MOL0     H23093   0.997   1.077   7.058  0.4471 -0.1408  0.3295
  933MOL0     H23094   0.849   1.166   7.010  0.4784  1.7040 -2.2374
  933MOL0     H23095   0.829   1.274   7.237  0.9741  0.3986 -0.5936
  933MOL0     H23096   0.970   1.193   7.302 -0.3198 -2.2441  1.0565
  933MOL0     H23097   0.866   0.985   7.305 -1.7369  0.3071  3.8938
  933MOL0     H23098   0.740   1.037   7.190  1.1424 -0.6002 -1.3230
  933MOL0     H23099   0.780   1.126   7.491  0.1399 -0.4778  0.7944
  933MOL0     H23100   0.664   1.197   7.378 -0.3409 -1.0777  0.9005
  933MOL0     H23101   0.659   0.890   7.412  1.9902  0.4871 -1.8932
  933MOL0     H23102   0.537   0.999   7.355  0.4328  0.9095 -0.3549
  933MOL0     H23103   0.564   1.090   7.616 -0.2437 -0.9863  0.2205
  933MOL0     H23104   0.662   0.956   7.639  0.6167  1.5576  0.2954
  933MOL0     H23105   0.406   0.948   7.694  1.1587  1.7082 -0.0280
  933MOL0     H23106   0.373   0.926   7.523 -0.7069 -1.7108  0.7773
  933MOL0     H23107   0.532   0.752   7.705 -1.7995 -2.7284 -0.3206
  933MOL0     H23108   0.555   0.737   7.530  1.0854 -1.8679  1.7958
  933MOL0     H23109   0.297   0.627   7.804  1.4104 -3.8923  0.8958
  933MOL0     H23110  -0.021   0.503   7.626 -0.7740 -1.0331  0.8957
  933MOL0     H23111   0.043   0.517   7.786 -2.8083  0.3685 -1.2668
  933MOL0     H23112   0.215   0.342   7.733  0.1464 -0.8140 -1.4057
  933MOL0     H23113   0.154   0.318   7.583  1.1131  0.3377  0.2536
  933MOL0     H23114   0.049   0.150   7.751  3.8006  1.8779 -1.7956
  933MOL0     H23115  -0.015   0.279   7.849 -5.4724 -3.2440 -0.0516
  933MOL0     H23116  -0.117   0.196   7.584  0.2869  1.5761 -0.1403
  933MOL0     H23117  -0.173   0.348   7.652  1.3169  0.9651 -1.7458
  933MOL0     H23118  -0.456   0.167   7.945 -1.1903 -1.6921 -0.1225
  933MOL0     H23119  -0.684   0.181   7.876 -0.4164 -2.2262  0.0407
  933MOL0     H23120  -1.012   0.364   7.579 -0.3697 -0.7733 -1.7529
  933MOL0     H23121  -1.246   0.340   7.497 -0.4778  0.1891  1.5118
  933MOL0     H23122  -1.418   0.296   7.385 -1.2298 -0.4393 -0.8894
  933MOL0     H23123  -1.482   0.285   7.544 -0.8884 -0.8491  1.0239
  933MOL0     H23124  -1.579   0.158   7.288 -3.5671 -0.4257  0.0571
  933MOL0     H23125  -1.659   0.277   7.405  0.6205  0.8674  1.4641
  933MOL0     H23126  -1.679   0.097   7.565  1.1192  0.9211 -0.0633
  933MOL0     H23127  -1.598  -0.023   7.462  0.2285 -0.0008  0.7204
  933MOL0     H23128  -1.854   0.131   7.408  1.1218  1.0301 -0.5263
  933MOL0     H23129  -1.782   0.011   7.295  0.3805 -1.5727  0.5788
  933MOL0     H23130  -1.872  -0.073   7.579 -1.3123  2.7060 -0.9301
  933MOL0     H23131  -1.815  -0.173   7.447  0.4341  0.0923 -1.9326
  933MOL0     H23132  -2.004  -0.114   7.312  0.4949 -1.2598  0.7049
  933MOL0     H23133  -2.039   0.030   7.405 -0.6639 -1.2474 -2.1708
  933MOL0     H23134  -2.076  -0.209   7.563  2.8835  1.7834  0.1011
  933MOL0     H23135  -2.177  -0.068   7.544  1.1246  0.6444 -0.3202
  933MOL0     H23136  -2.279  -0.283   7.467 -0.2400  4.3236  1.0351
  933MOL0     H23137  -2.149  -0.321   7.364 -4.7615 -2.8178 -0.1598
  933MOL0     H23138  -1.239  -0.069   7.621  0.0426  0.6114 -0.5335
  933MOL0     H23139  -1.009  -0.029   7.711 -2.7115 -1.1803  1.1006
  933MOL0     H23140  -0.560   0.223   7.456 -0.8409  2.3405 -0.0299
  933MOL0     H23141  -0.335   0.228   7.528  0.9989  0.9181  2.2436
  933MOL0     H23142   1.184   1.428   6.924 -2.0092  0.7210  1.1720
  933MOL0     H23143   1.426   1.442   6.941 -0.9102  1.8385  2.1266
  933MOL0     H23144   1.777   1.219   7.269 -0.2133  0.8480 -0.7140
  933MOL0     H23145   2.029   1.157   7.321 -0.7165 -2.0811 -0.5031
  933MOL0     H23146   2.248   1.167   7.321 -0.8725 -0.0550 -0.3335
  933MOL0     H23147   2.230   1.335   7.254 -0.2629 -0.3209  0.3068
  933MOL0     H23148   2.455   1.139   7.232 -1.2590 -0.0817  1.1212
  933MOL0     H23149   2.433   1.268   7.106  1.4063  0.9574 -0.2675
  933MOL0     H23150   2.406   1.378   7.382 -1.4626 -2.9981 -0.1781
  933MOL0     H23151   2.476   1.442   7.228 -1.9912  0.2993 -0.2525
  933MOL0     H23152   2.671   1.276   7.288  1.7983 -0.7980  1.3054
  933MOL0     H23153   2.651   1.426   7.377 -3.3410  0.1422  3.3579
  933MOL0     H23154   2.609   1.207   7.705 -2.2262 -0.7873  0.2061
  933MOL0     H23155   2.107   1.247   6.902 -0.9799 -0.3522 -0.4579
  933MOL0     H23156   1.874   1.275   6.862 -1.5369  0.5333  0.7899
  934MOL0     O23157   4.967   2.275  10.388  0.4095 -0.1386  0.3551
  934MOL0     C23158   5.039   2.177  10.402  0.0499 -0.5629  0.6236
  934MOL0     O23159   4.993   2.056  10.439 -0.4742 -0.8534  0.4727
  934MOL0     C23160   4.872   2.046  10.493  0.3402  0.0868 -0.8094
  934MOL0     C23161   4.754   2.087  10.423  0.3938 -0.2275  0.2803
  934MOL0     C23162   4.626   2.065  10.487  0.4420 -0.8769  0.9007
  934MOL0     C23163   4.609   2.028  10.621 -0.1275 -0.3363  0.0335
  934MOL0     O23164   4.486   2.028  10.681  0.4716 -0.6503  0.1771
  934MOL0     C23165   4.445   1.904  10.729  0.1026  0.3756  0.0801
  934MOL0     C23166   4.294   1.897  10.702  1.0548 -0.9331 -0.6663
  934MOL0     C23167   4.219   2.019  10.764  0.3180  0.1693  0.2230
  934MOL0     C23168   4.069   1.996  10.784 -0.5588 -0.3206  1.3071
  934MOL0     C23169   3.992   2.015  10.645  0.8720  0.6181 -1.3805
  934MOL0     C23170   3.983   2.165  10.612  0.2106  0.3302  0.6462
  934MOL0     C23171   3.883   2.197  10.497 -0.6124 -0.0576 -0.5130
  934MOL0     C23172   3.853   2.342  10.486  0.0241 -0.2442 -0.5521
  934MOL0     N23173   3.731   2.367  10.403  0.0220 -0.5300  0.5296
  934MOL0     C23174   3.730   2.386  10.269  0.6383 -0.4910 -0.4891
  934MOL0     C23175   3.600   2.398  10.228  0.9090  0.2281  0.1844
  934MOL0     C23176   3.560   2.450  10.089 -0.7745  0.6710 -0.4317
  934MOL0     C23177   3.635   2.577  10.062  0.1781  0.0030  0.1086
  934MOL0     C23178   3.562   2.657   9.948 -0.7074 -0.4652  0.7471
  934MOL0     C23179   3.569   2.584   9.812  0.0162  0.5111 -0.4883
  934MOL0     O23180   3.532   2.666   9.702 -0.3861  0.3907  0.3531
  934MOL0     C23181   3.401   2.712   9.699 -0.4128 -0.2892  0.5495
  934MOL0     C23182   3.383   2.828   9.621  0.6338 -0.5607 -0.6147
  934MOL0     C23183   3.255   2.888   9.613 -0.3046 -0.1676  0.2338
  934MOL0     C23184   3.140   2.830   9.676 -1.1148 -0.5971  0.6302
  934MOL0     C23185   3.014   2.902   9.655  0.1015 -0.2436 -0.2118
  934MOL0     O23186   3.005   3.017   9.570  0.0319  0.2622  0.4862
  934MOL0     C23187   2.878   3.069   9.549  0.4094 -0.2556  0.5179
  934MOL0     C23188   2.788   3.100   9.656 -0.1171  0.0202 -0.3107
  934MOL0     C23189   2.664   3.143   9.623 -0.2268 -0.5324 -0.1452
  934MOL0     C23190   2.620   3.166   9.494 -0.0019  1.1219 -0.6809
  934MOL0     O23191   2.497   3.212   9.465  0.0137  0.4191  0.1585
  934MOL0     C23192   2.378   3.183   9.548  0.3761 -0.2135 -0.3383
  934MOL0     C23193   2.250   3.212   9.477 -0.2554 -0.0217  0.1767
  934MOL0     C23194   2.141   3.150   9.560  0.5110 -0.3319 -0.4309
  934MOL0     C23195   2.007   3.142   9.482 -0.2947 -0.0771  0.7977
  934MOL0     C23196   1.893   3.104   9.580 -0.2318 -0.3019  0.0218
  934MOL0     C23197   1.761   3.049   9.521 -0.6401 -0.1297  0.0738
  934MOL0     C23198   1.640   3.051   9.617  0.8600 -0.9884 -0.1237
  934MOL0     C23199   1.520   3.044   9.525  0.1492  0.7122  0.0356
  934MOL0    Cl23200   1.356   3.037   9.612 -0.3959  0.1250  0.1229
  934MOL0     C23201   2.705   3.139   9.387  1.0180  0.4566 -0.4271
  934MOL0     C23202   2.826   3.082   9.414 -0.7501 -0.2800 -1.0280
  934MOL0     O23203   2.923   2.858   9.733  0.6776 -0.3936  0.8599
  934MOL0     C23204   3.160   2.720   9.759  0.3026 -0.1528 -0.3137
  934MOL0     C23205   3.286   2.658   9.763  0.5046 -0.0258  0.2046
  934MOL0     N23206   3.527   2.360  10.343  0.1384  0.1962 -0.5416
  934MOL0     N23207   3.603   2.350  10.450 -0.0864  0.1067  0.7683
  934MOL0     C23208   4.726   1.981  10.688 -0.2153  0.4442  0.6590
  934MOL0     C23209   4.852   1.994  10.621  0.5804 -0.3042 -0.3370
  934MOL0     C23210   5.179   2.199  10.350  0.8759 -0.0236  0.0005
  934MOL0     C23211   5.241   2.324  10.315 -0.2655 -0.6105  0.0218
  934MOL0     C23212   5.367   2.339  10.252  0.1956 -0.3875  0.7218
  934MOL0     C23213   5.440   2.231  10.216 -0.3954  0.2300  0.6602
  934MOL0     O23214   5.562   2.243  10.150 -0.3558  0.1172 -0.3288
  934MOL0     C23215   5.604   2.361  10.080  0.3207 -0.2825  0.2493
  934MOL0     C23216   5.692   2.313   9.956 -0.0549 -0.3553  0.6967
  934MOL0     C23217   5.706   2.413   9.844  0.0273 -0.4978  0.4718
  934MOL0     C23218   5.783   2.533   9.889 -0.3203 -0.3401  0.2860
  934MOL0     C23219   5.806   2.618   9.772  0.0519 -0.3979 -0.0720
  934MOL0     C23220   5.824   2.683   9.680 -0.3177 -0.1507  0.5026
  934MOL0     C23221   5.385   2.104  10.248  0.1303 -0.3088  0.0799
  934MOL0     C23222   5.260   2.090  10.319 -0.3375  0.1637  0.7571
  934MOL0     H23223   4.743   2.139  10.329  1.4317  2.6252  1.6381
  934MOL0     H23224   4.536   2.099  10.436  2.3030  2.4738 -0.4701
  934MOL0     H23225   4.460   1.901  10.837 -2.2622  0.0962  0.4675
  934MOL0     H23226   4.495   1.823  10.675  0.2195 -1.1036  2.2846
  934MOL0     H23227   4.252   1.803  10.740 -3.5601  1.0875 -0.0805
  934MOL0     H23228   4.273   1.910  10.596 -0.5359 -0.5327 -0.3353
  934MOL0     H23229   4.239   2.111  10.708 -0.8463 -0.6831 -1.6793
  934MOL0     H23230   4.259   2.025  10.866  0.7027 -1.8530  0.2379
  934MOL0     H23231   4.049   1.898  10.829 -3.0121 -0.5728 -0.1772
  934MOL0     H23232   4.026   2.072  10.850 -3.7937 -2.5797  2.0873
  934MOL0     H23233   3.890   1.988  10.673  0.5729  0.9295 -2.1323
  934MOL0     H23234   4.019   1.951  10.560 -1.5759 -2.0094 -0.3168
  934MOL0     H23235   4.079   2.195  10.569 -0.4787 -1.1906 -2.2021
  934MOL0     H23236   3.957   2.222  10.702 -0.7030  0.2894  0.4182
  934MOL0     H23237   3.929   2.162  10.404  1.1677 -0.1903  0.3842
  934MOL0     H23238   3.794   2.136  10.518 -0.1672 -1.4100 -2.3040
  934MOL0     H23239   3.938   2.398  10.444  2.4991 -2.3350  1.3288
  934MOL0     H23240   3.836   2.372  10.589  3.6604 -1.0959  0.4326
  934MOL0     H23241   3.815   2.410  10.206  1.5897 -3.1431 -0.3472
  934MOL0     H23242   3.452   2.460  10.080 -1.2800 -3.0996 -0.2234
  934MOL0     H23243   3.580   2.380  10.007  0.9053 -0.7686  1.1165
  934MOL0     H23244   3.739   2.561  10.032 -0.2875 -0.8730 -1.1375
  934MOL0     H23245   3.635   2.632  10.156  0.8681  0.9666 -0.4398
  934MOL0     H23246   3.458   2.674   9.975 -2.3667 -2.7141 -3.3519
  934MOL0     H23247   3.600   2.756   9.923 -3.0718 -0.1872 -2.3406
  934MOL0     H23248   3.502   2.497   9.817 -0.6447  0.9363 -1.5554
  934MOL0     H23249   3.674   2.552   9.808  0.4828  1.6329  1.4149
  934MOL0     H23250   3.466   2.880   9.574  0.6710  2.3472  2.2890
  934MOL0     H23251   3.248   2.974   9.547  1.3320 -0.5919 -0.5623
  934MOL0     H23252   2.806   3.094   9.762 -0.5662  0.7546 -0.1898
  934MOL0     H23253   2.590   3.160   9.700 -0.1805  1.0144 -0.4088
  934MOL0     H23254   2.385   3.253   9.632 -3.2043  1.5617 -1.3316
  934MOL0     H23255   2.373   3.076   9.571 -1.1296 -0.2597 -0.7618
  934MOL0     H23256   2.259   3.177   9.374  0.5683 -2.9806  1.1526
  934MOL0     H23257   2.230   3.320   9.474 -1.7039 -0.2827 -0.3202
  934MOL0     H23258   2.120   3.204   9.653 -0.8353 -3.4615  1.2410
  934MOL0     H23259   2.182   3.051   9.584  0.0355 -0.1160  1.4374
  934MOL0     H23260   1.977   3.231   9.426 -1.4454 -0.2920  1.0422
  934MOL0     H23261   2.022   3.073   9.399  2.5375  2.8250 -1.3625
  934MOL0     H23262   1.879   3.192   9.643 -0.7160 -1.1179  1.0687
  934MOL0     H23263   1.929   3.035   9.656  0.6214  0.0982  0.0015
  934MOL0     H23264   1.784   2.956   9.469  0.5811  2.1374 -3.9646
  934MOL0     H23265   1.737   3.117   9.438  0.3328  1.9325  1.4145
  934MOL0     H23266   1.643   2.960   9.677 -1.1387 -0.4377  0.9142
  934MOL0     H23267   1.624   3.141   9.678  1.5078 -1.6496  1.0571
  934MOL0     H23268   1.523   2.975   9.441  2.2375  0.1362  0.5269
  934MOL0     H23269   1.516   3.141   9.476 -0.8776  1.2195  1.0672
  934MOL0     H23270   2.667   3.154   9.287  0.1628  1.6275  0.0578
  934MOL0     H23271   2.889   3.055   9.330 -2.2193 -2.2569 -1.5541
  934MOL0     H23272   3.082   2.669   9.815  1.8832 -0.2662  1.8815
  934MOL0     H23273   3.282   2.568   9.823 -0.9388  0.9859  1.7238
  934MOL0     H23274   4.720   1.943  10.789 -0.9444 -1.7947 -0.1595
  934MOL0     H23275   4.949   1.983  10.668 -0.4169  1.0491  2.2017
  934MOL0     H23276   5.184   2.411  10.346  0.6432  0.3471 -0.8938
  934MOL0     H23277   5.412   2.437  10.241 -0.1404 -0.2027  0.9621
  934MOL0     H23278   5.657   2.414  10.159  1.1611 -0.4292 -0.1924
  934MOL0     H23279   5.519   2.413  10.037  0.5371 -1.0965 -1.2387
  934MOL0     H23280   5.789   2.275   9.992 -0.2685  0.2161  1.9570
  934MOL0     H23281   5.639   2.234   9.902 -1.8779 -0.2731  2.2798
  934MOL0     H23282   5.599   2.431   9.830 -0.1682 -1.4398  0.7424
  934MOL0     H23283   5.750   2.368   9.754  1.8511 -1.0024  1.5626
  934MOL0     H23284   5.741   2.598   9.966  4.0976  4.1782 -0.5782
  934MOL0     H23285   5.881   2.497   9.921 -1.0245 -2.2960  0.3750
  934MOL0     H23286   5.850   2.742   9.594  0.9466  0.6694  1.4090
  934MOL0     H23287   5.443   2.014  10.232 -0.6168 -0.9518  0.9038
  934MOL0     H23288   5.228   1.986  10.321 -2.2809  0.7257  2.3692
  935MOL0     O23289   0.877   2.651   1.455  0.2669  0.9081 -0.3274
  935MOL0     C23290   0.835   2.625   1.340 -0.0947  0.8717 -0.4551
  935MOL0     O23291   0.702   2.596   1.304 -0.1857  0.1071 -0.4966
  935MOL0     C23292   0.591   2.602   1.392  0.4036 -0.1416  0.6899
  935MOL0     C23293   0.479   2.555   1.324  0.6364 -0.5661 -0.5433
  935MOL0     C23294   0.350   2.565   1.388 -0.6138  0.4301 -1.1406
  935MOL0     C23295   0.340   2.616   1.511 -0.1559  1.2610  0.4643
  935MOL0     O23296   0.215   2.614   1.558  1.0274 -0.4076 -0.4021
  935MOL0     C23297   0.195   2.589   1.701 -0.5865  0.4318 -0.2326
  935MOL0     C23298   0.151   2.718   1.772  0.8137 -0.2590  0.1638
  935MOL0     C23299   0.169   2.687   1.918 -0.0095 -0.0182  0.3542
  935MOL0     C23300   0.100   2.564   1.981 -0.6473 -0.3548 -0.3570
  935MOL0     C23301  -0.056   2.575   1.967 -0.1723  0.1073  0.3456
  935MOL0     C23302  -0.123   2.683   2.056  0.6044 -0.1824 -0.2031
  935MOL0     C23303  -0.267   2.681   2.027  0.5940 -0.7369  0.4850
  935MOL0     C23304  -0.338   2.575   2.104 -0.5483  0.1448  0.6248
  935MOL0     N23305  -0.483   2.583   2.084 -1.0546 -0.3125 -0.5032
  935MOL0     C23306  -0.576   2.535   2.180 -0.2480  0.5398  0.0807
  935MOL0     C23307  -0.693   2.586   2.132  0.4118  0.0019 -0.1694
  935MOL0     C23308  -0.814   2.595   2.212  0.5384  0.6716  0.7137
  935MOL0     C23309  -0.935   2.636   2.131 -0.2289  0.9421  0.3786
  935MOL0     C23310  -1.067   2.630   2.201  0.5438 -0.0597 -0.6063
  935MOL0     C23311  -1.186   2.674   2.117  0.4432  0.4279  0.8654
  935MOL0     O23312  -1.297   2.705   2.208 -0.7987 -0.2220 -0.0486
  935MOL0     C23313  -1.422   2.713   2.152 -0.9481 -0.5576 -0.2781
  935MOL0     C23314  -1.532   2.712   2.235  0.1226  0.9467 -0.0114
  935MOL0     C23315  -1.665   2.725   2.185  1.0284 -0.1856  0.2323
  935MOL0     C23316  -1.687   2.742   2.050 -0.0580  0.6741 -0.5079
  935MOL0     C23317  -1.821   2.753   1.985 -0.1899  0.7182 -0.6744
  935MOL0     O23318  -1.920   2.760   2.078  0.6493 -0.3969  0.0104
  935MOL0     C23319  -2.042   2.734   2.025  0.5531  0.2440  0.1499
  935MOL0     C23320  -2.107   2.833   1.952  0.2812 -0.3037  0.7091
  935MOL0     C23321  -2.228   2.816   1.890 -0.5475  1.0158  0.5090
  935MOL0     C23322  -2.286   2.690   1.911  0.7657  0.1365  0.8256
  935MOL0     O23323  -2.414   2.658   1.861  0.4843 -0.4855 -0.5876
  935MOL0     C23324  -2.469   2.737   1.755 -0.4697 -0.5606 -0.3524
  935MOL0     C23325  -2.576   2.664   1.689  0.1434  0.4847 -0.1039
  935MOL0     C23326  -2.723   2.712   1.713  0.2430 -0.1073  0.0516
  935MOL0     C23327  -2.828   2.643   1.622  0.4205 -0.2336 -0.3517
  935MOL0     C23328  -2.827   2.707   1.485  0.5330 -0.0344  0.0426
  935MOL0     C23329  -2.940   2.656   1.394 -0.3616 -0.1020  0.4301
  935MOL0     C23330  -2.911   2.709   1.241 -0.2207 -0.4885  0.5222
  935MOL0     C23331  -3.015   2.643   1.142  0.4988 -0.0702 -0.1213
  935MOL0    Cl23332  -2.993   2.466   1.144 -0.0321  0.0250 -0.4066
  935MOL0     C23333  -2.229   2.595   1.996 -0.6576 -0.0318 -0.9263
  935MOL0     C23334  -2.099   2.619   2.045  0.0954 -0.4467  0.3952
  935MOL0     O23335  -1.825   2.749   1.864 -0.0159  0.2390 -0.2140
  935MOL0     C23336  -1.576   2.713   1.967  0.0249  0.1888 -0.2519
  935MOL0     C23337  -1.448   2.712   2.016 -0.4601  0.0035 -0.2601
  935MOL0     N23338  -0.668   2.658   2.023  0.1074  0.6129 -0.0342
  935MOL0     N23339  -0.548   2.656   1.993 -0.5701 -0.6161 -0.1032
  935MOL0     C23340   0.453   2.666   1.582 -0.1930  0.7457 -0.3940
  935MOL0     C23341   0.581   2.650   1.524  0.2073 -0.4127 -0.6251
  935MOL0     C23342   0.935   2.616   1.234  0.7666 -0.4955 -0.4459
  935MOL0     C23343   1.076   2.628   1.259 -0.8135 -0.4000 -0.0075
  935MOL0     C23344   1.164   2.624   1.147  0.1826  0.1217  1.1058
  935MOL0     C23345   1.124   2.612   1.014  0.2712 -0.3872  0.3710
  935MOL0     O23346   1.224   2.613   0.926  0.2046  0.0892  0.2529
  935MOL0     C23347   1.189   2.627   0.796 -0.5583  0.1029  0.5824
  935MOL0     C23348   1.316   2.667   0.708  0.8587  0.0785  0.2027
  935MOL0     C23349   1.357   2.539   0.632 -0.4958  0.5422 -0.0588
  935MOL0     C23350   1.480   2.559   0.543 -0.7305 -1.4382 -0.6029
  935MOL0     C23351   1.576   2.447   0.554  0.6398 -0.5077 -0.1997
  935MOL0     C23352   1.647   2.348   0.571 -0.5804 -0.3381 -0.0509
  935MOL0     C23353   0.981   2.598   0.994 -0.1562  0.0095  0.3327
  935MOL0     C23354   0.896   2.603   1.099 -0.5768  0.1096  0.3185
  935MOL0     H23355   0.497   2.515   1.225 -0.2332  1.7857 -1.7374
  935MOL0     H23356   0.263   2.532   1.331 -0.8119 -0.6275 -0.2597
  935MOL0     H23357   0.289   2.550   1.742 -1.7417 -1.9494  0.3687
  935MOL0     H23358   0.127   2.506   1.726 -0.4498  0.6570  0.9743
  935MOL0     H23359   0.045   2.736   1.751  0.7411  1.0151  1.4824
  935MOL0     H23360   0.214   2.805   1.753  0.3938  0.1383  0.5640
  935MOL0     H23361   0.146   2.774   1.981 -1.6710  0.3922 -0.7576
  935MOL0     H23362   0.273   2.661   1.940  0.3051 -0.3813 -1.4150
  935MOL0     H23363   0.131   2.473   1.929  1.9142  0.6610 -0.7687
  935MOL0     H23364   0.120   2.568   2.089 -2.9541  2.1083  0.0823
  935MOL0     H23365  -0.087   2.476   2.003 -3.1994 -0.2011 -2.6018
  935MOL0     H23366  -0.076   2.587   1.860 -1.3091 -2.4838  0.1880
  935MOL0     H23367  -0.079   2.780   2.031  2.8483 -0.2624  2.7852
  935MOL0     H23368  -0.085   2.652   2.154  3.8508  0.5905 -1.0913
  935MOL0     H23369  -0.322   2.772   2.049 -0.0003 -1.7271  3.5146
  935MOL0     H23370  -0.264   2.681   1.917  0.0264  0.2189  0.4573
  935MOL0     H23371  -0.320   2.588   2.212  0.0432  1.2136  0.4098
  935MOL0     H23372  -0.288   2.481   2.078 -1.8417 -0.1634 -0.9196
  935MOL0     H23373  -0.565   2.483   2.275 -0.9502  0.2166 -0.0086
  935MOL0     H23374  -0.805   2.669   2.291  2.3526  1.0702  0.1808
  935MOL0     H23375  -0.823   2.491   2.248 -1.2758 -0.4148 -2.4333
  935MOL0     H23376  -0.935   2.564   2.049  0.5870  1.4817 -0.1165
  935MOL0     H23377  -0.918   2.736   2.090  2.8128  0.9745  1.4260
  935MOL0     H23378  -1.084   2.529   2.239  5.2840 -1.8944 -2.5419
  935MOL0     H23379  -1.061   2.699   2.285 -1.4011  0.5535 -0.9116
  935MOL0     H23380  -1.205   2.589   2.051  1.7280  1.1776 -0.5258
  935MOL0     H23381  -1.165   2.765   2.060  2.5945  0.6777  1.9512
  935MOL0     H23382  -1.514   2.716   2.342  0.6748 -1.8419  0.0547
  935MOL0     H23383  -1.744   2.718   2.259  0.5579 -1.8017 -0.3666
  935MOL0     H23384  -2.051   2.924   1.935 -3.3036  2.0747  0.5193
  935MOL0     H23385  -2.281   2.896   1.840 -2.5424  0.1818  1.2031
  935MOL0     H23386  -2.405   2.765   1.671 -2.2137  3.8867 -0.4498
  935MOL0     H23387  -2.515   2.820   1.809  0.0955  0.1710 -0.9752
  935MOL0     H23388  -2.568   2.560   1.721 -1.4902  0.1030 -0.8147
  935MOL0     H23389  -2.558   2.660   1.581 -0.9934 -1.3804 -0.2757
  935MOL0     H23390  -2.728   2.821   1.709 -0.0756 -0.1374 -0.5346
  935MOL0     H23391  -2.742   2.694   1.819  0.0137  0.7717  0.1663
  935MOL0     H23392  -2.816   2.535   1.621 -3.0816 -0.7484 -2.7894
  935MOL0     H23393  -2.927   2.665   1.663  1.2427 -0.9553  2.1984
  935MOL0     H23394  -2.734   2.674   1.437  1.0596  1.7102 -0.1944
  935MOL0     H23395  -2.829   2.816   1.484  0.5107 -0.0337 -0.5695
  935MOL0     H23396  -3.031   2.707   1.426 -0.1943  1.6310 -1.6379
  935MOL0     H23397  -2.951   2.547   1.401 -1.3147 -0.1870 -1.6907
  935MOL0     H23398  -2.916   2.818   1.236 -3.3923 -0.5568 -0.1791
  935MOL0     H23399  -2.808   2.683   1.215 -0.7991  0.2612 -2.9286
  935MOL0     H23400  -2.983   2.679   1.044  1.8613  1.2072  0.7596
  935MOL0     H23401  -3.121   2.660   1.164  0.4724 -1.6409  1.1424
  935MOL0     H23402  -2.289   2.510   2.025  0.0226 -0.0163  0.6081
  935MOL0     H23403  -2.052   2.558   2.121  0.8186  0.7156  0.9048
  935MOL0     H23404  -1.582   2.715   1.859 -2.2953  0.1001 -0.1766
  935MOL0     H23405  -1.375   2.714   1.937 -1.5842  2.5129 -1.3350
  935MOL0     H23406   0.447   2.705   1.684  2.0163  0.6664 -0.1690
  935MOL0     H23407   0.669   2.688   1.573 -0.4468  0.5522 -0.1742
  935MOL0     H23408   1.122   2.626   1.357  1.3847  2.5404 -0.8475
  935MOL0     H23409   1.268   2.625   1.177  0.9437  0.3322 -1.3647
  935MOL0     H23410   1.125   2.715   0.795  0.9161  1.2261 -0.6175
  935MOL0     H23411   1.135   2.540   0.757 -2.4050  0.4678  2.1764
  935MOL0     H23412   1.295   2.736   0.626 -1.9629 -1.2630 -0.3457
  935MOL0     H23413   1.392   2.705   0.777  1.6896  0.7049 -1.0277
  935MOL0     H23414   1.275   2.506   0.568 -0.7658  2.4609 -0.7489
  935MOL0     H23415   1.381   2.458   0.703 -2.4758  0.5643  0.6943
  935MOL0     H23416   1.448   2.570   0.439 -0.7813  2.4074 -0.3088
  935MOL0     H23417   1.537   2.645   0.580  2.0304 -3.4009  0.0058
  935MOL0     H23418   1.694   2.254   0.592 -0.8839 -0.3608  0.5514
  935MOL0     H23419   0.946   2.595   0.892  3.3225  1.9646 -1.0836
  935MOL0     H23420   0.796   2.614   1.058  0.1119 -0.4796 -1.6374
  936MOL0     O23421   9.294   8.958   1.252  0.5731  0.1175 -0.0093
  936MOL0     C23422   9.337   8.955   1.364 -0.5607 -0.1946 -0.4241
  936MOL0     O23423   9.263   8.970   1.480 -0.0083  0.1811  0.3917
  936MOL0     C23424   9.126   8.984   1.464 -0.4160 -0.0902 -0.3763
  936MOL0     C23425   9.046   8.889   1.517 -0.7557  0.1396  0.4013
  936MOL0     C23426   8.914   8.895   1.493  0.4459 -0.6191 -0.3800
  936MOL0     C23427   8.851   9.017   1.443  0.1021 -0.4956 -0.5968
  936MOL0     O23428   8.718   9.050   1.432 -0.6887 -0.4048 -0.6988
  936MOL0     C23429   8.622   8.955   1.474  0.2116  0.6462 -0.1074
  936MOL0     C23430   8.472   8.980   1.425  0.0927  0.3411 -0.0283
  936MOL0     C23431   8.411   9.087   1.525 -0.4110 -0.2203 -0.0412
  936MOL0     C23432   8.264   9.105   1.482  0.5333 -1.0359 -0.8238
  936MOL0     C23433   8.192   9.167   1.605 -0.6918 -0.1261 -0.0416
  936MOL0     C23434   8.041   9.169   1.575  0.1312 -0.7673  0.1288
  936MOL0     C23435   7.963   9.252   1.681  0.7284  0.2605 -0.0798
  936MOL0     C23436   7.816   9.251   1.632  0.7488 -0.2308 -0.5254
  936MOL0     N23437   7.726   9.326   1.714  0.1900  0.0195 -0.2827
  936MOL0     C23438   7.736   9.450   1.756  0.1854  0.0487 -0.1000
  936MOL0     C23439   7.618   9.487   1.808  0.9038 -0.0090 -0.5512
  936MOL0     C23440   7.573   9.627   1.850 -0.1088  0.1114  0.2041
  936MOL0     C23441   7.508   9.689   1.729 -0.5117  0.6161 -0.2333
  936MOL0     C23442   7.467   9.819   1.769  0.0042 -0.1893 -0.1214
  936MOL0     C23443   7.379   9.891   1.656 -1.1718 -0.0589 -0.4927
  936MOL0     O23444   7.453   9.902   1.539 -0.4671 -0.6918  1.0520
  936MOL0     C23445   7.543  10.000   1.527  0.3948  0.3501 -0.3555
  936MOL0     C23446   7.520  10.139   1.543  0.6419  0.2989  0.1221
  936MOL0     C23447   7.620  10.236   1.550 -0.5756  0.3086 -0.3164
  936MOL0     C23448   7.752  10.192   1.529 -0.5762  0.1649  0.4208
  936MOL0     C23449   7.862  10.296   1.524 -0.8116  0.2561  0.7507
  936MOL0     O23450   7.988  10.240   1.506  0.3694  0.6461 -0.2046
  936MOL0     C23451   8.097  10.312   1.536 -0.4429  0.7072 -0.5346
  936MOL0     C23452   8.148  10.325   1.664  0.0422 -0.5918 -0.5578
  936MOL0     C23453   8.268  10.395   1.690 -0.4901  0.3959 -0.3723
  936MOL0     C23454   8.327  10.470   1.587 -0.7718 -0.0267  0.0600
  936MOL0     O23455   8.447  10.536   1.599  0.4047 -0.3200  0.3621
  936MOL0     C23456   8.555  10.460   1.649 -0.0525  0.4651 -0.7092
  936MOL0     C23457   8.690  10.522   1.617  0.0262 -0.1590 -0.2647
  936MOL0     C23458   8.739  10.510   1.472  0.3290  0.7737  0.6268
  936MOL0     C23459   8.845  10.618   1.435 -0.6166 -0.7010  0.0651
  936MOL0     C23460   8.964  10.622   1.520 -1.4816 -0.2707 -0.3038
  936MOL0     C23461   9.050  10.506   1.481  0.1998  0.1778  0.9653
  936MOL0     C23462   9.177  10.504   1.567  0.1018  0.1290 -0.0138
  936MOL0     C23463   9.274  10.420   1.493 -0.0623  0.8320 -0.1765
  936MOL0    Cl23464   9.350  10.531   1.383 -0.6365 -0.0507  0.0013
  936MOL0     C23465   8.267  10.467   1.467 -0.8235 -0.2965 -0.0160
  936MOL0     C23466   8.163  10.384   1.434 -0.9131 -0.2856  0.4683
  936MOL0     O23467   7.832  10.415   1.536 -0.4223 -0.1462 -0.1824
  936MOL0     C23468   7.782  10.054   1.503 -0.3063 -0.4898 -0.0380
  936MOL0     C23469   7.670   9.959   1.504 -0.2850  0.4282  0.0411
  936MOL0     N23470   7.538   9.375   1.804  0.5609 -0.4719 -0.1197
  936MOL0     N23471   7.607   9.281   1.748  0.4333  0.1092 -0.5907
  936MOL0     C23472   8.936   9.116   1.399 -0.2622 -0.7006 -0.5597
  936MOL0     C23473   9.074   9.096   1.413  0.3658  0.1127 -0.0065
  936MOL0     C23474   9.485   8.918   1.383  0.1138  0.5510  0.1468
  936MOL0     C23475   9.532   8.868   1.503 -0.9157 -1.0739 -0.1179
  936MOL0     C23476   9.661   8.832   1.515 -0.1100 -1.0595 -0.5949
  936MOL0     C23477   9.751   8.849   1.407  0.6420 -0.4789 -0.5272
  936MOL0     O23478   9.883   8.848   1.432 -0.3408  0.0495 -0.0514
  936MOL0     C23479   9.946   8.966   1.471 -0.6991  0.0025  0.5937
  936MOL0     C23480  10.048   8.927   1.577  0.9078  0.7860  0.2326
  936MOL0     C23481  10.155   8.824   1.515  0.0439  0.1956 -0.3207
  936MOL0     C23482  10.259   8.808   1.626  0.2285 -0.1385  0.2925
  936MOL0     C23483  10.370   8.721   1.584  1.6819 -0.1972 -0.0187
  936MOL0     C23484  10.454   8.637   1.574 -0.7912 -0.2701 -0.6083
  936MOL0     C23485   9.708   8.893   1.286  0.6579  0.5610 -0.0005
  936MOL0     C23486   9.574   8.922   1.271  0.8044 -0.5455 -0.3000
  936MOL0     H23487   9.101   8.804   1.555  2.0478  1.7470  0.2122
  936MOL0     H23488   8.840   8.820   1.518  2.4042 -2.7077 -0.5106
  936MOL0     H23489   8.624   8.943   1.582 -0.0185  3.5035  0.2871
  936MOL0     H23490   8.641   8.860   1.423 -0.9165  0.1218  0.4092
  936MOL0     H23491   8.413   8.888   1.426 -0.6791  0.7823 -1.5261
  936MOL0     H23492   8.484   9.022   1.325 -0.7351 -0.6019 -0.5443
  936MOL0     H23493   8.461   9.182   1.507  1.3573 -1.0952 -0.0309
  936MOL0     H23494   8.434   9.059   1.628 -3.9875 -0.6539  0.7504
  936MOL0     H23495   8.264   9.171   1.395  2.9669  2.3078  1.4339
  936MOL0     H23496   8.214   9.010   1.464 -0.1721 -0.7518 -0.3962
  936MOL0     H23497   8.225   9.271   1.612 -1.6222  0.1841 -0.1259
  936MOL0     H23498   8.217   9.117   1.699 -0.1078  1.6807  0.8169
  936MOL0     H23499   8.010   9.065   1.568 -2.1118 -0.1796  0.3855
  936MOL0     H23500   8.022   9.208   1.475 -2.4921  1.9348  1.5305
  936MOL0     H23501   7.975   9.200   1.777  0.5424 -1.0671 -0.7430
  936MOL0     H23502   7.999   9.355   1.686 -0.1679  0.5491  0.8112
  936MOL0     H23503   7.763   9.156   1.617  2.2416 -0.8717 -2.0713
  936MOL0     H23504   7.814   9.301   1.534 -2.6938  1.0992  0.0780
  936MOL0     H23505   7.823   9.513   1.742 -0.5172  1.2418  0.7240
  936MOL0     H23506   7.661   9.684   1.881  0.0018 -0.2894  0.6309
  936MOL0     H23507   7.502   9.608   1.931  1.0878  0.4739  1.3662
  936MOL0     H23508   7.419   9.629   1.707 -0.2055 -0.1363  0.5436
  936MOL0     H23509   7.576   9.682   1.643  0.3943 -2.9338  0.6277
  936MOL0     H23510   7.413   9.810   1.864 -0.7059  2.2308 -0.2441
  936MOL0     H23511   7.556   9.882   1.775 -0.8192  0.8906  1.5353
  936MOL0     H23512   7.346   9.986   1.698  1.5975  0.1329  1.4854
  936MOL0     H23513   7.293   9.832   1.622 -1.6593 -0.2819  1.0521
  936MOL0     H23514   7.417  10.172   1.557  0.7245 -0.4887  3.4101
  936MOL0     H23515   7.594  10.334   1.588 -2.0737  0.2629 -1.1241
  936MOL0     H23516   8.099  10.272   1.745 -1.3375  1.0762 -0.2278
  936MOL0     H23517   8.317  10.402   1.787 -1.4380 -0.7417  0.2114
  936MOL0     H23518   8.540  10.357   1.615  1.9373 -0.3506  0.6737
  936MOL0     H23519   8.560  10.463   1.758  2.2365  0.5391 -0.7597
  936MOL0     H23520   8.766  10.477   1.682 -0.6703 -1.5377 -0.3647
  936MOL0     H23521   8.690  10.629   1.641 -2.4893  0.4492 -2.4643
  936MOL0     H23522   8.646  10.518   1.415 -0.7410  2.7768  2.4911
  936MOL0     H23523   8.780  10.409   1.477  2.4095  1.6065  1.8014
  936MOL0     H23524   8.876  10.609   1.331  0.2550  1.1545  0.1304
  936MOL0     H23525   8.790  10.713   1.436  0.3171 -0.1593  0.7209
  936MOL0     H23526   8.941  10.616   1.627 -2.1675 -0.3296 -0.4452
  936MOL0     H23527   9.020  10.713   1.496  3.3415 -0.2955  7.4839
  936MOL0     H23528   9.066  10.520   1.374 -2.3229  3.1141  0.8167
  936MOL0     H23529   8.996  10.412   1.499 -0.0231 -0.4658 -2.4369
  936MOL0     H23530   9.208  10.609   1.574 -2.2451  0.9853 -1.3097
  936MOL0     H23531   9.151  10.468   1.667 -3.8960 -2.0933 -1.6207
  936MOL0     H23532   9.228  10.335   1.441  0.0668 -0.0603  1.1366
  936MOL0     H23533   9.345  10.380   1.566 -0.7094  1.5319  0.8585
  936MOL0     H23534   8.312  10.527   1.388  0.7596 -0.3487  0.8188
  936MOL0     H23535   8.115  10.377   1.337  1.1344 -0.9807 -0.5581
  936MOL0     H23536   7.876  10.022   1.459  0.5077  0.1683  1.1806
  936MOL0     H23537   7.696   9.854   1.493  0.7273  0.0995  3.9046
  936MOL0     H23538   8.894   9.204   1.350 -0.1233  0.5365  1.4059
  936MOL0     H23539   9.137   9.168   1.364  1.1517  0.5310  1.5486
  936MOL0     H23540   9.471   8.847   1.590  0.4998 -1.9341  0.7189
  936MOL0     H23541   9.712   8.814   1.610  0.9974  1.6014 -0.5940
  936MOL0     H23542   9.879   9.039   1.518 -3.8285 -0.5681 -2.5875
  936MOL0     H23543   9.983   9.016   1.381 -4.2505  1.7426 -0.0607
  936MOL0     H23544  10.098   9.017   1.613  0.8832  0.7421  0.3757
  936MOL0     H23545   9.992   8.896   1.666  0.8099  2.4180  0.7660
  936MOL0     H23546  10.204   8.852   1.421 -0.0798 -1.6131 -0.9673
  936MOL0     H23547  10.104   8.731   1.490 -0.0893 -0.3217  1.7120
  936MOL0     H23548  10.313   8.899   1.648 -0.6363 -0.1246  2.5765
  936MOL0     H23549  10.199   8.770   1.709  0.3311 -1.7218 -0.3209
  936MOL0     H23550  10.526   8.559   1.568  0.9764  1.0352  1.7866
  936MOL0     H23551   9.782   8.890   1.206  2.8187 -1.3525  1.9277
  936MOL0     H23552   9.539   8.979   1.186  0.5378 -1.1319 -0.5893
  937MOL0     O23553   4.088   1.898   6.100  0.8357 -0.7237 -0.2736
  937MOL0     C23554   4.110   1.795   6.159 -0.5922  0.1504 -0.4937
  937MOL0     O23555   4.019   1.716   6.216 -0.0884 -0.0197 -0.4218
  937MOL0     C23556   3.894   1.762   6.232 -0.2335 -0.0293  0.2202
  937MOL0     C23557   3.868   1.895   6.273  0.2119 -0.1833  0.1741
  937MOL0     C23558   3.736   1.932   6.299  0.1973  0.2669  1.0750
  937MOL0     C23559   3.631   1.853   6.269  0.2645  1.0343  0.0500
  937MOL0     O23560   3.515   1.916   6.274  0.1324 -0.5210 -0.4731
  937MOL0     C23561   3.390   1.844   6.264  0.7041  0.6220 -0.6005
  937MOL0     C23562   3.268   1.930   6.211 -0.1581  0.4019 -0.5354
  937MOL0     C23563   3.147   1.843   6.202  1.1829 -0.5081  0.4182
  937MOL0     C23564   3.021   1.922   6.159  0.1071 -0.0446 -0.0610
  937MOL0     C23565   2.961   1.992   6.274  0.8222 -0.3229 -0.5942
  937MOL0     C23566   2.915   1.899   6.388  0.9758 -0.7120 -0.1876
  937MOL0     C23567   2.817   1.789   6.329  0.1658 -0.2768 -0.1392
  937MOL0     C23568   2.695   1.826   6.243 -0.4198 -0.6776  0.3858
  937MOL0     N23569   2.621   1.936   6.297  0.4502 -0.1357 -0.6010
  937MOL0     C23570   2.580   2.050   6.230 -0.1397  0.0188 -0.2204
  937MOL0     C23571   2.522   2.126   6.322  0.0926  0.2237 -0.3342
  937MOL0     C23572   2.477   2.270   6.304  0.1557 -0.3285 -0.8563
  937MOL0     C23573   2.334   2.288   6.355  0.0119 -0.1750  0.7020
  937MOL0     C23574   2.281   2.437   6.383  0.3416 -0.6231  0.7277
  937MOL0     C23575   2.142   2.435   6.436 -0.3206  0.7207 -0.7226
  937MOL0     O23576   2.111   2.574   6.463 -0.0337 -0.8977 -0.0036
  937MOL0     C23577   1.973   2.598   6.466  0.8903 -0.3479  0.4597
  937MOL0     C23578   1.882   2.496   6.507  0.0565  0.3056  0.0400
  937MOL0     C23579   1.746   2.519   6.513  0.3427  0.5345 -0.7057
  937MOL0     C23580   1.693   2.649   6.490 -0.5810  0.5489 -0.1325
  937MOL0     C23581   1.553   2.683   6.508  0.0260 -0.5387 -0.0229
  937MOL0     O23582   1.469   2.571   6.519  0.0746 -0.5292  0.2850
  937MOL0     C23583   1.333   2.610   6.502  0.2108  0.0191 -0.0962
  937MOL0     C23584   1.267   2.576   6.377  0.0600  1.2965 -0.1995
  937MOL0     C23585   1.138   2.605   6.355  0.2028 -0.0460 -0.2276
  937MOL0     C23586   1.051   2.635   6.465  0.5892 -0.4009 -0.9282
  937MOL0     O23587   0.918   2.649   6.435 -0.7521 -0.2535 -0.4654
  937MOL0     C23588   0.818   2.612   6.533  0.5121 -1.0601 -0.0707
  937MOL0     C23589   0.671   2.655   6.493 -0.1119  0.1994 -0.3672
  937MOL0     C23590   0.579   2.660   6.623 -0.0504  0.9548  0.8176
  937MOL0     C23591   0.438   2.721   6.595  0.0532  0.3035 -0.8837
  937MOL0     C23592   0.326   2.678   6.700 -0.3039  0.4523 -0.1722
  937MOL0     C23593   0.269   2.533   6.698 -1.1517 -0.5152  0.0302
  937MOL0     C23594   0.166   2.496   6.803  0.5637  0.2414 -0.8785
  937MOL0     C23595   0.036   2.566   6.776 -0.4963  0.7047 -0.3986
  937MOL0    Cl23596  -0.086   2.519   6.887  0.1030  0.1614  0.0203
  937MOL0     C23597   1.110   2.644   6.597  0.3455 -0.1846  0.1062
  937MOL0     C23598   1.251   2.635   6.616  0.4078  0.2198 -0.4349
  937MOL0     O23599   1.523   2.805   6.529 -1.0328  0.2999  1.0981
  937MOL0     C23600   1.790   2.758   6.467 -0.5060  0.5073 -0.3711
  937MOL0     C23601   1.920   2.732   6.444 -0.1573 -0.2204 -0.1896
  937MOL0     N23602   2.539   2.068   6.450 -0.7061 -0.4589 -0.3997
  937MOL0     N23603   2.595   1.957   6.427 -0.7478 -0.3715  0.7250
  937MOL0     C23604   3.653   1.721   6.222 -1.1757  0.8679 -1.0322
  937MOL0     C23605   3.792   1.679   6.211  1.0267 -0.0417  0.5971
  937MOL0     C23606   4.250   1.742   6.175 -0.5022 -0.0094  0.1535
  937MOL0     C23607   4.353   1.831   6.128  0.5322  0.8405  0.4423
  937MOL0     C23608   4.485   1.778   6.140 -0.5220 -0.2995  0.3499
  937MOL0     C23609   4.513   1.660   6.208  0.2658 -0.2396  0.6298
  937MOL0     O23610   4.647   1.614   6.217 -0.4329  0.0222 -0.4265
  937MOL0     C23611   4.757   1.713   6.219  0.0134  0.1782 -0.6680
  937MOL0     C23612   4.819   1.706   6.082  0.5782  0.3458  0.2692
  937MOL0     C23613   4.918   1.587   6.072  0.4445 -0.2718  0.8355
  937MOL0     C23614   4.990   1.586   5.935 -0.2639 -0.4435  0.2373
  937MOL0     C23615   5.057   1.460   5.925  0.2617  0.3618 -0.0732
  937MOL0     C23616   5.114   1.351   5.933 -0.0329 -1.2057  0.0968
  937MOL0     C23617   4.410   1.592   6.270 -0.3612  0.1533  0.1800
  937MOL0     C23618   4.274   1.629   6.255  0.3402 -0.2128  0.1328
  937MOL0     H23619   3.953   1.947   6.315 -0.5808  1.0007  0.3631
  937MOL0     H23620   3.733   2.029   6.346 -0.7448  0.3896  0.7832
  937MOL0     H23621   3.367   1.794   6.358 -0.1240 -1.3568 -1.7712
  937MOL0     H23622   3.393   1.762   6.191 -3.2733 -2.1867  1.9488
  937MOL0     H23623   3.306   1.976   6.119  2.6814 -0.0885  0.2856
  937MOL0     H23624   3.241   2.007   6.284 -2.8412 -2.4119  1.6662
  937MOL0     H23625   3.142   1.795   6.300  2.8311 -2.2230 -0.2893
  937MOL0     H23626   3.168   1.760   6.135  4.0656  0.4880 -0.0335
  937MOL0     H23627   3.042   2.005   6.092 -3.1428  0.0738 -1.0943
  937MOL0     H23628   2.947   1.855   6.114 -2.6534  1.1664  2.3439
  937MOL0     H23629   2.881   2.061   6.246  0.5902 -0.1610  0.4310
  937MOL0     H23630   3.044   2.052   6.314  0.6805 -1.0381  0.8305
  937MOL0     H23631   2.859   1.964   6.456  1.0174 -2.2681  1.4044
  937MOL0     H23632   3.003   1.853   6.433  1.1562 -0.5763 -0.3967
  937MOL0     H23633   2.883   1.723   6.273 -0.1800 -0.7817  0.0369
  937MOL0     H23634   2.779   1.743   6.421  0.4591  0.6460  0.4551
  937MOL0     H23635   2.621   1.747   6.230 -0.6995 -0.5879  1.4078
  937MOL0     H23636   2.732   1.862   6.146 -0.2777 -1.0358  0.3073
  937MOL0     H23637   2.592   2.080   6.126  0.7361 -1.1245 -0.4609
  937MOL0     H23638   2.482   2.301   6.199  1.6544  1.0373 -0.4209
  937MOL0     H23639   2.539   2.344   6.355 -0.6267 -0.0830 -0.2328
  937MOL0     H23640   2.315   2.226   6.443  1.7306 -0.0595  1.1917
  937MOL0     H23641   2.273   2.248   6.273  1.5635 -2.1778  0.4292
  937MOL0     H23642   2.343   2.487   6.458 -0.8007 -2.9692  3.4204
  937MOL0     H23643   2.283   2.507   6.299  0.4623  2.9550  3.4938
  937MOL0     H23644   2.144   2.386   6.533  5.7016  0.6509 -0.5345
  937MOL0     H23645   2.080   2.383   6.362  2.8012 -3.9226 -0.5272
  937MOL0     H23646   1.917   2.393   6.518  1.2487  0.4247 -2.0821
  937MOL0     H23647   1.682   2.435   6.536  0.5164  0.1038 -1.7347
  937MOL0     H23648   1.308   2.525   6.290 -0.7697 -0.1648  0.2407
  937MOL0     H23649   1.099   2.599   6.254 -1.2464 -1.5188  0.3558
  937MOL0     H23650   0.844   2.661   6.627  0.8746  0.8012 -1.1013
  937MOL0     H23651   0.800   2.505   6.543 -2.9201 -0.6391 -0.5448
  937MOL0     H23652   0.621   2.588   6.423 -0.6261 -0.0689  0.2494
  937MOL0     H23653   0.672   2.754   6.446  1.4390 -0.9416 -2.9659
  937MOL0     H23654   0.623   2.722   6.702  0.3897 -0.5566  1.8012
  937MOL0     H23655   0.561   2.560   6.662  1.5074 -1.2209 -3.3705
  937MOL0     H23656   0.458   2.829   6.600  0.0447  0.2575  1.7638
  937MOL0     H23657   0.414   2.687   6.494  0.2585 -0.8557 -0.5531
  937MOL0     H23658   0.241   2.740   6.671 -3.5240 -2.3491  2.4482
  937MOL0     H23659   0.364   2.709   6.798 -1.2034 -1.4209  0.8101
  937MOL0     H23660   0.358   2.470   6.709 -2.3536 -1.9850  2.0327
  937MOL0     H23661   0.227   2.515   6.599 -0.1053  2.0300 -0.9512
  937MOL0     H23662   0.144   2.389   6.796 -4.1165  0.8686  0.7322
  937MOL0     H23663   0.191   2.526   6.905 -3.2955  2.2068 -0.3259
  937MOL0     H23664   0.012   2.541   6.672  0.9985  0.3192 -0.6713
  937MOL0     H23665   0.051   2.674   6.784 -0.3445  0.5588  1.5152
  937MOL0     H23666   1.044   2.655   6.683  0.4367  2.2389 -0.0659
  937MOL0     H23667   1.286   2.654   6.716 -2.2777  1.2812  0.3737
  937MOL0     H23668   1.758   2.862   6.462 -2.6718  0.1567  2.9995
  937MOL0     H23669   2.000   2.799   6.415  0.3254 -1.3402 -1.5876
  937MOL0     H23670   3.574   1.652   6.196 -1.7593  0.4568  1.5524
  937MOL0     H23671   3.823   1.587   6.161  1.1940  1.3558 -2.0531
  937MOL0     H23672   4.340   1.924   6.073  0.5464  0.6858  0.1732
  937MOL0     H23673   4.561   1.842   6.096 -1.3901  1.4507  1.2959
  937MOL0     H23674   4.837   1.686   6.288  0.8644 -0.6264 -1.9165
  937MOL0     H23675   4.732   1.815   6.248  1.7055  0.4328 -0.0122
  937MOL0     H23676   4.745   1.694   6.002 -1.2680  1.1551  1.7812
  937MOL0     H23677   4.884   1.793   6.062  1.8536 -0.2732  1.5531
  937MOL0     H23678   4.864   1.492   6.081  1.2238 -0.8360 -0.2338
  937MOL0     H23679   4.987   1.587   6.157 -2.4658 -0.3766  3.3518
  937MOL0     H23680   4.922   1.567   5.852 -0.3596 -3.5841  0.8875
  937MOL0     H23681   5.061   1.665   5.910  2.4650 -3.4156 -2.3349
  937MOL0     H23682   5.183   1.269   5.942  3.1302  1.2209  0.0285
  937MOL0     H23683   4.443   1.510   6.331  2.6345 -0.5009 -2.0444
  937MOL0     H23684   4.205   1.574   6.318 -0.3373  1.2031  0.6889
  938MOL0     O23685   6.283   8.644   5.378  0.2530 -0.4555  0.0292
  938MOL0     C23686   6.359   8.671   5.470 -0.1616  0.0682 -0.9434
  938MOL0     O23687   6.320   8.730   5.585 -0.1874  0.1882  0.8206
  938MOL0     C23688   6.186   8.758   5.619  0.3149 -0.0427  1.0778
  938MOL0     C23689   6.157   8.881   5.684  0.0745 -0.9678  0.3946
  938MOL0     C23690   6.021   8.917   5.694  0.1551 -0.1997 -1.0232
  938MOL0     C23691   5.911   8.839   5.644  0.1077 -0.1690 -0.7045
  938MOL0     O23692   5.784   8.896   5.650 -0.0027  0.1825 -0.2843
  938MOL0     C23693   5.664   8.804   5.643 -0.5405 -0.3311 -0.2728
  938MOL0     C23694   5.534   8.875   5.686  0.2186 -0.2116  0.0011
  938MOL0     C23695   5.417   8.781   5.680  0.6647 -0.5626 -0.0855
  938MOL0     C23696   5.299   8.868   5.723  0.1807  0.2676 -0.0524
  938MOL0     C23697   5.168   8.813   5.667  1.0626 -0.1506 -0.1034
  938MOL0     C23698   5.052   8.909   5.699  0.2578 -0.3454  0.9136
  938MOL0     C23699   4.928   8.862   5.629  0.8754 -0.1405 -0.1561
  938MOL0     C23700   4.798   8.921   5.666 -0.0667 -0.0859  0.1298
  938MOL0     N23701   4.694   8.828   5.702 -0.5212  0.3466  0.1775
  938MOL0     C23702   4.715   8.726   5.794 -0.3699  0.7656  0.4283
  938MOL0     C23703   4.594   8.667   5.816  0.5044  0.0565  0.1667
  938MOL0     C23704   4.553   8.556   5.914 -0.4487 -0.7072 -0.1805
  938MOL0     C23705   4.430   8.471   5.872  0.3478  0.3547  0.2379
  938MOL0     C23706   4.360   8.411   5.996 -0.2485  0.5727 -0.8361
  938MOL0     C23707   4.245   8.316   5.962  0.6604  1.4931 -0.4073
  938MOL0     O23708   4.182   8.246   6.080 -0.3400  0.4519  0.6094
  938MOL0     C23709   4.066   8.176   6.053  0.2751  0.9568  0.0982
  938MOL0     C23710   4.015   8.113   6.171  0.2658  0.1563  0.2905
  938MOL0     C23711   3.895   8.037   6.182 -0.3014 -1.2647 -0.2504
  938MOL0     C23712   3.821   8.027   6.066  0.3305 -0.1166  0.2679
  938MOL0     C23713   3.687   7.965   6.063 -0.0382  0.1132  0.3960
  938MOL0     O23714   3.669   7.864   6.148  0.2553  0.2501 -0.2768
  938MOL0     C23715   3.562   7.785   6.141  0.5594  0.6242  1.2640
  938MOL0     C23716   3.480   7.767   6.249  0.5347  1.0648 -0.1063
  938MOL0     C23717   3.355   7.702   6.236 -0.3558  0.0082 -0.0226
  938MOL0     C23718   3.326   7.639   6.112  0.9429  0.1825  0.2940
  938MOL0     O23719   3.214   7.555   6.094  0.2730  0.4069 -0.4177
  938MOL0     C23720   3.113   7.565   6.199  0.7932 -0.3503 -0.8406
  938MOL0     C23721   3.000   7.466   6.154  0.7949 -0.8335 -0.6217
  938MOL0     C23722   3.028   7.330   6.213  0.5510  0.2032 -0.1637
  938MOL0     C23723   2.933   7.233   6.130 -0.5571 -0.1787 -0.1501
  938MOL0     C23724   2.959   7.089   6.172  0.4115  0.2640  0.2652
  938MOL0     C23725   2.884   6.990   6.086 -0.2310  0.1077  0.3919
  938MOL0     C23726   2.736   6.960   6.112  0.1247  0.3174 -0.5847
  938MOL0     C23727   2.702   6.818   6.064  0.3564  0.2747 -0.1171
  938MOL0    Cl23728   2.531   6.777   6.115  0.4072  0.1407 -0.1404
  938MOL0     C23729   3.408   7.657   6.006 -0.3977  0.6247  0.1476
  938MOL0     C23730   3.522   7.736   6.014  0.7449 -0.0131 -0.6585
  938MOL0     O23731   3.604   8.007   5.983 -0.7459  0.0947  0.1225
  938MOL0     C23732   3.862   8.084   5.947 -0.3080 -0.4397  0.6084
  938MOL0     C23733   3.988   8.156   5.941 -0.3290 -0.7342  0.1035
  938MOL0     N23734   4.506   8.738   5.732  0.3544  0.2055 -0.3840
  938MOL0     N23735   4.569   8.816   5.655  0.7517  0.4871 -0.2734
  938MOL0     C23736   5.949   8.709   5.601 -0.0967  0.3961 -0.0590
  938MOL0     C23737   6.085   8.674   5.587  0.3570 -0.0732  0.8288
  938MOL0     C23738   6.496   8.615   5.476  0.0407  1.0693  0.2808
  938MOL0     C23739   6.587   8.654   5.573 -0.0586  0.1217  0.1458
  938MOL0     C23740   6.720   8.605   5.588  0.7893 -0.2088  0.4888
  938MOL0     C23741   6.761   8.512   5.490 -0.9082  1.0092  0.6579
  938MOL0     O23742   6.891   8.444   5.481  0.3843  0.2804  0.2297
  938MOL0     C23743   6.986   8.461   5.587  0.0539 -0.5854  1.0261
  938MOL0     C23744   7.057   8.598   5.558 -0.4930 -0.8250  0.0950
  938MOL0     C23745   7.157   8.651   5.659 -0.0824  0.0867  0.0613
  938MOL0     C23746   7.262   8.547   5.688  0.3090 -0.5643  0.3955
  938MOL0     C23747   7.374   8.599   5.764  0.1495  0.4453 -0.7815
  938MOL0     C23748   7.460   8.655   5.837 -0.8043  0.6412 -0.4954
  938MOL0     C23749   6.673   8.471   5.399  0.7561  0.2662  0.6072
  938MOL0     C23750   6.545   8.520   5.384 -0.0121 -0.2051 -0.5851
  938MOL0     H23751   6.216   8.968   5.711 -2.3240  1.0524 -0.4053
  938MOL0     H23752   5.996   9.016   5.731  1.1009 -1.0071  2.1170
  938MOL0     H23753   5.674   8.728   5.721 -2.1766  0.3919  0.6880
  938MOL0     H23754   5.662   8.757   5.543  0.2204  3.1275 -2.0587
  938MOL0     H23755   5.533   8.955   5.611  0.2715 -1.7961 -1.7600
  938MOL0     H23756   5.546   8.916   5.787 -1.4089 -1.4205  0.7207
  938MOL0     H23757   5.434   8.695   5.746  4.4157 -0.5124 -0.7949
  938MOL0     H23758   5.403   8.756   5.574 -0.9196  1.2976 -0.3712
  938MOL0     H23759   5.285   8.867   5.832  0.5899  2.1949  0.0437
  938MOL0     H23760   5.315   8.972   5.694  1.9986 -0.0668 -0.3961
  938MOL0     H23761   5.152   8.710   5.699  0.4624 -0.7738 -2.2049
  938MOL0     H23762   5.177   8.801   5.558 -2.4944 -2.4911 -0.2814
  938MOL0     H23763   5.088   9.002   5.656  0.4696 -0.7061  0.2909
  938MOL0     H23764   5.030   8.919   5.806 -2.3623  0.3781  0.3707
  938MOL0     H23765   4.949   8.892   5.526  0.0822 -0.5370 -0.4380
  938MOL0     H23766   4.915   8.753   5.624 -1.3296  0.1325 -1.2474
  938MOL0     H23767   4.762   8.988   5.587 -0.0168  2.1099  1.8519
  938MOL0     H23768   4.822   8.983   5.753  0.3680 -2.3882  1.7248
  938MOL0     H23769   4.813   8.686   5.818  0.9628  2.1157 -2.2972
  938MOL0     H23770   4.518   8.609   6.002  0.8400 -0.5583  0.2638
  938MOL0     H23771   4.640   8.495   5.941 -1.1149 -1.5899  0.0199
  938MOL0     H23772   4.467   8.386   5.814 -2.2435 -0.8456  0.1970
  938MOL0     H23773   4.366   8.537   5.813 -0.1685 -0.5697 -0.2587
  938MOL0     H23774   4.438   8.359   6.054  0.3995 -0.3116 -2.4315
  938MOL0     H23775   4.320   8.495   6.053 -1.1971  0.0111 -0.6666
  938MOL0     H23776   4.272   8.243   5.885 -1.0270  1.4100 -0.9684
  938MOL0     H23777   4.166   8.382   5.926 -2.6401 -1.9374 -0.1328
  938MOL0     H23778   4.077   8.116   6.260  1.3292 -5.9626  0.2287
  938MOL0     H23779   3.856   8.006   6.278 -0.7445  0.0822  0.0226
  938MOL0     H23780   3.512   7.808   6.344  2.8405 -1.1660  0.1955
  938MOL0     H23781   3.291   7.686   6.322 -1.7015 -1.2363 -1.1867
  938MOL0     H23782   3.060   7.661   6.193  1.4344  0.4532  3.3641
  938MOL0     H23783   3.154   7.552   6.299  2.7805  2.3100 -1.1917
  938MOL0     H23784   2.992   7.465   6.045  1.0912 -3.3544 -0.6851
  938MOL0     H23785   2.900   7.476   6.198  0.8045 -0.6712 -0.6384
  938MOL0     H23786   2.988   7.330   6.314  0.7183  3.6280  0.0300
  938MOL0     H23787   3.132   7.295   6.212  0.0977 -1.2269  0.7363
  938MOL0     H23788   2.825   7.248   6.143 -0.4794 -1.4239  2.3795
  938MOL0     H23789   2.952   7.245   6.023 -1.0189 -3.4354 -0.6911
  938MOL0     H23790   2.941   7.070   6.278  1.0924 -1.1625  0.1363
  938MOL0     H23791   3.066   7.070   6.166  0.1692 -0.9248 -0.8327
  938MOL0     H23792   2.929   6.893   6.108  1.8187  0.1823 -2.7345
  938MOL0     H23793   2.914   6.994   5.980  3.8238 -1.3911  1.2968
  938MOL0     H23794   2.710   6.957   6.219  1.2659 -0.2462 -0.3073
  938MOL0     H23795   2.667   7.028   6.062 -1.3297 -2.1231 -2.0735
  938MOL0     H23796   2.762   6.738   6.108 -1.1839 -0.6221  0.4594
  938MOL0     H23797   2.704   6.811   5.955 -0.9215 -1.0222 -0.1029
  938MOL0     H23798   3.390   7.612   5.909  2.0832  0.1128 -0.1522
  938MOL0     H23799   3.579   7.752   5.923 -0.7257  1.8304 -1.3104
  938MOL0     H23800   3.801   8.088   5.857 -0.1362  3.0068  0.5181
  938MOL0     H23801   4.021   8.199   5.847 -1.5567  2.1143  0.8662
  938MOL0     H23802   5.881   8.635   5.560  0.0869 -0.5369  1.2607
  938MOL0     H23803   6.096   8.576   5.542 -0.1781  0.1114  0.2784
  938MOL0     H23804   6.559   8.726   5.649 -1.3327  1.4633 -1.5390
  938MOL0     H23805   6.788   8.635   5.667 -1.0045  1.0979  1.6123
  938MOL0     H23806   7.046   8.370   5.581 -1.5451 -1.5609 -2.0780
  938MOL0     H23807   6.952   8.461   5.691  1.1836 -1.3705  1.4109
  938MOL0     H23808   7.113   8.604   5.464  0.7001 -1.9656  0.7151
  938MOL0     H23809   6.973   8.667   5.547 -2.1119 -2.2917  2.3609
  938MOL0     H23810   7.114   8.682   5.754  2.1533 -0.3005  1.2532
  938MOL0     H23811   7.197   8.740   5.611 -0.2077  0.9497  1.5213
  938MOL0     H23812   7.220   8.454   5.730 -0.7155  0.0222  0.7022
  938MOL0     H23813   7.308   8.510   5.596 -1.5029 -0.6207 -0.5408
  938MOL0     H23814   7.534   8.699   5.900  1.2131 -0.2292 -2.1272
  938MOL0     H23815   6.700   8.386   5.336 -1.2565  0.7750 -1.0596
  938MOL0     H23816   6.487   8.478   5.302 -0.3462  1.3420 -1.1920
  939MOL0     O23817   4.462   2.999   6.972 -0.7802  0.4345  0.1262
  939MOL0     C23818   4.416   2.888   6.993  0.5213 -0.4166 -0.5570
  939MOL0     O23819   4.289   2.861   7.043 -0.1155  0.7736  0.2488
  939MOL0     C23820   4.180   2.933   7.004  0.7941  0.3310 -0.6962
  939MOL0     C23821   4.154   2.970   6.875 -0.9972  0.9754  0.0462
  939MOL0     C23822   4.042   3.036   6.836  0.0173  0.0058 -0.2110
  939MOL0     C23823   3.948   3.065   6.936 -0.2733  0.2538  0.3323
  939MOL0     O23824   3.833   3.130   6.896  0.7768  0.1049  0.0801
  939MOL0     C23825   3.801   3.251   6.974  0.6174  0.2532 -0.9186
  939MOL0     C23826   3.701   3.231   7.079  0.7639  0.3844  0.3720
  939MOL0     C23827   3.565   3.175   7.028  0.7384 -0.3284  0.0408
  939MOL0     C23828   3.464   3.190   7.144  0.6636 -0.2558 -0.8229
  939MOL0     C23829   3.323   3.176   7.100  0.5727  0.6833  0.6058
  939MOL0     C23830   3.292   3.121   6.956  0.4013 -0.3194  0.0540
  939MOL0     C23831   3.142   3.098   6.939 -0.4542  0.4491  0.2538
  939MOL0     C23832   3.125   3.007   6.815  0.9989  0.0476  0.2526
  939MOL0     N23833   2.980   2.979   6.796  0.1109 -0.0039 -0.6050
  939MOL0     C23834   2.894   3.080   6.778  0.1450 -0.1590  0.7922
  939MOL0     C23835   2.769   3.032   6.757 -0.3031  0.4361 -0.3039
  939MOL0     C23836   2.636   3.090   6.722 -0.2138  0.1064 -0.2827
  939MOL0     C23837   2.513   3.023   6.794  0.0824 -1.0964  0.6315
  939MOL0     C23838   2.509   3.070   6.939  0.4656  0.2144  1.1593
  939MOL0     C23839   2.374   3.011   6.999 -0.5288  0.4136  0.8044
  939MOL0     O23840   2.342   3.079   7.117  0.3876 -0.0890  0.1001
  939MOL0     C23841   2.206   3.098   7.159 -0.4314 -0.2309 -0.0963
  939MOL0     C23842   2.096   3.012   7.116  0.0468  0.7229 -0.2468
  939MOL0     C23843   1.970   3.024   7.164 -0.6401  0.1687 -0.1888
  939MOL0     C23844   1.936   3.117   7.266  1.0527  0.1772  0.9802
  939MOL0     C23845   1.809   3.112   7.340 -0.1202  0.9916  0.5004
  939MOL0     O23846   1.707   3.044   7.281  0.8346 -0.4880  0.2299
  939MOL0     C23847   1.583   3.042   7.344  0.6803 -0.6266 -1.1000
  939MOL0     C23848   1.474   3.113   7.292 -0.0088  0.4342  0.1186
  939MOL0     C23849   1.348   3.116   7.364 -0.0797 -0.0134  1.3538
  939MOL0     C23850   1.338   3.050   7.493 -0.6659  0.1340 -0.1745
  939MOL0     O23851   1.220   3.074   7.570 -0.3003 -0.3241  0.3711
  939MOL0     C23852   1.208   3.015   7.702 -1.5855 -0.1348 -0.0615
  939MOL0     C23853   1.082   3.062   7.780 -0.1510 -0.2792  0.6114
  939MOL0     C23854   0.955   3.001   7.721 -0.2969  0.0513 -0.6027
  939MOL0     C23855   0.831   3.064   7.786 -0.4667 -0.3639 -1.6245
  939MOL0     C23856   0.708   2.961   7.803 -0.0183 -0.4086  0.9022
  939MOL0     C23857   0.641   2.912   7.674 -0.3136 -0.2891 -0.3426
  939MOL0     C23858   0.611   3.027   7.582 -0.0935 -0.8086  0.0141
  939MOL0     C23859   0.559   2.970   7.446  0.3724 -0.6060 -0.6794
  939MOL0    Cl23860   0.704   2.894   7.377 -0.3720  0.0029  0.0179
  939MOL0     C23861   1.447   2.965   7.538 -0.3727 -0.2330 -0.0133
  939MOL0     C23862   1.568   2.974   7.469  0.1394 -0.4127  0.1189
  939MOL0     O23863   1.800   3.172   7.443 -0.3637 -0.0850  0.0057
  939MOL0     C23864   2.032   3.208   7.298 -0.6593  0.0843  0.2798
  939MOL0     C23865   2.165   3.202   7.250 -0.0497 -0.0309 -0.1054
  939MOL0     N23866   2.785   2.896   6.776 -0.0116  0.4434 -0.2526
  939MOL0     N23867   2.911   2.860   6.797 -0.0528  0.2876 -0.4402
  939MOL0     C23868   3.969   3.030   7.074  0.9939 -0.1046  0.0553
  939MOL0     C23869   4.089   2.965   7.105 -0.0886 -0.0527  0.4456
  939MOL0     C23870   4.522   2.780   6.975 -0.2775 -0.0452  0.8219
  939MOL0     C23871   4.653   2.798   6.926  0.4567  0.5947  0.8006
  939MOL0     C23872   4.748   2.691   6.916 -0.2315 -1.2896  0.2827
  939MOL0     C23873   4.711   2.560   6.957  1.1637  0.0772 -0.2512
  939MOL0     O23874   4.783   2.456   6.983 -0.4286  0.2887 -0.0354
  939MOL0     C23875   4.925   2.487   6.992 -0.5212  0.5899 -1.2844
  939MOL0     C23876   4.962   2.532   7.127 -0.8789  0.2941  0.2906
  939MOL0     C23877   5.096   2.591   7.138 -0.1030 -0.1216  1.2554
  939MOL0     C23878   5.140   2.623   7.277 -0.1638 -0.5242  0.1781
  939MOL0     C23879   5.221   2.743   7.265 -0.4522  1.4819  0.5490
  939MOL0     C23880   5.277   2.857   7.254  0.1193 -0.8565  0.4074
  939MOL0     C23881   4.580   2.545   7.003  0.3183 -0.3059  0.3959
  939MOL0     C23882   4.493   2.656   7.025  0.1997  0.8176 -0.7143
  939MOL0     H23883   4.226   2.948   6.796 -1.1020 -0.9244  0.4250
  939MOL0     H23884   4.011   3.060   6.735 -0.4393 -0.6759 -0.2403
  939MOL0     H23885   3.762   3.328   6.907 -1.2193 -0.9214 -1.2665
  939MOL0     H23886   3.887   3.292   7.028 -0.7219  1.0882  0.6738
  939MOL0     H23887   3.674   3.327   7.126 -1.6580 -0.0847  0.0464
  939MOL0     H23888   3.752   3.160   7.145 -1.5842 -1.6065  0.1659
  939MOL0     H23889   3.571   3.069   7.002 -2.2271 -0.8829  1.2506
  939MOL0     H23890   3.530   3.229   6.939  2.5525 -1.7777 -1.6373
  939MOL0     H23891   3.467   3.133   7.238 -1.7683  0.9381  0.0731
  939MOL0     H23892   3.464   3.291   7.185 -0.7570 -0.8917  0.9093
  939MOL0     H23893   3.274   3.273   7.112  2.6920  1.9355 -0.2833
  939MOL0     H23894   3.276   3.099   7.161  1.3610  0.4611  0.9479
  939MOL0     H23895   3.346   3.026   6.965  0.2005 -0.3448  1.2177
  939MOL0     H23896   3.332   3.188   6.880 -1.1790 -1.6257 -2.0485
  939MOL0     H23897   3.103   3.052   7.031  1.4375  3.6508  2.8885
  939MOL0     H23898   3.092   3.190   6.910  0.0499  0.3646 -0.9238
  939MOL0     H23899   3.172   2.911   6.838  1.4171 -1.1412 -4.5395
  939MOL0     H23900   3.174   3.042   6.723  0.9739  1.5187  0.7678
  939MOL0     H23901   2.913   3.184   6.754  3.4203 -1.2486 -2.3213
  939MOL0     H23902   2.629   3.068   6.615  0.2674  0.0656 -0.3069
  939MOL0     H23903   2.646   3.199   6.720  1.7339 -0.0325  0.1580
  939MOL0     H23904   2.524   2.916   6.776 -2.8550 -1.2108 -1.2390
  939MOL0     H23905   2.420   3.042   6.739 -0.6698 -4.1743  0.6486
  939MOL0     H23906   2.598   3.035   6.992  0.4918 -0.9886  0.3563
  939MOL0     H23907   2.500   3.179   6.941 -2.4029  0.1810 -1.8576
  939MOL0     H23908   2.392   2.905   7.019 -0.6998  0.2948  0.3367
  939MOL0     H23909   2.294   3.020   6.924 -1.6833 -0.2074  1.9223
  939MOL0     H23910   2.114   2.933   7.043  2.6233 -0.0154  1.0599
  939MOL0     H23911   1.899   2.950   7.130 -1.1899 -0.3795  2.0001
  939MOL0     H23912   1.474   3.169   7.199 -1.8640  1.4434  0.6709
  939MOL0     H23913   1.261   3.175   7.335  0.0514 -1.0320 -1.3838
  939MOL0     H23914   1.288   3.054   7.765 -2.0546 -1.6956  1.5640
  939MOL0     H23915   1.215   2.906   7.693  2.8670 -0.0827  0.7382
  939MOL0     H23916   1.080   3.171   7.771  0.8455 -0.4054 -1.8440
  939MOL0     H23917   1.092   3.031   7.884 -0.5454 -1.3669  0.3422
  939MOL0     H23918   0.956   2.894   7.743  1.5917  0.3943  1.3753
  939MOL0     H23919   0.946   3.010   7.613  1.3556 -2.3719 -1.0205
  939MOL0     H23920   0.853   3.095   7.889  0.4014 -0.4130 -1.7828
  939MOL0     H23921   0.812   3.155   7.728  0.2226  0.5225 -0.5098
  939MOL0     H23922   0.636   3.017   7.863  2.3118  1.8300  1.7820
  939MOL0     H23923   0.741   2.873   7.859 -0.8620 -1.1969  0.1986
  939MOL0     H23924   0.559   2.845   7.703 -1.9395  1.9979  0.6894
  939MOL0     H23925   0.715   2.853   7.619  0.4758  1.2880 -1.0452
  939MOL0     H23926   0.530   3.089   7.621  1.1188  1.4226 -0.8428
  939MOL0     H23927   0.705   3.081   7.567  1.2409 -3.1305 -0.5475
  939MOL0     H23928   0.521   3.047   7.379  1.2622  2.0942  1.6984
  939MOL0     H23929   0.488   2.891   7.472  2.0768 -1.1645  2.9079
  939MOL0     H23930   1.428   2.904   7.626  0.7664 -0.6039 -0.0060
  939MOL0     H23931   1.648   2.910   7.505 -0.6732 -1.0062  0.9103
  939MOL0     H23932   2.002   3.288   7.366  0.0087 -1.1734  2.1465
  939MOL0     H23933   2.233   3.279   7.286 -0.6738  1.5474 -2.1157
  939MOL0     H23934   3.907   3.050   7.161  0.4223  1.6596 -0.7227
  939MOL0     H23935   4.108   2.928   7.205  1.2631 -1.7839 -0.3851
  939MOL0     H23936   4.688   2.897   6.896  2.6428 -0.5526 -0.6544
  939MOL0     H23937   4.843   2.723   6.873 -1.2399  1.6501  0.0282
  939MOL0     H23938   4.964   2.554   6.916  1.6541 -0.0409 -0.7941
  939MOL0     H23939   4.980   2.393   6.982  0.8762  0.6259  3.6494
  939MOL0     H23940   4.895   2.608   7.169 -1.8324 -0.5341  0.2964
  939MOL0     H23941   4.965   2.452   7.202 -1.7167  4.0510  4.8251
  939MOL0     H23942   5.099   2.683   7.080 -1.1224 -1.2734 -0.7047
  939MOL0     H23943   5.168   2.528   7.085 -1.7752 -0.4342 -0.7678
  939MOL0     H23944   5.048   2.637   7.334  0.0069 -0.9068  0.5537
  939MOL0     H23945   5.208   2.555   7.330  0.3236  0.7514  1.2540
  939MOL0     H23946   5.319   2.956   7.249 -2.2355  0.1864 -0.3578
  939MOL0     H23947   4.553   2.450   7.047  0.1003  0.6064  2.3365
  939MOL0     H23948   4.405   2.651   7.087  1.0658 -0.7493  0.4420
  940MOL0     O23949   2.709   4.911   9.433 -0.0578 -0.5923  0.0008
  940MOL0     C23950   2.738   4.943   9.551 -0.1443 -0.4650  0.9245
  940MOL0     O23951   2.653   4.967   9.650 -1.3462  0.1162  0.5135
  940MOL0     C23952   2.527   4.993   9.609 -1.2337 -0.0455 -0.0236
  940MOL0     C23953   2.436   4.905   9.537 -0.1700 -0.1578 -0.3068
  940MOL0     C23954   2.303   4.948   9.501  0.3319 -0.2602  0.4881
  940MOL0     C23955   2.274   5.080   9.531  0.1919  0.1171 -0.4119
  940MOL0     O23956   2.159   5.143   9.485  0.0450 -0.3809 -0.1023
  940MOL0     C23957   2.068   5.065   9.395  0.0056 -0.0592 -0.1904
  940MOL0     C23958   1.991   5.173   9.313 -0.5928  0.2253  0.1100
  940MOL0     C23959   1.854   5.200   9.369 -1.3043 -0.3163 -0.1900
  940MOL0     C23960   1.777   5.281   9.265 -0.9039 -0.8310 -0.4553
  940MOL0     C23961   1.625   5.301   9.282  0.3028  0.8411 -0.3350
  940MOL0     C23962   1.557   5.343   9.158  0.2020  0.2816 -0.4839
  940MOL0     C23963   1.406   5.331   9.173  0.1048 -0.2075 -0.4070
  940MOL0     C23964   1.315   5.408   9.075 -0.6078  0.2260 -0.5125
  940MOL0     N23965   1.174   5.379   9.098 -0.3500 -0.6918 -0.3112
  940MOL0     C23966   1.105   5.398   9.209  0.0915  0.2887 -0.3194
  940MOL0     C23967   0.978   5.392   9.166  0.2174  0.1527 -0.5636
  940MOL0     C23968   0.876   5.455   9.254  0.0524 -0.4523 -0.5337
  940MOL0     C23969   0.834   5.594   9.198  0.0717  0.6227  0.3031
  940MOL0     C23970   0.867   5.698   9.303  0.6505 -0.5003 -0.3857
  940MOL0     C23971   1.022   5.728   9.297  0.1566 -0.1714 -0.2239
  940MOL0     O23972   1.080   5.655   9.417  0.6910  0.2223  0.4547
  940MOL0     C23973   1.190   5.705   9.480 -0.1115  0.8581  0.2172
  940MOL0     C23974   1.229   5.831   9.472  0.6638 -0.3651  0.5667
  940MOL0     C23975   1.352   5.875   9.530 -0.1463 -0.0091 -0.8203
  940MOL0     C23976   1.418   5.784   9.609  0.0217 -1.1870  0.0038
  940MOL0     C23977   1.547   5.830   9.676 -0.0396  0.4705 -0.7076
  940MOL0     O23978   1.568   5.967   9.685 -0.1700  0.0719 -0.0483
  940MOL0     C23979   1.678   6.011   9.755  0.3425  0.3264 -1.7724
  940MOL0     C23980   1.748   5.947   9.864 -0.8542 -0.1201  0.4804
  940MOL0     C23981   1.859   6.025   9.911  0.2381  0.1604  0.3696
  940MOL0     C23982   1.889   6.149   9.860 -0.0827 -0.5137 -1.0484
  940MOL0     O23983   1.991   6.220   9.911  0.0486 -0.6305 -0.3727
  940MOL0     C23984   2.073   6.289   9.820  0.2821  0.1971 -0.1535
  940MOL0     C23985   2.063   6.441   9.780  0.1068  0.0745  1.0944
  940MOL0     C23986   2.035   6.526   9.905  0.0538 -0.9091 -0.4443
  940MOL0     C23987   1.997   6.672   9.873  0.2478  0.0789  0.6256
  940MOL0     C23988   1.912   6.735   9.989 -0.3672 -0.1115  0.1963
  940MOL0     C23989   2.003   6.763  10.122 -0.3900  0.1241  0.4867
  940MOL0     C23990   2.109   6.877  10.117 -0.2032 -0.3194 -0.8032
  940MOL0     C23991   2.128   6.940  10.262 -0.3718  0.1313  0.6612
  940MOL0    Cl23992   2.219   6.849  10.385 -0.0755 -0.1270  0.0257
  940MOL0     C23993   1.811   6.204   9.762  0.1092  0.9299  1.3090
  940MOL0     C23994   1.711   6.129   9.701 -0.7366  0.2057 -0.9123
  940MOL0     O23995   1.607   5.744   9.741  0.3136 -0.0093 -0.3090
  940MOL0     C23996   1.374   5.651   9.616 -0.5373  0.0902  0.0550
  940MOL0     C23997   1.260   5.614   9.562  0.3671 -0.6177 -0.4993
  940MOL0     N23998   0.976   5.360   9.035 -0.1600  0.3506 -0.5508
  940MOL0     N23999   1.095   5.342   8.994 -0.3538  0.0286  0.4284
  940MOL0     C24000   2.356   5.157   9.608 -0.1472 -0.5082  0.1375
  940MOL0     C24001   2.481   5.121   9.637  0.2176  1.0887 -1.0270
  940MOL0     C24002   2.885   4.961   9.577  0.2129 -0.6270 -0.1953
  940MOL0     C24003   2.989   4.899   9.510  0.1133 -0.4735 -0.3012
  940MOL0     C24004   3.121   4.933   9.539 -0.9652 -0.0960  0.2903
  940MOL0     C24005   3.152   5.036   9.630  0.1246  1.1173  0.1972
  940MOL0     O24006   3.287   5.055   9.651  0.4521  0.0128 -0.5202
  940MOL0     C24007   3.330   5.125   9.766 -1.0916 -0.1963 -0.1311
  940MOL0     C24008   3.472   5.076   9.778 -0.2756  0.3471 -0.2946
  940MOL0     C24009   3.479   4.915   9.781 -0.1201  0.3220 -0.2408
  940MOL0     C24010   3.591   4.877   9.879 -0.2230  0.8984 -0.4103
  940MOL0     C24011   3.719   4.922   9.826  0.3076  0.8011  0.0567
  940MOL0     C24012   3.826   4.974   9.795 -0.6964  0.4958 -0.4035
  940MOL0     C24013   3.047   5.094   9.707  0.5421  0.9118  0.6318
  940MOL0     C24014   2.915   5.055   9.680  0.5661  0.0546  0.8337
  940MOL0     H24015   2.455   4.799   9.524  1.0979 -0.0570  0.5172
  940MOL0     H24016   2.238   4.881   9.446  0.4490 -0.4687  0.6039
  940MOL0     H24017   2.016   4.986   9.451  1.9443 -2.2097 -1.2252
  940MOL0     H24018   2.123   5.000   9.327 -0.0053 -1.5203  1.1177
  940MOL0     H24019   1.977   5.141   9.209 -4.3694 -1.3391  0.9286
  940MOL0     H24020   2.054   5.262   9.312  1.5799 -1.2289  0.0457
  940MOL0     H24021   1.868   5.264   9.457 -1.3722  0.7623 -0.9372
  940MOL0     H24022   1.806   5.105   9.393  1.6302 -1.7018  0.6283
  940MOL0     H24023   1.813   5.381   9.241 -0.5601 -0.4236  1.6005
  940MOL0     H24024   1.783   5.229   9.169 -0.2807 -0.4758 -0.6116
  940MOL0     H24025   1.611   5.385   9.351 -0.1728 -1.2654  2.2980
  940MOL0     H24026   1.590   5.206   9.322  2.0106 -0.1870 -1.1937
  940MOL0     H24027   1.586   5.279   9.074  1.9578 -1.3129  1.2261
  940MOL0     H24028   1.594   5.442   9.132 -0.3773  0.2835 -1.3322
  940MOL0     H24029   1.387   5.224   9.165  3.5948 -1.2313  2.4974
  940MOL0     H24030   1.386   5.357   9.277  1.8768  0.1524 -0.1371
  940MOL0     H24031   1.333   5.400   8.967 -4.2916  1.8442 -1.4275
  940MOL0     H24032   1.323   5.516   9.092 -3.5130  0.3216  0.8417
  940MOL0     H24033   1.140   5.428   9.308 -2.5782  0.9838  0.5065
  940MOL0     H24034   0.915   5.460   9.356 -2.8472 -1.0798  0.7192
  940MOL0     H24035   0.792   5.385   9.244  0.9068 -1.2152 -3.3194
  940MOL0     H24036   0.726   5.587   9.182  0.0369  2.6238 -0.6959
  940MOL0     H24037   0.870   5.606   9.096  2.1171  2.5553  1.1629
  940MOL0     H24038   0.801   5.784   9.289  0.8104  0.1500  2.4217
  940MOL0     H24039   0.846   5.655   9.401  4.7365 -0.7074  0.5654
  940MOL0     H24040   1.022   5.836   9.316  1.5731 -0.2688  0.5131
  940MOL0     H24041   1.061   5.716   9.196  2.1443 -0.0842  0.4968
  940MOL0     H24042   1.184   5.903   9.405  0.8505  0.5541  1.4038
  940MOL0     H24043   1.381   5.978   9.510  3.2559 -0.5733  0.5857
  940MOL0     H24044   1.726   5.851   9.909  2.9412 -1.2547  0.2302
  940MOL0     H24045   1.927   5.990   9.988  0.6941  1.6632  0.6788
  940MOL0     H24046   2.067   6.235   9.724 -1.5783 -2.5666  1.3858
  940MOL0     H24047   2.175   6.263   9.848  0.9534  1.1465 -1.5895
  940MOL0     H24048   1.997   6.453   9.694 -0.2538 -1.7953  1.0734
  940MOL0     H24049   2.161   6.480   9.750  1.6974 -2.6556  2.4363
  940MOL0     H24050   2.123   6.545   9.968 -1.2611  1.8951  0.7354
  940MOL0     H24051   1.953   6.481   9.962 -0.3206 -0.4392 -0.6037
  940MOL0     H24052   2.087   6.730   9.853  1.8435 -2.5655 -0.4441
  940MOL0     H24053   1.937   6.676   9.781 -1.9231  0.8040  1.9892
  940MOL0     H24054   1.820   6.677  10.001  0.3399 -1.7991 -1.9318
  940MOL0     H24055   1.878   6.830   9.948 -0.6692  0.6229  2.0448
  940MOL0     H24056   2.051   6.679  10.173  0.3320  2.7195  4.4787
  940MOL0     H24057   1.923   6.791  10.191 -0.7181  0.7155 -0.1122
  940MOL0     H24058   2.201   6.829  10.082 -1.1199 -3.4380  0.6337
  940MOL0     H24059   2.073   6.957  10.052  3.5602  0.4602 -2.2096
  940MOL0     H24060   2.035   6.973  10.311 -0.5273  1.2781 -0.3406
  940MOL0     H24061   2.176   7.038  10.254 -2.0053  0.8121 -2.1579
  940MOL0     H24062   1.843   6.293   9.710 -0.2767 -1.2225 -3.0603
  940MOL0     H24063   1.657   6.170   9.616 -1.1725 -0.8961 -1.1853
  940MOL0     H24064   1.422   5.578   9.681 -1.7563  0.2466  1.1697
  940MOL0     H24065   1.229   5.512   9.583  0.7884 -0.6354  0.0687
  940MOL0     H24066   2.317   5.255   9.637  0.9040 -0.5218  1.7232
  940MOL0     H24067   2.542   5.182   9.702  2.6425 -2.0396 -0.1404
  940MOL0     H24068   2.960   4.824   9.437  2.3879 -2.0333  0.2719
  940MOL0     H24069   3.204   4.896   9.480 -0.3157  1.9947 -0.2010
  940MOL0     H24070   3.268   5.107   9.854  0.9084 -3.1620  0.8094
  940MOL0     H24071   3.336   5.232   9.744 -0.2626 -0.8665 -3.8014
  940MOL0     H24072   3.525   5.116   9.691  0.5766  1.1613  0.5821
  940MOL0     H24073   3.512   5.128   9.865  1.2459 -0.6191 -0.3787
  940MOL0     H24074   3.500   4.879   9.680  1.4792  1.7760 -0.4740
  940MOL0     H24075   3.387   4.878   9.826  1.4369  0.8206  3.8374
  940MOL0     H24076   3.578   4.917   9.980 -2.8529 -1.1244  0.1904
  940MOL0     H24077   3.593   4.768   9.894 -2.7589  0.6382 -1.4746
  940MOL0     H24078   3.921   5.019   9.776 -0.1218 -0.3333  0.4213
  940MOL0     H24079   3.070   5.181   9.767 -1.6717  2.8475 -1.1252
  940MOL0     H24080   2.846   5.123   9.728  2.2359 -0.3070  4.0062
  941MOL0     O24081   6.822   5.529   5.725 -0.1507 -0.4357  0.6028
  941MOL0     C24082   6.848   5.424   5.665 -0.5591 -0.0039 -0.8947
  941MOL0     O24083   6.763   5.322   5.649  0.2415 -0.2432  0.3117
  941MOL0     C24084   6.618   5.342   5.652 -0.0661 -0.5765  0.5328
  941MOL0     C24085   6.558   5.454   5.592 -0.4308 -0.0251  0.0042
  941MOL0     C24086   6.421   5.472   5.579  0.6466  1.0114 -1.2247
  941MOL0     C24087   6.337   5.378   5.635 -0.2586  0.2617  0.2863
  941MOL0     O24088   6.204   5.381   5.610  0.0495  0.3381  0.0729
  941MOL0     C24089   6.118   5.282   5.659  0.3033  0.7809 -0.1688
  941MOL0     C24090   6.089   5.326   5.809 -0.2182 -0.1845  0.4588
  941MOL0     C24091   5.969   5.241   5.869 -0.0788  0.5930  0.0108
  941MOL0     C24092   5.822   5.272   5.823  0.0770 -1.0037 -0.2802
  941MOL0     C24093   5.755   5.378   5.915 -0.6014 -0.1506  0.1590
  941MOL0     C24094   5.608   5.396   5.886  0.5949  0.1985  0.9121
  941MOL0     C24095   5.551   5.514   5.956  1.0189  0.4055  0.1657
  941MOL0     C24096   5.412   5.555   5.893  0.7173  0.6223 -0.3628
  941MOL0     N24097   5.331   5.436   5.889  0.7892  0.1870  0.1762
  941MOL0     C24098   5.310   5.365   5.763 -0.5745  0.5867 -0.4809
  941MOL0     C24099   5.210   5.276   5.798 -0.2169 -0.0339 -0.0920
  941MOL0     C24100   5.135   5.192   5.710 -0.0948 -0.4191 -0.0421
  941MOL0     C24101   5.066   5.266   5.605  0.2446 -0.3678  0.4742
  941MOL0     C24102   4.953   5.368   5.661 -0.3533  0.1869  0.0146
  941MOL0     C24103   4.846   5.305   5.764 -0.8842  0.4170  0.1451
  941MOL0     O24104   4.787   5.177   5.712 -0.4611 -0.2330  0.4793
  941MOL0     C24105   4.661   5.174   5.651 -0.1734 -0.5688 -0.0943
  941MOL0     C24106   4.600   5.279   5.582  0.7387  0.1804 -0.3884
  941MOL0     C24107   4.470   5.263   5.520 -0.4346 -0.5435 -0.1342
  941MOL0     C24108   4.406   5.138   5.524 -0.0391 -1.5127 -0.3206
  941MOL0     C24109   4.279   5.121   5.453  0.7292  0.4278  0.0732
  941MOL0     O24110   4.198   5.231   5.426 -0.1693  0.3979 -0.2724
  941MOL0     C24111   4.069   5.209   5.383  0.4204 -0.1359  0.5234
  941MOL0     C24112   3.978   5.122   5.433  0.5611 -0.1092  0.5136
  941MOL0     C24113   3.848   5.098   5.371 -0.4195 -1.0126 -0.0441
  941MOL0     C24114   3.822   5.161   5.247  0.9936  0.3894  0.4335
  941MOL0     O24115   3.710   5.121   5.175 -0.7560 -0.6252 -0.0350
  941MOL0     C24116   3.596   5.079   5.246 -0.0533 -0.2736 -0.0817
  941MOL0     C24117   3.480   5.051   5.154  0.3703 -0.2571  0.1706
  941MOL0     C24118   3.404   5.170   5.098 -0.4576  0.0271 -0.4723
  941MOL0     C24119   3.296   5.107   4.996  0.4123  0.0881 -0.3922
  941MOL0     C24120   3.273   5.220   4.895  0.1716 -0.7492 -0.1546
  941MOL0     C24121   3.169   5.181   4.778 -0.2338  0.6107 -0.3214
  941MOL0     C24122   3.181   5.278   4.664 -0.4731 -0.0850 -0.0640
  941MOL0     C24123   3.094   5.244   4.548  0.3481  0.4779  0.0780
  941MOL0    Cl24124   3.158   5.106   4.464 -0.0706 -0.5220  0.2425
  941MOL0     C24125   3.911   5.254   5.193  0.5027 -0.0582  1.0206
  941MOL0     C24126   4.027   5.276   5.266  0.6185 -0.1143  0.7721
  941MOL0     O24127   4.250   5.001   5.426  0.0566 -0.0786 -0.5096
  941MOL0     C24128   4.482   5.026   5.577 -0.6684  0.2761 -0.4463
  941MOL0     C24129   4.602   5.050   5.651 -0.2314 -0.0224 -0.0285
  941MOL0     N24130   5.175   5.300   5.927  0.2916  0.4007  0.2865
  941MOL0     N24131   5.258   5.379   5.992  0.2309  0.2871  0.3518
  941MOL0     C24132   6.393   5.260   5.701  0.4113  0.3497 -0.3290
  941MOL0     C24133   6.530   5.250   5.706 -0.5501 -0.2387 -0.6412
  941MOL0     C24134   6.979   5.416   5.598  0.1049 -0.7669 -0.9999
  941MOL0     C24135   7.090   5.503   5.625  0.6499  0.5151  0.5797
  941MOL0     C24136   7.212   5.478   5.563  0.1963 -0.0776 -0.5759
  941MOL0     C24137   7.228   5.387   5.464 -0.1897  0.2336  0.0962
  941MOL0     O24138   7.339   5.367   5.384  0.4786  0.2995  0.3560
  941MOL0     C24139   7.470   5.418   5.426  0.6692  0.7772  0.0384
  941MOL0     C24140   7.535   5.294   5.505 -0.2356  0.8548  0.7764
  941MOL0     C24141   7.518   5.310   5.664  0.2159 -0.2241  0.5164
  941MOL0     C24142   7.599   5.200   5.736  0.2607  0.2563 -0.4851
  941MOL0     C24143   7.741   5.247   5.748 -0.1444  0.7492 -0.5877
  941MOL0     C24144   7.844   5.308   5.764  0.7771  1.1657 -0.0465
  941MOL0     C24145   7.115   5.306   5.431 -0.5640  0.0236  0.8389
  941MOL0     C24146   7.002   5.323   5.499 -0.1738  0.0375 -0.1557
  941MOL0     H24147   6.618   5.523   5.534  0.0671 -1.2541 -1.0059
  941MOL0     H24148   6.373   5.554   5.527  1.2267  2.3217  0.2440
  941MOL0     H24149   6.136   5.174   5.650 -2.2751  0.0289  2.0225
  941MOL0     H24150   6.025   5.286   5.602 -1.1452  1.2731  2.0739
  941MOL0     H24151   6.073   5.433   5.823 -0.8695 -0.4494  1.9823
  941MOL0     H24152   6.176   5.302   5.870  0.9269  0.1793 -0.9864
  941MOL0     H24153   5.978   5.235   5.978  0.7146  0.7191 -0.0421
  941MOL0     H24154   5.988   5.139   5.837 -2.3115  0.0146  0.3122
  941MOL0     H24155   5.818   5.297   5.717  2.0890  1.1982  0.0630
  941MOL0     H24156   5.776   5.173   5.828  1.4931 -1.7155 -0.5574
  941MOL0     H24157   5.805   5.470   5.883 -2.8098  0.5797 -1.3910
  941MOL0     H24158   5.777   5.369   6.022 -0.9401 -0.7451  0.1801
  941MOL0     H24159   5.553   5.302   5.898  1.3808 -0.8171 -2.5358
  941MOL0     H24160   5.613   5.421   5.780  1.7947  0.8686  1.1066
  941MOL0     H24161   5.545   5.493   6.063  3.6402  1.4630  0.5712
  941MOL0     H24162   5.614   5.601   5.939 -2.0933  2.4396 -1.8914
  941MOL0     H24163   5.409   5.581   5.786 -0.9053 -2.5694 -1.2362
  941MOL0     H24164   5.371   5.640   5.949  1.9611  2.7226 -2.4414
  941MOL0     H24165   5.368   5.390   5.674 -0.6187  1.6935 -0.2103
  941MOL0     H24166   5.060   5.131   5.761  2.3511 -0.1778  4.3338
  941MOL0     H24167   5.201   5.117   5.664  1.7519  1.4077 -0.5253
  941MOL0     H24168   5.015   5.184   5.554 -1.2507  0.4529  0.5857
  941MOL0     H24169   5.135   5.318   5.536  0.2810 -1.5767 -0.4293
  941MOL0     H24170   5.019   5.438   5.713 -0.4898 -1.0210  1.9030
  941MOL0     H24171   4.894   5.417   5.584 -1.9148 -1.1101  0.3258
  941MOL0     H24172   4.771   5.376   5.800  0.4426  1.8200  0.2538
  941MOL0     H24173   4.903   5.271   5.851 -0.2699  0.7175 -0.1307
  941MOL0     H24174   4.642   5.378   5.570  0.7319  0.1378 -0.7890
  941MOL0     H24175   4.429   5.352   5.473 -0.4963 -1.1207 -1.1955
  941MOL0     H24176   3.995   5.064   5.522 -0.5629  0.0697  0.8696
  941MOL0     H24177   3.788   5.020   5.417 -0.2970 -1.4894 -0.6725
  941MOL0     H24178   3.571   5.139   5.334  1.0634 -1.1422  0.8527
  941MOL0     H24179   3.625   4.984   5.291 -0.8124  0.7758  2.8418
  941MOL0     H24180   3.402   4.992   5.204 -2.0143  2.5789  0.0560
  941MOL0     H24181   3.520   4.987   5.074  1.2002 -3.0142  2.6211
  941MOL0     H24182   3.468   5.241   5.046 -2.6331 -0.7463 -4.6520
  941MOL0     H24183   3.347   5.216   5.179 -1.5755 -3.2471  0.7629
  941MOL0     H24184   3.326   5.009   4.956  2.4769 -1.0782  3.5360
  941MOL0     H24185   3.204   5.102   5.054 -0.5223 -1.7126 -1.9391
  941MOL0     H24186   3.368   5.254   4.852  0.0777  0.8648  0.8063
  941MOL0     H24187   3.237   5.313   4.942  2.4348  0.6616 -1.0493
  941MOL0     H24188   3.065   5.190   4.812 -1.2958 -0.1138 -3.0363
  941MOL0     H24189   3.183   5.075   4.754  1.8652  0.9922 -0.9437
  941MOL0     H24190   3.157   5.381   4.690  1.0449  1.1661 -3.0452
  941MOL0     H24191   3.285   5.275   4.630 -0.8785 -0.8499 -1.3302
  941MOL0     H24192   3.090   5.320   4.470 -0.6609 -1.0935 -1.4898
  941MOL0     H24193   2.989   5.217   4.567 -0.1131 -1.3306 -3.9372
  941MOL0     H24194   3.894   5.314   5.104  1.2587 -1.4122 -0.0717
  941MOL0     H24195   4.094   5.352   5.225  0.3532 -0.5417 -0.4910
  941MOL0     H24196   4.443   4.925   5.579 -0.6191  0.2643  0.9617
  941MOL0     H24197   4.659   4.973   5.702  1.6947  2.4167  1.7522
  941MOL0     H24198   6.326   5.186   5.743 -0.0349  2.1071  2.3028
  941MOL0     H24199   6.567   5.166   5.763 -1.9541 -0.7940 -0.4943
  941MOL0     H24200   7.080   5.583   5.698 -2.5171  0.3337  0.4905
  941MOL0     H24201   7.293   5.529   5.614 -2.3851  2.1971  1.5631
  941MOL0     H24202   7.456   5.507   5.488 -0.4644  0.0517  0.8634
  941MOL0     H24203   7.524   5.451   5.337 -1.8174  1.1804 -1.4164
  941MOL0     H24204   7.511   5.193   5.469  4.9417 -0.0667 -0.8458
  941MOL0     H24205   7.644   5.302   5.497 -0.1485 -1.3076 -1.5182
  941MOL0     H24206   7.414   5.305   5.699  0.2174  1.3503  0.8521
  941MOL0     H24207   7.559   5.406   5.699 -0.0395  0.2420 -0.4237
  941MOL0     H24208   7.552   5.180   5.833 -1.1239 -2.6641 -1.6331
  941MOL0     H24209   7.600   5.108   5.677  1.9402  0.1456 -0.3341
  941MOL0     H24210   7.940   5.354   5.776  1.4662 -0.0293 -0.7489
  941MOL0     H24211   7.132   5.238   5.348 -0.0203  0.6403  0.4360
  941MOL0     H24212   6.923   5.254   5.472 -0.1215 -0.3933  0.7683
  942MOL0     O24213   9.297  10.150   0.928  0.0773 -0.4442  1.1415
  942MOL0     C24214   9.337  10.082   0.830  0.5947  0.5992  0.1046
  942MOL0     O24215   9.281   9.972   0.782  0.4733 -0.0029  0.4222
  942MOL0     C24216   9.152   9.926   0.814 -0.3520  1.1816 -0.0825
  942MOL0     C24217   9.044   9.983   0.887 -0.8460  0.1713 -0.0079
  942MOL0     C24218   8.938   9.911   0.939 -0.8910 -0.4069 -0.5174
  942MOL0     C24219   8.922   9.777   0.895  1.3000 -0.2869 -0.7299
  942MOL0     O24220   8.809   9.713   0.933  0.1076  0.4329  1.0618
  942MOL0     C24221   8.722   9.699   0.818  0.2265 -0.6873 -0.3096
  942MOL0     C24222   8.593   9.693   0.880  0.8590  0.0656  0.7299
  942MOL0     C24223   8.489   9.648   0.781 -0.4549  0.8626 -1.6212
  942MOL0     C24224   8.343   9.635   0.852 -0.2647 -0.2279  0.2195
  942MOL0     C24225   8.232   9.581   0.756  0.3442  0.0965  0.4176
  942MOL0     C24226   8.104   9.569   0.845 -0.4315  0.1768  0.3544
  942MOL0     C24227   7.985   9.544   0.750 -0.2910 -0.2897 -0.0287
  942MOL0     C24228   7.943   9.398   0.736  0.5727  0.1734 -0.1610
  942MOL0     N24229   7.798   9.373   0.694 -0.9517 -0.8921 -1.9789
  942MOL0     C24230   7.727   9.433   0.594 -0.2058  0.0610  0.0478
  942MOL0     C24231   7.609   9.370   0.584  0.6930  0.4245  0.3290
  942MOL0     C24232   7.496   9.415   0.491  0.0451 -0.2250 -0.7393
  942MOL0     C24233   7.367   9.444   0.573  0.5665  0.7714 -0.1274
  942MOL0     C24234   7.254   9.472   0.476  0.3677  0.8729  0.7729
  942MOL0     C24235   7.119   9.517   0.543 -0.1996  0.2114  0.6702
  942MOL0     O24236   7.043   9.550   0.434  0.0806 -0.1619  0.6485
  942MOL0     C24237   6.904   9.545   0.466  0.1200 -0.2222 -0.8898
  942MOL0     C24238   6.818   9.513   0.373 -0.4535  0.2033  0.8880
  942MOL0     C24239   6.682   9.525   0.384 -0.2699 -0.1277  0.7426
  942MOL0     C24240   6.621   9.575   0.502  0.0429 -1.0601 -0.3633
  942MOL0     C24241   6.479   9.587   0.525  1.1273 -0.3789  0.9026
  942MOL0     O24242   6.398   9.529   0.428  0.3426  0.0176  0.4440
  942MOL0     C24243   6.260   9.536   0.445  0.1167  0.3978  0.8279
  942MOL0     C24244   6.193   9.415   0.458  0.0515 -0.3401 -1.0775
  942MOL0     C24245   6.048   9.425   0.448 -0.1346  0.0548  0.2440
  942MOL0     C24246   5.978   9.542   0.441  0.0617  0.2062 -0.4331
  942MOL0     O24247   5.840   9.554   0.435 -0.8300 -0.1284 -0.2786
  942MOL0     C24248   5.765   9.433   0.440  0.8249  0.2353  0.5176
  942MOL0     C24249   5.623   9.477   0.440 -1.2168  0.0989  0.3923
  942MOL0     C24250   5.528   9.354   0.427 -0.5119 -0.9997 -0.2603
  942MOL0     C24251   5.506   9.305   0.281 -0.1967 -0.2092  0.1077
  942MOL0     C24252   5.398   9.192   0.264  0.1321 -0.3351  1.2048
  942MOL0     C24253   5.256   9.258   0.255 -0.7011  0.0997  0.3920
  942MOL0     C24254   5.155   9.148   0.236 -0.3121  0.0795 -0.0363
  942MOL0     C24255   5.003   9.199   0.224 -0.9662  0.8207  0.5795
  942MOL0    Cl24256   4.997   9.318   0.094 -0.0689  0.2061 -0.2325
  942MOL0     C24257   6.047   9.663   0.437 -0.4823  0.6133  0.3470
  942MOL0     C24258   6.187   9.659   0.434  0.3398 -0.0808 -0.1301
  942MOL0     O24259   6.438   9.645   0.631 -0.4369  0.1894 -0.1324
  942MOL0     C24260   6.712   9.620   0.602  0.2481  0.3087  0.7379
  942MOL0     C24261   6.849   9.598   0.586  0.1316 -0.5467  0.1342
  942MOL0     N24262   7.605   9.266   0.670 -0.3035  0.0251  0.7735
  942MOL0     N24263   7.717   9.269   0.728 -0.2730 -0.0430 -0.1883
  942MOL0     C24264   9.011   9.719   0.814 -0.2903 -0.1446 -0.2165
  942MOL0     C24265   9.132   9.791   0.781  0.2897 -0.4167 -1.2594
  942MOL0     C24266   9.466  10.123   0.779 -0.9181 -0.2514 -0.3158
  942MOL0     C24267   9.527  10.063   0.669 -0.5892 -0.2884  0.7555
  942MOL0     C24268   9.654  10.092   0.632  0.0406  0.7218  0.3479
  942MOL0     C24269   9.732  10.162   0.718 -0.0566  0.1254 -0.7606
  942MOL0     O24270   9.860  10.197   0.696 -0.9155  0.0704 -0.7496
  942MOL0     C24271   9.956  10.119   0.620  0.8958 -0.7413 -0.1450
  942MOL0     C24272  10.096  10.164   0.645  0.3171 -0.1903 -0.5681
  942MOL0     C24273  10.139  10.302   0.585  0.1332  0.0887  0.4490
  942MOL0     C24274  10.158  10.312   0.428 -0.1623  0.3299 -0.4288
  942MOL0     C24275  10.251  10.213   0.370  0.2544  0.8903 -0.3744
  942MOL0     C24276  10.335  10.131   0.352 -0.1019  0.8038 -0.3755
  942MOL0     C24277   9.678  10.227   0.828  0.2953 -0.1632 -0.6606
  942MOL0     C24278   9.549  10.204   0.868  0.1588  0.7237  1.2320
  942MOL0     H24279   9.049  10.087   0.918  0.7497  0.2437 -0.4019
  942MOL0     H24280   8.865   9.962   1.003 -0.2751 -0.4980  0.2793
  942MOL0     H24281   8.752   9.602   0.777 -2.2018 -2.5438  1.9917
  942MOL0     H24282   8.723   9.779   0.743  0.4609  0.5498  0.9722
  942MOL0     H24283   8.571   9.783   0.937  0.0601  0.0007  0.5389
  942MOL0     H24284   8.602   9.611   0.952  1.2209 -1.3695 -0.8633
  942MOL0     H24285   8.521   9.551   0.744  0.2695  1.0334 -1.4601
  942MOL0     H24286   8.481   9.722   0.700 -0.6645 -0.0969 -2.4961
  942MOL0     H24287   8.344   9.567   0.938 -1.4212  2.4026  2.4519
  942MOL0     H24288   8.311   9.733   0.889  1.6853  0.7814 -0.5921
  942MOL0     H24289   8.261   9.482   0.720  0.0531  0.4191 -0.7594
  942MOL0     H24290   8.225   9.645   0.667  0.2368  0.8920  0.9959
  942MOL0     H24291   8.084   9.655   0.910 -0.5847  1.3807 -1.2303
  942MOL0     H24292   8.111   9.493   0.923  0.7404  3.0091  3.2440
  942MOL0     H24293   7.896   9.587   0.797 -0.7182 -1.5006  0.2947
  942MOL0     H24294   8.006   9.587   0.652 -0.1530  1.1367  0.5892
  942MOL0     H24295   7.947   9.353   0.836 -1.6719  0.4800  0.1199
  942MOL0     H24296   8.013   9.344   0.671  2.6239  1.3933  0.9376
  942MOL0     H24297   7.758   9.514   0.529 -0.1364 -0.3598 -0.4476
  942MOL0     H24298   7.487   9.348   0.404 -0.1307  0.1671 -1.0264
  942MOL0     H24299   7.518   9.512   0.446 -3.0050  2.0589  2.2780
  942MOL0     H24300   7.371   9.534   0.634 -2.7125  1.7636 -1.1698
  942MOL0     H24301   7.327   9.363   0.635 -2.4301  1.3965 -1.0847
  942MOL0     H24302   7.291   9.553   0.412 -0.0347 -0.1005 -0.7638
  942MOL0     H24303   7.226   9.384   0.417 -1.9218  1.5292  0.7718
  942MOL0     H24304   7.145   9.595   0.615 -0.0852  1.0465 -0.2606
  942MOL0     H24305   7.074   9.434   0.599 -0.0881 -1.9136 -2.1549
  942MOL0     H24306   6.864   9.473   0.284 -0.5405 -0.7131  1.2462
  942MOL0     H24307   6.618   9.502   0.299  1.4761 -0.0481 -0.6311
  942MOL0     H24308   6.246   9.321   0.462  0.9578  0.1979  0.3982
  942MOL0     H24309   5.998   9.330   0.428  2.2812 -1.7523  2.1160
  942MOL0     H24310   5.784   9.377   0.533  1.0038 -1.7696 -0.6656
  942MOL0     H24311   5.793   9.374   0.352  3.3584  0.9444  0.7653
  942MOL0     H24312   5.601   9.537   0.351 -1.1598 -1.9724 -1.0768
  942MOL0     H24313   5.593   9.524   0.534 -0.9953 -2.6406  1.9271
  942MOL0     H24314   5.426   9.374   0.459  0.0209  2.3107 -0.3244
  942MOL0     H24315   5.571   9.269   0.481  0.2842 -1.6167 -1.7844
  942MOL0     H24316   5.478   9.395   0.225  0.1859 -0.0157  0.2264
  942MOL0     H24317   5.605   9.264   0.254  0.7570  1.6655  0.6326
  942MOL0     H24318   5.401   9.118   0.344 -0.5662 -0.9574  0.6674
  942MOL0     H24319   5.417   9.137   0.172  0.9532  1.0528  0.5036
  942MOL0     H24320   5.251   9.338   0.181 -1.2608 -0.1402  0.1614
  942MOL0     H24321   5.228   9.310   0.347 -0.3702 -1.3049  1.3202
  942MOL0     H24322   5.187   9.099   0.143 -2.5801 -0.1099 -0.7911
  942MOL0     H24323   5.161   9.080   0.322  0.9720  0.8199  0.4812
  942MOL0     H24324   4.967   9.233   0.321  0.4929 -0.2304  1.5331
  942MOL0     H24325   4.939   9.121   0.180 -0.1185  1.0701 -1.1952
  942MOL0     H24326   6.000   9.757   0.411  0.5044  0.4059 -2.4889
  942MOL0     H24327   6.237   9.755   0.429  1.1056 -0.3790  1.2828
  942MOL0     H24328   6.681   9.655   0.700 -2.2982 -0.7509  0.3973
  942MOL0     H24329   6.913   9.624   0.669  1.8283  0.7355 -1.4783
  942MOL0     H24330   9.012   9.615   0.782 -1.4822 -0.0056 -0.7534
  942MOL0     H24331   9.215   9.730   0.746  1.9888  0.6143  0.7787
  942MOL0     H24332   9.479   9.981   0.616 -0.7554  0.7907 -0.8184
  942MOL0     H24333   9.705  10.038   0.552  2.6546  1.4171  1.4348
  942MOL0     H24334   9.930  10.122   0.514  0.8077 -2.6283 -0.2183
  942MOL0     H24335   9.952  10.016   0.657  1.6043 -0.6856  0.0864
  942MOL0     H24336  10.106  10.177   0.753 -0.5630 -0.3545 -0.4547
  942MOL0     H24337  10.169  10.087   0.619  1.1951  0.4981 -0.1866
  942MOL0     H24338  10.231  10.314   0.642 -1.6608  0.6006  3.4204
  942MOL0     H24339  10.067  10.380   0.611 -0.1812  1.1939 -3.1852
  942MOL0     H24340  10.063  10.300   0.374 -1.1064  0.6915  1.0870
  942MOL0     H24341  10.200  10.412   0.414 -2.0178  1.7313  2.8372
  942MOL0     H24342  10.416  10.063   0.337 -0.9325 -0.7990  1.8375
  942MOL0     H24343   9.746  10.271   0.900  0.8560  0.0500 -1.3115
  942MOL0     H24344   9.519  10.237   0.966 -1.4410 -1.0548  1.4049
  943MOL0     O24345   6.367   0.346   3.529  0.7811  0.1281  0.2647
  943MOL0     C24346   6.384   0.461   3.577 -1.0017  0.3580  0.7908
  943MOL0     O24347   6.296   0.555   3.585 -0.1859  0.1902 -0.1264
  943MOL0     C24348   6.170   0.531   3.535 -0.7844  0.2319 -0.1135
  943MOL0     C24349   6.116   0.619   3.442 -0.0334 -0.6953 -0.5491
  943MOL0     C24350   5.986   0.605   3.391 -0.7444  0.7176  0.2495
  943MOL0     C24351   5.904   0.507   3.441  1.2047 -0.7137  0.2924
  943MOL0     O24352   5.773   0.508   3.400 -0.1525 -0.1935 -0.5503
  943MOL0     C24353   5.673   0.527   3.502  0.1005 -0.6642  0.0310
  943MOL0     C24354   5.542   0.465   3.438  0.1746  0.0071 -0.4555
  943MOL0     C24355   5.415   0.507   3.524  0.3380  0.0493  0.3781
  943MOL0     C24356   5.284   0.468   3.455 -0.1926  0.8667  0.2684
  943MOL0     C24357   5.161   0.527   3.518 -0.0348  0.1412  0.0650
  943MOL0     C24358   5.038   0.471   3.448 -0.5184  0.8257 -1.0186
  943MOL0     C24359   4.904   0.492   3.527  1.1962  0.1349  0.6401
  943MOL0     C24360   4.888   0.385   3.636 -0.3139 -0.3226 -0.5155
  943MOL0     N24361   4.759   0.392   3.707  0.0872 -0.1694  0.4534
  943MOL0     C24362   4.688   0.291   3.760 -0.1969  0.4793  0.0310
  943MOL0     C24363   4.576   0.343   3.814 -0.3104 -0.4947  0.7924
  943MOL0     C24364   4.479   0.262   3.885  0.3984  0.7901 -0.6329
  943MOL0     C24365   4.351   0.345   3.921  0.5211  0.5638  0.1322
  943MOL0     C24366   4.228   0.298   3.841 -0.2990  0.2003 -0.6900
  943MOL0     C24367   4.089   0.365   3.887  0.0240  1.3981 -0.0200
  943MOL0     O24368   4.050   0.342   4.019 -0.8689  0.3650  0.1967
  943MOL0     C24369   3.962   0.237   4.048 -1.1305  0.3353 -0.7194
  943MOL0     C24370   3.937   0.127   3.969  0.5164  0.4401  0.4517
  943MOL0     C24371   3.845   0.031   4.007  0.1482  0.3018  0.9931
  943MOL0     C24372   3.757   0.042   4.119 -0.7014 -0.8494  0.0241
  943MOL0     C24373   3.637  -0.041   4.139 -0.9802  0.5558 -0.4752
  943MOL0     O24374   3.626  -0.154   4.056 -0.4077 -0.3940  0.5222
  943MOL0     C24375   3.530  -0.246   4.073 -0.0848  0.0740  0.0772
  943MOL0     C24376   3.475  -0.290   3.952  0.1541 -0.9885  0.0055
  943MOL0     C24377   3.369  -0.394   3.959 -0.5413 -0.2790 -0.2018
  943MOL0     C24378   3.316  -0.440   4.074  0.2901  0.2700  1.2444
  943MOL0     O24379   3.219  -0.543   4.096 -0.5505  0.3176  0.3935
  943MOL0     C24380   3.151  -0.601   3.984  0.7080  0.1213 -0.1925
  943MOL0     C24381   3.051  -0.516   3.911  0.8270  0.1031  0.4354
  943MOL0     C24382   2.926  -0.480   3.994  0.8494 -0.3516 -0.1285
  943MOL0     C24383   2.841  -0.605   4.021  0.6906  0.1638  0.2080
  943MOL0     C24384   2.712  -0.586   4.101 -0.6515  0.2193  0.5876
  943MOL0     C24385   2.638  -0.710   4.142  0.5864  0.5432  0.1582
  943MOL0     C24386   2.509  -0.663   4.202  0.1582  1.5597 -1.2427
  943MOL0     C24387   2.456  -0.782   4.291  0.0233 -0.3194 -0.4104
  943MOL0    Cl24388   2.395  -0.915   4.190 -0.2803 -0.0886 -0.1942
  943MOL0     C24389   3.378  -0.400   4.191  0.3547 -0.8974 -0.1090
  943MOL0     C24390   3.479  -0.299   4.197 -0.4953 -0.5678  0.3389
  943MOL0     O24391   3.550   0.003   4.215 -0.5165  0.5959 -0.1532
  943MOL0     C24392   3.782   0.154   4.202 -0.1985 -0.5851  1.0084
  943MOL0     C24393   3.882   0.250   4.162  0.1381  0.6129 -0.8735
  943MOL0     N24394   4.581   0.476   3.779 -0.7994 -0.8194  0.6349
  943MOL0     N24395   4.682   0.503   3.717 -0.6336 -0.2840 -0.2815
  943MOL0     C24396   5.955   0.427   3.542 -0.4103  0.2925 -0.8165
  943MOL0     C24397   6.090   0.432   3.585  0.6125 -1.2085  0.4411
  943MOL0     C24398   6.531   0.502   3.593  0.0709  0.4660 -0.4125
  943MOL0     C24399   6.633   0.429   3.547 -0.5830 -0.1293 -0.3269
  943MOL0     C24400   6.770   0.471   3.559  0.0711 -0.0894 -0.2238
  943MOL0     C24401   6.803   0.596   3.613  0.5557  0.6294  0.3940
  943MOL0     O24402   6.922   0.659   3.621  0.3254 -0.0842  0.3043
  943MOL0     C24403   7.038   0.586   3.576  0.0718 -1.4009  0.5709
  943MOL0     C24404   7.088   0.490   3.674 -0.5287 -0.1747  0.7055
  943MOL0     C24405   7.195   0.555   3.768 -0.4978 -0.5981 -0.5214
  943MOL0     C24406   7.232   0.462   3.891  0.1070  1.2196 -1.0105
  943MOL0     C24407   7.327   0.528   3.977 -0.4601 -0.0480 -0.6725
  943MOL0     C24408   7.402   0.588   4.043 -0.0822 -1.1059  0.4193
  943MOL0     C24409   6.696   0.673   3.664  0.2357  0.0668  0.1776
  943MOL0     C24410   6.565   0.622   3.657 -0.0846 -0.1134  0.6061
  943MOL0     H24411   6.181   0.697   3.402  0.5688  0.4995  2.5189
  943MOL0     H24412   5.955   0.674   3.314 -0.5023 -0.0919 -0.5889
  943MOL0     H24413   5.672   0.634   3.525  1.7721 -0.1374 -2.0206
  943MOL0     H24414   5.693   0.468   3.592 -1.1566 -1.1832 -0.0061
  943MOL0     H24415   5.552   0.356   3.430  2.7644  0.1496 -0.0052
  943MOL0     H24416   5.528   0.502   3.336 -0.0029 -2.8474 -1.5651
  943MOL0     H24417   5.419   0.612   3.552  1.3879 -0.3183  1.7030
  943MOL0     H24418   5.425   0.452   3.619 -0.1681 -1.1755 -0.2468
  943MOL0     H24419   5.291   0.504   3.352  1.2038  1.1499  0.4371
  943MOL0     H24420   5.271   0.360   3.450  0.7113  0.7967 -0.8765
  943MOL0     H24421   5.166   0.635   3.498 -3.5184  0.0573 -2.1144
  943MOL0     H24422   5.164   0.509   3.626 -0.1125 -0.1571  0.0189
  943MOL0     H24423   5.052   0.366   3.421  0.2670  0.4983  0.5388
  943MOL0     H24424   5.021   0.522   3.353 -0.2992  4.0710  0.5275
  943MOL0     H24425   4.900   0.595   3.564 -0.3657 -0.3771  2.0488
  943MOL0     H24426   4.813   0.474   3.469  0.1512  1.1525  1.9020
  943MOL0     H24427   4.964   0.403   3.712  0.4093  0.5103 -1.4128
  943MOL0     H24428   4.906   0.284   3.596 -1.5778 -0.7277 -0.1023
  943MOL0     H24429   4.721   0.188   3.759  0.0955  0.5519 -1.5484
  943MOL0     H24430   4.519   0.229   3.981 -0.1051 -1.1151 -1.0316
  943MOL0     H24431   4.451   0.184   3.813 -1.0463 -0.2081  0.9361
  943MOL0     H24432   4.365   0.454   3.921 -1.4607  0.8572  0.7327
  943MOL0     H24433   4.338   0.329   4.029  1.2542 -0.4562  0.0729
  943MOL0     H24434   4.249   0.314   3.735 -1.3614  3.2079 -0.5279
  943MOL0     H24435   4.205   0.191   3.840 -0.0290  0.0940  1.1767
  943MOL0     H24436   4.014   0.329   3.816 -1.6019  0.2239  2.1746
  943MOL0     H24437   4.092   0.473   3.874  0.0788  1.4570  0.4590
  943MOL0     H24438   3.984   0.116   3.871 -0.9206 -0.9702 -0.1319
  943MOL0     H24439   3.831  -0.061   3.951  2.9580  1.3994 -1.8157
  943MOL0     H24440   3.515  -0.261   3.855 -1.8780  0.0961 -0.5793
  943MOL0     H24441   3.337  -0.413   3.858 -1.2253  1.1052 -0.2758
  943MOL0     H24442   3.089  -0.682   4.025 -2.2712  0.6978 -3.1673
  943MOL0     H24443   3.217  -0.645   3.908  0.4448  1.7061 -1.3960
  943MOL0     H24444   3.026  -0.552   3.811 -2.7758 -1.1649  1.6381
  943MOL0     H24445   3.113  -0.427   3.893  3.4407 -0.9010  3.5385
  943MOL0     H24446   2.867  -0.409   3.934 -1.5614 -2.5049 -0.4844
  943MOL0     H24447   2.952  -0.423   4.084 -2.4915  2.5349 -0.7548
  943MOL0     H24448   2.818  -0.646   3.922  0.5591 -0.8963  0.6644
  943MOL0     H24449   2.904  -0.670   4.081  2.4543  3.4583  2.1859
  943MOL0     H24450   2.651  -0.513   4.047 -1.4282  0.0551  1.2187
  943MOL0     H24451   2.735  -0.529   4.191  2.3314  0.4725 -0.2392
  943MOL0     H24452   2.700  -0.773   4.207 -0.8186 -0.8610  0.1935
  943MOL0     H24453   2.609  -0.770   4.055  1.7706 -1.0535  0.8049
  943MOL0     H24454   2.528  -0.576   4.266 -2.9536  0.1244  1.9704
  943MOL0     H24455   2.439  -0.630   4.125 -0.9805  0.8572 -0.5503
  943MOL0     H24456   2.373  -0.745   4.352  1.1177 -0.1160  1.0193
  943MOL0     H24457   2.539  -0.818   4.353  1.2648  2.4118 -0.3526
  943MOL0     H24458   3.349  -0.439   4.288  3.2059 -2.2095  0.3258
  943MOL0     H24459   3.522  -0.275   4.293  1.4660 -0.8530 -0.4275
  943MOL0     H24460   3.712   0.162   4.285 -1.0715  1.5911  0.1275
  943MOL0     H24461   3.893   0.343   4.218 -1.7041  0.1806  0.3131
  943MOL0     H24462   5.890   0.347   3.576 -0.4801  0.0321 -1.5470
  943MOL0     H24463   6.129   0.355   3.651  0.6341 -1.4398  0.1604
  943MOL0     H24464   6.616   0.340   3.488  1.8406 -1.2254  0.4977
  943MOL0     H24465   6.841   0.397   3.524 -0.9436 -0.2473 -2.0835
  943MOL0     H24466   7.111   0.666   3.555 -0.6462 -1.2754 -1.6897
  943MOL0     H24467   7.020   0.539   3.479 -0.4971  0.8897 -0.5140
  943MOL0     H24468   7.008   0.439   3.728 -0.0635 -0.9046  0.7160
  943MOL0     H24469   7.130   0.405   3.620 -2.1206  0.8129 -2.3259
  943MOL0     H24470   7.147   0.645   3.808 -1.2895 -0.3588 -1.9419
  943MOL0     H24471   7.282   0.586   3.709 -0.1880 -0.8663 -0.2142
  943MOL0     H24472   7.141   0.451   3.950  1.9230 -1.6926  1.5218
  943MOL0     H24473   7.262   0.362   3.857 -1.4785  0.4367 -0.2524
  943MOL0     H24474   7.470   0.637   4.111 -0.0282 -0.3732 -0.1550
  943MOL0     H24475   6.729   0.766   3.711  1.4507  0.0935 -0.6525
  943MOL0     H24476   6.496   0.685   3.713 -0.5323  0.0091 -0.0727
  944MOL0     O24477   5.953   3.929   8.795 -0.6537  0.3557  0.0482
  944MOL0     C24478   5.961   4.011   8.697 -0.1385  0.4064 -0.5313
  944MOL0     O24479   5.857   4.068   8.628 -0.8008 -0.0204  0.5371
  944MOL0     C24480   5.724   4.063   8.640  0.5165 -0.4767 -0.2335
  944MOL0     C24481   5.644   4.143   8.554  0.5997 -0.3541 -0.0583
  944MOL0     C24482   5.503   4.125   8.552 -0.1047 -0.2360 -0.9005
  944MOL0     C24483   5.443   4.028   8.634  0.7105 -0.5037  0.4370
  944MOL0     O24484   5.314   3.981   8.607 -0.1691 -0.6058 -0.1173
  944MOL0     C24485   5.252   4.026   8.487  0.6436  0.1407  0.2878
  944MOL0     C24486   5.111   3.962   8.480  1.6003  0.2021  0.3520
  944MOL0     C24487   5.022   4.013   8.366  0.3666 -1.0860  0.2277
  944MOL0     C24488   4.878   3.966   8.374  0.2186 -0.5676  0.3696
  944MOL0     C24489   4.788   4.056   8.294 -0.3090  0.1193 -0.3790
  944MOL0     C24490   4.645   3.997   8.287  0.5069  0.5284  0.4747
  944MOL0     C24491   4.536   4.089   8.222 -1.3822  0.1400  0.1496
  944MOL0     C24492   4.556   4.082   8.065  0.6600 -0.4134  0.0632
  944MOL0     N24493   4.433   4.112   7.995 -0.3243 -0.0121 -0.3022
  944MOL0     C24494   4.350   4.027   7.937  0.0633 -0.3314  0.6695
  944MOL0     C24495   4.241   4.099   7.887 -0.7651  0.1050  0.1555
  944MOL0     C24496   4.135   4.030   7.805 -0.1556 -0.5003 -0.4161
  944MOL0     C24497   4.004   4.028   7.873  0.0168 -0.1648 -0.9606
  944MOL0     C24498   3.926   3.916   7.813 -0.1272 -0.2407  1.0108
  944MOL0     C24499   3.869   3.946   7.667  0.6291  0.0440 -0.0417
  944MOL0     O24500   3.758   4.032   7.679 -0.0630  0.8592 -0.1981
  944MOL0     C24501   3.640   3.993   7.622 -0.0692  0.1971 -0.3612
  944MOL0     C24502   3.630   3.948   7.490 -0.0767 -0.8718 -0.0968
  944MOL0     C24503   3.517   3.914   7.423 -0.5115  0.0355  0.0004
  944MOL0     C24504   3.398   3.922   7.497 -0.2500  0.3573 -0.6782
  944MOL0     C24505   3.280   3.876   7.433 -0.5363  1.0777 -0.0439
  944MOL0     O24506   3.165   3.909   7.503  0.7632 -0.6641 -0.2063
  944MOL0     C24507   3.041   3.897   7.450  0.0933  0.0555 -0.3842
  944MOL0     C24508   2.952   3.973   7.515 -0.3929  0.7619 -0.5088
  944MOL0     C24509   2.810   3.975   7.468 -0.1309  0.8723  0.4738
  944MOL0     C24510   2.771   3.875   7.375  0.0801 -0.3452  0.9932
  944MOL0     O24511   2.636   3.868   7.326 -0.6086 -0.1543  0.0352
  944MOL0     C24512   2.534   3.955   7.370  0.5478 -0.2918  0.0882
  944MOL0     C24513   2.410   3.895   7.327  0.1928  0.3196 -0.3080
  944MOL0     C24514   2.287   3.974   7.374 -0.3213 -1.5093  0.5505
  944MOL0     C24515   2.157   3.934   7.313 -0.0044  0.7077  0.3866
  944MOL0     C24516   2.135   3.985   7.168  0.0046 -0.6944  0.0984
  944MOL0     C24517   1.988   3.940   7.129  1.0755  0.4026  0.2134
  944MOL0     C24518   1.930   3.993   7.002 -0.0552  0.0073 -0.3662
  944MOL0     C24519   1.826   3.905   6.950  0.6877  0.5331 -0.0183
  944MOL0    Cl24520   1.663   3.929   7.046 -0.1175  0.1639 -0.2278
  944MOL0     C24521   2.869   3.796   7.321  0.1213 -0.5300 -0.4862
  944MOL0     C24522   3.001   3.805   7.358 -0.0071  0.1604  1.0635
  944MOL0     O24523   3.294   3.801   7.330  0.9808  0.0307  0.5689
  944MOL0     C24524   3.396   3.964   7.629 -0.0656 -0.3450  0.3514
  944MOL0     C24525   3.518   3.993   7.695 -0.6543 -0.1090  1.1187
  944MOL0     N24526   4.270   4.233   7.905  0.3149 -0.7649  0.1252
  944MOL0     N24527   4.377   4.245   7.980 -0.4962  0.2243  1.0318
  944MOL0     C24528   5.517   3.956   8.718 -0.1512  0.1833  0.3171
  944MOL0     C24529   5.654   3.980   8.723  0.8664  0.5798 -0.7862
  944MOL0     C24530   6.095   4.057   8.657 -0.1938 -0.6895  0.1220
  944MOL0     C24531   6.210   3.978   8.701  0.1635 -0.8089  0.3964
  944MOL0     C24532   6.342   4.018   8.676 -0.0725 -0.6041  0.7180
  944MOL0     C24533   6.365   4.127   8.590  0.3393  0.1395 -1.1703
  944MOL0     O24534   6.487   4.162   8.541 -0.0358  0.3432 -0.7834
  944MOL0     C24535   6.608   4.108   8.596  0.1281  0.4809 -0.9357
  944MOL0     C24536   6.645   4.148   8.738 -0.0598 -0.5633 -0.6705
  944MOL0     C24537   6.636   4.299   8.768  0.6593  0.9010 -1.0517
  944MOL0     C24538   6.499   4.357   8.808  0.6627  0.2457  0.1003
  944MOL0     C24539   6.437   4.281   8.918  0.0756  0.3123 -0.1475
  944MOL0     C24540   6.384   4.219   9.011  0.7126 -0.3469 -0.7320
  944MOL0     C24541   6.259   4.189   8.533 -0.0739 -0.1778  0.5966
  944MOL0     C24542   6.125   4.164   8.571 -0.2999  0.1245  0.1080
  944MOL0     H24543   5.697   4.207   8.484 -1.5265  0.6463 -0.8527
  944MOL0     H24544   5.445   4.193   8.491 -0.6019 -0.7807 -1.0417
  944MOL0     H24545   5.304   4.001   8.394 -0.7106 -2.1568  0.0644
  944MOL0     H24546   5.236   4.134   8.480  1.2035  0.1225 -3.6048
  944MOL0     H24547   5.054   3.986   8.571 -0.1210  0.1866 -0.6757
  944MOL0     H24548   5.129   3.856   8.465  0.6921 -0.2507  2.2156
  944MOL0     H24549   5.068   3.978   8.273 -0.1145  1.7637 -1.2106
  944MOL0     H24550   5.023   4.123   8.359 -1.9554 -1.1452 -3.5575
  944MOL0     H24551   4.872   3.866   8.329  1.1833  0.7438 -2.9967
  944MOL0     H24552   4.838   3.969   8.475 -2.5196 -1.3281 -0.5878
  944MOL0     H24553   4.827   4.075   8.194 -1.1811 -1.2492 -1.0099
  944MOL0     H24554   4.784   4.154   8.342 -1.1246 -0.4047  0.6807
  944MOL0     H24555   4.617   3.975   8.391 -2.9719  1.8306 -0.0575
  944MOL0     H24556   4.643   3.905   8.227  0.6314  2.1927 -2.2433
  944MOL0     H24557   4.433   4.064   8.252 -1.1710  1.3577  2.0035
  944MOL0     H24558   4.542   4.192   8.257 -0.3686  0.3030 -0.4810
  944MOL0     H24559   4.592   3.982   8.041  0.6094 -0.7345  1.2272
  944MOL0     H24560   4.633   4.158   8.049  0.1592  0.4654  1.5416
  944MOL0     H24561   4.361   3.919   7.931 -0.2100 -0.3121 -0.5346
  944MOL0     H24562   4.167   3.926   7.800 -1.6360 -0.9142 -2.7567
  944MOL0     H24563   4.132   4.074   7.705  1.9713 -1.0809 -0.7855
  944MOL0     H24564   3.949   4.123   7.879  2.1418  1.0876 -0.3095
  944MOL0     H24565   4.016   3.994   7.976 -1.0287 -0.0842 -0.7988
  944MOL0     H24566   3.994   3.832   7.794  2.1511  1.7909 -0.4506
  944MOL0     H24567   3.853   3.863   7.875  0.1306 -0.8872  0.7766
  944MOL0     H24568   3.828   3.855   7.622 -2.4520  1.6284 -0.7130
  944MOL0     H24569   3.941   3.992   7.599 -0.3756  1.0336 -0.4547
  944MOL0     H24570   3.733   3.944   7.456  0.4653 -0.4291  1.3998
  944MOL0     H24571   3.519   3.887   7.318 -4.5662  1.5685 -0.6527
  944MOL0     H24572   2.992   4.035   7.595  0.3532 -1.4032  0.8652
  944MOL0     H24573   2.745   4.048   7.515 -0.9127 -0.8265  2.1570
  944MOL0     H24574   2.556   4.060   7.347  1.7884 -0.5150  0.1864
  944MOL0     H24575   2.537   3.948   7.479 -0.7937  1.4033  0.2627
  944MOL0     H24576   2.394   3.792   7.361 -2.4627  0.4779 -0.8741
  944MOL0     H24577   2.407   3.894   7.218  0.2365  0.7830 -0.3139
  944MOL0     H24578   2.302   4.078   7.344  0.5105 -1.7898 -0.0379
  944MOL0     H24579   2.278   3.982   7.483  0.0405 -0.3806  0.5154
  944MOL0     H24580   2.158   3.824   7.313  1.1619  0.6544 -2.3026
  944MOL0     H24581   2.078   3.975   7.376  2.1688  2.3347  2.2140
  944MOL0     H24582   2.208   3.943   7.098  0.9164 -0.5130  0.9201
  944MOL0     H24583   2.144   4.092   7.147  0.2573 -1.0390 -1.6872
  944MOL0     H24584   1.925   3.980   7.210  0.8532 -1.8525  1.2278
  944MOL0     H24585   1.983   3.831   7.133 -2.8599  0.3837 -0.3367
  944MOL0     H24586   1.893   4.095   7.017 -0.6885 -0.2990  0.2208
  944MOL0     H24587   2.009   3.993   6.926  1.4648  1.0978  1.1480
  944MOL0     H24588   1.856   3.800   6.948 -1.7554 -0.2295 -1.8562
  944MOL0     H24589   1.809   3.927   6.845 -3.0090 -0.8363  0.1239
  944MOL0     H24590   2.841   3.712   7.258 -1.1345 -0.0138 -0.6468
  944MOL0     H24591   3.063   3.728   7.314 -0.7210 -2.1285  3.7723
  944MOL0     H24592   3.298   3.980   7.673 -0.6990 -0.4713 -0.9774
  944MOL0     H24593   3.526   4.033   7.795  1.5297  0.5603  0.7302
  944MOL0     H24594   5.479   3.884   8.790 -1.9143 -0.7226 -1.4598
  944MOL0     H24595   5.715   3.918   8.788 -0.9511  0.8069  1.2287
  944MOL0     H24596   6.206   3.895   8.771 -0.4151 -3.4785 -2.6127
  944MOL0     H24597   6.428   3.966   8.716 -0.5691 -2.0110  0.0228
  944MOL0     H24598   6.684   4.166   8.544  1.7937  0.1964  1.0186
  944MOL0     H24599   6.613   4.002   8.568  0.5521 -0.0195  0.8899
  944MOL0     H24600   6.590   4.089   8.811 -0.3551 -3.6170 -3.1388
  944MOL0     H24601   6.751   4.120   8.741  0.4927  1.1252 -2.3913
  944MOL0     H24602   6.670   4.357   8.681  2.5798 -0.1721 -1.0559
  944MOL0     H24603   6.707   4.318   8.848 -0.6853  1.0891  0.1375
  944MOL0     H24604   6.504   4.461   8.841 -0.7391 -0.2007  1.8507
  944MOL0     H24605   6.427   4.358   8.726 -1.6109  0.0281  1.9651
  944MOL0     H24606   6.334   4.162   9.087 -3.0353  0.2052 -2.5963
  944MOL0     H24607   6.272   4.266   8.458  1.3439 -0.6764  0.3010
  944MOL0     H24608   6.048   4.233   8.539 -1.0364 -0.1114  1.3237
  945MOL0     O24609   4.469  11.019   2.662 -0.3248 -0.6408  0.4886
  945MOL0     C24610   4.532  11.019   2.770 -0.1958 -0.3552  0.1551
  945MOL0     O24611   4.464  11.027   2.883  0.0921  0.1049  0.0852
  945MOL0     C24612   4.328  11.036   2.884 -0.7834 -0.1046 -0.5721
  945MOL0     C24613   4.272  10.914   2.852  0.0166 -0.7508 -0.0542
  945MOL0     C24614   4.134  10.915   2.840  0.4908  0.4425  0.5995
  945MOL0     C24615   4.059  11.033   2.869  0.6874 -1.2890 -0.2313
  945MOL0     O24616   3.923  11.042   2.855  0.4282  0.1516  0.5686
  945MOL0     C24617   3.837  10.925   2.869  0.0607  0.1448  0.8175
  945MOL0     C24618   3.785  10.872   2.734  0.5196 -0.6127 -0.1215
  945MOL0     C24619   3.680  10.767   2.762  0.2034  0.6060  0.0920
  945MOL0     C24620   3.544  10.810   2.807 -0.6240 -0.3115  0.0508
  945MOL0     C24621   3.441  10.696   2.819 -0.4786  0.1822  0.5088
  945MOL0     C24622   3.293  10.729   2.802 -0.6812  0.0444 -0.3405
  945MOL0     C24623   3.223  10.590   2.794  0.9510  0.1264 -0.2947
  945MOL0     C24624   3.068  10.598   2.788  0.1653  0.5464 -0.8467
  945MOL0     N24625   3.022  10.721   2.726  0.3402 -0.2025  0.3317
  945MOL0     C24626   3.047  10.756   2.592 -0.0738  0.2784 -0.4677
  945MOL0     C24627   2.991  10.883   2.585  0.2467 -0.6200 -0.6390
  945MOL0     C24628   2.980  10.963   2.460  0.0965  0.4052  0.0612
  945MOL0     C24629   3.096  11.060   2.446  0.3451  0.2749 -0.8261
  945MOL0     C24630   3.219  10.998   2.371  0.2520 -1.0115 -0.0445
  945MOL0     C24631   3.339  11.094   2.364 -0.1222  0.0590  0.4566
  945MOL0     O24632   3.404  11.097   2.486 -0.1665 -1.1504 -0.4007
  945MOL0     C24633   3.529  11.156   2.492  0.9183 -0.0859 -0.5422
  945MOL0     C24634   3.593  11.215   2.381  0.3623  0.0172 -0.0987
  945MOL0     C24635   3.719  11.277   2.396 -0.1025 -0.1966  0.5065
  945MOL0     C24636   3.772  11.289   2.528 -0.1537 -0.3765  0.1201
  945MOL0     C24637   3.899  11.367   2.545  0.1796 -0.8417 -0.2927
  945MOL0     O24638   3.908  11.422   2.666 -0.4379 -0.3695 -0.3029
  945MOL0     C24639   4.027  11.480   2.684 -0.9045  0.0061  0.1485
  945MOL0     C24640   4.027  11.611   2.738 -0.0865  0.0271  0.2838
  945MOL0     C24641   4.155  11.669   2.768  0.7945 -0.7502 -0.2528
  945MOL0     C24642   4.276  11.604   2.758  0.5873 -0.1929  0.1591
  945MOL0     O24643   4.394  11.669   2.802 -0.0362 -0.4928 -0.3167
  945MOL0     C24644   4.435  11.638   2.936  0.1550  0.9302  1.4765
  945MOL0     C24645   4.579  11.637   2.967 -0.1448  1.0830  0.3977
  945MOL0     C24646   4.666  11.545   2.875  0.2067 -0.0650 -0.3297
  945MOL0     C24647   4.816  11.568   2.890 -0.4140 -0.2589 -0.0804
  945MOL0     C24648   4.892  11.486   2.788  0.4266  0.3374  0.0354
  945MOL0     C24649   5.039  11.499   2.822  0.4283 -0.3031  0.1207
  945MOL0     C24650   5.138  11.441   2.718 -0.1130  0.2450 -0.0376
  945MOL0     C24651   5.163  11.289   2.745  0.2370  0.1192 -0.2458
  945MOL0    Cl24652   5.251  11.216   2.607 -0.0262  0.0485 -0.0908
  945MOL0     C24653   4.273  11.479   2.701 -0.3389  0.9417 -1.0435
  945MOL0     C24654   4.152  11.417   2.665  0.0162  0.2041  0.1550
  945MOL0     O24655   3.967  11.406   2.450 -1.3433  0.7359 -0.5704
  945MOL0     C24656   3.703  11.232   2.634 -1.0122 -0.2515  0.5544
  945MOL0     C24657   3.591  11.155   2.614  0.1579 -0.0243  0.4903
  945MOL0     N24658   2.939  10.916   2.712 -0.4724  0.8886 -0.1714
  945MOL0     N24659   2.951  10.816   2.793  0.1176 -0.2606  0.7236
  945MOL0     C24660   4.125  11.157   2.891  0.0874 -0.2759  0.1730
  945MOL0     C24661   4.258  11.161   2.903  0.1759  0.0041  0.5487
  945MOL0     C24662   4.678  11.015   2.782  0.7381  0.0112  0.1352
  945MOL0     C24663   4.747  11.038   2.903  0.3327  0.2568 -0.2609
  945MOL0     C24664   4.878  11.005   2.917  0.7790 -0.5565  0.2234
  945MOL0     C24665   4.957  10.972   2.808  0.2807  0.1662 -0.3813
  945MOL0     O24666   5.088  10.968   2.837  0.2577 -0.2668 -0.5461
  945MOL0     C24667   5.169  10.882   2.751 -1.2967 -0.2557 -0.1728
  945MOL0     C24668   5.274  10.801   2.841 -0.5255  1.2327 -0.1240
  945MOL0     C24669   5.404  10.887   2.869  0.5639  0.2949  0.3799
  945MOL0     C24670   5.501  10.822   2.984  0.1504 -0.0201  1.5503
  945MOL0     C24671   5.631  10.898   2.988  0.0565 -0.0296  0.1755
  945MOL0     C24672   5.738  10.960   2.988  0.6498 -0.2529 -0.2945
  945MOL0     C24673   4.901  10.963   2.681 -0.4621  1.2714  0.1947
  945MOL0     C24674   4.754  10.979   2.666 -0.3641  0.3337 -1.2153
  945MOL0     H24675   4.329  10.827   2.822 -0.2670 -1.2207  0.7336
  945MOL0     H24676   4.086  10.822   2.810 -1.1690  1.8654 -1.4468
  945MOL0     H24677   3.758  10.953   2.940 -0.5645  0.7901 -0.1029
  945MOL0     H24678   3.879  10.839   2.922 -3.6721 -4.4379 -2.7160
  945MOL0     H24679   3.872  10.835   2.679 -0.5078  1.7056 -3.6556
  945MOL0     H24680   3.737  10.950   2.675  1.1910 -0.2877 -0.2530
  945MOL0     H24681   3.724  10.694   2.831  0.7255  1.3460  0.5662
  945MOL0     H24682   3.668  10.708   2.671 -0.9089  2.2341 -0.8650
  945MOL0     H24683   3.537  10.865   2.901  0.7396  0.6049 -0.3541
  945MOL0     H24684   3.516  10.879   2.727 -0.2470  1.8187  1.6763
  945MOL0     H24685   3.466  10.631   2.903  1.5681  1.7396  1.1853
  945MOL0     H24686   3.469  10.627   2.739 -1.1926 -0.5274  0.8549
  945MOL0     H24687   3.278  10.789   2.712  0.9427  1.2172  0.1305
  945MOL0     H24688   3.260  10.787   2.889  1.2007  2.5138 -1.1607
  945MOL0     H24689   3.273  10.540   2.710  1.6109  0.0412  0.1415
  945MOL0     H24690   3.253  10.526   2.877  0.9590  1.3699  0.6964
  945MOL0     H24691   3.032  10.588   2.891 -2.2285  0.7117 -1.6134
  945MOL0     H24692   3.031  10.514   2.728  0.8919 -0.9827  0.7499
  945MOL0     H24693   3.110  10.708   2.518  1.1214  3.2580 -1.5431
  945MOL0     H24694   2.884  11.015   2.463 -0.1775 -0.0405 -0.6460
  945MOL0     H24695   2.978  10.893   2.376 -0.2017 -0.7838  1.0317
  945MOL0     H24696   3.146  11.091   2.538  1.0546 -1.7244 -0.4723
  945MOL0     H24697   3.068  11.153   2.397 -0.6234  0.9133  0.8649
  945MOL0     H24698   3.244  10.904   2.421  2.1400  1.0604  3.3528
  945MOL0     H24699   3.184  10.991   2.268  0.7540  2.8635 -0.6545
  945MOL0     H24700   3.298  11.191   2.332 -1.0640 -1.1416 -2.2791
  945MOL0     H24701   3.408  11.064   2.285  0.3385  0.6831  0.6179
  945MOL0     H24702   3.556  11.212   2.278  3.1124 -2.4103 -1.1762
  945MOL0     H24703   3.775  11.325   2.316  2.3841  1.5082  3.0676
  945MOL0     H24704   3.936  11.670   2.750  1.6006  2.4002  2.7388
  945MOL0     H24705   4.150  11.761   2.826  0.6494 -1.1536  0.3932
  945MOL0     H24706   4.386  11.543   2.960  2.6891 -0.1948  2.6373
  945MOL0     H24707   4.397  11.718   2.999 -0.6651  0.4894  1.5536
  945MOL0     H24708   4.593  11.603   3.070 -1.0693  0.7759  0.4267
  945MOL0     H24709   4.619  11.738   2.951  1.9745  0.2005 -0.1626
  945MOL0     H24710   4.631  11.568   2.774 -0.2694  1.2868  0.1276
  945MOL0     H24711   4.649  11.439   2.895 -0.8439  0.1785  0.1832
  945MOL0     H24712   4.838  11.675   2.881 -1.8241 -0.0228 -1.0543
  945MOL0     H24713   4.841  11.542   2.993  0.7145  0.4086 -0.1683
  945MOL0     H24714   4.865  11.517   2.687 -0.9651  2.2854  0.9300
  945MOL0     H24715   4.861  11.382   2.803 -0.7305  0.2643 -2.3701
  945MOL0     H24716   5.058  11.457   2.922  1.4465 -0.0079  0.0669
  945MOL0     H24717   5.060  11.606   2.835  2.9423 -0.9937  3.0994
  945MOL0     H24718   5.100  11.466   2.619  2.1905  1.6930 -0.6386
  945MOL0     H24719   5.229  11.501   2.721  0.2396 -0.2665 -0.3323
  945MOL0     H24720   5.060  11.252   2.752 -0.6843  2.3420 -0.8984
  945MOL0     H24721   5.210  11.271   2.842 -2.4246  1.2799  1.3911
  945MOL0     H24722   4.369  11.430   2.690  0.6311  2.3093  0.9338
  945MOL0     H24723   4.160  11.322   2.614 -0.0154  0.5368 -0.4801
  945MOL0     H24724   3.742  11.249   2.734  0.8189  0.3353 -0.2054
  945MOL0     H24725   3.533  11.120   2.699 -1.8778 -0.2070 -0.8804
  945MOL0     H24726   4.056  11.240   2.896 -1.6335 -1.2959 -3.1283
  945MOL0     H24727   4.303  11.260   2.913  0.2932  0.1541 -1.1811
  945MOL0     H24728   4.699  11.073   2.994  1.1339 -0.4495  0.4496
  945MOL0     H24729   4.909  11.023   3.019 -0.4040  1.8041  0.2334
  945MOL0     H24730   5.216  10.936   2.668 -3.1259 -1.7712 -2.3248
  945MOL0     H24731   5.108  10.803   2.706  0.4465 -0.8681 -1.5749
  945MOL0     H24732   5.221  10.764   2.929 -3.6867  1.7030 -1.6871
  945MOL0     H24733   5.310  10.713   2.787 -0.5338 -0.1908  2.0736
  945MOL0     H24734   5.384  10.983   2.916 -0.5691 -0.6004  1.7961
  945MOL0     H24735   5.457  10.890   2.773 -0.5005 -1.1311 -0.2843
  945MOL0     H24736   5.455  10.833   3.083  0.9154  1.0727  1.8067
  945MOL0     H24737   5.527  10.723   2.948 -2.0387  0.8588 -3.2290
  945MOL0     H24738   5.839  10.993   2.997  0.9104  0.1179 -3.5925
  945MOL0     H24739   4.965  10.939   2.597 -1.1827 -0.0150 -0.0165
  945MOL0     H24740   4.702  10.955   2.574 -2.1910 -0.9866  0.0940
  946MOL0     O24741   8.857   6.779   8.177  0.2589 -0.2101  0.4779
  946MOL0     C24742   8.903   6.712   8.088  0.3933  0.6368  0.4531
  946MOL0     O24743   8.829   6.627   8.000  0.8135  0.2944 -0.4801
  946MOL0     C24744   8.688   6.621   8.015 -0.1944  0.7513 -0.6256
  946MOL0     C24745   8.626   6.498   8.000 -0.7569 -0.1717 -0.0557
  946MOL0     C24746   8.493   6.479   8.008 -0.2530  0.6999 -0.8170
  946MOL0     C24747   8.410   6.583   8.031 -0.0823  0.1677  0.6216
  946MOL0     O24748   8.269   6.576   8.055 -1.0002  0.3520 -0.3785
  946MOL0     C24749   8.219   6.519   8.177 -0.4288  0.2717  0.0109
  946MOL0     C24750   8.160   6.371   8.163  0.3714 -0.4277 -0.1517
  946MOL0     C24751   8.012   6.363   8.186  0.1571 -0.1878 -0.1054
  946MOL0     C24752   7.959   6.214   8.196  0.4449  0.8598  0.1910
  946MOL0     C24753   7.911   6.169   8.058  0.9252 -0.2539  0.0257
  946MOL0     C24754   7.860   6.024   8.063  0.7699  0.0867  0.3106
  946MOL0     C24755   7.733   6.008   8.138  0.1252 -0.3008  0.5265
  946MOL0     C24756   7.635   5.927   8.056  0.3426  0.2315 -0.4726
  946MOL0     N24757   7.593   5.985   7.925 -0.0387 -0.2448  0.0905
  946MOL0     C24758   7.607   6.120   7.897  0.4599  0.0039  0.3031
  946MOL0     C24759   7.567   6.130   7.768  0.6566 -0.2654 -0.2446
  946MOL0     C24760   7.541   6.260   7.701 -0.2784  0.0672 -0.1986
  946MOL0     C24761   7.388   6.321   7.722  0.5179  0.7275 -0.2383
  946MOL0     C24762   7.284   6.254   7.625 -0.5165  0.8862  0.7432
  946MOL0     C24763   7.137   6.260   7.664  0.3319  0.9287 -0.3088
  946MOL0     O24764   7.053   6.190   7.564  0.0941  0.3032 -0.3003
  946MOL0     C24765   6.918   6.186   7.584 -0.1028  0.5064  0.5185
  946MOL0     C24766   6.853   6.247   7.692 -1.0045 -0.0278  0.2406
  946MOL0     C24767   6.718   6.255   7.718  0.3802 -0.2946  0.1560
  946MOL0     C24768   6.631   6.189   7.629 -0.1774  1.0495 -0.7814
  946MOL0     C24769   6.483   6.172   7.646  0.7037 -0.7589 -0.1316
  946MOL0     O24770   6.412   6.097   7.560  0.2986 -0.4272 -0.4836
  946MOL0     C24771   6.271   6.072   7.563 -0.0183 -0.5687 -0.1805
  946MOL0     C24772   6.188   6.083   7.674 -0.3923  0.1379 -0.3339
  946MOL0     C24773   6.057   6.032   7.668 -0.6289  0.5491 -0.5189
  946MOL0     C24774   6.006   5.982   7.546 -0.2823 -0.6271 -0.4527
  946MOL0     O24775   5.874   5.941   7.545  0.1156 -0.8435 -0.5171
  946MOL0     C24776   5.809   6.028   7.457  1.1535  0.5212 -0.4792
  946MOL0     C24777   5.660   6.032   7.484 -0.0704 -0.6888 -0.0509
  946MOL0     C24778   5.591   5.901   7.445  0.2580 -0.5450 -0.7418
  946MOL0     C24779   5.440   5.905   7.460  0.5251 -0.7044  0.3615
  946MOL0     C24780   5.379   5.780   7.403  0.9800  1.0064  0.6325
  946MOL0     C24781   5.228   5.796   7.384  0.6699 -0.5967 -0.0754
  946MOL0     C24782   5.160   5.660   7.349 -0.0698 -0.5015  0.4676
  946MOL0     C24783   5.009   5.664   7.324  0.1269  0.1635 -0.1620
  946MOL0    Cl24784   4.927   5.698   7.477  0.4346 -0.2230 -0.3132
  946MOL0     C24785   6.092   5.969   7.433  0.4555 -0.3657 -0.2299
  946MOL0     C24786   6.223   6.017   7.449  0.3071 -0.4287  0.0379
  946MOL0     O24787   6.436   6.236   7.738 -0.6004  0.2252 -0.3527
  946MOL0     C24788   6.692   6.113   7.514 -0.2968  0.1130 -0.2365
  946MOL0     C24789   6.835   6.120   7.500 -0.6443 -0.1244  0.7386
  946MOL0     N24790   7.535   6.002   7.727  0.2847  0.9650  0.2448
  946MOL0     N24791   7.549   5.918   7.821  0.3476 -0.3656 -0.4234
  946MOL0     C24792   8.466   6.713   8.027 -0.1521  0.1574 -0.6942
  946MOL0     C24793   8.599   6.730   8.013 -0.7055  0.0948 -0.4113
  946MOL0     C24794   9.046   6.692   8.084  0.0873 -0.4517  0.1826
  946MOL0     C24795   9.134   6.795   8.123  1.0317 -0.1997  0.5857
  946MOL0     C24796   9.268   6.789   8.072  0.0949  0.1792  0.2123
  946MOL0     C24797   9.324   6.676   8.004  0.4525 -0.5311 -0.6296
  946MOL0     O24798   9.456   6.655   7.972  0.5994 -0.7505 -0.0274
  946MOL0     C24799   9.531   6.773   7.951  0.4323 -0.1405  0.2058
  946MOL0     C24800   9.661   6.745   7.866 -0.4776 -0.1608  0.0346
  946MOL0     C24801   9.729   6.877   7.831 -0.4617  0.4676  0.4249
  946MOL0     C24802   9.846   6.853   7.734 -0.6885 -0.3046 -0.0004
  946MOL0     C24803   9.820   6.788   7.597 -0.6860  0.4525 -0.2724
  946MOL0     C24804   9.807   6.733   7.486  0.0259 -0.0190  0.3220
  946MOL0     C24805   9.234   6.572   7.980 -1.0603  1.2852 -0.1349
  946MOL0     C24806   9.103   6.582   8.017 -0.6985  0.5342  0.1541
  946MOL0     H24807   8.700   6.418   7.992 -1.2953 -1.1143  3.1208
  946MOL0     H24808   8.450   6.379   8.008 -0.4445  0.6970  1.9836
  946MOL0     H24809   8.149   6.591   8.220  0.8294  0.1832  2.3983
  946MOL0     H24810   8.305   6.512   8.244  0.1085 -2.1000 -0.8157
  946MOL0     H24811   8.215   6.296   8.221 -0.5940  0.1711  1.6282
  946MOL0     H24812   8.173   6.338   8.060 -3.0424 -0.5895 -0.6205
  946MOL0     H24813   7.968   6.421   8.104 -1.9995 -0.3312  0.8748
  946MOL0     H24814   7.990   6.408   8.283 -2.2882  2.2979 -1.6684
  946MOL0     H24815   8.033   6.142   8.234  0.4868 -0.9679 -2.9769
  946MOL0     H24816   7.871   6.211   8.261 -2.4078 -5.2372 -3.0796
  946MOL0     H24817   7.999   6.187   7.995 -0.7163  2.5472 -1.7017
  946MOL0     H24818   7.836   6.239   8.021 -1.2528 -2.3419  0.2447
  946MOL0     H24819   7.932   5.966   8.122  0.0583  0.0372  1.1540
  946MOL0     H24820   7.856   5.981   7.963  1.5197 -1.1105  0.7668
  946MOL0     H24821   7.752   5.960   8.234  0.6934 -0.3361  0.4003
  946MOL0     H24822   7.688   6.105   8.163  0.1531  1.2260 -4.3199
  946MOL0     H24823   7.551   5.911   8.123 -1.3617  3.1840 -1.7148
  946MOL0     H24824   7.683   5.830   8.040 -3.8525 -2.0931 -0.2267
  946MOL0     H24825   7.644   6.199   7.963  1.9623  1.0918 -1.7246
  946MOL0     H24826   7.582   6.250   7.601  1.0488 -2.0790  0.4911
  946MOL0     H24827   7.611   6.335   7.740  2.3919 -1.0951 -2.4656
  946MOL0     H24828   7.389   6.424   7.683 -1.8390  1.1336  0.5842
  946MOL0     H24829   7.364   6.320   7.829  2.2029 -1.7982  0.1940
  946MOL0     H24830   7.289   6.297   7.524 -0.2013 -1.8910 -0.5021
  946MOL0     H24831   7.311   6.149   7.615  2.3065  1.5425  0.4973
  946MOL0     H24832   7.108   6.365   7.657 -1.7372  0.4193 -0.0499
  946MOL0     H24833   7.133   6.240   7.771 -0.9182 -0.4821 -0.5829
  946MOL0     H24834   6.903   6.299   7.773 -0.8492  1.4183 -0.7410
  946MOL0     H24835   6.668   6.320   7.789 -0.2541  1.0875 -1.4890
  946MOL0     H24836   6.228   6.123   7.767 -2.3212  0.4189  0.4393
  946MOL0     H24837   5.993   6.034   7.756  0.2159  0.9787  0.0955
  946MOL0     H24838   5.816   5.989   7.355  0.0929 -2.6018  0.5411
  946MOL0     H24839   5.853   6.128   7.449 -1.4151  1.6457 -1.6825
  946MOL0     H24840   5.614   6.102   7.413 -3.0180 -3.8334 -1.5199
  946MOL0     H24841   5.640   6.050   7.590  2.4805 -2.0666  0.7549
  946MOL0     H24842   5.621   5.819   7.512  0.4327 -0.0180 -0.1657
  946MOL0     H24843   5.623   5.873   7.345  0.4920 -2.2639 -0.2184
  946MOL0     H24844   5.413   5.924   7.564 -3.3543  2.7217 -0.9677
  946MOL0     H24845   5.407   5.984   7.391  0.6188 -2.0059 -1.2220
  946MOL0     H24846   5.399   5.703   7.478 -1.9409  0.1036  0.6080
  946MOL0     H24847   5.418   5.755   7.303 -1.1167  0.1661 -0.0173
  946MOL0     H24848   5.208   5.863   7.300  3.0193  0.3255  0.0204
  946MOL0     H24849   5.185   5.838   7.475  0.4877  1.9519 -1.2544
  946MOL0     H24850   5.210   5.618   7.261 -1.7213  0.0597 -0.8023
  946MOL0     H24851   5.176   5.595   7.435 -0.9797 -0.2913  0.8078
  946MOL0     H24852   4.977   5.566   7.287  0.2030  0.5595 -1.3346
  946MOL0     H24853   4.985   5.743   7.251 -0.8438 -0.9637 -1.1148
  946MOL0     H24854   6.046   5.929   7.343 -1.1264  1.4475 -0.2824
  946MOL0     H24855   6.288   5.996   7.365  1.2601 -2.6645  1.2509
  946MOL0     H24856   6.632   6.061   7.440  1.3424 -3.5504  0.7656
  946MOL0     H24857   6.883   6.066   7.419 -1.9181 -1.2155  0.6818
  946MOL0     H24858   8.410   6.806   8.025  2.2881  1.8085  1.4588
  946MOL0     H24859   8.647   6.827   8.004 -3.1420  1.3808 -0.2098
  946MOL0     H24860   9.104   6.879   8.186  2.1591  1.2954 -0.7778
  946MOL0     H24861   9.340   6.866   8.099  1.9935 -0.2741 -3.0382
  946MOL0     H24862   9.549   6.819   8.049  1.0918  0.1931 -0.0671
  946MOL0     H24863   9.464   6.841   7.897  0.0678  0.3093  1.2033
  946MOL0     H24864   9.736   6.679   7.911  0.6785  1.1551  0.1170
  946MOL0     H24865   9.628   6.705   7.769 -2.7777 -1.3899  1.2529
  946MOL0     H24866   9.769   6.916   7.926 -0.2121 -1.5985  1.2135
  946MOL0     H24867   9.643   6.936   7.799 -0.5586 -0.3570 -0.9312
  946MOL0     H24868   9.905   6.944   7.718  1.1015 -0.9128  2.5327
  946MOL0     H24869   9.916   6.776   7.768  0.5069 -0.3970 -2.4548
  946MOL0     H24870   9.799   6.678   7.394  0.1097  1.2632 -0.4760
  946MOL0     H24871   9.262   6.480   7.929 -1.7975  0.1736  1.3733
  946MOL0     H24872   9.043   6.496   7.992  1.6356 -0.4815 -2.3896
  947MOL0     O24873   5.912   2.956   1.890 -0.3682 -0.7521 -0.3724
  947MOL0     C24874   5.914   3.026   1.790 -0.1322 -0.5664 -0.1403
  947MOL0     O24875   5.809   3.069   1.726  0.5694  0.2905  0.5675
  947MOL0     C24876   5.684   2.999   1.741  0.1434  0.8736  0.1857
  947MOL0     C24877   5.573   3.078   1.714 -0.2917 -1.1721 -0.1885
  947MOL0     C24878   5.441   3.034   1.725 -0.9282  0.3547 -0.2127
  947MOL0     C24879   5.428   2.905   1.782  0.4609  0.7284  0.7498
  947MOL0     O24880   5.291   2.859   1.783  0.4135 -0.4498  0.9321
  947MOL0     C24881   5.262   2.789   1.904  0.0952 -0.9993  0.6840
  947MOL0     C24882   5.114   2.785   1.918  0.2162  0.8522  0.7866
  947MOL0     C24883   5.060   2.678   2.026  0.2211 -0.8877  0.4687
  947MOL0     C24884   4.917   2.707   2.076  0.0579 -1.0242 -0.7079
  947MOL0     C24885   4.855   2.611   2.172 -0.8141 -0.1407  0.1922
  947MOL0     C24886   4.949   2.591   2.299  0.0229  0.6501  0.7219
  947MOL0     C24887   4.905   2.457   2.371  0.0157 -0.3960 -0.2348
  947MOL0     C24888   4.761   2.448   2.419 -0.0435  0.0412  0.1607
  947MOL0     N24889   4.711   2.563   2.496  0.1847 -0.1584  0.0353
  947MOL0     C24890   4.764   2.601   2.616  1.3795 -0.7555  0.0804
  947MOL0     C24891   4.658   2.667   2.671 -0.1541 -0.3963 -0.4323
  947MOL0     C24892   4.627   2.725   2.815  0.3573 -0.2985  0.0887
  947MOL0     C24893   4.553   2.613   2.896 -0.2396 -0.2584 -0.0227
  947MOL0     C24894   4.648   2.506   2.952 -0.7508  0.3833 -0.4724
  947MOL0     C24895   4.585   2.388   3.020  0.3348  1.0783  0.8249
  947MOL0     O24896   4.516   2.404   3.143 -1.1800 -0.4335  0.2453
  947MOL0     C24897   4.387   2.446   3.134  0.8229 -0.2698 -0.8420
  947MOL0     C24898   4.298   2.436   3.025  0.2002  0.0735 -0.2811
  947MOL0     C24899   4.161   2.478   3.050  0.4295 -0.4577  0.0420
  947MOL0     C24900   4.118   2.528   3.173 -0.1313 -0.7473  0.1908
  947MOL0     C24901   3.978   2.575   3.192 -0.1712  1.1530 -0.4843
  947MOL0     O24902   3.882   2.535   3.095  0.3053 -0.2452 -0.3584
  947MOL0     C24903   3.754   2.582   3.119 -0.1139 -0.4046  1.0218
  947MOL0     C24904   3.654   2.482   3.129 -0.2312 -0.0803  0.7699
  947MOL0     C24905   3.528   2.514   3.159  0.4480  0.1723  0.5121
  947MOL0     C24906   3.506   2.657   3.170 -0.2531  0.1825  0.2331
  947MOL0     O24907   3.370   2.688   3.193  0.4562 -0.5229 -0.0982
  947MOL0     C24908   3.341   2.814   3.257 -0.2456 -0.2324  0.0932
  947MOL0     C24909   3.202   2.815   3.316 -0.2246 -1.3692 -0.4025
  947MOL0     C24910   3.094   2.830   3.216 -0.3141  0.1573  0.6727
  947MOL0     C24911   2.956   2.847   3.271 -0.2640  0.2595 -0.9961
  947MOL0     C24912   2.850   2.831   3.163 -1.3726 -0.6720  0.0960
  947MOL0     C24913   2.710   2.883   3.191  1.3118  0.1736 -0.8330
  947MOL0     C24914   2.630   2.811   3.300 -0.2416 -0.6169 -0.6215
  947MOL0     C24915   2.484   2.878   3.308 -0.5941 -0.0807  0.1982
  947MOL0    Cl24916   2.377   2.801   3.436  0.0456  0.3944 -0.3216
  947MOL0     C24917   3.602   2.754   3.150 -0.8020 -0.4413  0.3056
  947MOL0     C24918   3.728   2.714   3.107 -0.3284  0.1409  0.0672
  947MOL0     O24919   3.945   2.641   3.293  0.7280 -0.1053  0.0870
  947MOL0     C24920   4.212   2.527   3.281  0.1304 -0.9028  0.3141
  947MOL0     C24921   4.342   2.483   3.266  0.2387 -0.3020 -0.0753
  947MOL0     N24922   4.552   2.673   2.581 -0.1676  0.5410  0.2615
  947MOL0     N24923   4.587   2.610   2.479 -0.1042 -1.4994  0.4261
  947MOL0     C24924   5.536   2.824   1.825  0.3636  0.0905  0.1194
  947MOL0     C24925   5.662   2.878   1.805  0.4190  0.3304  0.3637
  947MOL0     C24926   6.048   3.075   1.753  0.4241 -0.6465  1.1847
  947MOL0     C24927   6.072   3.196   1.680 -0.8874 -0.9641  0.4195
  947MOL0     C24928   6.203   3.240   1.656 -0.5691 -0.0500 -0.9050
  947MOL0     C24929   6.315   3.171   1.689 -0.2706  0.1464  0.1431
  947MOL0     O24930   6.439   3.238   1.682  0.4719  0.2566 -0.1657
  947MOL0     C24931   6.548   3.143   1.685 -0.4365  0.2193 -0.5226
  947MOL0     C24932   6.675   3.228   1.676 -0.1307 -0.5409 -0.3450
  947MOL0     C24933   6.798   3.138   1.669 -0.6831  0.2684  0.0623
  947MOL0     C24934   6.924   3.225   1.641  0.5090  0.5022 -0.0648
  947MOL0     C24935   7.047   3.169   1.696  0.0410 -0.0167  0.4012
  947MOL0     C24936   7.157   3.130   1.714 -1.3116 -0.3080  0.2734
  947MOL0     C24937   6.290   3.047   1.750 -0.8512  0.3805  0.1771
  947MOL0     C24938   6.162   3.002   1.784 -0.0547 -0.4836  0.4854
  947MOL0     H24939   5.584   3.179   1.674  1.5766 -0.4615  1.9254
  947MOL0     H24940   5.355   3.088   1.687 -0.5322  3.2627  2.5967
  947MOL0     H24941   5.303   2.851   1.984 -0.9410 -0.7335  1.0165
  947MOL0     H24942   5.302   2.688   1.887 -1.6235 -1.4057 -1.3895
  947MOL0     H24943   5.070   2.756   1.823 -2.2323  0.9543  1.8084
  947MOL0     H24944   5.089   2.888   1.945  1.3989  0.8893  1.8466
  947MOL0     H24945   5.131   2.698   2.107 -2.1652  0.6792  2.3043
  947MOL0     H24946   5.069   2.579   1.981  2.4390  0.2913 -1.9598
  947MOL0     H24947   4.911   2.809   2.114 -0.8646  0.3442 -4.1379
  947MOL0     H24948   4.855   2.707   1.986  0.1674  2.3607 -0.8922
  947MOL0     H24949   4.839   2.514   2.124 -1.7889 -0.0300  0.2696
  947MOL0     H24950   4.762   2.646   2.217  0.8500  0.9995  3.0182
  947MOL0     H24951   4.930   2.679   2.361 -1.9933  0.7290  0.0739
  947MOL0     H24952   5.053   2.583   2.265 -0.7464 -0.0907 -1.6724
  947MOL0     H24953   4.919   2.365   2.315 -2.0656 -1.0486  0.2429
  947MOL0     H24954   4.985   2.442   2.444  0.7758 -0.0332 -0.9711
  947MOL0     H24955   4.758   2.348   2.463  0.0165  0.8556  2.1186
  947MOL0     H24956   4.694   2.443   2.333 -1.2818 -0.1171  1.1041
  947MOL0     H24957   4.861   2.583   2.662  2.5945  1.7096 -1.3546
  947MOL0     H24958   4.562   2.812   2.799 -1.5971 -1.4756  1.2345
  947MOL0     H24959   4.728   2.749   2.851  1.4174 -1.4199 -1.9474
  947MOL0     H24960   4.477   2.568   2.831 -0.0315  0.2984 -0.6602
  947MOL0     H24961   4.506   2.663   2.982  0.4029  1.3851 -0.5797
  947MOL0     H24962   4.712   2.458   2.878 -1.5216 -1.1223 -0.2026
  947MOL0     H24963   4.716   2.556   3.021 -0.0590  0.3721 -1.1365
  947MOL0     H24964   4.669   2.322   3.045  0.5586  1.3273  0.7366
  947MOL0     H24965   4.528   2.323   2.952  2.4093 -2.3992  2.1284
  947MOL0     H24966   4.333   2.396   2.931  5.3312  2.5038  0.2628
  947MOL0     H24967   4.079   2.476   2.979  1.7589 -0.0922 -1.5861
  947MOL0     H24968   3.685   2.378   3.125 -2.6964 -0.8748 -2.3157
  947MOL0     H24969   3.451   2.437   3.163  2.3831 -1.9723 -0.6526
  947MOL0     H24970   3.345   2.894   3.182 -2.1267 -2.4421 -2.5915
  947MOL0     H24971   3.418   2.830   3.332 -0.2523 -1.2644  0.3382
  947MOL0     H24972   3.187   2.883   3.400 -0.8487  0.1193 -1.6677
  947MOL0     H24973   3.187   2.713   3.353 -0.0234 -0.7740  1.4030
  947MOL0     H24974   3.091   2.739   3.155  0.0922 -0.0852  1.0097
  947MOL0     H24975   3.106   2.912   3.145 -1.0743  2.4526  3.0297
  947MOL0     H24976   2.942   2.775   3.353  0.0073 -0.0215 -1.1947
  947MOL0     H24977   2.955   2.954   3.296  2.5322  0.4225 -1.2310
  947MOL0     H24978   2.848   2.727   3.131  1.2229 -0.5670 -0.5896
  947MOL0     H24979   2.894   2.888   3.081  1.9388  0.5275  2.5228
  947MOL0     H24980   2.646   2.865   3.104 -1.2657  2.5798  0.4222
  947MOL0     H24981   2.705   2.992   3.205 -2.5269 -0.0557  0.8626
  947MOL0     H24982   2.625   2.702   3.287 -1.2033 -0.5379 -1.0348
  947MOL0     H24983   2.689   2.829   3.390  0.0201  2.3887 -1.3075
  947MOL0     H24984   2.434   2.883   3.211  0.1437  0.9624 -0.1454
  947MOL0     H24985   2.485   2.984   3.334 -1.0444  0.0407 -0.2652
  947MOL0     H24986   3.579   2.860   3.152 -1.1654 -0.4842 -0.9510
  947MOL0     H24987   3.798   2.796   3.097 -1.4821  1.2591  0.9022
  947MOL0     H24988   4.182   2.569   3.376 -1.9024 -2.9141  0.6477
  947MOL0     H24989   4.412   2.483   3.348 -0.2650 -5.0373  0.6212
  947MOL0     H24990   5.523   2.722   1.860  0.7697 -0.2865 -0.7909
  947MOL0     H24991   5.743   2.806   1.815 -0.9088 -1.1973  0.3991
  947MOL0     H24992   5.993   3.266   1.652  1.2554  0.6147 -2.2450
  947MOL0     H24993   6.208   3.343   1.621 -0.1300  0.7821  1.4303
  947MOL0     H24994   6.549   3.075   1.600 -0.4912  0.5985 -0.8310
  947MOL0     H24995   6.552   3.088   1.779 -1.9455  0.5695 -0.2360
  947MOL0     H24996   6.673   3.292   1.586 -2.4648 -1.1434 -0.7874
  947MOL0     H24997   6.685   3.295   1.762  0.3692 -3.8359  2.3498
  947MOL0     H24998   6.781   3.049   1.609 -0.8871 -1.2901  2.3217
  947MOL0     H24999   6.818   3.085   1.762 -0.4944 -0.2661 -0.2795
  947MOL0     H25000   6.936   3.229   1.532 -0.9948 -1.5134 -0.3675
  947MOL0     H25001   6.899   3.326   1.675 -1.1982  0.0515  0.1212
  947MOL0     H25002   7.258   3.096   1.727 -1.7531 -2.1658 -0.8236
  947MOL0     H25003   6.376   2.982   1.768  0.1149  2.2090  2.7871
  947MOL0     H25004   6.158   2.905   1.831 -1.2584  1.2780  4.4477
  948MOL0     O25005   5.560   9.811  10.027  0.0491 -0.1445 -0.0239
  948MOL0     C25006   5.634   9.730  10.080 -0.5494 -0.4612  0.1193
  948MOL0     O25007   5.592   9.626  10.161 -0.1409  1.1095  0.4291
  948MOL0     C25008   5.471   9.565  10.127  1.1424 -0.2292  0.0384
  948MOL0     C25009   5.355   9.626  10.178 -0.1711  0.7277 -0.4052
  948MOL0     C25010   5.229   9.570  10.151  0.0849 -0.6202  0.0849
  948MOL0     C25011   5.216   9.451  10.088  0.6973  0.0692 -0.0734
  948MOL0     O25012   5.086   9.409  10.073  0.1551 -0.1377  0.2617
  948MOL0     C25013   5.041   9.321   9.964  0.1714 -0.3246  0.3395
  948MOL0     C25014   5.033   9.170   9.999  0.3069  0.1955 -0.3925
  948MOL0     C25015   4.965   9.087   9.897  0.0049  0.2952  0.1917
  948MOL0     C25016   5.046   9.063   9.767 -0.2377  0.0377 -0.3432
  948MOL0     C25017   4.963   9.000   9.659 -0.3490 -0.5500 -0.6666
  948MOL0     C25018   4.919   9.101   9.556  0.2034  0.1424  0.4356
  948MOL0     C25019   4.796   9.184   9.604 -0.1326 -0.1240  0.9174
  948MOL0     C25020   4.699   9.244   9.497 -0.4437  0.5825 -0.4786
  948MOL0     N25021   4.744   9.370   9.430  0.0354  0.7370  0.2205
  948MOL0     C25022   4.739   9.487   9.502  0.3552 -1.1663 -0.3660
  948MOL0     C25023   4.798   9.575   9.422 -0.5413 -0.3860  0.8073
  948MOL0     C25024   4.780   9.719   9.437 -0.0467  0.4287 -0.0128
  948MOL0     C25025   4.713   9.756   9.303 -0.2347 -0.5505  0.0155
  948MOL0     C25026   4.683   9.902   9.301  0.1485 -0.1247  0.3762
  948MOL0     C25027   4.591   9.953   9.192  0.5453 -0.0248  0.0889
  948MOL0     O25028   4.571  10.100   9.202 -0.0584  0.6547  0.2960
  948MOL0     C25029   4.445  10.146   9.162  0.4252  0.9370 -0.2996
  948MOL0     C25030   4.362  10.086   9.069  0.0751 -0.0237  0.2282
  948MOL0     C25031   4.250  10.147   9.016  0.1236  0.8746 -0.2545
  948MOL0     C25032   4.207  10.268   9.071 -0.4073 -0.0306  0.0303
  948MOL0     C25033   4.081  10.345   9.048  0.3101  1.0538  1.0270
  948MOL0     O25034   4.070  10.466   9.113  0.3212  0.4522  0.5346
  948MOL0     C25035   3.957  10.536   9.118  0.8513  0.2042  0.2526
  948MOL0     C25036   3.825  10.481   9.099 -0.2560 -0.2081  0.3539
  948MOL0     C25037   3.714  10.565   9.096  0.0472  0.4928 -0.0360
  948MOL0     C25038   3.731  10.704   9.100  0.6556 -0.1217  0.3527
  948MOL0     O25039   3.639  10.801   9.071  0.3662 -0.1685  0.1005
  948MOL0     C25040   3.514  10.768   9.016  0.2569  1.3094 -0.3873
  948MOL0     C25041   3.459  10.906   8.961 -0.7142  1.2138  0.0649
  948MOL0     C25042   3.344  10.890   8.873  0.2279  0.1752  0.3985
  948MOL0     C25043   3.262  11.026   8.852 -0.1986  0.5388 -0.2459
  948MOL0     C25044   3.126  10.992   8.807  0.0438  0.1667  0.5323
  948MOL0     C25045   3.041  11.126   8.798 -0.8432 -0.1564  0.3636
  948MOL0     C25046   2.914  11.100   8.727 -0.4790  0.4479  0.3619
  948MOL0     C25047   2.854  11.239   8.693 -0.4522 -0.6637 -0.1276
  948MOL0    Cl25048   2.816  11.306   8.860  0.3566 -0.0467  0.2524
  948MOL0     C25049   3.856  10.753   9.135  0.6954  0.6018  0.1922
  948MOL0     C25050   3.965  10.673   9.140  0.1450 -0.0944  0.0325
  948MOL0     O25051   3.996  10.287   8.982  0.1674 -0.1170 -0.5464
  948MOL0     C25052   4.298  10.342   9.158 -0.1626 -0.6812  0.2386
  948MOL0     C25053   4.415  10.274   9.199 -0.0016 -0.3220  0.6815
  948MOL0     N25054   4.845   9.514   9.298  0.3180  0.1079 -0.7930
  948MOL0     N25055   4.805   9.385   9.310 -0.6889  0.2480 -0.0145
  948MOL0     C25056   5.328   9.396  10.032  0.7130  0.2441  0.8227
  948MOL0     C25057   5.457   9.448  10.063 -0.4437  0.8484  0.4243
  948MOL0     C25058   5.779   9.772  10.084 -0.2992 -0.8662 -0.5575
  948MOL0     C25059   5.833   9.893  10.040 -0.6967 -0.2640  0.6098
  948MOL0     C25060   5.968   9.908  10.020 -0.0653  0.0906  0.0054
  948MOL0     C25061   6.056   9.814  10.057  0.8037  0.0374 -0.6258
  948MOL0     O25062   6.186   9.848  10.038  0.2373 -0.1014  0.1092
  948MOL0     C25063   6.289   9.750  10.065  0.3547 -0.4020 -0.0686
  948MOL0     C25064   6.335   9.774  10.211 -0.2091  0.6780  0.3956
  948MOL0     C25065   6.431   9.667  10.261  0.1906  0.1382 -0.4348
  948MOL0     C25066   6.577   9.680  10.213  0.0383 -0.4921 -0.0978
  948MOL0     C25067   6.608   9.615  10.090 -0.8230  0.2734 -0.4729
  948MOL0     C25068   6.614   9.569   9.977 -0.3679  0.2636  0.4347
  948MOL0     C25069   6.008   9.710  10.121  0.9431  0.4432 -0.4709
  948MOL0     C25070   5.870   9.689  10.140 -0.1958  0.0349 -0.6630
  948MOL0     H25071   5.349   9.705  10.252 -2.2476  1.3703 -1.1736
  948MOL0     H25072   5.137   9.624  10.171 -0.9089 -1.7743 -1.1536
  948MOL0     H25073   5.088   9.325   9.865  1.4655  2.0905  0.9796
  948MOL0     H25074   4.939   9.352   9.939  1.0577  0.8013 -2.2622
  948MOL0     H25075   4.990   9.155  10.098 -0.7422  0.2791 -0.8264
  948MOL0     H25076   5.136   9.137  10.019  0.6809  1.3720 -0.2554
  948MOL0     H25077   4.874   9.138   9.864 -1.0168 -1.8029 -0.4125
  948MOL0     H25078   4.927   8.996   9.944 -1.9406 -0.4270 -2.5599
  948MOL0     H25079   5.104   9.147   9.727  1.3024 -1.3101 -1.0544
  948MOL0     H25080   5.128   8.993   9.790 -0.3578 -0.0345 -0.1348
  948MOL0     H25081   4.884   8.942   9.708  1.4480 -0.4016  2.6628
  948MOL0     H25082   5.023   8.923   9.610  2.5760  0.4096  1.1425
  948MOL0     H25083   4.899   9.046   9.463  1.1356  0.8579 -0.2117
  948MOL0     H25084   5.005   9.164   9.530  0.3826 -1.1136 -2.3722
  948MOL0     H25085   4.738   9.117   9.669  0.3978 -0.0322  1.4820
  948MOL0     H25086   4.841   9.271   9.652  1.7000  1.7557 -3.6485
  948MOL0     H25087   4.603   9.259   9.546 -1.9171 -0.9828 -2.6687
  948MOL0     H25088   4.669   9.166   9.426 -0.3173 -0.9616  1.1010
  948MOL0     H25089   4.683   9.519   9.589 -1.6593 -0.2279 -1.9220
  948MOL0     H25090   4.874   9.774   9.443  1.5767 -1.9008 -1.9220
  948MOL0     H25091   4.704   9.732   9.515 -0.6053 -0.1475 -0.4478
  948MOL0     H25092   4.620   9.698   9.298 -1.3953  1.1985  0.4252
  948MOL0     H25093   4.768   9.744   9.209  0.2955  0.9518  0.1122
  948MOL0     H25094   4.645   9.948   9.393  2.0515  1.7753  0.2887
  948MOL0     H25095   4.777   9.954   9.280  0.7707 -1.7961 -1.2332
  948MOL0     H25096   4.498   9.901   9.216 -0.2810  0.7169 -1.3236
  948MOL0     H25097   4.617   9.936   9.087 -2.0259 -0.5118 -0.5340
  948MOL0     H25098   4.394   9.992   9.027 -0.0910 -0.4479  1.0307
  948MOL0     H25099   4.191  10.102   8.937  1.5943  0.3257 -1.0651
  948MOL0     H25100   3.816  10.373   9.105  0.1484 -0.4389 -2.0522
  948MOL0     H25101   3.611  10.535   9.077 -0.5177  0.6511  2.4177
  948MOL0     H25102   3.447  10.727   9.092  1.3313  0.1003 -0.0572
  948MOL0     H25103   3.519  10.703   8.928 -1.9849  2.1322 -1.1946
  948MOL0     H25104   3.546  10.955   8.916  0.4043  0.9540  1.8151
  948MOL0     H25105   3.426  10.959   9.051  0.5138 -0.8356  1.8192
  948MOL0     H25106   3.277  10.815   8.916 -1.2564  0.4586 -1.2929
  948MOL0     H25107   3.384  10.859   8.776  0.2755 -1.2030  0.8325
  948MOL0     H25108   3.254  11.077   8.948 -0.3716  0.5016 -0.2410
  948MOL0     H25109   3.312  11.103   8.792  0.4345  0.7469  0.5363
  948MOL0     H25110   3.070  10.918   8.865 -1.7458 -0.1325 -1.4489
  948MOL0     H25111   3.135  10.960   8.703 -0.9935  1.7003 -0.0655
  948MOL0     H25112   3.101  11.200   8.745  0.1346 -0.3301  1.2062
  948MOL0     H25113   3.023  11.169   8.896 -0.1178  0.3557  0.2749
  948MOL0     H25114   2.935  11.041   8.638 -1.8222  1.2967 -0.5561
  948MOL0     H25115   2.845  11.039   8.787 -0.9660 -0.8627 -1.4361
  948MOL0     H25116   2.761  11.225   8.637 -2.0252  0.0822  2.1417
  948MOL0     H25117   2.917  11.313   8.643 -1.5507 -0.2099 -0.8710
  948MOL0     H25118   3.872  10.860   9.143  0.1180  0.7507 -0.5023
  948MOL0     H25119   4.066  10.704   9.163 -0.0512 -0.6491  1.7348
  948MOL0     H25120   4.278  10.441   9.199 -1.9382 -1.1447  0.5729
  948MOL0     H25121   4.486  10.321   9.267 -0.8045  0.3688  1.0740
  948MOL0     H25122   5.318   9.305   9.975 -0.5814  1.1877 -0.5546
  948MOL0     H25123   5.551   9.414  10.022  0.0718  2.2316  0.4081
  948MOL0     H25124   5.775   9.981  10.015 -0.0193  0.4039  1.3131
  948MOL0     H25125   6.004   9.997   9.971 -3.0313 -0.0247 -2.6606
  948MOL0     H25126   6.377   9.774  10.004  1.6172 -1.5131  1.2382
  948MOL0     H25127   6.261   9.646  10.045 -1.0530  0.4140 -2.9380
  948MOL0     H25128   6.394   9.866  10.222  2.6274 -1.2371  2.5634
  948MOL0     H25129   6.247   9.769  10.275  0.3329  0.2101  1.1114
  948MOL0     H25130   6.392   9.567  10.242  0.4269 -0.0611  0.1239
  948MOL0     H25131   6.423   9.677  10.369 -1.7323 -0.3835 -0.5046
  948MOL0     H25132   6.599   9.786  10.196 -2.3096 -0.0522 -0.7558
  948MOL0     H25133   6.634   9.632  10.293 -1.9931 -1.3812  0.8876
  948MOL0     H25134   6.619   9.512   9.886  0.2574  1.2321 -0.1505
  948MOL0     H25135   6.073   9.635  10.166  0.4821 -0.1018 -0.6912
  948MOL0     H25136   5.826   9.611  10.202 -0.9505  0.4708 -0.6409
  949MOL0     O25137   8.430   7.215   4.785  0.3891  0.6074 -0.0134
  949MOL0     C25138   8.505   7.227   4.686  0.1776 -0.1050 -0.5069
  949MOL0     O25139   8.459   7.252   4.555 -0.0669 -0.1004  0.3165
  949MOL0     C25140   8.336   7.219   4.499 -0.4533 -0.5189  0.7509
  949MOL0     C25141   8.233   7.145   4.568  0.3569 -0.6561  0.0895
  949MOL0     C25142   8.108   7.135   4.510 -0.0106 -0.8362 -0.1293
  949MOL0     C25143   8.082   7.179   4.384 -0.0477  0.0102 -0.9292
  949MOL0     O25144   7.954   7.168   4.332 -0.2305  0.1409 -0.5317
  949MOL0     C25145   7.861   7.251   4.400  0.1539  0.3823 -0.0925
  949MOL0     C25146   7.714   7.203   4.371 -1.2606  0.5010 -0.0196
  949MOL0     C25147   7.613   7.304   4.421 -0.0248 -0.1493  0.1610
  949MOL0     C25148   7.465   7.256   4.449  0.4023  0.8069  0.6860
  949MOL0     C25149   7.445   7.141   4.551 -0.1499 -0.3817 -0.6494
  949MOL0     C25150   7.495   7.192   4.687  0.1239 -0.2204 -0.9845
  949MOL0     C25151   7.470   7.076   4.798 -0.1099  0.8584  0.9228
  949MOL0     C25152   7.602   6.992   4.817 -0.0005  0.0526  0.2882
  949MOL0     N25153   7.734   7.055   4.860 -0.1975 -0.1844  0.3613
  949MOL0     C25154   7.773   7.082   4.981  0.1366  0.8207 -0.4833
  949MOL0     C25155   7.889   7.144   4.969  0.2780  0.3061 -0.3976
  949MOL0     C25156   7.973   7.195   5.078 -0.5071  1.1473 -0.1804
  949MOL0     C25157   8.116   7.235   5.034 -0.0386  0.1985 -0.9872
  949MOL0     C25158   8.201   7.249   5.156 -0.3967  0.6572  0.3365
  949MOL0     C25159   8.336   7.328   5.126  0.8102  0.5818 -0.0798
  949MOL0     O25160   8.406   7.390   5.230  0.3279 -0.2384  0.1125
  949MOL0     C25161   8.545   7.390   5.225  0.9038 -0.5345 -0.1357
  949MOL0     C25162   8.612   7.413   5.348  0.3949 -0.4588  0.9563
  949MOL0     C25163   8.754   7.419   5.350  0.3772 -0.7904  0.0986
  949MOL0     C25164   8.836   7.409   5.237  0.1578 -0.2474 -0.4918
  949MOL0     C25165   8.986   7.406   5.248  0.1192 -0.0466 -0.2216
  949MOL0     O25166   9.062   7.422   5.141 -0.1107 -0.5115 -0.1981
  949MOL0     C25167   9.195   7.440   5.161 -0.5448  0.6661 -0.2893
  949MOL0     C25168   9.282   7.327   5.150 -0.8883  0.4086 -1.1009
  949MOL0     C25169   9.418   7.335   5.162  0.0199  0.3330 -0.2090
  949MOL0     C25170   9.481   7.463   5.169  0.6215 -0.2938 -0.7257
  949MOL0     O25171   9.616   7.485   5.175 -0.0757 -0.6186  0.1154
  949MOL0     C25172   9.679   7.541   5.057 -0.3215 -0.1864  0.0512
  949MOL0     C25173   9.820   7.514   5.080 -0.7444 -0.4682  0.1371
  949MOL0     C25174   9.906   7.542   4.954  0.6780  0.1924 -0.1567
  949MOL0     C25175  10.055   7.513   4.963 -0.9154  0.2896  0.1385
  949MOL0     C25176  10.138   7.620   5.023 -1.2342 -0.8343 -0.3517
  949MOL0     C25177  10.284   7.584   5.043  0.4783  0.3336  0.8499
  949MOL0     C25178  10.326   7.478   5.146 -0.5453 -0.3436  0.2279
  949MOL0     C25179  10.478   7.475   5.146 -0.1229 -0.4105  0.4247
  949MOL0    Cl25180  10.529   7.610   5.248  0.1378 -0.0216 -0.5975
  949MOL0     C25181   9.394   7.576   5.187  0.4708 -0.8530 -0.1388
  949MOL0     C25182   9.253   7.563   5.183 -0.1943 -0.3822  0.1950
  949MOL0     O25183   9.030   7.397   5.361 -0.3447 -0.3807  0.7065
  949MOL0     C25184   8.768   7.394   5.112 -0.0160  0.5466 -0.3842
  949MOL0     C25185   8.620   7.387   5.108 -0.3266 -0.0436  0.6205
  949MOL0     N25186   7.926   7.157   4.836 -0.1411  0.3687  0.4199
  949MOL0     N25187   7.827   7.103   4.768 -0.1903  0.2318 -0.0771
  949MOL0     C25188   8.183   7.235   4.304  0.6842  0.1334 -0.9201
  949MOL0     C25189   8.309   7.259   4.365 -0.9301 -0.2588  0.0629
  949MOL0     C25190   8.654   7.244   4.714  0.3172 -0.4526  0.2857
  949MOL0     C25191   8.722   7.197   4.828 -0.0309  0.3173  0.1714
  949MOL0     C25192   8.858   7.198   4.835  0.0725  0.0174 -0.0677
  949MOL0     C25193   8.935   7.236   4.723  0.5735 -0.0809  0.1822
  949MOL0     O25194   9.069   7.258   4.735  0.1058  0.3921  0.6172
  949MOL0     C25195   9.147   7.145   4.777 -0.6095 -0.4374  0.2920
  949MOL0     C25196   9.289   7.149   4.714  0.7320 -0.3291 -0.4348
  949MOL0     C25197   9.382   7.268   4.770  0.7374 -0.2821  0.2311
  949MOL0     C25198   9.532   7.249   4.715 -0.3689  0.1056 -0.6593
  949MOL0     C25199   9.605   7.141   4.784  0.3148 -0.9639 -1.0087
  949MOL0     C25200   9.663   7.052   4.844  0.1278 -0.6894 -0.2784
  949MOL0     C25201   8.873   7.285   4.611  0.0934 -0.4285 -0.2082
  949MOL0     C25202   8.736   7.298   4.607  0.0503  0.2582  0.1818
  949MOL0     H25203   8.252   7.091   4.660  2.3487 -1.4768 -0.7614
  949MOL0     H25204   8.022   7.101   4.567 -1.3192  2.1175 -0.1289
  949MOL0     H25205   7.873   7.354   4.366  2.0668  0.5753  0.9883
  949MOL0     H25206   7.870   7.249   4.509  1.5291 -2.2134 -0.1660
  949MOL0     H25207   7.696   7.106   4.416 -0.8402  0.6028  0.3822
  949MOL0     H25208   7.704   7.194   4.262 -1.3696 -1.3005  0.1166
  949MOL0     H25209   7.597   7.372   4.337 -3.3423 -2.1348 -0.9928
  949MOL0     H25210   7.650   7.353   4.512  0.0209  1.8580 -0.8738
  949MOL0     H25211   7.401   7.337   4.483 -2.4425 -2.2687  3.3327
  949MOL0     H25212   7.416   7.237   4.353 -0.7759  1.9190  1.0434
  949MOL0     H25213   7.505   7.066   4.498 -0.7985 -1.3724 -0.0209
  949MOL0     H25214   7.340   7.114   4.560 -0.9287  2.7538  1.3385
  949MOL0     H25215   7.458   7.289   4.722  2.7381  0.8311 -0.8993
  949MOL0     H25216   7.603   7.207   4.694  0.2178 -1.5667  2.2854
  949MOL0     H25217   7.444   7.110   4.898 -3.9228 -3.1754  1.6020
  949MOL0     H25218   7.392   7.008   4.763  0.1080 -0.0195  2.0595
  949MOL0     H25219   7.610   6.937   4.723  1.4683 -3.0438  2.0300
  949MOL0     H25220   7.578   6.915   4.892 -1.5531 -0.2568 -0.5028
  949MOL0     H25221   7.742   7.066   5.084  0.1967 -0.0597 -0.5958
  949MOL0     H25222   7.990   7.102   5.133  1.0190  0.2397 -2.0734
  949MOL0     H25223   7.908   7.257   5.139 -0.8061 -2.8693  4.1729
  949MOL0     H25224   8.106   7.331   4.984  2.8709  2.6520  2.6562
  949MOL0     H25225   8.160   7.153   4.976  2.8972  0.3470  0.8582
  949MOL0     H25226   8.140   7.299   5.232 -0.4066  2.2461 -0.6790
  949MOL0     H25227   8.233   7.149   5.189  0.6419 -0.5207 -3.6972
  949MOL0     H25228   8.324   7.414   5.059  2.2658  0.2877 -0.7741
  949MOL0     H25229   8.398   7.260   5.066  0.5643  0.2328  0.0593
  949MOL0     H25230   8.550   7.419   5.436  0.2429  3.4662  0.7637
  949MOL0     H25231   8.789   7.442   5.450  0.8335 -0.4331 -0.1368
  949MOL0     H25232   9.250   7.226   5.126  1.2780 -0.4056 -0.7410
  949MOL0     H25233   9.477   7.245   5.145  1.0693  0.7327  1.1675
  949MOL0     H25234   9.653   7.647   5.050 -2.3529 -0.7332 -2.7014
  949MOL0     H25235   9.654   7.492   4.962  3.5307  0.8698 -1.7021
  949MOL0     H25236   9.833   7.407   5.097 -0.1644 -0.4927 -0.4228
  949MOL0     H25237   9.858   7.565   5.169  0.6464 -1.0523 -0.0958
  949MOL0     H25238   9.903   7.646   4.919  2.8905 -0.4760 -2.7035
  949MOL0     H25239   9.860   7.470   4.885 -0.3530 -0.3545  1.0675
  949MOL0     H25240  10.073   7.430   5.032  2.8515  1.8309  1.2694
  949MOL0     H25241  10.088   7.481   4.864 -0.5019  0.8559  0.0944
  949MOL0     H25242  10.092   7.630   5.122  0.6173 -0.3461  0.4918
  949MOL0     H25243  10.131   7.718   4.974  1.9249  0.5126  1.6168
  949MOL0     H25244  10.334   7.680   5.060  0.8628  0.1227  0.9208
  949MOL0     H25245  10.317   7.542   4.948  0.4577  0.1726  0.9123
  949MOL0     H25246  10.293   7.521   5.241 -0.7243 -0.4056  0.1924
  949MOL0     H25247  10.282   7.381   5.124  2.0395 -1.3785 -0.7365
  949MOL0     H25248  10.532   7.482   5.051  0.9830 -0.1267  1.0638
  949MOL0     H25249  10.511   7.384   5.197 -0.3397  1.2047  3.6915
  949MOL0     H25250   9.424   7.680   5.195 -0.7110 -0.5567  0.8154
  949MOL0     H25251   9.178   7.641   5.191  0.3966  0.3508 -1.2140
  949MOL0     H25252   8.821   7.406   5.018 -0.4277  2.0982 -0.4395
  949MOL0     H25253   8.580   7.380   5.007  1.8845 -1.8897 -0.2295
  949MOL0     H25254   8.170   7.274   4.203 -2.2604 -0.5490 -0.8933
  949MOL0     H25255   8.369   7.332   4.311  0.5001 -0.3175  1.5196
  949MOL0     H25256   8.648   7.165   4.901 -2.9625  2.8767 -1.4427
  949MOL0     H25257   8.908   7.170   4.927 -0.6771 -1.4347 -0.0855
  949MOL0     H25258   9.112   7.050   4.736 -1.9375 -0.1814  0.7901
  949MOL0     H25259   9.156   7.138   4.886 -1.8431 -2.4841  0.3088
  949MOL0     H25260   9.333   7.054   4.745 -1.0911 -2.0283 -2.6536
  949MOL0     H25261   9.281   7.173   4.607 -0.8695  1.2176 -0.0224
  949MOL0     H25262   9.391   7.290   4.877  2.5145  1.5047 -0.2241
  949MOL0     H25263   9.331   7.360   4.739  1.1352  0.5152  1.8589
  949MOL0     H25264   9.510   7.232   4.609 -3.3365 -0.8575 -0.0031
  949MOL0     H25265   9.581   7.346   4.728  0.4087 -0.2330 -0.9789
  949MOL0     H25266   9.708   6.976   4.905  3.0011  0.9471 -0.2230
  949MOL0     H25267   8.929   7.341   4.536  2.4834 -0.4791  1.4083
  949MOL0     H25268   8.692   7.355   4.525  1.3093  1.5965  0.3884
  950MOL0     O25269   5.720   0.038   4.603 -0.2130  0.7782 -0.1668
  950MOL0     C25270   5.682   0.136   4.653 -0.1796 -0.0523 -0.2351
  950MOL0     O25271   5.762   0.225   4.707 -0.7641 -1.2583 -0.3730
  950MOL0     C25272   5.895   0.205   4.744  0.4776 -0.2066  0.0571
  950MOL0     C25273   5.937   0.281   4.856  0.4210  0.0477 -0.5036
  950MOL0     C25274   6.069   0.287   4.906  0.1596  0.4549 -0.3387
  950MOL0     C25275   6.170   0.211   4.843  0.5321 -0.0028  0.4854
  950MOL0     O25276   6.289   0.214   4.905  0.3139 -0.0359 -0.3961
  950MOL0     C25277   6.390   0.138   4.841 -0.2092  0.4217  0.3686
  950MOL0     C25278   6.502   0.117   4.937 -0.1396 -0.2884 -0.0159
  950MOL0     C25279   6.617   0.038   4.878  0.5293  0.3713 -0.1553
  950MOL0     C25280   6.721  -0.001   4.987 -0.2903  0.7091 -0.1027
  950MOL0     C25281   6.845  -0.060   4.919 -0.2486 -0.3201  1.1064
  950MOL0     C25282   6.930   0.049   4.851 -0.8563 -0.2112 -0.1711
  950MOL0     C25283   7.061  -0.015   4.789 -0.2645 -0.7016 -1.0756
  950MOL0     C25284   7.169   0.081   4.760 -1.0128 -0.8269 -0.1193
  950MOL0     N25285   7.223   0.160   4.871  1.4067  0.1907 -0.3221
  950MOL0     C25286   7.293   0.111   4.980 -0.1545  0.0200  0.2390
  950MOL0     C25287   7.334   0.221   5.049  0.8053  0.7115 -0.0912
  950MOL0     C25288   7.405   0.209   5.179 -0.5375  0.4016  0.7044
  950MOL0     C25289   7.313   0.225   5.298  0.3678  0.1312 -0.3175
  950MOL0     C25290   7.375   0.290   5.427  0.2642  0.1048  0.5201
  950MOL0     C25291   7.286   0.402   5.495  0.4896 -0.0885 -0.4069
  950MOL0     O25292   7.166   0.340   5.542  0.3152  0.4609 -0.7051
  950MOL0     C25293   7.067   0.399   5.609 -0.5607 -0.7301 -0.2093
  950MOL0     C25294   6.965   0.306   5.664  0.0590 -0.9541  0.1647
  950MOL0     C25295   6.860   0.355   5.736 -0.4163  0.2094 -0.3272
  950MOL0     C25296   6.848   0.499   5.759 -0.0723  0.3795 -0.1174
  950MOL0     C25297   6.736   0.565   5.828  0.8565  0.7595 -0.4326
  950MOL0     O25298   6.689   0.679   5.763 -0.0471 -0.2942 -0.1229
  950MOL0     C25299   6.556   0.718   5.751  0.1564  0.7153 -0.0283
  950MOL0     C25300   6.535   0.853   5.736  0.3990  0.4156  0.3779
  950MOL0     C25301   6.399   0.891   5.712 -0.3958  1.0548  0.8571
  950MOL0     C25302   6.289   0.804   5.729  0.0515 -0.5349 -0.1080
  950MOL0     O25303   6.153   0.839   5.718 -0.5099  0.0712  0.3542
  950MOL0     C25304   6.121   0.976   5.717 -0.9254  0.8732  0.6923
  950MOL0     C25305   5.975   1.001   5.702  0.2236 -0.4397 -0.1622
  950MOL0     C25306   5.915   0.946   5.575  0.6831 -0.0485 -0.1192
  950MOL0     C25307   5.765   0.974   5.574  0.3611  0.0551 -0.5000
  950MOL0     C25308   5.711   0.955   5.428  0.1848 -0.4495  0.2819
  950MOL0     C25309   5.561   0.985   5.394 -0.4408  0.3349  1.1525
  950MOL0     C25310   5.530   1.007   5.239 -0.5998  0.9299 -0.3266
  950MOL0     C25311   5.605   1.132   5.184 -0.5015 -0.7908 -0.9021
  950MOL0    Cl25312   5.537   1.174   5.019 -0.0933  0.4851  0.0577
  950MOL0     C25313   6.311   0.669   5.750  0.5907 -0.3195 -0.4542
  950MOL0     C25314   6.446   0.626   5.764  0.1149 -0.1033  1.4327
  950MOL0     O25315   6.679   0.503   5.922 -0.2262  0.0078  0.1128
  950MOL0     C25316   6.947   0.583   5.695  0.6966 -0.1264  0.0691
  950MOL0     C25317   7.063   0.534   5.627 -0.6269 -0.3887 -0.7125
  950MOL0     N25318   7.295   0.331   4.981  0.0098 -0.3379 -0.2662
  950MOL0     N25319   7.219   0.295   4.884  0.1539 -0.8201 -1.4587
  950MOL0     C25320   6.133   0.144   4.726  0.1238  1.0618 -0.8049
  950MOL0     C25321   5.995   0.133   4.682 -0.1376 -0.1914  0.2149
  950MOL0     C25322   5.535   0.174   4.653 -0.6154 -0.3825 -1.3420
  950MOL0     C25323   5.486   0.286   4.727 -0.4270  1.0321  0.2547
  950MOL0     C25324   5.349   0.323   4.735 -0.1455 -0.0710 -0.3257
  950MOL0     C25325   5.257   0.240   4.667  0.1932 -0.8221  0.3706
  950MOL0     O25326   5.124   0.257   4.667 -0.4972  0.1651  0.0555
  950MOL0     C25327   5.062   0.376   4.705  0.8290 -1.3542 -0.6910
  950MOL0     C25328   4.910   0.348   4.711 -0.8451  0.0859  0.2336
  950MOL0     C25329   4.850   0.286   4.579  0.0618 -0.4093  0.1902
  950MOL0     C25330   4.851   0.394   4.463 -0.5024  0.2025  1.2838
  950MOL0     C25331   4.779   0.349   4.343  0.1139 -0.1383 -1.0340
  950MOL0     C25332   4.722   0.307   4.245 -0.1276 -0.0169 -0.7193
  950MOL0     C25333   5.301   0.128   4.601  0.0538 -0.6230  0.4931
  950MOL0     C25334   5.435   0.091   4.598 -1.0456 -0.5210 -0.1795
  950MOL0     H25335   5.850   0.331   4.897  0.0278 -1.4875  0.6422
  950MOL0     H25336   6.095   0.347   4.993 -1.1218  1.8146 -0.8431
  950MOL0     H25337   6.423   0.193   4.752 -1.6635  0.5072 -0.1310
  950MOL0     H25338   6.349   0.041   4.811 -2.2041  0.9911  1.1746
  950MOL0     H25339   6.449   0.063   5.016 -2.0434  0.8067 -0.4737
  950MOL0     H25340   6.539   0.211   4.979 -2.2949  0.0504  1.2920
  950MOL0     H25341   6.656   0.091   4.790  0.5444 -0.8298 -0.9037
  950MOL0     H25342   6.569  -0.053   4.840  1.8933 -1.3979  2.0652
  950MOL0     H25343   6.757   0.089   5.038  0.1058  1.0421 -0.9514
  950MOL0     H25344   6.676  -0.066   5.063 -2.4171  3.5657  1.3030
  950MOL0     H25345   6.810  -0.134   4.847 -2.4970 -0.5875  2.4064
  950MOL0     H25346   6.912  -0.112   4.988 -0.0160 -2.3507 -0.5672
  950MOL0     H25347   6.952   0.131   4.920 -3.8178  1.5217 -1.1203
  950MOL0     H25348   6.882   0.096   4.765 -1.6071  1.1249  0.9369
  950MOL0     H25349   7.105  -0.088   4.859  1.0665  2.0322  1.1251
  950MOL0     H25350   7.035  -0.064   4.695  1.2373  0.1964 -2.0135
  950MOL0     H25351   7.127   0.148   4.684  0.4107 -3.0486 -3.0491
  950MOL0     H25352   7.257   0.029   4.722 -0.1418  1.9719 -2.3343
  950MOL0     H25353   7.317   0.009   5.007  4.4184  0.3481 -1.8099
  950MOL0     H25354   7.483   0.286   5.177  0.4983 -0.5990  1.3492
  950MOL0     H25355   7.452   0.110   5.184  1.4373  1.2810  0.4871
  950MOL0     H25356   7.279   0.127   5.332 -0.9703  0.8794  0.6177
  950MOL0     H25357   7.223   0.276   5.264  1.6063  2.9243  0.2939
  950MOL0     H25358   7.383   0.213   5.505  0.2856  0.2542  0.6681
  950MOL0     H25359   7.477   0.327   5.410  0.8757 -1.3067  0.9628
  950MOL0     H25360   7.249   0.481   5.428 -2.3083 -0.3710  0.6579
  950MOL0     H25361   7.338   0.445   5.581  0.1438  1.2620 -0.8504
  950MOL0     H25362   6.981   0.201   5.643  3.8429 -0.0653 -2.2587
  950MOL0     H25363   6.774   0.298   5.771  2.9969 -3.5767  3.0109
  950MOL0     H25364   6.615   0.926   5.733 -1.0025  2.0857  1.8362
  950MOL0     H25365   6.378   0.994   5.684  1.5651  1.2098 -0.2033
  950MOL0     H25366   6.162   1.029   5.631  1.8600  1.5405  2.3069
  950MOL0     H25367   6.158   1.022   5.809  2.1162  0.5181 -0.2331
  950MOL0     H25368   5.965   1.109   5.708 -0.5828 -0.5392  0.5202
  950MOL0     H25369   5.925   0.956   5.788 -0.4107 -3.6049 -2.0008
  950MOL0     H25370   5.943   0.841   5.561  0.0274 -0.1488 -0.7534
  950MOL0     H25371   5.972   0.994   5.494 -0.8545  2.8108  0.3755
  950MOL0     H25372   5.712   0.909   5.644 -1.5410  1.8115 -0.2112
  950MOL0     H25373   5.738   1.077   5.599  1.7136 -0.0109  1.4681
  950MOL0     H25374   5.738   0.856   5.391 -0.8608 -0.3924 -0.6852
  950MOL0     H25375   5.771   1.016   5.360  0.5813 -2.2892 -1.0854
  950MOL0     H25376   5.536   1.078   5.446 -0.1935  1.0223  0.0823
  950MOL0     H25377   5.512   0.900   5.441 -0.1931  0.5187  1.7525
  950MOL0     H25378   5.567   0.926   5.176 -2.2727 -0.5160  0.4420
  950MOL0     H25379   5.422   1.013   5.219 -0.5396  0.2460 -0.8687
  950MOL0     H25380   5.711   1.105   5.175 -1.5043 -5.2699 -1.4000
  950MOL0     H25381   5.588   1.220   5.247 -0.7623 -0.1354 -1.8516
  950MOL0     H25382   6.223   0.606   5.756  0.9685 -0.8860 -0.8376
  950MOL0     H25383   6.475   0.525   5.789  2.6449 -1.0171 -3.6791
  950MOL0     H25384   6.947   0.688   5.723  0.9531 -0.1999  0.3573
  950MOL0     H25385   7.134   0.610   5.595  1.6566 -2.1573 -0.0506
  950MOL0     H25386   6.198   0.091   4.656 -0.7084 -0.0223 -0.7881
  950MOL0     H25387   5.980   0.069   4.595  3.7831 -2.0341  0.6632
  950MOL0     H25388   5.559   0.348   4.777  1.8348 -0.4812 -1.0128
  950MOL0     H25389   5.314   0.413   4.786  0.6560  0.2642 -0.3486
  950MOL0     H25390   5.081   0.448   4.625  0.6350 -0.3418  0.1537
  950MOL0     H25391   5.114   0.420   4.790  4.3008  1.0878 -3.7554
  950MOL0     H25392   4.897   0.267   4.784 -2.0489 -1.1051 -1.2176
  950MOL0     H25393   4.861   0.440   4.743 -2.2918  0.6405 -3.1859
  950MOL0     H25394   4.745   0.261   4.591 -0.4879  1.2230 -0.8630
  950MOL0     H25395   4.911   0.203   4.542 -1.3685 -0.6507 -1.8095
  950MOL0     H25396   4.817   0.497   4.478 -0.6794  0.0192  2.2275
  950MOL0     H25397   4.953   0.411   4.428 -1.5432  0.9193 -1.7139
  950MOL0     H25398   4.671   0.255   4.166  0.1507  1.8747 -2.2201
  950MOL0     H25399   5.227   0.062   4.558 -2.3618  2.0373  0.2773
  950MOL0     H25400   5.462  -0.001   4.547  0.9303  0.5415 -1.1867
  951MOL0     O25401  10.586   3.510   6.166 -0.3107  0.1833  0.9796
  951MOL0     C25402  10.635   3.574   6.260 -0.2855 -0.4758  0.5331
  951MOL0     O25403  10.559   3.660   6.337  0.0060  0.3795  1.2528
  951MOL0     C25404  10.423   3.657   6.309 -0.0366  0.3191  0.1930
  951MOL0     C25405  10.342   3.647   6.421  0.6326  0.6005  0.0613
  951MOL0     C25406  10.204   3.652   6.406  0.5259 -0.8397  1.1590
  951MOL0     C25407  10.146   3.672   6.280 -0.9695  0.7842  0.3749
  951MOL0     O25408  10.014   3.676   6.278  0.2013  0.0185  0.4654
  951MOL0     C25409   9.948   3.553   6.267  0.5024  0.1299  0.2825
  951MOL0     C25410   9.861   3.528   6.392 -0.6686 -0.0734  0.3260
  951MOL0     C25411   9.797   3.654   6.440 -0.3576 -0.0063 -1.1088
  951MOL0     C25412   9.700   3.621   6.555 -0.5049 -0.7314  0.5727
  951MOL0     C25413   9.763   3.562   6.679  1.0012  0.4281  0.1910
  951MOL0     C25414   9.887   3.644   6.730  0.2910 -0.6935  0.5722
  951MOL0     C25415   9.947   3.580   6.851  0.0186 -0.2876  0.5993
  951MOL0     C25416  10.065   3.670   6.904 -0.2834  0.3209 -0.6500
  951MOL0     N25417  10.104   3.625   7.036 -0.3446 -0.2678  0.2940
  951MOL0     C25418  10.029   3.633   7.150  0.2874 -0.1199  0.5316
  951MOL0     C25419  10.106   3.564   7.245  0.3907  0.2104  0.5423
  951MOL0     C25420  10.070   3.541   7.385  1.1700  0.7519  0.0739
  951MOL0     C25421  10.121   3.627   7.496  1.1417 -0.3402 -1.2502
  951MOL0     C25422  10.101   3.782   7.455 -0.8694 -0.3079  0.7767
  951MOL0     C25423  10.123   3.881   7.563 -0.0502  0.1797 -1.1457
  951MOL0     O25424  10.207   3.819   7.669 -0.6231  0.4239 -0.0569
  951MOL0     C25425  10.341   3.835   7.662 -0.2642  1.1321  0.2074
  951MOL0     C25426  10.410   3.904   7.568  0.1725  0.2100  0.0057
  951MOL0     C25427  10.547   3.905   7.550  0.4550 -0.4646  0.0641
  951MOL0     C25428  10.620   3.829   7.632 -1.0086  0.0476  0.6622
  951MOL0     C25429  10.771   3.836   7.621 -0.4911  0.5083 -0.0954
  951MOL0     O25430  10.835   3.752   7.704  0.3793  0.3273 -0.0320
  951MOL0     C25431  10.968   3.747   7.710 -0.4283  0.3480  0.0591
  951MOL0     C25432  10.999   3.690   7.838 -0.5541 -0.6234  0.3916
  951MOL0     C25433  11.138   3.670   7.870 -0.1242  0.1901  0.9931
  951MOL0     C25434  11.237   3.709   7.771 -1.0567  0.4132 -1.2906
  951MOL0     O25435  11.372   3.694   7.810  0.2269  0.8713 -0.1359
  951MOL0     C25436  11.464   3.673   7.706  0.8076 -0.1120 -0.1019
  951MOL0     C25437  11.600   3.655   7.758  0.3979  0.2417  0.2395
  951MOL0     C25438  11.647   3.777   7.841 -0.0272 -0.8517  0.0016
  951MOL0     C25439  11.802   3.762   7.860 -0.1446  0.4331  0.5219
  951MOL0     C25440  11.866   3.902   7.909 -0.0257  0.8884  0.5042
  951MOL0     C25441  11.986   3.878   8.007  0.0212  0.9374 -0.2906
  951MOL0     C25442  12.107   3.837   7.922  0.0463 -0.5479  0.0504
  951MOL0     C25443  12.245   3.847   7.990 -0.1838  0.4290  0.0729
  951MOL0    Cl25444  12.288   4.019   8.017  0.4662  0.2197  0.1891
  951MOL0     C25445  11.200   3.761   7.645 -0.9560  0.3209 -0.4242
  951MOL0     C25446  11.064   3.775   7.613 -0.1800  0.8756  0.0653
  951MOL0     O25447  10.824   3.916   7.546  0.3347 -0.2131  0.8275
  951MOL0     C25448  10.562   3.754   7.735  0.4174 -0.5665  0.8173
  951MOL0     C25449  10.420   3.755   7.746 -0.0071  0.4527  0.1583
  951MOL0     N25450  10.226   3.526   7.193 -0.0151 -0.6290 -0.3706
  951MOL0     N25451  10.220   3.557   7.065  0.0555  0.0754 -0.5891
  951MOL0     C25452  10.226   3.694   6.168 -0.3319  0.4682 -0.1996
  951MOL0     C25453  10.367   3.695   6.189  0.5290 -0.5458  0.8032
  951MOL0     C25454  10.778   3.558   6.289 -0.6023 -0.5146 -0.7023
  951MOL0     C25455  10.873   3.503   6.201 -0.0281 -0.6238  0.1271
  951MOL0     C25456  11.002   3.491   6.249 -0.8248  0.7803  0.6120
  951MOL0     C25457  11.054   3.524   6.372  0.4809 -0.2394 -0.3478
  951MOL0     O25458  11.184   3.486   6.404 -0.1439 -0.6169 -1.1591
  951MOL0     C25459  11.199   3.464   6.548 -0.1331  0.6382 -0.9285
  951MOL0     C25460  11.316   3.368   6.572 -0.2914 -0.4468  0.2211
  951MOL0     C25461  11.458   3.423   6.551  0.8644  0.1569 -0.1201
  951MOL0     C25462  11.558   3.332   6.621 -0.1610  0.0745  0.1510
  951MOL0     C25463  11.566   3.199   6.565  0.1597 -0.2889  0.3321
  951MOL0     C25464  11.599   3.099   6.506  0.4679  0.7036  0.1257
  951MOL0     C25465  10.962   3.592   6.451  0.5144 -0.4198 -0.1210
  951MOL0     C25466  10.832   3.598   6.410  0.4936  0.3367 -0.5573
  951MOL0     H25467  10.370   3.618   6.522 -0.7329  1.7140  0.8004
  951MOL0     H25468  10.137   3.640   6.490 -1.1389 -0.9701 -0.1418
  951MOL0     H25469  10.013   3.467   6.249  0.2926  0.3646 -1.8204
  951MOL0     H25470   9.897   3.575   6.173  1.0509  4.4505  0.7482
  951MOL0     H25471   9.915   3.494   6.480 -1.3556  2.3217  1.7534
  951MOL0     H25472   9.774   3.463   6.376 -1.2449  0.9729 -1.0651
  951MOL0     H25473   9.739   3.693   6.357 -2.9572  0.6952  0.9106
  951MOL0     H25474   9.874   3.728   6.464  2.0800 -1.9459 -2.4066
  951MOL0     H25475   9.639   3.710   6.569 -1.0003 -0.0063 -4.4221
  951MOL0     H25476   9.625   3.550   6.520 -0.1140 -0.8119 -0.1256
  951MOL0     H25477   9.775   3.455   6.660  0.0581  0.4017 -0.2926
  951MOL0     H25478   9.688   3.565   6.759 -0.0894 -0.1948 -0.7865
  951MOL0     H25479   9.855   3.747   6.748 -0.0712 -0.6592 -0.2684
  951MOL0     H25480   9.955   3.645   6.645 -0.5577  2.1425 -0.1621
  951MOL0     H25481   9.871   3.575   6.930 -0.8859  0.4733 -0.2056
  951MOL0     H25482   9.980   3.477   6.834 -0.2955 -0.9251  3.3650
  951MOL0     H25483  10.039   3.776   6.904  1.4493  0.7710 -1.4348
  951MOL0     H25484  10.146   3.661   6.831 -2.1633 -0.3327 -2.7954
  951MOL0     H25485   9.926   3.666   7.159 -0.3224 -2.2056  1.9452
  951MOL0     H25486  10.098   3.436   7.397  1.3845  0.4348 -2.5977
  951MOL0     H25487   9.961   3.540   7.378  1.1088 -0.0379  0.8609
  951MOL0     H25488  10.227   3.613   7.522  0.6680 -1.5313  0.1529
  951MOL0     H25489  10.058   3.610   7.584 -1.8991  1.4620 -2.8941
  951MOL0     H25490  10.182   3.805   7.385  0.8174  0.3848  2.8540
  951MOL0     H25491  10.006   3.797   7.403 -0.2035 -0.3404 -0.5152
  951MOL0     H25492  10.024   3.902   7.604 -0.9671 -2.6432 -1.6981
  951MOL0     H25493  10.172   3.973   7.529 -2.6386  1.1774 -2.4298
  951MOL0     H25494  10.359   3.947   7.482 -2.8784 -1.4875  0.8274
  951MOL0     H25495  10.596   3.957   7.468  0.7005 -0.0334  0.4850
  951MOL0     H25496  10.921   3.683   7.914  0.5271 -1.1748  1.4890
  951MOL0     H25497  11.161   3.634   7.970 -0.6289  1.1920  1.4830
  951MOL0     H25498  11.470   3.762   7.644  0.8665  0.0450  0.1265
  951MOL0     H25499  11.431   3.586   7.648  0.6237  0.5281 -0.9723
  951MOL0     H25500  11.660   3.625   7.672 -1.2771 -2.5523 -0.0959
  951MOL0     H25501  11.598   3.571   7.829 -3.1340  0.3849  0.4836
  951MOL0     H25502  11.594   3.778   7.937  0.7345  0.5923  0.4427
  951MOL0     H25503  11.628   3.864   7.779  0.1216 -2.2505 -2.1112
  951MOL0     H25504  11.832   3.679   7.924 -1.7246 -3.5117 -3.4061
  951MOL0     H25505  11.860   3.738   7.771  3.0242 -2.5965  3.1362
  951MOL0     H25506  11.785   3.952   7.963 -0.9743 -0.9841  0.9218
  951MOL0     H25507  11.885   3.958   7.817  2.3073 -1.7568 -0.7714
  951MOL0     H25508  11.966   3.810   8.090  0.1298  1.5749  0.2669
  951MOL0     H25509  11.996   3.971   8.063  1.0368  1.5877 -1.4965
  951MOL0     H25510  12.082   3.734   7.895 -1.8087 -0.1984  0.3356
  951MOL0     H25511  12.117   3.892   7.828  2.7151  0.9293  1.0870
  951MOL0     H25512  12.321   3.812   7.920  0.7432  1.7544  0.3654
  951MOL0     H25513  12.256   3.794   8.085 -0.0371  1.5844  0.7266
  951MOL0     H25514  11.274   3.783   7.568  1.4840 -2.7550  0.8321
  951MOL0     H25515  11.036   3.797   7.511  1.8870 -1.8437 -1.2311
  951MOL0     H25516  10.612   3.679   7.796 -0.0159 -1.4957  0.0447
  951MOL0     H25517  10.365   3.692   7.815 -2.8011  0.2518 -2.0603
  951MOL0     H25518  10.173   3.721   6.077 -1.0283 -0.5668 -0.1101
  951MOL0     H25519  10.425   3.723   6.102 -0.0511 -1.3408  0.1415
  951MOL0     H25520  10.841   3.459   6.107 -0.7549 -3.2246  1.4883
  951MOL0     H25521  11.068   3.452   6.172  1.0969 -0.1161  2.5807
  951MOL0     H25522  11.107   3.416   6.583  1.6049 -0.6846  2.3247
  951MOL0     H25523  11.214   3.563   6.592  1.1213  1.4643 -3.0515
  951MOL0     H25524  11.304   3.339   6.677  0.4724 -0.6205  0.2654
  951MOL0     H25525  11.309   3.281   6.506  0.7812 -0.2001 -0.2329
  951MOL0     H25526  11.471   3.528   6.578 -0.7331  2.2332 -5.9791
  951MOL0     H25527  11.482   3.430   6.445  0.9214  2.1105 -0.0186
  951MOL0     H25528  11.661   3.359   6.600 -0.4254 -0.7194 -2.5998
  951MOL0     H25529  11.533   3.338   6.728  1.0450  2.9226  0.3654
  951MOL0     H25530  11.621   3.005   6.459  0.1596 -0.1439  1.6208
  951MOL0     H25531  10.990   3.640   6.544  1.6025 -0.9724 -0.1414
  951MOL0     H25532  10.773   3.657   6.480  0.7834  2.1208 -1.7278
  952MOL0     O25533   1.414   4.488   3.387 -0.7895 -0.1476  0.8285
  952MOL0     C25534   1.419   4.583   3.452 -0.3389 -0.3400  0.3398
  952MOL0     O25535   1.315   4.664   3.503  0.5497 -0.1278  0.1694
  952MOL0     C25536   1.193   4.642   3.446  0.4779 -0.4883 -0.0955
  952MOL0     C25537   1.146   4.728   3.345 -0.4202  1.0492 -0.0857
  952MOL0     C25538   1.010   4.723   3.300 -0.2770 -0.7563  0.7511
  952MOL0     C25539   0.917   4.638   3.367 -0.2361  1.3862 -0.0868
  952MOL0     O25540   0.792   4.606   3.324  0.0782  0.3459  0.9360
  952MOL0     C25541   0.760   4.598   3.181 -0.1634 -0.5582 -0.3404
  952MOL0     C25542   0.621   4.647   3.146 -0.8716  0.7284 -0.5834
  952MOL0     C25543   0.600   4.786   3.213 -0.1778  0.0523 -0.0247
  952MOL0     C25544   0.468   4.857   3.176 -0.0800  0.0023  0.2562
  952MOL0     C25545   0.457   4.986   3.260  0.3536  0.2398 -0.7271
  952MOL0     C25546   0.363   5.086   3.200  0.6357 -0.8004 -0.4896
  952MOL0     C25547   0.321   5.191   3.293  0.0543  0.1388 -0.1336
  952MOL0     C25548   0.211   5.283   3.225  0.6467 -0.2326  0.5770
  952MOL0     N25549   0.084   5.213   3.209 -0.5163 -0.2795 -0.9672
  952MOL0     C25550   0.039   5.112   3.284 -0.3464  0.1594  0.5294
  952MOL0     C25551  -0.081   5.080   3.229  0.6136 -0.9068 -0.0969
  952MOL0     C25552  -0.177   4.990   3.308 -0.4324  0.3420  0.4108
  952MOL0     C25553  -0.139   4.837   3.281 -0.3392 -0.5229 -0.1036
  952MOL0     C25554  -0.216   4.757   3.386 -0.7420 -0.0442 -0.3784
  952MOL0     C25555  -0.212   4.604   3.372  0.2285 -0.2144  0.7816
  952MOL0     O25556  -0.281   4.548   3.487 -0.2159  0.0445 -0.5131
  952MOL0     C25557  -0.414   4.545   3.501 -0.0669  0.7982 -0.3315
  952MOL0     C25558  -0.461   4.534   3.632 -0.6743  1.1037 -0.6550
  952MOL0     C25559  -0.596   4.506   3.658 -0.4692 -0.3057 -0.3587
  952MOL0     C25560  -0.689   4.511   3.560  1.1646 -0.0376  0.0155
  952MOL0     C25561  -0.838   4.499   3.578 -0.6185  0.4568  0.4241
  952MOL0     O25562  -0.876   4.481   3.707  0.0932 -1.4127  0.2229
  952MOL0     C25563  -1.010   4.492   3.746 -0.7527  1.1529  0.9272
  952MOL0     C25564  -1.125   4.544   3.682 -0.2998 -0.2329 -0.2647
  952MOL0     C25565  -1.242   4.567   3.761  0.1323 -0.7202  0.2888
  952MOL0     C25566  -1.249   4.523   3.894 -0.5115 -0.3921  0.1608
  952MOL0     O25567  -1.362   4.560   3.966 -0.0177 -0.7409 -0.3556
  952MOL0     C25568  -1.432   4.448   4.036 -0.5030 -0.4287 -0.8814
  952MOL0     C25569  -1.581   4.466   4.021  0.3883  0.3210 -0.3882
  952MOL0     C25570  -1.622   4.603   4.076 -0.2468 -0.0144 -0.3763
  952MOL0     C25571  -1.763   4.671   4.038 -0.3310 -0.4616 -1.0100
  952MOL0     C25572  -1.778   4.759   3.908 -0.3844  0.2746  0.3524
  952MOL0     C25573  -1.740   4.681   3.779 -0.6844  0.1044 -0.0396
  952MOL0     C25574  -1.725   4.777   3.658 -0.0230 -0.6293 -0.2633
  952MOL0     C25575  -1.583   4.792   3.591  0.0183 -0.2048 -0.3406
  952MOL0    Cl25576  -1.539   4.623   3.519 -0.1610  0.4518  0.2496
  952MOL0     C25577  -1.138   4.469   3.953  0.7069 -0.1628  0.0410
  952MOL0     C25578  -1.019   4.457   3.876 -1.5417 -0.1018 -0.2911
  952MOL0     O25579  -0.912   4.526   3.481  0.4263 -0.5882 -0.3503
  952MOL0     C25580  -0.639   4.532   3.426  0.1580 -0.5757  0.2642
  952MOL0     C25581  -0.505   4.549   3.398  0.6349 -0.4117 -0.3834
  952MOL0     N25582  -0.100   5.157   3.115 -0.4436  0.1105 -0.0031
  952MOL0     N25583   0.007   5.234   3.100  0.4534 -0.2498  0.6185
  952MOL0     C25584   0.964   4.557   3.472  0.8628  0.7061 -0.3215
  952MOL0     C25585   1.103   4.551   3.507  0.1677 -1.1171 -0.6749
  952MOL0     C25586   1.556   4.624   3.488  0.2085 -0.5079  0.3324
  952MOL0     C25587   1.578   4.668   3.612  0.7362 -0.1957  0.0779
  952MOL0     C25588   1.709   4.716   3.647  0.1184 -0.0977  0.5808
  952MOL0     C25589   1.810   4.729   3.548  0.3387  0.7387 -0.6092
  952MOL0     O25590   1.925   4.798   3.576 -0.2805  0.0854  0.5932
  952MOL0     C25591   2.043   4.777   3.499  0.4665  0.1148  0.1671
  952MOL0     C25592   2.151   4.827   3.593  0.1293 -0.8938  0.4810
  952MOL0     C25593   2.133   4.978   3.610  0.3430  0.6664 -0.2419
  952MOL0     C25594   2.262   5.053   3.587 -0.7915  0.1864 -0.5937
  952MOL0     C25595   2.357   5.023   3.700 -0.0146 -1.2583  0.8711
  952MOL0     C25596   2.438   5.008   3.786  0.6662  0.3065  0.4676
  952MOL0     C25597   1.790   4.674   3.422  1.0394  0.5917 -0.0690
  952MOL0     C25598   1.661   4.612   3.402 -0.1200  0.0799  0.1260
  952MOL0     H25599   1.215   4.796   3.296 -0.6371  0.3509 -1.3928
  952MOL0     H25600   0.979   4.785   3.217 -2.2362 -1.6040  0.7900
  952MOL0     H25601   0.761   4.493   3.150 -1.1939 -0.3159 -1.2529
  952MOL0     H25602   0.828   4.657   3.119  0.0732 -0.3676  0.1025
  952MOL0     H25603   0.545   4.574   3.178 -1.1469  0.3177 -2.1206
  952MOL0     H25604   0.605   4.646   3.038  1.8169 -0.6428 -1.0635
  952MOL0     H25605   0.679   4.851   3.176 -0.9877  0.2530 -1.4637
  952MOL0     H25606   0.592   4.774   3.322 -4.2574  0.7297 -0.0605
  952MOL0     H25607   0.471   4.881   3.070  0.1816  0.1751  0.3021
  952MOL0     H25608   0.377   4.799   3.195 -0.5000 -0.2982 -2.3383
  952MOL0     H25609   0.556   5.031   3.269 -1.0554  3.8001 -1.1347
  952MOL0     H25610   0.438   4.960   3.364 -0.1106  3.6659  0.1809
  952MOL0     H25611   0.284   5.031   3.148  0.0331 -0.9424  0.5454
  952MOL0     H25612   0.417   5.137   3.120  0.4060  1.6320  0.7916
  952MOL0     H25613   0.291   5.135   3.382  0.1426  0.4151  0.0686
  952MOL0     H25614   0.411   5.251   3.306  0.7247 -0.5810 -1.3119
  952MOL0     H25615   0.240   5.296   3.121 -1.2645  1.4603  0.1794
  952MOL0     H25616   0.200   5.380   3.275  2.1915  0.8124 -1.0150
  952MOL0     H25617   0.081   5.060   3.369 -1.1672 -0.2115  0.7238
  952MOL0     H25618  -0.278   5.004   3.267  0.1263 -0.9104 -1.5257
  952MOL0     H25619  -0.180   5.016   3.414 -2.0892  0.2541  0.4064
  952MOL0     H25620  -0.030   4.824   3.285  0.4255  2.5594 -4.2272
  952MOL0     H25621  -0.167   4.798   3.183 -0.8021 -2.3467  0.7111
  952MOL0     H25622  -0.186   4.791   3.486  0.4596  0.1246 -0.7829
  952MOL0     H25623  -0.322   4.779   3.370 -0.8807 -0.0845  0.4407
  952MOL0     H25624  -0.110   4.565   3.377  0.1184 -0.9429 -1.4987
  952MOL0     H25625  -0.254   4.573   3.276 -1.2672 -0.2115  1.4075
  952MOL0     H25626  -0.394   4.546   3.717 -0.2298  0.8030 -0.9604
  952MOL0     H25627  -0.628   4.486   3.760  0.3538 -1.7203 -0.3576
  952MOL0     H25628  -1.118   4.583   3.581  1.8302 -0.2232 -0.1571
  952MOL0     H25629  -1.328   4.605   3.707 -0.0074 -0.7289  0.5040
  952MOL0     H25630  -1.409   4.445   4.143 -1.3689  0.0079 -0.6731
  952MOL0     H25631  -1.403   4.352   3.992 -2.8744 -1.7910  0.3334
  952MOL0     H25632  -1.628   4.385   4.078  1.8304  0.2458  0.7615
  952MOL0     H25633  -1.608   4.456   3.915  0.8245  1.3015 -0.6044
  952MOL0     H25634  -1.558   4.687   4.048 -1.6198  1.6928  1.3926
  952MOL0     H25635  -1.613   4.597   4.185 -1.9015 -3.3455 -0.2734
  952MOL0     H25636  -1.838   4.591   4.034 -1.9781  1.0649 -2.9028
  952MOL0     H25637  -1.784   4.738   4.121 -0.9479  0.3426 -1.7996
  952MOL0     H25638  -1.710   4.845   3.907 -1.2618  0.9849  0.1560
  952MOL0     H25639  -1.879   4.799   3.895 -0.8308 -0.4091  1.5952
  952MOL0     H25640  -1.823   4.613   3.756 -0.6872  0.2809 -0.5900
  952MOL0     H25641  -1.653   4.617   3.798 -0.7774  0.6166  2.3905
  952MOL0     H25642  -1.789   4.739   3.578 -3.9477 -0.9749  2.7395
  952MOL0     H25643  -1.769   4.872   3.688 -0.3102 -1.2220  1.3272
  952MOL0     H25644  -1.506   4.830   3.659  1.8871  1.6500 -3.2792
  952MOL0     H25645  -1.597   4.872   3.518  1.4897  1.6227  1.2843
  952MOL0     H25646  -1.134   4.448   4.059  2.5736  0.9319  0.2371
  952MOL0     H25647  -0.935   4.406   3.922  0.8454  0.2620 -3.9133
  952MOL0     H25648  -0.708   4.525   3.343  2.2005 -3.7491 -1.3727
  952MOL0     H25649  -0.470   4.573   3.298 -2.4745  0.5568 -1.3397
  952MOL0     H25650   0.896   4.480   3.507 -1.6821  2.1656 -1.7976
  952MOL0     H25651   1.143   4.491   3.588 -2.3788 -1.0889  0.7037
  952MOL0     H25652   1.494   4.667   3.681 -0.1906 -2.7909 -0.9787
  952MOL0     H25653   1.730   4.753   3.747 -2.4636  0.3736  1.0256
  952MOL0     H25654   2.033   4.822   3.400 -1.2836 -1.2328 -0.3247
  952MOL0     H25655   2.048   4.669   3.489  0.0330  0.0138  0.9297
  952MOL0     H25656   2.137   4.778   3.689 -3.3755 -1.5439 -0.2360
  952MOL0     H25657   2.245   4.794   3.548 -1.3083 -0.8529 -2.8582
  952MOL0     H25658   2.079   4.991   3.704 -1.4863  2.1223 -1.4134
  952MOL0     H25659   2.061   5.024   3.541  0.4046 -0.4264 -1.0583
  952MOL0     H25660   2.311   5.026   3.492 -2.2267 -0.2435 -1.2319
  952MOL0     H25661   2.245   5.160   3.572 -1.2778 -0.0038 -1.5082
  952MOL0     H25662   2.514   4.990   3.860  2.8535 -0.9814 -1.9498
  952MOL0     H25663   1.855   4.676   3.335 -0.6416  2.0379 -1.3708
  952MOL0     H25664   1.659   4.561   3.306  2.7903 -0.4561  0.2555
  953MOL0     O25665   2.242   5.485   7.748 -0.5547  0.0237  0.2828
  953MOL0     C25666   2.312   5.585   7.733  0.1752  0.2517  0.1144
  953MOL0     O25667   2.259   5.703   7.684  0.7662  0.0688  0.0290
  953MOL0     C25668   2.121   5.719   7.663  0.3800 -0.1085 -0.1360
  953MOL0     C25669   2.017   5.654   7.730 -0.8661 -0.3893  0.4940
  953MOL0     C25670   1.886   5.670   7.680  0.1593 -0.7662 -0.2101
  953MOL0     C25671   1.850   5.758   7.574 -0.3012 -0.3025  0.4709
  953MOL0     O25672   1.727   5.790   7.517  0.0848 -0.7313 -0.3947
  953MOL0     C25673   1.619   5.687   7.517  0.0693 -0.6127 -0.9888
  953MOL0     C25674   1.548   5.670   7.386 -0.8981 -0.0026 -0.1609
  953MOL0     C25675   1.405   5.616   7.411 -1.5375 -0.3868  0.1545
  953MOL0     C25676   1.327   5.611   7.281 -0.5473  0.1505  1.5665
  953MOL0     C25677   1.182   5.570   7.311 -0.6124 -0.2389  0.0816
  953MOL0     C25678   1.097   5.588   7.194 -0.3710 -0.5434 -0.5623
  953MOL0     C25679   0.954   5.542   7.210  1.1194 -0.1257  0.2134
  953MOL0     C25680   0.891   5.584   7.337 -0.9400  0.2117  0.0854
  953MOL0     N25681   0.748   5.553   7.334 -0.7934  0.1341 -0.5115
  953MOL0     C25682   0.697   5.457   7.411 -0.2299 -0.1290 -0.6480
  953MOL0     C25683   0.568   5.455   7.374  0.1834 -0.0745  0.2774
  953MOL0     C25684   0.455   5.367   7.429  0.2082  0.0088  0.1137
  953MOL0     C25685   0.337   5.444   7.490  0.4356 -0.3452 -0.1691
  953MOL0     C25686   0.210   5.356   7.518  0.3557 -0.6529 -0.3844
  953MOL0     C25687   0.092   5.440   7.560 -0.9356  0.0999  0.7662
  953MOL0     O25688  -0.021   5.355   7.563 -0.5518  0.3587  0.2545
  953MOL0     C25689  -0.145   5.407   7.590 -0.3308 -0.5349 -0.7398
  953MOL0     C25690  -0.252   5.318   7.554 -0.1885 -0.4451  1.0346
  953MOL0     C25691  -0.383   5.350   7.595  0.3025 -0.5354  0.0290
  953MOL0     C25692  -0.410   5.467   7.658 -0.0208 -0.0455  0.0975
  953MOL0     C25693  -0.547   5.510   7.679  1.0487  0.2845 -0.2167
  953MOL0     O25694  -0.633   5.409   7.675  0.3726 -0.3803  0.1773
  953MOL0     C25695  -0.764   5.427   7.689  0.6925 -0.0534  0.1601
  953MOL0     C25696  -0.833   5.527   7.618 -0.7178 -0.6026 -0.1322
  953MOL0     C25697  -0.977   5.539   7.621 -0.4335 -0.2568  0.9595
  953MOL0     C25698  -1.047   5.437   7.688 -0.0087 -0.3681 -0.1418
  953MOL0     O25699  -1.182   5.438   7.704 -0.2077  0.3591 -0.1169
  953MOL0     C25700  -1.274   5.526   7.644  0.5163 -0.6262  0.3863
  953MOL0     C25701  -1.417   5.487   7.682  0.0097  0.4930  0.5892
  953MOL0     C25702  -1.459   5.548   7.810  0.5234 -0.2499 -0.4116
  953MOL0     C25703  -1.601   5.497   7.851  0.9692  0.2128  0.0458
  953MOL0     C25704  -1.639   5.555   7.997 -0.4241  1.0294 -0.2466
  953MOL0     C25705  -1.761   5.498   8.058  0.4861 -0.2256  0.4937
  953MOL0     C25706  -1.882   5.470   7.972 -0.1527  0.2820 -0.1434
  953MOL0     C25707  -1.958   5.594   7.925  0.0488 -0.0466  0.3346
  953MOL0    Cl25708  -2.006   5.703   8.059 -0.3105  0.5610  0.7287
  953MOL0     C25709  -0.975   5.348   7.772 -0.0842 -0.5885 -0.3543
  953MOL0     C25710  -0.829   5.345   7.770 -0.3802  0.0217  0.3893
  953MOL0     O25711  -0.572   5.616   7.728 -0.1806 -0.2158  0.1280
  953MOL0     C25712  -0.307   5.561   7.687 -0.3411  0.0413  0.1176
  953MOL0     C25713  -0.169   5.522   7.658  0.7247 -0.0615  0.6016
  953MOL0     N25714   0.548   5.564   7.285  0.1739  0.4924  0.0917
  953MOL0     N25715   0.659   5.611   7.252  0.6133 -0.0236 -0.2558
  953MOL0     C25716   1.951   5.831   7.518 -0.8841 -0.0835  0.1213
  953MOL0     C25717   2.084   5.809   7.559  0.0595  0.6293 -0.5484
  953MOL0     C25718   2.457   5.572   7.771  0.3339  0.9927  0.0526
  953MOL0     C25719   2.496   5.473   7.866 -0.7769  0.2689  0.0667
  953MOL0     C25720   2.627   5.458   7.898 -0.4911  0.2360 -0.1269
  953MOL0     C25721   2.722   5.535   7.839  0.3099 -1.1553 -0.0328
  953MOL0     O25722   2.860   5.521   7.856  0.5257 -0.4328 -0.5854
  953MOL0     C25723   2.917   5.446   7.962  0.1888 -0.5477  0.0769
  953MOL0     C25724   2.990   5.322   7.917 -0.0052 -0.2933 -0.3974
  953MOL0     C25725   3.114   5.356   7.830 -0.4678 -0.0872  0.2603
  953MOL0     C25726   3.191   5.232   7.806  0.3204  0.0151  0.6715
  953MOL0     C25727   3.309   5.266   7.721 -0.6295  0.2880 -1.2571
  953MOL0     C25728   3.392   5.299   7.639 -0.2901  0.6331 -0.2384
  953MOL0     C25729   2.688   5.623   7.736  0.0355 -0.1291 -0.2026
  953MOL0     C25730   2.560   5.642   7.699  0.2726 -0.1476  0.2113
  953MOL0     H25731   2.038   5.589   7.814  0.8281 -0.0420  0.3694
  953MOL0     H25732   1.802   5.610   7.714 -0.7299 -0.1174 -1.2081
  953MOL0     H25733   1.541   5.713   7.589  0.0351 -2.5040 -0.2872
  953MOL0     H25734   1.656   5.593   7.556 -0.8141 -0.5572  0.0324
  953MOL0     H25735   1.610   5.599   7.330 -1.2470 -1.7260  1.5448
  953MOL0     H25736   1.544   5.765   7.333 -0.2681  0.4264  0.5459
  953MOL0     H25737   1.355   5.695   7.467 -1.4697 -0.4081  0.2446
  953MOL0     H25738   1.417   5.526   7.473  0.4696 -0.1972  0.1161
  953MOL0     H25739   1.324   5.710   7.235 -1.0588 -0.7938 -0.5712
  953MOL0     H25740   1.384   5.550   7.211  1.0237  2.0759  1.0832
  953MOL0     H25741   1.135   5.639   7.382 -2.4487 -0.9188 -0.4229
  953MOL0     H25742   1.187   5.465   7.342  0.8215 -0.1639  0.1494
  953MOL0     H25743   1.135   5.521   7.117  1.0766 -1.4542  0.8809
  953MOL0     H25744   1.108   5.693   7.166  2.4320 -0.6726 -0.1990
  953MOL0     H25745   0.892   5.590   7.134  0.3707 -0.3934  0.6441
  953MOL0     H25746   0.946   5.433   7.199  2.6424 -0.1481 -0.9861
  953MOL0     H25747   0.903   5.692   7.345 -0.9643  0.2709 -0.6196
  953MOL0     H25748   0.941   5.537   7.423 -3.3498 -3.1966 -0.1657
  953MOL0     H25749   0.746   5.402   7.491 -3.9634 -1.6248  0.8575
  953MOL0     H25750   0.494   5.295   7.501  1.7023 -0.7363 -1.3692
  953MOL0     H25751   0.409   5.303   7.354  1.9105 -2.4704  1.0546
  953MOL0     H25752   0.302   5.512   7.411  0.5488  2.1443  1.7994
  953MOL0     H25753   0.358   5.510   7.575 -0.4245  0.6555 -0.7139
  953MOL0     H25754   0.173   5.292   7.437 -1.1663 -1.4263  0.8889
  953MOL0     H25755   0.221   5.274   7.589 -1.7999 -2.3429 -1.8621
  953MOL0     H25756   0.087   5.522   7.488 -0.3748 -2.3478 -2.2859
  953MOL0     H25757   0.108   5.482   7.660  3.9627 -0.0009  0.2861
  953MOL0     H25758  -0.230   5.223   7.507 -0.4995  0.9955 -2.2787
  953MOL0     H25759  -0.462   5.276   7.582  0.6142 -0.5484 -2.0969
  953MOL0     H25760  -0.766   5.586   7.555  1.2884  1.2867  3.4571
  953MOL0     H25761  -1.042   5.613   7.576 -1.2461 -1.1111  0.6835
  953MOL0     H25762  -1.259   5.551   7.538  0.8186 -0.4302  0.4726
  953MOL0     H25763  -1.244   5.621   7.690  4.2482 -2.0163  1.0844
  953MOL0     H25764  -1.413   5.378   7.683 -2.9137  0.3049  0.8187
  953MOL0     H25765  -1.487   5.508   7.599 -1.1211 -1.1669  1.0787
  953MOL0     H25766  -1.475   5.654   7.791 -2.7533 -0.8198 -1.5780
  953MOL0     H25767  -1.382   5.514   7.880  1.8021  1.9965 -0.6328
  953MOL0     H25768  -1.681   5.520   7.779  0.4401 -3.0785 -0.5698
  953MOL0     H25769  -1.586   5.389   7.851 -0.9741 -0.2731 -4.3594
  953MOL0     H25770  -1.649   5.663   8.004  1.8105  1.2160  1.2422
  953MOL0     H25771  -1.558   5.535   8.068 -1.3182  2.4776  1.2635
  953MOL0     H25772  -1.783   5.546   8.153 -0.5624 -2.7410  1.6233
  953MOL0     H25773  -1.736   5.396   8.088 -1.2089 -0.4064  1.4205
  953MOL0     H25774  -1.865   5.408   7.883 -1.7984 -0.8490  0.2811
  953MOL0     H25775  -1.952   5.422   8.040  0.7570 -0.8998  0.0008
  953MOL0     H25776  -2.050   5.563   7.874 -0.1633  1.0374  0.0210
  953MOL0     H25777  -1.896   5.657   7.860 -1.1979  0.6118 -0.2677
  953MOL0     H25778  -1.047   5.290   7.829 -0.2003  1.6447  1.9187
  953MOL0     H25779  -0.773   5.271   7.826  1.1399  1.1314  0.3813
  953MOL0     H25780  -0.321   5.659   7.731  0.7819  0.5256 -0.5674
  953MOL0     H25781  -0.086   5.588   7.683  1.1472  0.4670 -1.9781
  953MOL0     H25782   1.933   5.905   7.441  0.5319  1.1070  0.8775
  953MOL0     H25783   2.163   5.860   7.506 -0.1881 -0.5858 -2.1363
  953MOL0     H25784   2.413   5.413   7.903 -1.7492  1.2795 -0.4479
  953MOL0     H25785   2.664   5.377   7.960 -1.4108  0.6610  0.9997
  953MOL0     H25786   2.860   5.424   8.052  1.1171  2.7266  1.6137
  953MOL0     H25787   2.990   5.521   7.995 -0.8800  0.8440 -0.6011
  953MOL0     H25788   3.020   5.259   8.002 -2.1769  1.9725  2.2740
  953MOL0     H25789   2.921   5.258   7.861  0.1630 -2.4841  1.7065
  953MOL0     H25790   3.175   5.423   7.890 -3.4589  1.0504  2.2770
  953MOL0     H25791   3.090   5.402   7.734  1.1262 -1.3711 -0.8122
  953MOL0     H25792   3.218   5.190   7.903  1.5523  0.7596  0.6681
  953MOL0     H25793   3.136   5.158   7.747 -1.3534  1.5962  0.1412
  953MOL0     H25794   3.475   5.322   7.576 -0.2422  0.3092 -0.2949
  953MOL0     H25795   2.763   5.679   7.682 -1.9511  0.3284 -2.6488
  953MOL0     H25796   2.535   5.709   7.618  1.8041  1.3410  0.8989
  954MOL0     O25797   7.377   4.482   9.402  0.4792  0.3966 -0.1959
  954MOL0     C25798   7.322   4.381   9.367 -0.4542  0.6526  1.1217
  954MOL0     O25799   7.387   4.282   9.301 -0.1538 -0.5716  0.0438
  954MOL0     C25800   7.520   4.307   9.256 -0.1429  0.2633  0.0081
  954MOL0     C25801   7.546   4.281   9.122 -0.0475  0.0557 -0.4943
  954MOL0     C25802   7.664   4.321   9.055 -1.0480  0.4151 -0.0134
  954MOL0     C25803   7.768   4.370   9.124  0.0050  0.0875  0.3503
  954MOL0     O25804   7.881   4.406   9.055  0.9779  0.0381 -0.1926
  954MOL0     C25805   7.940   4.317   8.957  0.6459  0.0291 -0.0455
  954MOL0     C25806   8.021   4.216   9.032 -0.8456 -0.3742 -0.4151
  954MOL0     C25807   8.161   4.270   9.056 -0.2800  0.2075 -0.3108
  954MOL0     C25808   8.254   4.156   9.094  0.8891  0.6056 -0.6043
  954MOL0     C25809   8.402   4.206   9.078  0.1857  0.5202 -0.0079
  954MOL0     C25810   8.493   4.103   9.132 -0.1466 -0.4022  0.6324
  954MOL0     C25811   8.630   4.171   9.125 -0.3545  0.1004 -0.5138
  954MOL0     C25812   8.740   4.074   9.171  0.1608 -0.0127  0.6412
  954MOL0     N25813   8.730   4.051   9.313 -0.6219 -0.3436 -0.1582
  954MOL0     C25814   8.727   3.925   9.369 -0.5832 -0.6333 -0.2040
  954MOL0     C25815   8.750   3.958   9.503 -0.6171  0.3365  0.1139
  954MOL0     C25816   8.770   3.875   9.621 -0.4855  0.4101  0.2910
  954MOL0     C25817   8.644   3.807   9.690  0.0745  0.1618  0.0515
  954MOL0     C25818   8.580   3.699   9.597 -0.5123  0.0918 -0.6401
  954MOL0     C25819   8.453   3.643   9.663  0.7493 -0.6993 -0.3193
  954MOL0     O25820   8.342   3.748   9.647 -0.4059 -0.9281  0.9848
  954MOL0     C25821   8.225   3.727   9.705  1.0546 -0.3740 -0.0729
  954MOL0     C25822   8.152   3.846   9.740 -0.1012  0.0648 -0.4454
  954MOL0     C25823   8.035   3.846   9.809 -0.6517 -0.4041  0.3070
  954MOL0     C25824   7.979   3.725   9.846  0.3940 -0.2666  0.4992
  954MOL0     C25825   7.846   3.731   9.907  0.0986 -0.0634  0.2977
  954MOL0     O25826   7.785   3.854   9.909  0.4197  0.7406  0.1491
  954MOL0     C25827   7.656   3.863   9.960  0.6457  0.5567 -0.5456
  954MOL0     C25828   7.620   3.791  10.078  0.5485  0.0822 -0.3743
  954MOL0     C25829   7.490   3.818  10.131 -0.2908  0.7794  0.0018
  954MOL0     C25830   7.390   3.897  10.052  0.0347 -0.7837 -0.7394
  954MOL0     O25831   7.264   3.916  10.106  0.4554  0.2629  0.0149
  954MOL0     C25832   7.188   4.033  10.071 -1.1622  0.0344 -0.6406
  954MOL0     C25833   7.098   4.055  10.194 -0.3104  0.5227 -0.4271
  954MOL0     C25834   6.989   4.162  10.174  0.1875  0.2557 -0.3444
  954MOL0     C25835   6.872   4.164  10.270 -0.4500 -0.2500 -0.4433
  954MOL0     C25836   6.770   4.051  10.255 -0.4516 -0.4556 -0.2445
  954MOL0     C25837   6.647   4.064  10.354  0.2498 -0.4474 -0.4659
  954MOL0     C25838   6.545   3.946  10.335  0.0729  0.3050 -0.1770
  954MOL0     C25839   6.435   3.940  10.439  0.5468 -0.6067  0.8330
  954MOL0    Cl25840   6.407   3.770  10.494  0.2325 -0.4142 -0.4189
  954MOL0     C25841   7.432   3.948   9.933  0.1448  0.2261  0.4906
  954MOL0     C25842   7.565   3.933   9.883 -0.3732  0.2938 -0.6209
  954MOL0     O25843   7.786   3.623   9.919 -0.2625 -0.1235  0.4568
  954MOL0     C25844   8.039   3.602   9.806 -0.9137  0.3351 -0.3499
  954MOL0     C25845   8.162   3.607   9.739  0.2894  0.0580  0.8341
  954MOL0     N25846   8.755   4.090   9.517 -0.6380 -0.2851 -0.1245
  954MOL0     N25847   8.737   4.149   9.404  0.1630  0.0906  0.4318
  954MOL0     C25848   7.749   4.398   9.264  0.0216  0.8062  0.7301
  954MOL0     C25849   7.626   4.368   9.327  0.2325 -0.0034  0.0187
  954MOL0     C25850   7.181   4.363   9.384  0.5941  0.0694  0.6586
  954MOL0     C25851   7.102   4.453   9.462 -0.2129  0.4402 -0.5074
  954MOL0     C25852   6.963   4.443   9.476  0.2224  1.4257 -0.5875
  954MOL0     C25853   6.891   4.338   9.416  0.2815  0.1608  0.3058
  954MOL0     O25854   6.757   4.327   9.443  0.5677 -0.0746  0.6072
  954MOL0     C25855   6.674   4.328   9.326 -0.9600 -1.0120 -0.2562
  954MOL0     C25856   6.676   4.465   9.252 -0.3371  0.1590  0.1700
  954MOL0     C25857   6.637   4.590   9.340  0.3091  0.8896  0.8632
  954MOL0     C25858   6.615   4.719   9.252 -0.3881 -0.6455  0.5525
  954MOL0     C25859   6.490   4.713   9.179 -0.3200  0.8949 -0.0880
  954MOL0     C25860   6.387   4.711   9.116 -0.2871 -0.3595  0.2117
  954MOL0     C25861   6.969   4.238   9.353  0.1487  0.3258  0.2408
  954MOL0     C25862   7.109   4.258   9.329  0.1179  0.2828 -0.0622
  954MOL0     H25863   7.467   4.235   9.064 -4.1126  5.0897  0.2296
  954MOL0     H25864   7.673   4.298   8.949  1.6184  3.7961 -0.7290
  954MOL0     H25865   8.004   4.371   8.887  0.3952  0.0737 -0.2423
  954MOL0     H25866   7.863   4.262   8.903 -1.1524  0.2427  2.1505
  954MOL0     H25867   8.030   4.130   8.965 -2.6726  0.6480 -2.0790
  954MOL0     H25868   7.969   4.179   9.121 -3.7497 -3.3562 -3.0961
  954MOL0     H25869   8.169   4.342   9.138  1.6123 -1.1898  0.8113
  954MOL0     H25870   8.198   4.322   8.967 -1.3706  0.1375 -0.8207
  954MOL0     H25871   8.243   4.128   9.199  2.8608 -0.0585 -0.5431
  954MOL0     H25872   8.245   4.063   9.036  2.5071 -0.1079  0.2174
  954MOL0     H25873   8.409   4.303   9.128  1.1667  0.9793 -1.0022
  954MOL0     H25874   8.440   4.221   8.976  0.7114  2.6565  0.4524
  954MOL0     H25875   8.487   4.020   9.061  0.2319  1.5670 -1.8181
  954MOL0     H25876   8.471   4.074   9.235  0.9491 -1.1142  0.6748
  954MOL0     H25877   8.661   4.205   9.026  2.8540  2.6993  1.1547
  954MOL0     H25878   8.633   4.254   9.196 -2.3850 -1.8906  2.1088
  954MOL0     H25879   8.828   4.129   9.135 -1.0549  0.7796 -1.2485
  954MOL0     H25880   8.732   3.984   9.110 -0.5712  1.2245 -1.1660
  954MOL0     H25881   8.735   3.829   9.319  0.8168 -0.9799  0.6257
  954MOL0     H25882   8.812   3.936   9.701 -2.0908  2.3224 -0.2475
  954MOL0     H25883   8.846   3.799   9.599 -0.7571  0.8198 -2.4367
  954MOL0     H25884   8.570   3.886   9.705  0.2938  0.5066 -0.6517
  954MOL0     H25885   8.675   3.763   9.785 -0.5646  3.3629  1.8959
  954MOL0     H25886   8.559   3.741   9.498 -2.2360  0.9902  0.0572
  954MOL0     H25887   8.641   3.608   9.603 -0.4746  0.2305  2.2099
  954MOL0     H25888   8.468   3.616   9.768  0.8872  1.6904  0.3309
  954MOL0     H25889   8.431   3.555   9.602 -3.0510 -0.9363  1.1210
  954MOL0     H25890   8.189   3.943   9.708 -1.3678  0.9403  0.6380
  954MOL0     H25891   8.003   3.945   9.840  2.8045  0.6199  1.0634
  954MOL0     H25892   7.680   3.715  10.130 -0.5909 -1.1016 -0.7398
  954MOL0     H25893   7.455   3.749  10.207  0.6635  2.0397  1.6548
  954MOL0     H25894   7.127   4.027   9.980  0.7226 -1.6585 -1.8831
  954MOL0     H25895   7.253   4.119  10.052 -1.8433  0.8422  0.5428
  954MOL0     H25896   7.157   4.070  10.284 -1.7946 -0.8618  0.8246
  954MOL0     H25897   7.049   3.959  10.207  2.3351 -1.0276 -1.1422
  954MOL0     H25898   6.954   4.154  10.071  0.6905  0.6438 -0.5512
  954MOL0     H25899   7.039   4.260  10.181  1.4052 -0.3837  0.2861
  954MOL0     H25900   6.910   4.150  10.372 -2.0106  0.0999  0.2290
  954MOL0     H25901   6.832   4.264  10.255 -0.1969 -0.2793 -1.3354
  954MOL0     H25902   6.823   3.956  10.264 -0.3784 -0.8626 -3.5006
  954MOL0     H25903   6.743   4.052  10.149  0.3364 -0.8908 -0.4583
  954MOL0     H25904   6.592   4.159  10.345 -0.8470 -0.8743  1.2174
  954MOL0     H25905   6.675   4.066  10.460  2.3688 -0.0211 -0.9800
  954MOL0     H25906   6.498   3.952  10.236 -1.0303 -1.2924  0.2108
  954MOL0     H25907   6.611   3.859  10.343  1.7498  1.5054 -0.4976
  954MOL0     H25908   6.352   3.995  10.393  1.6185 -0.8609 -1.5162
  954MOL0     H25909   6.461   4.001  10.527  2.8301  0.8006 -0.7025
  954MOL0     H25910   7.362   3.999   9.867 -0.1560  1.5298  1.7651
  954MOL0     H25911   7.609   3.971   9.792 -3.5323  2.7694 -1.3333
  954MOL0     H25912   8.004   3.506   9.841  0.8544 -0.5950 -0.9893
  954MOL0     H25913   8.217   3.515   9.720 -3.7981 -2.4444 -0.2326
  954MOL0     H25914   7.825   4.450   9.322  0.3454 -0.0345  1.0753
  954MOL0     H25915   7.602   4.386   9.431 -1.5406  1.9545 -0.6623
  954MOL0     H25916   7.142   4.540   9.513 -1.9738 -0.6340  3.0490
  954MOL0     H25917   6.914   4.518   9.538 -1.3911  0.1770 -0.2695
  954MOL0     H25918   6.569   4.319   9.355 -0.7688  0.7303  1.0961
  954MOL0     H25919   6.695   4.240   9.264  0.8758 -1.7074  1.2495
  954MOL0     H25920   6.772   4.479   9.203 -0.5863  3.3659  0.4122
  954MOL0     H25921   6.600   4.450   9.174 -0.4643  0.7073  0.1892
  954MOL0     H25922   6.720   4.613   9.407 -1.2524  1.4518  2.6753
  954MOL0     H25923   6.545   4.571   9.395 -1.2452  1.6174 -1.3421
  954MOL0     H25924   6.626   4.813   9.307 -2.4751  1.4043 -2.2631
  954MOL0     H25925   6.696   4.725   9.178  0.8519 -0.2327  1.8895
  954MOL0     H25926   6.297   4.714   9.058  0.5391  0.2619 -1.0682
  954MOL0     H25927   6.934   4.141   9.320  1.6861 -0.0477 -0.3595
  954MOL0     H25928   7.154   4.173   9.278  0.1433 -1.7140  3.0265
  955MOL0     O25929  11.009   2.218   5.471 -0.9212 -0.0156  0.7785
  955MOL0     C25930  11.059   2.279   5.373 -0.2925  0.0844  0.2362
  955MOL0     O25931  11.004   2.312   5.263 -0.1585  0.0250  0.7519
  955MOL0     C25932  10.871   2.290   5.239 -0.4850  0.7487 -0.4397
  955MOL0     C25933  10.764   2.298   5.330 -0.5139 -0.7655  0.0226
  955MOL0     C25934  10.645   2.264   5.292  0.7116 -0.1741  0.2291
  955MOL0     C25935  10.612   2.230   5.163 -0.2784 -0.2238  0.5653
  955MOL0     O25936  10.480   2.206   5.141 -0.1080 -0.5024  0.1694
  955MOL0     C25937  10.441   2.113   5.039 -0.1045 -0.0374 -0.2230
  955MOL0     C25938  10.293   2.087   5.061  0.2145  0.0309  0.3437
  955MOL0     C25939  10.248   1.967   4.984  0.9483 -0.2863  0.3967
  955MOL0     C25940  10.231   1.994   4.824 -0.0264 -0.1827  0.0252
  955MOL0     C25941  10.139   2.106   4.782  0.6822  0.2471  0.1075
  955MOL0     C25942   9.985   2.080   4.803  1.0139 -0.2349  0.7004
  955MOL0     C25943   9.947   2.124   4.944 -0.5669 -0.5969 -0.9869
  955MOL0     C25944   9.792   2.112   4.967  0.0013  0.1342 -0.7034
  955MOL0     N25945   9.752   2.209   5.070 -0.5129  0.7245  0.5433
  955MOL0     C25946   9.718   2.341   5.069 -0.1251 -0.2070  0.6495
  955MOL0     C25947   9.710   2.382   5.198  0.2536  0.7795  0.0897
  955MOL0     C25948   9.684   2.516   5.253  0.2568  0.5025 -0.0099
  955MOL0     C25949   9.553   2.514   5.330 -0.4885  0.3202 -0.6777
  955MOL0     C25950   9.507   2.648   5.372 -0.1861  0.0646 -0.0364
  955MOL0     C25951   9.367   2.634   5.441 -0.7557  0.4283  0.4842
  955MOL0     O25952   9.347   2.763   5.496  0.4046 -0.8485 -0.0647
  955MOL0     C25953   9.221   2.802   5.544  0.8966  0.0287  0.5303
  955MOL0     C25954   9.193   2.930   5.578  0.5513 -0.1629 -0.1870
  955MOL0     C25955   9.076   2.964   5.645  0.1685  0.2057  0.2562
  955MOL0     C25956   8.971   2.870   5.661  0.0830 -0.1197 -0.5863
  955MOL0     C25957   8.847   2.909   5.736  0.3222  0.1313  0.0885
  955MOL0     O25958   8.842   3.038   5.773  0.8308 -0.3340  0.4048
  955MOL0     C25959   8.722   3.075   5.827 -0.2924  0.0307 -0.3160
  955MOL0     C25960   8.611   3.119   5.747 -0.1846  0.3839 -0.0684
  955MOL0     C25961   8.488   3.149   5.806  0.1438  0.2499  0.9295
  955MOL0     C25962   8.479   3.159   5.946 -0.3583  0.4559 -0.0833
  955MOL0     O25963   8.359   3.206   6.006  0.0673 -0.5220  0.0263
  955MOL0     C25964   8.252   3.120   5.969  1.0691  0.1176  0.9479
  955MOL0     C25965   8.117   3.175   6.021  0.4236 -0.3540 -0.1113
  955MOL0     C25966   7.992   3.091   5.992  0.1075  0.9867 -0.5888
  955MOL0     C25967   7.858   3.137   6.045  0.1937 -0.6277  0.4154
  955MOL0     C25968   7.747   3.048   5.985  0.2455  0.5449 -0.6915
  955MOL0     C25969   7.610   3.096   6.033  0.4296 -0.1186 -0.6387
  955MOL0     C25970   7.514   2.984   5.992  0.5618  0.6354 -0.0420
  955MOL0     C25971   7.368   3.029   6.009 -0.3089  0.3096 -0.2729
  955MOL0    Cl25972   7.263   2.896   5.943  0.2435  0.8640  0.9037
  955MOL0     C25973   8.584   3.120   6.029 -0.1393  0.5911 -0.4115
  955MOL0     C25974   8.706   3.072   5.968  1.1177  0.1543  0.2159
  955MOL0     O25975   8.766   2.820   5.768 -0.0710  0.5005 -0.1048
  955MOL0     C25976   9.000   2.738   5.621  0.1202 -0.7684  0.0917
  955MOL0     C25977   9.123   2.705   5.565 -0.2510 -0.8639 -1.3811
  955MOL0     N25978   9.728   2.268   5.275  0.8347  0.2445  0.1071
  955MOL0     N25979   9.753   2.170   5.202  0.4926  0.6427 -0.0801
  955MOL0     C25980  10.725   2.211   5.068  0.4045 -0.0038  0.4764
  955MOL0     C25981  10.855   2.235   5.109  0.2494  0.3381  0.8818
  955MOL0     C25982  11.204   2.306   5.382 -0.6459 -0.4565 -0.1082
  955MOL0     C25983  11.278   2.351   5.265 -0.5671 -0.0531 -0.3388
  955MOL0     C25984  11.414   2.368   5.274 -0.7430 -0.3230  0.3855
  955MOL0     C25985  11.476   2.377   5.396 -0.2357  0.0704 -0.2280
  955MOL0     O25986  11.591   2.445   5.399 -0.0350  0.7938  0.2003
  955MOL0     C25987  11.700   2.356   5.414 -1.1060 -0.6843 -0.1838
  955MOL0     C25988  11.822   2.434   5.450  0.4535  0.2770 -0.6273
  955MOL0     C25989  11.785   2.544   5.564 -0.1325 -0.4006  0.2984
  955MOL0     C25990  11.915   2.578   5.636  0.1438 -0.4220 -0.4162
  955MOL0     C25991  12.009   2.642   5.537  0.4030  0.1589 -0.2284
  955MOL0     C25992  12.072   2.702   5.451  0.1994 -0.7357 -1.0725
  955MOL0     C25993  11.413   2.329   5.509  1.0479 -0.4026 -0.4695
  955MOL0     C25994  11.279   2.285   5.505  0.3779 -0.5428  1.0235
  955MOL0     H25995  10.780   2.336   5.431 -1.0742 -1.7761  0.5122
  955MOL0     H25996  10.568   2.274   5.368 -1.2705 -0.6828 -1.5987
  955MOL0     H25997  10.494   2.018   5.045 -0.8010 -0.5748 -1.8570
  955MOL0     H25998  10.463   2.155   4.940 -1.5327 -1.4683 -1.1914
  955MOL0     H25999  10.237   2.180   5.052 -1.7961 -1.1916 -0.4792
  955MOL0     H26000  10.283   2.059   5.167 -0.9989  1.0958  0.5282
  955MOL0     H26001  10.153   1.928   5.020 -0.7842  4.5295  1.7150
  955MOL0     H26002  10.321   1.885   4.990  1.5226  0.2611  1.1764
  955MOL0     H26003  10.332   2.021   4.793  0.2594  1.1813  1.9547
  955MOL0     H26004  10.194   1.904   4.773 -1.8447 -1.6956  3.6120
  955MOL0     H26005  10.151   2.122   4.675  1.0737  1.3463  0.3060
  955MOL0     H26006  10.167   2.206   4.815  0.9106 -0.4031  2.0098
  955MOL0     H26007   9.955   1.978   4.777  1.7033 -0.1862 -0.3022
  955MOL0     H26008   9.936   2.154   4.739 -0.9827 -1.7564  0.3698
  955MOL0     H26009  10.006   2.073   5.021 -0.3682  1.9234  0.6261
  955MOL0     H26010   9.985   2.226   4.944 -1.3462 -0.3021 -0.1156
  955MOL0     H26011   9.768   2.010   4.998 -4.0636  1.3686  0.9316
  955MOL0     H26012   9.746   2.133   4.870 -0.6717  1.2439 -0.1764
  955MOL0     H26013   9.708   2.399   4.978  1.8308 -0.2885  0.3407
  955MOL0     H26014   9.663   2.590   5.176  0.4518  0.9703  0.3828
  955MOL0     H26015   9.774   2.533   5.312  1.3815 -3.0074 -0.4872
  955MOL0     H26016   9.572   2.461   5.424  0.4233 -0.2534 -1.1641
  955MOL0     H26017   9.479   2.459   5.272  0.1329 -1.4808  0.1560
  955MOL0     H26018   9.578   2.692   5.443 -0.5459 -1.8396  1.5996
  955MOL0     H26019   9.484   2.714   5.288 -2.5952  1.1774  1.3771
  955MOL0     H26020   9.376   2.568   5.527 -0.9697  2.0074  1.7575
  955MOL0     H26021   9.281   2.605   5.379 -0.0511 -1.5006  0.3356
  955MOL0     H26022   9.268   3.006   5.559  1.2186 -1.1194 -1.6460
  955MOL0     H26023   9.077   3.065   5.685  0.3599 -0.1870  1.2761
  955MOL0     H26024   8.611   3.113   5.638 -1.2487 -0.6221 -0.0364
  955MOL0     H26025   8.409   3.182   5.739 -0.9388  1.8991  2.8970
  955MOL0     H26026   8.275   3.028   6.022  0.2056 -1.1536 -0.7851
  955MOL0     H26027   8.241   3.093   5.863 -0.8603  3.3539  0.1631
  955MOL0     H26028   8.095   3.274   5.980  0.7674 -0.5762 -0.8414
  955MOL0     H26029   8.130   3.183   6.130 -0.3162  0.6634 -0.0816
  955MOL0     H26030   8.015   2.988   6.023 -1.1213  0.7976 -0.2641
  955MOL0     H26031   7.985   3.083   5.883  1.9683 -1.6702 -0.6197
  955MOL0     H26032   7.860   3.135   6.154 -1.5483  0.2754  0.5093
  955MOL0     H26033   7.836   3.242   6.023 -0.2087 -0.1326  2.8595
  955MOL0     H26034   7.772   2.949   6.024  1.2014  0.4974 -1.4142
  955MOL0     H26035   7.755   3.044   5.876  2.8385 -1.2895 -0.5312
  955MOL0     H26036   7.594   3.192   5.982  4.5129  2.2685  1.9544
  955MOL0     H26037   7.598   3.104   6.141 -1.2421 -2.0510 -0.6213
  955MOL0     H26038   7.519   2.964   5.884 -0.2589 -0.1422  0.0448
  955MOL0     H26039   7.528   2.887   6.040  0.0885  2.0106  3.0941
  955MOL0     H26040   7.339   3.124   5.964 -3.3495 -0.4932 -0.2745
  955MOL0     H26041   7.338   3.047   6.112  0.9644  0.0143  0.1658
  955MOL0     H26042   8.573   3.125   6.137 -3.2135 -2.1219 -0.4224
  955MOL0     H26043   8.799   3.065   6.025  0.7168 -0.8968  0.7669
  955MOL0     H26044   8.925   2.663   5.643 -2.7442  1.9334  0.1439
  955MOL0     H26045   9.152   2.601   5.553  0.9882 -0.7607  0.2897
  955MOL0     H26046  10.704   2.198   4.962  2.0343 -3.0173  0.4006
  955MOL0     H26047  10.938   2.221   5.040  1.1770 -0.2899  2.1003
  955MOL0     H26048  11.231   2.383   5.172 -0.2916  0.9364 -0.1478
  955MOL0     H26049  11.460   2.409   5.186  2.6056  1.2561  2.6598
  955MOL0     H26050  11.705   2.312   5.314 -3.9472  1.0278 -1.2033
  955MOL0     H26051  11.666   2.287   5.491 -1.5525 -0.5501 -0.2537
  955MOL0     H26052  11.900   2.364   5.480  0.9538  0.8803 -0.5127
  955MOL0     H26053  11.855   2.483   5.357  0.5251  0.9694 -0.2448
  955MOL0     H26054  11.717   2.507   5.641  0.5218  1.0942  1.6455
  955MOL0     H26055  11.743   2.627   5.507  0.2613 -1.1342 -1.0961
  955MOL0     H26056  11.895   2.644   5.721  0.2616 -2.3498  1.1588
  955MOL0     H26057  11.957   2.496   5.694  1.1617  1.0768  1.0626
  955MOL0     H26058  12.106   2.775   5.379  2.3004 -0.1686  0.3908
  955MOL0     H26059  11.457   2.320   5.608 -0.4107  0.2174  0.2720
  955MOL0     H26060  11.237   2.237   5.593  2.3421 -0.1346  2.2227
  956MOL0     O26061   2.831   5.459   4.503 -0.3432  0.6152  0.1696
  956MOL0     C26062   2.748   5.521   4.567 -0.8140  0.0049  0.0873
  956MOL0     O26063   2.617   5.483   4.585  0.2109  0.1515  0.3601
  956MOL0     C26064   2.558   5.382   4.522  0.0348 -0.1944 -0.1987
  956MOL0     C26065   2.611   5.270   4.455  0.2035 -0.4942 -0.5825
  956MOL0     C26066   2.541   5.179   4.373  0.6137  0.1016 -0.3516
  956MOL0     C26067   2.407   5.206   4.353 -0.1657  0.0334 -0.3589
  956MOL0     O26068   2.336   5.129   4.268  0.1400 -0.2072 -0.1894
  956MOL0     C26069   2.196   5.139   4.270  0.2329  0.5631  0.2311
  956MOL0     C26070   2.145   5.054   4.153  0.1448  0.8374 -0.8775
  956MOL0     C26071   1.985   5.066   4.120  0.3157 -0.4750 -0.0436
  956MOL0     C26072   1.901   5.040   4.242  0.3009 -0.7247  0.8615
  956MOL0     C26073   1.751   5.035   4.207 -0.2822 -0.7868  0.8482
  956MOL0     C26074   1.682   5.155   4.150 -0.6028  0.1739  0.0716
  956MOL0     C26075   1.532   5.125   4.114  0.7510  0.0917 -0.5093
  956MOL0     C26076   1.457   5.263   4.092  0.3760 -0.3048  0.0922
  956MOL0     N26077   1.319   5.226   4.053 -0.0351  0.7735 -0.5400
  956MOL0     C26078   1.204   5.231   4.137 -0.3833  0.2676  0.3565
  956MOL0     C26079   1.103   5.218   4.045  0.6602 -0.1764  0.5051
  956MOL0     C26080   0.959   5.232   4.083  0.4269  0.0348 -0.6372
  956MOL0     C26081   0.877   5.144   4.004 -0.5821 -0.6844 -0.7346
  956MOL0     C26082   0.735   5.184   4.048 -0.0191  0.6981 -0.1060
  956MOL0     C26083   0.631   5.123   3.959 -0.3741  0.3876 -0.1443
  956MOL0     O26084   0.502   5.140   4.015 -0.1919 -0.2783  0.0251
  956MOL0     C26085   0.394   5.107   3.940  0.2001 -0.1119  0.7267
  956MOL0     C26086   0.275   5.109   4.008  0.4493  0.3798  0.3321
  956MOL0     C26087   0.150   5.082   3.953  0.4958  0.3746  0.9149
  956MOL0     C26088   0.140   5.047   3.817  0.3213 -0.1093 -0.4396
  956MOL0     C26089   0.013   5.023   3.738 -0.8468 -0.2341  0.4321
  956MOL0     O26090  -0.106   5.011   3.805  0.0527 -0.2862 -0.5018
  956MOL0     C26091  -0.229   5.038   3.745  0.3689 -0.2320  0.0037
  956MOL0     C26092  -0.334   4.952   3.794 -0.9408  0.4355  0.1602
  956MOL0     C26093  -0.463   4.973   3.733  0.0321  0.3584 -0.2522
  956MOL0     C26094  -0.479   5.066   3.633  0.0293  0.2931 -0.8082
  956MOL0     O26095  -0.599   5.084   3.569 -0.5259 -0.1078  0.7173
  956MOL0     C26096  -0.610   5.032   3.433 -0.0619  0.0852  0.6116
  956MOL0     C26097  -0.652   4.879   3.443  0.3421 -0.3508  0.0735
  956MOL0     C26098  -0.792   4.874   3.508 -0.6955  0.4313 -0.5670
  956MOL0     C26099  -0.895   4.951   3.439  0.3937  1.0693 -0.1032
  956MOL0     C26100  -1.035   4.910   3.476 -0.7298  0.4806  0.2188
  956MOL0     C26101  -1.127   4.990   3.374  0.7423 -0.3184  0.0567
  956MOL0     C26102  -1.272   4.955   3.390  0.3139  0.8834 -0.5015
  956MOL0     C26103  -1.344   5.057   3.481 -0.3953 -0.5566  0.4830
  956MOL0    Cl26104  -1.295   5.028   3.651 -0.3067 -0.0130  0.3393
  956MOL0     C26105  -0.373   5.155   3.596  0.2586 -0.1419  0.2570
  956MOL0     C26106  -0.250   5.144   3.653  0.8220  0.2958 -0.3964
  956MOL0     O26107   0.032   5.025   3.613 -0.2360  0.2149 -0.2325
  956MOL0     C26108   0.267   5.042   3.745 -0.2052  0.9135  0.1391
  956MOL0     C26109   0.387   5.078   3.801 -0.4803 -0.6886 -0.4616
  956MOL0     N26110   1.157   5.208   3.919 -0.3676 -0.2388  0.7480
  956MOL0     N26111   1.285   5.226   3.926  0.4064  0.1380 -0.2216
  956MOL0     C26112   2.350   5.310   4.426 -0.4010  0.9794 -0.1579
  956MOL0     C26113   2.420   5.399   4.502 -0.1114 -0.0528 -0.1866
  956MOL0     C26114   2.793   5.646   4.631 -0.1875 -1.6962  0.6389
  956MOL0     C26115   2.704   5.713   4.720 -0.3314  0.3896 -0.5733
  956MOL0     C26116   2.734   5.842   4.770  0.6795 -0.1797 -0.9351
  956MOL0     C26117   2.861   5.901   4.745 -0.3973 -0.3575  0.5187
  956MOL0     O26118   2.910   6.009   4.819  0.1683 -0.1040 -0.2491
  956MOL0     C26119   2.834   6.072   4.927  0.2800  0.3610 -0.1994
  956MOL0     C26120   2.898   6.200   4.984 -0.5628 -0.4062 -0.0116
  956MOL0     C26121   3.042   6.152   5.035  0.8681  0.2828 -0.2777
  956MOL0     C26122   3.085   6.223   5.163  0.3526 -0.3279  0.7159
  956MOL0     C26123   2.987   6.223   5.272  0.6162 -0.9812 -0.2835
  956MOL0     C26124   2.898   6.221   5.361 -0.5665  0.4363  0.6339
  956MOL0     C26125   2.947   5.841   4.654 -0.0737  0.3125 -0.0992
  956MOL0     C26126   2.912   5.714   4.598  0.7887  0.7175  0.3202
  956MOL0     H26127   2.715   5.255   4.480  0.3933  0.9763 -0.3571
  956MOL0     H26128   2.594   5.091   4.337  0.8316 -0.4250  1.1549
  956MOL0     H26129   2.152   5.237   4.250 -2.1532 -0.9046 -2.4457
  956MOL0     H26130   2.152   5.103   4.363  1.2540 -1.0582  0.1145
  956MOL0     H26131   2.168   4.951   4.180 -0.4122  1.8655  4.8783
  956MOL0     H26132   2.194   5.084   4.060  1.7796  0.1269 -0.2846
  956MOL0     H26133   1.962   4.991   4.044 -1.2547 -0.5446  0.4630
  956MOL0     H26134   1.963   5.168   4.088  2.0276 -0.1768 -0.3275
  956MOL0     H26135   1.937   4.952   4.295  0.9144  0.9151  3.3410
  956MOL0     H26136   1.910   5.127   4.308 -1.1892 -1.2590  1.8135
  956MOL0     H26137   1.703   5.017   4.304 -0.8877  0.5812  0.8251
  956MOL0     H26138   1.732   4.953   4.136  1.3692 -2.9419  2.7774
  956MOL0     H26139   1.731   5.177   4.055 -1.6362  0.2623 -0.4541
  956MOL0     H26140   1.685   5.242   4.216  1.3067 -0.2775  0.6708
  956MOL0     H26141   1.530   5.067   4.022  2.5664  1.8164 -1.7206
  956MOL0     H26142   1.483   5.067   4.193 -1.4325  1.1064 -1.0248
  956MOL0     H26143   1.496   5.322   4.008  0.9326  3.8228  2.9399
  956MOL0     H26144   1.458   5.330   4.179 -1.0895 -1.4981  1.0676
  956MOL0     H26145   1.204   5.246   4.245 -1.2161  0.3269  0.3494
  956MOL0     H26146   0.934   5.335   4.058 -3.7016 -0.5936  0.1601
  956MOL0     H26147   0.948   5.208   4.189  1.1384  2.2717 -0.0096
  956MOL0     H26148   0.902   5.038   4.011 -0.8573 -0.6416  1.5966
  956MOL0     H26149   0.890   5.178   3.900  0.3551  0.5309 -0.2520
  956MOL0     H26150   0.716   5.164   4.154  0.1376  0.5372 -0.1082
  956MOL0     H26151   0.726   5.293   4.047  0.6787  0.7672 -1.7032
  956MOL0     H26152   0.636   5.014   3.955 -1.8122  0.3273 -2.0665
  956MOL0     H26153   0.646   5.161   3.857 -2.9553 -1.8654 -1.5009
  956MOL0     H26154   0.285   5.136   4.113  0.3097 -0.7855  0.6646
  956MOL0     H26155   0.071   5.084   4.028  1.2724 -4.4626  2.1878
  956MOL0     H26156  -0.311   4.879   3.871  4.1851  2.5081  0.9699
  956MOL0     H26157  -0.547   4.916   3.770  1.8141 -0.6029  2.5954
  956MOL0     H26158  -0.514   5.045   3.381 -1.1167  1.5845 -1.0669
  956MOL0     H26159  -0.677   5.096   3.375  3.1992  3.2624 -0.0273
  956MOL0     H26160  -0.580   4.822   3.501 -0.1549 -0.3584  0.7022
  956MOL0     H26161  -0.650   4.838   3.342 -3.5370 -1.7099  0.3729
  956MOL0     H26162  -0.787   4.912   3.611  2.1961 -2.0855  0.3704
  956MOL0     H26163  -0.831   4.772   3.512  0.6033 -0.0665  2.7423
  956MOL0     H26164  -0.879   5.056   3.467  1.7228  0.9558 -0.3460
  956MOL0     H26165  -0.877   4.945   3.331  1.1752  0.5417  0.0488
  956MOL0     H26166  -1.074   4.947   3.571 -4.7914  0.1195 -1.1077
  956MOL0     H26167  -1.046   4.802   3.468 -0.0419 -0.0857  4.4713
  956MOL0     H26168  -1.090   4.958   3.276  2.4346  1.4898  0.0507
  956MOL0     H26169  -1.113   5.098   3.378 -0.7277 -0.1420  1.6049
  956MOL0     H26170  -1.311   4.958   3.288  0.3833  1.0072 -0.5241
  956MOL0     H26171  -1.284   4.852   3.426 -0.8624  0.5192 -1.8525
  956MOL0     H26172  -1.452   5.053   3.465 -0.1442 -4.4496 -1.2086
  956MOL0     H26173  -1.315   5.157   3.446 -2.1040 -0.3357 -0.4043
  956MOL0     H26174  -0.397   5.224   3.516  0.9587 -2.1036 -1.7422
  956MOL0     H26175  -0.173   5.214   3.622 -1.3141  1.3871 -3.8198
  956MOL0     H26176   0.267   5.021   3.638  0.5915 -1.0192  0.4787
  956MOL0     H26177   0.485   5.091   3.756 -0.4660 -2.2502 -0.9361
  956MOL0     H26178   2.243   5.329   4.426 -0.8543 -1.2111  1.4518
  956MOL0     H26179   2.359   5.472   4.554  3.6573  2.0530  1.6413
  956MOL0     H26180   2.606   5.673   4.744 -0.2982  0.5836 -0.0856
  956MOL0     H26181   2.657   5.893   4.827  0.1963 -0.0959 -1.6451
  956MOL0     H26182   2.822   5.998   5.006  1.5267  1.5463  1.1666
  956MOL0     H26183   2.736   6.093   4.882  1.2955 -2.1330 -4.0683
  956MOL0     H26184   2.906   6.277   4.907 -0.8094 -0.6944 -0.3241
  956MOL0     H26185   2.836   6.242   5.065 -1.4118 -0.7222 -0.4809
  956MOL0     H26186   3.114   6.168   4.954 -0.2394 -0.1997 -1.3906
  956MOL0     H26187   3.041   6.048   5.068  0.7100  0.6340  0.8620
  956MOL0     H26188   3.182   6.192   5.203  0.0576  1.4278  2.9171
  956MOL0     H26189   3.098   6.329   5.139  1.3509 -0.5814  0.0437
  956MOL0     H26190   2.831   6.216   5.444  0.2419  1.5003  1.3677
  956MOL0     H26191   3.047   5.878   4.638  0.6288 -0.4571  2.1741
  956MOL0     H26192   2.976   5.664   4.526 -0.7469  1.5445 -1.7124
  957MOL0     O26193   9.007   2.715   4.136 -0.1447  0.1580 -0.5835
  957MOL0     C26194   9.118   2.723   4.186  0.2861 -0.2408 -0.6296
  957MOL0     O26195   9.145   2.764   4.315 -0.4622  0.1835 -0.4581
  957MOL0     C26196   9.050   2.794   4.401  1.0550  0.3583 -0.5328
  957MOL0     C26197   9.004   2.919   4.423 -0.4202  0.7875  0.7199
  957MOL0     C26198   8.920   2.945   4.531  0.6746  0.3909 -0.8132
  957MOL0     C26199   8.870   2.847   4.619  0.4892  0.0394  0.3944
  957MOL0     O26200   8.780   2.868   4.723  0.3748  0.3510  0.1698
  957MOL0     C26201   8.653   2.814   4.693  0.9537  0.2503  0.9289
  957MOL0     C26202   8.559   2.824   4.817 -0.0333  0.2222 -0.0273
  957MOL0     C26203   8.424   2.753   4.800 -0.1558  0.4059  0.1436
  957MOL0     C26204   8.340   2.769   4.922  1.0861 -0.7168 -0.3118
  957MOL0     C26205   8.194   2.736   4.910  0.0527 -0.2382 -0.5210
  957MOL0     C26206   8.106   2.815   5.006 -0.3203 -0.6742 -0.3788
  957MOL0     C26207   7.954   2.798   4.986  0.1498  1.1127 -0.5675
  957MOL0     C26208   7.893   2.651   5.024 -0.4757 -0.1777 -0.2669
  957MOL0     N26209   7.747   2.636   5.019  0.2749  0.2601 -0.0625
  957MOL0     C26210   7.674   2.623   5.134  0.0742 -0.2733  0.4732
  957MOL0     C26211   7.548   2.600   5.087 -0.1803  0.3412 -0.3045
  957MOL0     C26212   7.425   2.563   5.170 -0.2128 -0.2572 -0.2521
  957MOL0     C26213   7.294   2.625   5.114 -0.4299 -0.5445 -0.0024
  957MOL0     C26214   7.173   2.610   5.220  1.0865 -0.8397  0.2914
  957MOL0     C26215   7.037   2.655   5.153 -0.8808  0.8089 -0.5055
  957MOL0     O26216   6.924   2.600   5.217 -0.5202  0.3614  0.1547
  957MOL0     C26217   6.816   2.561   5.140  0.6543  1.0651  0.5452
  957MOL0     C26218   6.827   2.465   5.036  0.0637  0.3593  0.0704
  957MOL0     C26219   6.713   2.408   4.971  0.7031  0.5607  0.3976
  957MOL0     C26220   6.576   2.452   4.999 -0.4531 -0.1193  0.2290
  957MOL0     C26221   6.450   2.413   4.925 -0.3272  0.0149 -0.4748
  957MOL0     O26222   6.328   2.456   4.972 -1.0034  0.2441  0.0777
  957MOL0     C26223   6.225   2.452   4.882  0.3389  0.1625 -0.7210
  957MOL0     C26224   6.113   2.364   4.902 -0.8634  0.5847 -0.7874
  957MOL0     C26225   6.008   2.357   4.813 -0.2363 -0.0520 -0.1760
  957MOL0     C26226   6.011   2.440   4.695 -0.8597 -1.0267 -0.2842
  957MOL0     O26227   5.910   2.423   4.595 -0.8198  0.0536  0.3694
  957MOL0     C26228   5.848   2.553   4.571  0.7041  0.4722  0.0568
  957MOL0     C26229   5.799   2.578   4.427  0.1966  0.7252 -0.0480
  957MOL0     C26230   5.707   2.475   4.370 -0.2592 -0.5691  0.1204
  957MOL0     C26231   5.705   2.480   4.217  0.5662 -0.1055 -0.2714
  957MOL0     C26232   5.594   2.392   4.146  0.8973  0.2486  0.3335
  957MOL0     C26233   5.614   2.245   4.174  1.2265 -0.3158 -0.4202
  957MOL0     C26234   5.507   2.177   4.081  1.3367  0.4185 -0.3486
  957MOL0     C26235   5.374   2.174   4.169 -0.5214  0.0853 -0.2533
  957MOL0    Cl26236   5.282   2.029   4.114 -0.4214 -0.3283  0.3170
  957MOL0     C26237   6.121   2.524   4.673  0.1952 -0.3873  0.8589
  957MOL0     C26238   6.222   2.534   4.763 -0.6111 -0.0957 -1.0474
  957MOL0     O26239   6.462   2.336   4.831 -0.0619 -0.3295  0.5219
  957MOL0     C26240   6.581   2.546   5.103  0.4083  0.4629  0.1007
  957MOL0     C26241   6.688   2.597   5.181  1.0270 -0.3610  0.0321
  957MOL0     N26242   7.560   2.576   4.953 -0.3466 -0.2208  0.0188
  957MOL0     N26243   7.677   2.612   4.905  0.4556  0.7790  0.1485
  957MOL0     C26244   8.917   2.719   4.601 -0.1122 -0.0834 -0.4095
  957MOL0     C26245   9.009   2.697   4.495 -0.4103  0.3344  0.1365
  957MOL0     C26246   9.237   2.686   4.110 -1.1759 -0.0474  0.6943
  957MOL0     C26247   9.371   2.698   4.165 -0.0412 -0.6789 -0.1968
  957MOL0     C26248   9.486   2.679   4.090 -0.8579  0.9917  0.8517
  957MOL0     C26249   9.476   2.640   3.956  0.7379 -0.6651 -0.1160
  957MOL0     O26250   9.584   2.614   3.874 -0.4437  0.1160 -0.0571
  957MOL0     C26251   9.721   2.612   3.920 -0.1007  0.4190  0.2429
  957MOL0     C26252   9.776   2.754   3.906 -1.2206  0.3106 -0.0084
  957MOL0     C26253   9.904   2.750   3.820  0.3326 -0.3801  0.0053
  957MOL0     C26254   9.993   2.872   3.843 -0.7556 -0.4034 -0.3827
  957MOL0     C26255  10.116   2.864   3.763 -0.0732  0.6578  0.5653
  957MOL0     C26256  10.227   2.846   3.719 -0.5231 -1.0400  0.7643
  957MOL0     C26257   9.353   2.627   3.895 -0.2516 -0.2748 -0.4299
  957MOL0     C26258   9.236   2.636   3.974  0.2816 -0.3922 -0.9088
  957MOL0     H26259   9.034   3.003   4.361 -1.4263  1.1868  0.7494
  957MOL0     H26260   8.876   3.041   4.557  0.2485 -0.1734  0.6562
  957MOL0     H26261   8.658   2.709   4.664 -0.0054 -0.0452  1.7294
  957MOL0     H26262   8.612   2.866   4.606  2.5567 -1.5146 -0.9749
  957MOL0     H26263   8.544   2.931   4.837  0.9955  0.2811  0.4952
  957MOL0     H26264   8.612   2.796   4.909  0.6855  2.6696  0.3881
  957MOL0     H26265   8.445   2.647   4.783  0.0834  0.9152 -3.5702
  957MOL0     H26266   8.373   2.782   4.708 -0.9692  0.4783  0.6018
  957MOL0     H26267   8.384   2.713   5.005  3.8582 -0.3469 -1.3986
  957MOL0     H26268   8.343   2.871   4.963  1.8735 -1.3150  1.1991
  957MOL0     H26269   8.177   2.630   4.931 -0.5738  0.3963  2.8466
  957MOL0     H26270   8.160   2.755   4.808 -2.6665  0.5516  0.4205
  957MOL0     H26271   8.148   2.913   4.984  4.0750 -2.1926  0.2409
  957MOL0     H26272   8.125   2.797   5.112  0.2845  1.0040 -0.1661
  957MOL0     H26273   7.904   2.878   5.041  1.7931 -0.3413  3.3547
  957MOL0     H26274   7.933   2.817   4.880  0.9024  3.3141 -0.3760
  957MOL0     H26275   7.938   2.633   5.123  0.8938  0.4375 -0.7516
  957MOL0     H26276   7.939   2.572   4.964 -0.3818 -0.4179  0.1149
  957MOL0     H26277   7.696   2.635   5.239  0.0905  0.4342  0.3886
  957MOL0     H26278   7.443   2.593   5.274  1.4117 -1.5873 -0.0969
  957MOL0     H26279   7.414   2.454   5.166 -1.9210 -0.1766  0.9895
  957MOL0     H26280   7.264   2.563   5.029 -0.4926 -0.5716  0.0388
  957MOL0     H26281   7.316   2.729   5.088 -2.5874  0.2613  1.1324
  957MOL0     H26282   7.156   2.504   5.243 -0.2432 -0.2658  2.1286
  957MOL0     H26283   7.205   2.668   5.307  0.2357  3.1170 -1.8076
  957MOL0     H26284   7.042   2.620   5.049  0.4461  3.1866 -1.3375
  957MOL0     H26285   7.034   2.764   5.161 -0.5542  0.9656 -2.0794
  957MOL0     H26286   6.931   2.436   5.026 -0.0034  0.4093 -0.9532
  957MOL0     H26287   6.729   2.336   4.891 -1.4554  0.4657 -0.0048
  957MOL0     H26288   6.101   2.306   4.993  1.9324  1.8358  0.5169
  957MOL0     H26289   5.934   2.280   4.832  0.2934 -0.0440  2.2319
  957MOL0     H26290   5.919   2.634   4.590  0.2090  0.7292  0.8556
  957MOL0     H26291   5.771   2.571   4.647 -0.9086  0.1634 -1.4377
  957MOL0     H26292   5.878   2.591   4.352 -0.1975  2.0860 -0.2474
  957MOL0     H26293   5.744   2.672   4.422 -2.9718 -0.9656  0.5749
  957MOL0     H26294   5.608   2.487   4.415  0.7824  1.7583  2.0230
  957MOL0     H26295   5.746   2.373   4.381 -0.9232 -0.8746 -0.2736
  957MOL0     H26296   5.682   2.585   4.202  2.3226 -0.0677 -3.4775
  957MOL0     H26297   5.807   2.461   4.183  1.2281  0.6582  1.2036
  957MOL0     H26298   5.611   2.404   4.038  1.2585  0.5470  0.4209
  957MOL0     H26299   5.496   2.432   4.174  1.5340  0.3568  2.5684
  957MOL0     H26300   5.605   2.214   4.278 -1.3258  0.7981 -0.2467
  957MOL0     H26301   5.715   2.218   4.141  1.6888 -1.3611  1.7114
  957MOL0     H26302   5.499   2.215   3.979  2.6479 -1.8283 -1.3790
  957MOL0     H26303   5.531   2.072   4.059  0.8758  0.5114 -1.3008
  957MOL0     H26304   5.316   2.265   4.149 -1.0898 -0.7770 -3.0214
  957MOL0     H26305   5.392   2.165   4.276 -3.2537  2.1474  0.5081
  957MOL0     H26306   6.125   2.574   4.577  4.1227 -3.1844 -0.7134
  957MOL0     H26307   6.314   2.591   4.751  0.5070 -0.6421  3.3156
  957MOL0     H26308   6.483   2.581   5.133  1.0903  0.5133  2.5035
  957MOL0     H26309   6.670   2.672   5.258  2.0014  0.7786 -0.8120
  957MOL0     H26310   8.887   2.635   4.662  2.7177 -0.7203  0.2521
  957MOL0     H26311   9.056   2.601   4.475  1.3015  1.6580 -2.8843
  957MOL0     H26312   9.376   2.719   4.271 -1.2928 -0.6463 -0.1331
  957MOL0     H26313   9.583   2.687   4.137 -1.1268  0.0748  1.5851
  957MOL0     H26314   9.766   2.538   3.853 -2.2900 -0.4968 -0.3104
  957MOL0     H26315   9.737   2.571   4.020  1.0461 -0.1841 -0.1642
  957MOL0     H26316   9.700   2.806   3.846 -0.8136  0.1641 -0.6626
  957MOL0     H26317   9.788   2.816   3.995 -2.5866  1.9812 -0.9235
  957MOL0     H26318   9.881   2.733   3.715 -0.1748 -0.6422  0.1547
  957MOL0     H26319   9.957   2.657   3.842 -3.0427 -3.1141 -2.2487
  957MOL0     H26320   9.946   2.965   3.809 -0.8013  0.2190  1.2634
  957MOL0     H26321  10.020   2.898   3.946 -0.5407  0.0558 -0.5533
  957MOL0     H26322  10.328   2.831   3.688 -0.6540  0.4782 -0.4885
  957MOL0     H26323   9.352   2.598   3.790  0.4288 -1.6241 -0.0907
  957MOL0     H26324   9.146   2.618   3.916  2.2720 -2.7864 -3.5174
  958MOL0     O26325   6.624   5.592   4.265 -0.0663 -0.5849  0.0863
  958MOL0     C26326   6.640   5.699   4.327  0.6777 -0.1304 -0.7675
  958MOL0     O26327   6.567   5.740   4.428  0.6593  0.5438  0.0448
  958MOL0     C26328   6.454   5.669   4.469 -0.9807  0.3958 -0.2565
  958MOL0     C26329   6.354   5.634   4.375  0.2493 -0.1968  0.1826
  958MOL0     C26330   6.241   5.566   4.425  0.2174  0.8158  0.9805
  958MOL0     C26331   6.221   5.528   4.554  0.1945 -0.1543 -0.0004
  958MOL0     O26332   6.099   5.476   4.601 -0.2592  0.0147 -0.3736
  958MOL0     C26333   6.096   5.370   4.699 -0.0768 -0.2948  0.0833
  958MOL0     C26334   5.965   5.288   4.696  0.1296  0.2065  0.2093
  958MOL0     C26335   5.948   5.201   4.561 -0.4393 -0.4043  0.5620
  958MOL0     C26336   5.843   5.093   4.578  0.5410 -0.0714 -0.2207
  958MOL0     C26337   5.759   5.063   4.459 -0.0485 -0.6661  0.1768
  958MOL0     C26338   5.665   5.178   4.412 -0.4055 -0.7047  0.1297
  958MOL0     C26339   5.608   5.284   4.515  0.8263 -0.3276  0.2364
  958MOL0     C26340   5.491   5.382   4.465 -0.1263  0.1165 -0.1179
  958MOL0     N26341   5.361   5.318   4.442 -0.2088  0.6643 -0.1480
  958MOL0     C26342   5.262   5.380   4.372  0.1366  0.0048 -0.2499
  958MOL0     C26343   5.160   5.290   4.353  0.2180  0.1143 -0.0416
  958MOL0     C26344   5.023   5.334   4.287  0.5220  1.0877 -0.0029
  958MOL0     C26345   4.932   5.212   4.271 -0.5814 -0.2985  0.7509
  958MOL0     C26346   4.801   5.261   4.206  0.9157 -0.3743  0.6023
  958MOL0     C26347   4.802   5.268   4.051  0.3487  0.7778 -0.3934
  958MOL0     O26348   4.682   5.319   4.001 -0.1565  0.4967 -0.5656
  958MOL0     C26349   4.566   5.246   4.006 -0.4125  0.0122 -0.1372
  958MOL0     C26350   4.556   5.099   4.022 -0.0208 -0.3941  0.1469
  958MOL0     C26351   4.433   5.035   4.035  0.9830 -0.3101 -0.3933
  958MOL0     C26352   4.311   5.112   4.028 -0.9147  0.2260 -0.7413
  958MOL0     C26353   4.177   5.051   4.030  0.9588  0.1372  0.1628
  958MOL0     O26354   4.172   4.913   4.010  0.1814  0.3842  0.5567
  958MOL0     C26355   4.054   4.846   4.003 -0.7968  0.5852 -0.1456
  958MOL0     C26356   3.952   4.867   4.097  0.0872  0.5926 -0.1850
  958MOL0     C26357   3.833   4.798   4.100  0.1801 -0.2283 -0.3538
  958MOL0     C26358   3.814   4.704   3.994 -0.2853 -0.1106 -0.3020
  958MOL0     O26359   3.697   4.637   3.969  0.3082 -0.2612  0.4404
  958MOL0     C26360   3.600   4.722   3.904 -0.4118  0.2870 -0.0011
  958MOL0     C26361   3.462   4.690   3.961  0.4330  0.0332 -0.4380
  958MOL0     C26362   3.344   4.756   3.901  0.2546  0.2875  0.9987
  958MOL0     C26363   3.208   4.722   3.973 -0.1248  0.0176 -0.7271
  958MOL0     C26364   3.104   4.833   3.951 -0.3812  0.5241 -0.2135
  958MOL0     C26365   3.057   4.841   3.811  0.1087  0.1825 -0.5283
  958MOL0     C26366   2.970   4.965   3.808  0.1793 -0.8256 -0.7964
  958MOL0     C26367   2.930   4.999   3.666 -0.0020 -0.4608  0.2182
  958MOL0    Cl26368   2.797   4.881   3.621  0.2537 -0.0977 -0.1250
  958MOL0     C26369   3.907   4.692   3.894  0.2051  0.2995 -0.0333
  958MOL0     C26370   4.026   4.753   3.896 -0.1956 -0.7414 -0.7267
  958MOL0     O26371   4.076   5.129   4.018 -0.3380  0.3139 -0.6858
  958MOL0     C26372   4.325   5.253   4.035 -0.1956  0.0517  0.7877
  958MOL0     C26373   4.446   5.316   4.016 -1.0048  0.2016  0.1771
  958MOL0     N26374   5.203   5.168   4.417  0.2225 -0.3131  0.1333
  958MOL0     N26375   5.326   5.186   4.464  0.1520  0.4488 -0.5305
  958MOL0     C26376   6.326   5.563   4.640 -0.5279  0.6914 -0.2573
  958MOL0     C26377   6.444   5.634   4.604  0.3437  0.5685 -0.3997
  958MOL0     C26378   6.765   5.775   4.308  0.5487  0.2523 -0.0948
  958MOL0     C26379   6.851   5.752   4.206  0.4830 -0.0755  0.3977
  958MOL0     C26380   6.978   5.818   4.195  0.2874  0.5689 -0.1472
  958MOL0     C26381   7.013   5.908   4.294 -0.2933  0.2156 -1.5716
  958MOL0     O26382   7.136   5.972   4.291 -0.1615 -0.2866 -0.4859
  958MOL0     C26383   7.171   6.074   4.385  0.1610 -0.2465 -1.1525
  958MOL0     C26384   7.293   6.150   4.341 -0.4892  0.7268 -0.0773
  958MOL0     C26385   7.410   6.055   4.306  0.0024  0.7725  0.6955
  958MOL0     C26386   7.537   6.120   4.254  0.1197 -0.5459 -0.1895
  958MOL0     C26387   7.623   6.012   4.201  0.3422  0.0106 -0.1327
  958MOL0     C26388   7.698   5.928   4.150 -0.2233 -0.0283 -0.3867
  958MOL0     C26389   6.922   5.934   4.404  0.0473 -0.0334 -0.1434
  958MOL0     C26390   6.798   5.870   4.406 -1.1364 -0.6313 -0.4344
  958MOL0     H26391   6.363   5.667   4.272 -0.4812 -1.3016 -0.2520
  958MOL0     H26392   6.170   5.535   4.348  0.1931 -0.2394  1.4070
  958MOL0     H26393   6.098   5.403   4.803  0.6398  1.6195 -0.4815
  958MOL0     H26394   6.183   5.306   4.683  0.1918 -0.0565  0.5597
  958MOL0     H26395   5.878   5.354   4.705 -1.3317 -1.5808 -0.1795
  958MOL0     H26396   5.957   5.226   4.786 -0.9556  0.0065 -0.0129
  958MOL0     H26397   6.039   5.147   4.531 -0.6866 -1.4808  1.6604
  958MOL0     H26398   5.910   5.268   4.484  2.5596 -0.0106 -0.7236
  958MOL0     H26399   5.896   4.999   4.596  1.9072 -0.4305 -4.8374
  958MOL0     H26400   5.781   5.110   4.667 -0.0827 -2.6893 -0.0621
  958MOL0     H26401   5.711   4.967   4.473 -2.0705  0.5181  1.8597
  958MOL0     H26402   5.826   5.048   4.373 -2.1124  2.4514 -2.2284
  958MOL0     H26403   5.572   5.139   4.369 -1.5466  4.0642 -2.4750
  958MOL0     H26404   5.714   5.237   4.333 -0.1771  3.5479  3.1016
  958MOL0     H26405   5.574   5.226   4.601  0.1160  0.6509  0.6351
  958MOL0     H26406   5.687   5.349   4.553 -0.1638  0.6808  0.6135
  958MOL0     H26407   5.529   5.420   4.370 -2.3611 -2.1661 -2.0866
  958MOL0     H26408   5.484   5.472   4.526  2.0006 -0.4933  1.1447
  958MOL0     H26409   5.257   5.477   4.325 -1.7956  0.0765  0.0025
  958MOL0     H26410   5.040   5.396   4.198  0.7105  0.2174 -0.5796
  958MOL0     H26411   4.969   5.401   4.355 -2.8541 -1.7644  0.4100
  958MOL0     H26412   4.911   5.167   4.368 -2.1397 -2.3745 -0.4825
  958MOL0     H26413   4.995   5.151   4.205 -0.1959 -0.1443  0.9704
  958MOL0     H26414   4.722   5.190   4.231  0.9176 -1.5788 -2.4082
  958MOL0     H26415   4.779   5.361   4.246 -1.2609  0.1811 -1.7739
  958MOL0     H26416   4.817   5.165   4.017 -1.9654 -0.0397  0.8668
  958MOL0     H26417   4.892   5.319   4.016  0.7030 -0.0239 -0.6903
  958MOL0     H26418   4.646   5.042   4.001 -0.6827 -1.0437 -1.0397
  958MOL0     H26419   4.439   4.928   4.045  5.2045 -0.1607  0.6747
  958MOL0     H26420   3.964   4.940   4.176 -0.9019  1.4593 -0.8134
  958MOL0     H26421   3.760   4.830   4.173  1.9101  1.7269  0.6177
  958MOL0     H26422   3.597   4.702   3.796 -0.9858 -0.0517  0.0743
  958MOL0     H26423   3.613   4.829   3.924  0.5429 -0.1016  1.6669
  958MOL0     H26424   3.465   4.717   4.067 -0.0795 -0.1170 -0.3817
  958MOL0     H26425   3.441   4.583   3.951 -1.4851  0.5371 -2.6299
  958MOL0     H26426   3.339   4.722   3.797  2.2889 -1.1468  1.3137
  958MOL0     H26427   3.353   4.865   3.902 -0.8861  0.4758 -1.4796
  958MOL0     H26428   3.171   4.630   3.926 -2.8115  0.6147  0.0056
  958MOL0     H26429   3.224   4.708   4.080  1.2481 -1.4380 -1.0964
  958MOL0     H26430   3.162   4.923   3.973  1.6937 -0.5309 -1.0766
  958MOL0     H26431   3.025   4.831   4.026 -0.1340  0.2496  0.0380
  958MOL0     H26432   2.993   4.759   3.778 -0.7335  0.8984 -0.6869
  958MOL0     H26433   3.143   4.850   3.743  0.4346  0.5527 -0.0704
  958MOL0     H26434   2.886   4.968   3.878  1.9802  2.0705  1.4799
  958MOL0     H26435   3.032   5.050   3.838  0.2557 -1.9570  2.5826
  958MOL0     H26436   3.012   4.997   3.595  2.8266 -3.2688  3.2048
  958MOL0     H26437   2.889   5.100   3.669  0.3450 -0.2754 -0.8242
  958MOL0     H26438   3.888   4.615   3.820 -1.5586 -0.7517  1.4220
  958MOL0     H26439   4.092   4.742   3.811  1.9325 -3.2991  1.0771
  958MOL0     H26440   4.237   5.315   4.047 -0.1153  0.2011  0.6138
  958MOL0     H26441   4.449   5.424   4.015 -0.2226  0.2393 -2.5850
  958MOL0     H26442   6.315   5.543   4.746 -1.5832  1.4998 -0.1945
  958MOL0     H26443   6.517   5.660   4.680  1.7752 -1.4195 -1.0113
  958MOL0     H26444   6.837   5.674   4.132 -1.9385  2.1940 -1.7430
  958MOL0     H26445   7.043   5.793   4.112  1.9291 -2.9377  1.9353
  958MOL0     H26446   7.195   6.025   4.480  0.2593  1.4121 -0.2790
  958MOL0     H26447   7.093   6.149   4.406  1.9140  0.6520  3.4111
  958MOL0     H26448   7.255   6.206   4.255 -0.7236  2.1797  0.9384
  958MOL0     H26449   7.340   6.218   4.413  3.3022 -2.5287  0.8972
  958MOL0     H26450   7.388   5.986   4.224  3.5030  0.9545 -0.5482
  958MOL0     H26451   7.431   6.000   4.398 -1.1419 -0.7708  0.1027
  958MOL0     H26452   7.508   6.184   4.170 -1.0597  0.7347  1.1475
  958MOL0     H26453   7.592   6.178   4.328  0.2923  2.3426 -2.4000
  958MOL0     H26454   7.760   5.849   4.112  1.1071 -0.3540  2.2410
  958MOL0     H26455   6.950   5.993   4.490  0.1767 -1.3701  0.7626
  958MOL0     H26456   6.734   5.894   4.490 -0.3764  0.8369 -0.2501
  959MOL0     O26457   8.351   9.418   6.069 -0.2757  0.7902 -0.3798
  959MOL0     C26458   8.390   9.524   6.019  0.0765 -0.1263 -0.0985
  959MOL0     O26459   8.309   9.632   5.993 -0.2211 -0.0631  0.6561
  959MOL0     C26460   8.184   9.627   6.037 -0.3836  0.2306 -0.1785
  959MOL0     C26461   8.082   9.637   5.943 -0.0770 -0.1413 -0.4673
  959MOL0     C26462   7.956   9.647   5.988 -0.1327  0.3843  0.3285
  959MOL0     C26463   7.926   9.639   6.125 -0.0113  0.3619 -0.4410
  959MOL0     O26464   7.798   9.654   6.171  0.5331 -0.3014  0.2363
  959MOL0     C26465   7.685   9.677   6.084  0.1961 -0.0259 -0.2100
  959MOL0     C26466   7.641   9.532   6.048  0.6804  0.0362 -0.2351
  959MOL0     C26467   7.485   9.533   6.028  0.2204  0.2508 -0.2695
  959MOL0     C26468   7.440   9.392   5.995  0.7985 -0.6340 -0.4740
  959MOL0     C26469   7.289   9.371   5.981  0.7371  0.3437 -0.2678
  959MOL0     C26470   7.230   9.339   6.123  0.2341  0.1975  0.0728
  959MOL0     C26471   7.089   9.289   6.125  0.0414 -0.1679 -0.3646
  959MOL0     C26472   6.990   9.364   6.039 -0.0408  0.1738 -0.3356
  959MOL0     N26473   6.856   9.304   6.042 -0.1576 -0.6278 -0.2659
  959MOL0     C26474   6.820   9.174   6.054 -0.3280 -1.1123  0.7574
  959MOL0     C26475   6.682   9.181   6.051  1.0909  0.3627 -0.1705
  959MOL0     C26476   6.570   9.084   6.064  0.3213  0.6991  0.1175
  959MOL0     C26477   6.458   9.099   5.964 -0.2798 -0.4244 -0.0118
  959MOL0     C26478   6.509   9.101   5.819 -0.8928 -0.3401  0.2212
  959MOL0     C26479   6.552   8.969   5.748 -0.4000 -0.2599 -0.8967
  959MOL0     O26480   6.652   8.882   5.817 -0.2042  0.5351  0.1774
  959MOL0     C26481   6.788   8.909   5.821 -1.1286  0.2025 -0.6432
  959MOL0     C26482   6.857   8.854   5.929 -0.2783 -0.0950  0.6842
  959MOL0     C26483   6.992   8.880   5.939  0.1496 -0.1458  0.0758
  959MOL0     C26484   7.059   8.968   5.846 -0.1381 -1.2379  0.0835
  959MOL0     C26485   7.197   9.009   5.865 -0.4703 -0.1209 -0.0425
  959MOL0     O26486   7.259   8.947   5.973 -0.2971 -0.0630  0.1387
  959MOL0     C26487   7.392   8.985   6.000  0.3692 -0.3682  0.0854
  959MOL0     C26488   7.490   8.992   5.901 -0.2357 -0.0806  0.4926
  959MOL0     C26489   7.618   9.033   5.937 -0.0581 -0.5243  0.5032
  959MOL0     C26490   7.647   9.066   6.071  0.6077  0.5988 -0.4118
  959MOL0     O26491   7.764   9.118   6.116 -0.0187 -0.4419  0.0765
  959MOL0     C26492   7.842   9.189   6.016  0.3537 -0.4063 -0.9891
  959MOL0     C26493   7.946   9.092   5.966 -0.2075 -0.3029 -0.0221
  959MOL0     C26494   7.995   9.130   5.830  0.3235 -0.1688  0.3420
  959MOL0     C26495   8.098   9.244   5.831 -0.0780  0.3352  0.1262
  959MOL0     C26496   8.153   9.270   5.688  0.3796 -0.5860  0.6981
  959MOL0     C26497   8.244   9.393   5.692 -0.1488  0.4684  0.3757
  959MOL0     C26498   8.323   9.428   5.563 -0.1124 -0.4392  0.4392
  959MOL0     C26499   8.323   9.574   5.518  0.8656 -0.2744 -0.2666
  959MOL0    Cl26500   8.154   9.636   5.509 -0.1181 -0.1476 -0.5069
  959MOL0     C26501   7.553   9.034   6.164 -0.0906  0.4721 -0.0886
  959MOL0     C26502   7.424   8.999   6.132  0.5648 -0.5124 -0.1040
  959MOL0     O26503   7.243   9.092   5.784 -0.2763 -0.6822 -0.8868
  959MOL0     C26504   6.989   9.025   5.743  0.1583  0.2334 -0.4212
  959MOL0     C26505   6.857   8.997   5.732  1.2572  0.8672  0.4562
  959MOL0     N26506   6.646   9.311   6.032  0.1180  0.5726 -0.0087
  959MOL0     N26507   6.750   9.389   6.023  0.3066 -0.2147 -0.1236
  959MOL0     C26508   8.027   9.626   6.222  0.5616  0.2845 -0.7219
  959MOL0     C26509   8.159   9.632   6.174 -1.5855  0.2871 -0.9064
  959MOL0     C26510   8.526   9.530   5.976 -0.4829 -0.5044  0.8465
  959MOL0     C26511   8.587   9.651   5.938 -0.1902 -0.2399 -1.1139
  959MOL0     C26512   8.727   9.666   5.922  0.7924  0.3146  0.4956
  959MOL0     C26513   8.802   9.555   5.912 -0.1694 -0.8934  0.2455
  959MOL0     O26514   8.933   9.566   5.869 -0.2101 -0.3076  0.1111
  959MOL0     C26515   9.028   9.482   5.943  0.1401  0.1644 -0.2750
  959MOL0     C26516   9.165   9.517   5.919  0.0323 -0.3645  0.4900
  959MOL0     C26517   9.247   9.390   5.940  0.7587  0.9718  0.3040
  959MOL0     C26518   9.398   9.403   5.881  0.4832  0.0208  0.1751
  959MOL0     C26519   9.502   9.413   5.980  0.2729  0.4436  0.0723
  959MOL0     C26520   9.584   9.401   6.064  0.5907 -0.1691 -0.4552
  959MOL0     C26521   8.746   9.428   5.923  0.2912  0.4296 -0.5744
  959MOL0     C26522   8.611   9.416   5.974  0.4026 -0.2731 -0.1986
  959MOL0     H26523   8.107   9.620   5.838 -0.5918 -1.9984 -0.3172
  959MOL0     H26524   7.879   9.656   5.912  0.8870  3.8816 -0.4781
  959MOL0     H26525   7.707   9.733   5.993  1.7035  0.9925  0.7372
  959MOL0     H26526   7.606   9.728   6.140  1.9754  1.6147  0.9453
  959MOL0     H26527   7.669   9.465   6.130  1.1296  1.4648  0.8251
  959MOL0     H26528   7.702   9.492   5.967 -0.1639 -1.1883 -0.2783
  959MOL0     H26529   7.457   9.605   5.950 -0.3745 -1.7569 -2.0129
  959MOL0     H26530   7.435   9.559   6.122 -1.0696  1.3329 -1.2130
  959MOL0     H26531   7.475   9.374   5.893 -0.1991 -1.5664 -0.6672
  959MOL0     H26532   7.492   9.333   6.071  0.4511  0.3879  0.5831
  959MOL0     H26533   7.271   9.278   5.925 -2.0001  0.3450  0.4858
  959MOL0     H26534   7.231   9.447   5.928 -2.7965 -1.9871 -0.0787
  959MOL0     H26535   7.225   9.438   6.169  2.4471  0.2206  0.4025
  959MOL0     H26536   7.298   9.273   6.178  0.3432 -0.4300 -0.8019
  959MOL0     H26537   7.096   9.183   6.099  1.4734  0.7038 -4.3320
  959MOL0     H26538   7.059   9.298   6.230  0.6498  1.2339 -0.2844
  959MOL0     H26539   7.023   9.353   5.936 -1.7079 -2.3357 -0.6867
  959MOL0     H26540   6.993   9.470   6.064  0.3248  0.3337 -1.0260
  959MOL0     H26541   6.881   9.085   6.057  0.5079 -0.5180  1.5996
  959MOL0     H26542   6.529   9.113   6.161 -0.0667  2.1553 -0.4576
  959MOL0     H26543   6.601   8.980   6.051 -0.4455  0.7351 -2.5663
  959MOL0     H26544   6.411   9.195   5.985  0.9231 -0.0578  1.1323
  959MOL0     H26545   6.389   9.015   5.966 -0.3989 -0.3998 -1.7185
  959MOL0     H26546   6.430   9.155   5.766  1.3109  1.8202 -1.1054
  959MOL0     H26547   6.584   9.179   5.802 -0.8467 -0.0954  1.4242
  959MOL0     H26548   6.577   8.983   5.643  0.7140 -5.6964 -1.6384
  959MOL0     H26549   6.459   8.914   5.738 -0.2374 -0.6556 -0.3360
  959MOL0     H26550   6.810   8.781   5.994  1.5393  0.1367  2.3445
  959MOL0     H26551   7.043   8.837   6.025 -2.5081 -1.8966  0.9076
  959MOL0     H26552   7.469   8.976   5.796 -0.3946  0.4499  0.4423
  959MOL0     H26553   7.684   9.051   5.852 -0.5121 -1.8450 -0.1648
  959MOL0     H26554   7.894   9.275   6.061 -0.4944 -0.1119 -0.5656
  959MOL0     H26555   7.789   9.243   5.937  2.0704 -1.3739 -2.9174
  959MOL0     H26556   7.913   8.987   5.960  0.9340 -0.6619 -0.3189
  959MOL0     H26557   8.021   9.092   6.046  1.0357 -3.5659 -1.0117
  959MOL0     H26558   7.909   9.160   5.769  0.1569  3.3816  2.0688
  959MOL0     H26559   8.048   9.043   5.791 -0.4623 -0.4741 -0.0552
  959MOL0     H26560   8.046   9.334   5.865  0.1111 -0.3822  2.4749
  959MOL0     H26561   8.176   9.228   5.906 -2.7409  1.6001  3.4148
  959MOL0     H26562   8.074   9.281   5.614 -0.7760  1.9122  2.1847
  959MOL0     H26563   8.211   9.186   5.648 -0.4509 -0.9122  0.1741
  959MOL0     H26564   8.324   9.380   5.765  1.0707 -0.3926 -1.0434
  959MOL0     H26565   8.186   9.482   5.720 -2.5325 -0.5641 -1.0136
  959MOL0     H26566   8.424   9.390   5.582 -1.3512 -3.6802  1.1998
  959MOL0     H26567   8.297   9.364   5.477  0.6225 -0.2068  0.0332
  959MOL0     H26568   8.360   9.575   5.415  2.4501 -1.3020  0.2604
  959MOL0     H26569   8.382   9.643   5.579  0.8110  1.4143 -2.0359
  959MOL0     H26570   7.591   9.035   6.266 -1.1476 -1.1436  0.3630
  959MOL0     H26571   7.355   8.975   6.212 -0.5482  0.8567 -0.6178
  959MOL0     H26572   7.038   9.098   5.679 -0.3990  0.3699 -0.6985
  959MOL0     H26573   6.795   9.050   5.660 -0.5976 -0.4746  0.9843
  959MOL0     H26574   7.991   9.620   6.325  2.6634  0.0089  0.0332
  959MOL0     H26575   8.242   9.617   6.243 -0.1683 -0.2904 -2.6579
  959MOL0     H26576   8.532   9.743   5.954 -2.2510 -1.2453 -2.1158
  959MOL0     H26577   8.771   9.765   5.915 -0.5770  1.1049  2.2037
  959MOL0     H26578   9.004   9.381   5.908  2.2563 -0.4640 -0.0457
  959MOL0     H26579   9.003   9.481   6.050 -5.3274  0.3147 -1.2562
  959MOL0     H26580   9.159   9.544   5.813  0.5285  0.8969  0.7567
  959MOL0     H26581   9.202   9.601   5.978  0.4809  0.5566 -1.0540
  959MOL0     H26582   9.199   9.302   5.896  1.9029 -1.6652  3.8539
  959MOL0     H26583   9.250   9.358   6.045 -1.3753 -0.8899 -0.1283
  959MOL0     H26584   9.425   9.316   5.820 -0.0413  1.3484 -2.0421
  959MOL0     H26585   9.401   9.494   5.821 -0.5913  0.1711  0.3270
  959MOL0     H26586   9.642   9.382   6.152  2.3912 -3.7203 -2.1875
  959MOL0     H26587   8.805   9.338   5.909  1.1794  1.1331 -1.4730
  959MOL0     H26588   8.572   9.319   6.003  0.0150 -0.2628 -0.6682
  960MOL0     O26589   5.885   6.873   2.897  0.1062 -0.3848  0.3754
  960MOL0     C26590   5.889   6.874   2.776 -0.7017 -0.6296 -0.0012
  960MOL0     O26591   5.787   6.836   2.701 -0.8008 -0.0474  0.3720
  960MOL0     C26592   5.665   6.820   2.761  0.1988 -0.0580 -0.0752
  960MOL0     C26593   5.626   6.697   2.832 -0.2467 -0.7355 -0.6575
  960MOL0     C26594   5.496   6.691   2.879 -0.0630 -0.3760  0.4330
  960MOL0     C26595   5.408   6.803   2.871  0.6883 -0.4510 -0.6700
  960MOL0     O26596   5.282   6.800   2.929 -0.3020  0.5617  0.3573
  960MOL0     C26597   5.167   6.844   2.845 -0.3842  0.3275 -0.0596
  960MOL0     C26598   5.052   6.853   2.956  0.7817 -0.3482 -1.0663
  960MOL0     C26599   4.917   6.863   2.887 -1.1487 -0.1558 -0.4217
  960MOL0     C26600   4.791   6.896   2.977 -0.6080 -0.0447  0.2600
  960MOL0     C26601   4.663   6.894   2.893  0.1966 -0.6002 -0.2220
  960MOL0     C26602   4.539   6.932   2.989 -0.3859  0.0645 -0.2104
  960MOL0     C26603   4.419   6.964   2.899  0.0346  0.4778 -0.0705
  960MOL0     C26604   4.303   7.022   2.983  0.5272 -0.0279 -0.4668
  960MOL0     N26605   4.197   7.084   2.901 -1.0336 -0.0007  0.5573
  960MOL0     C26606   4.135   7.029   2.793  0.8115  0.3784 -1.1729
  960MOL0     C26607   4.036   7.119   2.758 -0.4242 -0.2492  0.0199
  960MOL0     C26608   3.925   7.093   2.659 -0.3973 -0.5449  0.6046
  960MOL0     C26609   3.795   7.151   2.702  0.4634  0.4787 -0.1266
  960MOL0     C26610   3.746   7.091   2.839  0.5242  0.6480  0.4474
  960MOL0     C26611   3.619   7.141   2.896  0.3733 -1.2750 -0.5858
  960MOL0     O26612   3.499   7.140   2.817 -0.2687  0.3326  0.2326
  960MOL0     C26613   3.376   7.122   2.880 -0.5391  0.0478  0.6193
  960MOL0     C26614   3.358   7.155   3.022  1.0524 -0.1998  0.2805
  960MOL0     C26615   3.228   7.137   3.083 -0.0301 -0.8261  1.0334
  960MOL0     C26616   3.119   7.096   2.999  0.0333  0.2538 -1.0185
  960MOL0     C26617   2.979   7.103   3.054 -0.2978 -0.1736  0.9814
  960MOL0     O26618   2.890   7.037   2.981  0.6108 -0.4825  0.3867
  960MOL0     C26619   2.762   7.007   3.037 -0.7218 -0.0579 -0.0250
  960MOL0     C26620   2.740   6.957   3.167  1.0914  0.3622 -0.4443
  960MOL0     C26621   2.612   6.933   3.219  1.0382 -0.1642  0.0593
  960MOL0     C26622   2.502   6.959   3.140 -1.0304  0.1483 -0.9260
  960MOL0     O26623   2.373   6.951   3.193  0.2345 -0.1511 -0.2173
  960MOL0     C26624   2.268   7.012   3.123 -0.2294  0.5970  0.6310
  960MOL0     C26625   2.133   7.018   3.201  0.4955  0.6557 -0.3982
  960MOL0     C26626   2.081   6.879   3.256 -0.3061  0.1988 -0.4440
  960MOL0     C26627   1.939   6.886   3.326 -0.1041 -0.3615 -0.5257
  960MOL0     C26628   1.873   6.744   3.359  0.4864 -0.3971  0.5718
  960MOL0     C26629   1.766   6.751   3.472  0.0334 -0.7745  0.0234
  960MOL0     C26630   1.766   6.624   3.556  0.6368 -0.4140 -0.2911
  960MOL0     C26631   1.665   6.619   3.665  0.4241  0.4508  0.4701
  960MOL0    Cl26632   1.702   6.762   3.769  0.0713  0.2193 -0.0143
  960MOL0     C26633   2.525   6.985   3.005  1.0327 -0.7446  0.1198
  960MOL0     C26634   2.653   7.012   2.954  0.0990  0.8583  0.5010
  960MOL0     O26635   2.956   7.171   3.153 -0.2963  0.0069  0.7191
  960MOL0     C26636   3.140   7.086   2.862 -0.2873 -0.5519 -0.0341
  960MOL0     C26637   3.265   7.094   2.801 -0.2612 -0.6597  0.4552
  960MOL0     N26638   4.051   7.231   2.839 -0.0190  0.9043 -0.5245
  960MOL0     N26639   4.149   7.211   2.919 -0.1451  0.5202 -0.2078
  960MOL0     C26640   5.446   6.912   2.796 -0.9943 -0.3723  0.4255
  960MOL0     C26641   5.573   6.921   2.736  0.1060  0.2867  0.2155
  960MOL0     C26642   6.013   6.907   2.705  0.1121 -0.0659  0.7486
  960MOL0     C26643   6.135   6.923   2.778 -0.5742  0.4045  0.0556
  960MOL0     C26644   6.253   6.943   2.714 -0.1852  0.3238  0.4361
  960MOL0     C26645   6.249   6.960   2.570 -0.5657 -0.2157  0.2489
  960MOL0     O26646   6.358   7.011   2.502  0.0926 -0.1007 -0.0326
  960MOL0     C26647   6.484   7.014   2.564 -0.2996 -0.3097  0.0513
  960MOL0     C26648   6.591   7.027   2.453 -0.0201 -0.2936 -0.0768
  960MOL0     C26649   6.588   6.912   2.359 -0.1671  0.2558  0.5971
  960MOL0     C26650   6.707   6.917   2.268 -0.6066 -0.3751 -0.6831
  960MOL0     C26651   6.728   7.044   2.190 -0.0941  0.2953 -0.2262
  960MOL0     C26652   6.752   7.142   2.133 -0.1019  0.3477  0.3759
  960MOL0     C26653   6.126   6.956   2.499  0.0781 -0.5521 -0.0366
  960MOL0     C26654   6.014   6.930   2.567 -1.4624  0.4717  0.0659
  960MOL0     H26655   5.699   6.616   2.837  0.6580  0.0052 -1.5479
  960MOL0     H26656   5.456   6.595   2.910  0.3764 -1.3662 -1.8189
  960MOL0     H26657   5.141   6.762   2.777 -0.5571 -0.3984  0.8548
  960MOL0     H26658   5.182   6.945   2.806  1.5541  0.0700 -0.0819
  960MOL0     H26659   5.074   6.941   3.019 -1.2260 -0.7739  0.3450
  960MOL0     H26660   5.050   6.760   3.014 -0.2264 -0.0138 -0.5320
  960MOL0     H26661   4.901   6.766   2.838 -2.7821 -0.2000  0.1039
  960MOL0     H26662   4.918   6.946   2.817 -2.7924  1.3438  1.2162
  960MOL0     H26663   4.775   6.824   3.058 -1.4506  0.8774  0.9434
  960MOL0     H26664   4.801   6.996   3.022 -2.5818  0.1435  0.3573
  960MOL0     H26665   4.644   6.800   2.839 -1.3622  1.3302 -3.2905
  960MOL0     H26666   4.693   6.970   2.821  0.4852 -0.0897  0.4270
  960MOL0     H26667   4.567   7.026   3.037  1.2752 -1.2539  1.5893
  960MOL0     H26668   4.527   6.844   3.053 -0.0942  0.5803  0.5587
  960MOL0     H26669   4.447   7.018   2.807  0.9216  0.7763  0.3696
  960MOL0     H26670   4.387   6.867   2.862  2.0635 -0.1302 -0.3611
  960MOL0     H26671   4.330   7.100   3.055 -0.4360 -0.6729  0.6359
  960MOL0     H26672   4.255   6.943   3.041 -1.3209  1.1145 -0.3441
  960MOL0     H26673   4.154   6.929   2.756 -1.7707 -0.5067 -0.3396
  960MOL0     H26674   3.916   6.986   2.640  0.4388 -0.4549 -0.3789
  960MOL0     H26675   3.946   7.143   2.564 -2.3407  2.1817  1.4928
  960MOL0     H26676   3.720   7.134   2.623  1.4953 -3.2801 -0.5149
  960MOL0     H26677   3.794   7.260   2.707  0.1295  0.4381  0.8109
  960MOL0     H26678   3.722   6.985   2.839 -2.4833  1.0414 -4.0359
  960MOL0     H26679   3.822   7.117   2.913 -1.8516  1.5685  2.7073
  960MOL0     H26680   3.638   7.246   2.923  0.6626 -1.0069 -1.7762
  960MOL0     H26681   3.603   7.089   2.991  1.8003  0.8630  0.9272
  960MOL0     H26682   3.439   7.196   3.082  0.0227  1.8038  0.3922
  960MOL0     H26683   3.230   7.160   3.189  1.8111 -1.2685  1.1266
  960MOL0     H26684   2.822   6.938   3.236 -1.6120  3.1437  4.0717
  960MOL0     H26685   2.591   6.884   3.314  1.1630  0.4016  0.3812
  960MOL0     H26686   2.252   6.951   3.034  0.1692  1.3124  0.0604
  960MOL0     H26687   2.298   7.114   3.097 -0.8080  1.1013  1.8699
  960MOL0     H26688   2.059   7.055   3.129 -0.6390 -1.1964 -0.2418
  960MOL0     H26689   2.145   7.089   3.283 -3.1630 -0.3895  1.2215
  960MOL0     H26690   2.153   6.833   3.324 -1.4427  0.2815  0.8392
  960MOL0     H26691   2.084   6.814   3.168 -3.1167 -0.2995 -0.2362
  960MOL0     H26692   1.936   6.953   3.412 -0.3058  0.7344 -1.3598
  960MOL0     H26693   1.872   6.922   3.247  0.0681 -1.8018 -1.3535
  960MOL0     H26694   1.946   6.665   3.378  0.0623 -1.9870 -3.4047
  960MOL0     H26695   1.825   6.700   3.271 -2.0736  0.3209  1.5361
  960MOL0     H26696   1.671   6.770   3.421 -1.1103  0.9073  2.6022
  960MOL0     H26697   1.784   6.843   3.528 -1.9275  0.3075 -1.0066
  960MOL0     H26698   1.748   6.551   3.477 -1.7129 -0.0939 -0.1275
  960MOL0     H26699   1.861   6.601   3.606 -1.3433  0.3788  4.4212
  960MOL0     H26700   1.659   6.521   3.714 -0.8795 -0.3311 -1.1815
  960MOL0     H26701   1.565   6.627   3.622  0.3156  0.3459  0.6991
  960MOL0     H26702   2.451   6.986   2.926  2.5563 -1.3286 -1.3765
  960MOL0     H26703   2.665   7.039   2.849 -2.5196 -2.2271 -0.7837
  960MOL0     H26704   3.060   7.058   2.794 -0.7237  3.4307 -1.4038
  960MOL0     H26705   3.271   7.097   2.693 -2.4894 -1.7148  0.2477
  960MOL0     H26706   5.372   6.985   2.765 -4.3773 -3.1605  1.3923
  960MOL0     H26707   5.595   7.001   2.666  1.8870 -0.4804 -0.1540
  960MOL0     H26708   6.142   6.921   2.886 -1.3029 -1.4796  0.1088
  960MOL0     H26709   6.341   6.952   2.777 -0.1159 -0.9578  0.5359
  960MOL0     H26710   6.500   6.912   2.601  0.4772 -0.0529  0.4522
  960MOL0     H26711   6.497   7.097   2.633 -0.8522  1.1145 -1.4938
  960MOL0     H26712   6.563   7.115   2.394  0.1863 -0.8532 -1.0430
  960MOL0     H26713   6.685   7.048   2.504  0.7169 -1.7685 -0.7508
  960MOL0     H26714   6.506   6.902   2.286  1.2926 -0.6570 -0.9941
  960MOL0     H26715   6.599   6.818   2.415 -2.1063 -1.1950 -1.2528
  960MOL0     H26716   6.802   6.893   2.318  0.0775  1.3093 -1.1247
  960MOL0     H26717   6.705   6.828   2.204  1.2988  0.4055 -1.9107
  960MOL0     H26718   6.767   7.227   2.069 -0.9063 -0.9591 -1.6156
  960MOL0     H26719   6.118   6.982   2.395 -1.0993  1.4590  0.5081
  960MOL0     H26720   5.921   6.932   2.511 -0.5646  0.7723 -1.4688
  961MOL0     O26721   4.254  10.208   0.203 -0.3070 -0.7599  0.6063
  961MOL0     C26722   4.296  10.326   0.201 -0.0357  0.2719  0.0991
  961MOL0     O26723   4.225  10.439   0.162  0.5361  0.0794 -0.2265
  961MOL0     C26724   4.094  10.417   0.114  0.5172  0.0633  0.3041
  961MOL0     C26725   3.987  10.420   0.202 -0.0486  0.5264 -0.3544
  961MOL0     C26726   3.858  10.401   0.158  0.2993 -0.1092 -0.0320
  961MOL0     C26727   3.829  10.377   0.025  0.2803  0.6139  0.5804
  961MOL0     O26728   3.701  10.357  -0.023 -0.3147  0.5316 -0.4550
  961MOL0     C26729   3.586  10.383   0.058 -0.3045  0.4820  0.4650
  961MOL0     C26730   3.475  10.323  -0.029 -0.1080  0.0850 -0.6322
  961MOL0     C26731   3.345  10.337   0.049  0.2182 -0.3179 -0.1621
  961MOL0     C26732   3.229  10.262  -0.016  0.7668  0.1772  0.1043
  961MOL0     C26733   3.093  10.288   0.046  0.1099  0.3670  0.3811
  961MOL0     C26734   3.078  10.241   0.194 -1.1349  0.7268  0.7586
  961MOL0     C26735   2.945  10.266   0.245  0.1463 -0.6158 -0.8286
  961MOL0     C26736   2.918  10.221   0.391 -0.6517  0.7938  0.1187
  961MOL0     N26737   3.032  10.254   0.470 -0.6096 -0.2672 -1.2945
  961MOL0     C26738   3.141  10.169   0.485 -0.0780 -0.3913  0.6079
  961MOL0     C26739   3.238  10.248   0.538 -0.0002  0.0129 -0.1488
  961MOL0     C26740   3.379  10.207   0.555 -0.2989  0.7014  0.5184
  961MOL0     C26741   3.487  10.298   0.607 -0.0214 -0.3546  0.5768
  961MOL0     C26742   3.633  10.249   0.571  0.5150 -1.3212  0.0860
  961MOL0     C26743   3.752  10.341   0.624 -0.0732 -0.1985  0.2964
  961MOL0     O26744   3.851  10.325   0.524  0.5837  0.8911  0.1080
  961MOL0     C26745   3.979  10.366   0.555 -0.0415  0.1022  0.0824
  961MOL0     C26746   4.088  10.304   0.494 -0.0112  0.2446 -0.1614
  961MOL0     C26747   4.215  10.329   0.535  0.6507 -0.1802 -0.7029
  961MOL0     C26748   4.238  10.420   0.646 -0.4163  0.1744  0.2554
  961MOL0     C26749   4.383  10.461   0.687  0.3211 -0.0897  0.7258
  961MOL0     O26750   4.394  10.568   0.772  0.2404 -0.7569 -0.8037
  961MOL0     C26751   4.521  10.597   0.808 -0.4091 -0.4676  0.2433
  961MOL0     C26752   4.589  10.690   0.734 -0.6790 -0.1729  0.0351
  961MOL0     C26753   4.719  10.738   0.761  0.4150 -0.0205  0.5493
  961MOL0     C26754   4.775  10.702   0.890  0.3512 -0.8149  0.5658
  961MOL0     O26755   4.893  10.752   0.946  0.0612  0.2404  0.3510
  961MOL0     C26756   4.933  10.881   0.903  0.5731  0.2890 -0.0344
  961MOL0     C26757   4.987  10.950   1.032 -0.1711  0.2129 -0.4756
  961MOL0     C26758   5.072  11.071   0.995  1.2157  0.1489  0.2129
  961MOL0     C26759   5.124  11.132   1.119  0.1601  0.4982 -0.1012
  961MOL0     C26760   5.191  11.266   1.086 -0.7675 -0.6334 -0.0250
  961MOL0     C26761   5.341  11.256   1.038 -0.4163 -0.1029 -0.0769
  961MOL0     C26762   5.429  11.369   1.097 -0.3215 -0.2638  0.4801
  961MOL0     C26763   5.566  11.376   1.022  0.2458 -0.4587 -0.2941
  961MOL0    Cl26764   5.604  11.552   1.000 -0.4851  0.0197 -0.3028
  961MOL0     C26765   4.713  10.601   0.959  0.0297  0.0231 -0.0724
  961MOL0     C26766   4.592  10.541   0.916 -0.7775 -0.7719  0.0291
  961MOL0     O26767   4.480  10.388   0.649 -0.2498 -0.5391 -0.2909
  961MOL0     C26768   4.133  10.501   0.697  0.0587  0.1947 -0.4115
  961MOL0     C26769   4.002  10.468   0.653  0.6810 -0.0415 -0.0178
  961MOL0     N26770   3.189  10.373   0.562 -0.2260  0.4359  0.3856
  961MOL0     N26771   3.067  10.370   0.530  0.2449 -0.8206  0.1622
  961MOL0     C26772   3.936  10.356  -0.059  0.2234 -0.1284 -0.1414
  961MOL0     C26773   4.064  10.386  -0.017  0.8590  0.5624 -0.2494
  961MOL0     C26774   4.426  10.350   0.267 -0.0456 -0.2535  0.0018
  961MOL0     C26775   4.472  10.477   0.292  0.2891 -1.2222 -0.3739
  961MOL0     C26776   4.605  10.500   0.329 -0.2295 -0.1778 -0.2540
  961MOL0     C26777   4.694  10.395   0.347  0.3471  0.2770  0.8526
  961MOL0     O26778   4.828  10.417   0.381 -0.4164 -0.8240  0.7536
  961MOL0     C26779   4.856  10.411   0.520  0.0139 -0.7705 -0.1598
  961MOL0     C26780   4.995  10.443   0.557  0.3486 -0.2471 -0.0540
  961MOL0     C26781   5.002  10.544   0.680 -0.4661  0.0834 -0.2244
  961MOL0     C26782   5.136  10.550   0.762 -0.8251 -0.2314  0.7729
  961MOL0     C26783   5.234  10.640   0.687  0.1838  0.3937  1.0889
  961MOL0     C26784   5.298  10.709   0.616 -0.3666 -0.6768  0.2780
  961MOL0     C26785   4.641  10.269   0.337  0.3407 -0.1970 -0.0711
  961MOL0     C26786   4.512  10.247   0.294 -1.0667  1.2346 -0.5570
  961MOL0     H26787   4.010  10.455   0.303 -1.8804  0.5087  0.0973
  961MOL0     H26788   3.777  10.417   0.229  1.8926  0.2450  1.7604
  961MOL0     H26789   3.570  10.492   0.061 -0.8148  0.4084  0.4349
  961MOL0     H26790   3.588  10.332   0.155  1.0911 -0.9825 -0.2888
  961MOL0     H26791   3.489  10.219  -0.062 -1.1428 -0.1764 -0.2636
  961MOL0     H26792   3.466  10.385  -0.119 -1.8798 -0.5842 -0.9546
  961MOL0     H26793   3.318  10.442   0.060  0.5287 -0.3724  1.3845
  961MOL0     H26794   3.366  10.290   0.145  2.6800 -0.3924 -0.6732
  961MOL0     H26795   3.214  10.299  -0.118 -0.1369 -0.7158 -0.1047
  961MOL0     H26796   3.250  10.155  -0.023 -0.2424  0.0235 -0.8250
  961MOL0     H26797   3.009  10.241  -0.006  1.8882 -2.9651  0.2714
  961MOL0     H26798   3.074  10.395   0.053 -2.7561  0.0334 -0.5567
  961MOL0     H26799   3.154  10.300   0.245  0.2346 -0.9022  0.6854
  961MOL0     H26800   3.107  10.136   0.201 -1.3115  0.7053  1.1818
  961MOL0     H26801   2.936  10.375   0.247 -1.3160 -0.5736  3.7126
  961MOL0     H26802   2.869  10.213   0.186 -1.9429 -0.8905  1.8744
  961MOL0     H26803   2.900  10.114   0.377 -0.4496  0.9647 -1.7272
  961MOL0     H26804   2.829  10.271   0.430 -0.7843  1.2542 -0.7463
  961MOL0     H26805   3.147  10.066   0.450 -1.0246 -0.4993  0.7482
  961MOL0     H26806   3.408  10.178   0.453  1.1469 -0.5436  1.2351
  961MOL0     H26807   3.388  10.118   0.618 -2.7325  1.7566  2.5456
  961MOL0     H26808   3.487  10.316   0.715 -1.2720  2.1540  0.2403
  961MOL0     H26809   3.467  10.397   0.565 -1.0095 -1.1886 -0.9561
  961MOL0     H26810   3.647  10.150   0.616 -0.6527 -0.2685  2.9741
  961MOL0     H26811   3.652  10.249   0.463  4.9237  2.7244  0.5140
  961MOL0     H26812   3.781  10.322   0.728 -1.4136 -2.7021  0.2903
  961MOL0     H26813   3.725  10.446   0.623 -1.6127 -0.5240 -2.2342
  961MOL0     H26814   4.068  10.233   0.414  0.6824  1.7505 -1.7479
  961MOL0     H26815   4.302  10.279   0.494  0.0296 -2.9662  1.0829
  961MOL0     H26816   4.531  10.732   0.652  1.5468  0.5879 -1.2767
  961MOL0     H26817   4.759  10.816   0.696  2.7719  1.2546  3.2929
  961MOL0     H26818   4.845  10.941   0.879 -0.8886 -1.7784 -0.1021
  961MOL0     H26819   5.009  10.881   0.823  0.0967 -1.1478 -0.5268
  961MOL0     H26820   5.061  10.889   1.085 -0.8550  0.0179  0.2689
  961MOL0     H26821   4.907  10.975   1.102  1.4153  2.4253  0.6948
  961MOL0     H26822   5.024  11.151   0.937 -0.4456  0.1956  1.5657
  961MOL0     H26823   5.152  11.042   0.926 -0.2568 -0.0269 -1.5162
  961MOL0     H26824   5.039  11.157   1.183 -0.2478  0.0588 -0.4619
  961MOL0     H26825   5.203  11.076   1.171 -0.1942  0.2752  0.1978
  961MOL0     H26826   5.197  11.323   1.179  0.9496  1.8561 -1.5529
  961MOL0     H26827   5.119  11.321   1.024 -1.6661  0.7469  2.1274
  961MOL0     H26828   5.361  11.280   0.933  0.4667  0.3529  0.1875
  961MOL0     H26829   5.384  11.158   1.060 -0.5091  0.3793  2.4770
  961MOL0     H26830   5.376  11.464   1.090  0.3297  0.0239 -0.8441
  961MOL0     H26831   5.460  11.332   1.195  1.3077 -1.1153 -0.3146
  961MOL0     H26832   5.559  11.329   0.924  0.8917 -2.9169  0.7495
  961MOL0     H26833   5.645  11.328   1.081  1.2748 -0.7822 -1.8872
  961MOL0     H26834   4.757  10.569   1.053  0.1400  0.4598  0.0289
  961MOL0     H26835   4.547  10.476   0.990  0.1430 -0.7594  0.6253
  961MOL0     H26836   4.138  10.584   0.767  0.7885 -0.2785  0.1010
  961MOL0     H26837   3.923  10.528   0.697  1.0072  1.2956 -1.1772
  961MOL0     H26838   3.902  10.336  -0.160 -2.8436  2.0344  0.3324
  961MOL0     H26839   4.145  10.398  -0.087  1.3811  3.2493  0.7246
  961MOL0     H26840   4.416  10.566   0.265  0.1326 -1.1833  0.0825
  961MOL0     H26841   4.651  10.598   0.337 -0.2867 -0.2321  1.0544
  961MOL0     H26842   4.833  10.310   0.555  0.5373 -0.8740 -0.1155
  961MOL0     H26843   4.792  10.482   0.573  2.2057  0.9432  0.3296
  961MOL0     H26844   5.046  10.352   0.587  0.6552 -0.1123 -0.1642
  961MOL0     H26845   5.053  10.489   0.476  0.4387 -0.3295 -0.0350
  961MOL0     H26846   4.929  10.509   0.753 -0.8347 -1.2391 -1.1890
  961MOL0     H26847   4.972  10.645   0.652  0.4204  0.5968  0.6201
  961MOL0     H26848   5.122  10.596   0.861 -4.0829  1.7263 -0.4341
  961MOL0     H26849   5.183  10.452   0.777  0.8915  0.0834 -1.9855
  961MOL0     H26850   5.350  10.779   0.552 -1.3129  0.2740  0.5254
  961MOL0     H26851   4.718  10.192   0.336 -0.1220 -0.6876 -1.6332
  961MOL0     H26852   4.497  10.146   0.258  0.0101  0.7511  0.2872
  962MOL0     O26853  10.974   3.142   2.610 -0.4504 -0.1721 -0.0048
  962MOL0     C26854  11.032   3.081   2.517 -0.3433  0.3554  0.0529
  962MOL0     O26855  10.967   3.052   2.402 -1.4743  0.5567 -0.5159
  962MOL0     C26856  10.832   3.041   2.386  0.0691  0.4533 -0.2347
  962MOL0     C26857  10.781   2.937   2.303  0.0920 -0.5232 -0.0595
  962MOL0     C26858  10.634   2.918   2.284  0.7250 -0.2195  0.5501
  962MOL0     C26859  10.548   3.008   2.335 -0.5639  0.5331  0.0482
  962MOL0     O26860  10.414   2.986   2.321 -0.6065  0.7209 -0.7118
  962MOL0     C26861  10.337   3.099   2.290 -0.6664 -0.0074  0.3417
  962MOL0     C26862  10.219   3.032   2.222  0.5053 -0.4745 -0.5986
  962MOL0     C26863  10.135   3.148   2.172 -0.7506  0.6752 -0.4689
  962MOL0     C26864  10.013   3.075   2.104 -0.3883  0.0049  0.0856
  962MOL0     C26865   9.921   3.169   2.034  1.1160  0.4553  0.5400
  962MOL0     C26866   9.798   3.096   1.979  0.6468 -0.8553 -0.2377
  962MOL0     C26867   9.685   3.202   1.942  0.3086 -0.1967 -0.5360
  962MOL0     C26868   9.560   3.130   1.893 -1.0644  0.6484  0.1905
  962MOL0     N26869   9.446   3.220   1.879 -0.6199 -0.0347  0.3644
  962MOL0     C26870   9.408   3.308   1.776  0.5904  0.2386  0.6498
  962MOL0     C26871   9.283   3.347   1.804  0.3162 -0.2891 -0.5736
  962MOL0     C26872   9.199   3.440   1.722 -1.0846 -0.3065 -0.1566
  962MOL0     C26873   9.193   3.571   1.795 -0.1158  0.0273 -0.2148
  962MOL0     C26874   9.121   3.672   1.716 -0.2581  0.1119  0.6214
  962MOL0     C26875   9.085   3.803   1.793 -0.2437  0.5551 -0.1717
  962MOL0     O26876   9.048   3.897   1.691 -0.3562 -0.2866 -0.3526
  962MOL0     C26877   8.929   3.878   1.623 -0.0555 -0.2297 -1.2070
  962MOL0     C26878   8.831   3.782   1.668 -0.1065  0.1626 -0.0599
  962MOL0     C26879   8.716   3.763   1.590 -0.5148  0.6438  0.5637
  962MOL0     C26880   8.699   3.825   1.462 -0.2791  0.2349 -0.4313
  962MOL0     C26881   8.598   3.775   1.364  0.1682  0.5274  0.2435
  962MOL0     O26882   8.487   3.714   1.400 -0.0242 -0.4233 -0.5796
  962MOL0     C26883   8.378   3.714   1.318  0.7946 -0.1996  0.3979
  962MOL0     C26884   8.361   3.620   1.213  0.1420 -0.1668 -0.1026
  962MOL0     C26885   8.249   3.632   1.127 -1.3390  1.3020 -0.0960
  962MOL0     C26886   8.140   3.724   1.157  0.3413  0.4765  0.9613
  962MOL0     O26887   8.021   3.738   1.091  0.1991  0.2046  0.2457
  962MOL0     C26888   7.969   3.618   1.021  0.2522  0.4961  0.9972
  962MOL0     C26889   7.830   3.657   0.983 -1.2173 -0.9194  0.0201
  962MOL0     C26890   7.738   3.666   1.113 -0.4063 -0.1753 -0.3070
  962MOL0     C26891   7.600   3.700   1.070 -0.0781 -0.3122 -0.5091
  962MOL0     C26892   7.522   3.770   1.186 -0.4390  0.5638 -0.0368
  962MOL0     C26893   7.375   3.772   1.146  0.6763 -0.0696 -0.4128
  962MOL0     C26894   7.290   3.773   1.274  1.0830  0.0566  0.2081
  962MOL0     C26895   7.152   3.838   1.249 -0.2797 -0.9194 -0.3847
  962MOL0    Cl26896   7.079   3.785   1.088 -0.1612  0.5455 -0.1563
  962MOL0     C26897   8.154   3.804   1.269  0.2170 -0.4279  0.2924
  962MOL0     C26898   8.270   3.800   1.346  0.2043 -0.1177 -0.3694
  962MOL0     O26899   8.625   3.805   1.247  0.3211 -0.6847 -0.0291
  962MOL0     C26900   8.796   3.927   1.428  0.4418 -0.0017  0.0773
  962MOL0     C26901   8.907   3.957   1.508  0.0617 -0.0984  0.1001
  962MOL0     N26902   9.249   3.291   1.927  0.1169 -0.0392 -0.2417
  962MOL0     N26903   9.345   3.224   1.970  0.6283  0.4159  0.1680
  962MOL0     C26904  10.598   3.117   2.414 -0.4793 -0.3794 -0.1067
  962MOL0     C26905  10.741   3.134   2.438  0.4800  0.2600  0.1836
  962MOL0     C26906  11.177   3.046   2.520 -0.6081 -0.7594  0.8090
  962MOL0     C26907  11.242   3.055   2.643  0.0405  0.3705 -0.2821
  962MOL0     C26908  11.377   3.035   2.653  0.8510 -0.5364 -0.1634
  962MOL0     C26909  11.453   3.010   2.545 -0.3975  1.1578  0.0727
  962MOL0     O26910  11.589   2.985   2.564  0.0114  0.4462  0.0915
  962MOL0     C26911  11.672   2.918   2.465  0.1662 -0.0089  0.1692
  962MOL0     C26912  11.815   2.901   2.526  0.5740  1.1748  0.4938
  962MOL0     C26913  11.877   2.772   2.469  0.4304  0.9546 -0.8533
  962MOL0     C26914  11.919   2.776   2.324 -0.3843 -0.9757 -0.1838
  962MOL0     C26915  11.814   2.729   2.240 -0.5153  0.1786  0.3655
  962MOL0     C26916  11.724   2.683   2.166 -0.3744 -0.0594  0.1921
  962MOL0     C26917  11.392   3.018   2.416 -0.5982 -0.1262 -0.4453
  962MOL0     C26918  11.252   3.031   2.403  0.5816  0.9012 -0.0334
  962MOL0     H26919  10.841   2.854   2.266 -0.0387  0.2904 -2.2591
  962MOL0     H26920  10.592   2.834   2.230  1.1076  0.2287 -0.4799
  962MOL0     H26921  10.382   3.168   2.218 -0.1564  1.8696  2.3321
  962MOL0     H26922  10.306   3.147   2.384  1.2074  3.1626 -0.4963
  962MOL0     H26923  10.175   2.971   2.301 -1.6296  1.4139 -0.2205
  962MOL0     H26924  10.250   2.974   2.135  0.5493 -0.0012 -0.9023
  962MOL0     H26925  10.197   3.209   2.106 -0.7224  1.8204  0.5846
  962MOL0     H26926  10.109   3.218   2.252  1.4866  1.5767 -0.4538
  962MOL0     H26927  10.041   2.989   2.043  0.0507 -1.7331  2.5980
  962MOL0     H26928   9.945   3.032   2.177  0.7837 -2.3490 -0.1289
  962MOL0     H26929   9.976   3.222   1.956  0.1394  0.2902 -0.2785
  962MOL0     H26930   9.877   3.242   2.102 -1.3793  0.3309 -0.8001
  962MOL0     H26931   9.745   3.033   2.051 -0.2438  0.3305  0.1811
  962MOL0     H26932   9.817   3.038   1.888 -1.9342 -5.0056  1.5889
  962MOL0     H26933   9.665   3.248   2.039 -0.1521 -0.2500 -0.6018
  962MOL0     H26934   9.719   3.278   1.872 -0.2986 -0.0223 -0.6488
  962MOL0     H26935   9.536   3.047   1.960 -1.3270  0.7988  0.2808
  962MOL0     H26936   9.588   3.083   1.798  1.6826  1.8146  0.3402
  962MOL0     H26937   9.454   3.322   1.679 -1.9104  1.1875 -0.4737
  962MOL0     H26938   9.102   3.389   1.715 -0.7815 -0.7158 -2.1157
  962MOL0     H26939   9.239   3.448   1.621  0.0516 -1.0107  0.2240
  962MOL0     H26940   9.298   3.601   1.804 -0.7847  2.0165  2.8011
  962MOL0     H26941   9.156   3.555   1.897 -0.5585  0.3956 -0.3180
  962MOL0     H26942   9.170   3.708   1.625  0.2397  0.6925  1.1057
  962MOL0     H26943   9.029   3.621   1.685 -0.4260 -0.1524  1.5165
  962MOL0     H26944   9.181   3.835   1.836 -0.3763 -0.9600  1.3694
  962MOL0     H26945   9.006   3.789   1.867  1.3723 -0.4502  1.4337
  962MOL0     H26946   8.836   3.722   1.757 -1.5937  0.2477  0.1152
  962MOL0     H26947   8.641   3.691   1.622 -0.1398 -1.1473 -2.2501
  962MOL0     H26948   8.448   3.563   1.181  0.1247  0.7915 -1.9584
  962MOL0     H26949   8.235   3.571   1.037  0.7226 -0.7119  0.8401
  962MOL0     H26950   7.969   3.528   1.083  2.0461  1.1376  2.0144
  962MOL0     H26951   8.039   3.598   0.939  1.8055 -1.5565  2.6869
  962MOL0     H26952   7.804   3.583   0.907  0.4483 -0.8976 -0.6183
  962MOL0     H26953   7.830   3.754   0.932  1.0684 -1.0224 -0.3115
  962MOL0     H26954   7.780   3.733   1.189  2.6677 -1.1870 -0.9686
  962MOL0     H26955   7.729   3.564   1.152 -2.6911  0.2347  0.3802
  962MOL0     H26956   7.588   3.765   0.983  1.5523  0.4780 -0.1813
  962MOL0     H26957   7.558   3.602   1.048 -0.8258 -0.0491 -0.2958
  962MOL0     H26958   7.549   3.875   1.204 -2.5854  1.2474 -0.5205
  962MOL0     H26959   7.536   3.715   1.279 -0.2923 -1.0443 -0.9634
  962MOL0     H26960   7.342   3.680   1.097 -4.8229  0.8369  0.9399
  962MOL0     H26961   7.354   3.858   1.081 -1.9891  1.5193  2.3482
  962MOL0     H26962   7.262   3.671   1.302 -1.3797  0.0947 -1.8273
  962MOL0     H26963   7.341   3.820   1.359  1.8631 -1.7527  0.7795
  962MOL0     H26964   7.166   3.946   1.238 -0.5292 -0.8810 -0.3249
  962MOL0     H26965   7.080   3.830   1.331 -2.1782  1.0997 -1.7365
  962MOL0     H26966   8.068   3.856   1.311 -0.7446 -1.1941 -0.6632
  962MOL0     H26967   8.284   3.866   1.432 -4.6355  0.4446  0.2788
  962MOL0     H26968   8.790   3.970   1.328  1.5800  1.9495  0.8023
  962MOL0     H26969   8.983   4.028   1.476 -1.8040  1.0615 -2.0968
  962MOL0     H26970  10.523   3.188   2.449 -1.6632 -1.6639  0.0253
  962MOL0     H26971  10.779   3.215   2.499  0.3765 -0.5363  1.3252
  962MOL0     H26972  11.192   3.080   2.736 -0.6931  3.8313 -1.4542
  962MOL0     H26973  11.436   3.031   2.744  1.8902 -0.9680 -0.8351
  962MOL0     H26974  11.695   2.970   2.372  3.2008  0.4969  1.1006
  962MOL0     H26975  11.632   2.818   2.446  0.6468 -0.3093  0.7237
  962MOL0     H26976  11.884   2.983   2.504  0.8845  2.3897  4.9526
  962MOL0     H26977  11.823   2.901   2.636 -4.4906 -4.4599  1.3923
  962MOL0     H26978  11.811   2.690   2.501  1.4415  1.0331  1.6769
  962MOL0     H26979  11.968   2.751   2.525 -2.2796 -2.0259  3.0625
  962MOL0     H26980  11.948   2.880   2.310 -3.0725  0.3782  3.0052
  962MOL0     H26981  12.011   2.723   2.299 -0.7627 -1.1506 -1.2449
  962MOL0     H26982  11.642   2.647   2.106  0.6588  0.6643 -1.7436
  962MOL0     H26983  11.446   3.019   2.322  0.5151  2.1998  0.1505
  962MOL0     H26984  11.216   3.016   2.302 -0.3588 -3.0996  0.7051
  963MOL0     O26985  10.764   4.636   1.747 -0.1545 -0.0949  0.0113
  963MOL0     C26986  10.793   4.737   1.689  1.3950 -0.0899  0.3662
  963MOL0     O26987  10.701   4.827   1.643 -0.1445 -0.2860  0.2686
  963MOL0     C26988  10.580   4.846   1.713  0.1153 -0.6385 -0.2162
  963MOL0     C26989  10.578   4.888   1.851  0.3361  0.1979 -0.5253
  963MOL0     C26990  10.459   4.911   1.919  0.2450  0.9229 -0.4878
  963MOL0     C26991  10.333   4.888   1.851  0.7668  0.3776 -0.7141
  963MOL0     O26992  10.211   4.912   1.917  0.0197  0.1125  0.3696
  963MOL0     C26993  10.200   4.995   2.031 -0.5547 -0.1518 -0.1680
  963MOL0     C26994  10.049   5.017   2.056  0.3214 -0.3693  0.4236
  963MOL0     C26995   9.990   5.120   1.956  0.2121 -0.1001 -0.1402
  963MOL0     C26996   9.841   5.117   1.968  0.9302  0.9931 -0.6488
  963MOL0     C26997   9.773   5.191   1.856  0.5123  0.3075 -0.1920
  963MOL0     C26998   9.620   5.196   1.884 -0.3649 -0.3763  1.0881
  963MOL0     C26999   9.549   5.239   1.751 -0.3691  0.1800 -0.2580
  963MOL0     C27000   9.401   5.263   1.767  0.1932  1.0370 -0.8045
  963MOL0     N27001   9.350   5.317   1.648 -0.2143  0.3413  0.4062
  963MOL0     C27002   9.332   5.448   1.621  0.4110  1.1878  0.2984
  963MOL0     C27003   9.291   5.461   1.491  0.5378  0.6257 -0.4719
  963MOL0     C27004   9.263   5.597   1.424  0.4580  0.1274  0.9189
  963MOL0     C27005   9.141   5.576   1.336  0.7715 -0.1685 -0.2640
  963MOL0     C27006   9.098   5.726   1.294 -0.3534  0.4617  0.2215
  963MOL0     C27007   8.971   5.730   1.223  0.1404 -0.1254 -0.0703
  963MOL0     O27008   8.874   5.664   1.299 -0.0317  0.3990 -0.4675
  963MOL0     C27009   8.752   5.646   1.243  1.1004  0.1622 -0.0802
  963MOL0     C27010   8.679   5.747   1.170  0.1586  0.1530  0.0173
  963MOL0     C27011   8.550   5.718   1.119  0.1157  0.0794  0.4158
  963MOL0     C27012   8.488   5.595   1.151 -0.5556  0.1323  0.2071
  963MOL0     C27013   8.350   5.577   1.125 -0.3780 -0.3815  0.3188
  963MOL0     O27014   8.304   5.451   1.138  0.0061  0.1709  0.2220
  963MOL0     C27015   8.170   5.419   1.134  0.3350 -0.1102  0.3351
  963MOL0     C27016   8.119   5.352   1.026 -0.6451 -0.1440  0.2282
  963MOL0     C27017   7.982   5.320   1.013  0.4370  0.3340 -0.5691
  963MOL0     C27018   7.891   5.341   1.120 -0.3064 -0.4263 -0.0978
  963MOL0     O27019   7.758   5.304   1.109  0.8701 -0.3212  0.0302
  963MOL0     C27020   7.678   5.277   1.227  0.4415  0.4946 -0.1999
  963MOL0     C27021   7.563   5.174   1.188 -0.7143 -0.1140  0.6224
  963MOL0     C27022   7.483   5.118   1.312 -0.5806  1.2822  0.7639
  963MOL0     C27023   7.380   5.022   1.268  0.6634  0.5371 -0.0664
  963MOL0     C27024   7.259   5.086   1.201  0.2313 -0.2264 -0.0180
  963MOL0     C27025   7.160   4.987   1.144 -0.0004  0.1047  0.1327
  963MOL0     C27026   7.009   5.031   1.131  0.4592  0.0026  0.9471
  963MOL0     C27027   6.935   4.931   1.050 -0.4171 -0.4761  0.8016
  963MOL0    Cl27028   6.758   4.982   1.048 -0.2303  0.2647  0.0041
  963MOL0     C27029   7.938   5.406   1.232  0.0337  0.6052  0.7760
  963MOL0     C27030   8.072   5.445   1.238  0.0112  0.6982 -0.5403
  963MOL0     O27031   8.281   5.675   1.097  0.0384 -0.0710  0.0541
  963MOL0     C27032   8.567   5.503   1.228  0.0814 -0.3528 -0.1553
  963MOL0     C27033   8.688   5.533   1.284 -0.4031 -0.1255 -0.1769
  963MOL0     N27034   9.274   5.338   1.437 -0.2814  0.6676 -0.1206
  963MOL0     N27035   9.309   5.252   1.533  0.7009  0.0975 -0.4657
  963MOL0     C27036  10.339   4.841   1.723  0.3692  0.2065 -0.2550
  963MOL0     C27037  10.460   4.816   1.652  0.9312  0.6447 -0.0333
  963MOL0     C27038  10.934   4.751   1.658  0.1539  0.3332  0.5080
  963MOL0     C27039  10.981   4.853   1.579  0.2865  0.5178  0.6010
  963MOL0     C27040  11.114   4.871   1.544  0.3929  0.7766 -0.8132
  963MOL0     C27041  11.211   4.777   1.595 -0.0840 -0.1060 -0.2841
  963MOL0     O27042  11.349   4.782   1.570  0.1454  1.4039 -0.2913
  963MOL0     C27043  11.389   4.843   1.452 -0.4572  0.0133 -0.6240
  963MOL0     C27044  11.448   4.741   1.358  0.3726  0.0088 -0.0070
  963MOL0     C27045  11.552   4.654   1.418  0.5844  1.1324 -0.1239
  963MOL0     C27046  11.647   4.589   1.313 -0.6822 -0.2882  0.0272
  963MOL0     C27047  11.760   4.676   1.274  0.2009 -0.1809  0.2459
  963MOL0     C27048  11.840   4.762   1.239  0.4665  0.6031 -0.2155
  963MOL0     C27049  11.164   4.675   1.684 -0.2964 -0.1133 -0.3327
  963MOL0     C27050  11.027   4.657   1.706 -0.1578  1.0694 -0.4235
  963MOL0     H27051  10.675   4.912   1.893 -0.1705 -0.5662  1.1712
  963MOL0     H27052  10.461   4.960   2.016 -0.4199  1.3670 -0.6898
  963MOL0     H27053  10.250   5.093   2.034 -2.7637  1.0078  0.8367
  963MOL0     H27054  10.238   4.941   2.119 -1.4380  1.2078  1.1029
  963MOL0     H27055  10.026   5.065   2.151 -0.4551 -0.8808  0.5020
  963MOL0     H27056   9.991   4.924   2.052  0.5751 -0.5093 -0.0899
  963MOL0     H27057  10.023   5.082   1.859  0.1416 -1.8435  0.4835
  963MOL0     H27058  10.029   5.222   1.971 -2.8490  1.0870  0.4783
  963MOL0     H27059   9.792   5.019   1.970  2.0960  0.3422 -2.0409
  963MOL0     H27060   9.808   5.166   2.060 -2.8375 -0.0729 -1.2320
  963MOL0     H27061   9.799   5.140   1.763  1.7639  2.0894 -0.8763
  963MOL0     H27062   9.813   5.292   1.847  1.4152 -0.1016 -0.9247
  963MOL0     H27063   9.610   5.261   1.971 -1.1813 -0.4563  1.0614
  963MOL0     H27064   9.578   5.098   1.908  1.0438 -0.9530  1.3537
  963MOL0     H27065   9.599   5.334   1.729  0.1603  0.3009  1.3252
  963MOL0     H27066   9.578   5.161   1.680  3.9361  0.1810  1.1693
  963MOL0     H27067   9.373   5.322   1.855  1.7087 -2.8827  2.6827
  963MOL0     H27068   9.353   5.165   1.782  0.3513  0.9291 -1.0080
  963MOL0     H27069   9.325   5.523   1.700 -0.0206  0.6376  0.7946
  963MOL0     H27070   9.336   5.632   1.351  0.5548  0.3966  1.1419
  963MOL0     H27071   9.243   5.676   1.498 -0.3617 -0.2706  1.1301
  963MOL0     H27072   9.061   5.528   1.393  0.9469 -2.2492 -1.6520
  963MOL0     H27073   9.150   5.507   1.252  2.7173 -2.3718  1.6078
  963MOL0     H27074   9.088   5.788   1.383 -3.5107  0.9022 -0.3456
  963MOL0     H27075   9.174   5.754   1.221  0.0513 -1.9629 -0.3813
  963MOL0     H27076   8.985   5.683   1.125  1.0435 -2.6845  1.1958
  963MOL0     H27077   8.945   5.837   1.225  1.9104  0.3369 -0.0838
  963MOL0     H27078   8.738   5.834   1.148  0.0151 -0.4355 -3.1743
  963MOL0     H27079   8.490   5.786   1.059  0.2166  0.4934  0.7794
  963MOL0     H27080   8.194   5.330   0.951  0.6355 -4.0483  2.3980
  963MOL0     H27081   7.950   5.280   0.917  1.5846 -1.1840 -0.3730
  963MOL0     H27082   7.631   5.365   1.272  0.3608 -0.3486  1.4215
  963MOL0     H27083   7.738   5.229   1.305  0.5905 -0.2464 -0.7507
  963MOL0     H27084   7.604   5.092   1.128 -0.5827  1.2486 -1.2357
  963MOL0     H27085   7.498   5.228   1.119  1.3735  1.7636  0.0022
  963MOL0     H27086   7.446   5.206   1.366  0.3356  0.8111  2.2352
  963MOL0     H27087   7.547   5.077   1.390 -2.1789  1.8788  2.4885
  963MOL0     H27088   7.429   4.948   1.203  1.7963 -1.1953  2.5856
  963MOL0     H27089   7.356   4.963   1.357 -0.2572 -2.4173 -2.1357
  963MOL0     H27090   7.294   5.159   1.128  1.4162 -1.4265 -0.7036
  963MOL0     H27091   7.206   5.133   1.284  4.6209 -1.3156  3.7800
  963MOL0     H27092   7.163   4.900   1.211  1.7900  0.5115  0.6213
  963MOL0     H27093   7.204   4.955   1.049  1.2486 -4.3632  1.9260
  963MOL0     H27094   6.969   5.034   1.232 -3.0071 -1.4946 -0.2354
  963MOL0     H27095   7.004   5.128   1.081 -0.9055 -0.3607  0.3426
  963MOL0     H27096   6.952   4.831   1.091  0.7002  0.8039  3.7149
  963MOL0     H27097   6.977   4.940   0.950  0.1489  0.5169  1.1205
  963MOL0     H27098   7.868   5.442   1.306 -1.9743 -0.9502 -0.2494
  963MOL0     H27099   8.111   5.505   1.320  2.9082  2.1099 -2.7720
  963MOL0     H27100   8.507   5.417   1.258 -2.3214  0.9102 -1.1146
  963MOL0     H27101   8.738   5.469   1.355  0.6231  0.5920 -0.2342
  963MOL0     H27102  10.255   4.808   1.663  0.9888  2.0868 -2.3417
  963MOL0     H27103  10.460   4.773   1.553  0.3529  3.1787 -1.2154
  963MOL0     H27104  10.907   4.930   1.560 -1.4935 -1.9497 -3.8983
  963MOL0     H27105  11.158   4.949   1.482  2.5744 -0.7917 -1.3288
  963MOL0     H27106  11.455   4.927   1.475 -3.3353  1.7477  2.2263
  963MOL0     H27107  11.310   4.890   1.393 -1.1263 -0.0452  0.1961
  963MOL0     H27108  11.372   4.666   1.333  1.8352 -1.6802  0.4210
  963MOL0     H27109  11.492   4.786   1.269  1.5109 -2.4424 -0.7962
  963MOL0     H27110  11.496   4.572   1.465  0.2722  0.8833 -0.9122
  963MOL0     H27111  11.601   4.707   1.500 -0.5917  1.6115  0.2892
  963MOL0     H27112  11.670   4.488   1.349 -1.5234 -0.1783  0.9413
  963MOL0     H27113  11.591   4.581   1.220  1.3506 -0.8923 -1.1978
  963MOL0     H27114  11.927   4.823   1.226  1.1493 -0.6181 -1.6420
  963MOL0     H27115  11.226   4.602   1.735  0.1908  1.0187  0.7427
  963MOL0     H27116  10.995   4.571   1.763  1.0373 -1.6234 -3.5505
  964MOL0     O27117   5.961  11.140   9.006  0.0407 -0.1762  0.1151
  964MOL0     C27118   6.006  11.071   9.093  0.9554 -0.3366  0.0193
  964MOL0     O27119   5.933  11.008   9.190 -0.4262 -0.0598  0.3286
  964MOL0     C27120   5.801  11.049   9.197 -0.3164  0.5817  0.4661
  964MOL0     C27121   5.776  11.148   9.291 -0.6806  0.0457  0.0005
  964MOL0     C27122   5.652  11.196   9.316 -0.0653 -0.0951 -0.4837
  964MOL0     C27123   5.549  11.159   9.237  0.0268  0.6340 -0.0872
  964MOL0     O27124   5.424  11.199   9.284 -0.6678 -0.5658  0.9897
  964MOL0     C27125   5.313  11.118   9.245  0.1451  0.7345 -0.6378
  964MOL0     C27126   5.187  11.154   9.325  0.8074  0.3037 -0.0322
  964MOL0     C27127   5.087  11.034   9.333  0.8724 -0.0321  0.1065
  964MOL0     C27128   4.958  11.049   9.419 -0.0856  0.6068  0.1956
  964MOL0     C27129   4.859  11.128   9.320  0.2257  0.8149  0.1061
  964MOL0     C27130   4.742  11.179   9.401  0.2533 -0.9149  0.6157
  964MOL0     C27131   4.640  11.088   9.457  0.9176  1.0594 -0.6831
  964MOL0     C27132   4.544  11.165   9.551  0.2072  1.0405  0.3463
  964MOL0     N27133   4.456  11.261   9.482 -0.9143 -0.4620  0.2998
  964MOL0     C27134   4.334  11.255   9.431 -0.5173 -0.3673 -0.2225
  964MOL0     C27135   4.305  11.378   9.384  0.7275  0.1559 -0.5576
  964MOL0     C27136   4.168  11.431   9.331  0.0902 -0.5791  0.7058
  964MOL0     C27137   4.047  11.367   9.381  0.3228 -0.5099 -0.8061
  964MOL0     C27138   4.040  11.392   9.528  0.0591 -0.3508  0.2111
  964MOL0     C27139   3.905  11.353   9.579  0.2563 -0.6271  0.7131
  964MOL0     O27140   3.816  11.464   9.566 -0.7640 -0.3052 -0.1152
  964MOL0     C27141   3.680  11.438   9.584 -0.4680 -0.6019  0.0076
  964MOL0     C27142   3.626  11.354   9.674  0.9160  0.4532 -0.6020
  964MOL0     C27143   3.488  11.347   9.696  0.1154  0.0220  0.5152
  964MOL0     C27144   3.402  11.414   9.612 -0.0577 -1.1416 -0.4764
  964MOL0     C27145   3.251  11.419   9.638 -0.6202 -0.0877 -0.4655
  964MOL0     O27146   3.206  11.390   9.751 -0.0978  0.4997 -0.3328
  964MOL0     C27147   3.079  11.416   9.789  0.1262 -0.7469 -0.4376
  964MOL0     C27148   3.057  11.498   9.906 -1.0824 -0.0641  0.7331
  964MOL0     C27149   2.930  11.509   9.954 -0.4933  0.6850 -0.3190
  964MOL0     C27150   2.818  11.470   9.878 -0.2793  0.3744 -0.0819
  964MOL0     O27151   2.691  11.481   9.939 -0.2672  0.0146 -0.4193
  964MOL0     C27152   2.576  11.509   9.857  0.2536 -0.0531  0.1528
  964MOL0     C27153   2.594  11.633   9.771 -0.2842 -1.0148  0.5639
  964MOL0     C27154   2.472  11.640   9.666  0.1363 -0.3860 -0.0752
  964MOL0     C27155   2.480  11.783   9.612  0.4241 -0.3117 -0.2769
  964MOL0     C27156   2.351  11.797   9.525  0.2480 -0.0374  0.5597
  964MOL0     C27157   2.354  11.934   9.462  0.2096 -0.9601  0.3826
  964MOL0     C27158   2.367  12.057   9.564  0.4401 -0.4800 -0.2362
  964MOL0     C27159   2.380  12.192   9.493 -0.6592  0.6821 -0.2386
  964MOL0    Cl27160   2.512  12.205   9.377  0.0260  0.2322 -0.0504
  964MOL0     C27161   2.839  11.391   9.764  0.1929 -0.5896 -0.2263
  964MOL0     C27162   2.966  11.363   9.724 -1.0281  0.6409  0.2931
  964MOL0     O27163   3.184  11.460   9.546  0.2125 -0.8351 -0.2277
  964MOL0     C27164   3.458  11.494   9.516 -0.2241 -1.0061 -1.0783
  964MOL0     C27165   3.591  11.516   9.510  0.6494 -0.1648  0.7881
  964MOL0     N27166   4.413  11.462   9.408  0.4140  0.0306 -0.6278
  964MOL0     N27167   4.501  11.389   9.458 -0.1787 -0.0468  0.8344
  964MOL0     C27168   5.570  11.072   9.132 -0.1412 -0.8402  0.7788
  964MOL0     C27169   5.697  11.023   9.106 -0.7710 -0.6697 -0.1371
  964MOL0     C27170   6.150  11.068   9.099 -0.1801 -0.0035  0.0929
  964MOL0     C27171   6.215  10.991   9.199  0.5197  0.2589 -1.0195
  964MOL0     C27172   6.356  10.990   9.215  0.1007 -0.1872 -0.1343
  964MOL0     C27173   6.443  11.063   9.130  0.1137 -0.7662 -0.7670
  964MOL0     O27174   6.570  11.063   9.174 -0.3616 -0.1577 -0.0224
  964MOL0     C27175   6.676  11.125   9.106 -0.2980 -0.1821 -0.3538
  964MOL0     C27176   6.732  11.244   9.190  0.5969  0.0972 -0.1691
  964MOL0     C27177   6.795  11.208   9.325 -0.0355  0.3179 -0.3818
  964MOL0     C27178   6.884  11.324   9.388 -0.2389 -1.0130  0.2057
  964MOL0     C27179   6.957  11.297   9.512  0.1430  0.4600 -0.6574
  964MOL0     C27180   7.025  11.277   9.612  0.5368  0.0607 -0.3370
  964MOL0     C27181   6.381  11.139   9.031 -1.2391  0.3598  0.3070
  964MOL0     C27182   6.242  11.141   9.015  0.8079  0.2437  0.1889
  964MOL0     H27183   5.854  11.184   9.357 -0.3192  1.8464 -1.3078
  964MOL0     H27184   5.628  11.275   9.386 -0.9148  1.4114 -2.3856
  964MOL0     H27185   5.330  11.013   9.271  0.6761  0.2356 -2.8192
  964MOL0     H27186   5.289  11.123   9.138 -0.6627  0.0652 -0.4953
  964MOL0     H27187   5.145  11.238   9.269  1.0300 -0.2411 -1.0516
  964MOL0     H27188   5.220  11.179   9.426 -0.9375  0.8139  0.4324
  964MOL0     H27189   5.131  10.952   9.391 -0.3928  0.1500  1.3845
  964MOL0     H27190   5.074  11.010   9.227  3.1834  0.1696 -0.2701
  964MOL0     H27191   4.910  10.951   9.430  1.3421 -0.3680 -1.7369
  964MOL0     H27192   4.971  11.092   9.519  0.0339 -0.4371  0.6486
  964MOL0     H27193   4.820  11.064   9.240  0.2730  1.1491 -0.1873
  964MOL0     H27194   4.906  11.212   9.268  1.4584 -1.2444 -2.3389
  964MOL0     H27195   4.684  11.242   9.333  1.9814  0.7769  0.6298
  964MOL0     H27196   4.783  11.251   9.471 -1.1263 -0.7677  1.3125
  964MOL0     H27197   4.574  11.043   9.382  0.9718 -4.2217  1.9598
  964MOL0     H27198   4.693  11.007   9.509 -0.0741 -0.2552 -1.6342
  964MOL0     H27199   4.604  11.212   9.629  0.5549  0.9778  0.1190
  964MOL0     H27200   4.481  11.086   9.593  2.4019 -0.6857  0.5669
  964MOL0     H27201   4.271  11.167   9.421  0.6639 -1.0643 -2.1845
  964MOL0     H27202   4.164  11.423   9.222 -2.5219  0.3257  0.6852
  964MOL0     H27203   4.155  11.536   9.358  1.0836 -0.4342  0.6844
  964MOL0     H27204   4.048  11.261   9.354  0.0743 -1.2074  1.6197
  964MOL0     H27205   3.956  11.409   9.337 -0.0543 -0.6328 -0.1629
  964MOL0     H27206   4.111  11.325   9.577 -0.4990 -0.1745  1.2904
  964MOL0     H27207   4.066  11.492   9.563  0.8444 -0.1742 -0.8199
  964MOL0     H27208   3.914  11.330   9.685  1.2782  2.2958  1.3809
  964MOL0     H27209   3.869  11.265   9.525  2.0219  0.4902 -2.5987
  964MOL0     H27210   3.690  11.303   9.745  0.3835  0.9380  0.2485
  964MOL0     H27211   3.456  11.284   9.779 -0.1000 -2.3928 -1.2946
  964MOL0     H27212   3.148  11.529   9.957 -0.1000 -1.8570  0.1400
  964MOL0     H27213   2.923  11.559  10.051  0.8441  0.8626 -0.3030
  964MOL0     H27214   2.501  11.531   9.934  1.4969 -3.2557  2.4955
  964MOL0     H27215   2.541  11.420   9.803 -1.5040  1.6619 -1.7119
  964MOL0     H27216   2.688  11.623   9.715 -0.1395  1.3468  0.2685
  964MOL0     H27217   2.591  11.720   9.838 -0.2479 -1.5026  1.2045
  964MOL0     H27218   2.373  11.623   9.709  0.2096 -0.4307  0.0777
  964MOL0     H27219   2.504  11.575   9.584  2.9072  2.0986 -1.1519
  964MOL0     H27220   2.466  11.845   9.701 -3.2341  1.1314 -1.6689
  964MOL0     H27221   2.572  11.814   9.562  0.0052  0.8759 -0.3260
  964MOL0     H27222   2.263  11.788   9.589 -1.5434 -0.3733 -1.8369
  964MOL0     H27223   2.345  11.723   9.445  2.9313 -0.2030  0.3989
  964MOL0     H27224   2.266  11.953   9.400  0.3376  1.0200  0.7375
  964MOL0     H27225   2.439  11.935   9.393 -1.0654  0.5642 -1.2723
  964MOL0     H27226   2.279  12.066   9.628  1.8281  2.5968  1.4161
  964MOL0     H27227   2.451  12.049   9.633  1.5895  3.4184 -0.9251
  964MOL0     H27228   2.407  12.263   9.572  0.2107 -1.2719  1.3275
  964MOL0     H27229   2.283  12.221   9.454 -1.0353  1.7165  1.3672
  964MOL0     H27230   2.751  11.352   9.714 -0.4656  0.2177  0.2663
  964MOL0     H27231   2.985  11.297   9.640 -1.4809 -0.9414  1.3827
  964MOL0     H27232   3.398  11.543   9.440 -0.6846 -2.6628 -1.8259
  964MOL0     H27233   3.620  11.590   9.436 -1.1096  0.1641  0.3819
  964MOL0     H27234   5.495  11.073   9.054  2.2030 -0.0085 -1.5792
  964MOL0     H27235   5.711  10.976   9.009  0.6111  0.3626 -0.4668
  964MOL0     H27236   6.151  10.952   9.277 -0.6868  0.2309 -2.0006
  964MOL0     H27237   6.402  10.951   9.305  1.2903  1.8475  0.1958
  964MOL0     H27238   6.653  11.161   9.005  3.6807 -0.9349 -1.6856
  964MOL0     H27239   6.755  11.051   9.094 -1.3358 -1.3052 -0.4696
  964MOL0     H27240   6.805  11.301   9.132 -0.0180 -0.8864 -1.9875
  964MOL0     H27241   6.648  11.313   9.200 -0.3265 -1.0917  0.6088
  964MOL0     H27242   6.865  11.126   9.308 -2.0097 -0.9322 -3.2177
  964MOL0     H27243   6.729  11.178   9.406  3.3307 -1.5161  1.9026
  964MOL0     H27244   6.947  11.353   9.303 -1.6060 -0.5828 -0.7112
  964MOL0     H27245   6.817  11.410   9.398 -2.6502 -2.3700 -2.6566
  964MOL0     H27246   7.087  11.257   9.697 -0.3395  1.4848  0.6746
  964MOL0     H27247   6.449  11.197   8.970  1.1522 -0.9800  1.5715
  964MOL0     H27248   6.210  11.203   8.931  0.1185 -0.2809  0.0583
  965MOL0     O27249   5.994  10.528  10.268 -0.3032  0.1681 -0.3474
  965MOL0     C27250   5.986  10.404  10.266 -0.0922 -1.2872  0.0855
  965MOL0     O27251   5.877  10.336  10.225 -0.6192  0.3645  0.8904
  965MOL0     C27252   5.755  10.382  10.250  0.3642  0.3274  0.1238
  965MOL0     C27253   5.716  10.429  10.380 -0.0925 -0.2550 -0.2170
  965MOL0     C27254   5.586  10.480  10.398  0.1627 -0.9672  1.0684
  965MOL0     C27255   5.497  10.494  10.284 -0.9012  0.3066 -1.1737
  965MOL0     O27256   5.372  10.534  10.327 -0.4486 -0.0503  0.1318
  965MOL0     C27257   5.356  10.673  10.364 -0.5481 -0.5942 -0.2609
  965MOL0     C27258   5.209  10.709  10.377  0.1894 -0.6174  0.4566
  965MOL0     C27259   5.131  10.690  10.239  0.7890  0.5883  0.4251
  965MOL0     C27260   4.987  10.741  10.245  0.4133  1.1061 -0.8959
  965MOL0     C27261   4.900  10.700  10.132  0.0474  0.5474  0.8587
  965MOL0     C27262   4.836  10.560  10.145  0.8764  0.0682  0.1340
  965MOL0     C27263   4.737  10.527  10.043  0.3919 -0.6433  0.6011
  965MOL0     C27264   4.698  10.377  10.057 -0.4487 -0.3470 -0.0685
  965MOL0     N27265   4.626  10.321   9.937 -0.2202  0.1562 -0.0703
  965MOL0     C27266   4.492  10.345   9.891 -0.6464 -0.9326 -0.0194
  965MOL0     C27267   4.456  10.259   9.796 -0.6933  0.0912  0.5668
  965MOL0     C27268   4.329  10.256   9.712  0.3897  0.5207  0.5050
  965MOL0     C27269   4.326  10.323   9.574  0.8489  0.2822 -0.0462
  965MOL0     C27270   4.194  10.354   9.509 -0.1363 -0.8082  1.2448
  965MOL0     C27271   4.126  10.239   9.432 -0.2534  0.1084  0.9156
  965MOL0     O27272   4.077  10.133   9.526 -0.6275 -0.6441 -0.4094
  965MOL0     C27273   3.966  10.164   9.599 -0.2003  1.0293  0.2002
  965MOL0     C27274   3.974  10.149   9.734  0.7702  0.0665  0.2733
  965MOL0     C27275   3.874  10.192   9.822  0.1618 -0.0607 -0.6074
  965MOL0     C27276   3.751  10.247   9.768 -0.7834  0.0234 -0.2746
  965MOL0     C27277   3.643  10.282   9.859 -0.2688  1.3686 -0.1209
  965MOL0     O27278   3.524  10.330   9.807 -0.7680 -0.3496  0.2762
  965MOL0     C27279   3.418  10.381   9.876  0.2380  0.1126  0.7711
  965MOL0     C27280   3.292  10.350   9.822 -0.5904 -0.1746  0.2133
  965MOL0     C27281   3.173  10.386   9.889 -0.0248 -0.2988 -0.0142
  965MOL0     C27282   3.184  10.442  10.018  0.1235 -0.1940  0.0737
  965MOL0     O27283   3.083  10.490  10.091 -0.7104 -0.3376  0.2465
  965MOL0     C27284   3.080  10.633  10.108  0.0274  0.2579 -0.1040
  965MOL0     C27285   2.929  10.669  10.112 -0.3088  0.2691  0.1262
  965MOL0     C27286   2.853  10.651   9.984  0.2095  0.0692  1.1645
  965MOL0     C27287   2.730  10.742   9.985  0.1806  0.3851  0.0503
  965MOL0     C27288   2.631  10.683  10.089  0.3894  0.0847 -0.1348
  965MOL0     C27289   2.501  10.767  10.073  0.2395 -0.1403 -0.1108
  965MOL0     C27290   2.391  10.702  10.158 -0.7795  0.0579  0.7231
  965MOL0     C27291   2.348  10.574  10.088  0.6411 -0.3951  0.4637
  965MOL0    Cl27292   2.404  10.425  10.182  0.1985  0.1627  0.1917
  965MOL0     C27293   3.313  10.477  10.068 -0.3947  0.6441 -0.6978
  965MOL0     C27294   3.427  10.434  10.001 -0.2721 -0.6440 -0.0320
  965MOL0     O27295   3.655  10.270   9.983 -0.4901 -0.4650 -0.0416
  965MOL0     C27296   3.733  10.250   9.628 -0.2612 -0.9116 -0.1362
  965MOL0     C27297   3.843  10.213   9.545  0.5906  0.2732  0.5367
  965MOL0     N27298   4.569  10.191   9.761 -0.0743  0.0625  0.9338
  965MOL0     N27299   4.675  10.229   9.839 -0.3739 -0.4863  0.2957
  965MOL0     C27300   5.529  10.439  10.169  0.1870  0.8020  0.6252
  965MOL0     C27301   5.654  10.378  10.149  0.6949 -0.1929  0.0130
  965MOL0     C27302   6.110  10.330  10.303 -0.1158  0.7306 -0.5695
  965MOL0     C27303   6.109  10.191  10.307  0.2599  0.0058 -0.9696
  965MOL0     C27304   6.210  10.122  10.368  0.1507 -0.9323  0.0073
  965MOL0     C27305   6.325  10.188  10.401  1.1481  0.7976  0.6310
  965MOL0     O27306   6.430  10.120  10.453 -0.1592  0.0568  0.7750
  965MOL0     C27307   6.466  10.149  10.591  0.5375  0.6549  1.6195
  965MOL0     C27308   6.584  10.059  10.622 -0.7357 -0.5320  0.3123
  965MOL0     C27309   6.716  10.103  10.568  0.3639  0.3896  0.8893
  965MOL0     C27310   6.830  10.012  10.610 -0.3045  0.1425  0.7532
  965MOL0     C27311   6.821   9.874  10.565  0.4615  0.4045 -0.3424
  965MOL0     C27312   6.823   9.772  10.493  0.1850 -0.0811 -0.5619
  965MOL0     C27313   6.332  10.330  10.398  0.2934  0.2710  0.1735
  965MOL0     C27314   6.219  10.401  10.347 -0.4142  0.4795 -0.2923
  965MOL0     H27315   5.787  10.425  10.462 -1.7524 -0.8846  1.2469
  965MOL0     H27316   5.560  10.507  10.500  1.4189 -0.5573  1.2981
  965MOL0     H27317   5.393  10.729  10.277 -0.5980 -0.9412 -0.5082
  965MOL0     H27318   5.422  10.709  10.443  0.4805  0.2784 -1.4607
  965MOL0     H27319   5.194  10.813  10.410  2.8422  0.2840 -0.8454
  965MOL0     H27320   5.162  10.642  10.449  2.9426 -1.7218  1.3662
  965MOL0     H27321   5.138  10.587  10.201  2.2958  1.4593 -1.9260
  965MOL0     H27322   5.190  10.742  10.163  0.0976  2.9148  1.4083
  965MOL0     H27323   4.947  10.702  10.339  0.3442  1.6979 -0.6722
  965MOL0     H27324   4.986  10.849  10.267  1.5663  0.6946  1.5100
  965MOL0     H27325   4.950  10.705  10.034  1.3622 -0.8240  1.4281
  965MOL0     H27326   4.822  10.777  10.126  0.3717  0.8482  0.4318
  965MOL0     H27327   4.786  10.551  10.242 -2.3699 -2.3881 -1.5574
  965MOL0     H27328   4.917  10.487  10.137  0.8990  0.0896  0.1639
  965MOL0     H27329   4.653  10.597  10.051  1.2162  1.8003 -5.8329
  965MOL0     H27330   4.771  10.557   9.943 -0.8449  0.2491  0.4188
  965MOL0     H27331   4.634  10.362  10.144 -1.9760  0.1158 -1.0796
  965MOL0     H27332   4.789  10.317  10.055  0.4341  0.8394 -4.0712
  965MOL0     H27333   4.423  10.423   9.924  0.0643  0.4630 -1.6368
  965MOL0     H27334   4.262  10.310   9.779  3.1242  2.8376  1.5559
  965MOL0     H27335   4.296  10.152   9.708 -1.1032  0.9147  1.6264
  965MOL0     H27336   4.390  10.276   9.499 -0.4515 -1.1169 -0.3332
  965MOL0     H27337   4.365  10.424   9.594 -1.6243  1.7028 -1.7883
  965MOL0     H27338   4.122  10.387   9.584  1.9960  1.2824  2.5129
  965MOL0     H27339   4.217  10.436   9.440  0.8922 -0.6542  1.7441
  965MOL0     H27340   4.191  10.194   9.356 -1.0260  0.3011  0.1210
  965MOL0     H27341   4.041  10.278   9.376  0.4221 -1.4955 -1.3942
  965MOL0     H27342   4.059  10.091   9.771  2.6862  1.7801 -1.1878
  965MOL0     H27343   3.895  10.180   9.927  5.7795 -2.4517 -1.6420
  965MOL0     H27344   3.301  10.299   9.727  1.9059 -0.4044  0.4979
  965MOL0     H27345   3.078  10.348   9.853 -1.2461 -0.1009  2.7500
  965MOL0     H27346   3.129  10.683  10.024 -1.8069  0.4454 -1.1182
  965MOL0     H27347   3.138  10.653  10.198  3.6334 -1.1698 -1.9202
  965MOL0     H27348   2.929  10.766  10.161  1.6902 -0.5437  1.8717
  965MOL0     H27349   2.878  10.607  10.186 -2.1725  1.8194  0.2109
  965MOL0     H27350   2.825  10.546   9.975 -1.5939  0.5648  0.7057
  965MOL0     H27351   2.923  10.682   9.906  1.4554 -1.2552  1.7000
  965MOL0     H27352   2.754  10.847  10.008 -0.1259  0.7574 -1.2380
  965MOL0     H27353   2.683  10.756   9.887  0.0560  0.5121  0.1262
  965MOL0     H27354   2.672  10.692  10.190  0.0924 -2.1008  0.2401
  965MOL0     H27355   2.618  10.575  10.077  0.3667 -0.2655  2.5613
  965MOL0     H27356   2.468  10.772   9.969 -0.5906  0.7786  0.1729
  965MOL0     H27357   2.520  10.870  10.107 -3.8978  0.3404  1.3200
  965MOL0     H27358   2.419  10.672  10.259 -0.9123 -0.7432  0.5262
  965MOL0     H27359   2.305  10.770  10.149  1.0646  2.3201 -1.6122
  965MOL0     H27360   2.371  10.582   9.981  2.7120 -3.4180  0.5759
  965MOL0     H27361   2.239  10.570  10.099  0.8421  0.0999  3.5942
  965MOL0     H27362   3.334  10.522  10.164 -1.3782  0.7140 -0.5028
  965MOL0     H27363   3.526  10.456  10.040 -1.0514  0.9249  1.1476
  965MOL0     H27364   3.649  10.304   9.586  1.1556  0.7134 -1.0289
  965MOL0     H27365   3.832  10.227   9.438 -0.5601 -3.5282  0.0134
  965MOL0     H27366   5.451  10.445  10.093  0.7365 -2.3219 -0.3133
  965MOL0     H27367   5.671  10.337  10.051  3.5927 -1.4735  0.9473
  965MOL0     H27368   6.014  10.149  10.277 -0.9809  1.8749  0.1169
  965MOL0     H27369   6.193  10.015  10.377  0.7603 -0.8562  3.1574
  965MOL0     H27370   6.387  10.123  10.661  2.4955 -0.7643  3.4372
  965MOL0     H27371   6.491  10.254  10.608  4.0506  0.1383  0.4822
  965MOL0     H27372   6.599  10.058  10.730 -0.5843  1.7456  0.3568
  965MOL0     H27373   6.570   9.958  10.582 -0.4015 -0.5489  0.2353
  965MOL0     H27374   6.748  10.199  10.609  0.6729  0.6879 -0.0216
  965MOL0     H27375   6.715  10.113  10.459 -0.9556 -1.6346  0.6497
  965MOL0     H27376   6.926  10.051  10.573  0.1194  0.2844  1.9607
  965MOL0     H27377   6.843  10.017  10.719  2.3132  1.8658  0.4675
  965MOL0     H27378   6.828   9.681  10.435  2.1902 -0.7740  0.5918
  965MOL0     H27379   6.426  10.373  10.429  1.6404  1.0484 -4.3090
  965MOL0     H27380   6.212  10.507  10.369  2.1402  0.2090  2.4068
  966MOL0     O27381   3.509   9.696   4.956  0.7977 -0.0979  0.0883
  966MOL0     C27382   3.540   9.642   5.068 -0.3351  0.0459  0.7010
  966MOL0     O27383   3.460   9.606   5.163 -0.3248 -0.1055 -0.0932
  966MOL0     C27384   3.327   9.630   5.181 -0.7241  0.5575  2.0058
  966MOL0     C27385   3.278   9.616   5.306  0.6615  0.2626  0.7171
  966MOL0     C27386   3.146   9.661   5.346 -0.4672  0.2420 -0.6909
  966MOL0     C27387   3.055   9.705   5.241  0.3560 -0.4182 -1.2643
  966MOL0     O27388   2.935   9.748   5.289 -0.6443  0.3233 -0.7693
  966MOL0     C27389   2.848   9.795   5.186  0.4368 -0.1787  0.2947
  966MOL0     C27390   2.713   9.821   5.252  0.2197 -0.3632 -0.0484
  966MOL0     C27391   2.627   9.895   5.146 -0.8969  0.2194  0.0858
  966MOL0     C27392   2.499   9.953   5.209  0.3390 -0.1584  0.2633
  966MOL0     C27393   2.400   9.999   5.099  0.7524  0.4138 -0.6014
  966MOL0     C27394   2.255  10.003   5.142 -0.3682  0.7414 -0.1801
  966MOL0     C27395   2.164  10.092   5.058 -0.2777 -0.0102 -0.9583
  966MOL0     C27396   2.161  10.062   4.902 -0.0412 -0.2689  0.6019
  966MOL0     N27397   2.034  10.090   4.851  0.0921  0.5215  0.1524
  966MOL0     C27398   1.962  10.204   4.860 -0.3721 -0.5318 -0.4254
  966MOL0     C27399   1.838  10.164   4.834  0.2264  0.3642 -0.5317
  966MOL0     C27400   1.724  10.271   4.832  0.2465 -0.1161  0.6665
  966MOL0     C27401   1.684  10.335   4.967 -0.9923  0.3514 -0.0443
  966MOL0     C27402   1.645  10.225   5.062 -0.4783 -0.1595 -0.2307
  966MOL0     C27403   1.499  10.242   5.092 -0.2808 -0.7051  0.0688
  966MOL0     O27404   1.440  10.154   5.190  0.6913 -0.1448 -0.2952
  966MOL0     C27405   1.303  10.171   5.228 -0.8056  0.2056 -0.0030
  966MOL0     C27406   1.221  10.261   5.160 -1.2231  0.3798  0.6486
  966MOL0     C27407   1.081  10.272   5.179 -0.7549 -0.6250 -1.2303
  966MOL0     C27408   1.024  10.212   5.292 -0.2243  0.5641 -0.1569
  966MOL0     C27409   0.878  10.234   5.321 -0.3451 -0.2742  0.5819
  966MOL0     O27410   0.825  10.159   5.413 -0.0131 -0.2688 -0.5307
  966MOL0     C27411   0.701  10.192   5.451 -0.5564 -0.1541  0.2036
  966MOL0     C27412   0.613  10.097   5.456  1.9527  0.6990  0.0856
  966MOL0     C27413   0.487  10.113   5.515  0.1009 -0.6023  0.3953
  966MOL0     C27414   0.446  10.236   5.570  0.1808 -0.4438  0.5474
  966MOL0     O27415   0.326  10.261   5.630 -0.6366 -0.0287  0.4933
  966MOL0     C27416   0.272  10.153   5.697 -0.5219 -0.3905 -0.3025
  966MOL0     C27417   0.149  10.191   5.773  0.2169  0.2337  0.3244
  966MOL0     C27418   0.084  10.067   5.840  1.1481  0.0455  0.6924
  966MOL0     C27419  -0.041  10.121   5.901  0.8424  0.8436 -0.0097
  966MOL0     C27420  -0.153  10.025   5.944 -0.2091  0.1879  0.1049
  966MOL0     C27421  -0.088   9.938   6.056  0.2912 -0.3149 -0.7500
  966MOL0     C27422  -0.189   9.846   6.124 -0.0812  0.2371 -0.0060
  966MOL0     C27423  -0.136   9.745   6.227  0.6467  0.8439 -0.5819
  966MOL0    Cl27424  -0.084   9.830   6.383 -0.3370 -0.2019 -0.0866
  966MOL0     C27425   0.545  10.336   5.554  1.1155 -1.2479 -0.2777
  966MOL0     C27426   0.674  10.316   5.505 -0.0345 -0.0400 -0.3795
  966MOL0     O27427   0.818  10.319   5.248  1.1222 -0.0761  0.2443
  966MOL0     C27428   1.100  10.127   5.373 -0.3916  0.0759 -0.4554
  966MOL0     C27429   1.238  10.109   5.339  0.3295 -0.7216  0.7634
  966MOL0     N27430   1.835  10.033   4.807  0.4447  0.2979  0.9459
  966MOL0     N27431   1.954   9.988   4.810 -0.0229  0.0503 -0.1263
  966MOL0     C27432   3.107   9.724   5.110 -0.2158 -0.0534  0.0471
  966MOL0     C27433   3.247   9.693   5.082 -0.8611 -0.6448  0.1363
  966MOL0     C27434   3.680   9.645   5.089 -1.1638 -0.5826 -1.0229
  966MOL0     C27435   3.731   9.672   5.223 -0.2999  0.0163 -0.0212
  966MOL0     C27436   3.868   9.700   5.245  0.3562  1.0891 -0.0571
  966MOL0     C27437   3.956   9.676   5.143  0.4487  0.1549  0.0646
  966MOL0     O27438   4.097   9.677   5.147 -0.4313 -0.9940 -0.7459
  966MOL0     C27439   4.160   9.785   5.227 -0.3751  0.0682  0.2081
  966MOL0     C27440   4.313   9.771   5.227 -0.6133 -0.1375  0.1707
  966MOL0     C27441   4.368   9.863   5.111  0.5262  0.1093  0.5405
  966MOL0     C27442   4.517   9.849   5.087  0.4347  0.2003  0.6612
  966MOL0     C27443   4.578   9.901   5.207  0.2950 -0.5977 -0.3082
  966MOL0     C27444   4.639   9.951   5.300 -0.6783  0.5541  0.9618
  966MOL0     C27445   3.904   9.643   5.012 -0.4108 -0.3294 -0.6009
  966MOL0     C27446   3.768   9.623   4.982  0.0145 -0.3461 -0.5663
  966MOL0     H27447   3.338   9.576   5.387  0.7394  1.6404  1.3645
  966MOL0     H27448   3.112   9.656   5.449 -1.4496  3.3786 -0.7590
  966MOL0     H27449   2.844   9.712   5.115  0.5898  1.2641 -1.4887
  966MOL0     H27450   2.882   9.884   5.133 -2.0736 -0.0473 -1.2474
  966MOL0     H27451   2.719   9.890   5.336  0.4824 -1.2006  0.6319
  966MOL0     H27452   2.664   9.730   5.288 -2.2742  1.3217  1.0583
  966MOL0     H27453   2.586   9.825   5.072  0.5512  0.2367 -0.7597
  966MOL0     H27454   2.674   9.981   5.097  0.1643  2.2345  4.1991
  966MOL0     H27455   2.452   9.886   5.282 -1.5369  0.0688 -0.6994
  966MOL0     H27456   2.525  10.040   5.270  0.5522 -0.8949  1.2644
  966MOL0     H27457   2.413   9.938   5.009 -1.8857  0.4093 -1.0578
  966MOL0     H27458   2.426  10.100   5.067 -1.7135  0.7398 -1.8085
  966MOL0     H27459   2.254  10.038   5.246  2.4093  0.1175  0.1338
  966MOL0     H27460   2.208   9.904   5.137  0.0974  0.5229 -0.2219
  966MOL0     H27461   2.064  10.080   5.099  0.4977  0.4922  1.2028
  966MOL0     H27462   2.186  10.199   5.070  0.6108  0.0517 -2.8072
  966MOL0     H27463   2.195   9.959   4.893  0.9236 -0.1922  2.7128
  966MOL0     H27464   2.237  10.132   4.864 -0.3608 -0.2144  0.0489
  966MOL0     H27465   2.001  10.304   4.876 -1.9509  0.4116 -2.0301
  966MOL0     H27466   1.639  10.220   4.787  1.4831 -0.8316 -0.9702
  966MOL0     H27467   1.747  10.355   4.767  0.2338  0.6691  1.6445
  966MOL0     H27468   1.607  10.407   4.936 -0.7467  0.3029 -0.7890
  966MOL0     H27469   1.768  10.389   5.012 -1.3339  1.8861 -1.1539
  966MOL0     H27470   1.657  10.125   5.020 -4.1774 -1.1776  0.8021
  966MOL0     H27471   1.695  10.239   5.158 -1.7714 -1.9622  0.7628
  966MOL0     H27472   1.441  10.232   5.000  0.2918  0.2879 -0.4225
  966MOL0     H27473   1.496  10.344   5.132  3.1007 -0.9726  1.3288
  966MOL0     H27474   1.267  10.327   5.087  2.5243 -0.5125  1.9704
  966MOL0     H27475   1.019  10.341   5.123 -1.6332  0.0754  0.5103
  966MOL0     H27476   0.633  10.007   5.398 -2.5797 -0.1004 -0.6453
  966MOL0     H27477   0.419  10.028   5.521  1.7614 -2.2758 -2.1717
  966MOL0     H27478   0.337  10.115   5.777 -1.7909  3.3655  2.8603
  966MOL0     H27479   0.249  10.068   5.632  3.8834 -1.6026 -0.5688
  966MOL0     H27480   0.089  10.244   5.699  1.2638  2.5855  1.0628
  966MOL0     H27481   0.167  10.268   5.849 -1.0051  1.7474 -0.8600
  966MOL0     H27482   0.147  10.035   5.923 -0.5493 -1.6824  1.3829
  966MOL0     H27483   0.064   9.983   5.772 -3.6410  1.9495 -0.6242
  966MOL0     H27484  -0.016  10.182   5.988 -2.1879  0.4639  1.2518
  966MOL0     H27485  -0.086  10.187   5.826  0.4055  0.5801  0.0205
  966MOL0     H27486  -0.194   9.964   5.863  1.2282 -0.3454 -0.2553
  966MOL0     H27487  -0.243  10.080   5.971 -0.7775 -0.7220  0.0978
  966MOL0     H27488  -0.047   9.997   6.139  1.1639 -1.7913 -0.0977
  966MOL0     H27489   0.003   9.886   6.023  2.0104 -0.0837  3.0411
  966MOL0     H27490  -0.267   9.912   6.164  0.7374  1.2482 -0.0249
  966MOL0     H27491  -0.241   9.789   6.047 -0.8084  1.1315 -0.1888
  966MOL0     H27492  -0.070   9.666   6.190 -1.4330 -1.4755  0.3675
  966MOL0     H27493  -0.222   9.688   6.264  0.6098  1.9357  1.1522
  966MOL0     H27494   0.522  10.436   5.588 -0.0631 -1.0918 -1.4555
  966MOL0     H27495   0.751  10.390   5.522 -0.9739  1.2044 -1.3816
  966MOL0     H27496   1.064  10.075   5.461 -0.1231 -0.5437 -0.7016
  966MOL0     H27497   1.312  10.047   5.390  3.1922  0.7332 -1.3285
  966MOL0     H27498   3.043   9.763   5.032  0.3467  4.2727  1.4868
  966MOL0     H27499   3.277   9.701   4.978  0.1951 -4.0764  0.0305
  966MOL0     H27500   3.660   9.681   5.304 -0.7918 -0.6268 -0.3704
  966MOL0     H27501   3.900   9.725   5.346  0.0303  2.2019 -0.2238
  966MOL0     H27502   4.136   9.767   5.332  1.9338  1.3387  1.0151
  966MOL0     H27503   4.126   9.883   5.190  0.2736 -0.9354 -3.5208
  966MOL0     H27504   4.363   9.805   5.318  2.6072 -1.0257 -1.1432
  966MOL0     H27505   4.341   9.668   5.204 -3.7803 -1.1383  0.2567
  966MOL0     H27506   4.342   9.967   5.133 -1.0668 -0.1333 -0.0356
  966MOL0     H27507   4.312   9.836   5.021  1.1267 -0.8605  0.4506
  966MOL0     H27508   4.544   9.745   5.066  0.1818 -0.3803  2.9045
  966MOL0     H27509   4.542   9.912   5.001 -0.4539  0.2735  0.4422
  966MOL0     H27510   4.688  10.000   5.381 -0.4588 -0.0994  1.2280
  966MOL0     H27511   3.969   9.622   4.928 -0.0702 -1.7951  0.0051
  966MOL0     H27512   3.727   9.608   4.883  2.2544 -0.4827 -1.5244
  967MOL0     O27513   6.459   3.577  10.726 -0.5044 -0.7264 -0.3228
  967MOL0     C27514   6.461   3.484  10.810  0.0438 -1.1275 -0.8801
  967MOL0     O27515   6.351   3.439  10.880 -0.0419 -0.6836  0.4867
  967MOL0     C27516   6.228   3.488  10.858  0.4029  0.9397  0.0431
  967MOL0     C27517   6.137   3.468  10.961 -0.0840  0.7075 -0.8375
  967MOL0     C27518   6.003   3.501  10.951 -0.4619 -0.2358  0.3391
  967MOL0     C27519   5.954   3.550  10.836  0.3552 -0.8372  0.8098
  967MOL0     O27520   5.812   3.557  10.838  0.2495 -0.7372 -0.2151
  967MOL0     C27521   5.747   3.605  10.719  0.7229  0.1348  0.1939
  967MOL0     C27522   5.593   3.599  10.748 -0.1524  0.6094 -0.0185
  967MOL0     C27523   5.559   3.446  10.763 -0.1356  0.2334  0.3761
  967MOL0     C27524   5.410   3.410  10.767  0.6939 -0.1820 -0.4196
  967MOL0     C27525   5.339   3.364  10.634  0.4845 -0.3698  0.0494
  967MOL0     C27526   5.201   3.300  10.662  0.1358 -0.2022  0.3163
  967MOL0     C27527   5.124   3.248  10.535  0.3837 -0.2209 -0.0510
  967MOL0     C27528   5.085   3.357  10.440  0.4060 -1.0420  0.2534
  967MOL0     N27529   5.010   3.326  10.324  0.2495 -0.1873  0.4684
  967MOL0     C27530   4.885   3.367  10.290  0.0490 -0.1189 -0.5026
  967MOL0     C27531   4.858   3.313  10.177  0.1967  1.0091  0.3574
  967MOL0     C27532   4.718   3.327  10.114 -0.0288  0.2773  0.2088
  967MOL0     C27533   4.709   3.446  10.023 -0.3667 -0.2620 -0.2626
  967MOL0     C27534   4.717   3.572  10.112 -0.4601 -0.2301  0.8809
  967MOL0     C27535   4.653   3.690  10.041 -0.5949  0.1794 -0.5985
  967MOL0     O27536   4.512   3.683  10.013  1.0222  0.0531 -0.3354
  967MOL0     C27537   4.425   3.768  10.083 -0.5498  0.1204 -0.4016
  967MOL0     C27538   4.463   3.886  10.154  1.5561  0.2591  0.2589
  967MOL0     C27539   4.361   3.971  10.204 -1.1541 -0.5072 -0.5128
  967MOL0     C27540   4.226   3.937  10.177 -0.4846  0.9388  0.3696
  967MOL0     C27541   4.124   4.032  10.212 -0.1696  0.0558 -0.3084
  967MOL0     O27542   4.003   4.023  10.144 -0.7284 -0.2297  0.3462
  967MOL0     C27543   3.923   4.132  10.177 -0.5659  0.2984 -0.3050
  967MOL0     C27544   3.954   4.263  10.136  0.0227 -0.5879  1.2971
  967MOL0     C27545   3.870   4.362  10.180 -0.9786 -1.1717  0.1756
  967MOL0     C27546   3.766   4.341  10.257  1.0580  0.7177  0.2428
  967MOL0     O27547   3.701   4.453  10.307  0.1571 -0.3410 -0.5013
  967MOL0     C27548   3.556   4.437  10.305 -0.2688  0.2486 -0.6550
  967MOL0     C27549   3.479   4.577  10.324 -0.2823  0.5082 -0.2183
  967MOL0     C27550   3.327   4.556  10.368 -0.3439 -0.0844 -0.3051
  967MOL0     C27551   3.255   4.689  10.374 -0.0854  0.1973  0.0617
  967MOL0     C27552   3.115   4.684  10.432 -0.2033 -0.6611 -0.0633
  967MOL0     C27553   3.025   4.597  10.344 -0.4418  0.3142  0.0984
  967MOL0     C27554   2.883   4.608  10.382 -1.9010 -0.6326 -0.3387
  967MOL0     C27555   2.801   4.548  10.263 -0.9820 -0.3808 -0.6605
  967MOL0    Cl27556   2.642   4.572  10.311  0.3933 -0.2348  0.0042
  967MOL0     C27557   3.724   4.209  10.288  0.0175  0.4704 -0.6643
  967MOL0     C27558   3.804   4.106  10.248  0.0156  0.0352 -1.0761
  967MOL0     O27559   4.153   4.112  10.302 -0.0408 -0.6340  0.5327
  967MOL0     C27560   4.194   3.822  10.105  0.5921  0.1952 -0.9022
  967MOL0     C27561   4.293   3.729  10.060  0.1409 -0.7625 -0.8406
  967MOL0     N27562   4.959   3.238  10.128 -0.9328  0.6996  0.0991
  967MOL0     N27563   5.054   3.250  10.223 -0.0175  0.9851  0.7628
  967MOL0     C27564   6.038   3.568  10.725 -0.5078  0.5239 -0.5464
  967MOL0     C27565   6.170   3.530  10.742 -0.0720  0.6135  0.7672
  967MOL0     C27566   6.592   3.421  10.826  0.1999 -0.4188  0.4817
  967MOL0     C27567   6.611   3.330  10.935  0.0909  0.0701  0.0691
  967MOL0     C27568   6.733   3.260  10.952  0.6720 -0.6290  0.8500
  967MOL0     C27569   6.841   3.279  10.866  0.3122  0.1735  0.4562
  967MOL0     O27570   6.965   3.221  10.864  0.4074  0.6065  0.6335
  967MOL0     C27571   6.964   3.088  10.920 -0.0622  0.5756 -0.1014
  967MOL0     C27572   7.096   3.018  10.906  0.0592 -0.0043 -0.0890
  967MOL0     C27573   7.130   2.969  10.771 -0.5487 -0.3264  0.8628
  967MOL0     C27574   7.215   3.063  10.692 -0.1480 -0.5051 -0.5409
  967MOL0     C27575   7.232   3.006  10.553 -0.1147  0.8282 -0.6144
  967MOL0     C27576   7.245   2.961  10.447  0.0003 -0.5688  0.2628
  967MOL0     C27577   6.823   3.377  10.761  0.4955  0.3638 -0.5704
  967MOL0     C27578   6.706   3.454  10.748 -0.6479  0.2124  1.2600
  967MOL0     H27579   6.175   3.426  11.054  4.4966  0.3093 -2.6034
  967MOL0     H27580   5.929   3.479  11.027  1.2808  0.7168  2.4091
  967MOL0     H27581   5.783   3.555  10.628 -1.5665 -0.2251 -0.6046
  967MOL0     H27582   5.769   3.712  10.713 -1.4456  0.6148 -0.1784
  967MOL0     H27583   5.540   3.640  10.662 -1.0669  0.9766  0.7057
  967MOL0     H27584   5.566   3.661  10.833  2.6757 -1.5158  2.6678
  967MOL0     H27585   5.605   3.408  10.855 -1.1821 -2.1307 -0.0107
  967MOL0     H27586   5.603   3.392  10.679  1.5181 -1.5208  2.2365
  967MOL0     H27587   5.386   3.325  10.832 -0.5080 -1.0149 -1.8830
  967MOL0     H27588   5.346   3.488  10.808 -0.1057 -0.3411 -1.3246
  967MOL0     H27589   5.415   3.300  10.588  0.2197 -1.1997  0.7368
  967MOL0     H27590   5.305   3.448  10.574 -2.0437 -1.8422 -0.7501
  967MOL0     H27591   5.143   3.373  10.719 -1.6638 -0.2883 -1.2732
  967MOL0     H27592   5.222   3.218  10.731 -2.3026 -0.3706  0.9389
  967MOL0     H27593   5.180   3.176  10.474  0.2118  1.7065 -2.6556
  967MOL0     H27594   5.033   3.203  10.576  1.2344 -0.8245  1.2803
  967MOL0     H27595   5.169   3.406  10.390 -1.3254  0.8413 -0.9638
  967MOL0     H27596   5.040   3.435  10.503  0.0673 -0.3246 -0.8403
  967MOL0     H27597   4.817   3.433  10.343  0.0830  0.5006 -1.2241
  967MOL0     H27598   4.651   3.316  10.200  1.5946 -1.5179  1.3509
  967MOL0     H27599   4.700   3.241  10.049  1.5823 -0.2416  0.3995
  967MOL0     H27600   4.618   3.440   9.962  1.3771 -2.9524 -2.9260
  967MOL0     H27601   4.790   3.454   9.949  1.5826 -1.0880  1.6712
  967MOL0     H27602   4.667   3.547  10.207 -2.5853  0.2442 -0.0519
  967MOL0     H27603   4.821   3.597  10.135 -0.1860 -2.7445  2.8534
  967MOL0     H27604   4.690   3.705   9.939 -0.3923  0.0459 -0.5456
  967MOL0     H27605   4.668   3.778  10.105 -3.5845 -2.5981  4.6197
  967MOL0     H27606   4.560   3.935  10.162  0.9660  1.2950  1.5009
  967MOL0     H27607   4.389   4.059  10.260  2.0508 -1.2372 -0.7626
  967MOL0     H27608   4.053   4.292  10.103 -0.9674  1.6917  0.1339
  967MOL0     H27609   3.899   4.464  10.155 -3.6124  0.0235  1.5454
  967MOL0     H27610   3.526   4.385  10.396 -1.0069  2.2345  0.3093
  967MOL0     H27611   3.523   4.403  10.207  0.1077  0.5204 -0.8801
  967MOL0     H27612   3.470   4.634  10.232 -1.5686 -1.2615 -1.2437
  967MOL0     H27613   3.521   4.638  10.405  2.3794  0.9533 -1.8314
  967MOL0     H27614   3.329   4.504  10.464 -1.3549 -0.2486 -0.3636
  967MOL0     H27615   3.273   4.495  10.294 -0.4860 -1.5862  0.9881
  967MOL0     H27616   3.309   4.756  10.441 -2.3679  0.4279  1.7662
  967MOL0     H27617   3.258   4.737  10.275  1.3133 -0.2633 -0.1480
  967MOL0     H27618   3.087   4.790  10.435  1.6686 -0.0457 -1.7518
  967MOL0     H27619   3.097   4.642  10.531 -0.8884  0.6900  0.4110
  967MOL0     H27620   3.055   4.492  10.354 -1.5051 -0.0614 -0.5316
  967MOL0     H27621   3.037   4.636  10.243 -0.2385 -3.0458 -1.3117
  967MOL0     H27622   2.868   4.555  10.476  3.0057 -1.0782  0.4410
  967MOL0     H27623   2.870   4.717  10.389 -0.2394 -0.4781  0.7331
  967MOL0     H27624   2.826   4.443  10.244 -0.1988 -0.4502  0.6655
  967MOL0     H27625   2.811   4.600  10.167 -1.3018 -1.7842 -1.4812
  967MOL0     H27626   3.637   4.181  10.346  0.1293  3.4842  1.1466
  967MOL0     H27627   3.776   4.003  10.266  0.0537  0.1413 -0.4129
  967MOL0     H27628   4.090   3.804  10.080 -0.5377  0.9871  2.7059
  967MOL0     H27629   4.267   3.643   9.998  1.5484  0.2460 -2.9638
  967MOL0     H27630   5.996   3.599  10.629 -0.0840  0.6553 -0.6925
  967MOL0     H27631   6.233   3.531  10.653 -2.4609  0.5623 -1.0385
  967MOL0     H27632   6.525   3.302  10.995  0.5712 -0.5359  0.4969
  967MOL0     H27633   6.756   3.182  11.024  1.9022 -1.1157 -0.0455
  967MOL0     H27634   6.891   3.015  10.884 -0.7431  0.3992  1.5659
  967MOL0     H27635   6.944   3.094  11.027  0.6456  0.0920  0.0611
  967MOL0     H27636   7.174   3.084  10.946 -1.1847  1.3423  0.2046
  967MOL0     H27637   7.096   2.936  10.978  0.4951 -0.8498 -1.0208
  967MOL0     H27638   7.044   2.949  10.706 -0.6295  2.5638 -0.0813
  967MOL0     H27639   7.191   2.879  10.777 -1.2482 -0.9249 -0.5128
  967MOL0     H27640   7.172   3.163  10.694  1.1494  0.0569  0.7528
  967MOL0     H27641   7.314   3.055  10.739 -1.1305  2.2016  2.3016
  967MOL0     H27642   7.248   2.917  10.350 -1.2777  0.8214 -0.4426
  967MOL0     H27643   6.910   3.390  10.697  3.0109 -1.4227  2.1952
  967MOL0     H27644   6.697   3.529  10.671  0.7616  0.1723  1.0182
  968MOL0     O27645  10.300   5.870   0.824  0.7233 -0.3252  0.1242
  968MOL0     C27646  10.280   5.827   0.706 -0.3093 -0.6481 -0.2205
  968MOL0     O27647  10.163   5.822   0.639  0.2655 -0.3996 -1.0066
  968MOL0     C27648  10.048   5.877   0.692 -0.2851  0.6927 -0.2173
  968MOL0     C27649  10.045   5.987   0.781  0.3003 -0.0689  0.3493
  968MOL0     C27650   9.912   6.032   0.823  0.5734 -0.2354 -0.0721
  968MOL0     C27651   9.789   5.993   0.771  0.4568 -0.0536 -0.2462
  968MOL0     O27652   9.669   6.063   0.807  0.1059  0.0512  0.3731
  968MOL0     C27653   9.545   6.014   0.757 -0.8184  0.8321 -1.0024
  968MOL0     C27654   9.450   6.109   0.845 -0.1560 -0.2449  0.4187
  968MOL0     C27655   9.304   6.071   0.811  0.2483 -0.0611  0.1169
  968MOL0     C27656   9.247   5.956   0.905 -0.3242 -0.1602 -0.2303
  968MOL0     C27657   9.093   5.937   0.898 -0.7767  0.0149  0.3839
  968MOL0     C27658   9.029   5.892   0.770 -0.3963  0.2051 -0.2915
  968MOL0     C27659   8.874   5.906   0.786  0.5148 -0.3138  0.8010
  968MOL0     C27660   8.800   5.903   0.649  1.0261 -0.4889  0.3613
  968MOL0     N27661   8.660   5.956   0.653  0.2142 -0.2445 -0.2786
  968MOL0     C27662   8.606   6.039   0.559  0.2289 -0.5037 -0.8237
  968MOL0     C27663   8.473   6.042   0.585  0.1331 -0.2798 -0.1794
  968MOL0     C27664   8.375   6.108   0.503 -1.1035 -0.3862 -0.0989
  968MOL0     C27665   8.240   6.087   0.575  1.0365  0.1874  0.5041
  968MOL0     C27666   8.118   6.145   0.505  0.0528  1.2238  0.6710
  968MOL0     C27667   7.990   6.127   0.587  0.3896  0.3287  0.1616
  968MOL0     O27668   7.892   6.207   0.515 -0.6485  0.4209  0.2852
  968MOL0     C27669   7.761   6.184   0.531  0.1507  0.0686 -0.5341
  968MOL0     C27670   7.707   6.084   0.609  0.8044  0.7234 -0.3165
  968MOL0     C27671   7.571   6.080   0.615  0.1298 -0.2931 -0.9235
  968MOL0     C27672   7.480   6.172   0.554  0.0597 -0.1951 -1.3554
  968MOL0     C27673   7.339   6.151   0.581 -0.8313  0.3494  0.2678
  968MOL0     O27674   7.296   6.036   0.650  0.1831  0.2061  0.1714
  968MOL0     C27675   7.164   6.009   0.651  0.4219  0.5056  0.0553
  968MOL0     C27676   7.055   6.097   0.647 -0.4452 -0.0954 -0.2836
  968MOL0     C27677   6.921   6.041   0.626  0.4601 -0.4648  0.4025
  968MOL0     C27678   6.899   5.901   0.618  0.2101 -0.0482 -0.1186
  968MOL0     O27679   6.780   5.837   0.603  0.4178  0.1773  0.2306
  968MOL0     C27680   6.663   5.899   0.553  0.2154 -0.6988 -0.2327
  968MOL0     C27681   6.579   5.950   0.665 -0.3548  1.1278  0.6981
  968MOL0     C27682   6.539   5.841   0.772  0.9682 -0.0168  0.3092
  968MOL0     C27683   6.450   5.727   0.716 -1.1975 -0.2283  0.8714
  968MOL0     C27684   6.329   5.763   0.632  0.3592  0.0016 -0.2522
  968MOL0     C27685   6.232   5.857   0.702  0.3887 -0.9619 -0.1751
  968MOL0     C27686   6.105   5.872   0.608 -0.1507  0.7700 -0.7614
  968MOL0     C27687   6.118   5.897   0.460 -0.5528 -0.3612  0.5724
  968MOL0    Cl27688   5.972   5.954   0.388  0.0492  0.3827  0.0388
  968MOL0     C27689   7.015   5.823   0.630 -0.0824  0.5202  0.8647
  968MOL0     C27690   7.140   5.875   0.660  0.1143  0.2393 -0.1176
  968MOL0     O27691   7.269   6.236   0.524  0.0210 -0.7754  0.8457
  968MOL0     C27692   7.539   6.270   0.472 -0.0974 -0.2282 -0.0817
  968MOL0     C27693   7.681   6.266   0.456  0.0732  0.4139 -0.3404
  968MOL0     N27694   8.450   5.950   0.693  0.0266 -0.1391 -0.3429
  968MOL0     N27695   8.568   5.899   0.730  0.1290 -0.1608 -0.1351
  968MOL0     C27696   9.796   5.887   0.679  1.3646  0.0605 -0.0192
  968MOL0     C27697   9.924   5.831   0.644 -0.1198 -0.1000 -0.9851
  968MOL0     C27698  10.405   5.779   0.637 -0.0877 -0.1589 -0.6725
  968MOL0     C27699  10.383   5.713   0.515  0.8988 -0.9943 -0.5508
  968MOL0     C27700  10.486   5.658   0.446  0.3022  0.1391  0.3942
  968MOL0     C27701  10.623   5.679   0.485 -0.5407  0.3583  0.5425
  968MOL0     O27702  10.739   5.654   0.415 -0.8769  0.9565  0.1761
  968MOL0     C27703  10.714   5.600   0.280 -0.1734 -0.8342  0.5023
  968MOL0     C27704  10.843   5.618   0.202 -0.2308  0.7948 -0.2721
  968MOL0     C27705  10.840   5.550   0.062 -0.5518  0.3293  0.1154
  968MOL0     C27706  10.968   5.574  -0.020 -0.5303  0.5195  0.5573
  968MOL0     C27707  10.956   5.503  -0.148  0.5804  0.2785 -0.0006
  968MOL0     C27708  10.920   5.452  -0.252  0.4617 -0.0505  0.4452
  968MOL0     C27709  10.643   5.747   0.609 -0.3782 -0.3663  0.2473
  968MOL0     C27710  10.535   5.784   0.686  0.7208 -0.2553  0.2467
  968MOL0     H27711  10.135   6.039   0.812  0.0078  0.5128  0.2275
  968MOL0     H27712   9.906   6.111   0.896  0.4400 -0.5064  0.2149
  968MOL0     H27713   9.527   5.909   0.782  4.2138  0.2549  1.3253
  968MOL0     H27714   9.546   6.023   0.648  1.6743 -0.2684 -1.1468
  968MOL0     H27715   9.467   6.215   0.824 -1.4094 -0.6190 -3.0901
  968MOL0     H27716   9.475   6.105   0.951 -1.1933 -0.0351  0.6792
  968MOL0     H27717   9.295   6.049   0.704 -0.3089  3.4696 -0.7102
  968MOL0     H27718   9.238   6.157   0.829 -1.0102 -0.7611 -0.9130
  968MOL0     H27719   9.292   5.865   0.866  0.5180  1.3193 -2.9156
  968MOL0     H27720   9.276   5.969   1.010 -0.5245  1.3179 -0.3337
  968MOL0     H27721   9.038   6.025   0.933 -0.2235  0.1005  1.0704
  968MOL0     H27722   9.073   5.866   0.979  0.6519 -0.8740 -0.0108
  968MOL0     H27723   9.052   5.788   0.741 -0.7263  0.0477  0.0150
  968MOL0     H27724   9.070   5.948   0.685 -1.2819  0.5414 -0.5063
  968MOL0     H27725   8.835   5.821   0.843  1.9345 -2.3000 -1.0130
  968MOL0     H27726   8.851   6.003   0.831 -2.3192  0.1988 -1.4227
  968MOL0     H27727   8.803   5.801   0.610 -0.7347 -3.2963  6.3139
  968MOL0     H27728   8.855   5.969   0.581  0.1040 -0.7101 -0.6287
  968MOL0     H27729   8.661   6.086   0.478 -1.0824  1.9795 -0.3791
  968MOL0     H27730   8.370   6.076   0.399 -1.3534  1.4339 -0.6817
  968MOL0     H27731   8.390   6.216   0.514  0.4319 -0.7299  1.5698
  968MOL0     H27732   8.249   6.137   0.672  0.7981  0.8451  0.1954
  968MOL0     H27733   8.210   5.982   0.586 -0.2344  0.6101  1.3090
  968MOL0     H27734   8.135   6.253   0.505 -2.3941  1.6497  0.5761
  968MOL0     H27735   8.092   6.101   0.408 -1.2418  1.1343  1.0433
  968MOL0     H27736   8.006   6.158   0.691  0.0637 -2.7637  1.2384
  968MOL0     H27737   7.965   6.021   0.588 -0.4477  0.5121  1.0023
  968MOL0     H27738   7.768   6.005   0.652 -0.6209 -0.7243 -0.8366
  968MOL0     H27739   7.524   6.004   0.677  1.6997 -0.4501  0.1586
  968MOL0     H27740   7.076   6.203   0.641 -0.2714 -0.1680 -1.2291
  968MOL0     H27741   6.840   6.111   0.611 -0.0327 -1.0438  0.3168
  968MOL0     H27742   6.601   5.834   0.491  3.0101 -0.0699 -4.0266
  968MOL0     H27743   6.704   5.984   0.498  1.6509 -0.6000  0.9134
  968MOL0     H27744   6.489   6.001   0.628  0.6257  2.2569 -0.1960
  968MOL0     H27745   6.633   6.023   0.726 -0.0169 -0.2056  2.0666
  968MOL0     H27746   6.476   5.885   0.850  1.3931 -0.0459  0.6672
  968MOL0     H27747   6.624   5.802   0.828  0.1554  1.4320  2.6951
  968MOL0     H27748   6.511   5.655   0.662  0.2439  0.7624  1.1133
  968MOL0     H27749   6.409   5.671   0.801 -0.4603 -0.7530  0.8839
  968MOL0     H27750   6.274   5.671   0.607  2.4374 -1.2739 -0.3570
  968MOL0     H27751   6.354   5.806   0.534  1.5472  1.1443  0.5313
  968MOL0     H27752   6.289   5.950   0.705  2.4206 -2.0493 -1.7393
  968MOL0     H27753   6.197   5.809   0.794 -0.5644  0.4128  0.2068
  968MOL0     H27754   6.040   5.785   0.623  0.7352  0.6467  3.6915
  968MOL0     H27755   6.055   5.962   0.645  2.1848  1.0878  1.9311
  968MOL0     H27756   6.161   5.822   0.392  1.9098  3.3730 -2.4377
  968MOL0     H27757   6.201   5.969   0.451 -1.7710  1.0720  0.4241
  968MOL0     H27758   6.988   5.721   0.605 -0.9468  0.6091  1.4008
  968MOL0     H27759   7.228   5.813   0.672 -0.5385 -0.5759  0.4970
  968MOL0     H27760   7.482   6.350   0.425  1.0897  0.7088  0.0089
  968MOL0     H27761   7.731   6.342   0.397  1.2154  0.0982  0.2050
  968MOL0     H27762   9.709   5.826   0.658  1.4813 -1.3943  3.1957
  968MOL0     H27763   9.930   5.755   0.567  1.5371  1.3017 -2.3285
  968MOL0     H27764  10.280   5.704   0.480  0.7574 -0.4803 -0.2848
  968MOL0     H27765  10.452   5.597   0.363 -0.2513 -2.8775  2.6655
  968MOL0     H27766  10.632   5.658   0.236 -0.2487 -0.7929  0.6959
  968MOL0     H27767  10.686   5.494   0.283 -2.5376 -0.2679  2.7765
  968MOL0     H27768  10.874   5.722   0.201 -0.8252  1.0149  1.5028
  968MOL0     H27769  10.920   5.572   0.265  0.4881  0.9871 -0.9979
  968MOL0     H27770  10.756   5.598   0.010  0.3589  0.0965 -1.6492
  968MOL0     H27771  10.824   5.442   0.073  1.9857 -0.1345 -0.1249
  968MOL0     H27772  10.973   5.680  -0.046  0.6212  0.3372  0.0001
  968MOL0     H27773  11.056   5.545   0.036  0.6782  0.0118 -1.4962
  968MOL0     H27774  10.886   5.411  -0.345 -1.8899  0.4406  1.0200
  968MOL0     H27775  10.743   5.776   0.639  0.1538  2.0865 -3.3085
  968MOL0     H27776  10.559   5.829   0.782  0.2047 -1.5073  0.9920
  969MOL0     O27777   3.161  10.975   7.564 -0.7767 -0.2005  0.2126
  969MOL0     C27778   3.265  10.973   7.506 -0.5629 -0.0390  0.1120
  969MOL0     O27779   3.273  10.937   7.371  0.3062  0.6019 -0.1657
  969MOL0     C27780   3.147  10.928   7.297 -0.6883 -0.0425  0.1096
  969MOL0     C27781   3.096  10.798   7.262  0.1035 -0.1927 -0.4154
  969MOL0     C27782   2.993  10.781   7.160  0.8538 -0.3388 -0.3420
  969MOL0     C27783   2.932  10.901   7.112 -0.8948 -0.0676  0.7091
  969MOL0     O27784   2.840  10.883   7.018  0.5101 -0.4856 -0.3194
  969MOL0     C27785   2.705  10.934   7.050  0.0057  0.9146  1.0889
  969MOL0     C27786   2.606  10.854   6.972 -0.6970  0.3339 -0.4870
  969MOL0     C27787   2.468  10.906   6.972 -0.5453 -0.3320  0.9718
  969MOL0     C27788   2.363  10.819   6.900 -1.1171 -0.0072  0.1493
  969MOL0     C27789   2.228  10.887   6.901  0.0323 -0.3333  0.4874
  969MOL0     C27790   2.122  10.793   6.849  0.0814 -0.5975 -0.0378
  969MOL0     C27791   1.992  10.870   6.825  0.3508 -1.0154 -0.4501
  969MOL0     C27792   1.863  10.784   6.795 -0.1715 -0.3327  0.2104
  969MOL0     N27793   1.812  10.697   6.903  0.9802  0.3813 -0.2769
  969MOL0     C27794   1.680  10.713   6.948 -0.0990  0.8473  0.3031
  969MOL0     C27795   1.659  10.621   7.046  0.0436 -0.3932  0.1804
  969MOL0     C27796   1.523  10.609   7.114 -0.0655 -1.3685 -0.4468
  969MOL0     C27797   1.536  10.518   7.225  0.2583  0.5129  0.5992
  969MOL0     C27798   1.405  10.513   7.307 -0.1259  0.3128 -0.5130
  969MOL0     C27799   1.278  10.477   7.225 -0.4585  0.2821  0.5746
  969MOL0     O27800   1.274  10.338   7.186 -0.5291 -0.7003 -0.4663
  969MOL0     C27801   1.159  10.282   7.141  0.1682 -0.3824  0.2474
  969MOL0     C27802   1.046  10.349   7.117  0.8478 -0.4878  0.0321
  969MOL0     C27803   0.931  10.286   7.068 -0.2247 -0.1776  0.2325
  969MOL0     C27804   0.934  10.145   7.051 -0.6982 -0.4084  0.1212
  969MOL0     C27805   0.812  10.075   7.014 -0.1716  1.2224 -0.3609
  969MOL0     O27806   0.693  10.137   7.016 -0.8059  0.3217  1.2259
  969MOL0     C27807   0.582  10.076   7.065  0.1367  0.4440 -0.2302
  969MOL0     C27808   0.568   9.958   7.141 -0.4740 -0.1326  0.0622
  969MOL0     C27809   0.437   9.915   7.174 -0.3128  0.4528  0.2247
  969MOL0     C27810   0.316   9.981   7.135  0.0621 -0.7021 -1.3232
  969MOL0     O27811   0.189   9.967   7.189 -0.1287 -0.5115 -0.8018
  969MOL0     C27812   0.171   9.839   7.244 -0.5147 -0.0184 -0.0938
  969MOL0     C27813   0.022   9.836   7.300 -0.6961  0.4336 -0.2785
  969MOL0     C27814  -0.064   9.763   7.190 -0.1380 -0.3649 -0.3223
  969MOL0     C27815  -0.190   9.703   7.237  0.2650  0.4361 -0.6167
  969MOL0     C27816  -0.275   9.631   7.128 -0.4072  0.3803 -0.3897
  969MOL0     C27817  -0.417   9.596   7.179 -0.9090  0.2799  0.4499
  969MOL0     C27818  -0.516   9.551   7.068  0.6710  0.7408 -0.1429
  969MOL0     C27819  -0.654   9.506   7.128 -0.2603 -0.7234  0.2943
  969MOL0    Cl27820  -0.651   9.373   7.247  0.0065 -0.2226  0.5618
  969MOL0     C27821   0.340  10.106   7.077  0.6296  0.3374  0.4802
  969MOL0     C27822   0.468  10.150   7.035  0.2515 -0.4754 -1.1199
  969MOL0     O27823   0.819   9.958   6.986  0.8328 -0.3115 -1.1387
  969MOL0     C27824   1.050  10.077   7.080  0.3973 -0.3349  0.3093
  969MOL0     C27825   1.167  10.144   7.119  0.0051 -0.5211 -0.2935
  969MOL0     N27826   1.779  10.548   7.053  0.5519  0.4364  0.3064
  969MOL0     N27827   1.868  10.589   6.968 -0.4335 -0.6192  0.5399
  969MOL0     C27828   2.965  11.025   7.163  0.2905  0.0589 -0.0895
  969MOL0     C27829   3.069  11.036   7.249 -1.5470  0.0719  0.4014
  969MOL0     C27830   3.381  11.029   7.572 -0.8495  0.4125 -0.0014
  969MOL0     C27831   3.361  11.140   7.652 -0.6935  0.2578 -0.2065
  969MOL0     C27832   3.475  11.205   7.713  0.3601  0.3827  0.8591
  969MOL0     C27833   3.608  11.158   7.677 -0.6496 -0.6780 -0.1028
  969MOL0     O27834   3.722  11.217   7.727 -0.2198  0.4090  0.2936
  969MOL0     C27835   3.718  11.281   7.858 -0.1996  0.3253  0.4618
  969MOL0     C27836   3.851  11.351   7.879  0.3445  0.3040  0.8694
  969MOL0     C27837   3.977  11.269   7.888  0.6082 -0.1372  0.1427
  969MOL0     C27838   4.109  11.346   7.925  0.2741  0.1719  0.1108
  969MOL0     C27839   4.137  11.431   7.810 -0.1910  0.4484 -0.7368
  969MOL0     C27840   4.177  11.499   7.718  0.3549  0.1534  0.7478
  969MOL0     C27841   3.622  11.040   7.603  0.8737 -1.0759 -0.7564
  969MOL0     C27842   3.514  10.980   7.543  0.6274 -0.6908  0.6297
  969MOL0     H27843   3.135  10.710   7.312  1.7120  0.0608 -1.1620
  969MOL0     H27844   2.962  10.681   7.133  0.6238  0.0809 -1.6745
  969MOL0     H27845   2.692  11.034   7.007 -0.4373  0.6767  0.6716
  969MOL0     H27846   2.680  10.930   7.156 -0.9777 -1.1335  0.8273
  969MOL0     H27847   2.596  10.758   7.023 -1.1548  0.3882 -0.4689
  969MOL0     H27848   2.641  10.842   6.869  3.1006  3.6696  0.1944
  969MOL0     H27849   2.468  11.005   6.926  2.6712 -2.1925 -3.8203
  969MOL0     H27850   2.423  10.910   7.072 -0.2200 -0.7438  1.1380
  969MOL0     H27851   2.400  10.806   6.798 -2.1308 -0.2871 -0.1973
  969MOL0     H27852   2.364  10.717   6.940  2.7214  0.3467  1.3230
  969MOL0     H27853   2.233  10.967   6.826  2.7304 -0.2905  0.6428
  969MOL0     H27854   2.197  10.926   6.999  1.6905 -2.1990  1.8190
  969MOL0     H27855   2.096  10.718   6.924  0.7016  0.9364  1.8044
  969MOL0     H27856   2.151  10.753   6.752 -0.1421  1.4535 -1.0012
  969MOL0     H27857   1.967  10.929   6.914  2.5812 -0.1269 -0.3402
  969MOL0     H27858   1.995  10.954   6.755 -3.4357 -0.4636 -0.2041
  969MOL0     H27859   1.891  10.706   6.724 -3.1085 -2.8843  1.6266
  969MOL0     H27860   1.785  10.846   6.751  1.1936  1.2777 -0.0445
  969MOL0     H27861   1.599  10.766   6.900 -0.4466 -1.4030 -1.7472
  969MOL0     H27862   1.449  10.580   7.039 -2.0932  1.0321  0.4827
  969MOL0     H27863   1.489  10.705   7.154  0.0313 -2.0208  1.3083
  969MOL0     H27864   1.615  10.557   7.290 -1.3223  0.6461  2.5361
  969MOL0     H27865   1.576  10.429   7.176  0.1717  1.2013 -0.7719
  969MOL0     H27866   1.420  10.435   7.381  3.5427  0.6738 -0.6878
  969MOL0     H27867   1.389  10.609   7.357  3.8613  0.1229  1.5059
  969MOL0     H27868   1.270  10.550   7.144 -0.8082  1.2618  1.4769
  969MOL0     H27869   1.199  10.497   7.297 -0.0705 -0.1324  1.1275
  969MOL0     H27870   1.036  10.457   7.113  0.7239 -0.5094 -0.2865
  969MOL0     H27871   0.845  10.343   7.036 -1.3963 -2.2549 -0.5331
  969MOL0     H27872   0.646   9.887   7.167 -1.5749 -1.3404  0.1758
  969MOL0     H27873   0.426   9.827   7.236  0.9281 -1.1575 -1.7170
  969MOL0     H27874   0.244   9.818   7.322 -0.1328  1.2069 -0.1139
  969MOL0     H27875   0.184   9.760   7.169 -4.0830 -1.0574  0.1961
  969MOL0     H27876  -0.023   9.935   7.312 -1.9341 -0.4477  3.8141
  969MOL0     H27877   0.007   9.785   7.395  1.4484 -1.1924 -0.7470
  969MOL0     H27878  -0.011   9.688   7.131  0.0373 -0.8949  0.5062
  969MOL0     H27879  -0.090   9.845   7.122 -2.9778  0.4054  1.5366
  969MOL0     H27880  -0.155   9.634   7.314  1.8508  1.2227 -0.5971
  969MOL0     H27881  -0.263   9.773   7.279 -2.6994 -2.4631 -0.5534
  969MOL0     H27882  -0.225   9.539   7.096 -3.2872 -1.7217  0.6955
  969MOL0     H27883  -0.300   9.699   7.046 -0.5041 -0.3517 -0.9831
  969MOL0     H27884  -0.455   9.689   7.224  2.8815  2.5715 -0.6395
  969MOL0     H27885  -0.416   9.517   7.255 -1.6275 -0.6540 -0.4756
  969MOL0     H27886  -0.527   9.622   6.986  1.9476  1.3172  0.1474
  969MOL0     H27887  -0.472   9.467   7.013 -0.1389  1.4691 -1.9720
  969MOL0     H27888  -0.728   9.478   7.052  1.2131  0.7743 -1.8097
  969MOL0     H27889  -0.695   9.589   7.185  1.7056  0.2869  0.3133
  969MOL0     H27890   0.254  10.171   7.064  1.2004  1.9388  3.6915
  969MOL0     H27891   0.491  10.244   6.986  0.8423 -0.4257 -0.7426
  969MOL0     H27892   1.038   9.970   7.071 -0.2343 -0.1193 -2.0350
  969MOL0     H27893   1.261  10.090   7.129  0.6949  0.7788  0.4195
  969MOL0     H27894   2.919  11.116   7.126  0.5013 -0.2326 -1.1249
  969MOL0     H27895   3.111  11.132   7.277 -0.6908 -0.6563  1.7369
  969MOL0     H27896   3.264  11.182   7.677 -2.1778 -3.2099  0.5248
  969MOL0     H27897   3.455  11.283   7.785  0.8872  0.8100  0.5537
  969MOL0     H27898   3.697  11.210   7.939 -0.7844  0.6208  0.5733
  969MOL0     H27899   3.638  11.355   7.856  1.7138  2.4969 -1.1243
  969MOL0     H27900   3.868  11.424   7.799  0.4722  0.0326  0.6454
  969MOL0     H27901   3.846  11.402   7.976  1.1593  0.2518  0.9432
  969MOL0     H27902   3.996  11.216   7.794  1.5714  0.7284 -0.1655
  969MOL0     H27903   3.975  11.183   7.956  1.3492 -0.0606  0.2714
  969MOL0     H27904   4.095  11.401   8.018 -0.7976 -1.9983  1.3176
  969MOL0     H27905   4.190  11.274   7.943  0.3892  0.4981  0.9599
  969MOL0     H27906   4.205  11.536   7.621 -2.7089 -3.9761 -2.0960
  969MOL0     H27907   3.725  11.005   7.601  0.2748 -3.7135  3.1050
  969MOL0     H27908   3.511  10.897   7.473 -3.3052 -1.2889  1.2473
  970MOL0     O27909   8.540  10.028   8.148 -0.5021 -0.2808  0.0162
  970MOL0     C27910   8.520  10.073   8.038  1.2513 -0.0849 -0.0076
  970MOL0     O27911   8.615  10.089   7.931 -0.4771 -0.0216 -0.0111
  970MOL0     C27912   8.750  10.067   7.965 -0.2970  0.4311 -0.8419
  970MOL0     C27913   8.792   9.950   8.031 -0.2327  0.5562  0.4917
  970MOL0     C27914   8.930   9.929   8.060  0.1781  0.3893  0.1763
  970MOL0     C27915   9.020  10.023   8.027 -0.4648 -1.1661 -1.0477
  970MOL0     O27916   9.143   9.998   8.073 -0.3299 -0.3038  0.4678
  970MOL0     C27917   9.249  10.086   8.024 -0.0159 -0.5194 -0.7167
  970MOL0     C27918   9.383  10.032   8.078 -0.6160  0.1589  0.5632
  970MOL0     C27919   9.513  10.115   8.049  0.8365  0.0232  0.6057
  970MOL0     C27920   9.628  10.062   8.126 -0.2688 -0.0146 -0.9646
  970MOL0     C27921   9.767  10.102   8.068 -0.0172 -0.1357  0.0412
  970MOL0     C27922   9.869  10.091   8.186  0.0110  0.4738 -0.4459
  970MOL0     C27923   9.928   9.956   8.193  0.2306 -0.0266 -0.0701
  970MOL0     C27924  10.040   9.965   8.295 -0.1953 -0.2270 -0.1522
  970MOL0     N27925  10.081   9.829   8.335 -0.9359 -0.8922  0.1615
  970MOL0     C27926  10.031   9.746   8.429 -0.3716  0.9245  0.4045
  970MOL0     C27927  10.113   9.642   8.433  0.2131  0.0677  0.1113
  970MOL0     C27928  10.107   9.544   8.554 -0.1172 -0.1984 -0.5104
  970MOL0     C27929   9.966   9.485   8.570 -0.3618 -0.3686  0.5145
  970MOL0     C27930   9.919   9.410   8.444 -0.6568 -0.6753 -0.3432
  970MOL0     C27931   9.775   9.350   8.467  0.4085 -0.4365 -0.9347
  970MOL0     O27932   9.668   9.445   8.430  1.3894 -0.2810  0.3289
  970MOL0     C27933   9.531   9.423   8.412  0.3025 -0.2786  0.4091
  970MOL0     C27934   9.464   9.317   8.485  0.0502 -1.0824 -0.2962
  970MOL0     C27935   9.331   9.287   8.453  0.2893 -0.5665 -0.2059
  970MOL0     C27936   9.262   9.353   8.348  0.4369 -0.1139  0.1609
  970MOL0     C27937   9.122   9.324   8.302  0.0178  0.6364  1.2887
  970MOL0     O27938   9.035   9.262   8.387  0.0389  0.0996  0.6717
  970MOL0     C27939   8.908   9.224   8.343  0.1221 -0.1205 -0.3174
  970MOL0     C27940   8.798   9.307   8.369 -0.2398  0.3036 -0.6990
  970MOL0     C27941   8.665   9.283   8.339  0.0683  0.0347 -0.3690
  970MOL0     C27942   8.635   9.154   8.281  0.6828  0.4760  0.1619
  970MOL0     O27943   8.516   9.103   8.252 -0.0063  0.0932 -0.1409
  970MOL0     C27944   8.413   9.133   8.342 -0.5456 -0.7696 -0.3281
  970MOL0     C27945   8.314   9.016   8.335 -0.4675  0.0959  0.0438
  970MOL0     C27946   8.240   9.011   8.475  0.3511  0.3870 -0.7816
  970MOL0     C27947   8.130   8.897   8.485 -1.0770  0.0130  0.0636
  970MOL0     C27948   8.072   8.879   8.622 -0.2672 -0.2501  0.1806
  970MOL0     C27949   7.994   8.746   8.658  0.1380 -0.3287 -0.1457
  970MOL0     C27950   7.887   8.718   8.553 -0.6020  0.8009 -0.3276
  970MOL0     C27951   7.777   8.646   8.631  0.2900  0.2262 -0.0266
  970MOL0    Cl27952   7.665   8.578   8.516 -0.4543 -0.3613 -0.2842
  970MOL0     C27953   8.742   9.065   8.258 -0.2815 -0.1517 -0.0310
  970MOL0     C27954   8.872   9.093   8.292 -0.3982 -0.3226  0.2282
  970MOL0     O27955   9.099   9.354   8.185 -0.0002 -0.1520 -0.4379
  970MOL0     C27956   9.339   9.447   8.272  0.2081 -0.1660 -0.3023
  970MOL0     C27957   9.473   9.484   8.302 -0.1503  0.2015  0.0822
  970MOL0     N27958  10.207   9.647   8.338  0.0703 -0.3090  0.3238
  970MOL0     N27959  10.180   9.757   8.272  0.8350 -0.0235  0.4196
  970MOL0     C27960   8.980  10.135   7.954  0.0052 -0.3321  0.2176
  970MOL0     C27961   8.846  10.158   7.925  0.2811  0.8008 -0.0477
  970MOL0     C27962   8.373  10.106   7.994 -0.1611 -0.2473  1.2365
  970MOL0     C27963   8.347  10.178   7.874 -0.0042 -0.3649 -0.7464
  970MOL0     C27964   8.219  10.183   7.828 -0.1139 -0.7668  0.1224
  970MOL0     C27965   8.108  10.138   7.902 -0.1235  0.1082 -0.3046
  970MOL0     O27966   7.985  10.183   7.855  0.7435 -0.4906 -0.4481
  970MOL0     C27967   7.865  10.135   7.920  0.2868  0.4487  0.2571
  970MOL0     C27968   7.743  10.164   7.824  0.7055  0.2118 -0.3102
  970MOL0     C27969   7.709  10.314   7.817 -1.0955  1.4531 -1.2626
  970MOL0     C27970   7.612  10.324   7.699  0.3007 -0.5536 -0.3412
  970MOL0     C27971   7.485  10.258   7.715 -0.8441  0.3207 -0.5610
  970MOL0     C27972   7.387  10.202   7.751 -0.9149 -0.3267  0.3877
  970MOL0     C27973   8.128  10.065   8.021  0.3719 -1.3463 -0.4994
  970MOL0     C27974   8.258  10.049   8.059 -0.1446 -0.5192 -0.0781
  970MOL0     H27975   8.734   9.871   8.077  0.2453  0.5054  1.0213
  970MOL0     H27976   8.959   9.842   8.119  2.7126  0.5515 -0.7219
  970MOL0     H27977   9.231  10.192   8.047  1.4563 -0.3136 -0.3753
  970MOL0     H27978   9.257  10.085   7.915 -1.6515  1.8173 -0.9538
  970MOL0     H27979   9.387   9.931   8.037 -1.7916  0.5802 -0.6562
  970MOL0     H27980   9.377  10.033   8.188 -1.4024  2.6020  0.5499
  970MOL0     H27981   9.501  10.223   8.062  0.3183  0.0450  0.0195
  970MOL0     H27982   9.528  10.111   7.941 -0.7569 -0.8499  0.3790
  970MOL0     H27983   9.619  10.091   8.231  3.3084 -2.9466  0.3825
  970MOL0     H27984   9.627   9.953   8.115 -0.1488 -0.0767 -0.4107
  970MOL0     H27985   9.764  10.206   8.035  1.6801 -0.2011 -0.3865
  970MOL0     H27986   9.794  10.033   7.987 -1.5010 -0.0718 -0.5421
  970MOL0     H27987   9.828  10.122   8.283  0.6513 -1.5875  0.5343
  970MOL0     H27988   9.946  10.164   8.161 -1.2752  2.3614  0.8028
  970MOL0     H27989   9.856   9.886   8.238 -0.5363  1.3998  1.0205
  970MOL0     H27990   9.958   9.915   8.097  1.1675 -0.0693  0.2325
  970MOL0     H27991  10.020  10.019   8.388 -1.0545 -1.8357  0.6396
  970MOL0     H27992  10.130  10.010   8.250  0.7927 -1.3791  0.6017
  970MOL0     H27993   9.950   9.763   8.500 -1.1349  2.9217 -0.8742
  970MOL0     H27994  10.143   9.589   8.647  2.7735 -0.1950 -1.5143
  970MOL0     H27995  10.174   9.459   8.538  1.7434  1.2922 -1.1086
  970MOL0     H27996   9.893   9.566   8.581 -0.4140 -0.0640 -1.5416
  970MOL0     H27997   9.971   9.417   8.655 -0.0120 -0.8624  0.1062
  970MOL0     H27998   9.910   9.474   8.356  1.6591  1.4613  0.8341
  970MOL0     H27999   9.988   9.327   8.425  0.2781 -0.3193  1.2597
  970MOL0     H28000   9.758   9.310   8.567 -2.1643  1.0192 -0.6960
  970MOL0     H28001   9.780   9.259   8.405  2.6840 -1.7017  0.9530
  970MOL0     H28002   9.526   9.266   8.559 -2.0805 -0.7785  1.8397
  970MOL0     H28003   9.282   9.217   8.520 -0.1669  2.6723  3.1750
  970MOL0     H28004   8.819   9.399   8.423  0.2860 -1.9256  3.3107
  970MOL0     H28005   8.591   9.362   8.352 -1.3169 -1.5627  2.5900
  970MOL0     H28006   8.363   9.220   8.300 -2.1220 -2.4223 -2.0355
  970MOL0     H28007   8.444   9.154   8.445 -1.7067 -0.6907  0.0231
  970MOL0     H28008   8.376   8.929   8.312  1.4518  1.3352  0.2590
  970MOL0     H28009   8.237   9.044   8.263 -2.5081  2.2038  2.7883
  970MOL0     H28010   8.192   9.109   8.490 -1.4721 -0.1369 -2.6199
  970MOL0     H28011   8.308   8.995   8.559  0.9911 -2.0676 -1.6793
  970MOL0     H28012   8.043   8.922   8.423  0.7169  0.9402 -2.2224
  970MOL0     H28013   8.174   8.805   8.446 -0.9024  0.9251 -2.0299
  970MOL0     H28014   8.007   8.961   8.653 -1.6818 -0.8463 -1.0497
  970MOL0     H28015   8.160   8.884   8.687  1.0739 -1.3518 -1.4564
  970MOL0     H28016   7.954   8.752   8.760  0.8711  0.1901  0.1261
  970MOL0     H28017   8.070   8.668   8.658 -0.2875 -0.7492  0.0653
  970MOL0     H28018   7.835   8.804   8.511 -0.7697  1.0661  0.4010
  970MOL0     H28019   7.938   8.653   8.482  0.4626  0.1594  0.9629
  970MOL0     H28020   7.718   8.712   8.696  0.5124  1.4249 -1.0089
  970MOL0     H28021   7.814   8.562   8.690 -1.8642 -2.4714 -2.2628
  970MOL0     H28022   8.722   8.973   8.204 -3.1368 -0.3764  1.2303
  970MOL0     H28023   8.948   9.018   8.269  0.5288  1.5035 -3.3528
  970MOL0     H28024   9.290   9.499   8.189 -1.2777 -0.6744  0.2132
  970MOL0     H28025   9.526   9.553   8.236 -0.1260  0.0539 -0.0548
  970MOL0     H28026   9.047  10.215   7.922 -1.3796 -0.8193 -4.7010
  970MOL0     H28027   8.822  10.251   7.875  0.9475  0.0849 -1.7714
  970MOL0     H28028   8.431  10.211   7.814 -0.7628  0.2697 -1.4843
  970MOL0     H28029   8.184  10.235   7.739 -1.9009  0.1734  1.3055
  970MOL0     H28030   7.861  10.179   8.020  1.5243 -2.6269  1.7991
  970MOL0     H28031   7.872  10.028   7.940  1.5510  0.3825 -0.4379
  970MOL0     H28032   7.749  10.126   7.721 -3.9084 -3.3095  0.3815
  970MOL0     H28033   7.656  10.113   7.866  1.1283 -0.8772 -0.7067
  970MOL0     H28034   7.801  10.367   7.792  1.2440 -2.2979 -1.4203
  970MOL0     H28035   7.667  10.341   7.914 -1.8252  2.5050 -1.8525
  970MOL0     H28036   7.585  10.430   7.695 -0.6039 -0.6374  2.1117
  970MOL0     H28037   7.652  10.303   7.599 -1.3129  1.2517 -1.4483
  970MOL0     H28038   7.311  10.151   7.807 -1.3404  0.7750  0.8552
  970MOL0     H28039   8.044  10.030   8.080 -0.2435  0.5931 -0.1486
  970MOL0     H28040   8.294  10.001   8.149  2.8470  2.5306  0.5666
  971MOL0     O28041   3.556  10.076   7.735  0.4978 -0.5872 -0.1597
  971MOL0     C28042   3.627   9.980   7.735  0.4800  0.8581 -0.9141
  971MOL0     O28043   3.602   9.872   7.816 -0.3597  0.1629  0.0496
  971MOL0     C28044   3.490   9.862   7.896  0.7415 -0.5838  0.1297
  971MOL0     C28045   3.505   9.804   8.026  0.7517 -0.4958  0.7103
  971MOL0     C28046   3.392   9.774   8.098 -0.4611  0.1478  0.6487
  971MOL0     C28047   3.265   9.799   8.059 -0.7143 -0.7213 -0.1030
  971MOL0     O28048   3.172   9.766   8.155  0.3363 -0.6136  0.4168
  971MOL0     C28049   3.026   9.782   8.126 -0.1684  0.5108 -2.1297
  971MOL0     C28050   2.953   9.708   8.244  0.7047  0.1850  0.1091
  971MOL0     C28051   2.804   9.697   8.220 -0.3574 -0.8207  0.5892
  971MOL0     C28052   2.736   9.622   8.334  0.4030 -0.5389  0.0422
  971MOL0     C28053   2.581   9.592   8.292  0.6311  0.0347 -1.2955
  971MOL0     C28054   2.501   9.724   8.273 -0.9597 -0.0119 -0.0942
  971MOL0     C28055   2.354   9.693   8.254 -0.1672 -0.5475  1.0413
  971MOL0     C28056   2.284   9.614   8.370 -0.2681  0.3787  0.6619
  971MOL0     N28057   2.286   9.685   8.493 -0.3915 -0.1511 -0.2853
  971MOL0     C28058   2.180   9.686   8.589  0.1832  0.3602 -0.3462
  971MOL0     C28059   2.211   9.774   8.685 -0.5112 -0.5009 -0.2995
  971MOL0     C28060   2.136   9.818   8.809  1.0888  1.2160  0.3900
  971MOL0     C28061   2.055   9.703   8.878 -0.8895  0.0182  0.1038
  971MOL0     C28062   1.964   9.782   8.977 -0.5905  0.2716  0.7432
  971MOL0     C28063   1.895   9.694   9.076 -0.1181  0.0600  0.0062
  971MOL0     O28064   1.801   9.611   9.001 -0.0873 -0.6474 -0.5008
  971MOL0     C28065   1.685   9.562   9.062  0.7528 -0.4223 -0.1287
  971MOL0     C28066   1.648   9.435   9.033  0.7425  0.2725  0.6355
  971MOL0     C28067   1.523   9.382   9.054  0.3077 -0.3647 -0.3498
  971MOL0     C28068   1.431   9.458   9.132 -0.0407  0.3964 -0.3411
  971MOL0     C28069   1.300   9.407   9.174 -0.3512 -0.7434 -0.3074
  971MOL0     O28070   1.211   9.477   9.263 -0.8178  0.5888 -0.5954
  971MOL0     C28071   1.078   9.442   9.275  0.4145 -0.3302 -0.2667
  971MOL0     C28072   1.004   9.375   9.181  0.4323  0.2617  0.0687
  971MOL0     C28073   0.866   9.345   9.219 -1.1851  0.2256 -0.2734
  971MOL0     C28074   0.819   9.383   9.350  0.9208  0.2494  0.0149
  971MOL0     O28075   0.690   9.350   9.384  0.2948  0.9926  0.5549
  971MOL0     C28076   0.603   9.453   9.401  0.4262 -0.1477 -0.7682
  971MOL0     C28077   0.493   9.410   9.504 -0.1754  0.9075 -0.3533
  971MOL0     C28078   0.401   9.299   9.467 -0.3323  1.1244 -0.0131
  971MOL0     C28079   0.309   9.257   9.593 -0.8510 -0.8023 -0.1423
  971MOL0     C28080   0.185   9.171   9.555 -0.3965 -1.3140 -0.8010
  971MOL0     C28081   0.092   9.158   9.681  0.4215 -0.0896 -0.3351
  971MOL0     C28082  -0.024   9.062   9.647  2.2514  0.3440 -0.7265
  971MOL0     C28083  -0.120   9.091   9.534  0.2352 -0.3489 -0.2115
  971MOL0    Cl28084  -0.161   9.256   9.546  0.1244  0.1547  0.2204
  971MOL0     C28085   0.900   9.443   9.441 -0.1842 -0.5168 -0.4594
  971MOL0     C28086   1.030   9.479   9.395 -0.4782  0.1815 -0.0269
  971MOL0     O28087   1.276   9.301   9.122 -0.4406  0.3457  0.5395
  971MOL0     C28088   1.469   9.586   9.176  0.7292  0.4531  1.2227
  971MOL0     C28089   1.595   9.640   9.131  0.2454 -0.1273 -1.0872
  971MOL0     N28090   2.324   9.841   8.644  0.9482 -0.3728 -0.7802
  971MOL0     N28091   2.373   9.784   8.539  0.7663 -0.3234  0.2517
  971MOL0     C28092   3.250   9.845   7.927  0.4720 -0.6882 -0.2946
  971MOL0     C28093   3.358   9.887   7.847 -0.1295 -0.2210  0.4865
  971MOL0     C28094   3.760   9.994   7.650 -0.3918  0.9107 -0.7343
  971MOL0     C28095   3.859   9.892   7.667  0.0154 -0.1108  0.7294
  971MOL0     C28096   3.977   9.893   7.596 -0.0963  0.3553  0.8670
  971MOL0     C28097   3.993  10.001   7.511  0.8913 -0.5833 -0.0389
  971MOL0     O28098   4.111   9.997   7.434 -0.1578  0.4540 -0.7166
  971MOL0     C28099   4.204  10.100   7.463 -0.1959  0.1668 -0.7138
  971MOL0     C28100   4.348  10.036   7.452  0.7393 -0.6980 -0.0048
  971MOL0     C28101   4.459  10.138   7.426  0.0946  0.5649 -0.7219
  971MOL0     C28102   4.590  10.064   7.420 -1.0748  0.6002 -0.5363
  971MOL0     C28103   4.708  10.157   7.428  0.6386 -0.1690 -0.3454
  971MOL0     C28104   4.803  10.230   7.453  0.5367  0.0510  1.1557
  971MOL0     C28105   3.909  10.110   7.505  0.1827 -0.8734  0.1636
  971MOL0     C28106   3.784  10.101   7.567  0.6870  0.6597 -0.1038
  971MOL0     H28107   3.608   9.789   8.057  0.9637 -1.8929 -0.5346
  971MOL0     H28108   3.416   9.736   8.197 -0.9570 -1.8819  0.0437
  971MOL0     H28109   2.998   9.738   8.030 -0.0695  0.2980 -2.0594
  971MOL0     H28110   2.999   9.887   8.115 -2.8810 -0.2438 -3.4016
  971MOL0     H28111   2.970   9.740   8.347  2.1677 -5.2098  1.8557
  971MOL0     H28112   2.987   9.604   8.245  0.9831  0.2772  1.3560
  971MOL0     H28113   2.789   9.644   8.125 -2.2259  0.5606  0.0677
  971MOL0     H28114   2.778   9.803   8.210  1.2667 -0.3259  1.1833
  971MOL0     H28115   2.787   9.527   8.349 -0.4637 -1.7252 -3.6462
  971MOL0     H28116   2.738   9.687   8.423 -1.1544  0.9305 -0.9340
  971MOL0     H28117   2.540   9.535   8.376 -1.0580  0.2905 -1.9090
  971MOL0     H28118   2.572   9.525   8.206 -3.3177 -1.8237  0.3027
  971MOL0     H28119   2.544   9.769   8.183  0.9438 -0.2309  0.6660
  971MOL0     H28120   2.522   9.797   8.351  2.5070  1.7660 -2.4006
  971MOL0     H28121   2.288   9.777   8.231 -0.8105 -1.8229 -2.5252
  971MOL0     H28122   2.345   9.632   8.163  1.0036 -1.9609  1.8367
  971MOL0     H28123   2.338   9.521   8.389  1.0173  1.0821  0.5834
  971MOL0     H28124   2.178   9.608   8.343 -0.9892  1.5766  2.9764
  971MOL0     H28125   2.089   9.627   8.600 -1.0086  2.4009  1.7437
  971MOL0     H28126   2.075   9.905   8.782  0.8184  0.8365 -0.2385
  971MOL0     H28127   2.213   9.842   8.883  2.3554  0.1851 -0.5349
  971MOL0     H28128   2.120   9.631   8.928 -1.7417 -0.3912  0.6367
  971MOL0     H28129   1.987   9.652   8.809  0.0465  0.0314 -0.8464
  971MOL0     H28130   2.023   9.853   9.035 -1.1246  1.5526 -0.2372
  971MOL0     H28131   1.896   9.839   8.913 -0.4784  1.2649  1.4904
  971MOL0     H28132   1.832   9.754   9.142  1.0218  2.1990 -0.7646
  971MOL0     H28133   1.975   9.647   9.134  2.0858  0.4565 -2.5152
  971MOL0     H28134   1.725   9.380   8.980  1.8856  2.2475  0.1157
  971MOL0     H28135   1.500   9.283   9.015  0.9471  0.9123 -4.4724
  971MOL0     H28136   1.043   9.348   9.084  2.7511  3.0056  0.0820
  971MOL0     H28137   0.806   9.293   9.145 -0.0585 -0.5221 -0.6859
  971MOL0     H28138   0.552   9.472   9.306  0.1163 -1.0523 -0.7951
  971MOL0     H28139   0.643   9.550   9.432 -1.1083  0.1025  0.6135
  971MOL0     H28140   0.424   9.493   9.518 -1.5426 -0.1530 -0.6165
  971MOL0     H28141   0.549   9.397   9.597  0.1777  1.2978 -0.5074
  971MOL0     H28142   0.458   9.213   9.432 -2.0338  0.0203 -0.1751
  971MOL0     H28143   0.341   9.319   9.378 -1.0026 -0.0761  0.1544
  971MOL0     H28144   0.368   9.206   9.669  3.0900  0.9066 -1.7704
  971MOL0     H28145   0.263   9.344   9.641  0.0691  0.2593 -1.1265
  971MOL0     H28146   0.218   9.072   9.521 -1.5322 -1.4202 -1.6259
  971MOL0     H28147   0.129   9.212   9.470  0.7139  2.1220 -0.0580
  971MOL0     H28148   0.053   9.253   9.718 -2.8759 -1.0210 -1.1428
  971MOL0     H28149   0.155   9.116   9.761 -1.0554 -0.6955  0.5561
  971MOL0     H28150   0.002   8.956   9.637  0.8413  0.0194 -1.1858
  971MOL0     H28151  -0.091   9.081   9.731 -0.2871  1.3255 -2.8236
  971MOL0     H28152  -0.209   9.027   9.537 -0.0468 -0.2190  5.8475
  971MOL0     H28153  -0.062   9.084   9.442  0.2524 -0.0139 -0.2275
  971MOL0     H28154   0.858   9.466   9.539 -1.1841  1.1417 -1.2260
  971MOL0     H28155   1.101   9.530   9.459  0.4906 -0.2360 -0.7492
  971MOL0     H28156   1.404   9.653   9.231  2.6768  1.4448  2.4563
  971MOL0     H28157   1.625   9.740   9.161  1.6701 -1.8009  4.3597
  971MOL0     H28158   3.151   9.865   7.888  1.6718  4.2931 -1.4868
  971MOL0     H28159   3.349   9.930   7.748  2.4732  1.5725  0.9255
  971MOL0     H28160   3.844   9.808   7.735 -1.6624 -1.4409 -1.1509
  971MOL0     H28161   4.044   9.808   7.600 -1.7799 -1.1798 -0.9748
  971MOL0     H28162   4.191  10.149   7.561 -0.1754 -2.1487  0.5164
  971MOL0     H28163   4.210  10.167   7.377  0.2984  0.1919 -0.6652
  971MOL0     H28164   4.359   9.978   7.545  2.2748  0.1271  0.3561
  971MOL0     H28165   4.348   9.967   7.368 -1.5335 -1.5747  0.6199
  971MOL0     H28166   4.454  10.214   7.504 -1.5191 -0.6871  0.4790
  971MOL0     H28167   4.442  10.181   7.327  1.5512  0.2894 -1.1146
  971MOL0     H28168   4.596   9.996   7.505 -3.1280 -2.2824 -2.5270
  971MOL0     H28169   4.592  10.003   7.329 -4.9715  2.6704 -2.2715
  971MOL0     H28170   4.890  10.290   7.466 -0.5248  1.0989  4.4002
  971MOL0     H28171   3.935  10.193   7.440  0.8039 -1.8754 -0.8982
  971MOL0     H28172   3.715  10.182   7.545 -1.3314 -0.1550  2.6367
  972MOL0     O28173   4.128   2.119   0.448 -0.6784 -0.0994  0.0617
  972MOL0     C28174   4.224   2.050   0.411 -0.1826  0.6272  0.2289
  972MOL0     O28175   4.244   2.002   0.287 -0.3684 -0.1980 -0.0299
  972MOL0     C28176   4.134   1.999   0.210 -0.8223 -0.7210 -0.0197
  972MOL0     C28177   4.034   1.911   0.213 -1.3189 -0.3573  0.5462
  972MOL0     C28178   3.940   1.906   0.117  0.4860  0.1434  0.0299
  972MOL0     C28179   3.947   1.995   0.008 -0.1996 -0.5735  0.4147
  972MOL0     O28180   3.857   2.002  -0.097 -0.7994  0.6245 -0.0447
  972MOL0     C28181   3.773   1.895  -0.127  0.4225  0.2013  0.1472
  972MOL0     C28182   3.659   1.938  -0.217 -0.0946  0.4043 -0.0428
  972MOL0     C28183   3.553   2.020  -0.136  0.0288  0.6683 -0.0211
  972MOL0     C28184   3.434   2.057  -0.216 -0.1585 -0.1505  0.3348
  972MOL0     C28185   3.315   2.085  -0.113 -0.7117  0.0314 -0.2065
  972MOL0     C28186   3.210   2.169  -0.172 -0.0286  0.0710  0.7816
  972MOL0     C28187   3.143   2.103  -0.302 -0.0572 -0.5085  0.6524
  972MOL0     C28188   3.002   2.159  -0.333  0.1335  0.5074 -0.1221
  972MOL0     N28189   2.919   2.053  -0.405 -0.2386  0.3386 -0.3733
  972MOL0     C28190   2.876   1.937  -0.343 -0.0718 -0.1489 -0.2368
  972MOL0     C28191   2.784   1.892  -0.434 -0.3893  0.1947 -0.2280
  972MOL0     C28192   2.693   1.773  -0.404  0.6768  0.0995  0.1538
  972MOL0     C28193   2.607   1.736  -0.528  0.4120 -0.5685  0.2611
  972MOL0     C28194   2.556   1.599  -0.549 -0.5487 -0.5446  0.0154
  972MOL0     C28195   2.415   1.583  -0.491  0.5183  0.0539  0.0023
  972MOL0     O28196   2.383   1.450  -0.438 -0.2103  0.2273 -0.4921
  972MOL0     C28197   2.257   1.435  -0.379 -0.5423  0.0314  0.3917
  972MOL0     C28198   2.140   1.507  -0.422  1.4103 -0.0961 -0.0693
  972MOL0     C28199   2.015   1.482  -0.364  0.4207  1.0105  0.1601
  972MOL0     C28200   2.006   1.394  -0.251 -0.1027  0.0030  0.2223
  972MOL0     C28201   1.883   1.382  -0.169  1.1427 -0.4810 -0.2408
  972MOL0     O28202   1.770   1.444  -0.222  0.0942  0.4589 -0.3832
  972MOL0     C28203   1.654   1.467  -0.147  0.2579  0.0490  1.0234
  972MOL0     C28204   1.530   1.443  -0.200  0.0787  0.3621 -0.3704
  972MOL0     C28205   1.415   1.461  -0.114 -0.6019 -1.0257  0.1314
  972MOL0     C28206   1.428   1.517   0.013  0.6820 -0.1163  0.8002
  972MOL0     O28207   1.317   1.550   0.092  0.6050 -0.1988  0.6218
  972MOL0     C28208   1.209   1.454   0.089  0.0636  0.4822 -0.2457
  972MOL0     C28209   1.077   1.516   0.032 -0.0367  0.3067 -0.6539
  972MOL0     C28210   1.069   1.673   0.075 -0.4095 -0.9116  0.7431
  972MOL0     C28211   0.953   1.753   0.017  0.4957  0.1987 -0.3878
  972MOL0     C28212   0.811   1.692   0.048 -1.1279 -0.7028 -0.2622
  972MOL0     C28213   0.691   1.775  -0.005  0.2251  0.4004  0.1616
  972MOL0     C28214   0.662   1.903   0.077  0.0674 -0.0654  0.0056
  972MOL0     C28215   0.568   1.990   0.004 -0.4639 -0.7928 -0.0351
  972MOL0    Cl28216   0.410   1.919   0.001 -0.1811  0.1623 -0.0907
  972MOL0     C28217   1.561   1.543   0.054  1.9256 -0.4497  0.0901
  972MOL0     C28218   1.676   1.520  -0.014  1.0589  0.2947  0.7549
  972MOL0     O28219   1.885   1.327  -0.059  0.0437 -0.4813  0.1972
  972MOL0     C28220   2.123   1.323  -0.208 -1.2005 -0.2811 -0.7486
  972MOL0     C28221   2.247   1.348  -0.272  0.1663 -0.1615 -0.2416
  972MOL0     N28222   2.784   1.981  -0.542  0.3285 -0.9213  0.1418
  972MOL0     N28223   2.868   2.070  -0.521 -0.4567  0.4285 -0.3812
  972MOL0     C28224   4.054   2.081  -0.002  0.6177  0.6868  0.1778
  972MOL0     C28225   4.138   2.092   0.104  0.7163 -0.5581  0.0485
  972MOL0     C28226   4.331   2.015   0.513 -0.7305  1.4672  0.6125
  972MOL0     C28227   4.459   1.969   0.477  0.0029 -0.3072 -0.1731
  972MOL0     C28228   4.559   1.928   0.569 -0.1318  0.5997 -0.7598
  972MOL0     C28229   4.543   1.963   0.709  0.5519 -0.1768  0.5700
  972MOL0     O28230   4.630   1.937   0.807 -0.9217 -0.7001 -0.6587
  972MOL0     C28231   4.758   1.878   0.773 -0.0350 -0.7963 -1.1311
  972MOL0     C28232   4.836   1.879   0.898  0.3214 -0.0129 -0.1282
  972MOL0     C28233   4.793   1.766   0.996  0.2352  0.7801  0.3330
  972MOL0     C28234   4.882   1.746   1.112 -0.0872  0.3886 -0.5371
  972MOL0     C28235   5.017   1.722   1.070 -0.8178 -0.3165  0.2974
  972MOL0     C28236   5.125   1.702   1.032 -1.1403  0.4141 -0.2670
  972MOL0     C28237   4.404   2.002   0.746 -0.3435  0.0501 -0.0779
  972MOL0     C28238   4.304   2.021   0.654 -0.4726 -0.3720  0.3605
  972MOL0     H28239   4.029   1.850   0.303 -1.5098  0.7114  1.2797
  972MOL0     H28240   3.864   1.829   0.125  0.2147  0.2715 -1.2180
  972MOL0     H28241   3.725   1.842  -0.044  0.7986 -1.0006 -0.3825
  972MOL0     H28242   3.828   1.817  -0.180 -0.1116 -0.3955  0.4582
  972MOL0     H28243   3.617   1.841  -0.245  0.2966 -0.0656  0.9401
  972MOL0     H28244   3.700   1.977  -0.311  0.3888 -0.3719 -0.1638
  972MOL0     H28245   3.589   2.112  -0.088 -3.4467  1.7505  0.7775
  972MOL0     H28246   3.516   1.959  -0.053 -1.2372  0.9994 -0.3277
  972MOL0     H28247   3.454   2.152  -0.268 -1.9228 -0.3785 -0.8378
  972MOL0     H28248   3.404   1.987  -0.294 -3.1936  1.7813 -0.3803
  972MOL0     H28249   3.342   2.145  -0.026 -3.3202 -0.9490  1.3683
  972MOL0     H28250   3.268   1.993  -0.080 -1.0954  1.2425  2.9938
  972MOL0     H28251   3.253   2.266  -0.199 -3.8184  1.4163 -1.1843
  972MOL0     H28252   3.136   2.188  -0.094  1.2467  2.1681  1.5616
  972MOL0     H28253   3.212   2.115  -0.386  0.4889  1.7845  1.3432
  972MOL0     H28254   3.143   1.995  -0.287 -0.2112 -0.7218 -0.7955
  972MOL0     H28255   2.999   2.246  -0.399  1.4899  1.4809  1.0470
  972MOL0     H28256   2.968   2.201  -0.238  0.7545  1.6199 -0.3794
  972MOL0     H28257   2.907   1.890  -0.250  1.8124 -0.4912 -0.9962
  972MOL0     H28258   2.632   1.795  -0.316 -0.4360 -3.1827  0.3446
  972MOL0     H28259   2.759   1.691  -0.376  1.0966  0.9481  1.8073
  972MOL0     H28260   2.676   1.730  -0.613  0.0378 -3.2915  0.0427
  972MOL0     H28261   2.523   1.804  -0.533  1.2326  0.7358  2.5691
  972MOL0     H28262   2.550   1.575  -0.655  1.3957  0.4518 -0.3716
  972MOL0     H28263   2.619   1.517  -0.511  1.2094  0.5898 -0.3312
  972MOL0     H28264   2.342   1.624  -0.562 -0.5990  1.1047  1.6884
  972MOL0     H28265   2.407   1.649  -0.404 -0.0912  0.7413 -0.5580
  972MOL0     H28266   2.150   1.576  -0.505  0.5697  0.7382  0.5086
  972MOL0     H28267   1.928   1.535  -0.401  0.5153  1.6693  0.8542
  972MOL0     H28268   1.502   1.414  -0.301 -0.9137 -0.5710  0.1446
  972MOL0     H28269   1.315   1.444  -0.154 -0.9115 -0.5027  0.6598
  972MOL0     H28270   1.175   1.439   0.192  0.6128 -2.1663 -0.3812
  972MOL0     H28271   1.230   1.353   0.053 -2.9103 -0.7710  1.1431
  972MOL0     H28272   0.992   1.461   0.071  1.7823 -2.9807 -0.9393
  972MOL0     H28273   1.082   1.517  -0.077 -0.8996  1.0785 -0.6958
  972MOL0     H28274   1.162   1.725   0.051  0.2131 -2.6258 -0.7695
  972MOL0     H28275   1.069   1.685   0.184  0.4616  2.7546  0.4635
  972MOL0     H28276   0.950   1.853   0.062  0.7921 -0.8358  2.0809
  972MOL0     H28277   0.957   1.755  -0.092 -1.3010 -1.0136 -0.5127
  972MOL0     H28278   0.803   1.673   0.156  3.4185  0.5163  0.5113
  972MOL0     H28279   0.804   1.598  -0.006 -2.4684 -1.1128  0.5797
  972MOL0     H28280   0.600   1.714  -0.007 -1.0178  2.1527 -2.4065
  972MOL0     H28281   0.698   1.801  -0.111 -4.0852 -0.2379 -0.4699
  972MOL0     H28282   0.619   1.871   0.173  1.2107 -0.6291  0.3528
  972MOL0     H28283   0.759   1.951   0.098  0.1793 -0.9287  1.6668
  972MOL0     H28284   0.616   2.016  -0.090 -1.7191 -1.2375 -0.8322
  972MOL0     H28285   0.554   2.081   0.063  0.4178 -0.1300 -0.8296
  972MOL0     H28286   1.564   1.588   0.153 -4.1694  3.7927 -1.0808
  972MOL0     H28287   1.776   1.543   0.021  1.3592 -2.4910  1.9721
  972MOL0     H28288   2.129   1.269  -0.114 -1.1782  1.7267  0.4714
  972MOL0     H28289   2.331   1.283  -0.249  1.2157  1.0255 -0.5464
  972MOL0     H28290   4.051   2.151  -0.085  0.3224  0.4304 -0.0282
  972MOL0     H28291   4.223   2.153   0.075  2.1316 -2.5722 -0.2589
  972MOL0     H28292   4.473   1.964   0.369 -0.1573 -0.5433 -0.1843
  972MOL0     H28293   4.646   1.865   0.553 -0.5593 -0.7044  1.6008
  972MOL0     H28294   4.816   1.941   0.705  0.4728  1.1211  0.9455
  972MOL0     H28295   4.749   1.783   0.719 -2.5836 -0.8710 -0.6773
  972MOL0     H28296   4.936   1.851   0.864 -1.0187 -0.9934 -3.7251
  972MOL0     H28297   4.844   1.974   0.952 -3.3147 -1.7370  4.0012
  972MOL0     H28298   4.779   1.670   0.944  2.2404  0.7095 -0.1401
  972MOL0     H28299   4.689   1.785   1.027 -0.7503 -0.9962 -1.6370
  972MOL0     H28300   4.871   1.835   1.175  2.3948  0.6037 -0.3185
  972MOL0     H28301   4.856   1.660   1.175  1.1933  0.5422  0.2427
  972MOL0     H28302   5.219   1.672   0.990 -0.7693  0.2729  0.6527
  972MOL0     H28303   4.381   1.998   0.852  0.5775 -3.4018  0.0956
  972MOL0     H28304   4.210   2.052   0.698 -0.7398 -0.9143  0.1745
  973MOL0     O28305   1.063   0.687   1.102 -0.5586 -0.1585 -0.1298
  973MOL0     C28306   1.072   0.616   1.006  0.1143 -0.5926  0.9946
  973MOL0     O28307   0.964   0.569   0.936 -0.7315 -0.3539  0.4419
  973MOL0     C28308   0.832   0.563   0.996 -0.6248 -0.5860 -0.6040
  973MOL0     C28309   0.776   0.438   1.010  1.1866  0.3871  0.2823
  973MOL0     C28310   0.651   0.419   1.079  0.4586 -0.8015  0.8267
  973MOL0     C28311   0.585   0.535   1.127  0.2471  0.5829  0.1583
  973MOL0     O28312   0.468   0.520   1.190  0.6003  0.4162 -0.4482
  973MOL0     C28313   0.400   0.636   1.247 -0.4885 -1.0396 -0.1134
  973MOL0     C28314   0.253   0.606   1.278  0.7609  0.5950  0.2394
  973MOL0     C28315   0.193   0.735   1.350 -0.1386  0.7695  0.6678
  973MOL0     C28316   0.049   0.701   1.360 -0.2247 -1.2650  0.0437
  973MOL0     C28317  -0.034   0.814   1.427 -0.7294  1.0115  0.1215
  973MOL0     C28318  -0.030   0.808   1.586  0.4572  0.7725 -0.2368
  973MOL0     C28319  -0.138   0.888   1.647  0.6203 -0.8771  0.4421
  973MOL0     C28320  -0.129   0.904   1.806  0.4898  0.4352  0.1072
  973MOL0     N28321  -0.230   0.994   1.858  0.4904  0.2515 -1.7861
  973MOL0     C28322  -0.358   0.954   1.902  0.4479  0.2613  1.9493
  973MOL0     C28323  -0.418   1.067   1.926 -0.0398 -0.0111  0.2472
  973MOL0     C28324  -0.554   1.100   1.974  0.8890 -1.1076  0.2824
  973MOL0     C28325  -0.640   1.177   1.873  1.0087  0.6556 -0.0952
  973MOL0     C28326  -0.745   1.269   1.941 -0.1443  0.1500 -0.4186
  973MOL0     C28327  -0.844   1.203   2.034  0.4376 -0.2055 -0.9334
  973MOL0     O28328  -0.957   1.280   2.086 -0.7185 -0.5273 -0.0098
  973MOL0     C28329  -1.070   1.220   2.077  0.1984 -0.2588  0.5383
  973MOL0     C28330  -1.159   1.283   2.008  0.5900 -0.7415  0.2751
  973MOL0     C28331  -1.290   1.234   1.986 -0.6979 -0.0231 -0.1238
  973MOL0     C28332  -1.337   1.117   2.052 -0.0889 -0.6212 -0.3676
  973MOL0     C28333  -1.481   1.082   2.042 -0.1275 -0.3651 -0.0417
  973MOL0     O28334  -1.566   1.170   1.970  0.7109 -0.2797  0.5163
  973MOL0     C28335  -1.701   1.162   2.014 -0.3525  0.0803  1.0408
  973MOL0     C28336  -1.760   1.272   2.082 -0.7006  0.3765  0.1484
  973MOL0     C28337  -1.889   1.275   2.120  0.4749  0.0885  1.0401
  973MOL0     C28338  -1.967   1.160   2.093 -0.3308  0.3041  0.1798
  973MOL0     O28339  -2.100   1.141   2.119  0.5148  0.6293  0.1002
  973MOL0     C28340  -2.149   1.214   2.220  0.0926  0.4049  0.8445
  973MOL0     C28341  -2.291   1.180   2.250  0.2232  0.6627 -1.3813
  973MOL0     C28342  -2.352   1.268   2.364  1.0152  1.0362  0.0403
  973MOL0     C28343  -2.485   1.201   2.406  0.7312  1.0296 -0.6494
  973MOL0     C28344  -2.555   1.282   2.523 -0.3561 -0.4923 -0.0533
  973MOL0     C28345  -2.703   1.254   2.530 -0.3708 -0.7604 -0.4090
  973MOL0     C28346  -2.726   1.113   2.600  0.3637  0.0172  0.9790
  973MOL0     C28347  -2.868   1.067   2.592 -0.7453 -0.2756 -0.3499
  973MOL0    Cl28348  -2.963   1.168   2.710  0.2558 -0.2415  0.0007
  973MOL0     C28349  -1.910   1.054   2.019 -0.0165  0.7859  1.0253
  973MOL0     C28350  -1.777   1.057   1.980 -0.0271  0.5235  0.3323
  973MOL0     O28351  -1.508   0.973   2.091 -0.6287 -0.1014  0.3252
  973MOL0     C28352  -1.235   1.040   2.122  0.9236 -0.2475  1.4897
  973MOL0     C28353  -1.106   1.099   2.134  0.0818  0.2066 -0.1490
  973MOL0     N28354  -0.323   1.167   1.911  0.2560  0.0613 -0.1227
  973MOL0     N28355  -0.209   1.119   1.875 -0.3399 -0.0631 -0.2046
  973MOL0     C28356   0.641   0.667   1.105 -0.1602  0.0659 -0.1918
  973MOL0     C28357   0.768   0.672   1.042 -0.3280 -0.0963 -0.3372
  973MOL0     C28358   1.212   0.594   0.957  1.8280 -0.2876  0.6305
  973MOL0     C28359   1.223   0.515   0.841 -0.4669  0.4422  0.2981
  973MOL0     C28360   1.348   0.513   0.786  0.0771  0.0328  0.0321
  973MOL0     C28361   1.465   0.571   0.828  0.0673 -0.6632 -0.3893
  973MOL0     O28362   1.575   0.564   0.746 -0.6223  0.3321  0.0626
  973MOL0     C28363   1.710   0.594   0.785 -0.9109  0.6981  0.0855
  973MOL0     C28364   1.809   0.483   0.742  0.3078 -0.1178 -0.2263
  973MOL0     C28365   1.749   0.348   0.779 -1.1171 -0.1941 -0.2656
  973MOL0     C28366   1.848   0.230   0.738  0.5546 -0.4366 -1.1078
  973MOL0     C28367   1.790   0.096   0.782  0.4130 -0.3558  0.0077
  973MOL0     C28368   1.717  -0.004   0.812 -0.8709 -0.6429  0.3377
  973MOL0     C28369   1.456   0.642   0.959  0.4080 -0.4261  0.9616
  973MOL0     C28370   1.326   0.652   1.014 -0.0750 -0.9184 -0.3437
  973MOL0     H28371   0.831   0.352   0.975  0.6760 -0.4842  1.5565
  973MOL0     H28372   0.605   0.322   1.095 -0.6441 -0.1629  1.6894
  973MOL0     H28373   0.404   0.712   1.169  0.5308 -0.9032  0.0535
  973MOL0     H28374   0.448   0.676   1.337 -4.1423  1.2223  1.0116
  973MOL0     H28375   0.238   0.528   1.353  0.0454 -0.4045 -0.9062
  973MOL0     H28376   0.194   0.590   1.188  1.3322  2.1687 -0.4719
  973MOL0     H28377   0.212   0.822   1.287  0.0448  0.1611 -0.1309
  973MOL0     H28378   0.244   0.773   1.439 -1.0011  4.5082 -0.2469
  973MOL0     H28379   0.007   0.695   1.259  2.5384 -6.3651 -1.1255
  973MOL0     H28380   0.032   0.613   1.423 -1.0967  0.2245  1.9765
  973MOL0     H28381  -0.140   0.800   1.402 -1.5877  1.5102  3.0106
  973MOL0     H28382  -0.010   0.913   1.386 -1.1183  0.5881 -1.1582
  973MOL0     H28383   0.063   0.844   1.631  1.8155 -1.2618 -1.2357
  973MOL0     H28384  -0.027   0.703   1.618  2.3803  0.9610  0.3484
  973MOL0     H28385  -0.135   0.990   1.607  0.1903 -1.0412 -0.0123
  973MOL0     H28386  -0.236   0.847   1.623  1.1519 -0.2352 -3.4770
  973MOL0     H28387  -0.031   0.949   1.821  0.6019  0.5484 -0.8761
  973MOL0     H28388  -0.131   0.802   1.845  1.4488 -0.0164 -0.9830
  973MOL0     H28389  -0.411   0.859   1.904  1.1479 -0.1789  0.7309
  973MOL0     H28390  -0.548   1.150   2.071  1.9464 -0.5668 -0.0522
  973MOL0     H28391  -0.614   1.008   1.986 -0.9223  0.0784  0.7942
  973MOL0     H28392  -0.705   1.116   1.810 -1.3303  4.1821 -1.4149
  973MOL0     H28393  -0.579   1.226   1.796  0.8847 -3.8095 -3.4150
  973MOL0     H28394  -0.685   1.339   1.999  0.3920  1.0565 -2.0341
  973MOL0     H28395  -0.800   1.327   1.867 -0.3536  0.0998 -0.3072
  973MOL0     H28396  -0.793   1.168   2.125 -0.5858 -0.7789 -0.5716
  973MOL0     H28397  -0.877   1.113   1.982  3.7547 -1.8665 -0.4756
  973MOL0     H28398  -1.112   1.368   1.960  1.5155 -0.6126  1.3694
  973MOL0     H28399  -1.350   1.294   1.919  1.5689 -0.1763 -2.4439
  973MOL0     H28400  -1.695   1.349   2.120  0.0223  1.0343 -2.2665
  973MOL0     H28401  -1.916   1.360   2.182 -1.4559 -1.1092  1.9378
  973MOL0     H28402  -2.147   1.320   2.192  0.0687  0.7113  1.9485
  973MOL0     H28403  -2.092   1.213   2.313  0.6184  0.0018  0.5209
  973MOL0     H28404  -2.289   1.075   2.280 -0.8708  1.4821  2.0537
  973MOL0     H28405  -2.349   1.182   2.158  0.2615 -2.2364 -1.5704
  973MOL0     H28406  -2.366   1.372   2.332  0.3694  1.0842  0.4564
  973MOL0     H28407  -2.284   1.263   2.449  2.5961 -2.8911 -1.1980
  973MOL0     H28408  -2.552   1.180   2.323 -0.6059  0.6686  0.4867
  973MOL0     H28409  -2.452   1.110   2.457  0.0890  1.2584  0.1886
  973MOL0     H28410  -2.556   1.391   2.508 -1.9171  0.4206  4.7821
  973MOL0     H28411  -2.503   1.261   2.616 -1.2385  0.6581  0.7275
  973MOL0     H28412  -2.736   1.266   2.426  1.9013  0.4932 -1.0497
  973MOL0     H28413  -2.767   1.334   2.567  1.8313  2.0547 -2.2763
  973MOL0     H28414  -2.648   1.056   2.549  2.6526  2.1371  1.9112
  973MOL0     H28415  -2.703   1.111   2.706  1.7287  0.9137  0.7315
  973MOL0     H28416  -2.876   0.961   2.616 -0.2625 -0.5521 -1.3677
  973MOL0     H28417  -2.917   1.083   2.496 -1.7773 -0.3539  0.1391
  973MOL0     H28418  -1.969   0.965   2.002  0.2877 -0.0012  3.6598
  973MOL0     H28419  -1.739   0.967   1.933 -1.7924 -0.2512  0.2949
  973MOL0     H28420  -1.266   0.952   2.177 -1.1670  0.5983  1.7363
  973MOL0     H28421  -1.038   1.036   2.189  1.5067  1.1462 -0.7686
  973MOL0     H28422   0.602   0.760   1.146 -0.1404 -0.3218  0.7300
  973MOL0     H28423   0.825   0.764   1.051  1.6688 -1.2858 -0.3466
  973MOL0     H28424   1.136   0.468   0.796 -0.8242 -0.7015  2.1334
  973MOL0     H28425   1.360   0.454   0.695 -0.5331 -0.3330  0.1833
  973MOL0     H28426   1.714   0.584   0.894 -0.7544 -0.8843 -0.0505
  973MOL0     H28427   1.732   0.695   0.748  1.1951  0.2145 -0.1088
  973MOL0     H28428   1.822   0.496   0.635 -1.7399 -1.9395 -0.7715
  973MOL0     H28429   1.905   0.502   0.791 -1.0324 -0.0596  2.5720
  973MOL0     H28430   1.650   0.330   0.735 -0.6565  0.3312 -1.5536
  973MOL0     H28431   1.735   0.337   0.887 -0.0668  0.2772 -0.0707
  973MOL0     H28432   1.863   0.234   0.630  1.5655  1.0629 -0.9405
  973MOL0     H28433   1.944   0.258   0.783  1.3501  0.4923 -3.2782
  973MOL0     H28434   1.657  -0.090   0.833  0.8599 -1.9866 -0.0192
  973MOL0     H28435   1.545   0.695   0.993 -1.2828  1.4096  2.8674
  973MOL0     H28436   1.317   0.714   1.103  1.8538 -1.5111  0.3347
  974MOL0     O28437   4.737   4.505   5.542 -0.1417  0.1892  0.1263
  974MOL0     C28438   4.687   4.581   5.627  0.9381  0.6270  0.5085
  974MOL0     O28439   4.559   4.618   5.623 -0.2308 -0.0637 -0.9245
  974MOL0     C28440   4.466   4.550   5.548 -0.9195  0.0894 -1.2630
  974MOL0     C28441   4.468   4.407   5.552 -0.1363 -0.8257 -0.3837
  974MOL0     C28442   4.376   4.340   5.469 -0.1760 -0.3527  0.7831
  974MOL0     C28443   4.275   4.407   5.405 -0.0587 -0.3944 -0.4457
  974MOL0     O28444   4.186   4.335   5.328 -0.3311  0.6004  0.1849
  974MOL0     C28445   4.076   4.396   5.260 -0.4977  0.3578 -0.4113
  974MOL0     C28446   3.970   4.297   5.245 -0.3015 -0.3001  0.5968
  974MOL0     C28447   3.861   4.364   5.169 -0.1991  0.1367  0.0780
  974MOL0     C28448   3.744   4.277   5.170  0.9323  1.0712  0.2093
  974MOL0     C28449   3.627   4.329   5.078  0.5513  0.9472  1.0289
  974MOL0     C28450   3.496   4.252   5.124  0.2504 -0.1958  1.1405
  974MOL0     C28451   3.394   4.228   5.005  0.1462  0.2279  0.4211
  974MOL0     C28452   3.291   4.127   5.054 -0.5890 -0.3210  0.2929
  974MOL0     N28453   3.216   4.088   4.935 -0.1427 -0.7148  0.2017
  974MOL0     C28454   3.237   3.985   4.841  0.6324  1.3481 -1.3060
  974MOL0     C28455   3.116   3.964   4.781  0.2622 -0.7604 -1.1231
  974MOL0     C28456   3.080   3.861   4.674 -0.4927  0.5729  0.2556
  974MOL0     C28457   3.082   3.901   4.527 -0.7833  0.8234  0.5555
  974MOL0     C28458   2.974   4.007   4.506  0.5527 -0.1646 -0.6841
  974MOL0     C28459   2.824   3.965   4.523 -0.2509  0.5043  0.0374
  974MOL0     O28460   2.737   4.076   4.480  0.5288  0.4541 -0.1269
  974MOL0     C28461   2.602   4.042   4.508 -0.2817  0.2765  0.1948
  974MOL0     C28462   2.519   4.147   4.539  0.4924 -0.7433 -0.2292
  974MOL0     C28463   2.382   4.126   4.558  1.0459  0.7961 -0.0659
  974MOL0     C28464   2.324   3.999   4.550 -0.4295 -0.4766 -0.2274
  974MOL0     C28465   2.180   3.986   4.572 -0.0894  0.4135  0.8585
  974MOL0     O28466   2.101   4.091   4.570  0.2346 -0.4223  1.2284
  974MOL0     C28467   1.964   4.069   4.576 -0.3230 -0.9214  0.4840
  974MOL0     C28468   1.872   4.121   4.479 -0.4564  0.7583 -0.0836
  974MOL0     C28469   1.730   4.110   4.488 -0.5019 -0.1383  0.4455
  974MOL0     C28470   1.679   4.044   4.597  0.1869  0.0815  0.2320
  974MOL0     O28471   1.536   4.018   4.594  0.0450 -0.3416  1.2512
  974MOL0     C28472   1.470   3.983   4.712 -0.4075  0.5602 -0.3593
  974MOL0     C28473   1.450   4.103   4.816 -0.1199  0.4654 -0.1477
  974MOL0     C28474   1.354   4.078   4.925  0.0352 -0.6589 -0.3344
  974MOL0     C28475   1.211   4.089   4.867  1.3887  0.1743  0.3103
  974MOL0     C28476   1.104   4.132   4.972 -0.1274  0.5014 -0.0170
  974MOL0     C28477   1.095   4.290   4.990  0.7840  0.1132  0.6693
  974MOL0     C28478   0.969   4.329   5.070 -0.3661  0.3673 -0.3056
  974MOL0     C28479   0.967   4.482   5.066  0.5331  0.0725 -0.0849
  974MOL0    Cl28480   0.827   4.538   5.165 -0.2192  0.2760  0.2162
  974MOL0     C28481   1.761   3.987   4.692 -0.5665 -0.1552  0.0343
  974MOL0     C28482   1.904   4.000   4.691 -0.1687 -0.8565 -0.2156
  974MOL0     O28483   2.145   3.869   4.586  0.1992 -0.7576  0.2231
  974MOL0     C28484   2.406   3.890   4.528 -0.2720 -0.6673  0.6717
  974MOL0     C28485   2.544   3.913   4.501 -0.3796 -1.0106  0.7882
  974MOL0     N28486   3.033   4.060   4.842  0.1610 -0.8482 -0.0695
  974MOL0     N28487   3.088   4.134   4.927 -0.7923 -0.2615 -0.7653
  974MOL0     C28488   4.265   4.550   5.409  0.1211 -0.0022 -0.3071
  974MOL0     C28489   4.357   4.620   5.487  0.4043 -0.1397 -0.0428
  974MOL0     C28490   4.780   4.654   5.714  1.5718 -0.4867 -0.1729
  974MOL0     C28491   4.747   4.674   5.853  0.2220  0.5153  0.7303
  974MOL0     C28492   4.836   4.744   5.937 -0.9592 -0.2493 -0.0950
  974MOL0     C28493   4.958   4.787   5.873  0.6510 -0.5527 -0.8503
  974MOL0     O28494   5.048   4.857   5.947  0.8021 -0.1124  0.2699
  974MOL0     C28495   5.131   4.772   6.020  0.4797 -0.3305 -0.5183
  974MOL0     C28496   5.148   4.838   6.162 -0.4013 -0.3804 -0.3388
  974MOL0     C28497   5.217   4.975   6.148  0.3946 -0.1105 -1.0459
  974MOL0     C28498   5.235   5.038   6.291  0.4263 -0.2243 -0.0230
  974MOL0     C28499   5.315   5.163   6.295 -0.2356  0.1453 -0.1393
  974MOL0     C28500   5.384   5.266   6.285 -0.6749  0.2494  0.7788
  974MOL0     C28501   4.986   4.765   5.743  0.1313 -0.0483 -0.6178
  974MOL0     C28502   4.899   4.705   5.660  0.4371 -0.2333 -0.3910
  974MOL0     H28503   4.533   4.338   5.604 -2.4575 -2.6081  0.3350
  974MOL0     H28504   4.386   4.233   5.456  1.0924 -0.3399  1.4786
  974MOL0     H28505   4.115   4.444   5.169  1.1497  2.7397  1.4194
  974MOL0     H28506   4.032   4.474   5.323  1.8978  0.6757  0.9773
  974MOL0     H28507   3.936   4.269   5.345 -0.3286 -1.0709  0.3797
  974MOL0     H28508   4.006   4.218   5.179 -0.2278  0.1922  0.0485
  974MOL0     H28509   3.894   4.378   5.065 -2.5292  0.9065 -0.6197
  974MOL0     H28510   3.831   4.461   5.210 -2.4407 -0.3964 -0.2115
  974MOL0     H28511   3.760   4.176   5.131  0.0509  1.1248 -0.3254
  974MOL0     H28512   3.700   4.263   5.270 -1.8083 -0.2139 -1.0739
  974MOL0     H28513   3.651   4.298   4.976  1.5896 -1.1360  1.8365
  974MOL0     H28514   3.602   4.435   5.082 -0.4279  0.7244  1.2712
  974MOL0     H28515   3.450   4.317   5.198  1.2917  0.5280  1.1871
  974MOL0     H28516   3.522   4.151   5.159  1.3119 -0.2799  0.2024
  974MOL0     H28517   3.344   4.323   4.981 -0.6781 -0.3592 -0.2338
  974MOL0     H28518   3.443   4.189   4.915  1.7055 -0.0184  1.3427
  974MOL0     H28519   3.218   4.165   5.126 -1.1036 -1.5008  0.4094
  974MOL0     H28520   3.333   4.040   5.105  0.5115  0.1859  0.2958
  974MOL0     H28521   3.330   3.928   4.840 -0.3970 -0.4125 -1.1216
  974MOL0     H28522   2.977   3.830   4.692 -0.4432 -1.2366 -2.1405
  974MOL0     H28523   3.133   3.767   4.688 -0.2664  0.7312  0.4942
  974MOL0     H28524   3.069   3.819   4.456  0.7771  2.1422 -1.3274
  974MOL0     H28525   3.179   3.944   4.500 -1.6467  2.1790 -0.4906
  974MOL0     H28526   2.995   4.090   4.573 -1.0370 -0.8049  0.6713
  974MOL0     H28527   2.973   4.041   4.401 -3.9043  0.4273 -0.6584
  974MOL0     H28528   2.792   3.940   4.625 -2.3674  0.4717 -0.5896
  974MOL0     H28529   2.814   3.873   4.466  0.3773  0.4968 -0.0608
  974MOL0     H28530   2.553   4.250   4.533 -0.0306 -0.4508  1.3691
  974MOL0     H28531   2.329   4.220   4.571 -1.5994 -0.1879 -2.4389
  974MOL0     H28532   1.904   4.181   4.395 -1.4418  0.6487 -0.5399
  974MOL0     H28533   1.663   4.160   4.419 -0.5765 -1.5620 -0.5523
  974MOL0     H28534   1.525   3.903   4.762 -3.9056 -2.7038 -1.2945
  974MOL0     H28535   1.380   3.936   4.673  0.3453 -0.9984 -0.2771
  974MOL0     H28536   1.432   4.203   4.776  0.1286  2.4669  4.1154
  974MOL0     H28537   1.547   4.132   4.858  1.3537  1.1484 -3.7034
  974MOL0     H28538   1.364   4.162   4.994  1.5127  0.3293 -1.6969
  974MOL0     H28539   1.372   3.980   4.970  0.7524 -1.2186 -1.7584
  974MOL0     H28540   1.218   4.157   4.782 -0.7041 -2.5960 -2.2812
  974MOL0     H28541   1.184   3.994   4.821  0.6217  0.8769 -0.7295
  974MOL0     H28542   1.114   4.078   5.067  1.8612 -1.4057 -1.2227
  974MOL0     H28543   1.009   4.098   4.930 -1.1143  1.4429  1.3274
  974MOL0     H28544   1.081   4.334   4.892 -0.1039 -1.8364 -0.1449
  974MOL0     H28545   1.180   4.344   5.033 -1.3368  3.2981  1.1401
  974MOL0     H28546   0.883   4.285   5.020  1.3045 -0.8782 -2.2320
  974MOL0     H28547   0.978   4.293   5.172  2.0252  0.8125 -0.2891
  974MOL0     H28548   0.937   4.512   4.965 -3.8535 -0.0208  0.9706
  974MOL0     H28549   1.059   4.538   5.083  0.5666  0.6471 -1.9437
  974MOL0     H28550   1.716   3.941   4.780 -0.2283  0.9586  0.8190
  974MOL0     H28551   1.970   3.981   4.776 -0.5196  3.4515  1.2623
  974MOL0     H28552   2.371   3.787   4.528 -1.8309 -0.1720 -0.2811
  974MOL0     H28553   2.597   3.825   4.466 -0.6452 -0.0915 -2.2162
  974MOL0     H28554   4.184   4.601   5.360  0.7719  0.8745 -0.5004
  974MOL0     H28555   4.363   4.726   5.508  0.8092 -0.3761  1.1262
  974MOL0     H28556   4.660   4.618   5.887  0.2677  0.6448  1.0640
  974MOL0     H28557   4.810   4.757   6.041 -0.8201  2.3142 -0.3289
  974MOL0     H28558   5.224   4.758   5.965  0.2937 -1.2812 -0.6117
  974MOL0     H28559   5.089   4.672   6.039  0.9148 -0.4312 -0.0366
  974MOL0     H28560   5.053   4.864   6.207  0.6652  0.0776  1.7614
  974MOL0     H28561   5.207   4.774   6.229  1.2467  0.9116 -0.4798
  974MOL0     H28562   5.142   5.036   6.096 -0.7393  0.1298  0.7946
  974MOL0     H28563   5.316   4.956   6.105  1.5428  0.7428  1.0709
  974MOL0     H28564   5.136   5.047   6.337 -0.5166 -1.8762 -1.6090
  974MOL0     H28565   5.289   4.969   6.356  1.5669  1.1471  0.5386
  974MOL0     H28566   5.438   5.355   6.260 -0.3121 -0.2142 -0.1342
  974MOL0     H28567   5.079   4.804   5.703  0.9984 -1.1312  0.2850
  974MOL0     H28568   4.923   4.688   5.556 -3.2175 -0.3125 -1.3662
  975MOL0     O28569   7.707   5.429   8.036 -0.5952  0.0197  0.1715
  975MOL0     C28570   7.718   5.516   7.950  0.4171  0.3573  0.2753
  975MOL0     O28571   7.602   5.580   7.900  0.0366 -0.5719  0.9769
  975MOL0     C28572   7.477   5.572   7.955 -0.5707 -0.3858  0.2302
  975MOL0     C28573   7.449   5.560   8.095  0.5987  0.1274 -0.1112
  975MOL0     C28574   7.311   5.573   8.135 -0.2422 -0.2335  0.2621
  975MOL0     C28575   7.203   5.588   8.047  0.3956  0.7035 -0.9250
  975MOL0     O28576   7.069   5.582   8.105  0.3204 -0.4663  0.0114
  975MOL0     C28577   6.957   5.557   8.019 -0.5218  1.3561  0.4824
  975MOL0     C28578   6.831   5.572   8.099 -0.2101  0.8397 -0.6915
  975MOL0     C28579   6.705   5.550   8.009  0.1462 -0.2249 -0.5733
  975MOL0     C28580   6.574   5.568   8.082 -0.3452  0.2858 -0.4382
  975MOL0     C28581   6.466   5.568   7.982 -0.1095  0.1641 -0.1891
  975MOL0     C28582   6.330   5.576   8.050 -1.2638  0.3836  0.1047
  975MOL0     C28583   6.224   5.582   7.935  0.4128  0.4997 -0.3439
  975MOL0     C28584   6.097   5.561   8.015 -0.1932  0.1750  1.1040
  975MOL0     N28585   5.974   5.551   7.932  0.2642  0.3318 -0.1100
  975MOL0     C28586   5.909   5.663   7.865 -0.9421  0.9959  0.1826
  975MOL0     C28587   5.787   5.602   7.844 -0.0474 -0.8104 -0.3735
  975MOL0     C28588   5.659   5.657   7.795  0.5047 -1.0959 -0.2448
  975MOL0     C28589   5.659   5.815   7.800  0.2544  0.4600  0.4825
  975MOL0     C28590   5.633   5.870   7.934 -0.0050  0.2826  0.1971
  975MOL0     C28591   5.505   5.829   8.003 -0.0800  0.2989 -0.7923
  975MOL0     O28592   5.392   5.819   7.909 -0.4485 -0.9025  1.0296
  975MOL0     C28593   5.274   5.763   7.939  0.7418  0.1891 -0.0175
  975MOL0     C28594   5.188   5.733   7.835  0.0355 -0.3194  0.6081
  975MOL0     C28595   5.055   5.696   7.853  0.6677 -0.5696  0.2976
  975MOL0     C28596   5.007   5.675   7.988  0.0954  0.3575  0.3777
  975MOL0     C28597   4.870   5.633   8.003  0.3215  0.2398  0.2761
  975MOL0     O28598   4.829   5.607   8.129  0.0285  0.1228 -0.3230
  975MOL0     C28599   4.696   5.565   8.148  0.6664  0.3349  0.0616
  975MOL0     C28600   4.600   5.643   8.204  0.3347 -0.2584 -1.5216
  975MOL0     C28601   4.472   5.589   8.236  0.1826  0.0083  1.0151
  975MOL0     C28602   4.432   5.468   8.186 -0.0819 -0.1555  1.1890
  975MOL0     O28603   4.299   5.439   8.202  0.1071  0.0263  0.5108
  975MOL0     C28604   4.252   5.324   8.130  0.2704  0.3240  0.4586
  975MOL0     C28605   4.112   5.310   8.177  0.3799  0.0538 -0.1116
  975MOL0     C28606   4.040   5.183   8.126  0.3440  0.4958 -1.2200
  975MOL0     C28607   3.992   5.205   7.983 -1.0902  0.3172 -0.1837
  975MOL0     C28608   3.865   5.124   7.963 -0.5083  0.2051 -0.2675
  975MOL0     C28609   3.816   5.124   7.812  0.3120  0.2340  1.0845
  975MOL0     C28610   3.710   5.016   7.801  0.8428  0.0857 -1.2365
  975MOL0     C28611   3.600   5.046   7.705 -0.1303  0.6121  0.5620
  975MOL0    Cl28612   3.469   4.930   7.744 -0.2438  0.5524  0.3982
  975MOL0     C28613   4.522   5.394   8.110 -0.9664 -0.3115 -0.0211
  975MOL0     C28614   4.653   5.446   8.085  0.2314 -0.1121 -0.4022
  975MOL0     O28615   4.800   5.618   7.908 -0.5259 -0.2386 -0.2384
  975MOL0     C28616   5.098   5.687   8.094 -0.7425 -1.0373 -0.2797
  975MOL0     C28617   5.228   5.735   8.071  0.7675  0.2992  0.4439
  975MOL0     N28618   5.782   5.471   7.880  0.8731  0.2096 -0.7446
  975MOL0     N28619   5.905   5.437   7.913  0.0086  0.4144 -0.1115
  975MOL0     C28620   7.239   5.590   7.904 -0.1642  0.4257  0.1034
  975MOL0     C28621   7.376   5.577   7.866  0.0164  0.3970 -0.0875
  975MOL0     C28622   7.851   5.557   7.910  0.3761  0.0674  0.1819
  975MOL0     C28623   7.957   5.472   7.928 -0.2330 -0.5636  0.0638
  975MOL0     C28624   8.088   5.506   7.876  0.8836  0.3968  1.0198
  975MOL0     C28625   8.103   5.615   7.798  1.3217  0.3269 -0.5706
  975MOL0     O28626   8.220   5.662   7.747 -0.4050 -0.0329  0.2538
  975MOL0     C28627   8.343   5.595   7.787  0.6630 -0.3815  0.3261
  975MOL0     C28628   8.454   5.651   7.698  0.6088 -0.2595  0.0074
  975MOL0     C28629   8.470   5.570   7.570 -0.1516  0.3006 -0.1866
  975MOL0     C28630   8.616   5.597   7.510  1.0959  0.3543 -0.9826
  975MOL0     C28631   8.712   5.513   7.586 -0.2037  0.4526  0.4301
  975MOL0     C28632   8.810   5.453   7.634 -0.4946  0.2796  0.4471
  975MOL0     C28633   8.000   5.708   7.797  0.0661  0.6608 -0.0363
  975MOL0     C28634   7.868   5.681   7.842  0.0616  0.1506  0.0194
  975MOL0     H28635   7.525   5.540   8.170 -0.2702  2.0154  1.3712
  975MOL0     H28636   7.287   5.552   8.239 -2.2983  0.5239 -0.0209
  975MOL0     H28637   6.982   5.458   7.979  1.1943  0.7360  2.8535
  975MOL0     H28638   6.958   5.633   7.941 -0.7599  0.7857 -0.0870
  975MOL0     H28639   6.826   5.673   8.140 -2.2094  0.3386  0.4903
  975MOL0     H28640   6.839   5.506   8.186  3.7914  0.5779 -1.0650
  975MOL0     H28641   6.710   5.448   7.970 -0.1076 -1.6643  2.8571
  975MOL0     H28642   6.712   5.613   7.919  0.0715 -1.4509 -1.4642
  975MOL0     H28643   6.545   5.498   8.161 -2.9072  3.0577  1.3049
  975MOL0     H28644   6.564   5.668   8.124 -0.7919  1.0325 -2.2422
  975MOL0     H28645   6.466   5.474   7.926 -0.6491  0.4062 -0.6035
  975MOL0     H28646   6.468   5.662   7.926  0.3929  0.4688  0.3352
  975MOL0     H28647   6.341   5.662   8.117 -0.7809  0.3350  0.0921
  975MOL0     H28648   6.312   5.483   8.103 -2.0418 -1.6490 -3.4022
  975MOL0     H28649   6.222   5.680   7.887 -0.3476  1.4803  1.5731
  975MOL0     H28650   6.245   5.498   7.867 -1.0325 -1.7077  1.7590
  975MOL0     H28651   6.077   5.641   8.088 -1.3847 -0.0694  1.0667
  975MOL0     H28652   6.110   5.471   8.075  0.2986 -1.8609 -1.8040
  975MOL0     H28653   5.944   5.764   7.848 -1.2310  0.9797 -0.5707
  975MOL0     H28654   5.580   5.610   7.855 -0.1958  1.6794  1.1621
  975MOL0     H28655   5.644   5.626   7.691  2.2498  3.1720 -1.9946
  975MOL0     H28656   5.582   5.856   7.734  1.7289  2.5735 -0.0301
  975MOL0     H28657   5.753   5.864   7.772  0.8973  0.7744  2.9151
  975MOL0     H28658   5.723   5.856   7.994 -0.4308  0.3585  0.8620
  975MOL0     H28659   5.624   5.977   7.914  1.2855  0.1585 -1.2200
  975MOL0     H28660   5.480   5.911   8.071 -2.0030  0.2300 -1.3541
  975MOL0     H28661   5.517   5.736   8.059  0.9671  0.8929  0.0104
  975MOL0     H28662   5.219   5.749   7.732 -0.9771 -1.3883  0.1087
  975MOL0     H28663   4.993   5.685   7.764  2.0764 -2.1503 -0.5502
  975MOL0     H28664   4.617   5.745   8.236 -3.1180  0.0687 -0.3198
  975MOL0     H28665   4.398   5.650   8.287 -0.3884 -0.8062  1.1865
  975MOL0     H28666   4.316   5.239   8.156  2.9441  1.3098 -2.2990
  975MOL0     H28667   4.249   5.324   8.021  1.3644 -2.5668  0.3267
  975MOL0     H28668   4.043   5.394   8.160 -2.7266 -2.2928  0.1110
  975MOL0     H28669   4.111   5.301   8.286  1.5792 -0.4702 -0.1366
  975MOL0     H28670   3.953   5.169   8.190  1.3953  0.1827  0.1938
  975MOL0     H28671   4.106   5.097   8.140 -3.0449 -1.7889  2.4168
  975MOL0     H28672   3.964   5.307   7.955  0.4579  0.5921 -0.8381
  975MOL0     H28673   4.079   5.178   7.923  0.6519  3.1803  0.8430
  975MOL0     H28674   3.786   5.163   8.028 -2.2945 -2.4606 -0.6874
  975MOL0     H28675   3.891   5.024   7.998  0.5413  1.3563  2.5379
  975MOL0     H28676   3.897   5.102   7.742 -1.9153  0.8402 -1.8827
  975MOL0     H28677   3.777   5.222   7.783 -3.3594 -0.8718  1.7480
  975MOL0     H28678   3.758   4.923   7.767  0.2170 -0.9218  0.5247
  975MOL0     H28679   3.671   4.993   7.900 -0.1037 -0.7241 -1.7655
  975MOL0     H28680   3.632   5.045   7.600 -0.7399  0.3976  0.3687
  975MOL0     H28681   3.578   5.150   7.731  0.7176  0.6415  1.1952
  975MOL0     H28682   4.483   5.304   8.062  1.0352 -2.2817  1.7862
  975MOL0     H28683   4.727   5.387   8.032  2.2067  1.1288  0.8279
  975MOL0     H28684   5.070   5.661   8.196  1.9635 -0.1717  0.7502
  975MOL0     H28685   5.285   5.750   8.163  2.4222 -1.5861 -0.1933
  975MOL0     H28686   7.170   5.603   7.822  1.6670  0.8292 -1.4398
  975MOL0     H28687   7.412   5.594   7.765  2.2884  2.6906  0.9987
  975MOL0     H28688   7.948   5.374   7.973 -2.4701 -0.3005  0.3113
  975MOL0     H28689   8.168   5.441   7.907  2.2002 -0.8259 -3.9361
  975MOL0     H28690   8.341   5.487   7.770  1.9931 -0.6198  1.4583
  975MOL0     H28691   8.360   5.601   7.895  2.3412 -0.6045  0.1174
  975MOL0     H28692   8.428   5.757   7.684  2.6959  0.5868  2.0079
  975MOL0     H28693   8.545   5.653   7.758  0.8026 -0.6847 -0.2652
  975MOL0     H28694   8.402   5.598   7.489  0.8019 -2.5334 -2.1405
  975MOL0     H28695   8.453   5.463   7.585  0.4279  0.4630  1.9182
  975MOL0     H28696   8.614   5.579   7.402 -0.3255  0.9678 -1.0912
  975MOL0     H28697   8.641   5.702   7.527  1.6000 -0.0803  1.2739
  975MOL0     H28698   8.880   5.396   7.691 -0.1415  0.3205  0.0595
  975MOL0     H28699   8.026   5.798   7.743  1.3172  0.0912 -0.4365
  975MOL0     H28700   7.785   5.750   7.835 -1.0618 -1.0805  0.7752
  976MOL0     O28701   7.493   0.352   6.330  0.0053  0.0245  0.0768
  976MOL0     C28702   7.575   0.285   6.396  0.0883  0.0982  0.5525
  976MOL0     O28703   7.563   0.258   6.527  0.0188 -0.0432  0.0367
  976MOL0     C28704   7.452   0.301   6.600 -0.2075 -0.1404  0.3979
  976MOL0     C28705   7.427   0.431   6.644  0.6828  0.2650  0.1446
  976MOL0     C28706   7.308   0.460   6.707 -0.3669  0.1841 -1.2402
  976MOL0     C28707   7.203   0.368   6.725  0.1797  0.4737  0.4584
  976MOL0     O28708   7.086   0.408   6.783 -0.3339  0.4694  0.1465
  976MOL0     C28709   6.976   0.311   6.781 -0.3595 -0.0136 -0.4753
  976MOL0     C28710   6.843   0.378   6.817  0.6674  0.4822  0.4982
  976MOL0     C28711   6.735   0.276   6.847  0.9154  0.2841 -0.5081
  976MOL0     C28712   6.594   0.338   6.869  0.0344 -0.1621 -0.3074
  976MOL0     C28713   6.491   0.222   6.875  0.1339  0.3210  0.0671
  976MOL0     C28714   6.343   0.256   6.907  0.2309  0.8778  0.6085
  976MOL0     C28715   6.237   0.136   6.876  0.1438  0.4868 -0.2079
  976MOL0     C28716   6.182   0.138   6.733  0.4995  0.5530 -0.2267
  976MOL0     N28717   6.064   0.047   6.710 -0.6891 -0.1898  0.2206
  976MOL0     C28718   6.055  -0.030   6.600  0.4687 -0.6043 -0.0402
  976MOL0     C28719   5.932  -0.093   6.607  0.9322  0.3781 -0.2574
  976MOL0     C28720   5.882  -0.176   6.497  0.0552 -0.2155 -0.4423
  976MOL0     C28721   5.866  -0.320   6.534 -0.1468 -0.0512 -0.8952
  976MOL0     C28722   5.823  -0.396   6.407  0.2086 -0.2515 -0.8174
  976MOL0     C28723   5.792  -0.543   6.431 -0.7639  0.2532  0.8126
  976MOL0     O28724   5.710  -0.595   6.325 -0.4702  0.4622 -0.5252
  976MOL0     C28725   5.571  -0.594   6.343  0.6594 -0.2510  0.5959
  976MOL0     C28726   5.488  -0.690   6.283  0.0328 -0.3623 -0.3251
  976MOL0     C28727   5.349  -0.684   6.308  0.4854  0.4002  0.3688
  976MOL0     C28728   5.283  -0.582   6.375  0.0691 -0.9167 -0.0669
  976MOL0     C28729   5.138  -0.584   6.377 -0.0604 -0.0092 -0.3211
  976MOL0     O28730   5.072  -0.601   6.258  0.2532 -0.1132 -0.4953
  976MOL0     C28731   4.930  -0.603   6.237 -0.7328 -0.4352  0.0254
  976MOL0     C28732   4.825  -0.592   6.334  0.8875 -0.0624  0.5833
  976MOL0     C28733   4.692  -0.580   6.291 -0.3759  0.4231  0.9140
  976MOL0     C28734   4.657  -0.602   6.155  0.4686  0.0575 -0.2310
  976MOL0     O28735   4.522  -0.613   6.120  0.2963  0.0180  0.4275
  976MOL0     C28736   4.497  -0.727   6.044  1.4669 -1.0967  0.0138
  976MOL0     C28737   4.342  -0.749   6.038  0.1798 -0.4478 -0.5165
  976MOL0     C28738   4.264  -0.626   5.985  0.0553 -0.6362  0.3523
  976MOL0     C28739   4.121  -0.663   5.962 -0.2842 -0.0747  0.4372
  976MOL0     C28740   4.030  -0.545   5.958 -0.0279  0.2763 -0.0111
  976MOL0     C28741   3.889  -0.579   5.902  0.3806 -0.5348  0.4471
  976MOL0     C28742   3.788  -0.465   5.893 -0.1203 -0.6011 -0.2389
  976MOL0     C28743   3.830  -0.352   5.794  0.4440  0.6196 -0.4652
  976MOL0    Cl28744   3.701  -0.243   5.810 -0.0888 -0.1224 -0.0227
  976MOL0     C28745   4.756  -0.611   6.061 -0.4751  0.5094 -1.0503
  976MOL0     C28746   4.896  -0.604   6.103  0.4042 -0.1367 -0.8102
  976MOL0     O28747   5.081  -0.550   6.482  0.3187  0.1990  0.2223
  976MOL0     C28748   5.364  -0.489   6.436 -0.2494  0.2099  0.7579
  976MOL0     C28749   5.505  -0.502   6.424  0.8264 -0.6049 -0.2090
  976MOL0     N28750   5.863  -0.042   6.723 -0.0168  0.6596  0.0816
  976MOL0     N28751   5.953   0.033   6.787  0.7030 -0.7496  0.0081
  976MOL0     C28752   7.226   0.233   6.684 -0.9200 -0.6845  0.9453
  976MOL0     C28753   7.350   0.207   6.622 -0.7479  0.3577 -0.1702
  976MOL0     C28754   7.701   0.225   6.338  0.9115 -0.2093  0.2824
  976MOL0     C28755   7.765   0.289   6.230 -0.7349  0.6701  0.0229
  976MOL0     C28756   7.882   0.233   6.165  1.1172 -0.5606 -0.3960
  976MOL0     C28757   7.942   0.123   6.217  0.0212 -0.2295 -0.4528
  976MOL0     O28758   8.046   0.056   6.157 -0.2088 -0.6888  0.0690
  976MOL0     C28759   8.147   0.137   6.088  0.6005 -0.2409  0.4259
  976MOL0     C28760   8.212   0.236   6.188  0.8652  0.2550  0.5675
  976MOL0     C28761   8.316   0.169   6.274  0.6567  0.2532  0.4280
  976MOL0     C28762   8.371   0.259   6.367  0.5719  0.4224 -0.1392
  976MOL0     C28763   8.505   0.223   6.414 -0.0831 -1.5618 -0.2550
  976MOL0     C28764   8.621   0.209   6.444  0.5540  0.4102  0.1996
  976MOL0     C28765   7.882   0.053   6.328 -0.8377  0.5064 -0.0448
  976MOL0     C28766   7.766   0.113   6.390  0.1648 -0.1203  0.2041
  976MOL0     H28767   7.508   0.502   6.628 -0.8177  1.4328 -3.3913
  976MOL0     H28768   7.280   0.560   6.741 -0.9523 -1.0607  2.4368
  976MOL0     H28769   6.987   0.226   6.850 -1.6227 -0.3003 -0.6070
  976MOL0     H28770   6.975   0.268   6.681  3.2649  0.3710 -0.8399
  976MOL0     H28771   6.827   0.446   6.732  0.8633  1.8705  1.5273
  976MOL0     H28772   6.867   0.438   6.905  3.1859 -2.1156  1.7468
  976MOL0     H28773   6.773   0.237   6.941 -0.1253 -0.3547 -0.3439
  976MOL0     H28774   6.725   0.202   6.767 -2.2046  1.3215 -1.2353
  976MOL0     H28775   6.594   0.400   6.959 -2.4329 -0.7407  0.1743
  976MOL0     H28776   6.560   0.410   6.794 -0.3444  2.3188  2.0987
  976MOL0     H28777   6.518   0.137   6.939 -0.2272 -0.1351 -0.3818
  976MOL0     H28778   6.489   0.188   6.771  1.1692  0.3734  0.0183
  976MOL0     H28779   6.314   0.346   6.853  0.4847  1.5382  1.5331
  976MOL0     H28780   6.326   0.300   7.006 -2.5639  2.7397 -0.5696
  976MOL0     H28781   6.284   0.040   6.901 -0.1627 -0.2402 -2.2144
  976MOL0     H28782   6.158   0.154   6.949 -1.1186  2.2779 -1.9054
  976MOL0     H28783   6.259   0.101   6.665  1.3892 -0.8715  1.4712
  976MOL0     H28784   6.164   0.241   6.699  1.8926  1.0328  0.4308
  976MOL0     H28785   6.120  -0.020   6.513  1.4648 -2.4467  0.4430
  976MOL0     H28786   5.943  -0.158   6.408  2.8260  0.1025  1.3941
  976MOL0     H28787   5.785  -0.132   6.470 -0.2056  0.8296  1.8822
  976MOL0     H28788   5.802  -0.338   6.621  1.9214 -1.6223  0.4126
  976MOL0     H28789   5.952  -0.379   6.568 -2.8314 -5.1005 -1.9904
  976MOL0     H28790   5.732  -0.349   6.368 -1.1772 -1.3027  0.9931
  976MOL0     H28791   5.885  -0.391   6.317  0.9790 -0.2182 -0.2915
  976MOL0     H28792   5.744  -0.565   6.527  1.9752 -0.1558  2.1920
  976MOL0     H28793   5.882  -0.601   6.454  0.6435  1.5674 -1.0568
  976MOL0     H28794   5.526  -0.778   6.232  0.6953 -0.4967  0.3843
  976MOL0     H28795   5.287  -0.757   6.259  1.5052 -0.8385  0.8666
  976MOL0     H28796   4.840  -0.574   6.440 -0.4256  0.5012  0.6931
  976MOL0     H28797   4.608  -0.579   6.359 -1.6699 -3.6522 -0.2832
  976MOL0     H28798   4.549  -0.813   6.086  0.6291 -1.2952  0.6688
  976MOL0     H28799   4.534  -0.712   5.942  2.1451  0.7667  0.4820
  976MOL0     H28800   4.303  -0.762   6.139  0.2008 -1.5131 -0.6444
  976MOL0     H28801   4.322  -0.843   5.987 -0.1823 -2.0685  2.3708
  976MOL0     H28802   4.315  -0.587   5.897  0.9067  1.1128  1.5446
  976MOL0     H28803   4.267  -0.540   6.053 -0.0119 -0.7595  0.5119
  976MOL0     H28804   4.112  -0.712   5.864 -2.6226  0.8835  0.1218
  976MOL0     H28805   4.088  -0.737   6.035 -2.5322  0.0673 -0.3712
  976MOL0     H28806   4.071  -0.465   5.895  0.5044 -0.4179 -0.5674
  976MOL0     H28807   4.015  -0.502   6.058 -1.7823  0.0243 -0.1365
  976MOL0     H28808   3.849  -0.663   5.960 -0.5666 -1.3440 -1.3109
  976MOL0     H28809   3.908  -0.617   5.801  1.2533  2.6885 -0.7273
  976MOL0     H28810   3.694  -0.514   5.869  0.1808 -1.7620  0.8012
  976MOL0     H28811   3.788  -0.427   5.996 -0.6937 -1.3915  0.0674
  976MOL0     H28812   3.838  -0.378   5.688  0.3422 -2.7705  0.2513
  976MOL0     H28813   3.925  -0.311   5.830  0.7040 -3.0158  3.7630
  976MOL0     H28814   4.736  -0.615   5.955  0.1330  1.2477 -1.2006
  976MOL0     H28815   4.973  -0.596   6.028 -1.2332  0.8745 -2.4814
  976MOL0     H28816   5.328  -0.401   6.489 -1.2770 -0.5930  1.4321
  976MOL0     H28817   5.560  -0.428   6.480 -1.2692 -0.7255  2.2132
  976MOL0     H28818   7.159   0.149   6.690  0.4877 -2.1883 -2.1111
  976MOL0     H28819   7.370   0.106   6.588  1.7582  0.8073 -0.2272
  976MOL0     H28820   7.721   0.381   6.195 -1.4881 -0.7019 -2.9643
  976MOL0     H28821   7.921   0.270   6.071  0.1987  0.7265 -0.2910
  976MOL0     H28822   8.104   0.195   6.006  0.0532  1.4608  1.8597
  976MOL0     H28823   8.226   0.077   6.041  0.1353 -2.1993  1.9850
  976MOL0     H28824   8.264   0.307   6.122  0.4807 -0.7320 -0.8532
  976MOL0     H28825   8.142   0.291   6.251  1.1285  0.7499  0.4385
  976MOL0     H28826   8.393   0.143   6.201  0.1953  2.2807 -0.8738
  976MOL0     H28827   8.266   0.084   6.322  0.1565  0.1066 -0.3288
  976MOL0     H28828   8.374   0.359   6.323 -0.3310  0.8166  0.6537
  976MOL0     H28829   8.303   0.256   6.452  0.1613 -2.2245 -0.4752
  976MOL0     H28830   8.723   0.179   6.460  0.4912 -0.2919 -0.6578
  976MOL0     H28831   7.920  -0.041   6.366 -2.1102 -0.0034  0.0296
  976MOL0     H28832   7.721   0.061   6.474 -0.8172  0.3367 -0.0273
  977MOL0     O28833   8.590   8.733   1.216 -0.0734 -0.2302  0.2457
  977MOL0     C28834   8.629   8.662   1.123 -0.2823  0.4174 -0.8449
  977MOL0     O28835   8.555   8.570   1.069 -0.5794 -0.0589 -0.3309
  977MOL0     C28836   8.446   8.535   1.141 -0.1887 -0.1227 -0.4112
  977MOL0     C28837   8.320   8.568   1.088  0.0286 -0.7029  0.7470
  977MOL0     C28838   8.212   8.524   1.158 -0.2664  0.3617 -0.6999
  977MOL0     C28839   8.217   8.449   1.274 -0.3617 -0.2043  0.1532
  977MOL0     O28840   8.099   8.422   1.340 -0.5332 -0.8506 -0.4841
  977MOL0     C28841   8.104   8.368   1.477 -0.4808 -0.3807 -0.9833
  977MOL0     C28842   7.958   8.346   1.523 -1.3835 -0.4742 -0.3330
  977MOL0     C28843   7.905   8.230   1.444 -0.0197  0.2631  0.0357
  977MOL0     C28844   7.774   8.209   1.497 -0.0579 -0.6495 -0.2433
  977MOL0     C28845   7.666   8.313   1.454 -0.8835 -0.5278 -0.1645
  977MOL0     C28846   7.653   8.349   1.304  0.2665  1.2891 -0.0314
  977MOL0     C28847   7.529   8.441   1.280 -0.0053  0.0182  0.4072
  977MOL0     C28848   7.498   8.476   1.132 -0.1076 -0.0387 -0.3790
  977MOL0     N28849   7.376   8.550   1.140  0.7235 -0.1918  0.1134
  977MOL0     C28850   7.246   8.515   1.116 -0.3752  0.2256 -0.4354
  977MOL0     C28851   7.168   8.627   1.147  0.2932  0.5758  0.1084
  977MOL0     C28852   7.021   8.642   1.141  0.3091 -0.4977 -0.2817
  977MOL0     C28853   6.939   8.536   1.217 -0.5630 -0.0589  0.4453
  977MOL0     C28854   6.968   8.519   1.364 -0.5478 -0.1848  0.4144
  977MOL0     C28855   6.862   8.438   1.437 -0.5295 -0.0706 -0.2589
  977MOL0     O28856   6.920   8.401   1.564  0.3767  0.5012  0.5090
  977MOL0     C28857   6.852   8.454   1.668  0.0326 -0.7875 -0.7294
  977MOL0     C28858   6.758   8.377   1.740 -0.6712  0.3948  0.2437
  977MOL0     C28859   6.693   8.424   1.854 -0.5010 -0.5830  0.9865
  977MOL0     C28860   6.731   8.553   1.901  0.0456  0.2322 -0.3498
  977MOL0     C28861   6.662   8.606   2.014  0.7568  0.7240 -0.2426
  977MOL0     O28862   6.530   8.596   2.003  0.5356  0.0310 -0.3106
  977MOL0     C28863   6.445   8.646   2.105  0.2653  0.5404  0.0989
  977MOL0     C28864   6.321   8.579   2.127 -0.3457  0.3417 -0.2750
  977MOL0     C28865   6.237   8.624   2.224 -0.5483  0.8222 -0.7447
  977MOL0     C28866   6.255   8.742   2.295 -0.7566 -0.0808 -0.5208
  977MOL0     O28867   6.183   8.795   2.395  0.0753  0.3674  1.0368
  977MOL0     C28868   6.083   8.718   2.459  0.7667  0.2541  0.3253
  977MOL0     C28869   6.050   8.781   2.589 -0.9202 -0.6314  0.3483
  977MOL0     C28870   6.154   8.752   2.700  0.2334 -0.1027 -0.8524
  977MOL0     C28871   6.102   8.802   2.831 -1.0165 -0.4113  0.0901
  977MOL0     C28872   6.216   8.807   2.929 -0.1538  0.4752  0.8439
  977MOL0     C28873   6.149   8.792   3.066  0.1890 -0.3198  0.8693
  977MOL0     C28874   6.248   8.797   3.182  0.4394  0.3226  0.2745
  977MOL0     C28875   6.181   8.801   3.320 -0.5220  0.2542 -0.0970
  977MOL0    Cl28876   6.117   8.635   3.356 -0.0432  0.0078 -0.2911
  977MOL0     C28877   6.369   8.815   2.272 -0.4240  0.1087  0.7809
  977MOL0     C28878   6.469   8.763   2.181 -0.3288 -0.4596  0.4508
  977MOL0     O28879   6.719   8.638   2.123 -0.0702 -0.3259  0.2299
  977MOL0     C28880   6.823   8.631   1.830  0.0458  0.1718  0.3039
  977MOL0     C28881   6.886   8.583   1.710 -0.2618  0.2947  0.3121
  977MOL0     N28882   7.254   8.719   1.192 -0.2499 -0.1047 -0.2594
  977MOL0     N28883   7.372   8.677   1.184 -0.1656 -0.6947  0.2826
  977MOL0     C28884   8.348   8.406   1.319  0.3574 -0.3860  0.4159
  977MOL0     C28885   8.465   8.450   1.256  0.1649 -0.3983 -0.2448
  977MOL0     C28886   8.757   8.695   1.059  0.9421 -0.0710 -0.4290
  977MOL0     C28887   8.849   8.775   1.129  0.1529  0.1032 -0.6629
  977MOL0     C28888   8.975   8.788   1.075  0.0706 -0.5308 -0.0431
  977MOL0     C28889   9.002   8.742   0.943  0.1024 -0.7516 -0.3682
  977MOL0     O28890   9.129   8.774   0.902  0.3255 -0.3408 -0.3330
  977MOL0     C28891   9.197   8.680   0.818  0.1311 -0.6365  0.0082
  977MOL0     C28892   9.350   8.692   0.851  0.0863  0.6725  0.2576
  977MOL0     C28893   9.409   8.833   0.849  0.1186  0.6883 -0.1600
  977MOL0     C28894   9.546   8.839   0.901 -0.5988 -0.1807 -0.2534
  977MOL0     C28895   9.600   8.971   0.870  0.6168 -0.1921 -0.8531
  977MOL0     C28896   9.660   9.067   0.837 -0.1410 -0.3266 -0.4847
  977MOL0     C28897   8.909   8.666   0.869  0.0036  0.1833 -0.4281
  977MOL0     C28898   8.793   8.642   0.932  0.1770 -0.7154 -0.1936
  977MOL0     H28899   8.314   8.622   0.994 -0.3142 -1.4740  0.3134
  977MOL0     H28900   8.114   8.562   1.129  0.1411  2.4182  0.4181
  977MOL0     H28901   8.154   8.433   1.549  2.2411 -3.3855  0.0953
  977MOL0     H28902   8.158   8.273   1.483  0.0313 -0.0152  0.4890
  977MOL0     H28903   7.901   8.436   1.501  0.8923  0.5822 -2.3373
  977MOL0     H28904   7.977   8.327   1.629 -1.6136  0.7198 -0.0631
  977MOL0     H28905   7.970   8.143   1.456 -0.0910 -1.0722 -6.0260
  977MOL0     H28906   7.898   8.247   1.336 -0.2235 -0.4396 -0.0617
  977MOL0     H28907   7.749   8.106   1.471 -1.7392  0.5794 -4.1683
  977MOL0     H28908   7.775   8.214   1.607  1.8621  1.7387 -0.2901
  977MOL0     H28909   7.671   8.409   1.506 -2.4258 -0.2539 -0.4872
  977MOL0     H28910   7.576   8.264   1.493 -0.9655  0.5896  1.1339
  977MOL0     H28911   7.627   8.258   1.250 -0.2046  1.5012 -0.1695
  977MOL0     H28912   7.738   8.404   1.262  1.6762  0.8044  2.0475
  977MOL0     H28913   7.446   8.395   1.335 -0.9044 -0.7892 -1.5529
  977MOL0     H28914   7.546   8.536   1.331 -0.3921 -0.4881  1.5023
  977MOL0     H28915   7.486   8.384   1.075  1.9424 -0.9763  0.6004
  977MOL0     H28916   7.574   8.544   1.091  2.6928 -2.0938  1.0470
  977MOL0     H28917   7.199   8.428   1.071  0.7104 -2.3066  2.9104
  977MOL0     H28918   6.981   8.652   1.040  0.8875 -0.2965 -0.4939
  977MOL0     H28919   7.003   8.738   1.191  2.2959 -0.4380  0.4426
  977MOL0     H28920   6.959   8.446   1.158 -2.9467  0.6795 -1.7141
  977MOL0     H28921   6.834   8.566   1.210  0.0371  1.8615 -1.5788
  977MOL0     H28922   7.064   8.466   1.362 -1.0362 -1.1656 -2.6304
  977MOL0     H28923   6.979   8.619   1.406 -0.5534  1.2196 -2.7177
  977MOL0     H28924   6.843   8.347   1.379 -0.0631  0.4538 -1.2534
  977MOL0     H28925   6.775   8.500   1.459  1.0636  1.5847  1.8538
  977MOL0     H28926   6.736   8.276   1.706 -0.0099  0.8904 -1.8478
  977MOL0     H28927   6.622   8.355   1.899 -1.0927 -1.4806 -1.1954
  977MOL0     H28928   6.301   8.484   2.078 -2.3356  1.2211 -1.2970
  977MOL0     H28929   6.141   8.577   2.243 -1.1763  2.4997  0.5825
  977MOL0     H28930   6.127   8.619   2.473 -1.4225 -0.5300  2.2940
  977MOL0     H28931   5.997   8.691   2.398  0.3249  1.5336  0.3623
  977MOL0     H28932   5.952   8.738   2.610 -0.8464 -1.7899 -1.5015
  977MOL0     H28933   6.046   8.891   2.585 -0.5881 -0.6477 -0.6612
  977MOL0     H28934   6.252   8.795   2.675  0.6385 -1.5940 -1.9836
  977MOL0     H28935   6.163   8.645   2.716 -1.7445 -0.6355 -2.7982
  977MOL0     H28936   6.054   8.897   2.808 -0.5860 -0.6306 -1.8540
  977MOL0     H28937   6.014   8.742   2.854 -1.4648 -0.6730 -2.1422
  977MOL0     H28938   6.277   8.898   2.922  0.9502  0.0623  3.8100
  977MOL0     H28939   6.279   8.722   2.900 -2.8803 -2.1375  2.0791
  977MOL0     H28940   6.081   8.706   3.069  0.7219 -0.7125  2.4839
  977MOL0     H28941   6.078   8.874   3.081  0.8161  0.4297 -0.1406
  977MOL0     H28942   6.297   8.700   3.172 -1.0034 -0.2388 -1.9910
  977MOL0     H28943   6.310   8.887   3.173 -2.1054  2.1016 -0.5322
  977MOL0     H28944   6.097   8.869   3.302 -0.9498 -0.9300 -3.2006
  977MOL0     H28945   6.245   8.840   3.399 -0.5048 -0.4913  0.2663
  977MOL0     H28946   6.394   8.904   2.329 -0.3408  0.7907 -0.2932
  977MOL0     H28947   6.569   8.803   2.173  0.9015 -3.4213 -0.2665
  977MOL0     H28948   6.855   8.730   1.863 -3.1468  0.9576  1.4106
  977MOL0     H28949   6.970   8.637   1.668 -0.4037  0.1270 -0.1958
  977MOL0     H28950   8.356   8.347   1.410 -0.4274 -3.0045 -1.1047
  977MOL0     H28951   8.564   8.421   1.287  0.3429 -0.5379 -0.9313
  977MOL0     H28952   8.844   8.798   1.235 -0.8912 -0.9515 -0.4636
  977MOL0     H28953   9.047   8.840   1.138 -0.2277 -1.2079  0.8694
  977MOL0     H28954   9.179   8.708   0.714 -2.6012  2.3448  1.1411
  977MOL0     H28955   9.160   8.580   0.844 -1.6147  0.7181  3.2874
  977MOL0     H28956   9.364   8.656   0.954  1.9736  0.7943  0.0766
  977MOL0     H28957   9.418   8.629   0.794 -0.6223 -0.7841  0.9425
  977MOL0     H28958   9.354   8.909   0.906 -1.0739 -0.3591  0.1434
  977MOL0     H28959   9.414   8.872   0.748  0.7111  2.0021  0.3524
  977MOL0     H28960   9.555   8.823   1.009 -1.4320  0.1996 -0.1198
  977MOL0     H28961   9.618   8.775   0.849 -0.2868  1.7863 -2.3957
  977MOL0     H28962   9.717   9.155   0.812 -1.4803  1.4030  2.0613
  977MOL0     H28963   8.927   8.617   0.774  0.2420 -0.0713 -0.2502
  977MOL0     H28964   8.720   8.583   0.877 -1.1195  2.5803 -2.3105
  978MOL0     O28965   2.996  10.381  10.872 -0.0598  0.5061 -0.9277
  978MOL0     C28966   3.039  10.261  10.876  0.4996 -0.9017  0.3067
  978MOL0     O28967   2.966  10.149  10.852 -0.4724  0.6206  0.6700
  978MOL0     C28968   2.829  10.157  10.868  0.3661 -0.1035  0.1595
  978MOL0     C28969   2.778  10.228  10.978 -0.0585 -0.2568  0.8156
  978MOL0     C28970   2.641  10.240  10.992  0.8010  0.1838  0.0900
  978MOL0     C28971   2.547  10.184  10.905 -0.4049  0.0097 -0.0594
  978MOL0     O28972   2.408  10.201  10.936  0.0486  0.4546  0.1502
  978MOL0     C28973   2.309  10.179  10.838 -0.0127  0.9598 -0.3481
  978MOL0     C28974   2.186  10.131  10.920  0.1394 -0.2162  0.0002
  978MOL0     C28975   2.080  10.062  10.826  0.3395  0.4771  0.0225
  978MOL0     C28976   1.985   9.981  10.906 -1.0184  0.1289 -0.4409
  978MOL0     C28977   2.042   9.835  10.932  0.6373 -0.0995 -0.6078
  978MOL0     C28978   1.918   9.742  10.950  0.1994 -0.0970 -0.2570
  978MOL0     C28979   1.885   9.702  11.090 -0.5293 -0.1055 -0.7507
  978MOL0     C28980   1.819   9.562  11.104  0.2003 -0.7969  0.5943
  978MOL0     N28981   1.707   9.528  11.004  0.4305 -0.4295  0.0934
  978MOL0     C28982   1.593   9.603  10.980 -0.2374  0.0938  0.2695
  978MOL0     C28983   1.529   9.535  10.886 -0.4130 -1.0945 -0.9919
  978MOL0     C28984   1.402   9.576  10.835  0.4068 -0.8116 -0.4797
  978MOL0     C28985   1.283   9.491  10.886 -0.3369  0.2079 -0.0880
  978MOL0     C28986   1.315   9.368  10.975 -0.0126  0.1053  1.0517
  978MOL0     C28987   1.197   9.275  11.001 -0.5676 -0.2564 -0.0451
  978MOL0     O28988   1.131   9.329  11.123 -0.3124 -0.0832  0.2453
  978MOL0     C28989   1.005   9.282  11.157 -0.2265 -0.6352  0.3885
  978MOL0     C28990   0.984   9.150  11.187  0.0306 -0.2070  0.4675
  978MOL0     C28991   0.855   9.096  11.195  0.2227 -0.1422 -0.1813
  978MOL0     C28992   0.747   9.184  11.190  0.5304 -0.4190 -0.6565
  978MOL0     C28993   0.608   9.130  11.197 -1.4172  0.1701  0.1197
  978MOL0     O28994   0.598   8.996  11.230 -0.1148  0.4822  0.4927
  978MOL0     C28995   0.478   8.935  11.243  0.2897 -0.2235 -0.1407
  978MOL0     C28996   0.449   8.821  11.167 -0.1558 -0.2426  1.2075
  978MOL0     C28997   0.324   8.769  11.175  0.0819  0.8066  1.0982
  978MOL0     C28998   0.225   8.809  11.266  0.3293  0.2614 -0.6647
  978MOL0     O28999   0.115   8.731  11.287 -0.1120 -0.7754  0.5195
  978MOL0     C29000  -0.010   8.789  11.235 -0.1665 -0.1757  0.3335
  978MOL0     C29001  -0.126   8.723  11.311 -0.7685 -0.1303  0.3471
  978MOL0     C29002  -0.258   8.765  11.250 -1.3122  0.0006  0.2751
  978MOL0     C29003  -0.379   8.735  11.337 -0.1556 -0.7787 -0.5338
  978MOL0     C29004  -0.502   8.787  11.272  0.1458 -0.0419  0.0452
  978MOL0     C29005  -0.629   8.710  11.323  0.1426 -0.6295  0.6297
  978MOL0     C29006  -0.762   8.777  11.266 -0.0721 -0.2060  0.1864
  978MOL0     C29007  -0.881   8.709  11.319  0.2331 -0.9713  0.2684
  978MOL0    Cl29008  -1.045   8.756  11.250  0.1146 -0.1065 -0.0749
  978MOL0     C29009   0.254   8.922  11.336 -0.3488 -0.7059 -0.8897
  978MOL0     C29010   0.379   8.982  11.332 -0.0908 -0.3728 -0.0586
  978MOL0     O29011   0.515   9.207  11.182  0.0901 -0.5249  0.1517
  978MOL0     C29012   0.767   9.321  11.164  0.3818  0.9691 -0.4879
  978MOL0     C29013   0.896   9.372  11.151 -0.4208  0.2030 -0.6017
  978MOL0     N29014   1.594   9.419  10.861  0.3698  0.0656 -0.3061
  978MOL0     N29015   1.699   9.412  10.930 -0.7163 -0.0282  0.1942
  978MOL0     C29016   2.605  10.099  10.809  0.3907  0.8523  0.2021
  978MOL0     C29017   2.741  10.086  10.795  0.4263  0.3087  0.0099
  978MOL0     C29018   3.188  10.241  10.880 -0.1630 -0.0058 -0.1756
  978MOL0     C29019   3.283  10.345  10.892  1.4212 -1.1611  0.7273
  978MOL0     C29020   3.419  10.307  10.910  0.4630  0.3325 -0.9930
  978MOL0     C29021   3.467  10.176  10.894  0.2146 -0.6379  0.7491
  978MOL0     O29022   3.600  10.143  10.913 -0.3110 -0.7273  0.6529
  978MOL0     C29023   3.698  10.242  10.906 -1.2911 -0.6116 -0.7057
  978MOL0     C29024   3.834  10.176  10.860 -0.0702 -0.4009 -0.7674
  978MOL0     C29025   3.864  10.060  10.951  0.1149  0.3711 -0.5659
  978MOL0     C29026   3.789   9.923  10.938 -0.1704 -0.1762 -0.3154
  978MOL0     C29027   3.879   9.814  10.977  0.5318  0.4705  0.4977
  978MOL0     C29028   3.954   9.719  11.014 -0.1311 -0.8742 -0.3201
  978MOL0     C29029   3.374  10.079  10.884 -0.1080  0.6181 -0.0182
  978MOL0     C29030   3.237  10.110  10.873 -0.8795 -0.4696 -0.3902
  978MOL0     H29031   2.842  10.285  11.044 -1.2085 -0.7466  2.4194
  978MOL0     H29032   2.593  10.300  11.069  0.4685 -1.0375  0.8754
  978MOL0     H29033   2.335  10.108  10.759 -0.6026  3.1200 -2.5931
  978MOL0     H29034   2.288  10.273  10.786 -0.4404  0.7667 -0.5327
  978MOL0     H29035   2.132  10.218  10.959 -2.3990 -0.0924 -3.3331
  978MOL0     H29036   2.211  10.062  11.001 -2.8138  0.4407  1.6325
  978MOL0     H29037   2.124  10.001  10.747 -0.3231  1.1685 -0.9064
  978MOL0     H29038   2.029  10.143  10.772 -2.2731 -1.6975 -1.0266
  978MOL0     H29039   1.968  10.035  11.000 -0.9657  1.0747 -0.9665
  978MOL0     H29040   1.899   9.964  10.841  0.1265 -1.3429 -1.6259
  978MOL0     H29041   2.105   9.824  11.020  1.2135 -4.1224 -1.3284
  978MOL0     H29042   2.105   9.794  10.852  0.2713 -4.5409  1.1232
  978MOL0     H29043   1.944   9.653  10.892 -0.3846 -1.6988  1.8542
  978MOL0     H29044   1.831   9.792  10.905  0.6153  0.2454 -0.7011
  978MOL0     H29045   1.973   9.710  11.154 -0.8949 -2.0730  0.0765
  978MOL0     H29046   1.811   9.766  11.138 -1.7921 -3.1160  1.6746
  978MOL0     H29047   1.787   9.538  11.206  1.7699  0.6438  1.4729
  978MOL0     H29048   1.899   9.489  11.090  0.2385 -0.7646  0.6426
  978MOL0     H29049   1.561   9.697  11.025  2.6332  0.0671  2.7094
  978MOL0     H29050   1.417   9.546  10.731  2.6776 -2.6168  0.2702
  978MOL0     H29051   1.379   9.683  10.842  0.9201 -0.7502  0.5689
  978MOL0     H29052   1.223   9.459  10.800 -0.8459 -0.2362  0.4275
  978MOL0     H29053   1.223   9.555  10.951  0.4050 -0.2184  1.0562
  978MOL0     H29054   1.383   9.297  10.926  2.0430  1.1799  2.2269
  978MOL0     H29055   1.366   9.392  11.069 -0.7914  1.9175  1.0477
  978MOL0     H29056   1.230   9.173  11.021  3.4000  0.6416 -1.0409
  978MOL0     H29057   1.133   9.278  10.912 -0.6209 -0.3228 -0.0086
  978MOL0     H29058   1.065   9.079  11.194  2.6422  2.6345  0.8711
  978MOL0     H29059   0.854   8.988  11.204  1.9056 -0.1746 -0.0659
  978MOL0     H29060   0.522   8.793  11.092 -2.5851  0.6089 -1.6958
  978MOL0     H29061   0.301   8.688  11.106  4.1493 -0.9535  1.5292
  978MOL0     H29062  -0.009   8.758  11.130 -0.0371  0.5183  0.1198
  978MOL0     H29063  -0.017   8.898  11.242  0.8315 -0.0086 -0.9734
  978MOL0     H29064  -0.121   8.759  11.414  0.4112 -1.9204  0.9571
  978MOL0     H29065  -0.109   8.615  11.319  4.2193  0.4983  1.0075
  978MOL0     H29066  -0.267   8.724  11.149 -1.3450  2.7963 -0.9413
  978MOL0     H29067  -0.242   8.872  11.235 -0.5017  0.2723  2.6570
  978MOL0     H29068  -0.378   8.626  11.347  2.9464 -0.6037  3.7644
  978MOL0     H29069  -0.362   8.770  11.439  2.1041  0.1837 -1.1608
  978MOL0     H29070  -0.495   8.779  11.163  0.0874 -0.9694  0.1000
  978MOL0     H29071  -0.511   8.892  11.301 -0.4619  0.2600 -1.1723
  978MOL0     H29072  -0.631   8.714  11.433  1.9500  2.0028  0.6794
  978MOL0     H29073  -0.613   8.607  11.290  3.3192  0.3035 -1.1694
  978MOL0     H29074  -0.774   8.880  11.301  0.1878 -0.7802  2.1056
  978MOL0     H29075  -0.760   8.778  11.156  1.1974 -1.4974  0.1661
  978MOL0     H29076  -0.884   8.742  11.423  2.2788 -0.2622  0.1478
  978MOL0     H29077  -0.873   8.600  11.312  0.8625 -1.1934  3.2161
  978MOL0     H29078   0.187   8.970  11.407  2.5844 -0.6511  2.0706
  978MOL0     H29079   0.400   9.078  11.378  2.0724 -1.4563  1.4006
  978MOL0     H29080   0.684   9.391  11.158  0.1022  0.4959 -3.5119
  978MOL0     H29081   0.915   9.478  11.135 -1.3371  0.2973 -1.1593
  978MOL0     H29082   2.549  10.037  10.740  0.2760 -1.4455  2.2513
  978MOL0     H29083   2.780  10.011  10.727 -0.7256 -0.0841 -0.2550
  978MOL0     H29084   3.243  10.445  10.903  1.2144 -1.4405  2.9201
  978MOL0     H29085   3.489  10.387  10.935 -0.2867  0.3589  1.1963
  978MOL0     H29086   3.712  10.275  11.010 -3.5038 -1.7848  0.0060
  978MOL0     H29087   3.673  10.327  10.842 -3.1470 -0.0413  0.6998
  978MOL0     H29088   3.828  10.149  10.754  0.3793 -2.2624 -0.3636
  978MOL0     H29089   3.923  10.240  10.862 -0.5795  0.4057  3.2276
  978MOL0     H29090   3.856  10.095  11.055  1.4722  0.4663 -0.4642
  978MOL0     H29091   3.972  10.043  10.940  0.0286 -1.0808  0.5644
  978MOL0     H29092   3.700   9.918  11.002  0.1328  2.8692  0.4671
  978MOL0     H29093   3.748   9.916  10.836 -0.0827 -0.8881 -0.3083
  978MOL0     H29094   4.010   9.637  11.052 -0.1896  0.7692  3.8286
  978MOL0     H29095   3.415   9.978  10.890  0.5414  0.9242  0.9662
  978MOL0     H29096   3.162  10.032  10.863 -1.9686  0.2615  1.5095
  979MOL0     O29097   7.143   8.192   5.751 -0.0313  0.0044 -0.3056
  979MOL0     C29098   7.189   8.085   5.711  0.4890  0.7939  0.1948
  979MOL0     O29099   7.142   8.010   5.610  0.4979  0.3065 -0.2953
  979MOL0     C29100   7.027   8.042   5.540 -0.2900 -0.3297  0.5962
  979MOL0     C29101   7.030   8.015   5.403  1.3509  0.1427 -0.1561
  979MOL0     C29102   6.924   8.047   5.322 -0.5680  0.7876 -0.5830
  979MOL0     C29103   6.798   8.091   5.377  0.2953 -0.8799 -0.7471
  979MOL0     O29104   6.682   8.116   5.308 -1.0019 -0.6062  0.1199
  979MOL0     C29105   6.693   8.096   5.165 -0.2008  0.2716  0.5225
  979MOL0     C29106   6.559   8.085   5.096  0.0325 -0.2747 -0.7015
  979MOL0     C29107   6.456   8.191   5.158 -0.4000 -0.6246  0.8912
  979MOL0     C29108   6.324   8.196   5.087  0.4020 -0.6804 -0.1514
  979MOL0     C29109   6.263   8.327   5.105  0.0512 -0.5252 -0.0543
  979MOL0     C29110   6.124   8.329   5.043  0.1776 -0.5826  0.1531
  979MOL0     C29111   6.063   8.469   5.067 -0.0204 -0.0515  0.3863
  979MOL0     C29112   6.012   8.491   5.205  0.3711 -0.0786  0.1555
  979MOL0     N29113   5.878   8.428   5.234 -0.3117 -0.1537 -0.0830
  979MOL0     C29114   5.787   8.376   5.143 -0.2500  0.8242  0.2613
  979MOL0     C29115   5.706   8.297   5.216 -0.0644 -0.0141  0.6476
  979MOL0     C29116   5.591   8.224   5.155  0.8096 -0.1197 -0.2157
  979MOL0     C29117   5.490   8.201   5.264 -1.1289 -0.8717  0.0678
  979MOL0     C29118   5.366   8.128   5.203  0.1812 -0.1702  0.1460
  979MOL0     C29119   5.258   8.101   5.314  0.1241  0.8257 -0.2406
  979MOL0     O29120   5.175   7.995   5.261 -0.1679  0.4088 -0.1726
  979MOL0     C29121   5.067   7.958   5.333 -1.3594  1.1400  0.4803
  979MOL0     C29122   5.000   8.028   5.429  0.2985 -0.5093 -0.2268
  979MOL0     C29123   4.887   7.972   5.494 -0.1094  0.1823  0.3983
  979MOL0     C29124   4.850   7.836   5.469  0.8561 -0.4094  0.6034
  979MOL0     C29125   4.720   7.786   5.515  0.0458 -0.0670 -0.1161
  979MOL0     O29126   4.660   7.678   5.450 -0.2236 -0.0127 -0.2552
  979MOL0     C29127   4.536   7.631   5.492  0.3020 -0.1804  0.4516
  979MOL0     C29128   4.497   7.511   5.421 -0.1141  0.0009  0.2910
  979MOL0     C29129   4.382   7.442   5.460 -0.1755 -0.0160  0.4645
  979MOL0     C29130   4.290   7.491   5.552 -0.3414  0.0276 -1.3141
  979MOL0     O29131   4.183   7.426   5.601  0.1765  0.1781 -0.1016
  979MOL0     C29132   4.191   7.285   5.587  0.0621  0.3224 -0.5187
  979MOL0     C29133   4.112   7.213   5.697 -0.2997 -0.3329 -0.6631
  979MOL0     C29134   4.168   7.245   5.836 -0.7534  0.2305  0.0254
  979MOL0     C29135   4.320   7.216   5.859 -0.1957 -0.1191  0.4498
  979MOL0     C29136   4.359   7.065   5.861  0.1262 -0.3510  0.4193
  979MOL0     C29137   4.476   7.026   5.936 -0.1994 -0.1771  0.7204
  979MOL0     C29138   4.516   6.884   5.911  0.1531  0.1059  0.3536
  979MOL0     C29139   4.651   6.850   5.982  0.1672  0.6170  0.8226
  979MOL0    Cl29140   4.773   6.958   5.912 -0.2819 -0.3892  0.3783
  979MOL0     C29141   4.328   7.611   5.620  0.3833 -0.2344 -0.4577
  979MOL0     C29142   4.449   7.683   5.591 -0.7181  0.5059  0.0308
  979MOL0     O29143   4.691   7.826   5.628  0.1388 -0.3811 -0.4166
  979MOL0     C29144   4.922   7.769   5.379 -0.0221  0.0769 -0.0711
  979MOL0     C29145   5.030   7.828   5.302 -0.4002  0.7922 -0.0714
  979MOL0     N29146   5.736   8.318   5.350  0.0006 -0.1956  0.0168
  979MOL0     N29147   5.839   8.397   5.354  0.3146  0.4776  0.0014
  979MOL0     C29148   6.795   8.119   5.517  0.4555 -0.0445 -0.2568
  979MOL0     C29149   6.913   8.102   5.599 -0.5183  0.1951  0.7359
  979MOL0     C29150   7.302   8.029   5.797  0.7491 -0.1755  0.0617
  979MOL0     C29151   7.358   7.899   5.771  0.4838  0.0591 -1.2648
  979MOL0     C29152   7.472   7.854   5.842  0.1033 -0.5387  0.2599
  979MOL0     C29153   7.535   7.934   5.934 -0.2438 -0.7810  0.2815
  979MOL0     O29154   7.651   7.895   6.008  0.6349  0.1583 -0.3885
  979MOL0     C29155   7.775   7.881   5.927  0.3636 -0.5444 -0.5423
  979MOL0     C29156   7.903   7.863   6.012  1.0455  0.0909 -0.5890
  979MOL0     C29157   8.011   7.863   5.914  0.2311  0.4614  0.2190
  979MOL0     C29158   8.137   7.807   5.980 -0.2030  0.0262  0.2259
  979MOL0     C29159   8.179   7.673   5.931  0.4401  0.0211  0.6989
  979MOL0     C29160   8.203   7.562   5.905  0.5037 -0.1486  0.2526
  979MOL0     C29161   7.491   8.069   5.959 -1.1377 -0.1384  0.7179
  979MOL0     C29162   7.371   8.107   5.899 -0.5264  0.6315 -0.1037
  979MOL0     H29163   7.128   7.982   5.370  3.2785  2.6678  2.5349
  979MOL0     H29164   6.940   8.032   5.216  2.2507 -2.0053  0.0992
  979MOL0     H29165   6.756   8.010   5.143  2.8459  2.4556  0.1411
  979MOL0     H29166   6.738   8.183   5.117 -1.3889  0.5720 -0.0864
  979MOL0     H29167   6.523   7.983   5.112 -2.0430  0.2904 -1.4781
  979MOL0     H29168   6.584   8.103   4.991  2.7063  1.8850  0.1749
  979MOL0     H29169   6.495   8.292   5.145 -0.3606 -0.7389  0.0151
  979MOL0     H29170   6.444   8.161   5.262 -1.1268 -3.1732  0.1464
  979MOL0     H29171   6.336   8.178   4.980  1.7630  3.0069 -0.7790
  979MOL0     H29172   6.253   8.123   5.127 -0.3448 -1.7077 -3.0911
  979MOL0     H29173   6.320   8.412   5.067 -1.5938  0.2545 -0.8849
  979MOL0     H29174   6.252   8.348   5.212  1.2343 -1.1939  0.2217
  979MOL0     H29175   6.066   8.253   5.097  1.6823 -2.0908 -0.2666
  979MOL0     H29176   6.135   8.296   4.939 -0.5642 -2.1040  0.5194
  979MOL0     H29177   6.145   8.539   5.045  2.5593 -3.2537 -1.1323
  979MOL0     H29178   5.978   8.486   5.000 -1.3754  2.4405  2.5684
  979MOL0     H29179   5.988   8.595   5.230  0.3472 -0.2152  0.7264
  979MOL0     H29180   6.076   8.459   5.288 -0.0665  1.1807  1.0062
  979MOL0     H29181   5.791   8.381   5.034  2.9046  0.2553  0.2347
  979MOL0     H29182   5.635   8.128   5.125 -0.3652 -0.9357  0.5639
  979MOL0     H29183   5.543   8.271   5.069 -0.6965  0.5944  0.9741
  979MOL0     H29184   5.470   8.293   5.319 -0.5199 -0.9287  0.3953
  979MOL0     H29185   5.537   8.136   5.339 -0.1034  0.9732  1.1053
  979MOL0     H29186   5.318   8.191   5.128  1.9876  2.1765  0.8106
  979MOL0     H29187   5.398   8.041   5.146 -0.1099  0.4468 -0.9851
  979MOL0     H29188   5.205   8.192   5.345 -0.0660  1.2041 -1.6036
  979MOL0     H29189   5.307   8.064   5.405 -1.6836  0.1558  0.5170
  979MOL0     H29190   5.034   8.127   5.456 -1.2224 -0.2011  0.6934
  979MOL0     H29191   4.837   8.028   5.573  0.9616  0.3418  0.9698
  979MOL0     H29192   4.562   7.478   5.340 -2.7765  1.1431 -2.5302
  979MOL0     H29193   4.372   7.351   5.401  0.3465 -0.2610  0.7496
  979MOL0     H29194   4.295   7.253   5.596  0.3383  0.1926 -3.3602
  979MOL0     H29195   4.151   7.251   5.491  0.9412 -3.2255  0.2104
  979MOL0     H29196   4.113   7.104   5.684 -1.6130 -0.7862  2.2118
  979MOL0     H29197   4.009   7.247   5.680 -0.3363 -1.1728 -2.3485
  979MOL0     H29198   4.102   7.203   5.912 -0.0879  1.3959  1.2961
  979MOL0     H29199   4.173   7.354   5.847  3.3124  0.0052  2.4634
  979MOL0     H29200   4.389   7.262   5.788  0.4420 -1.3702  0.2366
  979MOL0     H29201   4.354   7.256   5.954  1.9071  2.3976 -1.2473
  979MOL0     H29202   4.342   7.025   5.761 -1.6438  0.5127  0.3350
  979MOL0     H29203   4.279   7.009   5.913  0.3353 -1.9404 -0.8816
  979MOL0     H29204   4.489   7.064   6.037 -0.6538 -1.5801  1.3354
  979MOL0     H29205   4.559   7.084   5.895  1.3877 -2.9389 -0.2638
  979MOL0     H29206   4.443   6.811   5.947 -0.1839  0.0546 -0.4155
  979MOL0     H29207   4.518   6.880   5.801 -0.3403 -3.7261  0.3821
  979MOL0     H29208   4.669   6.748   5.947 -2.6981 -0.0425  1.0809
  979MOL0     H29209   4.648   6.851   6.091  3.9014  3.4177  1.1061
  979MOL0     H29210   4.260   7.629   5.703  2.5892 -0.1407  1.4464
  979MOL0     H29211   4.466   7.774   5.648  0.6301  0.2006  0.1402
  979MOL0     H29212   4.885   7.668   5.364  0.0140 -0.0862  0.8657
  979MOL0     H29213   5.088   7.787   5.221  3.1741 -0.1885  2.7177
  979MOL0     H29214   6.701   8.158   5.555  0.3504  0.6077 -1.1539
  979MOL0     H29215   6.908   8.133   5.703  1.1553 -0.3029  0.9974
  979MOL0     H29216   7.318   7.835   5.694 -0.9394 -1.1550  0.4008
  979MOL0     H29217   7.512   7.757   5.816 -1.2374 -0.9162 -0.5161
  979MOL0     H29218   7.787   7.966   5.859  1.5637 -0.6818 -0.5222
  979MOL0     H29219   7.774   7.789   5.867 -1.8352 -1.9981  1.5516
  979MOL0     H29220   7.922   7.949   6.076  0.6608 -1.3486  1.5462
  979MOL0     H29221   7.900   7.774   6.075  1.4885  0.9183  0.6189
  979MOL0     H29222   8.038   7.967   5.894  3.6688 -0.6592 -1.7938
  979MOL0     H29223   7.989   7.808   5.822  3.9699 -1.2998  0.1935
  979MOL0     H29224   8.217   7.881   5.970 -0.4031  0.1751 -0.3564
  979MOL0     H29225   8.115   7.796   6.086 -0.6460  0.4385  0.1792
  979MOL0     H29226   8.233   7.460   5.885  0.4408  0.3537 -3.0049
  979MOL0     H29227   7.555   8.135   6.017  0.9058 -0.7629 -0.7226
  979MOL0     H29228   7.344   8.211   5.905 -1.1073  0.3974  1.9965
  980MOL0     O29229   5.966   6.756   3.543 -0.5930  0.3082  0.7746
  980MOL0     C29230   6.022   6.732   3.433 -0.6644 -0.0436  0.0940
  980MOL0     O29231   5.957   6.686   3.319 -0.1022 -0.5698  0.0159
  980MOL0     C29232   5.821   6.671   3.325 -0.9324  0.3137  0.2773
  980MOL0     C29233   5.747   6.740   3.228 -0.2319  0.0012  0.6263
  980MOL0     C29234   5.612   6.742   3.243  0.0843 -0.6639 -0.2776
  980MOL0     C29235   5.547   6.689   3.349 -0.3910 -0.6079  0.3239
  980MOL0     O29236   5.413   6.701   3.386 -0.2095  0.3204  0.3442
  980MOL0     C29237   5.332   6.799   3.318  0.2863 -0.2270  0.2361
  980MOL0     C29238   5.183   6.755   3.336 -0.5386 -0.5082  0.0077
  980MOL0     C29239   5.154   6.628   3.262 -0.1119  0.4970  0.6398
  980MOL0     C29240   5.012   6.569   3.282 -0.5161  0.7336 -0.5152
  980MOL0     C29241   4.980   6.500   3.418 -0.4970 -0.2304  0.5127
  980MOL0     C29242   4.841   6.427   3.419 -0.0405  0.7122 -0.1913
  980MOL0     C29243   4.812   6.396   3.577  0.0178  0.1168  0.1893
  980MOL0     C29244   4.656   6.388   3.600  0.0232  0.2720 -0.6081
  980MOL0     N29245   4.608   6.279   3.512  0.3019 -1.0924 -0.0309
  980MOL0     C29246   4.629   6.144   3.525 -0.6074 -0.3536  0.2070
  980MOL0     C29247   4.579   6.088   3.413 -0.0484  0.3644  0.5449
  980MOL0     C29248   4.576   5.929   3.399 -0.8918 -0.9812  0.6355
  980MOL0     C29249   4.438   5.877   3.382  1.2617 -0.1341  0.6567
  980MOL0     C29250   4.331   5.920   3.490  0.0517  0.4742 -0.3980
  980MOL0     C29251   4.183   5.858   3.451  1.1647  0.6854  0.0554
  980MOL0     O29252   4.102   5.821   3.566  0.3279  0.1566 -0.0885
  980MOL0     C29253   3.995   5.905   3.583 -0.3954  0.4752 -0.1677
  980MOL0     C29254   4.001   6.047   3.564  0.2065  0.9505  0.1941
  980MOL0     C29255   3.889   6.130   3.578 -0.0721 -0.2829 -0.3166
  980MOL0     C29256   3.760   6.060   3.597 -0.3192  0.6398 -0.0653
  980MOL0     C29257   3.638   6.137   3.612 -0.9255 -0.6226 -0.5147
  980MOL0     O29258   3.519   6.078   3.575 -0.0596 -0.2903  0.6975
  980MOL0     C29259   3.394   6.128   3.592  0.7702 -0.6307 -0.2402
  980MOL0     C29260   3.362   6.235   3.679 -0.3423  1.1973  0.0401
  980MOL0     C29261   3.227   6.264   3.721 -0.2422 -0.4789  0.4610
  980MOL0     C29262   3.126   6.191   3.667 -1.4016 -0.4196  0.5310
  980MOL0     O29263   3.006   6.229   3.719  0.1187  0.9747  0.2637
  980MOL0     C29264   2.912   6.244   3.610 -0.0165  0.7251 -0.0012
  980MOL0     C29265   2.833   6.377   3.631  0.5955  1.2033 -0.8248
  980MOL0     C29266   2.752   6.385   3.770  0.0656  0.4612  0.3838
  980MOL0     C29267   2.633   6.297   3.770 -0.1332  0.0442 -0.3248
  980MOL0     C29268   2.615   6.224   3.899 -0.1291  0.0229  0.2272
  980MOL0     C29269   2.470   6.189   3.925  0.2325 -0.1789 -0.8881
  980MOL0     C29270   2.424   6.091   3.818 -0.2719  0.9187  0.5651
  980MOL0     C29271   2.289   6.035   3.845  0.7037  0.0223 -0.8842
  980MOL0    Cl29272   2.167   6.152   3.898 -0.0122  0.3183 -0.1651
  980MOL0     C29273   3.150   6.096   3.568  0.4067 -0.1727  0.7065
  980MOL0     C29274   3.283   6.065   3.531  0.5950 -0.0875  0.1551
  980MOL0     O29275   3.648   6.253   3.652  0.2024  0.5904 -0.4085
  980MOL0     C29276   3.757   5.918   3.600  0.3796  0.0039 -0.4120
  980MOL0     C29277   3.875   5.842   3.594  0.7525 -0.3218  0.2168
  980MOL0     N29278   4.519   6.191   3.340 -0.0398  0.0366  0.6244
  980MOL0     N29279   4.530   6.301   3.399 -0.2034  0.7381 -0.0782
  980MOL0     C29280   5.621   6.615   3.432 -0.2570  0.3419 -0.6630
  980MOL0     C29281   5.758   6.615   3.430 -0.0085  0.0803  0.0132
  980MOL0     C29282   6.168   6.715   3.437  0.9677  0.2863  0.7747
  980MOL0     C29283   6.243   6.790   3.530  1.2908 -1.5450  1.2434
  980MOL0     C29284   6.381   6.775   3.535  0.1595 -0.4903 -0.5248
  980MOL0     C29285   6.448   6.682   3.453 -1.0491 -0.2792 -0.3129
  980MOL0     O29286   6.591   6.657   3.459 -0.3025 -0.4512  0.0464
  980MOL0     C29287   6.666   6.724   3.566  0.5048  1.4994 -0.7329
  980MOL0     C29288   6.807   6.670   3.569 -1.1101  0.1568 -0.0447
  980MOL0     C29289   6.814   6.515   3.576 -0.5134  0.2690  0.0153
  980MOL0     C29290   6.956   6.460   3.612 -0.2228  0.1981  0.1887
  980MOL0     C29291   7.058   6.497   3.511 -0.5989  1.2455 -0.3546
  980MOL0     C29292   7.158   6.516   3.439  0.1628 -1.0961 -1.2328
  980MOL0     C29293   6.367   6.608   3.361  0.0645 -0.0645 -0.3505
  980MOL0     C29294   6.228   6.618   3.355 -0.5184 -0.2783  0.2307
  980MOL0     H29295   5.801   6.783   3.143 -0.0736  0.2470  0.8482
  980MOL0     H29296   5.549   6.792   3.170 -2.0954  2.4944  3.3933
  980MOL0     H29297   5.356   6.812   3.212  1.2456  1.2770  0.6180
  980MOL0     H29298   5.341   6.900   3.360 -1.5717  0.7318 -1.5269
  980MOL0     H29299   5.114   6.830   3.298 -0.8339 -0.7639  0.0311
  980MOL0     H29300   5.171   6.752   3.444  2.3878 -1.0264  0.4121
  980MOL0     H29301   5.232   6.554   3.284  0.6272  0.8664 -0.6571
  980MOL0     H29302   5.169   6.656   3.158 -2.3313 -0.6835 -0.0643
  980MOL0     H29303   4.934   6.645   3.279 -2.2969 -0.9894  0.1797
  980MOL0     H29304   5.003   6.500   3.198 -1.2856  0.2532 -0.0494
  980MOL0     H29305   4.982   6.577   3.495 -0.7508  2.4091 -1.9513
  980MOL0     H29306   5.064   6.438   3.452 -0.0397  1.4189  2.5819
  980MOL0     H29307   4.845   6.332   3.364 -3.0387  0.4315 -0.0756
  980MOL0     H29308   4.762   6.488   3.373 -2.4530 -0.3831  2.2130
  980MOL0     H29309   4.866   6.312   3.622 -0.8909 -1.3655 -1.3527
  980MOL0     H29310   4.845   6.486   3.629  0.1496 -0.3444  0.9175
  980MOL0     H29311   4.622   6.479   3.550  1.4353  0.9994 -0.2940
  980MOL0     H29312   4.613   6.384   3.700 -0.3105 -2.0051 -0.7753
  980MOL0     H29313   4.686   6.101   3.607  1.2423  1.5541  0.0238
  980MOL0     H29314   4.619   5.895   3.494 -1.8673 -0.5960  1.2292
  980MOL0     H29315   4.660   5.906   3.332 -0.4589  2.8921 -0.4349
  980MOL0     H29316   4.440   5.768   3.375  0.8042 -0.2401  1.9675
  980MOL0     H29317   4.409   5.912   3.283 -0.6978 -0.0476  1.2185
  980MOL0     H29318   4.374   5.875   3.580  2.2467 -0.0907 -1.6625
  980MOL0     H29319   4.326   6.028   3.502  0.7632  0.4274  0.3486
  980MOL0     H29320   4.185   5.764   3.395 -0.7089 -0.0982  1.1923
  980MOL0     H29321   4.123   5.926   3.389 -1.5166 -2.7428 -1.4803
  980MOL0     H29322   4.101   6.083   3.545  0.5487  0.3191  0.7596
  980MOL0     H29323   3.880   6.236   3.554  1.0364 -0.2054 -0.4384
  980MOL0     H29324   3.435   6.275   3.749  2.7666 -1.7017 -1.2542
  980MOL0     H29325   3.202   6.333   3.801  1.6876 -0.9152  1.5148
  980MOL0     H29326   2.834   6.166   3.610 -0.2102  0.9070  1.2743
  980MOL0     H29327   2.958   6.253   3.511  1.8534 -0.0467  0.7464
  980MOL0     H29328   2.765   6.388   3.546 -1.3581 -4.3931 -0.3945
  980MOL0     H29329   2.906   6.459   3.630  3.5805 -1.1516  1.8023
  980MOL0     H29330   2.708   6.483   3.789 -0.6377  0.5952 -1.6977
  980MOL0     H29331   2.828   6.357   3.843  0.0419 -1.8902 -0.4246
  980MOL0     H29332   2.542   6.356   3.757 -0.5273 -0.7260 -1.1850
  980MOL0     H29333   2.633   6.219   3.693 -0.7290 -0.5958  0.3060
  980MOL0     H29334   2.662   6.294   3.968  0.7550  1.8404 -2.0687
  980MOL0     H29335   2.673   6.131   3.900  0.4294  0.3795  1.0850
  980MOL0     H29336   2.412   6.281   3.936 -0.3206 -0.7381  1.6173
  980MOL0     H29337   2.467   6.138   4.022 -0.3832 -0.0047 -0.8127
  980MOL0     H29338   2.424   6.148   3.725 -2.2853  1.0385  0.5850
  980MOL0     H29339   2.490   6.004   3.815 -0.5240  0.7481 -0.5737
  980MOL0     H29340   2.294   5.974   3.935 -1.3460  1.5506  0.3437
  980MOL0     H29341   2.250   5.985   3.755  0.1178  0.4623 -0.8788
  980MOL0     H29342   3.069   6.035   3.527 -2.6865 -0.8880  6.6727
  980MOL0     H29343   3.288   5.992   3.451 -0.1300  0.5310 -0.4779
  980MOL0     H29344   3.667   5.857   3.607  1.2605 -1.1440  1.5846
  980MOL0     H29345   3.856   5.738   3.615 -0.7289  0.0548  0.8164
  980MOL0     H29346   5.568   6.574   3.517  1.2024 -1.6186 -0.6175
  980MOL0     H29347   5.805   6.564   3.513 -0.3814  0.5778  0.5368
  980MOL0     H29348   6.188   6.869   3.579 -1.2153 -0.5871 -2.6541
  980MOL0     H29349   6.435   6.843   3.601 -1.6394  0.5288 -0.0455
  980MOL0     H29350   6.621   6.709   3.664 -0.6067  1.6554 -1.2100
  980MOL0     H29351   6.667   6.830   3.542  0.8466  1.3711 -1.3243
  980MOL0     H29352   6.856   6.687   3.473 -0.4026 -0.3741  0.2143
  980MOL0     H29353   6.864   6.705   3.656 -3.2393 -1.0092  1.9715
  980MOL0     H29354   6.787   6.482   3.476 -0.7117 -0.4727  0.3070
  980MOL0     H29355   6.750   6.475   3.655  0.9876 -1.7002  0.3224
  980MOL0     H29356   6.970   6.493   3.716  0.2953  2.8450 -0.6408
  980MOL0     H29357   6.951   6.351   3.619  2.1448  0.0261  0.0207
  980MOL0     H29358   7.250   6.522   3.384  1.5864 -0.1831  1.1249
  980MOL0     H29359   6.406   6.527   3.301 -0.9261 -0.4342 -0.5214
  980MOL0     H29360   6.181   6.562   3.274  1.7578 -2.2405  0.1341
  981MOL0     O29361   1.445   7.056   5.149  0.5562 -0.0142  0.1392
  981MOL0     C29362   1.420   7.176   5.143  0.4582  1.4218 -0.3929
  981MOL0     O29363   1.294   7.234   5.149  0.6761  0.2413 -0.4936
  981MOL0     C29364   1.179   7.161   5.157  0.4646 -0.5962  0.2390
  981MOL0     C29365   1.071   7.212   5.226  0.7589 -0.1675  0.2758
  981MOL0     C29366   0.949   7.140   5.245  0.5850 -0.1667 -0.6870
  981MOL0     C29367   0.937   7.011   5.190 -0.4723 -0.6145  0.2842
  981MOL0     O29368   0.826   6.934   5.217  0.1778 -0.4497 -1.0201
  981MOL0     C29369   0.699   6.998   5.211  0.0471 -0.3270 -0.0692
  981MOL0     C29370   0.587   6.899   5.202  1.0193  0.0406  0.1554
  981MOL0     C29371   0.592   6.833   5.055 -0.0437 -0.3020 -0.1470
  981MOL0     C29372   0.538   6.924   4.943 -0.1547 -0.0555  0.6260
  981MOL0     C29373   0.380   6.961   4.933 -0.7062  0.0344  0.8020
  981MOL0     C29374   0.310   6.822   4.947 -0.8306 -0.5546  1.1800
  981MOL0     C29375   0.159   6.836   4.912 -1.0849  0.4462  0.8952
  981MOL0     C29376   0.093   6.915   5.027  0.0920 -0.2333 -0.2738
  981MOL0     N29377  -0.049   6.920   4.995  0.0391 -0.1267  0.7044
  981MOL0     C29378  -0.127   6.813   4.995  0.3898  0.2251 -0.2341
  981MOL0     C29379  -0.249   6.856   4.956  0.7866  1.4503  0.0598
  981MOL0     C29380  -0.372   6.770   4.934 -0.1540  0.1673  0.0580
  981MOL0     C29381  -0.495   6.851   4.969 -0.4656  0.4070 -0.4744
  981MOL0     C29382  -0.623   6.768   4.958 -0.2100  0.0777  1.3054
  981MOL0     C29383  -0.672   6.777   4.812 -0.0004  0.0009  0.7716
  981MOL0     O29384  -0.753   6.664   4.777  0.1525 -0.1773  0.5652
  981MOL0     C29385  -0.885   6.681   4.780  0.4662  0.7229  0.3458
  981MOL0     C29386  -0.959   6.581   4.704 -0.3238  0.0810 -0.4820
  981MOL0     C29387  -1.101   6.593   4.698 -0.0156 -0.2822  0.6234
  981MOL0     C29388  -1.170   6.701   4.768 -1.5650 -0.0101  0.3296
  981MOL0     C29389  -1.315   6.723   4.748  0.0868 -0.0504 -0.0794
  981MOL0     O29390  -1.388   6.639   4.668 -0.1689 -0.7919 -0.7827
  981MOL0     C29391  -1.527   6.663   4.654 -0.0008  0.2115  0.0440
  981MOL0     C29392  -1.614   6.556   4.657 -0.2299 -0.4699  0.3415
  981MOL0     C29393  -1.753   6.568   4.675  0.8272  0.2258  0.4044
  981MOL0     C29394  -1.820   6.697   4.666 -0.5080 -0.1538  1.0989
  981MOL0     O29395  -1.955   6.713   4.669 -0.3671  0.3381  0.4953
  981MOL0     C29396  -2.032   6.598   4.710  0.5976  0.1999 -0.4923
  981MOL0     C29397  -2.182   6.632   4.694  0.2042  0.3447  0.1674
  981MOL0     C29398  -2.236   6.733   4.797 -0.9057  0.2415  0.2788
  981MOL0     C29399  -2.377   6.783   4.769  0.0411 -0.2010  0.0354
  981MOL0     C29400  -2.488   6.684   4.803 -0.3113 -0.0983  0.9928
  981MOL0     C29401  -2.609   6.711   4.720 -0.7959  0.4139  0.9421
  981MOL0     C29402  -2.729   6.626   4.777  0.8340 -0.9108  0.5308
  981MOL0     C29403  -2.866   6.661   4.710  0.1860  0.5677  0.3504
  981MOL0    Cl29404  -2.995   6.568   4.798  0.2828 -0.4309  0.3535
  981MOL0     C29405  -1.731   6.804   4.647 -0.8849  0.1865 -0.3012
  981MOL0     C29406  -1.586   6.794   4.650 -0.2443 -0.0644  0.2058
  981MOL0     O29407  -1.367   6.817   4.801 -0.5006  0.2218  0.5826
  981MOL0     C29408  -1.092   6.791   4.842 -0.2158  0.4082 -0.2684
  981MOL0     C29409  -0.952   6.791   4.839  0.3446  0.0961  0.3036
  981MOL0     N29410  -0.238   6.992   4.939  0.2325  0.4312  0.5072
  981MOL0     N29411  -0.116   7.032   4.956 -0.8534 -0.2127 -0.4863
  981MOL0     C29412   1.048   6.953   5.127 -0.2575 -0.2812  0.8043
  981MOL0     C29413   1.159   7.032   5.107  0.1939  0.0112 -0.0527
  981MOL0     C29414   1.543   7.258   5.135 -1.0186 -0.0338  0.5294
  981MOL0     C29415   1.675   7.212   5.135 -0.0907 -0.1489 -0.3743
  981MOL0     C29416   1.783   7.293   5.130  0.4247  0.2390 -0.1784
  981MOL0     C29417   1.769   7.431   5.124  0.2332 -1.2132  0.0416
  981MOL0     O29418   1.882   7.519   5.125  0.2697 -0.2510  0.1805
  981MOL0     C29419   1.999   7.457   5.070 -0.7921 -0.4385 -0.5055
  981MOL0     C29420   2.087   7.566   5.011 -0.1294  0.1196 -0.9579
  981MOL0     C29421   2.231   7.516   5.014  0.3659  0.8237 -0.1966
  981MOL0     C29422   2.328   7.609   4.947 -0.3770 -0.7822  0.1966
  981MOL0     C29423   2.466   7.585   4.991 -0.3453 -0.0394  0.5236
  981MOL0     C29424   2.585   7.573   5.033  1.1087  0.4023  0.4752
  981MOL0     C29425   1.641   7.482   5.126 -0.7516  0.8706  0.9571
  981MOL0     C29426   1.528   7.403   5.124 -0.2855  0.1089 -0.1470
  981MOL0     H29427   1.093   7.307   5.273 -1.3448 -0.0676  1.1696
  981MOL0     H29428   0.879   7.181   5.317  1.9399  1.2545 -0.1271
  981MOL0     H29429   0.698   7.081   5.139 -1.8676 -2.2772 -2.4397
  981MOL0     H29430   0.686   7.054   5.304  3.7653 -0.9976  1.0216
  981MOL0     H29431   0.497   6.958   5.219  0.8399 -0.6162  1.6662
  981MOL0     H29432   0.587   6.824   5.282 -4.2037  0.5246  0.9767
  981MOL0     H29433   0.540   6.737   5.055 -1.4004  0.3809 -1.5745
  981MOL0     H29434   0.696   6.809   5.033  0.1518 -1.4975  1.8038
  981MOL0     H29435   0.594   7.018   4.940 -2.3141  1.3199  0.7198
  981MOL0     H29436   0.561   6.871   4.851  0.7740  0.5681  0.4889
  981MOL0     H29437   0.359   6.989   4.830  2.9103 -2.0036 -0.6655
  981MOL0     H29438   0.359   7.046   4.999 -0.4603  1.9287 -1.4191
  981MOL0     H29439   0.307   6.793   5.052 -0.4323  0.4389  1.4824
  981MOL0     H29440   0.351   6.750   4.876 -2.2922 -1.4454  1.1959
  981MOL0     H29441   0.151   6.884   4.814 -1.7722  1.1944  1.3070
  981MOL0     H29442   0.113   6.737   4.912 -1.0101  0.4055  1.6406
  981MOL0     H29443   0.131   7.018   5.030 -0.1102 -0.1646  2.7967
  981MOL0     H29444   0.101   6.874   5.128 -0.9081  0.1425 -0.0275
  981MOL0     H29445  -0.091   6.714   5.020 -0.3624  0.4189  1.7947
  981MOL0     H29446  -0.378   6.678   4.993 -0.6228 -1.1063 -1.9044
  981MOL0     H29447  -0.375   6.732   4.832 -0.8000  2.2068 -0.7438
  981MOL0     H29448  -0.511   6.937   4.904 -0.7653  0.1052 -0.8083
  981MOL0     H29449  -0.490   6.891   5.070 -0.7265  2.3584 -1.1985
  981MOL0     H29450  -0.600   6.663   4.980 -0.3818  0.0331  1.2710
  981MOL0     H29451  -0.703   6.808   5.020 -2.0024 -1.0940 -0.1443
  981MOL0     H29452  -0.583   6.768   4.748 -0.3897 -2.7852  0.5301
  981MOL0     H29453  -0.716   6.877   4.803  0.6360  0.1533 -1.1767
  981MOL0     H29454  -0.906   6.503   4.651 -0.9190 -1.0222  0.5073
  981MOL0     H29455  -1.177   6.532   4.650 -0.1235 -1.2984  2.0216
  981MOL0     H29456  -1.560   6.461   4.653  0.9796  0.1561  1.1348
  981MOL0     H29457  -1.805   6.473   4.682  2.4731 -0.6225  1.6582
  981MOL0     H29458  -2.015   6.572   4.815  0.5893 -0.9087 -0.7547
  981MOL0     H29459  -2.006   6.513   4.648 -1.6720  0.1344 -1.4571
  981MOL0     H29460  -2.223   6.531   4.704  3.8369 -1.3526 -0.1563
  981MOL0     H29461  -2.185   6.683   4.597  2.4902  1.5777  0.6658
  981MOL0     H29462  -2.169   6.820   4.792  2.7083 -2.1025  3.0398
  981MOL0     H29463  -2.209   6.707   4.900  0.1817  1.5293  0.3432
  981MOL0     H29464  -2.386   6.881   4.818  2.3219  1.5248 -2.6209
  981MOL0     H29465  -2.394   6.804   4.663 -0.7910 -0.5537  0.0947
  981MOL0     H29466  -2.510   6.699   4.909  1.0944  4.1137  0.8825
  981MOL0     H29467  -2.452   6.581   4.789  0.4587  0.4067 -1.1284
  981MOL0     H29468  -2.586   6.679   4.618 -4.3766  2.8104 -0.8273
  981MOL0     H29469  -2.639   6.816   4.710 -2.8928  0.2205  3.8193
  981MOL0     H29470  -2.712   6.519   4.786 -2.3795 -1.5653 -0.0136
  981MOL0     H29471  -2.738   6.654   4.882 -1.2961 -0.4796  0.2902
  981MOL0     H29472  -2.869   6.625   4.607  0.2793  3.0112 -0.5567
  981MOL0     H29473  -2.890   6.767   4.706 -1.8353  0.1469  0.1796
  981MOL0     H29474  -1.770   6.906   4.645  0.1561  0.5920 -3.1090
  981MOL0     H29475  -1.525   6.885   4.652 -0.8863  0.4145 -0.9411
  981MOL0     H29476  -1.129   6.878   4.896  1.1186 -0.4799  2.2368
  981MOL0     H29477  -0.895   6.867   4.890  1.0110  1.0422 -1.7537
  981MOL0     H29478   1.055   6.851   5.092  3.8843  0.0844  0.1042
  981MOL0     H29479   1.239   6.987   5.049 -1.0820 -3.4764  0.6936
  981MOL0     H29480   1.689   7.108   5.163  2.1744  0.6953  1.9780
  981MOL0     H29481   1.884   7.253   5.139  0.3113  0.3051  1.7947
  981MOL0     H29482   1.978   7.387   4.989 -2.2756 -0.0044 -0.5414
  981MOL0     H29483   2.061   7.396   5.136  2.0503 -1.2536 -3.7002
  981MOL0     H29484   2.056   7.586   4.908  1.3095  0.7775 -1.2840
  981MOL0     H29485   2.073   7.655   5.073  2.8982 -0.8082  1.2800
  981MOL0     H29486   2.244   7.420   4.962  2.8769  1.0004  0.0241
  981MOL0     H29487   2.252   7.505   5.120  0.3669  0.5400 -0.2261
  981MOL0     H29488   2.302   7.595   4.842 -0.1525  1.9055 -0.2909
  981MOL0     H29489   2.304   7.716   4.956  0.1310 -0.7293  1.0591
  981MOL0     H29490   2.689   7.568   5.058  1.0076  1.3679  1.1551
  981MOL0     H29491   1.630   7.589   5.137 -0.5796  1.6522 -4.2655
  981MOL0     H29492   1.430   7.451   5.126  0.6973  2.3422  3.4637
  982MOL0     O29493   2.670   4.705   1.696 -0.5367  0.0132  0.6479
  982MOL0     C29494   2.736   4.653   1.603 -0.3042  0.3403  1.5131
  982MOL0     O29495   2.708   4.666   1.465  0.1198 -0.4153 -0.7730
  982MOL0     C29496   2.631   4.777   1.424 -0.6500 -0.0023  0.4015
  982MOL0     C29497   2.500   4.803   1.467 -1.2163 -0.3858 -0.8490
  982MOL0     C29498   2.424   4.898   1.406  0.0797 -0.4268  0.3225
  982MOL0     C29499   2.482   4.993   1.311  0.4420  1.5610  0.7883
  982MOL0     O29500   2.406   5.088   1.245  0.3147  0.2130  0.0913
  982MOL0     C29501   2.264   5.102   1.266  0.2084  0.1835  0.4369
  982MOL0     C29502   2.194   5.196   1.157 -0.4545  0.6335 -0.6449
  982MOL0     C29503   2.043   5.211   1.163 -0.0557  0.5807  0.3299
  982MOL0     C29504   1.987   5.248   1.027 -0.7014 -0.8710 -0.0133
  982MOL0     C29505   1.852   5.327   1.031  0.0919 -0.0236 -0.1810
  982MOL0     C29506   1.862   5.468   1.056 -0.6658  0.4783 -0.2100
  982MOL0     C29507   1.726   5.545   1.078 -0.2063 -0.0072  0.1015
  982MOL0     C29508   1.744   5.696   1.056 -1.0524  0.3056  0.1655
  982MOL0     N29509   1.617   5.759   1.090 -0.2089  1.1193  1.3972
  982MOL0     C29510   1.521   5.793   0.997 -0.0554  0.1494  0.2158
  982MOL0     C29511   1.442   5.875   1.056  0.1282 -0.2223 -0.4106
  982MOL0     C29512   1.314   5.928   0.993 -0.1119  0.0098  0.7666
  982MOL0     C29513   1.216   5.975   1.098  0.0666 -0.4599  0.8548
  982MOL0     C29514   1.104   6.047   1.019  0.0278 -0.3345  0.2459
  982MOL0     C29515   0.984   6.073   1.106 -0.8979 -0.2973  0.3733
  982MOL0     O29516   0.878   6.109   1.022  0.1068 -0.2350 -0.2457
  982MOL0     C29517   0.773   6.193   1.054  0.3758  0.6395  0.3893
  982MOL0     C29518   0.673   6.216   0.957 -0.3775  0.5163  0.1441
  982MOL0     C29519   0.555   6.284   0.983  0.2176  0.1821 -1.1053
  982MOL0     C29520   0.531   6.335   1.113 -0.7397  0.1218  0.5447
  982MOL0     C29521   0.407   6.397   1.136 -0.8836 -0.1787 -0.6594
  982MOL0     O29522   0.336   6.442   1.029  0.4734 -0.0537 -0.1132
  982MOL0     C29523   0.205   6.485   1.037 -0.2369 -0.8615 -0.7508
  982MOL0     C29524   0.105   6.412   1.104  1.1279  0.4614  0.0598
  982MOL0     C29525  -0.026   6.458   1.100 -0.0682 -0.4298  0.1988
  982MOL0     C29526  -0.056   6.581   1.032  0.6326 -0.0542 -0.5694
  982MOL0     O29527  -0.181   6.618   1.031  0.7122 -0.3649  0.4510
  982MOL0     C29528  -0.227   6.654   1.159 -0.0713 -0.9166 -0.4114
  982MOL0     C29529  -0.360   6.723   1.146 -0.6430  0.0083  0.1276
  982MOL0     C29530  -0.488   6.636   1.146  0.2777 -0.1512  0.0543
  982MOL0     C29531  -0.499   6.553   1.014 -0.2424 -0.1209 -0.1191
  982MOL0     C29532  -0.623   6.462   1.016  0.0489 -0.1575  0.5073
  982MOL0     C29533  -0.654   6.419   0.872  0.1880  0.0773 -1.5508
  982MOL0     C29534  -0.769   6.303   0.853  0.2034 -0.6583  0.0402
  982MOL0     C29535  -0.712   6.180   0.790 -0.8713  0.8618  0.2532
  982MOL0    Cl29536  -0.636   6.209   0.635 -0.4112  0.1601  0.4388
  982MOL0     C29537   0.040   6.656   0.972 -0.1731  0.3138 -0.4882
  982MOL0     C29538   0.171   6.609   0.972  0.7766  0.0886  0.1636
  982MOL0     O29539   0.365   6.386   1.253 -0.0282  0.4909 -0.1763
  982MOL0     C29540   0.628   6.312   1.216 -0.4800  0.4782 -0.6566
  982MOL0     C29541   0.750   6.243   1.185  0.6737  0.5943  0.8696
  982MOL0     N29542   1.483   5.896   1.191  0.3448  0.0307 -0.4473
  982MOL0     N29543   1.582   5.819   1.205 -0.1306  0.2723  0.3423
  982MOL0     C29544   2.605   4.956   1.269 -0.1301  0.5711 -0.4071
  982MOL0     C29545   2.677   4.848   1.317 -0.6491  0.1701 -0.5607
  982MOL0     C29546   2.858   4.586   1.642 -0.1832 -0.6132  0.3261
  982MOL0     C29547   2.905   4.593   1.778 -0.3578  0.0299  0.6200
  982MOL0     C29548   3.029   4.547   1.818 -1.0386 -0.3909 -0.0799
  982MOL0     C29549   3.115   4.488   1.718 -0.1538 -0.3510  0.2373
  982MOL0     O29550   3.232   4.427   1.737 -0.2550  0.6452  0.1639
  982MOL0     C29551   3.287   4.401   1.867 -0.9442 -0.1508  0.0834
  982MOL0     C29552   3.360   4.522   1.931  0.1972  0.2884  0.5564
  982MOL0     C29553   3.440   4.602   1.827  0.0680  0.1762 -0.5978
  982MOL0     C29554   3.530   4.513   1.729  0.3299 -0.8846 -0.2727
  982MOL0     C29555   3.600   4.591   1.626 -0.6137 -0.1053 -0.0037
  982MOL0     C29556   3.666   4.647   1.546  0.2294  0.4096  0.5687
  982MOL0     C29557   3.069   4.485   1.589  0.2716 -0.5091 -0.1635
  982MOL0     C29558   2.937   4.533   1.548 -0.0346  0.3044  0.3008
  982MOL0     H29559   2.457   4.737   1.542  0.1137  1.2405  1.4687
  982MOL0     H29560   2.321   4.920   1.432  1.4728  2.3607  4.3488
  982MOL0     H29561   2.236   5.133   1.367 -0.8649 -0.8210  0.4703
  982MOL0     H29562   2.210   5.007   1.258 -0.9940  0.5653  2.9339
  982MOL0     H29563   2.230   5.157   1.061  0.1592 -0.1574 -0.1175
  982MOL0     H29564   2.228   5.297   1.180  1.4624 -0.4840  2.0045
  982MOL0     H29565   2.015   5.295   1.227  0.9815  3.0938 -2.2676
  982MOL0     H29566   2.001   5.118   1.201 -0.0853  1.1777  1.8215
  982MOL0     H29567   2.061   5.306   0.971 -2.0748  1.5623  0.5843
  982MOL0     H29568   1.981   5.157   0.967 -1.3383 -0.0329 -1.2517
  982MOL0     H29569   1.780   5.286   1.103  0.1079  0.2766  0.0065
  982MOL0     H29570   1.810   5.315   0.930 -0.6897 -2.1124  0.3426
  982MOL0     H29571   1.918   5.509   0.971  2.9714 -1.9892  0.7429
  982MOL0     H29572   1.927   5.493   1.141 -1.6442 -2.3333  1.5053
  982MOL0     H29573   1.644   5.506   1.017 -0.7765  0.5864  0.4662
  982MOL0     H29574   1.692   5.533   1.182  0.2575 -1.7698  0.0793
  982MOL0     H29575   1.773   5.702   0.951  3.3042 -1.3051  1.0992
  982MOL0     H29576   1.824   5.738   1.116 -0.3853  2.2796 -1.9549
  982MOL0     H29577   1.501   5.758   0.896 -4.6521  0.0208  0.9585
  982MOL0     H29578   1.274   5.848   0.930 -0.9277 -0.8927  2.3638
  982MOL0     H29579   1.342   6.013   0.931  0.0576  0.2564  1.1807
  982MOL0     H29580   1.261   6.044   1.170  0.6384  0.0719  0.0097
  982MOL0     H29581   1.178   5.885   1.148  4.8520 -0.8815  4.5058
  982MOL0     H29582   1.143   6.139   0.976 -0.6159 -0.9654 -1.8215
  982MOL0     H29583   1.077   5.973   0.943 -0.1447 -1.9502  1.7968
  982MOL0     H29584   1.004   6.152   1.180 -0.4681 -0.5176  0.4942
  982MOL0     H29585   0.956   5.979   1.153  0.0742 -0.1654  1.2737
  982MOL0     H29586   0.691   6.167   0.861 -1.0988 -0.1541  0.3423
  982MOL0     H29587   0.481   6.285   0.903  2.2120 -0.0539 -3.0509
  982MOL0     H29588   0.137   6.320   1.151 -0.6306  0.4053  1.2515
  982MOL0     H29589  -0.103   6.403   1.154 -0.5423  0.0705  0.0459
  982MOL0     H29590  -0.162   6.724   1.213 -1.0986  0.0190 -0.3485
  982MOL0     H29591  -0.238   6.568   1.226  0.8204  0.7388  2.0230
  982MOL0     H29592  -0.370   6.787   1.058 -0.0665  0.1702  0.1808
  982MOL0     H29593  -0.375   6.793   1.228  0.4174 -2.1042  2.2302
  982MOL0     H29594  -0.580   6.695   1.148  0.5973  0.3896 -0.6334
  982MOL0     H29595  -0.485   6.565   1.229 -1.9535  0.9450  1.1717
  982MOL0     H29596  -0.505   6.607   0.919  0.2494 -0.6041 -0.4320
  982MOL0     H29597  -0.410   6.492   0.996 -1.7964 -2.9002  1.0231
  982MOL0     H29598  -0.719   6.504   1.047 -1.2073 -2.6947  0.2927
  982MOL0     H29599  -0.603   6.378   1.082 -0.7627  0.8441  2.0904
  982MOL0     H29600  -0.557   6.392   0.831  1.6280  1.2713  0.8461
  982MOL0     H29601  -0.695   6.504   0.816  0.0691  2.0631  1.3206
  982MOL0     H29602  -0.806   6.277   0.953 -0.6657 -2.8120 -0.7696
  982MOL0     H29603  -0.848   6.344   0.789  2.6831  0.6642 -2.3826
  982MOL0     H29604  -0.790   6.105   0.774 -1.1672  1.0361  0.8576
  982MOL0     H29605  -0.645   6.134   0.863 -1.9502  0.6770  1.1642
  982MOL0     H29606   0.018   6.752   0.926  1.2625  0.0822 -1.7403
  982MOL0     H29607   0.254   6.664   0.929  0.3797  1.1506  0.7133
  982MOL0     H29608   0.614   6.325   1.323  1.6049 -1.3273 -0.0882
  982MOL0     H29609   0.809   6.210   1.271 -0.4584 -2.2266  0.6551
  982MOL0     H29610   2.642   5.024   1.193 -0.7126 -2.4837 -3.6824
  982MOL0     H29611   2.770   4.814   1.274 -0.4579  0.7093 -0.5782
  982MOL0     H29612   2.853   4.641   1.859 -0.5202  1.5835 -0.3682
  982MOL0     H29613   3.053   4.553   1.924 -0.8736 -0.4270 -0.1139
  982MOL0     H29614   3.362   4.323   1.854 -0.1903  0.6677 -0.5956
  982MOL0     H29615   3.216   4.361   1.940 -1.1465 -3.2809 -1.6880
  982MOL0     H29616   3.293   4.594   1.979  0.0122  0.3412  0.2262
  982MOL0     H29617   3.412   4.476   2.015 -2.1073 -1.6658  1.0310
  982MOL0     H29618   3.513   4.661   1.885  0.3480 -1.0179  0.3098
  982MOL0     H29619   3.378   4.670   1.768  1.7436 -0.9097 -3.8846
  982MOL0     H29620   3.604   4.471   1.798 -0.4778  1.5255  2.2645
  982MOL0     H29621   3.481   4.431   1.677 -1.5162 -0.8826  1.3459
  982MOL0     H29622   3.733   4.706   1.487 -0.1134  0.9313  0.6958
  982MOL0     H29623   3.122   4.456   1.498 -1.6455 -0.7544 -1.2469
  982MOL0     H29624   2.899   4.524   1.447  1.8237  1.0898 -0.5220
  983MOL0     O29625  10.695   5.547   6.505  0.0616 -0.1893  0.8283
  983MOL0     C29626  10.796   5.617   6.491 -0.7547  0.7239 -0.8881
  983MOL0     O29627  10.792   5.749   6.477  0.0683  0.1391  0.1429
  983MOL0     C29628  10.678   5.806   6.511  0.6757 -0.5222 -0.6045
  983MOL0     C29629  10.615   5.784   6.638 -0.7429 -0.1909  0.8550
  983MOL0     C29630  10.494   5.832   6.665 -0.2796  0.0011 -0.2195
  983MOL0     C29631  10.422   5.914   6.580  0.2055  0.3558 -0.9648
  983MOL0     O29632  10.299   5.956   6.635  0.0135  0.5604  0.1783
  983MOL0     C29633  10.253   6.090   6.613  0.2676  0.0401  0.6249
  983MOL0     C29634  10.121   6.091   6.683  0.6306  0.0366  0.4333
  983MOL0     C29635  10.048   6.226   6.683 -0.7562 -0.0893  0.4521
  983MOL0     C29636   9.918   6.228   6.765 -0.6132  0.4687 -0.4049
  983MOL0     C29637   9.787   6.259   6.683 -0.4718  0.6485  0.6849
  983MOL0     C29638   9.665   6.260   6.772  0.0536 -0.3497  0.3581
  983MOL0     C29639   9.528   6.235   6.704 -1.0490  0.1823 -0.8706
  983MOL0     C29640   9.437   6.231   6.829 -0.0618 -0.0251  1.1917
  983MOL0     N29641   9.298   6.202   6.783  1.4010 -0.1706 -0.7046
  983MOL0     C29642   9.212   6.304   6.743 -0.4142 -0.0877 -0.6788
  983MOL0     C29643   9.094   6.233   6.709  0.8025  0.1606 -0.2698
  983MOL0     C29644   8.965   6.279   6.652 -0.6993 -0.2848 -0.4109
  983MOL0     C29645   8.846   6.205   6.724  0.3278 -0.8893 -0.2371
  983MOL0     C29646   8.720   6.301   6.711 -0.9272 -0.1066 -0.8455
  983MOL0     C29647   8.591   6.216   6.726 -0.1215 -0.2798  0.6007
  983MOL0     O29648   8.477   6.287   6.675  0.0250 -0.2794  0.4879
  983MOL0     C29649   8.363   6.274   6.740 -0.1929 -0.2355  0.4013
  983MOL0     C29650   8.326   6.171   6.833 -0.2498 -0.0281 -0.4850
  983MOL0     C29651   8.196   6.169   6.886  0.1633  1.2212 -0.3282
  983MOL0     C29652   8.101   6.260   6.843  0.3544  0.7988 -0.5589
  983MOL0     C29653   7.962   6.244   6.900 -0.4949 -0.1238  1.1673
  983MOL0     O29654   7.857   6.299   6.827  0.2330  0.8633 -0.1484
  983MOL0     C29655   7.739   6.323   6.901 -0.5132  0.3104  0.7380
  983MOL0     C29656   7.717   6.458   6.938 -0.0143 -0.4263 -0.7397
  983MOL0     C29657   7.603   6.489   7.006  0.1520 -0.4361  0.2664
  983MOL0     C29658   7.508   6.391   7.027  0.5519  0.2974 -0.6486
  983MOL0     O29659   7.402   6.432   7.105 -0.4588 -0.8308 -0.0783
  983MOL0     C29660   7.285   6.347   7.110 -0.8162  0.3609  0.8915
  983MOL0     C29661   7.166   6.433   7.102 -0.4161  0.1381  0.3778
  983MOL0     C29662   7.027   6.357   7.132  0.1399  0.0624  0.2534
  983MOL0     C29663   6.916   6.452   7.116  0.0694  0.4011  0.9096
  983MOL0     C29664   6.786   6.373   7.108  0.6461  0.3886  0.3339
  983MOL0     C29665   6.737   6.277   7.214  0.5105 -0.3519  0.6688
  983MOL0     C29666   6.579   6.250   7.207 -0.0981 -0.7115 -1.0658
  983MOL0     C29667   6.504   6.377   7.256 -0.2989  0.1153  0.5514
  983MOL0    Cl29668   6.561   6.461   7.398  0.0402 -0.0172  0.1731
  983MOL0     C29669   7.530   6.257   6.969 -0.8670  0.6037 -1.3368
  983MOL0     C29670   7.649   6.220   6.911 -0.6869  0.5681 -0.2267
  983MOL0     O29671   7.952   6.194   7.012 -0.2424 -0.6167  0.4539
  983MOL0     C29672   8.133   6.357   6.747  1.0011 -0.5593  0.4267
  983MOL0     C29673   8.263   6.358   6.697  0.2149  0.1426 -0.2215
  983MOL0     N29674   9.120   6.096   6.741  0.0866 -0.1863  1.0101
  983MOL0     N29675   9.235   6.080   6.783 -0.4764  0.2284 -0.2524
  983MOL0     C29676  10.485   5.940   6.454 -0.5640 -0.0551 -0.2662
  983MOL0     C29677  10.607   5.885   6.418 -1.2050 -0.0470 -0.5293
  983MOL0     C29678  10.925   5.553   6.457 -0.4221  0.5115  0.4083
  983MOL0     C29679  11.048   5.629   6.457 -0.1365 -0.5888 -0.0841
  983MOL0     C29680  11.177   5.567   6.444 -0.1339  0.1726  0.0688
  983MOL0     C29681  11.178   5.428   6.435 -0.8276  0.4077 -0.1592
  983MOL0     O29682  11.294   5.355   6.425 -0.2447 -0.5777 -0.4031
  983MOL0     C29683  11.410   5.398   6.504  0.2465 -0.0823 -0.4607
  983MOL0     C29684  11.522   5.297   6.500  0.0716  0.1641  0.3354
  983MOL0     C29685  11.654   5.342   6.567  0.5511  0.2516 -0.0314
  983MOL0     C29686  11.777   5.289   6.476 -0.0650 -0.4706 -0.1705
  983MOL0     C29687  11.778   5.144   6.473  0.1156 -0.3080 -1.4643
  983MOL0     C29688  11.757   5.024   6.478 -0.5530  1.0163  0.0124
  983MOL0     C29689  11.061   5.348   6.415  1.1050  0.0916  0.2215
  983MOL0     C29690  10.939   5.411   6.434 -0.1792 -0.5621  0.2349
  983MOL0     H29691  10.666   5.725   6.714  0.0727 -2.2379 -1.1583
  983MOL0     H29692  10.439   5.818   6.758 -0.0055  1.8910  0.2716
  983MOL0     H29693  10.238   6.095   6.505 -1.3172 -1.7609  0.7151
  983MOL0     H29694  10.335   6.158   6.638  1.2739  0.5539 -3.4304
  983MOL0     H29695  10.135   6.060   6.787  1.7603  2.9295  1.2463
  983MOL0     H29696  10.060   6.018   6.630  0.5315 -1.2962  2.2733
  983MOL0     H29697  10.031   6.259   6.580  0.7029 -0.5091  0.0538
  983MOL0     H29698  10.110   6.301   6.733 -1.5141 -1.2185  3.2461
  983MOL0     H29699   9.897   6.130   6.809  2.0582  0.9900  2.3999
  983MOL0     H29700   9.929   6.297   6.849 -2.9180  0.7808 -0.2974
  983MOL0     H29701   9.781   6.201   6.590  2.0474  1.8844 -0.3509
  983MOL0     H29702   9.798   6.355   6.630  0.2914  0.1309 -0.1299
  983MOL0     H29703   9.671   6.354   6.827  1.7692  0.0485 -0.4500
  983MOL0     H29704   9.672   6.177   6.843  3.3043  1.2689  2.1666
  983MOL0     H29705   9.492   6.310   6.633 -0.2089  0.2531 -1.2251
  983MOL0     H29706   9.521   6.141   6.648 -1.4343 -0.8799  0.8946
  983MOL0     H29707   9.448   6.329   6.876  1.3980  0.7254 -0.5829
  983MOL0     H29708   9.461   6.152   6.901 -1.2008 -0.8359  0.7215
  983MOL0     H29709   9.224   6.411   6.727 -2.3297  0.1344 -0.8843
  983MOL0     H29710   8.969   6.258   6.545  0.3875 -2.1150 -0.0493
  983MOL0     H29711   8.964   6.388   6.667 -4.0312 -0.2215 -0.4270
  983MOL0     H29712   8.861   6.192   6.831  2.5694 -0.9712 -0.5131
  983MOL0     H29713   8.824   6.111   6.671 -1.0491 -0.9422  0.3951
  983MOL0     H29714   8.718   6.375   6.792 -1.5700  0.7712 -1.6459
  983MOL0     H29715   8.707   6.363   6.623 -2.6097 -0.6303 -1.0001
  983MOL0     H29716   8.578   6.190   6.831 -2.1475  0.0153  0.4596
  983MOL0     H29717   8.603   6.115   6.684 -1.6806 -1.6310  3.1467
  983MOL0     H29718   8.400   6.099   6.869  1.5250  2.0452  0.2226
  983MOL0     H29719   8.175   6.088   6.956 -2.6331  0.9538 -1.3743
  983MOL0     H29720   7.797   6.523   6.900  1.7180 -2.5561 -0.9238
  983MOL0     H29721   7.592   6.593   7.031 -0.0634 -0.2208 -0.6878
  983MOL0     H29722   7.291   6.288   7.202  3.1319 -1.0444 -0.0632
  983MOL0     H29723   7.282   6.287   7.018  1.9322  1.5764 -0.1276
  983MOL0     H29724   7.156   6.477   7.003  1.8513  0.2602  0.1474
  983MOL0     H29725   7.173   6.511   7.179  4.0067  0.4179 -0.0336
  983MOL0     H29726   7.023   6.318   7.234 -2.7202  1.8171  0.9135
  983MOL0     H29727   7.014   6.272   7.065 -0.7233  1.2878 -1.1906
  983MOL0     H29728   6.913   6.516   7.204 -2.2399  1.0384  0.4388
  983MOL0     H29729   6.930   6.512   7.025 -3.8858  0.1533 -0.0660
  983MOL0     H29730   6.793   6.319   7.013  2.5231 -0.2332  0.7890
  983MOL0     H29731   6.713   6.454   7.104 -2.4698 -2.2546 -1.2501
  983MOL0     H29732   6.748   6.316   7.315  1.7624  2.3962 -0.4261
  983MOL0     H29733   6.791   6.183   7.198 -0.0200 -0.3374 -1.5592
  983MOL0     H29734   6.540   6.233   7.106 -2.0653 -0.4226 -0.3942
  983MOL0     H29735   6.561   6.164   7.272 -1.5664  2.2898  2.8643
  983MOL0     H29736   6.400   6.361   7.287 -0.1600  0.7416  1.3747
  983MOL0     H29737   6.509   6.448   7.173  0.0135  0.7379  1.0945
  983MOL0     H29738   7.454   6.180   6.966 -0.6139  0.1696  1.3628
  983MOL0     H29739   7.661   6.115   6.887 -0.9158 -0.6040  3.9957
  983MOL0     H29740   8.066   6.426   6.697  3.4324  1.9889  0.3994
  983MOL0     H29741   8.287   6.443   6.634  2.1888 -0.5214 -0.4307
  983MOL0     H29742  10.429   6.004   6.386  2.1117  1.9170 -0.7612
  983MOL0     H29743  10.652   5.902   6.320  0.5308 -1.4170 -0.0264
  983MOL0     H29744  11.042   5.733   6.488  1.0529  0.2174 -2.3294
  983MOL0     H29745  11.270   5.621   6.461 -0.4110  0.5465  0.4133
  983MOL0     H29746  11.385   5.409   6.610  0.5515 -0.5330 -0.3422
  983MOL0     H29747  11.455   5.487   6.458 -3.0803  1.4509 -1.0366
  983MOL0     H29748  11.495   5.203   6.548  1.1060 -0.5635 -0.4649
  983MOL0     H29749  11.530   5.272   6.394 -2.1121  0.2126  0.1168
  983MOL0     H29750  11.650   5.301   6.668 -1.1172  1.9347  0.6365
  983MOL0     H29751  11.646   5.451   6.574 -2.8488  0.0288  1.2994
  983MOL0     H29752  11.770   5.344   6.381 -0.3524  1.9375  1.1475
  983MOL0     H29753  11.868   5.328   6.523 -2.1503  3.5719  1.0634
  983MOL0     H29754  11.728   4.921   6.468  0.6179  0.7865 -1.3005
  983MOL0     H29755  11.077   5.242   6.397  2.9126  0.2997  0.4082
  983MOL0     H29756  10.843   5.361   6.438 -1.7589  2.2486  0.6340
  984MOL0     O29757   0.903   2.513   3.900  0.9243  0.6766  0.6770
  984MOL0     C29758   0.884   2.548   4.021 -0.1855  0.3516  0.5007
  984MOL0     O29759   0.768   2.553   4.084  0.0189  0.4989 -0.1946
  984MOL0     C29760   0.649   2.539   4.025 -0.1546 -0.2052 -0.3652
  984MOL0     C29761   0.571   2.442   4.081  0.0294  1.7815 -0.2737
  984MOL0     C29762   0.440   2.415   4.042 -0.8856 -0.1430 -0.1655
  984MOL0     C29763   0.390   2.489   3.935 -0.2227 -0.5116 -0.1917
  984MOL0     O29764   0.267   2.461   3.866 -0.0827  0.5946 -0.6233
  984MOL0     C29765   0.187   2.349   3.915 -0.3066 -0.0142 -0.3776
  984MOL0     C29766   0.059   2.340   3.845 -0.0125 -0.3341 -1.3286
  984MOL0     C29767  -0.026   2.220   3.890  0.0211 -1.0444 -0.1377
  984MOL0     C29768  -0.143   2.185   3.803 -0.2367  0.2393 -0.6073
  984MOL0     C29769  -0.205   2.053   3.832 -0.7462  0.6654 -0.1712
  984MOL0     C29770  -0.343   2.031   3.761 -0.2524  0.1556  0.2114
  984MOL0     C29771  -0.409   1.896   3.798 -0.3035  0.3924 -0.3302
  984MOL0     C29772  -0.563   1.913   3.776  0.8957  0.2851  0.6675
  984MOL0     N29773  -0.641   1.793   3.810  0.0867 -0.0330 -0.2183
  984MOL0     C29774  -0.776   1.785   3.791  0.3116  0.1217  0.1562
  984MOL0     C29775  -0.816   1.677   3.858 -0.0516  0.1642 -0.5119
  984MOL0     C29776  -0.957   1.625   3.857  0.3046  0.0663 -0.1584
  984MOL0     C29777  -1.060   1.723   3.925  0.5619 -1.0692 -0.3492
  984MOL0     C29778  -1.201   1.700   3.886 -0.0373 -0.1599  0.8765
  984MOL0     C29779  -1.302   1.743   3.990 -0.2323 -0.5165  0.1078
  984MOL0     O29780  -1.433   1.686   3.960  0.1767 -0.0296  0.2447
  984MOL0     C29781  -1.533   1.698   4.055 -0.3800 -0.4577  0.0548
  984MOL0     C29782  -1.657   1.744   4.001 -0.4523 -0.3102 -0.6251
  984MOL0     C29783  -1.764   1.776   4.089 -0.4702 -0.7338  0.0894
  984MOL0     C29784  -1.754   1.752   4.227  0.2840 -1.1636 -0.7352
  984MOL0     C29785  -1.868   1.777   4.323  0.1111  0.3839  0.4028
  984MOL0     O29786  -1.877   1.721   4.447  0.5755  0.2151 -0.6256
  984MOL0     C29787  -2.002   1.733   4.501 -0.2524  0.3164 -0.9133
  984MOL0     C29788  -2.036   1.852   4.571  1.5661  0.5996  0.6160
  984MOL0     C29789  -2.152   1.863   4.640  0.4905  1.0134 -0.4169
  984MOL0     C29790  -2.242   1.762   4.645  0.2849  0.1038  0.6427
  984MOL0     O29791  -2.361   1.763   4.713  0.7143  0.1938  0.0538
  984MOL0     C29792  -2.380   1.839   4.831  0.5036  0.5614  0.1077
  984MOL0     C29793  -2.526   1.820   4.868  0.1120  0.2816 -0.0333
  984MOL0     C29794  -2.561   1.894   5.002 -0.3758  0.2176  0.9030
  984MOL0     C29795  -2.705   1.862   5.039  0.2068  0.2736  0.0052
  984MOL0     C29796  -2.738   1.910   5.180  0.1785  0.0090 -0.4130
  984MOL0     C29797  -2.884   1.882   5.211  1.0744 -0.2945  0.1153
  984MOL0     C29798  -2.919   1.946   5.348  0.0404 -0.4200 -0.3520
  984MOL0     C29799  -3.071   1.932   5.362 -0.3667  0.9616  0.0008
  984MOL0    Cl29800  -3.113   1.752   5.344  0.8295 -0.0013 -0.1088
  984MOL0     C29801  -2.216   1.646   4.573 -0.6476 -0.0820 -0.1042
  984MOL0     C29802  -2.102   1.637   4.495  0.0678  0.3296 -0.4367
  984MOL0     O29803  -1.950   1.853   4.272  0.1726 -0.4748  0.2787
  984MOL0     C29804  -1.631   1.702   4.279  0.5231  0.5196  0.4822
  984MOL0     C29805  -1.523   1.679   4.192 -0.1431  0.1645 -0.4891
  984MOL0     N29806  -0.698   1.620   3.916  0.3000  0.4704 -0.4862
  984MOL0     N29807  -0.596   1.696   3.894 -0.2440  0.1400  0.7632
  984MOL0     C29808   0.469   2.582   3.868 -0.9370 -0.5955  0.2711
  984MOL0     C29809   0.600   2.619   3.917  0.8581  0.7449  0.0618
  984MOL0     C29810   1.011   2.587   4.093 -0.7885 -1.0227  0.4210
  984MOL0     C29811   1.137   2.565   4.024  0.4095 -0.8205 -0.2447
  984MOL0     C29812   1.258   2.615   4.072 -0.6276  0.0794  0.1842
  984MOL0     C29813   1.264   2.671   4.199  0.2835  0.1950  0.2515
  984MOL0     O29814   1.387   2.711   4.244  0.4900 -0.7222  0.3862
  984MOL0     C29815   1.503   2.707   4.157 -0.3298  0.1988 -0.7412
  984MOL0     C29816   1.627   2.770   4.214  0.0663 -0.2557  0.1906
  984MOL0     C29817   1.766   2.716   4.164 -0.2812  0.0115 -0.7099
  984MOL0     C29818   1.783   2.773   4.020 -0.0715  0.2227 -0.5067
  984MOL0     C29819   1.840   2.907   4.016 -0.2900 -0.0278  0.3840
  984MOL0     C29820   1.878   3.022   3.987  0.1512  1.0732  0.6750
  984MOL0     C29821   1.150   2.666   4.276 -0.0296 -0.1316  0.6978
  984MOL0     C29822   1.017   2.639   4.223 -0.9825 -0.1907 -0.2558
  984MOL0     H29823   0.612   2.369   4.151 -0.1981  0.1925 -1.7345
  984MOL0     H29824   0.391   2.326   4.080 -1.1753 -0.3043 -0.8980
  984MOL0     H29825   0.150   2.363   4.017 -2.1898  0.1114 -1.0440
  984MOL0     H29826   0.249   2.261   3.896  3.9158  2.6924 -0.6724
  984MOL0     H29827   0.084   2.313   3.742 -0.8728 -1.7385 -1.1997
  984MOL0     H29828  -0.000   2.432   3.851 -1.3441 -1.2344  0.8332
  984MOL0     H29829  -0.068   2.250   3.986 -0.9441  1.1169 -1.1682
  984MOL0     H29830   0.037   2.132   3.906  1.8314  0.1738 -0.3919
  984MOL0     H29831  -0.223   2.259   3.803 -0.4308  0.0993  1.6699
  984MOL0     H29832  -0.110   2.178   3.699 -0.5414  2.8100 -0.9295
  984MOL0     H29833  -0.210   2.048   3.941 -2.0733  2.6314 -0.0787
  984MOL0     H29834  -0.137   1.974   3.798 -1.4952 -0.0040 -0.1336
  984MOL0     H29835  -0.324   2.037   3.654  1.9046 -0.4802  0.5081
  984MOL0     H29836  -0.405   2.117   3.788  0.6942  2.1262 -3.2902
  984MOL0     H29837  -0.369   1.816   3.735  1.5056  0.6779  0.3997
  984MOL0     H29838  -0.390   1.869   3.902  1.1870 -1.9163 -1.1319
  984MOL0     H29839  -0.594   1.940   3.675  0.3272 -0.0519  0.7461
  984MOL0     H29840  -0.589   1.999   3.838  2.6956  0.1267  1.7282
  984MOL0     H29841  -0.838   1.854   3.734  1.6100  0.3343 -1.0309
  984MOL0     H29842  -0.956   1.523   3.896 -0.0745 -0.1658 -0.7287
  984MOL0     H29843  -0.976   1.626   3.749 -0.3167  0.2296 -0.0525
  984MOL0     H29844  -1.025   1.824   3.904  2.0419 -0.7872  2.8382
  984MOL0     H29845  -1.057   1.720   4.035  0.2380 -0.7365 -0.3267
  984MOL0     H29846  -1.231   1.755   3.797 -0.0619 -1.0930  0.2980
  984MOL0     H29847  -1.219   1.592   3.873  0.2429 -0.3177  1.6975
  984MOL0     H29848  -1.303   1.852   3.986  0.2304 -0.5307 -0.4371
  984MOL0     H29849  -1.273   1.711   4.091  4.7083  0.1838 -0.8551
  984MOL0     H29850  -1.672   1.747   3.893 -0.5320  2.6636 -0.6090
  984MOL0     H29851  -1.856   1.810   4.042  2.1712  3.5873 -2.6405
  984MOL0     H29852  -1.961   1.931   4.572  1.2447  0.9764  3.4428
  984MOL0     H29853  -2.181   1.956   4.686 -0.6882  1.6632 -2.3447
  984MOL0     H29854  -2.371   1.944   4.802 -1.1135  0.6085 -0.3618
  984MOL0     H29855  -2.316   1.797   4.910 -1.8176  2.9073  3.5312
  984MOL0     H29856  -2.551   1.714   4.883 -0.6408  0.7410  2.4516
  984MOL0     H29857  -2.586   1.853   4.783  0.6170  0.6481 -0.2479
  984MOL0     H29858  -2.556   2.002   4.987 -3.1909  0.2673 -0.2748
  984MOL0     H29859  -2.495   1.853   5.079 -0.7239 -2.1801  0.0202
  984MOL0     H29860  -2.773   1.912   4.969 -2.2615 -0.8869  1.4537
  984MOL0     H29861  -2.722   1.754   5.029  0.9344  0.1854 -0.3552
  984MOL0     H29862  -2.724   2.019   5.183  1.6585 -0.1266 -1.1040
  984MOL0     H29863  -2.675   1.868   5.260 -0.9597 -0.1779  0.4053
  984MOL0     H29864  -2.885   1.772   5.208  2.2972 -0.3514 -3.6438
  984MOL0     H29865  -2.943   1.927   5.131  1.1176  1.5159  1.0654
  984MOL0     H29866  -2.866   1.897   5.430  1.6736  0.3819 -0.8961
  984MOL0     H29867  -2.890   2.050   5.367 -3.5030  0.4178  1.4255
  984MOL0     H29868  -3.119   1.998   5.289  0.8731  3.0106  0.9434
  984MOL0     H29869  -3.088   1.966   5.464  1.5320  1.3364  0.2339
  984MOL0     H29870  -2.291   1.568   4.578 -1.9565  1.1223 -0.2047
  984MOL0     H29871  -2.092   1.547   4.436 -2.1636 -0.2167 -0.0693
  984MOL0     H29872  -1.627   1.672   4.383 -1.3205 -1.8017 -0.0430
  984MOL0     H29873  -1.431   1.633   4.226  1.3802  2.3373 -1.4457
  984MOL0     H29874   0.421   2.628   3.783  0.5603 -0.1895 -0.3928
  984MOL0     H29875   0.646   2.706   3.870 -1.0919  0.9915 -1.5447
  984MOL0     H29876   1.129   2.529   3.922  1.4116  0.6334 -0.8753
  984MOL0     H29877   1.346   2.612   4.009 -1.5209  2.1524 -1.2799
  984MOL0     H29878   1.493   2.750   4.056  0.2191 -0.6379 -1.1612
  984MOL0     H29879   1.517   2.600   4.141 -0.0864 -0.0706  1.0915
  984MOL0     H29880   1.618   2.878   4.201  0.8438 -0.1017  0.8393
  984MOL0     H29881   1.637   2.753   4.322  1.8324  1.2454  0.3098
  984MOL0     H29882   1.776   2.608   4.156  1.8398  0.1480 -0.4625
  984MOL0     H29883   1.846   2.753   4.229 -2.3303  1.5035  1.1275
  984MOL0     H29884   1.842   2.707   3.956  1.7219  0.1252  1.1429
  984MOL0     H29885   1.690   2.782   3.964  1.3855 -0.2502 -3.1495
  984MOL0     H29886   1.902   3.122   3.956 -3.7924  1.9814  0.0721
  984MOL0     H29887   1.163   2.702   4.378  3.3526  0.9498  0.0079
  984MOL0     H29888   0.926   2.651   4.282 -2.8242 -0.8456 -2.8142
  985MOL0     O29889   2.208   4.502   8.762  0.6121  0.1337  0.0051
  985MOL0     C29890   2.300   4.448   8.702 -0.2928 -0.4933  1.0447
  985MOL0     O29891   2.279   4.346   8.613 -0.5775  0.0193 -0.7968
  985MOL0     C29892   2.148   4.313   8.571 -0.4875  0.1341  0.9974
  985MOL0     C29893   2.106   4.178   8.564  0.1210 -0.0380  0.4391
  985MOL0     C29894   1.986   4.149   8.508 -0.0958  0.2147  0.5493
  985MOL0     C29895   1.900   4.249   8.465  0.0079  0.4233 -0.1577
  985MOL0     O29896   1.782   4.198   8.417 -0.3890 -0.2992 -0.5406
  985MOL0     C29897   1.663   4.269   8.439  0.3779  0.4725  0.6308
  985MOL0     C29898   1.552   4.230   8.347  0.7762 -0.2333  0.5940
  985MOL0     C29899   1.418   4.288   8.397 -1.1490 -0.2205  0.0176
  985MOL0     C29900   1.306   4.246   8.299  0.4611  0.0950  0.2987
  985MOL0     C29901   1.167   4.251   8.360  0.5251  0.8381 -0.0844
  985MOL0     C29902   1.154   4.167   8.490 -0.4533 -0.6781  0.1458
  985MOL0     C29903   1.013   4.131   8.528 -0.0736  0.2545  0.1594
  985MOL0     C29904   0.912   4.247   8.557 -0.5469  0.1349  0.5236
  985MOL0     N29905   0.926   4.322   8.689 -0.1442  0.1592 -0.5612
  985MOL0     C29906   0.998   4.431   8.712  1.3431 -0.2372  0.4561
  985MOL0     C29907   0.987   4.459   8.845 -0.1619  0.1350  0.2729
  985MOL0     C29908   1.075   4.559   8.917  0.1777  0.0951 -0.0349
  985MOL0     C29909   1.201   4.496   8.977  0.2975 -1.2159 -0.6362
  985MOL0     C29910   1.161   4.385   9.081  0.0521 -0.8047  0.3110
  985MOL0     C29911   1.259   4.365   9.186 -0.2401  0.4037 -1.1813
  985MOL0     O29912   1.373   4.294   9.131  0.1393 -0.0412  0.2800
  985MOL0     C29913   1.481   4.244   9.203 -0.0275 -0.6623 -0.1176
  985MOL0     C29914   1.491   4.259   9.343  0.2319  0.4296  0.3704
  985MOL0     C29915   1.595   4.204   9.411 -0.5936  0.0357  0.0574
  985MOL0     C29916   1.711   4.155   9.336  0.3338  0.4324  1.3867
  985MOL0     C29917   1.826   4.099   9.402  0.5802 -0.3040  0.0278
  985MOL0     O29918   1.819   4.098   9.536 -0.4982  0.0888 -0.6019
  985MOL0     C29919   1.928   4.065   9.608  0.2034 -0.5973  0.3928
  985MOL0     C29920   2.030   4.159   9.626 -0.0418 -0.0918 -0.7154
  985MOL0     C29921   2.119   4.136   9.723  2.0523  0.5655 -0.5413
  985MOL0     C29922   2.116   4.016   9.800 -0.1721 -0.1927  0.7031
  985MOL0     O29923   2.213   3.998   9.895  0.0880  1.0104 -0.3668
  985MOL0     C29924   2.251   3.867   9.928  0.3303  0.1193 -0.0141
  985MOL0     C29925   2.363   3.856  10.025  0.2400 -0.2235  0.2729
  985MOL0     C29926   2.500   3.908  10.000 -0.3818  0.0943  0.6829
  985MOL0     C29927   2.570   3.809   9.914 -0.2100  0.0641  0.6679
  985MOL0     C29928   2.716   3.837   9.880  0.5001  0.5168  0.7426
  985MOL0     C29929   2.738   3.903   9.741  0.0569  0.2574  0.5522
  985MOL0     C29930   2.885   3.922   9.712 -0.1904 -0.1346  0.7059
  985MOL0     C29931   2.906   3.979   9.567  0.0033  0.7726  0.1078
  985MOL0    Cl29932   2.804   4.127   9.557 -0.3044 -0.2306 -0.3379
  985MOL0     C29933   2.023   3.913   9.768  0.0444  0.2848 -0.2568
  985MOL0     C29934   1.918   3.947   9.680  0.6575 -0.4859 -0.1081
  985MOL0     O29935   1.917   4.047   9.339 -0.5609  0.2030  0.1390
  985MOL0     C29936   1.696   4.126   9.198 -0.0029 -0.0606 -0.1291
  985MOL0     C29937   1.579   4.172   9.133 -0.0490 -0.1932  0.3455
  985MOL0     N29938   0.900   4.367   8.902  0.1904  0.2661 -0.7231
  985MOL0     N29939   0.858   4.288   8.798  0.7579 -0.3984 -0.5002
  985MOL0     C29940   1.935   4.384   8.466 -1.2176 -0.1500 -0.8426
  985MOL0     C29941   2.065   4.418   8.520 -1.0780  0.6059  0.0351
  985MOL0     C29942   2.438   4.500   8.711  0.3155  0.4133 -0.2231
  985MOL0     C29943   2.453   4.630   8.763  0.9083  0.7111  0.4317
  985MOL0     C29944   2.583   4.667   8.792 -0.6421 -0.5336  0.0149
  985MOL0     C29945   2.693   4.583   8.775 -0.6799 -0.0112 -0.2003
  985MOL0     O29946   2.815   4.635   8.823 -0.3039  0.0499  0.1921
  985MOL0     C29947   2.939   4.562   8.820  0.0161 -0.0530  0.6902
  985MOL0     C29948   3.044   4.657   8.864 -0.3442 -0.0214  0.8009
  985MOL0     C29949   3.170   4.586   8.894  0.2646  0.3788  0.2095
  985MOL0     C29950   3.217   4.485   8.791 -0.4459 -0.7438 -0.0087
  985MOL0     C29951   3.278   4.544   8.666  1.0179  0.4538  0.7097
  985MOL0     C29952   3.313   4.585   8.557 -0.8154  0.6717 -0.6929
  985MOL0     C29953   2.672   4.456   8.715  0.3142 -0.1922 -0.7939
  985MOL0     C29954   2.548   4.410   8.688  0.5119 -0.7166  0.0948
  985MOL0     H29955   2.170   4.099   8.601  1.2790  0.6476 -0.0286
  985MOL0     H29956   1.959   4.044   8.500  0.3315  0.1625 -0.3096
  985MOL0     H29957   1.675   4.375   8.415  0.8596  0.2662 -0.0709
  985MOL0     H29958   1.634   4.250   8.543  1.4110 -0.7809  0.7091
  985MOL0     H29959   1.551   4.121   8.354  1.9242 -0.1941  1.8084
  985MOL0     H29960   1.576   4.257   8.244  0.8247 -0.9726  0.4035
  985MOL0     H29961   1.417   4.397   8.396  1.3828 -0.1177 -1.3610
  985MOL0     H29962   1.404   4.248   8.498  1.9686  2.2470  1.6183
  985MOL0     H29963   1.310   4.323   8.221 -1.5959  0.6549  0.7029
  985MOL0     H29964   1.328   4.146   8.261  0.1289  0.0866  0.1349
  985MOL0     H29965   1.101   4.212   8.282  3.3322 -1.2797 -1.5784
  985MOL0     H29966   1.137   4.353   8.385 -0.9855 -0.1300  2.4654
  985MOL0     H29967   1.199   4.229   8.568 -1.3288  1.3454 -0.8882
  985MOL0     H29968   1.223   4.082   8.481  1.2671  0.8366 -2.3405
  985MOL0     H29969   0.976   4.073   8.443 -1.2655  1.7486 -0.3840
  985MOL0     H29970   1.015   4.067   8.617 -0.7810  0.6470  0.4689
  985MOL0     H29971   0.810   4.213   8.533 -0.9966  1.7722 -0.0404
  985MOL0     H29972   0.941   4.317   8.478 -1.3853 -0.7944 -0.6434
  985MOL0     H29973   1.052   4.492   8.640  0.1046  0.3682  0.0104
  985MOL0     H29974   1.012   4.604   8.994  0.2645  1.5255 -0.7584
  985MOL0     H29975   1.119   4.637   8.854  1.3807 -1.6409 -1.4418
  985MOL0     H29976   1.247   4.583   9.024 -2.3131 -0.4224  0.6670
  985MOL0     H29977   1.263   4.455   8.898 -0.0499  0.7582 -1.9901
  985MOL0     H29978   1.071   4.406   9.140  0.0342 -3.4695  1.3644
  985MOL0     H29979   1.139   4.294   9.025 -1.7909 -0.6645  0.7356
  985MOL0     H29980   1.205   4.301   9.256 -1.9870  1.7228 -1.2536
  985MOL0     H29981   1.288   4.458   9.234  0.5100  1.1863 -3.0592
  985MOL0     H29982   1.418   4.312   9.402  0.4571  1.8703 -0.6043
  985MOL0     H29983   1.619   4.213   9.517  2.6318  0.7107 -0.6206
  985MOL0     H29984   2.029   4.251   9.569 -0.9809  1.0149  1.0037
  985MOL0     H29985   2.193   4.211   9.751  2.8279 -0.7683  1.1402
  985MOL0     H29986   2.275   3.822   9.831  2.7618  1.8255 -0.2904
  985MOL0     H29987   2.169   3.806   9.968 -0.8360  0.4126 -1.8273
  985MOL0     H29988   2.372   3.750  10.050 -2.0023 -0.1051  1.8710
  985MOL0     H29989   2.326   3.912  10.111  2.4569  1.8934 -0.0289
  985MOL0     H29990   2.554   3.918  10.094 -0.4005 -1.2224  0.8488
  985MOL0     H29991   2.488   4.007   9.954 -2.0064  0.6822  2.2354
  985MOL0     H29992   2.572   3.719   9.976  0.2686  0.8326  1.8132
  985MOL0     H29993   2.511   3.786   9.825  2.5882  2.6518 -2.0453
  985MOL0     H29994   2.750   3.733   9.882  1.1716  0.7312  0.6533
  985MOL0     H29995   2.768   3.887   9.962  1.3517 -1.6952  1.6382
  985MOL0     H29996   2.688   3.999   9.754  1.8396  1.3249 -0.0710
  985MOL0     H29997   2.696   3.842   9.661  0.4567 -0.4901  0.9006
  985MOL0     H29998   2.908   4.003   9.782 -3.3905  0.2330  1.5043
  985MOL0     H29999   2.938   3.828   9.731  0.6313  0.7388  3.0716
  985MOL0     H30000   2.883   3.903   9.492  0.5726  1.0046 -0.3152
  985MOL0     H30001   3.014   3.994   9.553  0.5799 -2.0928  0.8005
  985MOL0     H30002   2.031   3.811   9.804 -0.6477  0.5345  0.6343
  985MOL0     H30003   1.849   3.866   9.662 -1.6708  0.6916  2.7962
  985MOL0     H30004   1.764   4.071   9.133 -1.1123  0.7754 -2.1173
  985MOL0     H30005   1.570   4.153   9.026  0.5524 -2.0695  0.5776
  985MOL0     H30006   1.867   4.460   8.431 -1.3130 -0.5864 -1.6143
  985MOL0     H30007   2.097   4.521   8.525 -0.3041  0.4048 -0.5439
  985MOL0     H30008   2.368   4.687   8.799  0.4184 -0.9728  2.0949
  985MOL0     H30009   2.603   4.765   8.835  0.0390 -0.0275 -1.3967
  985MOL0     H30010   2.957   4.537   8.715  2.5635  1.1696  0.7800
  985MOL0     H30011   2.933   4.471   8.879  0.6303 -0.8193 -0.3887
  985MOL0     H30012   3.051   4.734   8.785  1.1392 -1.1640 -0.2498
  985MOL0     H30013   3.019   4.699   8.961  2.3252  1.1596  1.0616
  985MOL0     H30014   3.164   4.529   8.988 -1.9579 -0.0308 -0.1352
  985MOL0     H30015   3.247   4.663   8.902  0.7809 -0.1623  0.6313
  985MOL0     H30016   3.295   4.423   8.838  1.2867 -0.0286 -1.7885
  985MOL0     H30017   3.139   4.411   8.770  0.8635 -2.7792  1.8248
  985MOL0     H30018   3.346   4.621   8.461 -2.3971 -2.9218 -2.8084
  985MOL0     H30019   2.754   4.385   8.714  0.0890 -0.4697 -0.0982
  985MOL0     H30020   2.539   4.307   8.653 -0.6831 -0.4114 -0.5514
  986MOL0     O30021   3.680   9.913   0.701 -0.1536 -0.3171  0.1643
  986MOL0     C30022   3.743   9.844   0.622  0.5569 -0.5819  0.4007
  986MOL0     O30023   3.875   9.840   0.611 -0.0798 -0.1586 -0.3813
  986MOL0     C30024   3.957   9.924   0.680 -0.1676 -0.0108  0.8274
  986MOL0     C30025   4.081   9.870   0.698 -0.1318 -0.0703  0.7898
  986MOL0     C30026   4.174   9.940   0.775 -0.4017  1.1259  0.1840
  986MOL0     C30027   4.147  10.066   0.837  0.6246  0.5968 -0.2346
  986MOL0     O30028   4.233  10.127   0.931 -0.2714 -0.2275  0.0492
  986MOL0     C30029   4.363  10.143   0.879  0.4118 -0.1673 -0.4640
  986MOL0     C30030   4.438  10.222   0.982 -0.4079  0.5182  0.2649
  986MOL0     C30031   4.452  10.154   1.118 -0.2455 -0.4838  0.7294
  986MOL0     C30032   4.520  10.234   1.228  0.0153 -0.2008 -0.9914
  986MOL0     C30033   4.561  10.131   1.338  0.0640  0.0480  0.5858
  986MOL0     C30034   4.433  10.069   1.404  0.3085 -0.6576 -0.5341
  986MOL0     C30035   4.459   9.957   1.507 -0.5797  0.3874  0.6643
  986MOL0     C30036   4.335   9.895   1.568 -0.2317  0.2274  0.2098
  986MOL0     N30037   4.229   9.985   1.620  0.2259  0.4630  1.0739
  986MOL0     C30038   4.225  10.053   1.737  0.6577 -0.4040 -0.9704
  986MOL0     C30039   4.112  10.130   1.722  0.4265 -0.2432  0.1019
  986MOL0     C30040   4.069  10.233   1.823 -0.7720  0.0524 -0.1023
  986MOL0     C30041   4.040  10.175   1.964  0.5665 -0.8133 -0.0457
  986MOL0     C30042   3.999  10.296   2.056  0.8044 -0.3964  0.6677
  986MOL0     C30043   4.001  10.272   2.212  0.3690  0.6687  0.5728
  986MOL0     O30044   3.931  10.386   2.268  0.6512  0.0664  0.1587
  986MOL0     C30045   3.793  10.382   2.302 -0.4470  0.1208  0.5423
  986MOL0     C30046   3.760  10.452   2.408  0.2395  0.2052 -0.1283
  986MOL0     C30047   3.624  10.455   2.452 -0.4324 -0.1079  0.2276
  986MOL0     C30048   3.525  10.390   2.372 -0.1409 -0.2878 -0.0209
  986MOL0     C30049   3.379  10.413   2.399 -0.5327  0.0959  0.2221
  986MOL0     O30050   3.291  10.374   2.308  0.0600 -0.7757 -0.6226
  986MOL0     C30051   3.160  10.416   2.324 -0.8639 -0.5904 -0.1083
  986MOL0     C30052   3.079  10.351   2.411 -0.1630  0.4271  0.0936
  986MOL0     C30053   2.949  10.398   2.443  0.5406 -0.2346 -0.4807
  986MOL0     C30054   2.902  10.516   2.378  0.8702  0.0134 -0.4319
  986MOL0     O30055   2.771  10.552   2.409  0.0212  0.5224 -0.3328
  986MOL0     C30056   2.704  10.632   2.317 -0.3482  0.1896 -0.0323
  986MOL0     C30057   2.561  10.621   2.322 -0.0521  0.0841 -1.1601
  986MOL0     C30058   2.502  10.691   2.191 -0.1961 -0.2310  0.0629
  986MOL0     C30059   2.356  10.725   2.205 -0.4598  0.3666 -0.3721
  986MOL0     C30060   2.294  10.766   2.074 -0.0136  0.6112  0.6381
  986MOL0     C30061   2.147  10.739   2.092  0.3198 -0.3927 -0.3718
  986MOL0     C30062   2.087  10.809   1.978  0.2684 -0.7476  0.5031
  986MOL0     C30063   1.929  10.810   1.985 -0.1477 -0.0100 -0.0328
  986MOL0    Cl30064   1.870  10.872   2.139 -0.2245 -0.1385  0.0618
  986MOL0     C30065   2.990  10.584   2.299  0.2918  0.3487 -0.2261
  986MOL0     C30066   3.118  10.541   2.270 -0.5900 -0.2858  0.5585
  986MOL0     O30067   3.352  10.471   2.503 -0.3242 -0.1541 -0.4008
  986MOL0     C30068   3.562  10.326   2.255 -0.3148 -0.0920  0.3707
  986MOL0     C30069   3.695  10.316   2.224  0.5403 -0.4751  0.1831
  986MOL0     N30070   4.036  10.101   1.609 -0.0241  0.6454  0.7231
  986MOL0     N30071   4.111  10.009   1.553  0.1820 -0.7187 -0.3219
  986MOL0     C30072   4.016  10.122   0.802 -0.2245  0.1845  1.1330
  986MOL0     C30073   3.921  10.046   0.732  0.2651  0.3535  0.4140
  986MOL0     C30074   3.666   9.753   0.539  1.0353  0.2053  0.0990
  986MOL0     C30075   3.722   9.649   0.458 -0.3752  0.1906  0.8245
  986MOL0     C30076   3.653   9.549   0.392 -0.3785 -0.2518  0.3159
  986MOL0     C30077   3.516   9.549   0.405 -1.3306 -1.0042  0.2259
  986MOL0     O30078   3.445   9.458   0.336  0.2578 -0.7768 -0.3887
  986MOL0     C30079   3.310   9.491   0.295  0.5240  0.2721 -0.7036
  986MOL0     C30080   3.265   9.395   0.177 -0.4040  0.2278 -0.0120
  986MOL0     C30081   3.372   9.358   0.079  0.5622  0.0260  0.5442
  986MOL0     C30082   3.320   9.255  -0.030  0.1625 -0.0171 -0.5081
  986MOL0     C30083   3.190   9.276  -0.101 -0.4639 -0.1682 -0.1966
  986MOL0     C30084   3.097   9.281  -0.179  0.3954 -0.1123  0.0664
  986MOL0     C30085   3.455   9.648   0.489 -0.3418 -0.7708  0.7071
  986MOL0     C30086   3.527   9.749   0.551  0.7301 -0.1328 -0.3063
  986MOL0     H30087   4.122   9.793   0.633 -0.3624  1.0039 -0.6819
  986MOL0     H30088   4.272   9.897   0.792 -1.0616 -0.7969 -0.6422
  986MOL0     H30089   4.356  10.192   0.781 -1.1145  1.1818  0.2636
  986MOL0     H30090   4.406  10.042   0.877 -0.5615 -0.7575  2.8116
  986MOL0     H30091   4.398  10.324   0.984  1.2428  1.3588 -2.7235
  986MOL0     H30092   4.540  10.234   0.944 -0.1462 -0.7791  0.5158
  986MOL0     H30093   4.519  10.068   1.103  1.0002  0.6402 -0.4567
  986MOL0     H30094   4.357  10.110   1.148 -0.7240 -0.7769 -1.0814
  986MOL0     H30095   4.606  10.290   1.190  2.9549 -2.8262  1.1883
  986MOL0     H30096   4.452  10.309   1.269  2.0742  0.8559  0.7131
  986MOL0     H30097   4.623  10.183   1.411 -2.2402  1.1370  1.8781
  986MOL0     H30098   4.627  10.056   1.294 -3.9825 -3.2747 -0.5147
  986MOL0     H30099   4.375  10.020   1.325  1.1165 -1.3558 -0.7215
  986MOL0     H30100   4.382  10.153   1.451 -0.9785 -1.6160 -0.1576
  986MOL0     H30101   4.515   9.873   1.467  0.2294  0.5044  1.5238
  986MOL0     H30102   4.515   9.992   1.595  0.3844  0.0860  0.1784
  986MOL0     H30103   4.367   9.819   1.640  2.2288  1.3267  0.4034
  986MOL0     H30104   4.285   9.849   1.483  0.9382 -1.7175  0.5102
  986MOL0     H30105   4.299  10.066   1.816  3.4603  0.7664 -3.5908
  986MOL0     H30106   3.979  10.286   1.790  1.4614  3.4298 -1.3037
  986MOL0     H30107   4.138  10.317   1.829  0.2909 -0.8460  0.4921
  986MOL0     H30108   4.126  10.127   2.011  0.6283 -1.1253 -0.4703
  986MOL0     H30109   3.953  10.109   1.975 -2.2089  2.2307 -1.9170
  986MOL0     H30110   4.069  10.379   2.039 -0.2143  0.4892  0.6402
  986MOL0     H30111   3.905  10.346   2.029 -0.8386 -2.7526  1.7055
  986MOL0     H30112   4.103  10.284   2.249  0.2423  1.6553  0.6410
  986MOL0     H30113   3.965  10.178   2.254  1.8802  1.0521  2.9423
  986MOL0     H30114   3.843  10.496   2.462  0.9813 -2.8676  1.5209
  986MOL0     H30115   3.607  10.512   2.542  2.9893  0.1028  0.8613
  986MOL0     H30116   3.136  10.287   2.478  2.3069 -0.0159 -2.2899
  986MOL0     H30117   2.883  10.349   2.514  0.8448 -2.1137 -1.4241
  986MOL0     H30118   2.736  10.617   2.214  2.4899  1.9158  0.4969
  986MOL0     H30119   2.733  10.733   2.347 -4.8572  1.5440  0.5480
  986MOL0     H30120   2.535  10.673   2.415  3.8780 -3.1713  2.1889
  986MOL0     H30121   2.530  10.517   2.337 -0.6338 -0.2187 -4.0301
  986MOL0     H30122   2.516  10.623   2.107  1.1149 -1.5173  1.2586
  986MOL0     H30123   2.547  10.788   2.167  0.5624  0.1338  2.5901
  986MOL0     H30124   2.309  10.633   2.241  0.3664 -0.2801 -0.8769
  986MOL0     H30125   2.339  10.805   2.277  0.7096 -0.9374  1.4629
  986MOL0     H30126   2.339  10.707   1.994 -1.4108  1.1231 -0.5627
  986MOL0     H30127   2.320  10.868   2.043  1.9749  0.3139  1.1927
  986MOL0     H30128   2.122  10.792   2.185  0.2689 -1.5159  0.2741
  986MOL0     H30129   2.115  10.635   2.104 -1.2858  0.0346 -0.6308
  986MOL0     H30130   2.118  10.914   1.983  0.1145 -0.5109 -2.2471
  986MOL0     H30131   2.124  10.768   1.884  0.1289  0.9109 -0.3129
  986MOL0     H30132   1.895  10.707   1.966  4.1712 -1.9384  1.2399
  986MOL0     H30133   1.896  10.871   1.900  6.0310  1.4795 -1.9151
  986MOL0     H30134   2.962  10.679   2.254 -2.5565  2.1511  4.5909
  986MOL0     H30135   3.182  10.588   2.196 -1.2969 -1.7256 -1.0599
  986MOL0     H30136   3.485  10.282   2.191 -0.8235  0.5408  0.5374
  986MOL0     H30137   3.720  10.274   2.127 -2.7737 -2.7482  0.1426
  986MOL0     H30138   3.988  10.224   0.826 -0.0421  1.0289 -1.8450
  986MOL0     H30139   3.827  10.089   0.699 -0.9561 -3.7548 -2.2864
  986MOL0     H30140   3.829   9.634   0.447 -0.5629 -2.3935  1.7936
  986MOL0     H30141   3.707   9.487   0.320 -0.2756  0.3677 -0.1504
  986MOL0     H30142   3.299   9.597   0.271  3.2815  0.6058 -0.8674
  986MOL0     H30143   3.245   9.470   0.380 -1.4242 -0.6386 -2.3312
  986MOL0     H30144   3.231   9.302   0.224  0.4078  1.6786  3.8447
  986MOL0     H30145   3.181   9.445   0.128  0.9309  2.1016 -0.5113
  986MOL0     H30146   3.463   9.327   0.131  0.3556  2.0682  2.2478
  986MOL0     H30147   3.396   9.456   0.038  1.8021  0.5342  2.3768
  986MOL0     H30148   3.389   9.259  -0.115  0.8873  2.5059  0.1295
  986MOL0     H30149   3.321   9.155   0.015 -0.3679  0.4454  0.5755
  986MOL0     H30150   3.016   9.279  -0.250  0.2269  0.1200  0.2512
  986MOL0     H30151   3.350   9.652   0.517  0.1580 -1.5063  2.8971
  986MOL0     H30152   3.481   9.827   0.610  2.6332  0.4821  0.4316
  987MOL0     O30153   2.707   7.375   7.980  0.3710  1.1146  0.1178
  987MOL0     C30154   2.779   7.352   8.075  0.9681 -0.3365  0.1287
  987MOL0     O30155   2.752   7.248   8.158  0.5685 -0.0892  0.1645
  987MOL0     C30156   2.634   7.180   8.168  0.4364 -0.4984 -0.1337
  987MOL0     C30157   2.552   7.153   8.054  1.0564 -0.3933  0.4436
  987MOL0     C30158   2.427   7.081   8.062 -0.4807  0.3357  0.3496
  987MOL0     C30159   2.401   7.024   8.185  0.3897  0.4204 -0.2578
  987MOL0     O30160   2.281   6.960   8.210  0.3493 -0.1793  0.1062
  987MOL0     C30161   2.176   6.950   8.104 -0.0231  0.3969 -0.3199
  987MOL0     C30162   2.057   6.894   8.174  0.8487  0.4786 -0.3175
  987MOL0     C30163   1.954   6.870   8.061 -0.5104 -0.4583 -0.3063
  987MOL0     C30164   1.821   6.818   8.123  0.3654  0.0563 -0.5531
  987MOL0     C30165   1.710   6.909   8.068 -0.5682 -0.4372 -0.7939
  987MOL0     C30166   1.574   6.890   8.141  0.0024 -0.4312  0.4744
  987MOL0     C30167   1.463   6.965   8.082 -0.7227 -0.0007 -0.1523
  987MOL0     C30168   1.337   6.939   8.165  0.0036  0.3717 -0.0152
  987MOL0     N30169   1.247   7.050   8.119  0.3774  0.1701 -0.0667
  987MOL0     C30170   1.153   7.050   8.017 -0.1740 -0.2153 -0.1139
  987MOL0     C30171   1.083   7.162   8.028  0.4031  0.6424  0.5415
  987MOL0     C30172   0.959   7.184   7.955  0.7119  0.1964  0.1427
  987MOL0     C30173   0.846   7.183   8.054 -0.4424 -0.0228  0.4225
  987MOL0     C30174   0.718   7.264   8.007 -0.6662 -0.1006  0.2548
  987MOL0     C30175   0.741   7.416   7.974 -0.2401 -0.9768  0.2660
  987MOL0     O30176   0.618   7.479   7.996 -0.6155  0.0879 -0.0232
  987MOL0     C30177   0.524   7.483   7.898  0.1163  0.5524  0.4420
  987MOL0     C30178   0.409   7.545   7.925 -0.6475 -0.0740 -0.2120
  987MOL0     C30179   0.302   7.541   7.841 -0.1522 -0.0741 -0.0180
  987MOL0     C30180   0.296   7.490   7.712  0.0720 -0.2595  0.4027
  987MOL0     C30181   0.183   7.502   7.619 -0.2860 -0.3251 -1.2524
  987MOL0     O30182   0.055   7.519   7.676 -0.3614 -0.4713 -0.4647
  987MOL0     C30183  -0.054   7.523   7.599 -0.3373  0.5988 -0.4633
  987MOL0     C30184  -0.080   7.639   7.513 -0.8962 -0.5291 -0.3198
  987MOL0     C30185  -0.201   7.664   7.458  0.4882  0.5914  0.3522
  987MOL0     C30186  -0.306   7.571   7.481  0.0506 -0.2210 -0.1763
  987MOL0     O30187  -0.436   7.580   7.424  0.2862 -0.8528 -0.2169
  987MOL0     C30188  -0.491   7.713   7.415  0.3723 -0.3366  0.9407
  987MOL0     C30189  -0.648   7.700   7.402  0.1455  0.1722  0.6217
  987MOL0     C30190  -0.727   7.825   7.406 -0.2465 -0.2989 -0.6251
  987MOL0     C30191  -0.865   7.807   7.354  0.5315 -0.5464 -0.3165
  987MOL0     C30192  -0.955   7.932   7.379 -0.8116  0.0813  0.2004
  987MOL0     C30193  -1.102   7.885   7.394  0.3088 -0.2709  0.3410
  987MOL0     C30194  -1.198   7.998   7.370 -0.5161 -0.6806 -0.4731
  987MOL0     C30195  -1.210   8.083   7.493  0.1190  0.4721 -0.1462
  987MOL0    Cl30196  -1.298   8.223   7.451 -0.1836 -0.2511  0.4105
  987MOL0     C30197  -0.286   7.462   7.569 -0.6654  0.0183 -0.0808
  987MOL0     C30198  -0.167   7.442   7.628 -0.4669 -0.0384  0.2334
  987MOL0     O30199   0.214   7.499   7.501  0.3048  0.1886 -0.6333
  987MOL0     C30200   0.413   7.422   7.677 -0.5956 -0.5520 -0.1126
  987MOL0     C30201   0.524   7.425   7.771  0.2630 -0.0807  0.1877
  987MOL0     N30202   1.137   7.245   8.129  0.6305  0.6148 -0.0564
  987MOL0     N30203   1.236   7.175   8.178  0.9267 -0.1910 -0.0989
  987MOL0     C30204   2.495   7.038   8.302  0.7965 -0.2376  0.9794
  987MOL0     C30205   2.605   7.118   8.290  0.0763 -0.5051  0.4127
  987MOL0     C30206   2.889   7.446   8.118 -0.1185 -0.6915 -0.5971
  987MOL0     C30207   2.887   7.587   8.088 -0.2489 -0.0889 -0.2154
  987MOL0     C30208   2.996   7.665   8.134 -0.5739  0.0637  1.1393
  987MOL0     C30209   3.103   7.617   8.203  0.3386 -0.3295 -0.5585
  987MOL0     O30210   3.221   7.675   8.236  0.6988 -0.9159 -0.3184
  987MOL0     C30211   3.259   7.799   8.176 -0.8699 -0.0587 -0.1725
  987MOL0     C30212   3.279   7.775   8.019  0.2573 -0.0447 -0.5411
  987MOL0     C30213   3.385   7.667   7.980 -0.1152  0.2373 -0.3068
  987MOL0     C30214   3.523   7.724   7.958  0.5308  0.3475  0.4053
  987MOL0     C30215   3.628   7.628   7.968 -0.0136 -0.4849  0.4724
  987MOL0     C30216   3.719   7.552   8.002  0.2659 -0.8561 -0.6898
  987MOL0     C30217   3.099   7.485   8.237  0.4596 -0.4673  0.2569
  987MOL0     C30218   3.000   7.404   8.192  0.3136 -0.2455  0.0377
  987MOL0     H30219   2.560   7.189   7.952 -1.7870  0.6591  0.5054
  987MOL0     H30220   2.364   7.079   7.974  0.9384 -0.6582 -0.6774
  987MOL0     H30221   2.202   6.872   8.032 -1.3961 -0.2269 -0.1765
  987MOL0     H30222   2.149   7.045   8.058 -0.2516  0.6704  0.3700
  987MOL0     H30223   2.022   6.970   8.244 -1.8586  0.7644 -1.8592
  987MOL0     H30224   2.079   6.804   8.232  1.9448 -0.3167 -1.8913
  987MOL0     H30225   1.995   6.803   7.984 -0.2296 -0.1683 -0.4132
  987MOL0     H30226   1.931   6.966   8.013  0.0883  0.0938  0.4832
  987MOL0     H30227   1.807   6.716   8.087 -2.9847  0.3031 -0.2265
  987MOL0     H30228   1.830   6.823   8.232  0.9704  1.8710 -0.6451
  987MOL0     H30229   1.691   6.884   7.963 -1.6656  2.5248 -1.4024
  987MOL0     H30230   1.734   7.015   8.081  2.4016 -1.1181  0.0889
  987MOL0     H30231   1.588   6.916   8.246 -1.1865 -3.9953  1.6875
  987MOL0     H30232   1.538   6.786   8.142  1.3884 -0.9420  0.5403
  987MOL0     H30233   1.493   7.069   8.069  0.9864 -0.5843 -1.1704
  987MOL0     H30234   1.454   6.924   7.981 -0.4742  2.6035 -1.3063
  987MOL0     H30235   1.362   6.942   8.271  2.6530 -2.6495 -0.3499
  987MOL0     H30236   1.298   6.840   8.141  2.1220 -0.5442  0.0478
  987MOL0     H30237   1.138   6.969   7.947 -1.7495 -1.2800  1.3915
  987MOL0     H30238   0.943   7.102   7.884 -1.1500  1.7590 -1.3840
  987MOL0     H30239   0.970   7.280   7.903  0.7545  0.2060  0.1693
  987MOL0     H30240   0.882   7.235   8.143 -3.1658  0.6679  1.2193
  987MOL0     H30241   0.812   7.087   8.093 -0.2840  0.5409  2.0091
  987MOL0     H30242   0.685   7.216   7.914  0.5978  2.4149 -1.6124
  987MOL0     H30243   0.645   7.262   8.088 -1.7225  0.8584 -0.6384
  987MOL0     H30244   0.781   7.430   7.873  0.9438  3.5177  1.1404
  987MOL0     H30245   0.804   7.464   8.049 -1.9837 -1.5581  2.2053
  987MOL0     H30246   0.409   7.596   8.021 -1.0193  0.2121 -0.3580
  987MOL0     H30247   0.207   7.577   7.880 -0.9583 -2.6929  0.6983
  987MOL0     H30248   0.012   7.695   7.501 -1.7477  0.4349 -3.2992
  987MOL0     H30249  -0.216   7.752   7.396  1.5734 -0.6876 -1.8001
  987MOL0     H30250  -0.454   7.769   7.329 -2.0614 -0.2938 -0.1795
  987MOL0     H30251  -0.467   7.759   7.511  0.2520 -3.2936  2.5059
  987MOL0     H30252  -0.678   7.635   7.485 -0.2312 -0.7551 -0.2196
  987MOL0     H30253  -0.675   7.641   7.314 -1.8431  0.9304  0.6687
  987MOL0     H30254  -0.678   7.891   7.333 -0.1857 -1.4869 -1.7061
  987MOL0     H30255  -0.726   7.872   7.505 -0.3192 -3.6720  1.1112
  987MOL0     H30256  -0.858   7.788   7.247  2.1214  0.3160 -0.3937
  987MOL0     H30257  -0.905   7.717   7.403  2.2861 -1.3090 -0.1886
  987MOL0     H30258  -0.944   7.988   7.286 -1.2572 -0.4146 -0.1533
  987MOL0     H30259  -0.923   7.989   7.467 -0.5015 -1.7432  1.3087
  987MOL0     H30260  -1.127   7.850   7.495  0.3233  0.6518  0.6671
  987MOL0     H30261  -1.130   7.802   7.328 -1.0780 -0.0380  0.6200
  987MOL0     H30262  -1.160   8.059   7.288  1.4768 -0.5130  0.5230
  987MOL0     H30263  -1.294   7.952   7.343 -1.5581  1.2667 -0.2972
  987MOL0     H30264  -1.114   8.113   7.537  1.7561 -1.5048 -2.1133
  987MOL0     H30265  -1.268   8.035   7.572 -2.7240  0.1371 -2.2990
  987MOL0     H30266  -0.360   7.384   7.585  1.4758 -1.9406  0.8680
  987MOL0     H30267  -0.161   7.372   7.711 -1.1179 -1.5468 -0.9282
  987MOL0     H30268   0.436   7.378   7.580  0.7286 -1.1441  0.4458
  987MOL0     H30269   0.607   7.366   7.734 -0.7882 -0.7764 -1.1320
  987MOL0     H30270   2.464   6.993   8.396  1.0410  0.6091  1.4723
  987MOL0     H30271   2.672   7.139   8.373 -0.0599 -0.1392  0.4361
  987MOL0     H30272   2.816   7.629   8.018 -0.8503 -1.6276 -0.5886
  987MOL0     H30273   2.992   7.770   8.107  1.0473 -0.1088  0.1142
  987MOL0     H30274   3.357   7.825   8.216 -0.8552  2.2928 -1.5229
  987MOL0     H30275   3.198   7.887   8.200 -0.0930 -0.0083  1.8126
  987MOL0     H30276   3.184   7.748   7.973 -0.9213 -0.6331  2.0618
  987MOL0     H30277   3.299   7.871   7.971  0.8508 -0.3716 -0.9578
  987MOL0     H30278   3.359   7.624   7.883  2.0735 -3.0780  0.4236
  987MOL0     H30279   3.384   7.598   8.065 -0.2577  2.9522  2.0727
  987MOL0     H30280   3.541   7.769   7.860  1.7676  1.1010  0.9506
  987MOL0     H30281   3.546   7.806   8.026  0.5879 -0.7479  1.7468
  987MOL0     H30282   3.796   7.485   8.033 -0.9095 -1.5812  0.8369
  987MOL0     H30283   3.183   7.441   8.290  0.0240  0.4322  1.7778
  987MOL0     H30284   3.010   7.299   8.216 -0.6911 -0.3562  0.0101
  988MOL0     O30285   3.772  10.665   1.142  0.1802 -0.2531  0.2978
  988MOL0     C30286   3.846  10.597   1.070  0.5927  0.5131  0.3081
  988MOL0     O30287   3.807  10.525   0.966  0.3416  0.0163  0.2572
  988MOL0     C30288   3.675  10.511   0.936 -0.5092 -0.0172  0.8954
  988MOL0     C30289   3.591  10.424   1.000 -0.2235  0.0189  0.5260
  988MOL0     C30290   3.460  10.430   0.975  0.1118  0.1071  0.1840
  988MOL0     C30291   3.403  10.523   0.887 -0.4566 -0.2349  0.2773
  988MOL0     O30292   3.265  10.540   0.868 -0.4336 -0.6398 -0.3204
  988MOL0     C30293   3.201  10.573   0.988 -0.0954  0.0627 -0.7730
  988MOL0     C30294   3.050  10.573   0.984  0.2632  0.0847 -0.2250
  988MOL0     C30295   3.010  10.674   0.873 -0.1791 -0.2640  0.0650
  988MOL0     C30296   2.858  10.681   0.865 -0.9649 -0.0490 -0.2574
  988MOL0     C30297   2.822  10.761   0.740  0.1666  0.0156 -0.7072
  988MOL0     C30298   2.871  10.900   0.723 -0.2022 -0.0369 -0.7481
  988MOL0     C30299   2.796  10.972   0.614 -0.2443  1.3781  0.3653
  988MOL0     C30300   2.822  11.120   0.586 -0.5023  1.3167  0.2953
  988MOL0     N30301   2.747  11.172   0.472  0.2724  0.7156  0.4122
  988MOL0     C30302   2.707  11.099   0.360 -0.6001 -0.0418  0.3877
  988MOL0     C30303   2.641  11.187   0.284  0.3584  0.2216 -0.4260
  988MOL0     C30304   2.577  11.144   0.154 -0.1695  0.1876  0.0479
  988MOL0     C30305   2.427  11.165   0.143  1.1147 -0.8514 -0.5261
  988MOL0     C30306   2.379  11.173  -0.001 -0.5887 -0.3838  0.0112
  988MOL0     C30307   2.229  11.187  -0.015  0.5204  0.1828  0.5121
  988MOL0     O30308   2.195  11.249  -0.143  0.5621 -0.4581  0.3551
  988MOL0     C30309   2.068  11.266  -0.187 -0.1205 -0.2319 -0.6235
  988MOL0     C30310   2.048  11.317  -0.318 -0.4608 -0.6638 -0.8661
  988MOL0     C30311   1.919  11.358  -0.362 -0.0812  0.1716  0.3164
  988MOL0     C30312   1.802  11.338  -0.277 -1.1030  0.5176  0.1919
  988MOL0     C30313   1.658  11.370  -0.325 -0.6988  0.2735  0.3369
  988MOL0     O30314   1.561  11.383  -0.233 -0.3550 -0.2049 -0.0031
  988MOL0     C30315   1.427  11.418  -0.256 -0.4423 -0.8041 -0.7395
  988MOL0     C30316   1.339  11.407  -0.147  0.7571 -0.3948  0.4222
  988MOL0     C30317   1.201  11.430  -0.156  0.0849  0.0908  0.5998
  988MOL0     C30318   1.148  11.462  -0.278  1.4425  0.4078  0.1225
  988MOL0     O30319   1.012  11.470  -0.300  0.9539 -0.4743 -0.6042
  988MOL0     C30320   0.924  11.514  -0.193  0.2381 -0.4508  0.8686
  988MOL0     C30321   0.772  11.532  -0.239  1.3028  1.1413 -0.0589
  988MOL0     C30322   0.720  11.401  -0.292  0.7647 -0.0829 -0.1029
  988MOL0     C30323   0.581  11.419  -0.349  0.0638 -0.2481  0.7404
  988MOL0     C30324   0.470  11.422  -0.243 -0.2672  0.5968  0.3015
  988MOL0     C30325   0.450  11.290  -0.176 -0.5172 -0.7827  0.5134
  988MOL0     C30326   0.432  11.178  -0.278 -0.0241  0.4140 -0.4923
  988MOL0     C30327   0.561  11.105  -0.309 -0.2111 -0.0921 -0.8933
  988MOL0    Cl30328   0.523  10.934  -0.368  0.2814  0.3447  0.3897
  988MOL0     C30329   1.233  11.473  -0.386  0.9219  0.8780  0.8067
  988MOL0     C30330   1.365  11.445  -0.380 -0.5681  0.3214 -0.2537
  988MOL0     O30331   1.656  11.428  -0.433 -0.2844 -0.2473  0.4850
  988MOL0     C30332   1.824  11.269  -0.154 -0.0748 -0.0803 -0.2263
  988MOL0     C30333   1.957  11.245  -0.113 -0.5887 -0.0184 -0.7930
  988MOL0     N30334   2.641  11.311   0.351  0.3812 -0.3019  0.0160
  988MOL0     N30335   2.695  11.300   0.462 -0.1057  0.4167  0.2267
  988MOL0     C30336   3.486  10.608   0.822 -0.5347  0.5608 -0.4716
  988MOL0     C30337   3.626  10.611   0.850  0.0840  0.4117 -0.3312
  988MOL0     C30338   3.988  10.603   1.104  0.3605  0.0389  0.2768
  988MOL0     C30339   4.066  10.483   1.115  0.3484 -0.4861  0.5855
  988MOL0     C30340   4.198  10.508   1.147  0.2041  0.1792 -0.4478
  988MOL0     C30341   4.266  10.634   1.172 -0.0013 -0.1594  0.9219
  988MOL0     O30342   4.404  10.645   1.185 -0.3079  0.6187 -0.0570
  988MOL0     C30343   4.449  10.768   1.240  0.0643 -0.0119 -0.6754
  988MOL0     C30344   4.600  10.756   1.276 -0.4240 -0.8044  0.4345
  988MOL0     C30345   4.647  10.863   1.371  0.2109  0.1747  0.4266
  988MOL0     C30346   4.798  10.852   1.403  0.5503  0.2106 -0.0607
  988MOL0     C30347   4.850  10.957   1.481  0.1370  0.7259 -0.6621
  988MOL0     C30348   4.892  11.056   1.544 -0.4206 -0.8797 -0.1191
  988MOL0     C30349   4.175  10.749   1.175  0.9674 -1.0947  0.0125
  988MOL0     C30350   4.045  10.729   1.134 -1.0050 -0.2536  0.1630
  988MOL0     H30351   3.626  10.350   1.071 -0.6479 -0.2372  0.4732
  988MOL0     H30352   3.399  10.357   1.027  0.9275 -0.3283  0.5302
  988MOL0     H30353   3.233  10.675   1.015 -0.7723  1.2567 -3.9745
  988MOL0     H30354   3.229  10.497   1.061 -0.6956  0.2800 -0.3140
  988MOL0     H30355   3.011  10.611   1.079 -1.4500 -1.6880 -0.1397
  988MOL0     H30356   3.004  10.475   0.968 -1.7345  1.1006 -1.1082
  988MOL0     H30357   3.041  10.645   0.773 -2.7478  1.5580 -1.3734
  988MOL0     H30358   3.060  10.769   0.891 -0.3560  0.7178 -3.8537
  988MOL0     H30359   2.809  10.583   0.874  0.4994 -0.7526  0.3670
  988MOL0     H30360   2.844  10.746   0.952  1.3547  0.7787 -0.4234
  988MOL0     H30361   2.714  10.749   0.724  0.2490 -2.0321  0.0424
  988MOL0     H30362   2.867  10.702   0.659 -1.7205  0.3109 -2.0575
  988MOL0     H30363   2.978  10.896   0.700  1.0996  2.3363  3.7265
  988MOL0     H30364   2.870  10.962   0.812  1.3668  1.7311 -1.8956
  988MOL0     H30365   2.804  10.910   0.524 -1.9376  0.4104  0.8204
  988MOL0     H30366   2.687  10.968   0.618 -0.4083  2.1147 -2.0637
  988MOL0     H30367   2.930  11.140   0.581 -0.1212  0.0091  2.4331
  988MOL0     H30368   2.783  11.172   0.674  1.0014  0.9218  1.2353
  988MOL0     H30369   2.730  10.997   0.333 -1.3764 -0.1564  0.1318
  988MOL0     H30370   2.588  11.035   0.146 -1.2881 -0.1150  1.8954
  988MOL0     H30371   2.622  11.192   0.067 -1.6874  1.8213  0.0963
  988MOL0     H30372   2.387  11.252   0.195 -3.7030 -2.2112 -1.3995
  988MOL0     H30373   2.375  11.079   0.188 -3.1682  0.6182 -2.1294
  988MOL0     H30374   2.418  11.262  -0.051  0.0783 -0.0473  1.0902
  988MOL0     H30375   2.423  11.091  -0.058  1.7769  1.0464 -0.3241
  988MOL0     H30376   2.202  11.257   0.064  3.4429  2.0007  0.0691
  988MOL0     H30377   2.177  11.091  -0.013  1.6597 -0.5095 -1.0660
  988MOL0     H30378   2.139  11.323  -0.377  1.8392 -3.9103  1.9815
  988MOL0     H30379   1.900  11.409  -0.456  1.5310 -0.6730 -0.4976
  988MOL0     H30380   1.366  11.389  -0.043 -1.6707  1.8185  1.5515
  988MOL0     H30381   1.146  11.420  -0.062  2.2416 -2.9431  1.6804
  988MOL0     H30382   0.962  11.607  -0.149  2.9382 -1.4739  0.9068
  988MOL0     H30383   0.924  11.431  -0.121 -0.4367 -2.1906 -1.0534
  988MOL0     H30384   0.759  11.619  -0.304  0.8362  0.0891 -1.4396
  988MOL0     H30385   0.714  11.556  -0.150  0.0112 -0.6609 -0.3595
  988MOL0     H30386   0.722  11.323  -0.215 -3.5536 -0.8702 -0.5793
  988MOL0     H30387   0.785  11.367  -0.374 -0.2028 -1.2870 -0.3876
  988MOL0     H30388   0.586  11.521  -0.390 -0.4917 -0.3206  0.4909
  988MOL0     H30389   0.559  11.356  -0.435 -3.1228  3.8002 -1.8110
  988MOL0     H30390   0.373  11.449  -0.285  0.8043  0.7568 -2.2295
  988MOL0     H30391   0.493  11.496  -0.166 -1.1241 -0.9233  2.1215
  988MOL0     H30392   0.365  11.297  -0.108 -0.0791 -1.8475  1.1976
  988MOL0     H30393   0.548  11.283  -0.127  1.4609  1.3891 -2.7033
  988MOL0     H30394   0.371  11.099  -0.233  0.7001  0.2293  0.1901
  988MOL0     H30395   0.379  11.214  -0.367  1.1175  0.4453 -1.1767
  988MOL0     H30396   0.631  11.087  -0.227  0.8838 -0.1902 -1.8185
  988MOL0     H30397   0.619  11.153  -0.389 -0.4340 -0.1896 -1.1159
  988MOL0     H30398   1.194  11.519  -0.477 -2.3957 -0.2690  1.5042
  988MOL0     H30399   1.427  11.453  -0.469  0.5369 -0.2869  0.4509
  988MOL0     H30400   1.746  11.255  -0.080 -2.2075  0.5236 -2.2466
  988MOL0     H30401   1.960  11.208  -0.011 -1.0316 -1.8851 -1.4031
  988MOL0     H30402   3.445  10.679   0.750  1.4523 -0.5546 -2.8187
  988MOL0     H30403   3.692  10.684   0.804 -0.2705  1.7104  1.1203
  988MOL0     H30404   4.026  10.387   1.083 -0.9144  0.8765 -2.2366
  988MOL0     H30405   4.266  10.423   1.148 -0.7030 -0.5645  1.3110
  988MOL0     H30406   4.395  10.798   1.330  0.3587  2.1236 -1.1681
  988MOL0     H30407   4.434  10.853   1.174 -2.1430  2.5505  2.7892
  988MOL0     H30408   4.616  10.660   1.327 -1.7628  0.1578  2.7538
  988MOL0     H30409   4.661  10.757   1.185 -2.7232 -0.7795 -1.1896
  988MOL0     H30410   4.589  10.845   1.462  1.0967 -3.2135  0.4751
  988MOL0     H30411   4.611  10.961   1.339  0.1360  0.6819  2.0007
  988MOL0     H30412   4.817  10.764   1.464  0.5403  1.5204  1.9359
  988MOL0     H30413   4.856  10.857   1.311  1.0174  1.7865  0.2824
  988MOL0     H30414   4.918  11.136   1.610 -2.1164 -1.6471  1.5865
  988MOL0     H30415   4.212  10.848   1.199 -1.1114 -0.2129 -0.2468
  988MOL0     H30416   3.989  10.822   1.138 -1.1168 -0.3485  1.0959
  989MOL0     O30417   4.183   5.710  10.068  0.0671  0.6414  0.7516
  989MOL0     C30418   4.235   5.813  10.109  0.4508  0.1106 -0.1377
  989MOL0     O30419   4.174   5.907  10.190 -0.2266 -0.2178  0.1534
  989MOL0     C30420   4.039   5.895  10.227 -0.9453 -1.2405 -0.0148
  989MOL0     C30421   3.976   5.780  10.247 -0.6806  0.3364 -0.0250
  989MOL0     C30422   3.844   5.785  10.280 -0.4020 -0.9409 -0.4434
  989MOL0     C30423   3.778   5.906  10.309  0.9131  0.2470  0.0124
  989MOL0     O30424   3.663   5.899  10.373 -0.3924 -0.4760 -0.3282
  989MOL0     C30425   3.588   6.021  10.398  0.3152  0.6075 -0.3160
  989MOL0     C30426   3.447   5.974  10.443 -1.1019  0.0463 -1.3899
  989MOL0     C30427   3.317   6.055  10.416  0.1577 -0.8455 -0.1589
  989MOL0     C30428   3.196   5.988  10.473 -0.0523 -0.6825 -0.6313
  989MOL0     C30429   3.061   6.065  10.483  0.1555 -0.1796 -0.5635
  989MOL0     C30430   3.032   6.156  10.364 -0.0031 -0.1863 -1.1410
  989MOL0     C30431   2.891   6.212  10.362  0.2739 -0.2432  0.2289
  989MOL0     C30432   2.886   6.360  10.317 -0.0470  0.4740  0.7581
  989MOL0     N30433   2.741   6.407  10.309 -0.5437  0.7705  0.0685
  989MOL0     C30434   2.633   6.367  10.381  0.7809  0.0277 -0.2843
  989MOL0     C30435   2.532   6.447  10.338  0.8580 -0.8782 -0.1012
  989MOL0     C30436   2.389   6.413  10.380  1.0482  0.0787 -0.3905
  989MOL0     C30437   2.294   6.436  10.260 -0.1631 -0.0592  0.3488
  989MOL0     C30438   2.189   6.324  10.245  0.3710 -0.1029 -0.2477
  989MOL0     C30439   2.082   6.333  10.356  1.1693 -0.7601 -0.4130
  989MOL0     O30440   1.990   6.448  10.352 -0.0098 -0.0339 -0.2483
  989MOL0     C30441   1.868   6.443  10.283  0.3955 -0.2364 -0.1763
  989MOL0     C30442   1.762   6.538  10.303 -0.6264  0.3077  0.1982
  989MOL0     C30443   1.642   6.523  10.237  0.2419  0.6426 -0.0317
  989MOL0     C30444   1.624   6.402  10.156  0.3405 -0.9030 -0.1088
  989MOL0     C30445   1.501   6.389  10.065 -0.4263  0.2438 -0.1468
  989MOL0     O30446   1.513   6.283   9.981  0.9039  0.4047  0.1888
  989MOL0     C30447   1.412   6.259   9.895 -0.3188  0.1812 -0.3489
  989MOL0     C30448   1.407   6.307   9.761  0.0193  0.1576  0.6682
  989MOL0     C30449   1.293   6.282   9.679 -0.0176  0.4291 -0.1645
  989MOL0     C30450   1.183   6.211   9.729 -0.6829  0.4750 -0.6498
  989MOL0     O30451   1.077   6.185   9.646 -0.1195 -0.0034 -0.2751
  989MOL0     C30452   0.958   6.116   9.687 -0.0875 -0.3350  0.0159
  989MOL0     C30453   0.883   6.068   9.557  0.7758 -0.1936 -0.8122
  989MOL0     C30454   0.735   6.054   9.589 -0.3992 -0.4364 -0.4910
  989MOL0     C30455   0.685   5.934   9.510 -0.7306 -0.0562 -0.5560
  989MOL0     C30456   0.534   5.934   9.496 -0.1271  0.1360  0.2925
  989MOL0     C30457   0.447   5.950   9.623  0.8419 -0.1516 -0.4791
  989MOL0     C30458   0.302   5.893   9.613  0.7725  0.1115  0.1610
  989MOL0     C30459   0.225   5.943   9.487  0.0814  0.1029 -0.4039
  989MOL0    Cl30460   0.056   5.862   9.485  0.2201 -0.0009  0.0791
  989MOL0     C30461   1.190   6.173   9.863  0.0267 -0.8032 -0.0240
  989MOL0     C30462   1.308   6.196   9.943  0.0233  0.0452  0.6548
  989MOL0     O30463   1.416   6.476  10.067  0.1816  0.1074  0.3001
  989MOL0     C30464   1.730   6.310  10.144 -0.2290  0.1108  0.2231
  989MOL0     C30465   1.846   6.332  10.201  0.5412 -0.9083 -1.1289
  989MOL0     N30466   2.579   6.547  10.260 -0.2557 -0.5429 -0.2206
  989MOL0     N30467   2.699   6.518  10.235 -0.1188 -0.2137 -0.0149
  989MOL0     C30468   3.846   6.021  10.286 -0.3029 -0.0642 -0.5771
  989MOL0     C30469   3.978   6.012  10.243  0.1096 -0.0366 -0.4972
  989MOL0     C30470   4.371   5.852  10.064  0.1252 -0.3043  0.3518
  989MOL0     C30471   4.436   5.967  10.118 -0.3009  0.2635 -1.0383
  989MOL0     C30472   4.564   6.009  10.067 -0.2316  0.9841 -0.7080
  989MOL0     C30473   4.625   5.928   9.974  0.5072  0.3006 -0.0455
  989MOL0     O30474   4.757   5.960   9.933 -0.1046 -0.1317  0.8937
  989MOL0     C30475   4.776   5.963   9.785  0.0434  0.8483  0.0545
  989MOL0     C30476   4.915   6.021   9.751  0.8871  0.0368  0.4809
  989MOL0     C30477   4.920   6.174   9.778  0.5092 -0.1730  1.3420
  989MOL0     C30478   5.057   6.224   9.760 -0.0899 -0.1178 -1.1904
  989MOL0     C30479   5.149   6.197   9.878 -0.4176  0.4621 -0.4660
  989MOL0     C30480   5.226   6.174   9.969  0.2631 -0.3193 -0.1979
  989MOL0     C30481   4.564   5.812   9.936  0.2410  0.7552 -0.0349
  989MOL0     C30482   4.439   5.771   9.975  0.0650 -0.7954  0.9939
  989MOL0     H30483   4.027   5.686  10.227 -0.2890  0.6038 -0.2882
  989MOL0     H30484   3.792   5.690  10.280 -2.2041 -0.2477 -5.5558
  989MOL0     H30485   3.570   6.080  10.308  1.2995  1.8847  0.2842
  989MOL0     H30486   3.641   6.087  10.467  0.2818 -0.0834  0.3864
  989MOL0     H30487   3.453   5.945  10.548 -2.2836 -0.5070 -1.4523
  989MOL0     H30488   3.444   5.877  10.391 -1.5733 -0.2274 -0.8656
  989MOL0     H30489   3.297   6.062  10.308  0.3644 -5.7246 -0.7372
  989MOL0     H30490   3.326   6.154  10.461 -2.1603 -0.3352 -0.6975
  989MOL0     H30491   3.178   5.901  10.409 -2.6551 -0.1236 -0.7833
  989MOL0     H30492   3.223   5.948  10.571 -0.4842  0.8758  0.1741
  989MOL0     H30493   3.062   6.133  10.569 -4.7490 -0.5962  0.1076
  989MOL0     H30494   2.982   5.992  10.499 -1.4042  1.6482  0.5144
  989MOL0     H30495   3.058   6.101  10.273  1.3057 -0.0044 -0.8923
  989MOL0     H30496   3.104   6.238  10.372  1.7417 -1.8610  2.7838
  989MOL0     H30497   2.826   6.139  10.313  1.0449 -1.6432  1.2447
  989MOL0     H30498   2.855   6.200  10.464 -0.4581 -3.0563 -0.2890
  989MOL0     H30499   2.943   6.378  10.226  1.7708 -2.5940  1.1338
  989MOL0     H30500   2.921   6.416  10.405 -1.3033 -0.9631  2.2548
  989MOL0     H30501   2.635   6.291  10.458  1.3526  2.9786  2.8347
  989MOL0     H30502   2.348   6.475  10.461  0.6613  0.2499 -0.7172
  989MOL0     H30503   2.395   6.307  10.406  0.9021  0.0422 -0.5040
  989MOL0     H30504   2.357   6.423  10.171  0.4230 -1.0483  0.8984
  989MOL0     H30505   2.255   6.538  10.252 -1.3087 -0.6237 -3.3941
  989MOL0     H30506   2.153   6.315  10.142 -0.8086  1.0605  0.0416
  989MOL0     H30507   2.230   6.226  10.271 -0.5667 -0.0750  1.5485
  989MOL0     H30508   2.131   6.340  10.454 -1.2795  4.2774  0.7880
  989MOL0     H30509   2.028   6.239  10.368  1.2668 -0.9627 -1.4751
  989MOL0     H30510   1.786   6.618  10.373  1.0378 -1.6082  1.9766
  989MOL0     H30511   1.569   6.602  10.230 -1.4545 -1.0367 -3.4577
  989MOL0     H30512   1.490   6.368   9.724 -0.1361  0.6572  1.1222
  989MOL0     H30513   1.286   6.321   9.578 -1.0306  1.7917  0.4043
  989MOL0     H30514   0.900   6.179   9.755 -0.8540 -0.4951 -0.4745
  989MOL0     H30515   0.976   6.024   9.744  0.5870 -0.5891 -0.5807
  989MOL0     H30516   0.922   5.969   9.533  1.9543  0.3203 -1.0902
  989MOL0     H30517   0.894   6.142   9.477  1.2878 -1.5453 -2.0379
  989MOL0     H30518   0.678   6.141   9.557  0.9016 -0.1892 -2.3240
  989MOL0     H30519   0.714   6.040   9.695 -1.7493 -1.3283 -0.8403
  989MOL0     H30520   0.721   5.935   9.406 -0.7803  2.7613 -0.6062
  989MOL0     H30521   0.713   5.841   9.561  0.6344  0.0629 -1.0338
  989MOL0     H30522   0.509   5.841   9.444 -0.5202 -0.9450  2.2968
  989MOL0     H30523   0.504   6.012   9.426 -1.4000 -2.1503 -1.8571
  989MOL0     H30524   0.441   6.055   9.652 -0.9909 -0.4598  0.4610
  989MOL0     H30525   0.507   5.896   9.696 -1.0436 -3.5073 -1.1786
  989MOL0     H30526   0.310   5.786   9.590  2.5927  0.4397 -0.9067
  989MOL0     H30527   0.241   5.906   9.703  1.1124 -0.9968  0.5656
  989MOL0     H30528   0.276   5.923   9.392  1.0104  0.8511 -0.0819
  989MOL0     H30529   0.200   6.050   9.487  0.0556  0.1033 -1.5572
  989MOL0     H30530   1.098   6.138   9.910 -0.0445  0.0521  0.4919
  989MOL0     H30531   1.307   6.153  10.043 -0.4654 -0.0191  0.6289
  989MOL0     H30532   1.733   6.221  10.082  1.1093 -0.2520  0.7830
  989MOL0     H30533   1.909   6.246  10.181 -1.2474 -2.1557 -1.6211
  989MOL0     H30534   3.804   6.114  10.323  1.9902  0.6265  0.4600
  989MOL0     H30535   4.033   6.105  10.238  1.2472 -0.7207 -1.3189
  989MOL0     H30536   4.376   6.027  10.186  1.0320 -1.5573  1.9582
  989MOL0     H30537   4.613   6.097  10.106 -1.6018  0.2294  3.1410
  989MOL0     H30538   4.693   6.010   9.732 -0.9416  2.2100  2.6263
  989MOL0     H30539   4.781   5.855   9.765  2.0433  0.4916  2.0768
  989MOL0     H30540   4.995   5.976   9.811  1.0276 -1.0423 -0.4752
  989MOL0     H30541   4.924   5.996   9.644 -1.6722 -2.0548  0.6559
  989MOL0     H30542   4.891   6.195   9.881  1.9337 -2.8817  2.4025
  989MOL0     H30543   4.847   6.216   9.708  1.8444 -0.0573 -0.0271
  989MOL0     H30544   5.110   6.178   9.676  4.9305  1.3721  0.7319
  989MOL0     H30545   5.047   6.332   9.747 -0.5595 -0.3686 -3.0980
  989MOL0     H30546   5.297   6.168  10.049 -0.5671  2.2048  0.8127
  989MOL0     H30547   4.626   5.736   9.888  3.0491  0.2217  3.9943
  989MOL0     H30548   4.396   5.674   9.951 -0.8532 -0.0601 -0.4694
  990MOL0     O30549   2.628  10.585   3.694 -0.7415  0.0498  0.5376
  990MOL0     C30550   2.583  10.700   3.689  0.0268 -0.0313  0.3638
  990MOL0     O30551   2.448  10.735   3.708 -0.5117 -0.4164  1.0453
  990MOL0     C30552   2.350  10.645   3.683  0.0818 -0.6497  0.0812
  990MOL0     C30553   2.312  10.602   3.560 -0.0278  0.0951 -0.5584
  990MOL0     C30554   2.208  10.520   3.536  0.5014  0.1536  0.0626
  990MOL0     C30555   2.127  10.468   3.637 -0.0562 -0.8988  0.2982
  990MOL0     O30556   2.022  10.382   3.631  0.9018  0.0417  0.2559
  990MOL0     C30557   1.926  10.395   3.525 -0.0445  0.0907  0.5127
  990MOL0     C30558   1.795  10.426   3.602  0.0317 -0.5885 -0.8527
  990MOL0     C30559   1.673  10.434   3.510 -0.5221  0.3300  0.4924
  990MOL0     C30560   1.531  10.455   3.590  0.0471  0.1254  0.4093
  990MOL0     C30561   1.415  10.476   3.506  0.8468 -0.5020  0.3300
  990MOL0     C30562   1.416  10.595   3.413  0.4823 -0.5201 -0.2771
  990MOL0     C30563   1.283  10.606   3.339 -0.3797 -0.2103  0.4087
  990MOL0     C30564   1.173  10.666   3.415  1.2536  0.4118 -0.1812
  990MOL0     N30565   1.046  10.655   3.335  0.1993  0.1673 -0.0410
  990MOL0     C30566   0.966  10.544   3.321  0.0882 -0.7002 -0.0797
  990MOL0     C30567   0.877  10.568   3.218 -0.6350 -0.3379 -0.9295
  990MOL0     C30568   0.774  10.487   3.157  0.3066  0.0708 -0.4333
  990MOL0     C30569   0.676  10.558   3.063  0.5492 -0.2143  0.1470
  990MOL0     C30570   0.559  10.624   3.138 -0.6032 -0.2295  0.0662
  990MOL0     C30571   0.456  10.656   3.039 -0.3861 -0.4648  1.0808
  990MOL0     O30572   0.341  10.728   3.090 -0.3840  0.2888  0.3993
  990MOL0     C30573   0.245  10.762   3.002  0.9796  0.7343 -0.5483
  990MOL0     C30574   0.230  10.712   2.876  0.0117  1.1892  1.3498
  990MOL0     C30575   0.129  10.746   2.795  0.6983 -0.0353  0.6691
  990MOL0     C30576   0.015  10.814   2.854  0.0603  0.2217 -0.1101
  990MOL0     C30577  -0.112  10.833   2.772 -0.0311 -0.1006 -0.5114
  990MOL0     O30578  -0.187  10.947   2.811 -0.1749 -0.4377  0.7163
  990MOL0     C30579  -0.317  10.973   2.769  0.4464 -0.0055  0.3028
  990MOL0     C30580  -0.364  11.108   2.805 -0.6061  0.1837 -0.7818
  990MOL0     C30581  -0.487  11.156   2.757 -0.0713  0.6042 -0.0665
  990MOL0     C30582  -0.564  11.067   2.683  0.1242  1.0467 -1.3211
  990MOL0     O30583  -0.684  11.120   2.639  0.3249 -0.1965 -0.2521
  990MOL0     C30584  -0.782  11.026   2.597  0.8003 -0.9194  0.5859
  990MOL0     C30585  -0.921  11.089   2.599 -0.5255 -0.6140 -0.1136
  990MOL0     C30586  -1.038  10.993   2.588  0.5108 -0.2912  0.3952
  990MOL0     C30587  -1.024  10.896   2.468  0.7379  0.5577 -0.7689
  990MOL0     C30588  -1.130  10.800   2.453  0.6216  1.3999 -0.4022
  990MOL0     C30589  -1.273  10.869   2.450 -0.8848  0.1436  0.2141
  990MOL0     C30590  -1.384  10.793   2.379  0.4272  0.0421  0.7321
  990MOL0     C30591  -1.366  10.804   2.227 -0.0732 -0.2922  0.0183
  990MOL0    Cl30592  -1.510  10.775   2.131  0.0558 -0.1575 -0.1230
  990MOL0     C30593  -0.519  10.936   2.657  0.1582  1.0017 -1.2443
  990MOL0     C30594  -0.394  10.887   2.706 -1.2419  0.2457  0.2061
  990MOL0     O30595  -0.135  10.760   2.677 -0.7313  0.5802 -0.4379
  990MOL0     C30596   0.028  10.876   2.983  0.2362 -0.6670 -0.5120
  990MOL0     C30597   0.154  10.851   3.054 -0.0337 -0.6509 -0.4373
  990MOL0     N30598   0.902  10.700   3.175 -0.3876 -0.0344  0.4714
  990MOL0     N30599   1.001  10.747   3.241  0.0258 -0.1282 -0.8792
  990MOL0     C30600   2.162  10.521   3.763  0.0300 -0.2658 -0.1518
  990MOL0     C30601   2.270  10.607   3.787 -0.0017  0.9642 -0.0975
  990MOL0     C30602   2.683  10.812   3.657  0.7576  0.0829  0.5324
  990MOL0     C30603   2.647  10.947   3.670  0.4822  0.2297 -0.6438
  990MOL0     C30604   2.732  11.055   3.632  0.0644  0.7836 -0.3169
  990MOL0     C30605   2.868  11.022   3.610  0.2082 -0.3339  0.4608
  990MOL0     O30606   2.964  11.121   3.563 -0.3255  0.7153 -1.2040
  990MOL0     C30607   2.912  11.249   3.562 -0.0732  0.0977  0.3107
  990MOL0     C30608   3.025  11.350   3.527  0.2130 -0.3718 -0.6482
  990MOL0     C30609   3.052  11.332   3.378  0.3162 -0.2807 -0.5551
  990MOL0     C30610   3.197  11.373   3.350  0.5271 -0.8178  0.0666
  990MOL0     C30611   3.231  11.512   3.396  0.1059  0.3025  0.3343
  990MOL0     C30612   3.275  11.622   3.417 -0.0036 -0.2456  1.0533
  990MOL0     C30613   2.918  10.891   3.604  0.4452  0.7392  0.3496
  990MOL0     C30614   2.821  10.780   3.634 -0.1633 -0.6620 -0.5234
  990MOL0     H30615   2.367  10.637   3.473  2.0653 -0.3106  0.5303
  990MOL0     H30616   2.185  10.485   3.436  1.5066 -0.6275  0.0866
  990MOL0     H30617   1.929  10.311   3.456 -1.1684  1.1027 -0.8360
  990MOL0     H30618   1.956  10.475   3.457  3.8242 -1.0684  0.6225
  990MOL0     H30619   1.800  10.517   3.662 -1.5818 -0.4042 -0.9514
  990MOL0     H30620   1.782  10.338   3.666 -3.1666  0.7892  0.5994
  990MOL0     H30621   1.672  10.351   3.439 -0.1911  2.1575 -1.7388
  990MOL0     H30622   1.686  10.522   3.447  0.6639  0.2457  0.5858
  990MOL0     H30623   1.510  10.369   3.654  1.0872 -0.4555 -0.0028
  990MOL0     H30624   1.549  10.545   3.651  1.3157 -0.6307  1.2081
  990MOL0     H30625   1.328  10.481   3.572  1.1372 -3.1410  1.0221
  990MOL0     H30626   1.405  10.401   3.427 -1.2235  1.6788 -1.6138
  990MOL0     H30627   1.501  10.576   3.346  2.2504 -0.7536  1.8947
  990MOL0     H30628   1.430  10.682   3.479  1.3201 -1.2356  0.5103
  990MOL0     H30629   1.295  10.670   3.252 -0.1443  1.6544  1.7544
  990MOL0     H30630   1.255  10.505   3.309 -0.9827 -0.1228  0.6575
  990MOL0     H30631   1.197  10.767   3.450 -0.2839  1.0138 -0.7912
  990MOL0     H30632   1.161  10.608   3.507  0.7752  1.8881  0.7294
  990MOL0     H30633   0.976  10.448   3.370  0.2307 -0.8386 -0.3822
  990MOL0     H30634   0.724  10.435   3.240 -1.6730  2.5115  0.0203
  990MOL0     H30635   0.825  10.416   3.092  1.1932  1.6387 -1.4996
  990MOL0     H30636   0.634  10.484   2.995 -3.0010 -0.8931  2.7846
  990MOL0     H30637   0.723  10.632   2.997  1.7829 -0.6865  0.4831
  990MOL0     H30638   0.517  10.537   3.188 -1.2952 -1.6011 -2.6833
  990MOL0     H30639   0.588  10.703   3.208 -0.1606 -0.6271  0.3378
  990MOL0     H30640   0.420  10.563   2.993  0.2455 -0.4620  0.5675
  990MOL0     H30641   0.505  10.712   2.959 -1.0593 -1.5666 -0.1451
  990MOL0     H30642   0.307  10.653   2.827 -1.5881  0.0491  0.0863
  990MOL0     H30643   0.124  10.702   2.696 -0.8452  1.1264  0.1894
  990MOL0     H30644  -0.299  11.181   2.852  1.7710  0.8422 -4.6253
  990MOL0     H30645  -0.533  11.254   2.767 -1.5492  0.2695 -2.7400
  990MOL0     H30646  -0.785  10.946   2.672  1.8721 -0.5215  1.0746
  990MOL0     H30647  -0.755  10.987   2.499 -0.9013  0.0586 -0.3074
  990MOL0     H30648  -0.917  11.143   2.503  3.5610 -0.4851 -0.0724
  990MOL0     H30649  -0.935  11.146   2.691  1.2102 -2.8185  1.6105
  990MOL0     H30650  -1.126  11.058   2.580 -0.0965 -0.9668  1.4171
  990MOL0     H30651  -1.047  10.932   2.678 -2.1212  1.0243  1.1348
  990MOL0     H30652  -0.991  10.939   2.373  3.0304  1.5985  0.4049
  990MOL0     H30653  -0.931  10.846   2.499  0.1787  0.4303  0.7990
  990MOL0     H30654  -1.124  10.730   2.537  0.4619  1.6895 -0.1497
  990MOL0     H30655  -1.116  10.742   2.361 -0.6165 -0.4345  0.5151
  990MOL0     H30656  -1.261  10.965   2.400 -0.5774 -0.5968 -1.1740
  990MOL0     H30657  -1.311  10.896   2.549 -0.0631  1.9787  0.0654
  990MOL0     H30658  -1.396  10.688   2.405  0.2079  0.2220  1.3792
  990MOL0     H30659  -1.479  10.847   2.391 -0.7767 -1.7321 -0.4246
  990MOL0     H30660  -1.283  10.740   2.198 -0.0017 -0.1577 -0.0717
  990MOL0     H30661  -1.340  10.906   2.197  3.4851 -2.1177 -4.1528
  990MOL0     H30662  -0.586  10.869   2.604  1.3430 -1.9902  0.7828
  990MOL0     H30663  -0.368  10.788   2.670  0.1901  0.3492  0.8827
  990MOL0     H30664  -0.057  10.934   3.018 -0.7337 -0.1406 -3.4493
  990MOL0     H30665   0.184  10.913   3.138  0.3598  2.5602 -2.7364
  990MOL0     H30666   2.101  10.496   3.849 -0.5602  1.4597 -0.0309
  990MOL0     H30667   2.299  10.643   3.885  2.5357 -2.2521  0.4905
  990MOL0     H30668   2.545  10.981   3.686  1.0091  0.9350  1.5072
  990MOL0     H30669   2.700  11.158   3.645 -0.3330  0.5886  0.3455
  990MOL0     H30670   2.888  11.283   3.663  1.3871  0.3487  0.6019
  990MOL0     H30671   2.833  11.260   3.487  0.9753 -1.6131 -1.1091
  990MOL0     H30672   2.989  11.451   3.547 -0.3221 -0.9503  1.5362
  990MOL0     H30673   3.113  11.322   3.586 -0.1149  1.6930  0.9221
  990MOL0     H30674   2.974  11.389   3.327 -1.9874 -1.5962  1.3283
  990MOL0     H30675   3.038  11.226   3.359 -0.6770 -0.1561 -0.5503
  990MOL0     H30676   3.262  11.304   3.404 -3.0472 -2.0285  3.1848
  990MOL0     H30677   3.226  11.373   3.244  2.0176 -0.5710  0.4527
  990MOL0     H30678   3.288  11.728   3.426 -2.8030  0.2354  0.2834
  990MOL0     H30679   3.022  10.882   3.577  0.2734  0.8891 -0.4006
  990MOL0     H30680   2.860  10.679   3.634  1.9176  0.0714 -1.3474
  991MOL0     O30681   8.754   0.579   9.190 -0.2661  0.2976  0.4683
  991MOL0     C30682   8.798   0.478   9.129  0.8360 -0.4911 -0.1214
  991MOL0     O30683   8.722   0.384   9.058 -0.2453  0.7461  0.0561
  991MOL0     C30684   8.584   0.375   9.064  0.4568  0.9023 -0.5798
  991MOL0     C30685   8.530   0.299   9.170  0.0810 -0.2341  0.6210
  991MOL0     C30686   8.390   0.281   9.175  0.3583  1.1265 -0.2217
  991MOL0     C30687   8.308   0.327   9.078  0.6460 -0.6969  0.0056
  991MOL0     O30688   8.176   0.290   9.084 -0.1138  0.3892  0.2698
  991MOL0     C30689   8.076   0.347   9.003  0.8266 -0.1605  0.1524
  991MOL0     C30690   7.946   0.261   8.997  0.4184  0.0928 -0.3729
  991MOL0     C30691   7.857   0.328   8.890  0.8469  0.1428 -0.5299
  991MOL0     C30692   7.716   0.264   8.883  0.3669 -0.2475  0.5031
  991MOL0     C30693   7.624   0.313   8.770  1.0494  0.7706 -0.1666
  991MOL0     C30694   7.583   0.463   8.787  0.3349  0.1349 -0.2577
  991MOL0     C30695   7.486   0.503   8.678 -0.8395 -0.7943 -0.2757
  991MOL0     C30696   7.584   0.568   8.570  0.1277  0.1332  0.2560
  991MOL0     N30697   7.526   0.558   8.432 -0.4558 -0.2830 -0.1680
  991MOL0     C30698   7.418   0.636   8.397 -0.5829  0.9162  0.6454
  991MOL0     C30699   7.386   0.601   8.271 -0.1032 -0.2639  0.0548
  991MOL0     C30700   7.266   0.638   8.193 -0.6829  0.4045 -0.3782
  991MOL0     C30701   7.287   0.698   8.051 -0.0308  0.2763 -1.3916
  991MOL0     C30702   7.155   0.755   8.004 -0.2144 -0.1365 -0.1065
  991MOL0     C30703   7.055   0.644   7.982  0.0573  0.2384  0.5758
  991MOL0     O30704   6.954   0.625   8.082  0.0640 -0.0718 -0.1073
  991MOL0     C30705   6.820   0.636   8.056  0.3062 -0.1017  0.1958
  991MOL0     C30706   6.760   0.590   7.939 -1.0199 -0.2250  0.0881
  991MOL0     C30707   6.623   0.586   7.922 -0.6243 -0.7159  0.5539
  991MOL0     C30708   6.535   0.636   8.019 -0.3644  0.4006 -0.4813
  991MOL0     C30709   6.392   0.641   8.000 -0.8605 -0.1915 -0.1561
  991MOL0     O30710   6.313   0.642   8.110 -0.2352 -0.1694  0.1086
  991MOL0     C30711   6.177   0.613   8.106 -0.2929  0.1214  1.0493
  991MOL0     C30712   6.113   0.550   8.002 -0.2322 -0.7125  0.3341
  991MOL0     C30713   5.973   0.530   8.006 -0.0751  1.0910  0.4160
  991MOL0     C30714   5.900   0.563   8.121  0.5626  1.4225 -0.8472
  991MOL0     O30715   5.755   0.550   8.128  0.0931 -0.4254  0.5387
  991MOL0     C30716   5.678   0.515   8.018  0.1402 -0.3974 -0.5396
  991MOL0     C30717   5.528   0.539   8.042 -0.8734 -0.5189  0.5088
  991MOL0     C30718   5.455   0.557   7.905  0.8505 -0.8912  0.8741
  991MOL0     C30719   5.312   0.518   7.902  0.6506  0.0310 -0.5853
  991MOL0     C30720   5.219   0.623   7.983  0.1066  0.1005  1.1404
  991MOL0     C30721   5.093   0.545   8.024 -0.1909 -0.3456  0.8089
  991MOL0     C30722   5.101   0.471   8.158  0.1749  0.0578  0.0524
  991MOL0     C30723   4.994   0.362   8.163 -0.7361 -0.0563 -0.3008
  991MOL0    Cl30724   4.837   0.428   8.226  0.0579 -0.1720  0.5247
  991MOL0     C30725   5.959   0.639   8.217  0.6882  0.3563 -0.2056
  991MOL0     C30726   6.093   0.660   8.212 -0.2844 -0.1687  0.2170
  991MOL0     O30727   6.351   0.650   7.887  0.4141 -0.7558  0.6856
  991MOL0     C30728   6.597   0.675   8.142  0.7192  0.4844  0.4061
  991MOL0     C30729   6.735   0.672   8.162  0.4572 -0.0530 -0.0722
  991MOL0     N30730   7.474   0.503   8.233 -0.2637 -0.1979  0.0479
  991MOL0     N30731   7.559   0.479   8.326  0.1241  0.6201 -0.0328
  991MOL0     C30732   8.363   0.407   8.970 -0.3361 -0.7362 -0.3574
  991MOL0     C30733   8.503   0.423   8.968  0.2918 -1.0027  0.1457
  991MOL0     C30734   8.940   0.458   9.126  0.1143 -0.2237 -0.5241
  991MOL0     C30735   9.030   0.565   9.152 -0.2405  0.1853 -1.5643
  991MOL0     C30736   9.165   0.531   9.156 -0.1596 -0.5646 -1.1715
  991MOL0     C30737   9.215   0.403   9.139 -0.4870 -0.0741 -0.0845
  991MOL0     O30738   9.350   0.392   9.161 -0.3785 -0.1975  0.2461
  991MOL0     C30739   9.420   0.284   9.110  1.0377  0.5514 -1.2396
  991MOL0     C30740   9.572   0.302   9.091  0.0421 -0.0603 -0.9601
  991MOL0     C30741   9.621   0.377   8.970 -1.0657 -0.2517  0.0606
  991MOL0     C30742   9.564   0.513   8.940 -0.1439  0.3176 -0.6397
  991MOL0     C30743   9.567   0.598   9.065  0.1316 -0.2067  0.3807
  991MOL0     C30744   9.596   0.673   9.157  0.3520 -0.4394  0.3437
  991MOL0     C30745   9.126   0.303   9.091 -0.4387 -0.3349 -0.3745
  991MOL0     C30746   8.990   0.332   9.087  0.4658 -0.1592  0.0257
  991MOL0     H30747   8.594   0.254   9.246  0.3307 -0.8280  0.0665
  991MOL0     H30748   8.348   0.230   9.261  1.1135  1.1655  0.1779
  991MOL0     H30749   8.114   0.349   8.900  1.8996 -0.4940  0.5381
  991MOL0     H30750   8.063   0.452   9.031  1.6591 -0.0554  0.1788
  991MOL0     H30751   7.894   0.247   9.093  2.0995 -0.5683  0.4741
  991MOL0     H30752   7.977   0.165   8.956 -1.2097  0.5350 -2.8387
  991MOL0     H30753   7.911   0.323   8.795  1.1154  0.1156 -0.3776
  991MOL0     H30754   7.842   0.433   8.916  1.9554  0.0113  0.7502
  991MOL0     H30755   7.720   0.155   8.889 -0.0871 -0.3734 -1.0804
  991MOL0     H30756   7.663   0.298   8.973  0.9080  2.8431 -0.2467
  991MOL0     H30757   7.529   0.259   8.765  1.7501 -0.5310 -0.0220
  991MOL0     H30758   7.670   0.294   8.673  0.1544  1.8906 -0.8301
  991MOL0     H30759   7.663   0.536   8.800  0.2486  0.0545  0.8054
  991MOL0     H30760   7.528   0.476   8.881  0.2778 -1.6031 -0.0238
  991MOL0     H30761   7.425   0.422   8.637 -1.1317 -0.3244 -0.7757
  991MOL0     H30762   7.423   0.586   8.714  1.3153  1.1359 -0.7178
  991MOL0     H30763   7.670   0.503   8.554 -0.2174 -0.4465  0.7177
  991MOL0     H30764   7.625   0.663   8.604  2.0760 -0.9481  1.0412
  991MOL0     H30765   7.364   0.712   8.453 -0.6913  1.1730  0.2001
  991MOL0     H30766   7.195   0.704   8.244 -1.4295  1.6611 -2.8493
  991MOL0     H30767   7.209   0.545   8.180 -0.7732  0.4331 -0.1879
  991MOL0     H30768   7.320   0.613   7.991  1.1846 -0.8250  0.7053
  991MOL0     H30769   7.377   0.761   8.054  1.2511 -1.4581  2.2658
  991MOL0     H30770   7.117   0.825   8.080  2.6341 -1.7813  3.0739
  991MOL0     H30771   7.167   0.804   7.907  1.4667 -0.3597 -0.0432
  991MOL0     H30772   7.109   0.551   7.963  2.0600  1.1694  1.5126
  991MOL0     H30773   7.011   0.673   7.886 -0.6781 -0.7088  0.6067
  991MOL0     H30774   6.816   0.546   7.857 -1.2088 -0.3192  0.0082
  991MOL0     H30775   6.580   0.549   7.829  0.2432  1.7059 -0.9217
  991MOL0     H30776   6.168   0.507   7.919 -1.9660 -1.0713 -0.6572
  991MOL0     H30777   5.918   0.482   7.925  0.4819 -2.0890  1.7865
  991MOL0     H30778   5.706   0.412   7.995 -0.7930 -0.3423 -2.0849
  991MOL0     H30779   5.720   0.580   7.941 -0.5491  1.2719  0.4490
  991MOL0     H30780   5.511   0.627   8.104  0.8932  0.0245  0.2820
  991MOL0     H30781   5.487   0.448   8.087  2.9321 -2.2426  0.9057
  991MOL0     H30782   5.510   0.497   7.831 -0.7891 -1.5716  0.1655
  991MOL0     H30783   5.441   0.663   7.879  0.2557 -1.6321 -2.2883
  991MOL0     H30784   5.283   0.505   7.798  0.7221  0.2329 -0.6326
  991MOL0     H30785   5.306   0.420   7.950  0.1522 -0.3885 -1.4939
  991MOL0     H30786   5.175   0.706   7.927 -3.3037 -1.2706  1.5291
  991MOL0     H30787   5.276   0.654   8.070  0.9201  0.0212  0.6440
  991MOL0     H30788   5.058   0.482   7.942  0.8251 -0.5815  0.5460
  991MOL0     H30789   5.020   0.627   8.024 -0.0573 -0.2011 -1.0226
  991MOL0     H30790   5.199   0.426   8.174  0.5906  1.5837  2.3262
  991MOL0     H30791   5.083   0.532   8.247 -1.2675 -0.8695  0.4265
  991MOL0     H30792   5.041   0.291   8.231 -0.0912  1.2726  0.6965
  991MOL0     H30793   4.979   0.320   8.063 -0.5955  1.1031 -0.8213
  991MOL0     H30794   5.904   0.672   8.305  3.9561  1.7268  1.5113
  991MOL0     H30795   6.135   0.721   8.292 -0.0525 -0.0590  0.0135
  991MOL0     H30796   6.526   0.711   8.216 -2.0659 -1.7939 -0.9498
  991MOL0     H30797   6.771   0.699   8.261 -0.2066 -1.4098  0.5604
  991MOL0     H30798   8.293   0.441   8.895 -1.7265  2.0561  1.9545
  991MOL0     H30799   8.554   0.488   8.897 -1.8770  2.0089  1.1274
  991MOL0     H30800   8.996   0.667   9.163 -2.1428 -0.5791  0.3494
  991MOL0     H30801   9.235   0.611   9.178  0.9553 -1.6755 -0.5699
  991MOL0     H30802   9.380   0.258   9.012  4.3231 -1.8024 -2.1447
  991MOL0     H30803   9.405   0.199   9.177  0.1095  1.2058 -0.5992
  991MOL0     H30804   9.607   0.352   9.182  1.6522 -0.0262 -1.5611
  991MOL0     H30805   9.603   0.197   9.082  1.1077  0.1014  0.4818
  991MOL0     H30806   9.616   0.319   8.877  4.4470  0.7451 -1.2588
  991MOL0     H30807   9.728   0.395   8.984 -0.9259 -2.5118  2.8471
  991MOL0     H30808   9.624   0.570   8.869  2.8498 -0.4933  1.0774
  991MOL0     H30809   9.464   0.496   8.899 -0.1132 -0.0584 -0.5604
  991MOL0     H30810   9.648   0.734   9.228 -1.5159  1.9042 -0.1680
  991MOL0     H30811   9.153   0.199   9.070  0.7016 -0.0995 -0.1770
  991MOL0     H30812   8.919   0.252   9.067  0.7267 -0.8138  1.6181
  992MOL0     O30813   1.948   0.379   4.289 -0.4676 -0.4028 -0.3616
  992MOL0     C30814   1.937   0.460   4.197  0.0948 -0.4200 -0.3727
  992MOL0     O30815   1.824   0.534   4.177 -0.0856 -0.4540  0.2838
  992MOL0     C30816   1.703   0.500   4.233 -0.6083 -0.2161  1.1080
  992MOL0     C30817   1.613   0.611   4.219  0.1309  0.5315 -0.0042
  992MOL0     C30818   1.479   0.602   4.261  0.7784  0.1483 -0.1623
  992MOL0     C30819   1.423   0.487   4.313 -0.8692 -0.0436 -0.8253
  992MOL0     O30820   1.294   0.464   4.372 -0.8761 -0.4076  0.6339
  992MOL0     C30821   1.206   0.571   4.380  0.9271 -0.2321  0.0278
  992MOL0     C30822   1.076   0.536   4.453 -0.0814 -0.3685 -0.0063
  992MOL0     C30823   0.994   0.420   4.397 -0.0110  0.0271  0.0242
  992MOL0     C30824   0.882   0.384   4.495 -0.2683 -0.2493  0.1611
  992MOL0     C30825   0.802   0.262   4.442  0.1298  0.4623  0.0400
  992MOL0     C30826   0.706   0.227   4.558 -0.5097  0.3372  1.3422
  992MOL0     C30827   0.580   0.153   4.523 -0.1378 -0.1260  0.0265
  992MOL0     C30828   0.476   0.248   4.470  0.2687  0.0268  0.2335
  992MOL0     N30829   0.375   0.186   4.382  0.3880  0.1667  0.2087
  992MOL0     C30830   0.261   0.116   4.423 -0.7890  1.0357  0.1367
  992MOL0     C30831   0.206   0.059   4.309 -0.4414  0.1603 -0.6865
  992MOL0     C30832   0.070  -0.001   4.294  0.4764 -0.2862  0.7268
  992MOL0     C30833   0.075  -0.151   4.333  0.4127 -0.7054  0.6973
  992MOL0     C30834  -0.061  -0.210   4.356  0.6789 -0.7320 -0.1525
  992MOL0     C30835  -0.139  -0.155   4.477  0.1372  0.0631 -0.4764
  992MOL0     O30836  -0.282  -0.157   4.459 -0.0724 -0.2573  0.4438
  992MOL0     C30837  -0.353  -0.202   4.568 -0.2628  0.4280 -0.5507
  992MOL0     C30838  -0.471  -0.262   4.538  0.6625 -0.8647 -0.1155
  992MOL0     C30839  -0.550  -0.312   4.647  0.9209 -0.1812  0.0614
  992MOL0     C30840  -0.508  -0.324   4.776  0.3087  0.6756  0.3943
  992MOL0     C30841  -0.592  -0.399   4.874  0.1126 -0.1295  0.3570
  992MOL0     O30842  -0.717  -0.431   4.837  0.1444  0.3051 -0.2950
  992MOL0     C30843  -0.817  -0.488   4.911 -0.4550  0.6646  0.6373
  992MOL0     C30844  -0.939  -0.511   4.845 -0.2442 -0.0752  0.9380
  992MOL0     C30845  -1.041  -0.579   4.901 -0.2857 -0.4693  0.1968
  992MOL0     C30846  -1.039  -0.608   5.043  0.3260  0.1181 -0.1560
  992MOL0     O30847  -1.151  -0.667   5.089  0.2444  0.3232 -0.4628
  992MOL0     C30848  -1.175  -0.683   5.226 -0.3387 -0.8701  0.4354
  992MOL0     C30849  -1.325  -0.656   5.254 -0.1196 -0.6977  0.3810
  992MOL0     C30850  -1.411  -0.767   5.196 -0.1556 -0.8154 -0.1662
  992MOL0     C30851  -1.563  -0.760   5.224 -0.6708 -0.2286 -0.4845
  992MOL0     C30852  -1.634  -0.888   5.178  0.5572 -0.3137  0.1429
  992MOL0     C30853  -1.785  -0.891   5.208 -0.3394 -0.8040 -0.9042
  992MOL0     C30854  -1.861  -1.003   5.136  0.1140  0.0168  0.9441
  992MOL0     C30855  -1.998  -1.031   5.200 -0.1141  0.3173  0.0747
  992MOL0    Cl30856  -1.991  -1.081   5.373 -0.3097  0.4310  0.1639
  992MOL0     C30857  -0.919  -0.579   5.107 -0.3170  0.2140  0.2484
  992MOL0     C30858  -0.813  -0.530   5.043 -1.5597 -0.2992  0.3129
  992MOL0     O30859  -0.540  -0.420   4.982 -0.1086  0.1733 -0.8347
  992MOL0     C30860  -0.380  -0.261   4.808  0.0878 -0.1562  0.4158
  992MOL0     C30861  -0.306  -0.195   4.705 -0.4501 -0.1693  0.0951
  992MOL0     N30862   0.295   0.095   4.204 -0.8365 -0.5802  0.5800
  992MOL0     N30863   0.393   0.164   4.252  0.4047  0.4624 -0.2157
  992MOL0     C30864   1.509   0.368   4.312  0.1741 -0.6796 -0.3594
  992MOL0     C30865   1.644   0.379   4.270 -0.5011  0.1277  0.0709
  992MOL0     C30866   2.047   0.478   4.113 -0.6181 -0.1046 -0.6870
  992MOL0     C30867   2.045   0.573   4.006  0.0984  0.0036  0.0486
  992MOL0     C30868   2.161   0.592   3.929  0.1350 -0.1147 -0.0767
  992MOL0     C30869   2.283   0.543   3.962 -0.4765 -0.2214  0.2425
  992MOL0     O30870   2.391   0.574   3.882 -0.1062  0.2533  0.1333
  992MOL0     C30871   2.528   0.510   3.914  0.3730  0.2269  1.0889
  992MOL0     C30872   2.623   0.541   3.805 -0.5238 -0.0817 -0.2130
  992MOL0     C30873   2.756   0.470   3.823  0.0832 -0.1894 -0.0654
  992MOL0     C30874   2.835   0.485   3.695 -0.2572  0.6705 -0.0160
  992MOL0     C30875   2.965   0.425   3.716 -0.3926 -0.5518  0.6514
  992MOL0     C30876   3.076   0.374   3.730 -0.1942 -0.5568 -0.2154
  992MOL0     C30877   2.294   0.454   4.067  0.2397 -0.2685 -0.5360
  992MOL0     C30878   2.177   0.425   4.141  0.3314  0.5259  0.8659
  992MOL0     H30879   1.636   0.706   4.170  2.4247  0.8903  1.6198
  992MOL0     H30880   1.406   0.682   4.251 -1.9043 -1.6646  2.9636
  992MOL0     H30881   1.181   0.613   4.282 -1.2154 -0.5621  0.3939
  992MOL0     H30882   1.255   0.655   4.430 -0.2886  1.0952 -0.9458
  992MOL0     H30883   1.022   0.631   4.465  2.7191  1.2231  0.7120
  992MOL0     H30884   1.102   0.514   4.557 -4.0192 -0.1579  1.1997
  992MOL0     H30885   1.062   0.334   4.388 -0.5395 -0.3810 -0.1432
  992MOL0     H30886   0.953   0.454   4.302 -1.5079  1.2236  1.0550
  992MOL0     H30887   0.929   0.351   4.588  0.6075 -1.7472 -0.7745
  992MOL0     H30888   0.815   0.468   4.515 -0.4833 -0.8446  2.0730
  992MOL0     H30889   0.862   0.175   4.416 -0.5417 -0.5764  1.7824
  992MOL0     H30890   0.738   0.293   4.359 -2.1455 -1.5625  0.9293
  992MOL0     H30891   0.681   0.320   4.611  1.6924 -0.1206  3.3324
  992MOL0     H30892   0.757   0.167   4.634 -0.0955 -2.4560 -1.0073
  992MOL0     H30893   0.607   0.072   4.455 -1.5954 -0.0735 -0.6699
  992MOL0     H30894   0.555   0.098   4.614 -1.3645 -0.9905 -0.8038
  992MOL0     H30895   0.529   0.328   4.418 -1.5529  0.5133 -0.9790
  992MOL0     H30896   0.415   0.296   4.548  0.2802 -0.1407  0.3467
  992MOL0     H30897   0.230   0.121   4.527 -0.4357  3.3916  0.1865
  992MOL0     H30898   0.050   0.000   4.187 -0.0092 -0.6994  0.8082
  992MOL0     H30899  -0.011   0.055   4.343  1.7697  2.1163  0.2607
  992MOL0     H30900   0.129  -0.178   4.424  1.7306  0.3978  0.2775
  992MOL0     H30901   0.117  -0.209   4.250  0.2546  2.0327 -1.4296
  992MOL0     H30902  -0.121  -0.219   4.264  1.0504 -0.8574 -0.3865
  992MOL0     H30903  -0.040  -0.315   4.379 -0.8385 -0.2352  4.4834
  992MOL0     H30904  -0.110  -0.051   4.496  2.0007  0.0016 -2.5035
  992MOL0     H30905  -0.118  -0.225   4.559 -5.8446 -2.8624 -0.9118
  992MOL0     H30906  -0.509  -0.271   4.437 -1.6609  1.5188  0.4234
  992MOL0     H30907  -0.652  -0.345   4.632  1.2647 -1.1872 -0.1863
  992MOL0     H30908  -0.960  -0.498   4.739  0.5047 -0.8873  0.6766
  992MOL0     H30909  -1.138  -0.602   4.857 -0.8038 -2.1860  2.0886
  992MOL0     H30910  -1.108  -0.624   5.288  0.2164  1.0701 -1.8647
  992MOL0     H30911  -1.156  -0.789   5.246  1.3406 -0.8421 -0.8136
  992MOL0     H30912  -1.353  -0.557   5.216 -0.7444 -2.0405 -2.9653
  992MOL0     H30913  -1.339  -0.650   5.363  1.0968 -2.5611  0.6821
  992MOL0     H30914  -1.383  -0.856   5.253  0.1221  0.5275  1.9018
  992MOL0     H30915  -1.400  -0.774   5.088 -2.6156  0.2513 -0.5596
  992MOL0     H30916  -1.580  -0.749   5.332 -0.0846 -2.3395 -0.1355
  992MOL0     H30917  -1.604  -0.666   5.185 -0.4336  0.8794  1.7729
  992MOL0     H30918  -1.590  -0.974   5.227  1.4869 -0.7433 -1.3657
  992MOL0     H30919  -1.628  -0.887   5.068 -3.2150  1.0432 -0.1861
  992MOL0     H30920  -1.825  -0.791   5.188 -0.1599 -0.9566 -2.0843
  992MOL0     H30921  -1.785  -0.894   5.318  0.1041  0.9701 -0.8223
  992MOL0     H30922  -1.875  -0.977   5.031 -1.1341 -0.8968  0.8774
  992MOL0     H30923  -1.792  -1.087   5.134  2.8950  2.1338 -1.2051
  992MOL0     H30924  -2.052  -1.111   5.148 -3.0189  3.0096 -1.3956
  992MOL0     H30925  -2.061  -0.941   5.206 -3.0289 -1.3921 -2.0719
  992MOL0     H30926  -0.903  -0.604   5.211  0.2512 -0.3284  0.0383
  992MOL0     H30927  -0.722  -0.516   5.100 -0.5180  0.8691 -1.5532
  992MOL0     H30928  -0.330  -0.271   4.903 -0.1177 -0.3341  0.5064
  992MOL0     H30929  -0.216  -0.135   4.722 -1.4905  3.0118 -3.9661
  992MOL0     H30930   1.454   0.281   4.348 -0.5755  0.0444  0.2699
  992MOL0     H30931   1.712   0.295   4.271  1.8563  1.8822  3.0857
  992MOL0     H30932   1.951   0.618   3.976  0.4443  1.2592  0.7831
  992MOL0     H30933   2.154   0.654   3.841 -1.6290 -1.2944 -0.8132
  992MOL0     H30934   2.525   0.403   3.938 -3.8673  0.3428  1.9175
  992MOL0     H30935   2.577   0.562   3.997 -1.0734  1.5426  1.1662
  992MOL0     H30936   2.591   0.515   3.704 -1.1336  2.8975 -0.8687
  992MOL0     H30937   2.642   0.648   3.795  3.5991 -0.5034  1.1040
  992MOL0     H30938   2.753   0.364   3.848  3.7186 -0.5714 -0.7542
  992MOL0     H30939   2.814   0.524   3.899  0.3085  0.9841 -1.0321
  992MOL0     H30940   2.787   0.431   3.613 -0.5330 -2.6242  2.1032
  992MOL0     H30941   2.846   0.591   3.674 -1.5672  0.7776 -0.2662
  992MOL0     H30942   3.171   0.327   3.745 -0.0502 -0.1522  0.1725
  992MOL0     H30943   2.386   0.410   4.105  0.5209 -0.3243 -1.2490
  992MOL0     H30944   2.187   0.351   4.219  0.0718  0.3668  0.7492
  993MOL0     O30945   3.077   0.361   7.529  0.2491 -1.3388  0.2328
  993MOL0     C30946   3.173   0.300   7.486 -0.1704  1.1667 -0.1990
  993MOL0     O30947   3.159   0.197   7.406  0.6007 -0.1354 -0.3313
  993MOL0     C30948   3.038   0.156   7.365  0.3341  0.5662  0.7926
  993MOL0     C30949   2.969   0.056   7.427  0.5325  0.5432 -1.0290
  993MOL0     C30950   2.847   0.013   7.371 -0.7275 -0.4503 -0.3766
  993MOL0     C30951   2.791   0.074   7.258 -1.4340 -0.2471 -0.1158
  993MOL0     O30952   2.676   0.040   7.199 -0.2232 -0.1277 -0.8329
  993MOL0     C30953   2.579  -0.031   7.283 -0.5955 -0.9577 -0.4155
  993MOL0     C30954   2.443  -0.046   7.220  0.0572  0.2160  0.6920
  993MOL0     C30955   2.351  -0.112   7.331  0.4030  1.1048  0.8252
  993MOL0     C30956   2.219  -0.160   7.274  0.1411  0.6336  0.1627
  993MOL0     C30957   2.143  -0.256   7.372 -0.1964 -0.7802 -0.9283
  993MOL0     C30958   1.993  -0.249   7.361 -0.2360 -0.6949 -0.1345
  993MOL0     C30959   1.954  -0.321   7.220 -0.3970 -0.1145 -0.8563
  993MOL0     C30960   1.809  -0.316   7.194  0.1031  0.0307 -0.3747
  993MOL0     N30961   1.725  -0.382   7.296 -0.1241 -0.4838 -0.4458
  993MOL0     C30962   1.745  -0.501   7.355 -0.9454 -0.2812  0.6050
  993MOL0     C30963   1.667  -0.504   7.464 -0.0065  0.7575 -0.3324
  993MOL0     C30964   1.665  -0.622   7.559 -0.1875  0.8711 -0.0618
  993MOL0     C30965   1.539  -0.631   7.652 -0.0600  0.1300  0.6120
  993MOL0     C30966   1.560  -0.760   7.741 -0.0138 -0.6445  0.0720
  993MOL0     C30967   1.441  -0.794   7.831  0.6053  0.6013 -0.1964
  993MOL0     O30968   1.339  -0.858   7.757  0.1202 -0.3949  0.1791
  993MOL0     C30969   1.218  -0.900   7.818 -0.3850  0.0516 -0.5193
  993MOL0     C30970   1.198  -0.902   7.957  0.5712 -0.4954 -0.4352
  993MOL0     C30971   1.081  -0.951   8.014 -0.8430  0.0108 -1.0890
  993MOL0     C30972   0.972  -0.990   7.940 -0.0275 -0.0207 -0.2677
  993MOL0     C30973   0.859  -1.044   8.011 -0.5383  0.6298 -0.3395
  993MOL0     O30974   0.750  -1.055   7.939 -0.0596  0.5576  1.0802
  993MOL0     C30975   0.634  -1.126   7.984 -0.6094 -0.4629 -0.6825
  993MOL0     C30976   0.526  -1.125   7.898 -0.5782 -0.5247 -0.7087
  993MOL0     C30977   0.407  -1.197   7.933 -0.6214  0.1554  0.1655
  993MOL0     C30978   0.403  -1.278   8.051 -0.8883 -0.2578 -0.4582
  993MOL0     O30979   0.285  -1.343   8.078 -0.6205  0.3298  0.2694
  993MOL0     C30980   0.276  -1.465   8.152  0.2471 -0.7953 -0.5304
  993MOL0     C30981   0.171  -1.441   8.263 -0.4675 -0.0461 -0.1138
  993MOL0     C30982   0.029  -1.436   8.220  0.1377  0.0182 -0.1912
  993MOL0     C30983  -0.058  -1.404   8.345  0.7992 -0.2937 -0.4918
  993MOL0     C30984  -0.210  -1.374   8.316  0.1750  0.0039 -0.1127
  993MOL0     C30985  -0.236  -1.253   8.226  0.1662 -0.2002 -0.6721
  993MOL0     C30986  -0.194  -1.111   8.276  0.2223  0.5432  0.6514
  993MOL0     C30987  -0.266  -1.006   8.190 -0.1047  1.0080 -0.2339
  993MOL0    Cl30988  -0.418  -0.983   8.268 -0.2927  0.1061 -0.3835
  993MOL0     C30989   0.508  -1.274   8.135 -0.3043 -0.4641 -0.0404
  993MOL0     C30990   0.628  -1.204   8.101  0.7765 -0.7027 -0.4663
  993MOL0     O30991   0.872  -1.065   8.136  0.8500  0.1834 -0.6018
  993MOL0     C30992   0.982  -0.981   7.797 -0.6125 -0.2567  0.7000
  993MOL0     C30993   1.110  -0.943   7.741  0.5085  1.1724 -0.2610
  993MOL0     N30994   1.606  -0.385   7.480  0.0130  0.1406 -0.3977
  993MOL0     N30995   1.630  -0.320   7.369 -0.4952  0.0166 -0.1017
  993MOL0     C30996   2.868   0.168   7.202  0.3372  0.0307 -0.2452
  993MOL0     C30997   2.990   0.203   7.246 -0.0593  0.3624  0.2033
  993MOL0     C30998   3.314   0.341   7.519  0.2477 -0.4439  0.0985
  993MOL0     C30999   3.347   0.437   7.610 -0.4281  0.6589  0.3422
  993MOL0     C31000   3.473   0.487   7.628 -0.0945  0.6833  0.2969
  993MOL0     C31001   3.579   0.418   7.564  0.1208  1.2941  0.1497
  993MOL0     O31002   3.714   0.423   7.583  0.1728 -0.1263  0.4369
  993MOL0     C31003   3.771   0.549   7.605 -0.6360 -0.2990 -0.4144
  993MOL0     C31004   3.912   0.506   7.648 -0.0830 -0.0076 -0.3810
  993MOL0     C31005   3.998   0.630   7.708  0.0008 -0.0610 -0.1253
  993MOL0     C31006   4.147   0.594   7.739  0.7266 -0.1865 -0.1646
  993MOL0     C31007   4.203   0.709   7.809 -0.7794  0.4770  0.4748
  993MOL0     C31008   4.265   0.804   7.871  1.0556  0.0044  0.2825
  993MOL0     C31009   3.553   0.314   7.473  0.3999 -0.2636 -0.5897
  993MOL0     C31010   3.413   0.286   7.441 -1.2321  0.1299  0.7383
  993MOL0     H31011   3.002  -0.002   7.512 -1.9494 -1.9244 -1.6224
  993MOL0     H31012   2.813  -0.084   7.406 -0.4427 -0.0396  1.0805
  993MOL0     H31013   2.574   0.029   7.375 -0.3332 -0.5680 -0.6517
  993MOL0     H31014   2.610  -0.132   7.310  0.8642 -1.1840 -2.6431
  993MOL0     H31015   2.460  -0.112   7.134  1.5412 -0.5433  1.5148
  993MOL0     H31016   2.405   0.051   7.188 -1.1973  0.2018  2.0514
  993MOL0     H31017   2.334  -0.042   7.413 -1.9646  1.0977  0.4007
  993MOL0     H31018   2.404  -0.200   7.369  0.1171  0.5778  0.0525
  993MOL0     H31019   2.147  -0.083   7.245  0.7188  0.1643 -2.9235
  993MOL0     H31020   2.240  -0.209   7.178 -0.8787  0.9302 -0.2184
  993MOL0     H31021   2.166  -0.245   7.479  3.8864 -0.5066 -1.6620
  993MOL0     H31022   2.177  -0.359   7.357  2.5086 -0.5484  2.3323
  993MOL0     H31023   1.959  -0.145   7.358 -1.0223 -0.6657  4.0217
  993MOL0     H31024   1.941  -0.291   7.447 -3.6751  1.2202 -1.0702
  993MOL0     H31025   2.011  -0.275   7.139  2.9673 -3.0517 -0.3792
  993MOL0     H31026   1.985  -0.425   7.229 -3.2481 -0.9858  0.3717
  993MOL0     H31027   1.786  -0.378   7.106 -3.5515  1.0401 -0.2731
  993MOL0     H31028   1.764  -0.218   7.179  0.3177  0.2434  0.3556
  993MOL0     H31029   1.813  -0.573   7.309 -2.9281  0.1513 -3.4364
  993MOL0     H31030   1.763  -0.622   7.608 -0.7547 -0.8291  1.1469
  993MOL0     H31031   1.656  -0.708   7.492 -2.4594  1.1001 -0.1121
  993MOL0     H31032   1.453  -0.648   7.586  1.2479 -0.2000 -1.0725
  993MOL0     H31033   1.507  -0.541   7.706 -2.8539 -2.4075  3.6288
  993MOL0     H31034   1.586  -0.848   7.681  4.8212  0.2103  0.5187
  993MOL0     H31035   1.649  -0.732   7.798  0.1812 -2.0182  0.4980
  993MOL0     H31036   1.404  -0.704   7.882 -0.8989 -1.8726  3.5769
  993MOL0     H31037   1.472  -0.867   7.906  0.4970 -0.4838 -1.1917
  993MOL0     H31038   1.265  -0.853   8.027 -1.0666  2.1377 -0.6143
  993MOL0     H31039   1.067  -0.949   8.121  1.2301 -4.2091 -0.5204
  993MOL0     H31040   0.536  -1.053   7.817 -0.3170  2.4058  1.7181
  993MOL0     H31041   0.320  -1.198   7.868  0.5567  3.5587 -1.7682
  993MOL0     H31042   0.370  -1.481   8.207 -0.6697 -0.5321  1.1738
  993MOL0     H31043   0.251  -1.553   8.093 -2.6378  0.0268 -0.6869
  993MOL0     H31044   0.210  -1.350   8.309  2.1760 -2.4313  2.8468
  993MOL0     H31045   0.171  -1.518   8.340 -3.7236 -0.9098 -0.8577
  993MOL0     H31046  -0.024  -1.527   8.189 -3.3223  1.7322  0.2625
  993MOL0     H31047   0.009  -1.357   8.147  1.2778  0.4619 -0.0417
  993MOL0     H31048  -0.040  -1.492   8.408 -2.9930 -0.5112  0.4903
  993MOL0     H31049  -0.004  -1.327   8.403  0.6121 -0.4491 -0.1056
  993MOL0     H31050  -0.262  -1.354   8.410 -0.7679 -1.5518 -0.2644
  993MOL0     H31051  -0.264  -1.455   8.267 -1.9660 -0.2846  2.4585
  993MOL0     H31052  -0.344  -1.251   8.204 -0.5005 -1.7303  2.0182
  993MOL0     H31053  -0.182  -1.270   8.132  2.0951  0.7385  0.2096
  993MOL0     H31054  -0.213  -1.091   8.382 -2.3540 -0.8805  0.5251
  993MOL0     H31055  -0.086  -1.100   8.262  0.0296  2.4066  0.3507
  993MOL0     H31056  -0.286  -1.046   8.090 -0.6294  0.5109  0.0671
  993MOL0     H31057  -0.209  -0.913   8.182 -0.6630  1.2003 -3.7364
  993MOL0     H31058   0.503  -1.317   8.235  0.3482 -1.2870 -0.3451
  993MOL0     H31059   0.696  -1.192   8.185  1.2083  3.1850 -1.1804
  993MOL0     H31060   0.894  -1.007   7.739 -0.1707  1.3471 -0.7864
  993MOL0     H31061   1.128  -0.944   7.634  1.2965  1.2786 -0.1398
  993MOL0     H31062   2.835   0.209   7.106  0.4699  0.9390  0.0840
  993MOL0     H31063   3.043   0.282   7.193 -2.9137  2.0707 -0.3531
  993MOL0     H31064   3.265   0.496   7.650 -2.1484 -0.6905 -1.0691
  993MOL0     H31065   3.488   0.572   7.693  0.2065  2.4778 -1.9986
  993MOL0     H31066   3.734   0.604   7.692 -0.5647 -2.9011  1.3704
  993MOL0     H31067   3.772   0.614   7.516  0.2907  1.8706  1.0927
  993MOL0     H31068   3.901   0.434   7.729 -1.9995 -0.2914 -0.8364
  993MOL0     H31069   3.964   0.457   7.566  0.8141  2.3877 -1.3475
  993MOL0     H31070   3.936   0.667   7.791 -2.5801 -0.2654 -1.8257
  993MOL0     H31071   4.000   0.709   7.632  3.2947 -1.0204 -1.1609
  993MOL0     H31072   4.156   0.512   7.811 -0.1477 -1.9528 -1.9771
  993MOL0     H31073   4.193   0.569   7.643 -1.0588  0.5824 -1.2734
  993MOL0     H31074   4.304   0.895   7.911 -0.8016  0.7268  0.5634
  993MOL0     H31075   3.625   0.257   7.416  1.4164 -0.2620  0.6560
  993MOL0     H31076   3.404   0.222   7.354  2.9931 -1.1908  1.0013
  994MOL0     O31077   4.841   0.465   5.381 -0.4120 -0.3495 -0.2924
  994MOL0     C31078   4.833   0.496   5.508 -0.0749  0.6190  0.5363
  994MOL0     O31079   4.925   0.463   5.602 -0.9374 -0.5597 -0.8979
  994MOL0     C31080   5.014   0.368   5.577  0.1498 -0.5865 -0.5863
  994MOL0     C31081   4.976   0.237   5.535 -1.7110 -0.0263  0.1563
  994MOL0     C31082   5.072   0.150   5.507  0.0450 -0.1477  0.7093
  994MOL0     C31083   5.212   0.173   5.515  0.2963 -0.4250  0.0737
  994MOL0     O31084   5.293   0.071   5.475 -0.2733  0.3469 -0.1157
  994MOL0     C31085   5.422   0.050   5.533 -1.1053  0.7174 -0.8868
  994MOL0     C31086   5.500  -0.074   5.478  0.6456 -1.5222  0.3500
  994MOL0     C31087   5.407  -0.194   5.487 -0.4018  0.3215 -0.4865
  994MOL0     C31088   5.462  -0.311   5.411  0.2507 -0.9674 -0.1724
  994MOL0     C31089   5.407  -0.444   5.461 -0.8003  1.0080 -0.6831
  994MOL0     C31090   5.274  -0.475   5.392 -0.0404 -1.0315 -0.2666
  994MOL0     C31091   5.191  -0.586   5.455  0.4989  0.1067 -0.3563
  994MOL0     C31092   5.144  -0.577   5.607 -0.6888 -0.7363 -0.8662
  994MOL0     N31093   5.018  -0.655   5.642 -0.6352 -0.2031 -0.2648
  994MOL0     C31094   4.981  -0.769   5.577 -0.0745  0.1202 -0.6917
  994MOL0     C31095   4.873  -0.804   5.652  0.4095  0.9182  0.2379
  994MOL0     C31096   4.785  -0.920   5.622  0.3872  0.9132 -0.2607
  994MOL0     C31097   4.642  -0.905   5.659  0.5795  0.2148 -0.5109
  994MOL0     C31098   4.557  -1.024   5.617  0.4762  0.3989 -0.7124
  994MOL0     C31099   4.411  -1.008   5.667  0.2990 -0.0944  0.2963
  994MOL0     O31100   4.373  -1.059   5.799  0.2330 -0.7140  0.5807
  994MOL0     C31101   4.239  -1.055   5.837 -0.2332  0.4464  0.4377
  994MOL0     C31102   4.126  -1.014   5.760  0.5752  0.1387 -0.3851
  994MOL0     C31103   3.997  -1.009   5.822  0.1880  0.5738 -0.0572
  994MOL0     C31104   3.979  -1.044   5.957  0.2524  0.5475 -0.3545
  994MOL0     C31105   3.847  -1.050   6.020  0.1204 -0.2656 -0.1172
  994MOL0     O31106   3.739  -1.042   5.937 -0.1785 -0.1789  0.0023
  994MOL0     C31107   3.617  -1.026   6.001 -0.6942  0.2225  0.2236
  994MOL0     C31108   3.538  -1.144   6.029  0.0169  0.1806  0.3470
  994MOL0     C31109   3.418  -1.132   6.093 -0.3163 -0.1151  1.2682
  994MOL0     C31110   3.364  -0.997   6.105  0.7642  0.6283 -0.7968
  994MOL0     O31111   3.236  -0.993   6.157 -0.3633 -0.6684  0.1630
  994MOL0     C31112   3.222  -1.033   6.293  0.1517 -0.1313  0.1979
  994MOL0     C31113   3.069  -1.032   6.327 -0.9533 -0.6604 -0.5315
  994MOL0     C31114   2.988  -1.122   6.240  1.3590 -0.7549  0.7207
  994MOL0     C31115   2.832  -1.121   6.260 -1.0269 -0.1235  0.2084
  994MOL0     C31116   2.779  -1.153   6.396  0.7769  0.0260  0.0006
  994MOL0     C31117   2.644  -1.217   6.385 -0.1021 -0.0698 -0.2186
  994MOL0     C31118   2.526  -1.138   6.343  0.3908  0.6140 -0.5067
  994MOL0     C31119   2.406  -1.234   6.317 -0.6810 -0.1322  0.1936
  994MOL0    Cl31120   2.269  -1.148   6.236 -0.2038  0.3927  0.0678
  994MOL0     C31121   3.428  -0.886   6.056  0.3651 -0.1182  0.8037
  994MOL0     C31122   3.555  -0.898   6.009  0.0372 -0.5588 -0.7845
  994MOL0     O31123   3.838  -1.054   6.142  0.2959 -0.1367 -0.3038
  994MOL0     C31124   4.093  -1.088   6.031  0.4767  0.0441  0.5695
  994MOL0     C31125   4.212  -1.089   5.970  0.4247  0.4617  0.0718
  994MOL0     N31126   4.847  -0.702   5.739  0.5430  0.1889 -0.6421
  994MOL0     N31127   4.932  -0.609   5.732  0.8577  1.0775  0.2346
  994MOL0     C31128   5.254   0.303   5.565 -1.0420  0.5678 -0.3112
  994MOL0     C31129   5.150   0.397   5.599  0.2072 -0.2020  0.8781
  994MOL0     C31130   4.717   0.579   5.554  0.4561  0.2842 -0.0485
  994MOL0     C31131   4.706   0.619   5.686  0.8383  0.0628 -0.3523
  994MOL0     C31132   4.589   0.675   5.738  0.1945  0.9575  0.7102
  994MOL0     C31133   4.481   0.704   5.646  0.2866  0.5118  0.4408
  994MOL0     O31134   4.362   0.761   5.673  0.1475  0.0388 -0.0859
  994MOL0     C31135   4.325   0.762   5.808 -0.1481  0.2270 -0.6452
  994MOL0     C31136   4.377   0.887   5.881  0.1740 -0.6906 -0.0777
  994MOL0     C31137   4.304   0.904   6.016  0.4969  0.1753 -0.4555
  994MOL0     C31138   4.159   0.952   5.999  1.7328 -0.7578  0.1970
  994MOL0     C31139   4.087   0.965   6.121  0.0273  0.4229  0.1805
  994MOL0     C31140   4.024   0.961   6.227 -0.1643 -0.3887 -0.5923
  994MOL0     C31141   4.503   0.684   5.509  0.5726  0.3703 -0.5713
  994MOL0     C31142   4.616   0.620   5.464  0.0568  0.9126 -0.2060
  994MOL0     H31143   4.873   0.203   5.525 -1.6015  0.2130 -2.1143
  994MOL0     H31144   5.032   0.058   5.465  1.8115 -0.4176 -0.4985
  994MOL0     H31145   5.412   0.027   5.639  3.7394 -3.7222 -0.9979
  994MOL0     H31146   5.473   0.147   5.534  0.5603  0.0839  4.0900
  994MOL0     H31147   5.591  -0.093   5.535  0.5993  1.1618  1.4479
  994MOL0     H31148   5.522  -0.059   5.372  0.2123 -2.6530  0.0784
  994MOL0     H31149   5.307  -0.181   5.444 -1.0999 -0.9506  0.6889
  994MOL0     H31150   5.388  -0.223   5.590 -3.0101 -0.5890 -1.1383
  994MOL0     H31151   5.448  -0.301   5.303 -1.7517 -1.5064 -0.0016
  994MOL0     H31152   5.568  -0.307   5.439  0.0999  0.3620  0.2587
  994MOL0     H31153   5.389  -0.455   5.568 -2.9371  0.3177 -1.0809
  994MOL0     H31154   5.472  -0.528   5.435 -2.8904 -1.4309  1.4650
  994MOL0     H31155   5.285  -0.497   5.286 -0.1988 -1.5218 -0.1841
  994MOL0     H31156   5.212  -0.387   5.412  0.6325 -0.7143  0.4958
  994MOL0     H31157   5.090  -0.597   5.413  0.3365 -0.5354  0.1707
  994MOL0     H31158   5.231  -0.685   5.431  0.6017  0.8576 -3.6079
  994MOL0     H31159   5.141  -0.472   5.640  1.1286 -0.4697 -1.4566
  994MOL0     H31160   5.223  -0.628   5.662  0.2662 -1.0580 -2.4707
  994MOL0     H31161   5.019  -0.827   5.493  2.1355  0.2071  0.1905
  994MOL0     H31162   4.822  -1.005   5.681 -1.1378  1.0794  1.0194
  994MOL0     H31163   4.792  -0.950   5.517  2.0759  0.4421 -0.0387
  994MOL0     H31164   4.601  -0.806   5.636  0.9119  0.9085  1.6234
  994MOL0     H31165   4.637  -0.900   5.768  1.5335  1.6062 -0.5039
  994MOL0     H31166   4.556  -1.021   5.508  2.8283  0.2423 -0.8046
  994MOL0     H31167   4.594  -1.123   5.644  0.5573  1.2150  2.6773
  994MOL0     H31168   4.352  -1.069   5.598 -0.3272 -2.4123  2.7340
  994MOL0     H31169   4.382  -0.903   5.658  0.7802  0.2310  2.1476
  994MOL0     H31170   4.137  -0.982   5.658  1.7054 -1.5795 -0.8483
  994MOL0     H31171   3.914  -0.985   5.757 -1.6661  2.3889  2.7631
  994MOL0     H31172   3.564  -1.239   5.984  0.0274  0.8247 -1.0487
  994MOL0     H31173   3.355  -1.219   6.108 -0.7363  0.2548  1.7235
  994MOL0     H31174   3.281  -0.960   6.349 -1.7423 -0.2025  2.4320
  994MOL0     H31175   3.258  -1.136   6.298 -1.4829 -0.9159 -2.2767
  994MOL0     H31176   3.040  -0.927   6.316  2.3687  0.4061 -0.0267
  994MOL0     H31177   3.069  -1.058   6.433  0.2484  2.8781  0.4780
  994MOL0     H31178   3.024  -1.224   6.257  0.2358 -1.3047 -0.0894
  994MOL0     H31179   2.995  -1.098   6.133 -1.6905 -2.8705 -0.0712
  994MOL0     H31180   2.806  -1.019   6.229  5.2121  2.3035  1.2941
  994MOL0     H31181   2.797  -1.192   6.184  0.4487 -0.3100 -0.3404
  994MOL0     H31182   2.772  -1.064   6.459  0.2330 -1.4266  2.1351
  994MOL0     H31183   2.855  -1.219   6.440  3.3395  1.9803 -1.2174
  994MOL0     H31184   2.617  -1.257   6.483 -0.8740 -3.7035 -1.7392
  994MOL0     H31185   2.658  -1.303   6.319 -0.0795  1.1255 -1.8204
  994MOL0     H31186   2.490  -1.061   6.412  0.7096 -0.9944  1.5655
  994MOL0     H31187   2.546  -1.095   6.245 -1.7642 -0.4590 -1.4894
  994MOL0     H31188   2.365  -1.273   6.411 -0.4069  3.2718  1.8577
  994MOL0     H31189   2.442  -1.313   6.251  3.5131  0.7254  1.1408
  994MOL0     H31190   3.391  -0.787   6.079  0.4798 -0.1920  1.3138
  994MOL0     H31191   3.613  -0.816   5.969  1.6642 -0.0668  2.3190
  994MOL0     H31192   4.103  -1.119   6.135 -0.0546  1.7571  1.1723
  994MOL0     H31193   4.305  -1.113   6.022  2.2379  3.3937 -1.5089
  994MOL0     H31194   5.357   0.330   5.587 -0.9091  0.5712 -0.9338
  994MOL0     H31195   5.184   0.496   5.629  0.1558  1.0480 -2.6923
  994MOL0     H31196   4.780   0.593   5.761 -0.8378 -0.8367  1.0688
  994MOL0     H31197   4.580   0.707   5.841 -0.1006 -0.1982  1.0585
  994MOL0     H31198   4.367   0.681   5.869  1.5103  2.3617  1.2264
  994MOL0     H31199   4.216   0.755   5.809 -0.1551 -1.0748 -3.0839
  994MOL0     H31200   4.478   0.877   5.923 -0.4926 -0.3837  1.6687
  994MOL0     H31201   4.372   0.978   5.820  1.8713  0.2904  1.1652
  994MOL0     H31202   4.357   0.985   6.067  0.2388 -0.5024  0.9484
  994MOL0     H31203   4.313   0.807   6.065 -0.9765 -0.0283 -0.5419
  994MOL0     H31204   4.160   1.044   5.940  0.4182  0.0799  1.4537
  994MOL0     H31205   4.101   0.883   5.937  0.0286  1.6357 -1.0430
  994MOL0     H31206   3.974   0.969   6.322 -1.1711 -0.9965 -1.0664
  994MOL0     H31207   4.427   0.699   5.433  1.3244  3.7337 -0.8535
  994MOL0     H31208   4.617   0.605   5.357 -1.0450 -3.1083  0.1813
  995MOL0     O31209   4.639   5.111   0.641  0.2832  0.4814  0.1433
  995MOL0     C31210   4.739   5.044   0.605  0.5949 -0.7720  0.2607
  995MOL0     O31211   4.748   4.914   0.556  0.3885 -0.0978 -0.1031
  995MOL0     C31212   4.628   4.860   0.529  0.5283 -0.0846 -0.4732
  995MOL0     C31213   4.583   4.860   0.393 -0.8235 -1.1881  0.0406
  995MOL0     C31214   4.461   4.803   0.350  0.4985  0.0721  0.5315
  995MOL0     C31215   4.386   4.738   0.451  0.9467  1.0381  0.1472
  995MOL0     O31216   4.257   4.683   0.421 -0.8166 -0.5108 -0.0053
  995MOL0     C31217   4.217   4.557   0.474  0.2746 -0.5089 -0.4873
  995MOL0     C31218   4.104   4.501   0.396  0.5984  0.2813  0.5785
  995MOL0     C31219   3.993   4.603   0.406 -0.0351  0.0522  0.0698
  995MOL0     C31220   3.853   4.550   0.365  0.6777 -1.3220 -0.0993
  995MOL0     C31221   3.764   4.674   0.326  0.0232  0.5171 -0.1891
  995MOL0     C31222   3.796   4.739   0.195  0.3272 -0.0927  0.1384
  995MOL0     C31223   3.671   4.812   0.138  0.7891  0.1986 -0.6825
  995MOL0     C31224   3.695   4.856  -0.006  0.7302 -0.5474 -0.0776
  995MOL0     N31225   3.578   4.940  -0.050 -0.4213  1.0368  0.2526
  995MOL0     C31226   3.478   4.891  -0.128  0.0264 -0.5231  0.3585
  995MOL0     C31227   3.377   4.983  -0.127  0.2965  0.5296 -0.4906
  995MOL0     C31228   3.248   4.978  -0.210 -0.1888  0.0427  1.1045
  995MOL0     C31229   3.120   4.921  -0.145  0.4292 -0.0321 -0.5950
  995MOL0     C31230   3.043   5.021  -0.055  0.0565 -0.2023 -0.4679
  995MOL0     C31231   2.933   4.953   0.021 -0.0041 -0.2978  0.0840
  995MOL0     O31232   2.819   4.910  -0.054 -0.3900 -0.4024  0.0275
  995MOL0     C31233   2.697   4.905   0.011  0.1276 -0.2521 -0.4077
  995MOL0     C31234   2.604   4.825  -0.056  0.2075 -0.1943  0.7001
  995MOL0     C31235   2.474   4.808  -0.014  0.6304  0.0732  0.2066
  995MOL0     C31236   2.422   4.886   0.092  0.0677  0.0105 -0.2433
  995MOL0     C31237   2.276   4.898   0.118  1.3758 -0.5293  0.9213
  995MOL0     O31238   2.203   4.858   0.014 -0.3349 -0.3106  0.3365
  995MOL0     C31239   2.061   4.880   0.002  0.2036  0.2308  0.0189
  995MOL0     C31240   1.990   4.982   0.062  0.1023 -0.1564 -0.6079
  995MOL0     C31241   1.848   4.987   0.049 -0.6476 -0.4324 -0.4515
  995MOL0     C31242   1.783   4.895  -0.034 -0.1604  0.2287  0.1085
  995MOL0     O31243   1.643   4.891  -0.045  0.0697  0.4989 -0.4940
  995MOL0     C31244   1.583   5.002  -0.100 -0.0521 -0.2303 -0.3133
  995MOL0     C31245   1.458   4.964  -0.169 -0.0943 -0.1278  0.3953
  995MOL0     C31246   1.391   5.084  -0.238 -0.3289  0.6958  0.1654
  995MOL0     C31247   1.264   5.057  -0.327 -0.5637  0.4983  0.6264
  995MOL0     C31248   1.172   5.177  -0.338 -0.9890  0.6154 -0.2411
  995MOL0     C31249   1.053   5.142  -0.422 -0.7218 -0.0076  0.0559
  995MOL0     C31250   0.984   5.274  -0.452  0.2401 -0.1916 -0.0498
  995MOL0     C31251   0.836   5.273  -0.398 -0.1572  0.4599 -0.5057
  995MOL0    Cl31252   0.751   5.133  -0.469  0.0533  0.0715  0.0702
  995MOL0     C31253   1.856   4.795  -0.101 -0.7176  0.3960  0.1288
  995MOL0     C31254   1.994   4.785  -0.085  0.3001 -1.0634 -0.6914
  995MOL0     O31255   2.238   4.956   0.217  0.4687  0.0939 -0.2662
  995MOL0     C31256   2.516   4.964   0.172 -0.9039  0.2683  0.0885
  995MOL0     C31257   2.654   4.959   0.133  0.0666  0.5654  0.4917
  995MOL0     N31258   3.425   5.094  -0.052 -0.2007  0.0005  0.6302
  995MOL0     N31259   3.549   5.065  -0.012  0.5389  0.0655 -0.9684
  995MOL0     C31260   4.423   4.734   0.581 -0.3607 -0.3724 -0.5634
  995MOL0     C31261   4.540   4.794   0.620 -0.5322 -0.0062  0.2826
  995MOL0     C31262   4.869   5.117   0.626  0.4332 -0.4050  0.5378
  995MOL0     C31263   4.976   5.042   0.662 -0.4794 -0.6020 -0.3697
  995MOL0     C31264   5.097   5.099   0.694  0.4758 -0.3350  0.3241
  995MOL0     C31265   5.111   5.237   0.686  0.1351 -0.5330 -0.1033
  995MOL0     O31266   5.226   5.309   0.709  0.0231  0.4429 -0.0875
  995MOL0     C31267   5.340   5.243   0.761  0.0667  0.0764 -0.4002
  995MOL0     C31268   5.432   5.213   0.643 -0.2464 -0.2978 -0.0016
  995MOL0     C31269   5.496   5.343   0.587  0.3494  0.1108  0.9379
  995MOL0     C31270   5.600   5.405   0.679 -0.1964  0.1711  0.0299
  995MOL0     C31271   5.659   5.524   0.620 -0.5250  0.5903 -0.1290
  995MOL0     C31272   5.701   5.626   0.570  0.3301  0.2535  0.3865
  995MOL0     C31273   5.009   5.312   0.631  0.6489 -0.2108  0.1269
  995MOL0     C31274   4.890   5.256   0.608  0.7122 -0.4584 -0.9289
  995MOL0     H31275   4.647   4.900   0.315 -3.0580  0.4138 -1.0877
  995MOL0     H31276   4.443   4.810   0.243  0.4648  4.0155  0.6469
  995MOL0     H31277   4.192   4.567   0.580 -3.2725  2.3119 -1.3883
  995MOL0     H31278   4.300   4.488   0.454 -0.1378 -1.2983  0.4833
  995MOL0     H31279   4.073   4.404   0.434  3.0605 -1.9471 -2.5252
  995MOL0     H31280   4.129   4.480   0.292 -2.1569  0.2328 -0.1504
  995MOL0     H31281   4.014   4.695   0.351  3.0264  2.7882  5.0214
  995MOL0     H31282   3.982   4.631   0.511  1.1330 -2.7518  1.0282
  995MOL0     H31283   3.852   4.480   0.281 -2.1845 -0.1989 -1.1004
  995MOL0     H31284   3.803   4.503   0.450 -0.9844  1.1662  0.3920
  995MOL0     H31285   3.774   4.757   0.397 -1.7598  0.0264  0.7093
  995MOL0     H31286   3.662   4.636   0.319 -0.9587  3.1925 -1.6893
  995MOL0     H31287   3.829   4.662   0.124 -1.3383 -3.0101  2.2909
  995MOL0     H31288   3.878   4.809   0.212 -0.6944  0.9427  1.0123
  995MOL0     H31289   3.602   4.727   0.136  1.4950 -0.3954 -0.3521
  995MOL0     H31290   3.635   4.890   0.206  0.8871 -0.6631  0.3799
  995MOL0     H31291   3.710   4.768  -0.069  2.7340 -0.8032  0.6625
  995MOL0     H31292   3.784   4.920  -0.006 -2.3024  4.0907 -1.0799
  995MOL0     H31293   3.466   4.787  -0.157  0.0003 -1.7503  4.1821
  995MOL0     H31294   3.269   4.923  -0.302 -0.0860  2.4075 -0.3871
  995MOL0     H31295   3.226   5.080  -0.244 -0.4479 -1.4148 -3.7785
  995MOL0     H31296   3.151   4.838  -0.081 -1.5455 -1.3309 -1.2502
  995MOL0     H31297   3.055   4.895  -0.229 -1.3457  2.1798  0.0099
  995MOL0     H31298   3.115   5.064   0.016 -1.3208  0.2213  0.6995
  995MOL0     H31299   3.008   5.109  -0.109  0.8511  0.8136  0.6236
  995MOL0     H31300   2.905   5.028   0.096  1.6419  0.3408  0.1051
  995MOL0     H31301   2.977   4.869   0.077  0.3559  1.2183  2.2252
  995MOL0     H31302   2.638   4.761  -0.137  2.6535 -0.6165  1.9453
  995MOL0     H31303   2.405   4.740  -0.065 -0.5661  1.5550 -0.2132
  995MOL0     H31304   2.033   5.050   0.133  0.2947  0.7018 -1.5299
  995MOL0     H31305   1.782   5.060   0.095  0.7527  1.3428 -1.1462
  995MOL0     H31306   1.656   5.042  -0.171 -1.9139  1.0212 -1.6108
  995MOL0     H31307   1.562   5.076  -0.021 -2.0282  1.6839 -2.4714
  995MOL0     H31308   1.383   4.910  -0.110 -0.9365 -4.0071 -3.6952
  995MOL0     H31309   1.472   4.892  -0.249  1.3755 -1.4851  1.8011
  995MOL0     H31310   1.463   5.140  -0.298  0.1428 -0.6587 -0.5629
  995MOL0     H31311   1.348   5.141  -0.155 -0.3029 -0.3921  0.9507
  995MOL0     H31312   1.300   5.028  -0.426  0.1143 -3.9905  1.9832
  995MOL0     H31313   1.209   4.969  -0.292  2.1306 -1.8430 -0.6031
  995MOL0     H31314   1.220   5.263  -0.385 -1.7032  0.7936 -0.6560
  995MOL0     H31315   1.136   5.206  -0.239  0.9452  1.3114  0.3005
  995MOL0     H31316   0.976   5.087  -0.367  0.9706 -2.1288  0.4276
  995MOL0     H31317   1.081   5.090  -0.514  3.0927  0.2288  0.9115
  995MOL0     H31318   1.043   5.358  -0.416  1.2238 -1.1970  0.7580
  995MOL0     H31319   0.986   5.273  -0.562  1.8037  0.4884 -0.0538
  995MOL0     H31320   0.786   5.363  -0.434 -1.6195 -1.3165 -3.3449
  995MOL0     H31321   0.825   5.263  -0.290 -0.1912 -0.9420 -0.6204
  995MOL0     H31322   1.807   4.724  -0.166  0.7877 -1.7601  1.2108
  995MOL0     H31323   2.040   4.711  -0.150 -1.2047 -1.4508 -1.3599
  995MOL0     H31324   2.474   5.027   0.250  0.2094  0.1665  0.7898
  995MOL0     H31325   2.723   5.019   0.192 -1.6595  4.7567 -1.3216
  995MOL0     H31326   4.363   4.683   0.656 -0.4551 -2.9354 -2.2463
  995MOL0     H31327   4.572   4.806   0.723  1.1534  0.3299 -0.2527
  995MOL0     H31328   4.966   4.935   0.670  0.8156 -0.7434 -0.4824
  995MOL0     H31329   5.175   5.035   0.733 -0.6266 -2.2125 -0.3730
  995MOL0     H31330   5.323   5.158   0.828  0.8783  1.9588  2.3598
  995MOL0     H31331   5.377   5.324   0.824 -1.5271  0.0228  0.6616
  995MOL0     H31332   5.513   5.156   0.692 -0.4039 -0.3205  0.2341
  995MOL0     H31333   5.387   5.160   0.559  0.7999  0.1482 -0.8627
  995MOL0     H31334   5.421   5.421   0.571  1.5486  0.6622 -3.2551
  995MOL0     H31335   5.536   5.326   0.487 -2.0244  2.5004 -0.5235
  995MOL0     H31336   5.538   5.427   0.767 -1.1171 -0.5338 -0.4282
  995MOL0     H31337   5.670   5.325   0.704 -2.1982 -1.5896  0.2417
  995MOL0     H31338   5.744   5.712   0.524 -1.2818  0.9095  0.0556
  995MOL0     H31339   5.021   5.418   0.610 -0.5415 -0.8291 -4.8454
  995MOL0     H31340   4.807   5.317   0.573  0.7619 -0.5467 -1.1965
  996MOL0     O31341   8.043   2.510   7.065 -0.4854 -0.3959  0.6052
  996MOL0     C31342   8.135   2.429   7.062  0.1369  0.6730  0.0116
  996MOL0     O31343   8.113   2.291   7.053  0.2018 -0.3032  0.3831
  996MOL0     C31344   7.981   2.252   7.076 -0.3492 -0.4452 -0.2353
  996MOL0     C31345   7.883   2.254   6.974 -0.6377  0.3353 -0.0420
  996MOL0     C31346   7.753   2.225   7.002  0.2891  0.7294  0.1076
  996MOL0     C31347   7.712   2.181   7.131 -0.7061 -0.6210 -0.6138
  996MOL0     O31348   7.586   2.153   7.172  0.2033  0.0803  0.2650
  996MOL0     C31349   7.477   2.199   7.092 -0.5517 -0.2534 -0.1226
  996MOL0     C31350   7.350   2.194   7.180  0.2269  0.0022 -0.5999
  996MOL0     C31351   7.336   2.062   7.244 -0.2883  0.4559  0.6519
  996MOL0     C31352   7.386   2.053   7.389 -0.1889  0.3555  0.4523
  996MOL0     C31353   7.380   1.907   7.436 -0.1354  0.6267 -0.0802
  996MOL0     C31354   7.246   1.840   7.441  0.4992 -0.1048 -0.0976
  996MOL0     C31355   7.167   1.895   7.566  1.0743  0.2664  0.0890
  996MOL0     C31356   7.033   1.812   7.598 -0.0462  1.0349  0.0379
  996MOL0     N31357   6.957   1.812   7.474  0.0138  0.4026  0.4031
  996MOL0     C31358   6.924   1.695   7.401 -0.0876 -0.8491  0.7308
  996MOL0     C31359   6.824   1.730   7.312  0.0775  0.1608 -0.2341
  996MOL0     C31360   6.761   1.642   7.212  0.6317  0.0570  0.2044
  996MOL0     C31361   6.616   1.668   7.176 -0.6562  0.3385  0.0007
  996MOL0     C31362   6.528   1.612   7.290  0.0337 -0.5269  0.5819
  996MOL0     C31363   6.375   1.624   7.280 -0.9003 -1.0740  0.5977
  996MOL0     O31364   6.299   1.548   7.374  0.3928  0.3370 -0.6041
  996MOL0     C31365   6.168   1.519   7.343 -0.4258 -1.2159 -0.8991
  996MOL0     C31366   6.106   1.414   7.416 -0.2115  0.9610  0.7157
  996MOL0     C31367   5.976   1.386   7.393 -0.6784  0.4129 -0.4611
  996MOL0     C31368   5.897   1.466   7.306 -0.0496  0.6301 -0.2825
  996MOL0     C31369   5.749   1.444   7.289 -0.6666 -0.4207  0.2594
  996MOL0     O31370   5.703   1.329   7.335  0.3320  0.4136  0.8635
  996MOL0     C31371   5.574   1.292   7.314  0.6885  0.3330  0.0012
  996MOL0     C31372   5.546   1.163   7.255  0.1733  0.6339 -0.1517
  996MOL0     C31373   5.416   1.123   7.237 -0.2288 -0.8380  0.2401
  996MOL0     C31374   5.305   1.206   7.288 -0.7709 -0.0652 -0.5965
  996MOL0     O31375   5.172   1.164   7.294 -1.3327  0.0084 -0.4815
  996MOL0     C31376   5.119   1.088   7.182 -0.0535 -0.6014 -0.0635
  996MOL0     C31377   4.965   1.055   7.207  0.1421  0.4942  0.1746
  996MOL0     C31378   4.939   0.962   7.321  0.5291 -0.5322 -0.1001
  996MOL0     C31379   4.792   0.967   7.358 -0.1139 -0.7052  0.7070
  996MOL0     C31380   4.775   0.923   7.497  0.5726  0.5378  0.3521
  996MOL0     C31381   4.636   0.869   7.538 -0.1211  1.3260  0.5741
  996MOL0     C31382   4.609   0.740   7.458  0.4966 -0.3212 -0.1446
  996MOL0     C31383   4.474   0.686   7.491  0.9716  0.2952 -0.5706
  996MOL0    Cl31384   4.476   0.604   7.651  0.0451  0.0078  0.0092
  996MOL0     C31385   5.342   1.319   7.357 -0.4130  0.2868 -0.2389
  996MOL0     C31386   5.471   1.361   7.371 -0.6776  0.3048  0.0288
  996MOL0     O31387   5.677   1.532   7.230 -0.5232 -0.3704  0.4970
  996MOL0     C31388   5.958   1.569   7.235  0.0822 -0.0919  0.0980
  996MOL0     C31389   6.092   1.594   7.257  0.3757 -0.0232  0.0570
  996MOL0     N31390   6.791   1.865   7.335  0.5545 -0.0303  0.7489
  996MOL0     N31391   6.871   1.906   7.430  0.0388 -0.4824 -0.2435
  996MOL0     C31392   7.815   2.157   7.227 -0.2645  0.1752  0.4994
  996MOL0     C31393   7.947   2.203   7.201 -0.0555  0.8028  0.3462
  996MOL0     C31394   8.270   2.467   7.052  0.1564  0.1847 -0.5499
  996MOL0     C31395   8.375   2.372   7.064  0.5560  0.9904  0.0750
  996MOL0     C31396   8.502   2.425   7.057 -0.6965  0.6548  0.2973
  996MOL0     C31397   8.531   2.552   7.042  0.3302 -1.2270  0.1062
  996MOL0     O31398   8.660   2.589   7.062 -0.0714  0.4965 -0.3583
  996MOL0     C31399   8.711   2.719   7.040 -0.1461 -0.4799  0.4261
  996MOL0     C31400   8.696   2.805   7.168 -0.2912 -0.5788 -0.6253
  996MOL0     C31401   8.750   2.942   7.137 -0.0559 -1.2406 -0.6377
  996MOL0     C31402   8.664   3.019   7.033  0.7412  0.7250 -0.1777
  996MOL0     C31403   8.696   3.160   7.031  0.1383 -0.3249 -0.6522
  996MOL0     C31404   8.723   3.275   7.066  0.9537  0.1414  0.0545
  996MOL0     C31405   8.428   2.645   7.028  0.8374  0.3789  0.1979
  996MOL0     C31406   8.292   2.611   7.039  0.1706  0.0462 -0.6414
  996MOL0     H31407   7.907   2.283   6.872 -3.7848  0.1850 -0.9286
  996MOL0     H31408   7.680   2.241   6.923  1.3406  0.3285 -0.9847
  996MOL0     H31409   7.472   2.147   6.996 -2.3544  0.2943 -0.3710
  996MOL0     H31410   7.486   2.304   7.060 -0.3595  0.1631  1.2108
  996MOL0     H31411   7.251   2.214   7.138  1.2083 -1.0596 -3.6903
  996MOL0     H31412   7.366   2.270   7.257  0.9193  0.0851 -0.8177
  996MOL0     H31413   7.367   1.979   7.181 -0.9690  0.9900 -0.4099
  996MOL0     H31414   7.227   2.056   7.252 -0.3652  1.1262  0.1996
  996MOL0     H31415   7.495   2.066   7.397  0.0116  0.0881 -1.2858
  996MOL0     H31416   7.331   2.112   7.463  1.9466 -0.6856  3.0392
  996MOL0     H31417   7.428   1.893   7.533 -0.7723 -0.7544  0.0520
  996MOL0     H31418   7.439   1.846   7.367 -0.8445 -0.5160  0.3038
  996MOL0     H31419   7.260   1.732   7.449 -0.4416 -0.1397  1.4858
  996MOL0     H31420   7.184   1.859   7.353 -1.3727 -2.5839  0.5658
  996MOL0     H31421   7.228   1.905   7.657 -0.2820  2.3170  0.8531
  996MOL0     H31422   7.145   1.999   7.540 -0.6340  0.4900  2.1144
  996MOL0     H31423   6.976   1.866   7.674  1.7690  3.1317  0.0151
  996MOL0     H31424   7.055   1.711   7.635 -0.1800  0.9369 -0.1517
  996MOL0     H31425   6.963   1.594   7.409 -3.7675 -2.4398  0.4473
  996MOL0     H31426   6.769   1.538   7.245 -2.8256 -0.0761  1.0146
  996MOL0     H31427   6.819   1.660   7.121 -1.4370  1.1027 -0.9997
  996MOL0     H31428   6.589   1.608   7.088  0.0253 -1.6406  1.0782
  996MOL0     H31429   6.596   1.774   7.161  1.4743  0.5903 -1.4484
  996MOL0     H31430   6.548   1.505   7.303  1.3484 -0.1565  1.8588
  996MOL0     H31431   6.558   1.662   7.383 -2.1803  0.3043  0.9051
  996MOL0     H31432   6.336   1.593   7.182 -0.0914 -0.9898  0.2381
  996MOL0     H31433   6.359   1.731   7.294  0.5201 -1.1161  3.0828
  996MOL0     H31434   6.173   1.378   7.494  0.2348 -1.1626 -0.5741
  996MOL0     H31435   5.929   1.304   7.447  0.9046 -0.3073 -0.1298
  996MOL0     H31436   5.627   1.101   7.215 -0.6556 -1.0775  0.7058
  996MOL0     H31437   5.402   1.023   7.198  0.8975 -0.0150 -2.5246
  996MOL0     H31438   5.172   0.994   7.166  4.3283  1.1734  2.2416
  996MOL0     H31439   5.129   1.152   7.094  0.5067  0.6881  0.9067
  996MOL0     H31440   4.921   1.009   7.118  0.4443 -0.2117  0.3750
  996MOL0     H31441   4.909   1.148   7.216  0.6513  0.8748 -0.4672
  996MOL0     H31442   4.999   1.011   7.398 -0.5595  1.3597 -0.3926
  996MOL0     H31443   4.967   0.858   7.305 -1.5412 -0.9158 -1.6147
  996MOL0     H31444   4.759   1.071   7.353  2.1084  0.0280  0.0435
  996MOL0     H31445   4.728   0.913   7.288  0.7013 -0.4834 -0.2263
  996MOL0     H31446   4.808   0.997   7.570  3.5373 -1.2579  1.0033
  996MOL0     H31447   4.851   0.845   7.509 -0.5059 -0.6716 -0.3806
  996MOL0     H31448   4.566   0.938   7.490 -0.3937  0.1588 -0.7636
  996MOL0     H31449   4.632   0.861   7.647  1.5989 -0.9733  0.5463
  996MOL0     H31450   4.630   0.739   7.351 -1.1635 -3.6126 -0.5858
  996MOL0     H31451   4.691   0.676   7.490 -0.0669  1.2036  5.3693
  996MOL0     H31452   4.429   0.613   7.423  0.9992 -0.1167 -0.1563
  996MOL0     H31453   4.404   0.766   7.514  0.6746 -0.5109  1.5062
  996MOL0     H31454   5.260   1.364   7.411  0.0620  0.6308  0.2037
  996MOL0     H31455   5.494   1.438   7.444 -0.4105  2.0533 -1.8089
  996MOL0     H31456   5.908   1.623   7.156  2.2390 -2.3680 -3.0439
  996MOL0     H31457   6.134   1.671   7.194  1.1708 -1.0117 -0.6601
  996MOL0     H31458   7.789   2.112   7.322 -1.7483 -0.2823 -0.0861
  996MOL0     H31459   8.025   2.178   7.272  0.8517 -4.2534 -1.9663
  996MOL0     H31460   8.358   2.265   7.078 -3.0774  1.2881 -1.1028
  996MOL0     H31461   8.574   2.344   7.071  1.9245  3.1997  3.0679
  996MOL0     H31462   8.665   2.768   6.953  1.4436  3.2587  1.4931
  996MOL0     H31463   8.817   2.713   7.015  0.3756  2.0257  1.7930
  996MOL0     H31464   8.597   2.799   7.214  1.5932 -0.8829  3.9781
  996MOL0     H31465   8.764   2.761   7.242 -0.2080 -0.1629 -0.4540
  996MOL0     H31466   8.853   2.932   7.101 -0.3160 -3.0796 -1.0031
  996MOL0     H31467   8.749   3.000   7.230 -2.0948  0.2883 -1.5636
  996MOL0     H31468   8.674   2.984   6.929  1.2412  0.2027  0.0406
  996MOL0     H31469   8.560   3.013   7.064  1.0083 -2.3552  0.4579
  996MOL0     H31470   8.729   3.379   7.093 -0.0025 -0.5212  3.2911
  996MOL0     H31471   8.440   2.750   7.007 -1.7902  0.2705 -2.5732
  996MOL0     H31472   8.219   2.691   7.038  0.4378  0.2970 -2.0175
  997MOL0     O31473   1.925   1.810   2.660  0.1281  0.0847  0.0095
  997MOL0     C31474   1.965   1.698   2.657  0.0803 -0.0149  1.0089
  997MOL0     O31475   1.892   1.580   2.679  0.7107 -0.8264  0.1478
  997MOL0     C31476   1.765   1.597   2.734  0.6301 -0.0638 -0.8264
  997MOL0     C31477   1.670   1.677   2.675  1.0136  0.5063  0.1265
  997MOL0     C31478   1.535   1.688   2.731  0.2904  0.1317 -0.5039
  997MOL0     C31479   1.503   1.606   2.847  0.3891 -0.1425 -0.2987
  997MOL0     O31480   1.379   1.616   2.895  0.4247  0.5259 -0.2031
  997MOL0     C31481   1.369   1.587   3.036  0.0139 -0.2183 -0.0127
  997MOL0     C31482   1.258   1.675   3.089  0.3393  0.0572  0.6033
  997MOL0     C31483   1.259   1.694   3.232  0.4716 -0.0923  0.4341
  997MOL0     C31484   1.238   1.562   3.309 -0.0233  0.1590 -0.1067
  997MOL0     C31485   1.189   1.579   3.449 -0.1591  0.1206  0.1358
  997MOL0     C31486   1.285   1.676   3.539  0.2202  0.8243 -0.0907
  997MOL0     C31487   1.234   1.695   3.675  0.3655 -0.5265 -0.3568
  997MOL0     C31488   1.308   1.804   3.756 -0.1522 -0.3198  0.4393
  997MOL0     N31489   1.254   1.935   3.718  0.8121  0.3255 -0.1579
  997MOL0     C31490   1.153   1.992   3.788 -0.3381  0.0856  0.4989
  997MOL0     C31491   1.119   2.110   3.729 -0.5973  0.2878  0.5288
  997MOL0     C31492   1.017   2.209   3.778 -0.1558  1.0228  0.2733
  997MOL0     C31493   0.880   2.151   3.743  0.6525  0.3867 -0.5362
  997MOL0     C31494   0.774   2.242   3.795 -0.2031 -0.0323 -0.6062
  997MOL0     C31495   0.637   2.201   3.746  0.2046  1.0930  0.0635
  997MOL0     O31496   0.614   2.063   3.774  0.4804 -0.5119  0.4906
  997MOL0     C31497   0.490   2.008   3.745  0.4017  0.4796 -0.1161
  997MOL0     C31498   0.373   2.081   3.708 -0.4672  0.0219 -0.7461
  997MOL0     C31499   0.258   2.010   3.682  0.1780  0.4541 -0.1267
  997MOL0     C31500   0.250   1.871   3.680  0.0865  0.3442  0.1376
  997MOL0     C31501   0.121   1.804   3.658 -0.6735  0.2384  0.3061
  997MOL0     O31502   0.101   1.682   3.724 -0.5402 -0.3007  1.2025
  997MOL0     C31503  -0.013   1.600   3.704 -0.0640 -0.2462  0.2480
  997MOL0     C31504  -0.011   1.502   3.610  0.4602  0.0243  0.1382
  997MOL0     C31505  -0.115   1.410   3.594 -0.7343 -0.7892 -0.0102
  997MOL0     C31506  -0.231   1.428   3.663  0.2714  0.4875 -0.3586
  997MOL0     O31507  -0.339   1.345   3.636 -0.0154 -0.2554  1.1674
  997MOL0     C31508  -0.469   1.380   3.681 -0.0045 -0.4985 -0.1472
  997MOL0     C31509  -0.515   1.275   3.772 -0.6781 -0.1704  0.4330
  997MOL0     C31510  -0.665   1.290   3.807 -1.1236 -0.1332 -0.7239
  997MOL0     C31511  -0.714   1.167   3.874 -0.2013  0.1580 -0.3604
  997MOL0     C31512  -0.858   1.169   3.938  0.2565 -0.1520 -0.0421
  997MOL0     C31513  -0.961   1.224   3.834 -0.3210 -0.0566  0.0040
  997MOL0     C31514  -1.107   1.201   3.876  0.2587  0.9813  0.6514
  997MOL0     C31515  -1.199   1.217   3.755 -0.7432 -0.2748  0.2396
  997MOL0    Cl31516  -1.208   1.392   3.717  0.0297  0.2656 -0.4503
  997MOL0     C31517  -0.244   1.535   3.769  0.8849  0.8715  0.5648
  997MOL0     C31518  -0.130   1.619   3.781  0.2067 -0.4968 -0.8254
  997MOL0     O31519   0.039   1.862   3.592  0.5557 -0.0351  0.1672
  997MOL0     C31520   0.364   1.798   3.702 -1.0529 -0.5473  0.4642
  997MOL0     C31521   0.487   1.869   3.738  0.0806 -0.0725  0.3251
  997MOL0     N31522   1.213   2.130   3.627 -0.1675  0.3076  0.1572
  997MOL0     N31523   1.292   2.027   3.627  0.0663  0.0074  0.3560
  997MOL0     C31524   1.587   1.505   2.884 -0.0575 -0.5452 -0.2745
  997MOL0     C31525   1.723   1.503   2.833 -0.1289 -0.6698 -0.4248
  997MOL0     C31526   2.108   1.690   2.624  0.7561 -0.5685 -1.3462
  997MOL0     C31527   2.175   1.578   2.659 -0.6634 -0.4703  0.7474
  997MOL0     C31528   2.317   1.571   2.631  0.3063  0.1602 -0.8605
  997MOL0     C31529   2.391   1.663   2.564  0.0351 -0.6775  0.4058
  997MOL0     O31530   2.522   1.637   2.532 -0.0810 -0.2245 -0.0076
  997MOL0     C31531   2.600   1.738   2.462  0.2382 -1.0346  0.3068
  997MOL0     C31532   2.736   1.683   2.454 -0.4314 -0.2912  0.2444
  997MOL0     C31533   2.784   1.642   2.602 -0.0208 -0.7437 -0.0655
  997MOL0     C31534   2.913   1.560   2.618  1.2157 -1.0382 -0.0384
  997MOL0     C31535   3.025   1.616   2.542 -0.5353 -0.4104 -0.4648
  997MOL0     C31536   3.114   1.669   2.483 -0.6540 -0.6692 -0.1116
  997MOL0     C31537   2.322   1.776   2.540 -0.1079 -0.8599  0.6686
  997MOL0     C31538   2.183   1.799   2.569 -0.8330  0.0571 -0.2659
  997MOL0     H31539   1.690   1.743   2.592  0.0417  1.3440  0.5333
  997MOL0     H31540   1.469   1.763   2.690 -0.0545 -0.6075 -1.3449
  997MOL0     H31541   1.454   1.625   3.095 -1.9902 -0.4902  3.3200
  997MOL0     H31542   1.347   1.483   3.063 -2.2986  0.8395  2.6643
  997MOL0     H31543   1.159   1.633   3.068  0.1562 -0.2034  1.9033
  997MOL0     H31544   1.267   1.776   3.046 -0.9670  0.1030  0.3915
  997MOL0     H31545   1.176   1.760   3.257  0.5252 -0.7791  2.6216
  997MOL0     H31546   1.352   1.744   3.262 -0.2973  0.9105  1.1952
  997MOL0     H31547   1.165   1.502   3.255  0.3235  0.7386 -1.2465
  997MOL0     H31548   1.333   1.508   3.311  0.0442  0.2684 -0.3977
  997MOL0     H31549   1.181   1.480   3.496  2.7260  0.6112  1.9301
  997MOL0     H31550   1.087   1.618   3.449 -0.1262  0.4059  2.7243
  997MOL0     H31551   1.281   1.775   3.492  1.2621 -0.2066 -2.5288
  997MOL0     H31552   1.390   1.644   3.543  0.2146  0.1661 -2.9849
  997MOL0     H31553   1.125   1.703   3.679  0.0694 -2.3660 -2.5745
  997MOL0     H31554   1.251   1.602   3.731 -0.7955 -0.4002  0.2205
  997MOL0     H31555   1.412   1.799   3.723 -0.2513 -0.4305  0.1372
  997MOL0     H31556   1.296   1.798   3.864  0.8735  1.8798  0.7263
  997MOL0     H31557   1.106   1.954   3.879 -1.1998  2.2420  0.9956
  997MOL0     H31558   1.031   2.311   3.741  1.9098 -0.0428 -2.0898
  997MOL0     H31559   1.026   2.211   3.887 -1.1830 -0.8635  0.4301
  997MOL0     H31560   0.864   2.066   3.811 -1.7873  2.1079  1.2238
  997MOL0     H31561   0.865   2.130   3.637 -0.6218 -1.9183  0.0219
  997MOL0     H31562   0.767   2.240   3.904  0.1048 -0.2580 -0.5906
  997MOL0     H31563   0.797   2.343   3.761 -1.2231  0.2122 -0.6259
  997MOL0     H31564   0.641   2.229   3.640  0.5856  2.0791  0.3245
  997MOL0     H31565   0.560   2.264   3.790 -0.8728  0.7589 -1.2710
  997MOL0     H31566   0.368   2.189   3.698 -1.5394 -0.1673 -2.7152
  997MOL0     H31567   0.171   2.070   3.660  0.5725 -0.3073 -4.8343
  997MOL0     H31568   0.077   1.499   3.546 -0.2621 -0.0807 -0.8542
  997MOL0     H31569  -0.120   1.339   3.513 -0.7514 -1.2294  0.3725
  997MOL0     H31570  -0.526   1.373   3.588 -1.8532 -1.2154  1.0057
  997MOL0     H31571  -0.485   1.484   3.712 -0.4730 -0.7125  0.3351
  997MOL0     H31572  -0.451   1.269   3.861 -0.1473 -2.5015 -0.0464
  997MOL0     H31573  -0.504   1.184   3.713  3.3919 -0.6573  1.5941
  997MOL0     H31574  -0.715   1.307   3.711  1.8402  1.1704 -2.1728
  997MOL0     H31575  -0.672   1.373   3.878  0.5578 -1.7980  1.5085
  997MOL0     H31576  -0.705   1.086   3.801  1.7239  0.4731 -0.5198
  997MOL0     H31577  -0.642   1.137   3.951  1.2611  0.3957 -1.5871
  997MOL0     H31578  -0.858   1.236   4.025 -0.9446  1.2540 -1.0795
  997MOL0     H31579  -0.881   1.070   3.979  0.2687  1.5871  4.8603
  997MOL0     H31580  -0.949   1.176   3.737 -2.3005 -3.7312  1.3921
  997MOL0     H31581  -0.940   1.331   3.825  1.2231 -0.3401 -0.0276
  997MOL0     H31582  -1.107   1.102   3.922  0.4416  0.0341 -1.3049
  997MOL0     H31583  -1.141   1.266   3.958  1.0962  0.1672  1.6873
  997MOL0     H31584  -1.298   1.176   3.775 -0.8771  0.4057  1.0070
  997MOL0     H31585  -1.157   1.160   3.671  0.8933 -0.9624  1.4892
  997MOL0     H31586  -0.320   1.549   3.844 -0.6992 -1.3485 -0.5070
  997MOL0     H31587  -0.136   1.693   3.860  0.2367 -1.4026  0.0450
  997MOL0     H31588   0.371   1.694   3.673  0.5083 -0.2118 -0.4835
  997MOL0     H31589   0.582   1.821   3.759  0.0544 -1.1171 -1.6832
  997MOL0     H31590   1.552   1.445   2.968 -3.1795  0.9446 -0.3776
  997MOL0     H31591   1.789   1.424   2.869 -0.6464 -1.3197 -0.8833
  997MOL0     H31592   2.123   1.494   2.705 -2.4417 -2.0853 -3.6815
  997MOL0     H31593   2.373   1.486   2.667  1.6428  1.2817 -0.1683
  997MOL0     H31594   2.609   1.831   2.519  1.1426 -1.3439  0.6872
  997MOL0     H31595   2.559   1.754   2.362 -0.8509  2.2494  1.1384
  997MOL0     H31596   2.740   1.594   2.390 -1.3305 -1.1590  1.3360
  997MOL0     H31597   2.810   1.753   2.417  1.7438 -2.6351 -0.1241
  997MOL0     H31598   2.708   1.589   2.661 -1.2123  1.7637  0.7969
  997MOL0     H31599   2.794   1.733   2.662 -2.2254 -1.7343  1.9536
  997MOL0     H31600   2.950   1.558   2.721  0.1585 -0.6039  0.3667
  997MOL0     H31601   2.886   1.456   2.601  0.1033 -1.1473  2.0562
  997MOL0     H31602   3.197   1.707   2.428  1.9483 -3.0034  1.8773
  997MOL0     H31603   2.366   1.862   2.490  0.9299 -2.1876 -0.8220
  997MOL0     H31604   2.146   1.898   2.541 -1.8821 -0.5685 -1.2102
  998MOL0     O31605   2.031   5.428   4.468 -0.2519  0.2579 -0.2641
  998MOL0     C31606   2.009   5.550   4.464 -0.5500 -0.4440 -0.0298
  998MOL0     O31607   2.061   5.645   4.547  0.8351  0.4077  0.1317
  998MOL0     C31608   2.143   5.608   4.652 -0.6620  0.5114 -0.6288
  998MOL0     C31609   2.127   5.492   4.722 -0.1226 -0.2185 -1.2570
  998MOL0     C31610   2.201   5.478   4.841 -0.0784  0.2216 -0.5875
  998MOL0     C31611   2.303   5.576   4.878  0.5057  0.2328 -0.5284
  998MOL0     O31612   2.388   5.566   4.985 -0.1107 -0.0152  0.3362
  998MOL0     C31613   2.373   5.441   5.062 -0.1755  0.4249  0.9529
  998MOL0     C31614   2.469   5.431   5.176 -0.5744  0.1227  0.3639
  998MOL0     C31615   2.409   5.480   5.301  0.0456 -1.1045  0.3062
  998MOL0     C31616   2.507   5.498   5.419  0.4243  0.4615  0.2357
  998MOL0     C31617   2.636   5.579   5.393 -0.0708 -0.3637  0.5258
  998MOL0     C31618   2.679   5.650   5.524 -0.8501  0.1120 -0.1875
  998MOL0     C31619   2.811   5.732   5.530 -0.0893  0.1530  0.2380
  998MOL0     C31620   2.940   5.651   5.529  0.8309 -0.2972  0.2208
  998MOL0     N31621   3.049   5.733   5.485 -0.1894  0.1703  0.7357
  998MOL0     C31622   3.106   5.838   5.550  0.8991 -0.9789 -0.2055
  998MOL0     C31623   3.195   5.886   5.468  0.1738  0.9189 -0.4755
  998MOL0     C31624   3.260   6.020   5.496 -0.0654 -0.0850  0.5698
  998MOL0     C31625   3.371   6.050   5.386 -0.3278 -0.6899  0.1764
  998MOL0     C31626   3.406   6.195   5.388  0.3383  0.6193  0.4248
  998MOL0     C31627   3.497   6.226   5.276 -0.7181 -0.2076  0.8299
  998MOL0     O31628   3.440   6.187   5.146  0.2066 -0.1514 -0.5911
  998MOL0     C31629   3.495   6.226   5.030 -0.5726 -0.0351  0.7436
  998MOL0     C31630   3.604   6.316   5.019 -0.6639  0.7947 -0.2309
  998MOL0     C31631   3.657   6.339   4.894 -0.0886  0.3836 -0.0112
  998MOL0     C31632   3.607   6.271   4.778  0.1160 -0.0253  0.4038
  998MOL0     C31633   3.672   6.293   4.641 -0.3908  0.2036  0.3052
  998MOL0     O31634   3.615   6.234   4.537 -0.3756 -0.3444  0.3870
  998MOL0     C31635   3.641   6.269   4.406  0.3212  0.1839  0.1932
  998MOL0     C31636   3.531   6.284   4.325 -0.0830  0.3819 -0.9076
  998MOL0     C31637   3.546   6.319   4.190 -0.4283 -0.1708 -0.2428
  998MOL0     C31638   3.681   6.321   4.132  0.1467 -0.2746 -0.2086
  998MOL0     O31639   3.704   6.347   3.997  0.4346 -0.2861 -1.1027
  998MOL0     C31640   3.631   6.452   3.926 -0.0891 -0.2225  0.8427
  998MOL0     C31641   3.633   6.590   3.997 -0.8900 -0.2591  0.3556
  998MOL0     C31642   3.779   6.627   4.046  0.1988  0.3936  0.1091
  998MOL0     C31643   3.808   6.776   4.043  0.3798 -0.7418 -1.4593
  998MOL0     C31644   3.942   6.812   4.107 -0.4887 -0.0835 -0.2509
  998MOL0     C31645   3.977   6.961   4.059 -0.4557 -0.4129 -0.0133
  998MOL0     C31646   4.087   7.008   4.150 -0.3065 -0.2861  0.2135
  998MOL0     C31647   4.142   7.141   4.105  0.7390  0.1842 -0.2035
  998MOL0    Cl31648   4.266   7.181   4.229  0.2139  0.2788  0.0613
  998MOL0     C31649   3.787   6.285   4.208 -0.2969  0.1131 -0.3805
  998MOL0     C31650   3.773   6.276   4.347  0.0121 -0.0458  0.2701
  998MOL0     O31651   3.767   6.370   4.635 -0.8638  0.2113 -0.3252
  998MOL0     C31652   3.500   6.197   4.788  0.3482 -0.0014 -0.4211
  998MOL0     C31653   3.446   6.164   4.910  0.1451  0.4003  0.6979
  998MOL0     N31654   3.209   5.816   5.360  0.6058  0.5185 -0.0601
  998MOL0     N31655   3.124   5.721   5.371 -0.0411 -0.0985  0.2623
  998MOL0     C31656   2.317   5.694   4.805  0.0583  0.4166  0.2621
  998MOL0     C31657   2.236   5.699   4.689 -0.0536 -0.8600 -0.2834
  998MOL0     C31658   1.885   5.597   4.396 -0.9419  0.4892 -0.3840
  998MOL0     C31659   1.823   5.515   4.300 -0.5426  0.6366 -0.1954
  998MOL0     C31660   1.702   5.543   4.248 -0.1162 -0.3975 -0.0296
  998MOL0     C31661   1.640   5.662   4.290  0.1057 -0.3940  0.4738
  998MOL0     O31662   1.549   5.721   4.209  0.3310 -0.0251 -0.7944
  998MOL0     C31663   1.417   5.748   4.271  0.3307 -0.0111  0.2995
  998MOL0     C31664   1.315   5.649   4.211  0.8113 -0.5779  0.4306
  998MOL0     C31665   1.169   5.702   4.242 -1.4712 -0.6583  0.2716
  998MOL0     C31666   1.068   5.600   4.176  0.3738 -0.4652  0.0509
  998MOL0     C31667   0.945   5.609   4.250  0.8952  0.3514  1.2912
  998MOL0     C31668   0.844   5.597   4.320 -0.8633  0.0774 -0.0696
  998MOL0     C31669   1.698   5.745   4.384 -0.2496  0.0711  1.3014
  998MOL0     C31670   1.823   5.717   4.438  0.9980  0.4325  0.6593
  998MOL0     H31671   2.054   5.419   4.690 -1.0282  0.7809 -1.5643
  998MOL0     H31672   2.200   5.381   4.890  4.2981 -0.4982 -1.5359
  998MOL0     H31673   2.394   5.363   4.988  0.3285  2.1415 -0.7868
  998MOL0     H31674   2.276   5.420   5.108  0.4286 -1.5726  1.4311
  998MOL0     H31675   2.545   5.501   5.142 -0.8861  1.5931  2.4520
  998MOL0     H31676   2.519   5.334   5.184  0.5913  0.7303  0.6725
  998MOL0     H31677   2.332   5.409   5.334 -1.4521 -0.8139 -2.2709
  998MOL0     H31678   2.370   5.581   5.288  2.8246  0.1224  0.9088
  998MOL0     H31679   2.459   5.535   5.510  2.3611  0.7210  1.2011
  998MOL0     H31680   2.536   5.398   5.452 -0.2937 -0.0192 -0.5492
  998MOL0     H31681   2.628   5.655   5.314 -1.5053 -0.8885  0.1480
  998MOL0     H31682   2.713   5.504   5.374 -0.8202 -1.2301  0.8557
  998MOL0     H31683   2.692   5.583   5.609  4.5243  1.5731  0.5479
  998MOL0     H31684   2.608   5.726   5.557 -2.1704 -1.5457  0.9725
  998MOL0     H31685   2.820   5.803   5.447  1.4425 -0.5399 -0.2234
  998MOL0     H31686   2.815   5.786   5.625 -0.7409  1.1109 -0.2588
  998MOL0     H31687   2.945   5.563   5.464  0.5322 -0.4424  0.3865
  998MOL0     H31688   2.956   5.621   5.633  0.0020 -1.3446  0.0670
  998MOL0     H31689   3.086   5.890   5.643  1.0951 -0.2568 -0.5663
  998MOL0     H31690   3.297   6.028   5.598 -0.4393  2.1548  0.5948
  998MOL0     H31691   3.175   6.089   5.488 -1.5713 -1.8933  0.3054
  998MOL0     H31692   3.329   6.031   5.287 -0.3873 -0.2299  0.1113
  998MOL0     H31693   3.458   5.987   5.408  0.9055  1.0628  0.4796
  998MOL0     H31694   3.317   6.258   5.396  1.1579  1.7157  1.1317
  998MOL0     H31695   3.460   6.195   5.484 -0.5041  0.0243  0.9131
  998MOL0     H31696   3.591   6.169   5.278 -0.4502  0.0844 -1.2049
  998MOL0     H31697   3.515   6.333   5.270 -0.1926 -0.3407 -0.3071
  998MOL0     H31698   3.658   6.367   5.098  1.1511 -1.1572 -0.1385
  998MOL0     H31699   3.745   6.402   4.883 -0.7520  1.3061 -0.0979
  998MOL0     H31700   3.430   6.270   4.360  0.0902  1.1834 -0.0468
  998MOL0     H31701   3.473   6.344   4.114 -1.2657  0.0816  0.6239
  998MOL0     H31702   3.526   6.423   3.916 -1.0877  3.1810  0.0933
  998MOL0     H31703   3.674   6.466   3.826 -0.6918  0.5827  0.6857
  998MOL0     H31704   3.568   6.595   4.085 -0.4185 -2.6290  0.9003
  998MOL0     H31705   3.603   6.666   3.924  1.7399 -0.8824 -1.5245
  998MOL0     H31706   3.851   6.586   3.974  0.1230  1.7334 -0.7749
  998MOL0     H31707   3.787   6.583   4.145  3.3408 -0.2579 -0.3245
  998MOL0     H31708   3.820   6.819   3.943  2.7319  2.6404  0.0477
  998MOL0     H31709   3.725   6.826   4.093  0.9724 -0.7817 -0.4054
  998MOL0     H31710   4.016   6.737   4.078  1.2532  1.0059  1.1885
  998MOL0     H31711   3.930   6.808   4.215  2.2053 -2.0244  0.0889
  998MOL0     H31712   3.899   7.038   4.064  0.9188  1.1320 -1.2922
  998MOL0     H31713   4.004   6.966   3.953  3.7686 -0.0521  0.8957
  998MOL0     H31714   4.048   7.023   4.250  0.4326 -0.0665  0.4750
  998MOL0     H31715   4.170   6.937   4.156 -0.1420 -0.3121 -1.7411
  998MOL0     H31716   4.056   7.209   4.102 -0.9600 -1.8823  0.0866
  998MOL0     H31717   4.182   7.126   4.004  1.8366 -4.5081  0.6963
  998MOL0     H31718   3.886   6.272   4.164 -0.5686 -0.3679 -0.8595
  998MOL0     H31719   3.866   6.275   4.401 -0.2560  2.4284  0.9144
  998MOL0     H31720   3.449   6.139   4.712  1.1350  0.9714 -1.7290
  998MOL0     H31721   3.375   6.085   4.933  1.5246 -0.7060  1.2954
  998MOL0     H31722   2.378   5.782   4.825  1.8346 -0.6691 -0.2481
  998MOL0     H31723   2.265   5.770   4.612 -1.6549  0.7902  0.5677
  998MOL0     H31724   1.875   5.421   4.286 -0.2744  0.6782  0.4853
  998MOL0     H31725   1.647   5.487   4.173 -0.6078 -1.0130  0.7796
  998MOL0     H31726   1.391   5.853   4.249  1.0060 -0.1222 -1.1281
  998MOL0     H31727   1.417   5.736   4.379  0.3473  0.6476  0.3808
  998MOL0     H31728   1.321   5.649   4.102 -5.0528  3.1143 -0.3583
  998MOL0     H31729   1.324   5.548   4.252  2.8873  0.0245  1.5712
  998MOL0     H31730   1.159   5.806   4.208 -1.8243 -0.9311 -0.4813
  998MOL0     H31731   1.158   5.685   4.349 -4.0290  2.3739  0.6429
  998MOL0     H31732   1.047   5.601   4.068 -2.0098 -0.9477  0.4567
  998MOL0     H31733   1.100   5.496   4.190  0.9365 -1.0313 -4.0071
  998MOL0     H31734   0.748   5.584   4.366 -2.1534  1.8576 -2.0727
  998MOL0     H31735   1.648   5.841   4.389 -2.7669 -0.8130 -2.5576
  998MOL0     H31736   1.860   5.782   4.517  2.8153 -0.3551  0.5186
  999MOL0     O31737   8.584   2.454   9.965 -0.1893  0.5312 -0.1485
  999MOL0     C31738   8.598   2.447  10.085  0.4898 -0.0250  0.3135
  999MOL0     O31739   8.516   2.386  10.169  0.1833 -0.7289 -0.1928
  999MOL0     C31740   8.393   2.352  10.132 -0.2019  0.5283  0.7664
  999MOL0     C31741   8.314   2.422  10.041 -0.1341 -0.0030  1.3747
  999MOL0     C31742   8.183   2.384  10.019 -0.3099 -0.8225  0.7636
  999MOL0     C31743   8.120   2.282  10.088 -0.8435 -0.2011 -0.0716
  999MOL0     O31744   7.988   2.258  10.064 -1.3952  0.4439 -0.7514
  999MOL0     C31745   7.915   2.317  10.177  0.9674  1.2217  0.0251
  999MOL0     C31746   7.767   2.338  10.146 -0.0118 -0.8134 -0.3320
  999MOL0     C31747   7.681   2.387  10.271 -0.0275 -0.3412  0.8697
  999MOL0     C31748   7.544   2.434  10.222 -0.1490  0.8010  0.2914
  999MOL0     C31749   7.463   2.518  10.332 -0.8092 -0.5609 -0.8851
  999MOL0     C31750   7.432   2.444  10.462 -0.1208 -0.1327  0.0715
  999MOL0     C31751   7.325   2.516  10.545 -0.7239 -0.4925 -0.3180
  999MOL0     C31752   7.192   2.538  10.472 -0.2510 -0.2968  0.0234
  999MOL0     N31753   7.072   2.498  10.540 -0.2624 -0.4074  0.0338
  999MOL0     C31754   6.968   2.583  10.563 -0.2277  0.3394  0.0315
  999MOL0     C31755   6.893   2.521  10.652  0.3891 -0.4041 -0.6423
  999MOL0     C31756   6.775   2.584  10.717  0.5836  0.2382 -0.1501
  999MOL0     C31757   6.658   2.476  10.706 -0.8320 -0.3367  0.7051
  999MOL0     C31758   6.547   2.531  10.801  0.5018 -0.2592 -0.6238
  999MOL0     C31759   6.433   2.431  10.823  0.1743  0.2840  0.4475
  999MOL0     O31760   6.361   2.475  10.936  0.0778 -0.1059  0.0230
  999MOL0     C31761   6.228   2.506  10.919 -0.3499  0.4105 -0.6925
  999MOL0     C31762   6.175   2.537  10.795  0.0104 -0.5327 -0.0139
  999MOL0     C31763   6.040   2.586  10.782  0.2156 -0.2828 -0.2826
  999MOL0     C31764   5.951   2.591  10.891 -0.2612  0.8370  1.2210
  999MOL0     C31765   5.811   2.636  10.881 -0.3652  1.0283  0.6327
  999MOL0     O31766   5.751   2.658  10.766  0.4688  0.3297 -0.6147
  999MOL0     C31767   5.620   2.687  10.749  0.9109 -0.3067  0.0402
  999MOL0     C31768   5.541   2.586  10.699 -0.4107  0.3316 -0.2972
  999MOL0     C31769   5.409   2.607  10.682  0.5447 -0.0981 -0.0117
  999MOL0     C31770   5.354   2.724  10.711 -0.0437  0.7099  0.5362
  999MOL0     O31771   5.226   2.746  10.715  0.4724 -0.1236  0.4764
  999MOL0     C31772   5.131   2.637  10.734 -0.5730 -0.0901  0.0673
  999MOL0     C31773   4.994   2.692  10.694  0.3875  0.2374  0.5510
  999MOL0     C31774   4.995   2.749  10.551  0.5675  0.5046  0.3328
  999MOL0     C31775   4.869   2.833  10.538  0.0249 -0.0362  0.1632
  999MOL0     C31776   4.888   2.919  10.408  0.9938 -0.0058  0.1098
  999MOL0     C31777   4.766   3.017  10.380  0.3362  1.0631 -0.5270
  999MOL0     C31778   4.631   2.960  10.435  0.5090  0.7023 -0.3063
  999MOL0     C31779   4.511   3.040  10.393  0.7334 -0.5367  0.6478
  999MOL0    Cl31780   4.477   3.191  10.491  0.0267  0.0202  0.3921
  999MOL0     C31781   5.435   2.837  10.741 -0.9669 -0.3371  0.6188
  999MOL0     C31782   5.572   2.813  10.769 -0.3818 -0.3523 -0.2739
  999MOL0     O31783   5.748   2.614  10.985 -0.3007 -0.0513  0.4009
  999MOL0     C31784   6.006   2.565  11.014 -0.1161  0.3824 -0.6980
  999MOL0     C31785   6.139   2.533  11.029  0.1837  0.2171 -0.8259
  999MOL0     N31786   6.950   2.403  10.685 -0.4823  0.6800 -0.4248
  999MOL0     N31787   7.049   2.380  10.610  0.2104  0.0648 -0.5812
  999MOL0     C31788   8.195   2.217  10.185 -0.2618 -0.2498 -0.0060
  999MOL0     C31789   8.334   2.248  10.201  0.0953  0.2393 -0.4683
  999MOL0     C31790   8.709   2.522  10.143 -0.7195 -0.4670 -0.2767
  999MOL0     C31791   8.768   2.625  10.059  0.4568  0.2562 -0.0297
  999MOL0     C31792   8.873   2.694  10.107 -0.7905  0.5210  0.4415
  999MOL0     C31793   8.907   2.704  10.245 -0.6532 -0.9039  0.1899
  999MOL0     O31794   8.978   2.811  10.276 -0.7298 -0.0825 -0.1115
  999MOL0     C31795   9.003   2.835  10.418 -1.0908 -1.1006  0.3116
  999MOL0     C31796   9.126   2.752  10.463 -0.1341  0.3619 -0.2454
  999MOL0     C31797   9.165   2.777  10.614  0.2600 -0.2868  0.9509
  999MOL0     C31798   9.181   2.922  10.660  0.4701  0.2566  0.3435
  999MOL0     C31799   9.272   2.997  10.578 -0.5673 -0.7030  0.6551
  999MOL0     C31800   9.351   3.074  10.520  0.7992  1.2803 -0.7255
  999MOL0     C31801   8.840   2.609  10.326 -0.1663 -0.3096 -0.9584
  999MOL0     C31802   8.745   2.521  10.281 -0.0292  0.1330 -0.5636
  999MOL0     H31803   8.349   2.514   9.997 -1.9593  0.8470  1.5997
  999MOL0     H31804   8.123   2.449   9.956  0.4962 -0.7647  0.0204
  999MOL0     H31805   7.961   2.408  10.215  1.6881  0.3905  1.2016
  999MOL0     H31806   7.925   2.253  10.265 -0.3686 -1.0284 -1.3291
  999MOL0     H31807   7.724   2.241  10.120  0.6611 -2.2249  3.2303
  999MOL0     H31808   7.759   2.407  10.062  0.9811 -0.2421  0.0234
  999MOL0     H31809   7.744   2.471  10.301  0.8504 -0.4828 -0.4690
  999MOL0     H31810   7.671   2.306  10.344 -2.8543 -2.5918 -1.7059
  999MOL0     H31811   7.556   2.496  10.132 -1.5918 -0.3174 -0.7273
  999MOL0     H31812   7.489   2.345  10.191  0.3558 -0.4040  2.6416
  999MOL0     H31813   7.365   2.542  10.290 -0.1787  0.7740 -1.6159
  999MOL0     H31814   7.514   2.611  10.359  0.1710 -0.6625 -2.2877
  999MOL0     H31815   7.528   2.432  10.515  0.3482  3.2170  0.2009
  999MOL0     H31816   7.394   2.343  10.445 -2.8067  0.9753 -1.0208
  999MOL0     H31817   7.307   2.451  10.631  1.1756  0.5314  0.9347
  999MOL0     H31818   7.368   2.607  10.589 -0.7729 -1.0281  0.8687
  999MOL0     H31819   7.189   2.489  10.375 -2.6865  1.6068 -0.9859
  999MOL0     H31820   7.187   2.645  10.450  1.4772 -0.3008 -0.5301
  999MOL0     H31821   6.946   2.681  10.522 -1.7864  1.7091  3.6927
  999MOL0     H31822   6.743   2.671  10.660 -0.4558  0.9222  1.4153
  999MOL0     H31823   6.803   2.610  10.820  1.0541 -1.6932  0.2573
  999MOL0     H31824   6.689   2.378  10.742 -2.4203 -0.7402  1.0485
  999MOL0     H31825   6.617   2.466  10.605  0.0821  3.1687 -0.1615
  999MOL0     H31826   6.601   2.569  10.889  2.3212 -1.3169 -1.2154
  999MOL0     H31827   6.500   2.612  10.746  1.8878  2.1758  1.5381
  999MOL0     H31828   6.469   2.333  10.858 -0.2314 -1.0935 -2.6158
  999MOL0     H31829   6.385   2.410  10.726  2.4667 -0.5659 -0.5719
  999MOL0     H31830   6.246   2.550  10.714 -0.0958 -2.8148 -0.5483
  999MOL0     H31831   6.014   2.614  10.681  2.9705 -0.4494 -1.1298
  999MOL0     H31832   5.577   2.488  10.668  1.9096  1.2477 -0.6369
  999MOL0     H31833   5.347   2.531  10.634 -0.5221  0.3844  0.5650
  999MOL0     H31834   5.131   2.603  10.838 -0.6005  0.0232  0.1045
  999MOL0     H31835   5.150   2.558  10.661  1.0261  0.7510 -0.4916
  999MOL0     H31836   4.970   2.775  10.761 -1.9757  1.7396 -1.9814
  999MOL0     H31837   4.908   2.624  10.704  0.7860 -0.8924 -2.6416
  999MOL0     H31838   4.991   2.666  10.480 -1.2744  0.6193  0.2564
  999MOL0     H31839   5.088   2.804  10.535  0.6336  0.0042 -1.1814
  999MOL0     H31840   4.782   2.766  10.529  0.7018 -1.3880  2.7779
  999MOL0     H31841   4.852   2.893  10.628  0.6566  0.9277 -0.3491
  999MOL0     H31842   4.908   2.858  10.319 -1.3724 -0.9979  0.1874
  999MOL0     H31843   4.977   2.982  10.421  0.1949  0.9393  1.2087
  999MOL0     H31844   4.755   3.032  10.273  0.5273  0.7911 -0.5863
  999MOL0     H31845   4.771   3.112  10.434 -5.0133  0.4619  1.5990
  999MOL0     H31846   4.615   2.860  10.395  1.7680  0.4466 -0.2214
  999MOL0     H31847   4.642   2.946  10.543  1.5306 -1.8405 -0.6507
  999MOL0     H31848   4.432   2.974  10.430 -0.5833 -0.1929 -1.3879
  999MOL0     H31849   4.496   3.057  10.286  0.2812  3.9342  1.2286
  999MOL0     H31850   5.390   2.934  10.760 -1.8998 -0.4516 -0.8753
  999MOL0     H31851   5.637   2.891  10.806 -0.5801 -0.6122  0.6572
  999MOL0     H31852   5.945   2.569  11.104 -0.3852  0.3685 -0.8768
  999MOL0     H31853   6.176   2.526  11.131 -4.6079 -0.1073  1.1578
  999MOL0     H31854   8.154   2.133  10.240  2.6414 -1.8069 -0.0295
  999MOL0     H31855   8.389   2.198  10.280  1.7017 -1.4059 -2.5261
  999MOL0     H31856   8.733   2.650   9.960  0.7318 -1.7091 -0.6661
  999MOL0     H31857   8.928   2.754  10.035 -0.6850 -2.0227 -1.7413
  999MOL0     H31858   8.920   2.826  10.489  0.5491 -0.7464  2.3781
  999MOL0     H31859   9.033   2.940  10.424 -3.7162 -0.2415 -0.3031
  999MOL0     H31860   9.109   2.644  10.464 -0.8628  0.4733 -0.0506
  999MOL0     H31861   9.209   2.775  10.396  0.9403 -0.1042  0.9001
  999MOL0     H31862   9.262   2.730  10.631  0.9581  0.9685  0.5761
  999MOL0     H31863   9.085   2.723  10.664  0.0869 -0.2234  0.7421
  999MOL0     H31864   9.083   2.971  10.660  0.0208 -0.6200 -0.1373
  999MOL0     H31865   9.218   2.911  10.762 -0.1356 -2.0199  0.3568
  999MOL0     H31866   9.423   3.137  10.471  0.0589  3.2866  0.6294
  999MOL0     H31867   8.857   2.615  10.433  0.0819 -0.7196 -0.9728
  999MOL0     H31868   8.692   2.453  10.347 -0.4791  1.3698  0.3945
 1000MOL0     O31869   5.407   5.430   2.895  0.1098 -0.3367  0.0532
 1000MOL0     C31870   5.385   5.351   2.980  0.0921 -0.5008  0.0221
 1000MOL0     O31871   5.478   5.279   3.046  0.0412  0.2214  0.6569
 1000MOL0     C31872   5.608   5.324   3.033  0.5204  0.2722  0.5809
 1000MOL0     C31873   5.679   5.313   2.906 -0.1936 -0.1226 -0.2162
 1000MOL0     C31874   5.816   5.346   2.912  0.3434  0.2711 -0.2182
 1000MOL0     C31875   5.880   5.381   3.034  0.1122 -0.8670 -0.0208
 1000MOL0     O31876   5.992   5.454   3.032  0.4182  0.1423 -0.2784
 1000MOL0     C31877   6.107   5.373   3.018 -0.2064 -0.1733  0.7253
 1000MOL0     C31878   6.235   5.459   3.014  0.4965 -0.3408  0.0366
 1000MOL0     C31879   6.356   5.367   3.022 -0.7716  0.7597  0.2644
 1000MOL0     C31880   6.480   5.455   3.041 -0.1335  0.3877 -0.1297
 1000MOL0     C31881   6.617   5.384   3.067  0.3478  0.8474 -0.4195
 1000MOL0     C31882   6.724   5.495   3.053  0.1926 -0.8916 -0.4785
 1000MOL0     C31883   6.868   5.459   3.028 -0.4907  0.9431  0.3636
 1000MOL0     C31884   6.977   5.531   3.111 -0.6120  0.0470 -1.3274
 1000MOL0     N31885   7.108   5.482   3.072 -0.0813  0.3950  0.0986
 1000MOL0     C31886   7.157   5.494   2.944 -0.3829 -0.5355  0.8807
 1000MOL0     C31887   7.290   5.503   2.957  0.5727  0.4688  0.5366
 1000MOL0     C31888   7.381   5.529   2.848 -0.2164  0.6076 -0.3288
 1000MOL0     C31889   7.358   5.427   2.737  0.2528  0.0513  0.6161
 1000MOL0     C31890   7.430   5.482   2.608 -0.0643  0.6341  0.9269
 1000MOL0     C31891   7.402   5.423   2.469 -0.8840  0.3008 -0.0846
 1000MOL0     O31892   7.442   5.286   2.463  0.5865 -0.1197  0.0050
 1000MOL0     C31893   7.578   5.255   2.461  0.1407  0.1853 -0.1736
 1000MOL0     C31894   7.610   5.121   2.470 -0.2323 -0.1737 -0.5231
 1000MOL0     C31895   7.741   5.079   2.464 -0.2316  1.0256 -0.5605
 1000MOL0     C31896   7.852   5.161   2.474  0.5169  0.3358 -0.4964
 1000MOL0     C31897   7.982   5.097   2.506  0.4258 -0.5581  0.0431
 1000MOL0     O31898   8.072   5.171   2.583  0.4131  0.6264  0.6566
 1000MOL0     C31899   8.198   5.143   2.553 -0.5343 -0.2439  0.3157
 1000MOL0     C31900   8.280   5.090   2.646 -0.0200  0.4959  0.4190
 1000MOL0     C31901   8.418   5.090   2.627 -0.3392 -0.4670 -0.2646
 1000MOL0     C31902   8.478   5.157   2.521  0.3494  0.1534  0.5866
 1000MOL0     O31903   8.610   5.163   2.518  0.6369  0.0512 -0.1516
 1000MOL0     C31904   8.680   5.162   2.389  0.7957 -0.0604  0.9351
 1000MOL0     C31905   8.820   5.196   2.423 -0.1275  0.2461 -0.0115
 1000MOL0     C31906   8.917   5.080   2.446 -0.8080  0.4508  0.0705
 1000MOL0     C31907   8.890   4.982   2.562  0.5110 -0.5132 -0.8277
 1000MOL0     C31908   8.989   4.863   2.568  0.3352 -0.6538 -0.1828
 1000MOL0     C31909   9.142   4.892   2.576  0.6214  0.2579 -0.1683
 1000MOL0     C31910   9.203   4.781   2.649  0.9109  0.1313  0.3599
 1000MOL0     C31911   9.350   4.803   2.660  0.4847 -0.4768  1.2483
 1000MOL0    Cl31912   9.379   4.943   2.765  0.2790 -0.0813 -0.2604
 1000MOL0     C31913   8.391   5.214   2.421  0.5205 -0.2654 -0.6200
 1000MOL0     C31914   8.252   5.203   2.436  0.4712  0.5246 -0.8311
 1000MOL0     O31915   8.004   4.992   2.452  0.0105  0.2511  0.2945
 1000MOL0     C31916   7.820   5.301   2.469 -0.5222  1.4875  0.0522
 1000MOL0     C31917   7.687   5.346   2.458  0.8882  0.3186  0.7678
 1000MOL0     N31918   7.327   5.491   3.099  0.0842  0.3000  0.5337
 1000MOL0     N31919   7.216   5.485   3.166 -0.3149  0.1676 -0.2765
 1000MOL0     C31920   5.805   5.402   3.154 -0.4940  0.8011  0.2362
 1000MOL0     C31921   5.672   5.374   3.149 -0.0363  0.5538 -1.3928
 1000MOL0     C31922   5.244   5.316   2.999 -0.0111 -1.0720  0.7164
 1000MOL0     C31923   5.142   5.381   2.919 -1.2119  0.0219 -0.7578
 1000MOL0     C31924   5.011   5.337   2.947  0.0801 -0.4047  0.3008
 1000MOL0     C31925   4.973   5.244   3.043 -0.4380 -0.6470 -0.4218
 1000MOL0     O31926   4.844   5.222   3.059  0.6780  0.0161 -0.1476
 1000MOL0     C31927   4.801   5.106   3.140  0.5460  0.0906  0.1927
 1000MOL0     C31928   4.647   5.123   3.172 -0.5910  0.0744 -0.4187
 1000MOL0     C31929   4.558   5.121   3.047 -0.6018 -0.0042 -0.7143
 1000MOL0     C31930   4.411   5.079   3.082 -0.0029  0.4575 -0.0099
 1000MOL0     C31931   4.340   5.168   3.173  0.0675 -0.8523 -0.0968
 1000MOL0     C31932   4.279   5.231   3.250  0.2828 -0.4091 -0.2350
 1000MOL0     C31933   5.080   5.185   3.111 -1.1116  0.2476  0.3552
 1000MOL0     C31934   5.218   5.218   3.086  0.1572  0.3068  0.5653
 1000MOL0     H31935   5.631   5.266   2.821 -0.1019 -0.6463  0.0131
 1000MOL0     H31936   5.873   5.336   2.820  0.6213  0.2100 -0.0414
 1000MOL0     H31937   6.113   5.303   2.935 -0.9555 -0.3283  0.7916
 1000MOL0     H31938   6.114   5.320   3.114 -0.1853  1.0449  1.4161
 1000MOL0     H31939   6.229   5.530   3.097 -1.9086 -0.4338  0.0044
 1000MOL0     H31940   6.234   5.512   2.919  1.7527 -0.8605 -0.2816
 1000MOL0     H31941   6.369   5.305   2.933 -0.1094  1.3704 -0.0783
 1000MOL0     H31942   6.345   5.290   3.099  0.5002 -1.8249 -1.9676
 1000MOL0     H31943   6.489   5.508   2.946  1.2220  2.0706  0.8801
 1000MOL0     H31944   6.467   5.536   3.114  1.8666 -1.2942  2.2682
 1000MOL0     H31945   6.635   5.301   2.998  1.0398  1.2537 -0.7386
 1000MOL0     H31946   6.605   5.344   3.168 -1.0049 -1.9377 -1.5848
 1000MOL0     H31947   6.714   5.565   3.137 -1.8970  0.6106 -1.9051
 1000MOL0     H31948   6.703   5.558   2.967 -0.5816 -1.1504 -0.4837
 1000MOL0     H31949   6.882   5.353   3.051 -0.5838  1.0415  0.8896
 1000MOL0     H31950   6.887   5.460   2.920 -1.6706 -0.7944  0.0946
 1000MOL0     H31951   6.961   5.516   3.218  1.0012  1.9162 -0.7628
 1000MOL0     H31952   6.965   5.640   3.112 -1.6116 -0.0569 -0.2448
 1000MOL0     H31953   7.096   5.490   2.854 -1.5381 -2.1406  1.6782
 1000MOL0     H31954   7.481   5.510   2.887 -0.5784 -3.7511 -0.9849
 1000MOL0     H31955   7.368   5.632   2.814  0.5193  0.4643 -1.0901
 1000MOL0     H31956   7.255   5.425   2.701  1.4139 -0.5816 -3.0327
 1000MOL0     H31957   7.393   5.328   2.767 -2.6504 -0.9415  1.0496
 1000MOL0     H31958   7.413   5.589   2.599 -1.7958  0.5560  2.6817
 1000MOL0     H31959   7.535   5.468   2.635 -0.2526  0.9964  1.8601
 1000MOL0     H31960   7.456   5.479   2.392  1.2030  1.6105  2.1700
 1000MOL0     H31961   7.294   5.432   2.454 -1.3498  2.9888  3.4991
 1000MOL0     H31962   7.536   5.042   2.473  0.2588 -0.7173  3.4304
 1000MOL0     H31963   7.758   4.972   2.477 -1.3157  0.8008 -0.9032
 1000MOL0     H31964   8.251   5.034   2.735  1.0824 -0.2612  0.3128
 1000MOL0     H31965   8.492   5.039   2.688  0.6186 -1.0924 -1.8973
 1000MOL0     H31966   8.640   5.238   2.320 -0.3091  0.1662  1.7900
 1000MOL0     H31967   8.669   5.062   2.346  0.9742  0.2200  0.2315
 1000MOL0     H31968   8.824   5.270   2.503 -2.1308 -2.6045  2.9650
 1000MOL0     H31969   8.863   5.245   2.334 -1.7997  0.9427 -0.4929
 1000MOL0     H31970   9.014   5.122   2.471 -1.1207  1.1261  0.1552
 1000MOL0     H31971   8.930   5.032   2.348 -0.3111 -2.0756  1.2897
 1000MOL0     H31972   8.890   5.032   2.659 -0.0633 -0.5122 -0.8257
 1000MOL0     H31973   8.789   4.944   2.543  0.4799 -0.7205 -0.2511
 1000MOL0     H31974   8.981   4.803   2.477  1.1770  1.3129 -1.6039
 1000MOL0     H31975   8.962   4.808   2.659  1.7725 -1.5996 -0.3075
 1000MOL0     H31976   9.147   4.989   2.626 -0.0352  0.7930 -1.1072
 1000MOL0     H31977   9.187   4.900   2.477  0.0113 -1.9793 -0.6851
 1000MOL0     H31978   9.164   4.775   2.751  0.1211 -1.0672  0.0116
 1000MOL0     H31979   9.181   4.687   2.597  0.6628  2.4617 -4.2459
 1000MOL0     H31980   9.379   4.827   2.557 -1.0487 -0.4766  0.7978
 1000MOL0     H31981   9.400   4.712   2.693 -0.4004 -0.8447  1.6136
 1000MOL0     H31982   8.432   5.270   2.338  3.1406  0.4461  1.0456
 1000MOL0     H31983   8.192   5.245   2.356 -1.0070  0.8634  0.3966
 1000MOL0     H31984   7.898   5.373   2.492  0.3971  0.4703  0.2117
 1000MOL0     H31985   7.669   5.453   2.460  1.3886  0.4334 -0.0580
 1000MOL0     H31986   5.869   5.437   3.233  2.0707 -0.1403 -1.2930
 1000MOL0     H31987   5.616   5.384   3.242  2.5875 -0.2907  0.4077
 1000MOL0     H31988   5.160   5.465   2.852 -0.0617  0.4603  0.0673
 1000MOL0     H31989   4.923   5.379   2.899  0.7145 -0.5644 -1.0404
 1000MOL0     H31990   4.870   5.101   3.224 -0.0693 -2.0345  0.6247
 1000MOL0     H31991   4.812   5.011   3.087  1.3516  0.0317  0.4632
 1000MOL0     H31992   4.607   5.044   3.236 -0.3445  0.1347 -0.1892
 1000MOL0     H31993   4.637   5.221   3.220 -4.7423 -1.2442  1.8479
 1000MOL0     H31994   4.604   5.067   2.963 -0.1629  1.9545 -1.8010
 1000MOL0     H31995   4.542   5.222   3.010 -2.0342 -0.1590 -0.5583
 1000MOL0     H31996   4.343   5.070   2.997  0.6764  2.4723 -0.8190
 1000MOL0     H31997   4.416   4.981   3.131 -0.3363 -0.3960 -1.6188
 1000MOL0     H31998   4.231   5.288   3.326  0.2353 -1.5487  0.6128
 1000MOL0     H31999   5.070   5.103   3.181  0.6264 -0.7325 -0.5033
 1000MOL0     H32000   5.299   5.164   3.135 -0.7714 -1.5410  0.1645
 1001MOL0     O32001   9.780   8.182  11.203  0.0938  0.4641 -0.1223
 1001MOL0     C32002   9.873   8.113  11.153 -0.3410  0.9617 -0.3297
 1001MOL0     O32003   9.861   7.997  11.084  0.3133 -0.2464 -0.5351
 1001MOL0     C32004   9.733   7.950  11.062  0.3810 -0.0040  0.6970
 1001MOL0     C32005   9.640   8.003  10.970 -0.8054  0.0570 -0.1569
 1001MOL0     C32006   9.514   7.943  10.949  0.1281 -0.6025 -0.4881
 1001MOL0     C32007   9.486   7.817  11.001 -1.1920 -1.3391 -0.1843
 1001MOL0     O32008   9.365   7.758  11.000  0.2950  0.1625  0.8332
 1001MOL0     C32009   9.268   7.831  10.932  0.2237  0.1121 -0.2355
 1001MOL0     C32010   9.132   7.780  10.978  0.5459 -0.3782  0.4632
 1001MOL0     C32011   9.120   7.781  11.136  0.5785  0.2777 -0.7207
 1001MOL0     C32012   9.015   7.673  11.172 -0.1556 -0.2237  0.8318
 1001MOL0     C32013   8.962   7.667  11.316  0.6855 -0.6429  1.3337
 1001MOL0     C32014   8.846   7.557  11.325 -0.6218 -0.1133 -0.0560
 1001MOL0     C32015   8.795   7.548  11.473  0.8371 -0.5818 -0.2664
 1001MOL0     C32016   8.686   7.436  11.499 -0.9631 -0.1606  0.7526
 1001MOL0     N32017   8.550   7.472  11.459  0.2133 -0.2007 -0.0968
 1001MOL0     C32018   8.455   7.545  11.532 -0.9368 -0.9930  0.8658
 1001MOL0     C32019   8.337   7.506  11.488 -0.0099  0.2070 -0.4095
 1001MOL0     C32020   8.197   7.548  11.522  0.5166 -0.2506 -0.0667
 1001MOL0     C32021   8.086   7.465  11.453  0.5526 -0.4389 -0.4050
 1001MOL0     C32022   7.948   7.514  11.502 -0.1443 -0.4563  0.3620
 1001MOL0     C32023   7.833   7.451  11.423 -0.7743 -0.0898 -0.1804
 1001MOL0     O32024   7.714   7.509  11.479  0.3601 -0.0001  0.2690
 1001MOL0     C32025   7.600   7.510  11.410 -0.0115  0.0872  0.1616
 1001MOL0     C32026   7.566   7.432  11.292  0.7216  0.0086 -0.1976
 1001MOL0     C32027   7.436   7.434  11.238  0.2860 -0.1649  0.3287
 1001MOL0     C32028   7.334   7.495  11.305  0.2804 -0.1174 -0.0807
 1001MOL0     C32029   7.192   7.489  11.264 -0.2570 -0.7011 -0.1176
 1001MOL0     O32030   7.162   7.388  11.180  0.4435  0.4090 -0.1573
 1001MOL0     C32031   7.052   7.392  11.103  0.2012 -0.9533  1.0269
 1001MOL0     C32032   6.958   7.299  11.140 -0.4078 -0.3080  0.8649
 1001MOL0     C32033   6.832   7.314  11.086  0.1357 -0.5379 -0.6054
 1001MOL0     C32034   6.797   7.405  10.987 -1.0430  0.1169  0.0394
 1001MOL0     O32035   6.670   7.391  10.940  0.1770  0.0274 -0.1529
 1001MOL0     C32036   6.633   7.460  10.821  0.5266  0.2324 -0.4600
 1001MOL0     C32037   6.483   7.456  10.802  0.0617 -1.0350  0.1000
 1001MOL0     C32038   6.420   7.513  10.929  1.0678 -0.2186 -1.1007
 1001MOL0     C32039   6.262   7.499  10.912  0.0674  0.8179  0.5962
 1001MOL0     C32040   6.194   7.569  11.030  0.4636 -0.4767  0.6446
 1001MOL0     C32041   6.036   7.562  11.029  0.1355  0.7937 -0.8815
 1001MOL0     C32042   5.981   7.667  10.931  0.6092  0.2002  0.4997
 1001MOL0     C32043   5.832   7.638  10.906 -0.5421  0.2620  0.9234
 1001MOL0    Cl32044   5.744   7.638  11.051 -0.2622 -0.5305  0.0354
 1001MOL0     C32045   6.891   7.506  10.947  0.4142  0.1383  0.5999
 1001MOL0     C32046   7.017   7.499  11.012  0.2126 -0.6875 -1.0793
 1001MOL0     O32047   7.109   7.569  11.309 -0.0176 -0.1036 -0.5810
 1001MOL0     C32048   7.366   7.561  11.432 -0.4333  0.2311  1.2553
 1001MOL0     C32049   7.497   7.568  11.478 -0.3085  0.3910 -0.3647
 1001MOL0     N32050   8.358   7.427  11.371 -0.6178 -0.1055 -0.0849
 1001MOL0     N32051   8.489   7.421  11.351  0.4270  0.3902 -0.6053
 1001MOL0     C32052   9.582   7.754  11.075 -0.2565  0.6412  0.6098
 1001MOL0     C32053   9.705   7.819  11.107  0.6788 -0.3936 -1.2086
 1001MOL0     C32054  10.005   8.165  11.177  0.2403 -0.2975  0.8983
 1001MOL0     C32055  10.130   8.092  11.150 -0.2411  0.4382 -0.4497
 1001MOL0     C32056  10.252   8.151  11.177  0.1778  0.1681 -0.5746
 1001MOL0     C32057  10.273   8.276  11.220  0.1244 -0.8252  0.0632
 1001MOL0     O32058  10.398   8.337  11.237  0.2325  0.5593 -0.3070
 1001MOL0     C32059  10.481   8.272  11.334 -0.0126  1.1374  0.8350
 1001MOL0     C32060  10.598   8.203  11.245  0.5613  0.0594 -0.3066
 1001MOL0     C32061  10.708   8.135  11.324  0.8130  0.5320  0.5713
 1001MOL0     C32062  10.666   8.007  11.398  0.1135 -0.0992  0.1083
 1001MOL0     C32063  10.587   8.032  11.523  0.0560  0.5051  0.0342
 1001MOL0     C32064  10.526   8.049  11.630  0.6263 -0.3800 -0.0330
 1001MOL0     C32065  10.151   8.350  11.237 -0.0988  0.2596 -0.1904
 1001MOL0     C32066  10.020   8.299  11.224  0.2756 -0.5030 -0.2474
 1001MOL0     H32067   9.656   8.095  10.916  1.3804 -1.1047 -1.6558
 1001MOL0     H32068   9.455   8.006  10.884  0.6362 -0.3445 -0.7019
 1001MOL0     H32069   9.287   7.825  10.824 -3.9450  1.1222 -1.2184
 1001MOL0     H32070   9.266   7.935  10.967 -2.1761  0.6547 -1.7505
 1001MOL0     H32071   9.131   7.680  10.933  1.2553  0.0287 -0.4977
 1001MOL0     H32072   9.054   7.841  10.931  2.5265  1.6574 -0.3567
 1001MOL0     H32073   9.079   7.875  11.175  1.2268 -0.7941  2.7974
 1001MOL0     H32074   9.207   7.750  11.194  3.4733  3.2732 -3.0894
 1001MOL0     H32075   8.924   7.682  11.113 -1.2788 -1.2188  2.3391
 1001MOL0     H32076   9.065   7.578  11.147  2.5135  1.3519 -0.2861
 1001MOL0     H32077   8.920   7.764  11.342 -3.0057 -2.2072  1.8340
 1001MOL0     H32078   9.038   7.642  11.390  2.1038  0.3699  0.2634
 1001MOL0     H32079   8.897   7.467  11.290 -1.2139 -0.1741 -0.7838
 1001MOL0     H32080   8.763   7.581  11.259  0.5110  0.1724 -1.4199
 1001MOL0     H32081   8.879   7.528  11.540 -0.2755 -3.1849  0.4863
 1001MOL0     H32082   8.743   7.638  11.507  1.6811 -0.4274  0.6718
 1001MOL0     H32083   8.679   7.434  11.608 -2.6331 -1.7885  0.6717
 1001MOL0     H32084   8.701   7.333  11.468 -2.4346 -0.4406  0.8713
 1001MOL0     H32085   8.476   7.608  11.617  0.9189 -0.0705 -0.2268
 1001MOL0     H32086   8.183   7.651  11.488  2.0100  0.1131  0.3751
 1001MOL0     H32087   8.172   7.546  11.628 -1.9491 -2.3679 -0.5811
 1001MOL0     H32088   8.087   7.365  11.497 -0.6968  1.0779  3.5344
 1001MOL0     H32089   8.100   7.464  11.345  1.0254  0.1845 -0.3559
 1001MOL0     H32090   7.924   7.488  11.606  1.8650  0.2120  1.0346
 1001MOL0     H32091   7.942   7.623  11.506  3.1204 -0.1979  0.2210
 1001MOL0     H32092   7.842   7.343  11.441 -1.9700 -0.0983  0.4474
 1001MOL0     H32093   7.849   7.476  11.318 -0.4361 -2.8233 -0.8597
 1001MOL0     H32094   7.641   7.372  11.242 -1.5938 -0.2050 -3.7923
 1001MOL0     H32095   7.417   7.387  11.142 -0.3774  0.1078  0.3206
 1001MOL0     H32096   6.984   7.223  11.213  0.7851 -1.4340 -0.6546
 1001MOL0     H32097   6.747   7.261  11.128 -1.2664  2.8521  1.1992
 1001MOL0     H32098   6.683   7.416  10.734 -0.9676 -1.0459 -0.7182
 1001MOL0     H32099   6.659   7.566  10.835 -1.9799  0.6264  2.1672
 1001MOL0     H32100   6.446   7.353  10.791 -0.2740 -1.0616  1.2725
 1001MOL0     H32101   6.464   7.513  10.711  0.1548  1.7131  1.6969
 1001MOL0     H32102   6.447   7.618  10.926  0.1232  0.1169  0.8259
 1001MOL0     H32103   6.444   7.473  11.027 -1.7025  1.6114  0.4587
 1001MOL0     H32104   6.230   7.516  10.809 -2.8116 -2.6000  0.7277
 1001MOL0     H32105   6.240   7.394  10.934  2.1656  0.0166 -0.9346
 1001MOL0     H32106   6.226   7.672  11.043  0.9079 -0.8663  3.1968
 1001MOL0     H32107   6.233   7.533  11.126  1.5945 -0.9758  0.0259
 1001MOL0     H32108   5.997   7.588  11.127  0.7079  1.4857 -0.8199
 1001MOL0     H32109   6.003   7.461  11.005 -1.0633  0.9493  0.0380
 1001MOL0     H32110   5.993   7.758  10.992  4.6333  1.4732 -1.8260
 1001MOL0     H32111   6.041   7.677  10.840  0.0569  2.3233  0.3026
 1001MOL0     H32112   5.813   7.540  10.860 -0.1774 -0.1075  1.5354
 1001MOL0     H32113   5.801   7.710  10.830 -1.9042 -0.8325  0.4060
 1001MOL0     H32114   6.872   7.588  10.879  1.5978  2.2867  2.7003
 1001MOL0     H32115   7.086   7.581  10.992  0.6866 -0.8748 -0.2574
 1001MOL0     H32116   7.284   7.601  11.490  0.3176  0.2311  2.3475
 1001MOL0     H32117   7.523   7.627  11.566  1.1787  1.0876 -1.2357
 1001MOL0     H32118   9.536   7.664  11.114 -0.9498  1.2115  1.1481
 1001MOL0     H32119   9.779   7.760  11.161  0.5577 -0.5340 -1.1963
 1001MOL0     H32120  10.138   7.991  11.113  3.2303  0.2262  0.5069
 1001MOL0     H32121  10.334   8.081  11.161 -0.4467 -0.2109 -2.4187
 1001MOL0     H32122  10.433   8.186  11.379  1.3729 -0.7442 -1.0868
 1001MOL0     H32123  10.524   8.339  11.409  2.4175  0.5893  0.0266
 1001MOL0     H32124  10.546   8.128  11.184 -0.5659 -1.5772  2.4776
 1001MOL0     H32125  10.636   8.281  11.179  0.1755  1.1476  0.7300
 1001MOL0     H32126  10.754   8.200  11.398  1.4113 -0.5247  1.1552
 1001MOL0     H32127  10.788   8.108  11.254 -0.6972 -1.5247 -0.4985
 1001MOL0     H32128  10.604   7.949  11.329  0.8139 -0.6042 -0.1044
 1001MOL0     H32129  10.760   7.960  11.428  0.1530  0.0241  0.1763
 1001MOL0     H32130  10.481   8.060  11.727 -0.5660 -3.5789 -0.0719
 1001MOL0     H32131  10.161   8.452  11.274 -0.9290  0.8978 -1.6538
 1001MOL0     H32132   9.930   8.359  11.236 -1.2500 -2.7061 -0.0129
 1002MOL0     O32133   0.650   5.897   3.547  0.1815 -0.3212  0.4700
 1002MOL0     C32134   0.699   5.978   3.630  0.6113  0.9477  0.2639
 1002MOL0     O32135   0.642   6.031   3.745 -0.5379 -0.1036 -0.6966
 1002MOL0     C32136   0.526   5.985   3.793  0.1516  0.5037 -0.1610
 1002MOL0     C32137   0.497   5.844   3.794 -1.0502  0.1237  1.2054
 1002MOL0     C32138   0.375   5.811   3.843 -0.2328 -0.5441  0.6593
 1002MOL0     C32139   0.278   5.913   3.874 -0.4246 -0.2102  0.5984
 1002MOL0     O32140   0.152   5.867   3.912 -0.0778  0.2183 -0.7059
 1002MOL0     C32141   0.052   5.958   3.962 -0.4399  0.2356  0.0655
 1002MOL0     C32142  -0.075   5.886   4.015 -0.0944  0.1002  0.8042
 1002MOL0     C32143  -0.155   5.997   4.096 -0.5646 -0.3673  0.1934
 1002MOL0     C32144  -0.285   5.939   4.150 -0.0841 -0.0838 -0.1211
 1002MOL0     C32145  -0.373   6.028   4.243 -1.0884 -0.2772 -0.4209
 1002MOL0     C32146  -0.428   6.158   4.190 -0.2155 -0.5021  0.4349
 1002MOL0     C32147  -0.484   6.159   4.043  0.4497  0.3509  1.0390
 1002MOL0     C32148  -0.549   6.297   4.005 -0.1455 -0.5013 -0.8332
 1002MOL0     N32149  -0.448   6.408   4.016  0.8094  0.0705  0.1111
 1002MOL0     C32150  -0.330   6.420   3.942 -0.0412 -0.2085 -0.2803
 1002MOL0     C32151  -0.253   6.517   3.995 -0.6231 -0.4294  0.3623
 1002MOL0     C32152  -0.113   6.557   3.954 -0.2154  0.2777 -0.2299
 1002MOL0     C32153  -0.103   6.707   3.942 -0.7983  0.0372 -0.4664
 1002MOL0     C32154   0.043   6.752   3.930 -0.7455 -0.5676  0.7434
 1002MOL0     C32155   0.118   6.732   4.070 -0.0725  0.9939 -0.2936
 1002MOL0     O32156   0.205   6.614   4.051 -0.2472  0.1458  0.5285
 1002MOL0     C32157   0.320   6.627   3.985  0.1111 -0.1153 -0.0510
 1002MOL0     C32158   0.378   6.743   3.927 -0.2851  0.5092 -0.8564
 1002MOL0     C32159   0.501   6.736   3.869 -0.2588 -1.0934  0.0042
 1002MOL0     C32160   0.570   6.617   3.845  1.0796 -0.4663 -0.4301
 1002MOL0     C32161   0.703   6.627   3.773 -0.2701 -0.3493 -0.8091
 1002MOL0     O32162   0.776   6.515   3.776 -0.5998 -0.0953  0.3273
 1002MOL0     C32163   0.897   6.514   3.718 -0.0116 -1.1943  0.5611
 1002MOL0     C32164   1.007   6.576   3.776  1.0103  0.2740 -0.2234
 1002MOL0     C32165   1.132   6.589   3.710 -0.3559  0.9029 -0.1846
 1002MOL0     C32166   1.149   6.539   3.581  0.4474 -0.0768  0.0726
 1002MOL0     O32167   1.269   6.572   3.512 -0.7568 -0.5125 -0.6537
 1002MOL0     C32168   1.297   6.522   3.381  0.2991  0.5166  0.8507
 1002MOL0     C32169   1.427   6.594   3.325  0.6660  0.2574 -0.2162
 1002MOL0     C32170   1.463   6.544   3.178  0.9661 -0.1404 -1.1664
 1002MOL0     C32171   1.555   6.644   3.106 -0.5898  0.5035  0.0929
 1002MOL0     C32172   1.471   6.764   3.060 -0.6496  0.5198 -0.1897
 1002MOL0     C32173   1.551   6.867   2.966  0.5150 -0.2990 -0.6239
 1002MOL0     C32174   1.451   6.971   2.899 -0.2072  0.7743 -0.0885
 1002MOL0     C32175   1.509   7.055   2.784 -0.3738  0.0098  0.2937
 1002MOL0    Cl32176   1.642   7.158   2.833  0.1777  0.0656 -0.0532
 1002MOL0     C32177   1.031   6.476   3.519 -0.5512 -0.5755 -0.1734
 1002MOL0     C32178   0.915   6.456   3.587  0.4318  0.6455 -1.2130
 1002MOL0     O32179   0.731   6.732   3.720  0.1890  0.2491 -0.4761
 1002MOL0     C32180   0.526   6.501   3.908 -0.2074 -0.3073  0.6390
 1002MOL0     C32181   0.398   6.505   3.977  0.2347  0.3788  0.8555
 1002MOL0     N32182  -0.324   6.561   4.099  0.0030 -0.1812 -0.0505
 1002MOL0     N32183  -0.436   6.500   4.108  0.4250  0.4184  0.6390
 1002MOL0     C32184   0.304   6.047   3.852 -0.0551  0.3823 -0.2989
 1002MOL0     C32185   0.436   6.085   3.822 -0.3660 -0.6963  0.3562
 1002MOL0     C32186   0.833   6.027   3.580 -0.5889  0.4062  0.4687
 1002MOL0     C32187   0.871   6.014   3.446 -0.6426  0.3747  0.2487
 1002MOL0     C32188   0.990   6.068   3.409  0.1267 -0.5168  0.1194
 1002MOL0     C32189   1.081   6.125   3.496  0.6229 -0.4419 -0.4494
 1002MOL0     O32190   1.210   6.155   3.468  0.0053 -0.3525  0.3433
 1002MOL0     C32191   1.273   6.142   3.340  0.1553 -0.6192 -0.3130
 1002MOL0     C32192   1.421   6.149   3.355  0.1564 -0.5608  0.7556
 1002MOL0     C32193   1.464   6.045   3.452 -0.0902  0.1391  0.2564
 1002MOL0     C32194   1.614   6.033   3.452  0.2836 -0.5598 -0.7378
 1002MOL0     C32195   1.688   6.148   3.497  0.2184 -0.1979  0.0370
 1002MOL0     C32196   1.752   6.238   3.551 -0.0787 -0.5078 -0.1077
 1002MOL0     C32197   1.049   6.140   3.626  0.4032 -0.2320  0.3398
 1002MOL0     C32198   0.924   6.092   3.668 -0.0797 -0.0757  0.4187
 1002MOL0     H32199   0.574   5.769   3.780 -2.2571 -0.6794 -2.2299
 1002MOL0     H32200   0.353   5.705   3.849 -1.6603 -0.2120  1.6646
 1002MOL0     H32201   0.027   6.033   3.886 -1.3938  0.0826  0.2137
 1002MOL0     H32202   0.106   6.012   4.040  0.2114  0.5020 -0.5548
 1002MOL0     H32203  -0.055   5.795   4.073 -0.4910 -1.3989 -1.2931
 1002MOL0     H32204  -0.132   5.858   3.927  2.7924  1.0443 -1.5323
 1002MOL0     H32205  -0.173   6.079   4.026  0.4231 -0.6941 -0.4658
 1002MOL0     H32206  -0.096   6.042   4.176 -1.5115 -0.1083  0.7658
 1002MOL0     H32207  -0.342   5.906   4.062 -0.8975  0.4003  0.2151
 1002MOL0     H32208  -0.267   5.842   4.196 -3.8992 -0.6552  0.5177
 1002MOL0     H32209  -0.317   6.040   4.336 -1.3765 -1.9515 -0.0173
 1002MOL0     H32210  -0.462   5.974   4.277 -1.3475 -0.7250 -1.7558
 1002MOL0     H32211  -0.343   6.227   4.196  0.4337 -1.3954  2.1655
 1002MOL0     H32212  -0.508   6.191   4.256 -1.0008 -0.1347 -0.6751
 1002MOL0     H32213  -0.408   6.124   3.972  1.3838  0.9706  1.7016
 1002MOL0     H32214  -0.566   6.087   4.045 -1.2764  2.0065 -1.9548
 1002MOL0     H32215  -0.631   6.322   4.072  1.9987  0.5104  1.6126
 1002MOL0     H32216  -0.586   6.306   3.903  0.1873 -0.7611 -0.9789
 1002MOL0     H32217  -0.310   6.350   3.862 -0.4033  1.2710 -1.7323
 1002MOL0     H32218  -0.087   6.513   3.857 -0.4602 -2.0490  0.6986
 1002MOL0     H32219  -0.050   6.521   4.036  0.1007  1.4400  0.0582
 1002MOL0     H32220  -0.144   6.750   4.034  0.1241  0.8594 -0.4234
 1002MOL0     H32221  -0.169   6.727   3.858  0.4639 -2.1049 -2.0690
 1002MOL0     H32222   0.100   6.723   3.841 -1.1148  0.8156  0.0343
 1002MOL0     H32223   0.029   6.860   3.920 -1.7761 -0.8804 -2.2634
 1002MOL0     H32224   0.034   6.716   4.138 -1.5805  0.1278 -2.2522
 1002MOL0     H32225   0.179   6.820   4.089 -0.5271  1.3544 -0.5037
 1002MOL0     H32226   0.324   6.838   3.921 -1.9096 -0.2818  0.4078
 1002MOL0     H32227   0.533   6.830   3.825  0.9593  0.2889  3.5529
 1002MOL0     H32228   1.001   6.610   3.879  0.2831 -1.5074  0.3654
 1002MOL0     H32229   1.224   6.627   3.753 -0.8055 -0.2134  1.9059
 1002MOL0     H32230   1.217   6.537   3.308  3.2871 -1.1513 -3.1982
 1002MOL0     H32231   1.318   6.414   3.374 -0.1319  0.4964 -0.3899
 1002MOL0     H32232   1.508   6.583   3.397  0.9409  0.4879 -0.4888
 1002MOL0     H32233   1.407   6.701   3.330 -0.2171  0.0902  0.0648
 1002MOL0     H32234   1.376   6.518   3.118  0.3656 -4.1168  1.0989
 1002MOL0     H32235   1.510   6.446   3.185  0.4584 -0.3404 -0.4262
 1002MOL0     H32236   1.633   6.664   3.180 -0.5388 -0.1940  0.2279
 1002MOL0     H32237   1.597   6.591   3.020 -0.1594  1.3624 -0.2444
 1002MOL0     H32238   1.425   6.816   3.145 -1.7705  0.0650 -0.5060
 1002MOL0     H32239   1.382   6.729   3.007 -0.5968  1.8489 -1.2134
 1002MOL0     H32240   1.605   6.807   2.892  0.7939 -0.8134 -0.0136
 1002MOL0     H32241   1.629   6.914   3.026  0.6088 -1.2990  0.0773
 1002MOL0     H32242   1.367   6.919   2.851  1.4917 -1.1319 -1.1771
 1002MOL0     H32243   1.425   7.040   2.980 -0.5055 -1.2752  1.6565
 1002MOL0     H32244   1.434   7.125   2.745  1.2885  1.2317 -0.8336
 1002MOL0     H32245   1.534   6.994   2.697 -3.2926 -1.0448  0.0686
 1002MOL0     H32246   1.035   6.432   3.420  0.8435 -2.4163  0.6348
 1002MOL0     H32247   0.834   6.400   3.543  0.8967 -1.7234  0.7150
 1002MOL0     H32248   0.599   6.420   3.914  2.3902  2.0086  2.7288
 1002MOL0     H32249   0.352   6.427   4.037 -0.4999 -0.0555 -0.2549
 1002MOL0     H32250   0.222   6.112   3.878  1.0804  0.8767  2.3091
 1002MOL0     H32251   0.467   6.189   3.829  0.0194 -0.7306 -0.7188
 1002MOL0     H32252   0.811   5.962   3.372 -0.0606 -0.0081  0.0326
 1002MOL0     H32253   1.024   6.064   3.306  1.2180 -1.8492  0.4893
 1002MOL0     H32254   1.234   6.216   3.268 -0.9122 -2.0118 -1.2301
 1002MOL0     H32255   1.250   6.044   3.298 -0.4818 -0.1314 -1.1359
 1002MOL0     H32256   1.479   6.161   3.263 -0.7814  2.7611  0.4738
 1002MOL0     H32257   1.432   6.243   3.410 -2.0351 -1.1952  2.4190
 1002MOL0     H32258   1.419   5.949   3.423 -1.7993  0.1887  2.4984
 1002MOL0     H32259   1.434   6.057   3.556 -0.5724 -3.9673  0.7661
 1002MOL0     H32260   1.641   5.956   3.525 -3.3165 -0.5619  0.7858
 1002MOL0     H32261   1.648   5.999   3.354  2.5436 -1.9306  0.4319
 1002MOL0     H32262   1.813   6.313   3.597  1.7118 -1.1152 -1.3604
 1002MOL0     H32263   1.107   6.201   3.695 -2.4738  0.8476  2.0155
 1002MOL0     H32264   0.891   6.104   3.770 -0.3297  0.8367  0.2447
 1003MOL0     O32265   4.048   7.443   2.254 -0.0449  0.2622 -0.3416
 1003MOL0     C32266   4.002   7.330   2.239  0.2825 -0.3656 -0.5413
 1003MOL0     O32267   4.072   7.215   2.221 -0.7330 -0.2713  0.4862
 1003MOL0     C32268   4.210   7.222   2.194  0.0225  0.7893  0.9220
 1003MOL0     C32269   4.272   7.317   2.116 -0.1246  0.0439 -1.3142
 1003MOL0     C32270   4.406   7.304   2.068  0.6296 -0.2604 -0.8958
 1003MOL0     C32271   4.482   7.197   2.112  0.0191  0.7170  0.2132
 1003MOL0     O32272   4.608   7.184   2.060 -0.2092 -0.2976 -0.4262
 1003MOL0     C32273   4.664   7.053   2.049 -0.0426 -0.2375  0.4600
 1003MOL0     C32274   4.814   7.064   2.043 -0.3099  0.6202  0.1077
 1003MOL0     C32275   4.891   6.924   2.057  0.6401 -1.3232 -0.7199
 1003MOL0     C32276   4.849   6.807   1.969  0.1641 -0.0297 -0.0327
 1003MOL0     C32277   4.875   6.829   1.822  0.2911  0.0579  0.1081
 1003MOL0     C32278   4.821   6.713   1.739 -0.8572  0.3986  0.5481
 1003MOL0     C32279   4.672   6.693   1.744  0.7580 -0.4788 -0.5989
 1003MOL0     C32280   4.589   6.814   1.700 -1.5649  0.7563  0.5447
 1003MOL0     N32281   4.447   6.773   1.666 -0.2232  0.2444  0.5524
 1003MOL0     C32282   4.409   6.688   1.563 -0.0508  1.0249 -0.3028
 1003MOL0     C32283   4.281   6.711   1.547 -0.2914 -0.5059 -0.0019
 1003MOL0     C32284   4.180   6.631   1.476 -0.4427 -0.0443  0.0541
 1003MOL0     C32285   4.127   6.522   1.574  0.6379  0.2264 -0.4109
 1003MOL0     C32286   3.981   6.528   1.600  1.1139  0.5132 -0.2838
 1003MOL0     C32287   3.926   6.654   1.669  0.2687  0.5196 -0.1569
 1003MOL0     O32288   3.783   6.686   1.672 -0.0034  0.5995  0.0585
 1003MOL0     C32289   3.711   6.593   1.742 -0.6238 -0.7451  0.1269
 1003MOL0     C32290   3.691   6.605   1.887  0.2804  0.6143  0.7899
 1003MOL0     C32291   3.602   6.531   1.967  0.0212  0.0581  0.3026
 1003MOL0     C32292   3.522   6.437   1.901 -0.1230  0.5243  0.1210
 1003MOL0     C32293   3.418   6.365   1.977  0.7407  0.8180  0.5782
 1003MOL0     O32294   3.358   6.259   1.916  0.1269 -0.3104  0.3724
 1003MOL0     C32295   3.224   6.245   1.940 -0.8117 -0.0778 -0.0171
 1003MOL0     C32296   3.166   6.124   1.975 -0.7085 -0.8251  0.1599
 1003MOL0     C32297   3.026   6.102   1.990 -0.5922 -0.3171 -0.1164
 1003MOL0     C32298   2.940   6.205   1.963  1.2232  0.2439  0.8462
 1003MOL0     O32299   2.804   6.189   1.971  0.2778 -0.1450  0.4746
 1003MOL0     C32300   2.737   6.185   1.845  0.0986  0.1932 -0.0563
 1003MOL0     C32301   2.614   6.082   1.852 -0.4140 -0.8035  0.2431
 1003MOL0     C32302   2.606   5.987   1.737  0.0648  0.7302  0.7363
 1003MOL0     C32303   2.718   5.885   1.759 -0.2834  0.0563 -0.9758
 1003MOL0     C32304   2.697   5.749   1.674 -0.1134 -0.3082 -0.5256
 1003MOL0     C32305   2.690   5.779   1.523 -0.3942 -0.2597 -0.0799
 1003MOL0     C32306   2.625   5.657   1.449  0.1924  0.8339  0.3296
 1003MOL0     C32307   2.715   5.532   1.454  0.3497 -0.1566 -0.1225
 1003MOL0    Cl32308   2.636   5.403   1.345  0.0599  0.3706 -0.5986
 1003MOL0     C32309   2.992   6.333   1.932  0.0962 -1.0985 -0.5622
 1003MOL0     C32310   3.130   6.353   1.920  0.7157  0.5819 -0.7869
 1003MOL0     O32311   3.373   6.424   2.077 -0.4246 -0.2360  0.1856
 1003MOL0     C32312   3.535   6.430   1.759  0.6028  0.1387 -0.4796
 1003MOL0     C32313   3.628   6.507   1.678  0.3537  0.5205  1.0872
 1003MOL0     N32314   4.239   6.812   1.630  0.0330  0.1212  0.3956
 1003MOL0     N32315   4.339   6.836   1.702  1.0363  0.2022  0.8806
 1003MOL0     C32316   4.423   7.103   2.206 -0.2389  0.0798 -0.4242
 1003MOL0     C32317   4.285   7.113   2.240  0.3229  0.4005 -0.6629
 1003MOL0     C32318   3.852   7.320   2.255 -0.6451  0.1247  0.0905
 1003MOL0     C32319   3.795   7.190   2.272  0.1039 -0.8156  0.4247
 1003MOL0     C32320   3.659   7.175   2.299 -0.4995  0.1323  0.2208
 1003MOL0     C32321   3.568   7.281   2.313  0.0167  0.3297  0.6990
 1003MOL0     O32322   3.435   7.275   2.343  0.3733 -0.0681  0.5925
 1003MOL0     C32323   3.371   7.147   2.368  0.5080 -0.2096 -0.5174
 1003MOL0     C32324   3.225   7.181   2.345 -0.4975 -0.4580  0.5528
 1003MOL0     C32325   3.150   7.247   2.465 -0.7863  0.1734 -0.1226
 1003MOL0     C32326   2.993   7.261   2.434 -0.2459 -0.7204  0.0121
 1003MOL0     C32327   2.914   7.283   2.558 -0.5399 -0.1057  0.3878
 1003MOL0     C32328   2.858   7.277   2.665  0.2999 -0.1281 -0.2768
 1003MOL0     C32329   3.626   7.409   2.314  0.5955  0.4742  0.2264
 1003MOL0     C32330   3.763   7.426   2.290  0.3027  1.0368 -0.0602
 1003MOL0     H32331   4.207   7.399   2.086  0.5069  1.8153  1.7246
 1003MOL0     H32332   4.443   7.386   2.008 -3.1257  3.1893  0.9908
 1003MOL0     H32333   4.634   7.002   1.957  2.4739  0.5088 -0.8559
 1003MOL0     H32334   4.638   6.986   2.131  3.6466 -0.6150  1.5004
 1003MOL0     H32335   4.832   7.125   2.132 -2.2849  0.1751  0.8611
 1003MOL0     H32336   4.837   7.113   1.948 -0.1313  0.4478  0.0622
 1003MOL0     H32337   4.872   6.892   2.160  0.5224 -0.7745 -0.5639
 1003MOL0     H32338   4.997   6.944   2.038  0.5930  1.1171  1.1146
 1003MOL0     H32339   4.904   6.718   2.001 -0.0779  0.3179  1.4551
 1003MOL0     H32340   4.745   6.784   1.992 -0.0244 -1.0043 -1.7269
 1003MOL0     H32341   4.984   6.833   1.809  0.3544 -0.3631  0.4867
 1003MOL0     H32342   4.841   6.929   1.794 -2.7201  0.4686  4.3191
 1003MOL0     H32343   4.869   6.625   1.782 -0.1456  1.1318  1.2941
 1003MOL0     H32344   4.859   6.714   1.636  1.4051 -0.1772  1.3297
 1003MOL0     H32345   4.646   6.601   1.691 -0.1090 -1.0258  0.7172
 1003MOL0     H32346   4.641   6.673   1.847  0.6258  0.9855 -0.3340
 1003MOL0     H32347   4.626   6.848   1.603 -2.8923  0.9706  0.0902
 1003MOL0     H32348   4.603   6.899   1.766  1.5294  2.7315 -2.3003
 1003MOL0     H32349   4.466   6.612   1.510  1.8361  2.3249 -0.2164
 1003MOL0     H32350   4.243   6.590   1.397 -1.4449  0.3644 -0.9752
 1003MOL0     H32351   4.104   6.679   1.414 -1.2670 -1.5513 -0.1391
 1003MOL0     H32352   4.175   6.521   1.673  1.0891 -3.4060 -0.5276
 1003MOL0     H32353   4.141   6.422   1.533  0.9679 -0.3782  1.1077
 1003MOL0     H32354   3.928   6.532   1.505 -0.6331 -1.7021  0.5312
 1003MOL0     H32355   3.947   6.446   1.663 -0.1471  0.0248 -1.5568
 1003MOL0     H32356   3.980   6.732   1.614  2.0855 -0.2610  0.4149
 1003MOL0     H32357   3.965   6.655   1.772 -0.4997 -1.9261  0.2250
 1003MOL0     H32358   3.730   6.691   1.942  1.7621 -1.2790  2.8633
 1003MOL0     H32359   3.581   6.561   2.069 -0.8666  1.5346 -0.2759
 1003MOL0     H32360   3.226   6.033   1.985  2.1373  0.5976 -2.5828
 1003MOL0     H32361   2.984   6.002   1.992 -0.1189 -0.5714 -1.5420
 1003MOL0     H32362   2.812   6.161   1.769  1.1882 -1.4363  1.4509
 1003MOL0     H32363   2.698   6.284   1.820  0.8463  0.4927 -0.0940
 1003MOL0     H32364   2.519   6.135   1.863 -0.3946 -0.0840 -2.3107
 1003MOL0     H32365   2.614   6.027   1.946 -0.2431 -0.5016  0.4207
 1003MOL0     H32366   2.617   6.047   1.646  1.9531 -0.7130 -0.0545
 1003MOL0     H32367   2.515   5.927   1.738  1.0255 -0.7788  2.1324
 1003MOL0     H32368   2.811   5.921   1.714  0.5885 -2.0153 -0.9734
 1003MOL0     H32369   2.739   5.858   1.863  0.1646 -0.9495 -1.3097
 1003MOL0     H32370   2.608   5.691   1.702 -1.5872  0.9231 -2.4043
 1003MOL0     H32371   2.782   5.683   1.690 -0.6835 -0.9394 -0.0798
 1003MOL0     H32372   2.794   5.785   1.489 -0.1879 -0.4688  0.4938
 1003MOL0     H32373   2.636   5.871   1.499  0.4122  0.5429  1.0775
 1003MOL0     H32374   2.528   5.628   1.492  0.4641  0.7523  0.8910
 1003MOL0     H32375   2.609   5.698   1.349  2.0575 -0.8006 -0.6979
 1003MOL0     H32376   2.732   5.494   1.555 -1.1715 -2.0629 -0.5343
 1003MOL0     H32377   2.811   5.549   1.404  0.6469 -0.0224  0.4897
 1003MOL0     H32378   2.909   6.401   1.911  0.4008 -0.4784  0.1772
 1003MOL0     H32379   3.172   6.453   1.912  1.1234  0.3950 -0.9947
 1003MOL0     H32380   3.459   6.363   1.719  0.5404 -1.0140  1.4816
 1003MOL0     H32381   3.627   6.504   1.570 -1.1639 -1.8967  1.0879
 1003MOL0     H32382   4.480   7.020   2.248 -1.0724 -0.3805 -0.1922
 1003MOL0     H32383   4.241   7.054   2.320  0.8670  0.6143 -0.1957
 1003MOL0     H32384   3.859   7.103   2.263 -1.7010 -2.4668  2.4927
 1003MOL0     H32385   3.631   7.070   2.304  3.8296 -1.1925  0.3736
 1003MOL0     H32386   3.393   7.120   2.472  1.4789  2.4295  0.0441
 1003MOL0     H32387   3.413   7.068   2.305 -0.7076  0.1763 -1.8891
 1003MOL0     H32388   3.216   7.237   2.251 -0.1330 -0.6612  0.3913
 1003MOL0     H32389   3.176   7.087   2.318  0.1712 -0.2361 -1.6862
 1003MOL0     H32390   3.198   7.346   2.475  1.3217 -0.6833 -1.1369
 1003MOL0     H32391   3.179   7.186   2.551 -0.8141 -1.7551 -1.4187
 1003MOL0     H32392   2.966   7.337   2.360  0.7321 -1.1549 -0.7969
 1003MOL0     H32393   2.965   7.170   2.380 -1.1887  0.7608 -2.1017
 1003MOL0     H32394   2.822   7.276   2.766 -1.7651  2.1975 -0.8923
 1003MOL0     H32395   3.566   7.498   2.327 -3.3632 -1.9751  0.5279
 1003MOL0     H32396   3.811   7.523   2.296  0.0900  1.1697 -0.4708
 1004MOL0     O32397   4.238   1.412   0.074 -0.9291  0.2300  0.4208
 1004MOL0     C32398   4.351   1.396   0.030 -0.2242 -0.2635  0.0904
 1004MOL0     O32399   4.382   1.306  -0.063 -0.0655  0.1984  0.1408
 1004MOL0     C32400   4.297   1.205  -0.093  0.6009 -0.3742 -0.0399
 1004MOL0     C32401   4.342   1.075  -0.092 -0.0112  0.5234 -0.4028
 1004MOL0     C32402   4.274   0.961  -0.141 -1.0304 -0.2155 -1.0998
 1004MOL0     C32403   4.144   0.974  -0.191 -0.3514 -0.7500  0.1619
 1004MOL0     O32404   4.059   0.875  -0.223  0.2090  0.3445  0.7180
 1004MOL0     C32405   4.073   0.745  -0.169 -0.5356  0.8870 -0.0758
 1004MOL0     C32406   3.945   0.675  -0.207  0.8127 -0.4564 -0.1625
 1004MOL0     C32407   3.822   0.730  -0.143 -0.4079 -0.3692  0.3962
 1004MOL0     C32408   3.689   0.658  -0.184 -1.1501 -0.2972 -0.3926
 1004MOL0     C32409   3.565   0.747  -0.144 -0.3205  0.8750 -0.8383
 1004MOL0     C32410   3.434   0.667  -0.123 -0.5235 -0.1857 -0.0147
 1004MOL0     C32411   3.326   0.748  -0.043 -0.7804 -0.0322 -0.4178
 1004MOL0     C32412   3.259   0.843  -0.146  0.4926  0.0683 -0.0253
 1004MOL0     N32413   3.125   0.889  -0.106  0.4551 -0.4235 -0.8491
 1004MOL0     C32414   3.016   0.874  -0.189 -0.4683 -0.9751 -0.8755
 1004MOL0     C32415   2.907   0.903  -0.108  0.2856  0.0964  0.5484
 1004MOL0     C32416   2.769   0.879  -0.158  0.0450 -0.5203  0.9671
 1004MOL0     C32417   2.663   0.844  -0.053  0.7435  0.2657 -0.2271
 1004MOL0     C32418   2.526   0.833  -0.118  0.0938 -0.1180  0.1430
 1004MOL0     C32419   2.439   0.750  -0.027  1.0600  0.0149  0.4146
 1004MOL0     O32420   2.331   0.707  -0.113 -0.1566  0.0987  0.6141
 1004MOL0     C32421   2.212   0.767  -0.100 -0.5024  1.0789 -0.2419
 1004MOL0     C32422   2.136   0.737   0.019  0.3294  0.4583  0.5798
 1004MOL0     C32423   2.007   0.794   0.035 -0.0014 -0.2265  0.3306
 1004MOL0     C32424   1.954   0.874  -0.060 -0.2565  0.2027  0.0759
 1004MOL0     C32425   1.818   0.923  -0.058 -0.4435 -0.0123 -0.0314
 1004MOL0     O32426   1.755   0.926   0.062 -0.6539 -0.5516 -0.4275
 1004MOL0     C32427   1.626   0.983   0.094 -0.1840 -0.2417  0.2075
 1004MOL0     C32428   1.561   1.068   0.000  0.4398  0.4805  0.2700
 1004MOL0     C32429   1.429   1.107   0.023 -0.5178 -0.9082 -0.4683
 1004MOL0     C32430   1.359   1.062   0.132  0.3445 -0.1393  0.1309
 1004MOL0     O32431   1.228   1.106   0.137  0.2106 -0.1048  0.3908
 1004MOL0     C32432   1.144   1.052   0.243  1.3513 -0.0454  0.1570
 1004MOL0     C32433   1.005   1.048   0.180  0.1747  0.0999 -0.4500
 1004MOL0     C32434   0.926   1.174   0.226  0.1463  0.2331  0.1417
 1004MOL0     C32435   0.776   1.154   0.194 -0.2342 -0.9146 -0.8083
 1004MOL0     C32436   0.685   1.275   0.235  0.2045 -0.1277  0.0942
 1004MOL0     C32437   0.540   1.225   0.221  1.0107  0.2503 -0.3375
 1004MOL0     C32438   0.431   1.315   0.287 -0.0737 -0.3772  0.1344
 1004MOL0     C32439   0.399   1.446   0.206  0.1103  0.3377  0.1230
 1004MOL0    Cl32440   0.518   1.579   0.240 -0.1081  0.6200  0.0174
 1004MOL0     C32441   1.425   0.992   0.227  0.1768  0.0303 -0.9834
 1004MOL0     C32442   1.557   0.949   0.214  0.4942  0.0652  0.2371
 1004MOL0     O32443   1.778   0.961  -0.171  0.2340 -0.0435 -0.2074
 1004MOL0     C32444   2.037   0.919  -0.167  0.0849 -1.0065  0.2377
 1004MOL0     C32445   2.165   0.866  -0.189  0.6132  0.4513  0.2321
 1004MOL0     N32446   2.951   0.920   0.026 -0.5524  0.7574 -0.6115
 1004MOL0     N32447   3.073   0.918   0.024 -0.8292  0.8800  0.2929
 1004MOL0     C32448   4.092   1.109  -0.197  0.5630 -0.1228 -1.0841
 1004MOL0     C32449   4.166   1.221  -0.149 -0.3218 -0.5627  0.1125
 1004MOL0     C32450   4.463   1.469   0.087  0.6068 -0.2719 -0.4881
 1004MOL0     C32451   4.440   1.569   0.190 -0.7574 -0.6801 -0.2039
 1004MOL0     C32452   4.545   1.635   0.260 -0.8633 -0.5285  0.3736
 1004MOL0     C32453   4.677   1.593   0.225  0.7831 -0.2783  0.4376
 1004MOL0     O32454   4.780   1.653   0.299  0.5470 -0.5944 -0.5273
 1004MOL0     C32455   4.828   1.582   0.415  0.4155 -0.3793  0.1250
 1004MOL0     C32456   4.929   1.664   0.486 -0.1107  0.1850  1.1151
 1004MOL0     C32457   5.062   1.650   0.414 -0.3950 -0.2478  0.3951
 1004MOL0     C32458   5.175   1.728   0.497  0.4616  0.3773 -0.8816
 1004MOL0     C32459   5.309   1.690   0.450 -0.2377 -0.2487  0.2392
 1004MOL0     C32460   5.428   1.667   0.425  1.1264 -0.2421  0.1217
 1004MOL0     C32461   4.701   1.497   0.126 -0.3077 -0.4820  0.0413
 1004MOL0     C32462   4.595   1.442   0.052  0.0726 -0.2550 -0.0128
 1004MOL0     H32463   4.445   1.056  -0.061  0.6762 -0.8822 -3.1893
 1004MOL0     H32464   4.305   0.858  -0.127 -3.0482 -0.5748  1.4864
 1004MOL0     H32465   4.083   0.754  -0.061 -2.1818 -0.9710  0.3002
 1004MOL0     H32466   4.148   0.682  -0.217 -0.7179  1.6729 -1.4572
 1004MOL0     H32467   3.962   0.569  -0.184 -2.1512 -1.1654 -0.8208
 1004MOL0     H32468   3.924   0.682  -0.315  0.7397  1.5370 -0.0540
 1004MOL0     H32469   3.819   0.839  -0.155  0.1780  0.4167  5.0678
 1004MOL0     H32470   3.826   0.720  -0.034 -0.7030  0.6160  0.5065
 1004MOL0     H32471   3.685   0.627  -0.289  3.5253 -1.6875 -0.3595
 1004MOL0     H32472   3.679   0.560  -0.136 -0.7171 -0.3867 -0.4856
 1004MOL0     H32473   3.542   0.831  -0.210 -1.5656 -0.3588 -2.0469
 1004MOL0     H32474   3.577   0.786  -0.043  1.5524 -1.9674  0.1649
 1004MOL0     H32475   3.454   0.576  -0.067 -1.7959 -1.8297 -2.0856
 1004MOL0     H32476   3.394   0.639  -0.221  1.5744 -0.5011 -0.8532
 1004MOL0     H32477   3.262   0.668  -0.005 -1.4911  0.8323  0.2393
 1004MOL0     H32478   3.360   0.800   0.046 -2.8330 -1.4592  1.3023
 1004MOL0     H32479   3.260   0.790  -0.242  0.7477  2.1137 -1.2140
 1004MOL0     H32480   3.318   0.934  -0.157 -1.1211  0.9686 -1.6960
 1004MOL0     H32481   3.019   0.852  -0.295 -0.2551  3.9104 -2.1256
 1004MOL0     H32482   2.783   0.797  -0.229 -0.2581  2.1027 -2.3196
 1004MOL0     H32483   2.740   0.966  -0.218 -0.3889  0.9524  3.1893
 1004MOL0     H32484   2.658   0.912   0.033 -0.4824 -2.2872  1.8471
 1004MOL0     H32485   2.688   0.745  -0.016 -0.8829 -0.6530 -1.4399
 1004MOL0     H32486   2.472   0.922  -0.151 -1.4952 -1.2800 -0.5236
 1004MOL0     H32487   2.541   0.781  -0.213  3.5252 -0.0336  0.5359
 1004MOL0     H32488   2.405   0.820   0.050  4.0153  2.1053  0.0031
 1004MOL0     H32489   2.490   0.666   0.021  0.5985  0.3604  1.5501
 1004MOL0     H32490   2.175   0.667   0.092 -3.6921 -0.7247  1.8732
 1004MOL0     H32491   1.951   0.774   0.126 -0.5714  4.5221  1.3097
 1004MOL0     H32492   1.610   1.119  -0.082  2.8333  1.0403  1.9488
 1004MOL0     H32493   1.384   1.183  -0.040 -0.8039 -0.5716  0.1285
 1004MOL0     H32494   1.147   1.120   0.329  0.2823  2.6404 -1.7627
 1004MOL0     H32495   1.173   0.951   0.273 -0.0995 -1.5748 -3.1486
 1004MOL0     H32496   0.952   0.961   0.222 -1.6263  1.1558 -0.4400
 1004MOL0     H32497   1.010   1.043   0.071  0.6005 -1.3479 -0.3870
 1004MOL0     H32498   0.966   1.262   0.175 -0.3934  0.6297  0.3901
 1004MOL0     H32499   0.945   1.191   0.333  1.2965  0.2393 -0.0414
 1004MOL0     H32500   0.765   1.142   0.086  0.1486  3.4904 -1.5144
 1004MOL0     H32501   0.740   1.062   0.242  0.6295 -0.1005  1.4973
 1004MOL0     H32502   0.705   1.363   0.173 -0.7862  0.6047  0.7745
 1004MOL0     H32503   0.707   1.304   0.338  0.1992  0.5755 -0.0944
 1004MOL0     H32504   0.531   1.129   0.273  2.0983 -0.4018 -1.3111
 1004MOL0     H32505   0.506   1.199   0.120 -0.2487 -0.0051  0.1274
 1004MOL0     H32506   0.335   1.264   0.302  0.8880 -2.6939 -1.1217
 1004MOL0     H32507   0.473   1.347   0.382  2.9705 -1.0069 -0.8957
 1004MOL0     H32508   0.302   1.482   0.242  0.3402 -0.8156  2.0306
 1004MOL0     H32509   0.384   1.424   0.100 -0.8752 -0.1676  0.3541
 1004MOL0     H32510   1.375   0.965   0.320  3.7996 -1.6966  0.6742
 1004MOL0     H32511   1.609   0.893   0.292 -0.8586 -1.6676 -0.0543
 1004MOL0     H32512   1.999   0.991  -0.239  1.3474  0.9992  1.4862
 1004MOL0     H32513   2.226   0.898  -0.272 -0.3089  0.1225 -0.5942
 1004MOL0     H32514   3.992   1.127  -0.234 -0.0316 -0.4808  0.3133
 1004MOL0     H32515   4.131   1.324  -0.140 -2.2810 -1.1366 -0.4187
 1004MOL0     H32516   4.342   1.603   0.223 -0.0559 -0.5823  1.9062
 1004MOL0     H32517   4.538   1.712   0.336 -1.0012 -0.4248  0.2544
 1004MOL0     H32518   4.861   1.480   0.393 -2.1649 -1.9073  2.6545
 1004MOL0     H32519   4.748   1.566   0.488 -1.5007 -2.0078 -2.1619
 1004MOL0     H32520   4.902   1.769   0.481 -1.2628 -0.1399  0.2908
 1004MOL0     H32521   4.940   1.635   0.591  0.2902 -1.7844  0.5773
 1004MOL0     H32522   5.060   1.700   0.316  0.0213 -2.2226 -0.6738
 1004MOL0     H32523   5.083   1.543   0.402 -3.7286 -0.9223 -0.6001
 1004MOL0     H32524   5.162   1.836   0.481  1.1816  0.4509 -0.9963
 1004MOL0     H32525   5.170   1.705   0.604  0.5290 -2.5761 -1.4388
 1004MOL0     H32526   5.529   1.636   0.411  0.6549 -2.4516  1.0714
 1004MOL0     H32527   4.802   1.478   0.090 -0.8820  0.2373 -2.0839
 1004MOL0     H32528   4.620   1.366  -0.021 -0.0250 -1.1661  0.8810
 1005MOL0     O32529   8.821   2.065   0.032 -0.2345 -0.2407 -0.0145
 1005MOL0     C32530   8.856   2.076  -0.087  0.4262  0.3302 -0.0486
 1005MOL0     O32531   8.775   2.043  -0.192 -0.7553 -0.1247  0.1130
 1005MOL0     C32532   8.654   1.998  -0.157  0.0280  0.3296 -0.1620
 1005MOL0     C32533   8.541   2.077  -0.170  0.7250 -0.0484  0.1794
 1005MOL0     C32534   8.417   2.012  -0.156  0.3579  0.0342  0.6299
 1005MOL0     C32535   8.400   1.881  -0.127  1.0701 -0.0774  0.3574
 1005MOL0     O32536   8.282   1.808  -0.125  0.2159  0.3488 -0.3471
 1005MOL0     C32537   8.148   1.880  -0.108  0.0689  0.1705  0.2298
 1005MOL0     C32538   8.049   1.774  -0.046  0.4270  0.2737  0.5042
 1005MOL0     C32539   7.901   1.804  -0.059  1.0689 -0.0291 -0.0530
 1005MOL0     C32540   7.809   1.689  -0.014 -0.1615 -0.3573  0.2330
 1005MOL0     C32541   7.668   1.740  -0.017 -0.3576  0.4889 -0.9972
 1005MOL0     C32542   7.575   1.620   0.031 -0.1696  0.4267 -0.4897
 1005MOL0     C32543   7.427   1.667   0.043  0.1097  0.2104 -0.4650
 1005MOL0     C32544   7.358   1.687  -0.098  0.3462  0.2122 -0.1065
 1005MOL0     N32545   7.218   1.744  -0.091 -0.3075 -0.1251 -0.5689
 1005MOL0     C32546   7.105   1.679  -0.052  0.5565  0.4925 -0.0281
 1005MOL0     C32547   7.003   1.765  -0.083  0.3988  0.1428 -0.0537
 1005MOL0     C32548   6.855   1.738  -0.052  0.4520 -0.6738  0.7138
 1005MOL0     C32549   6.794   1.622  -0.146 -0.0584  0.3720 -0.3488
 1005MOL0     C32550   6.756   1.689  -0.278  0.0268  1.5514 -0.1171
 1005MOL0     C32551   6.752   1.587  -0.395 -0.8737 -0.1556  0.1810
 1005MOL0     O32552   6.657   1.486  -0.382 -0.6463 -0.0038  0.4590
 1005MOL0     C32553   6.531   1.509  -0.402  0.6781 -0.5927  0.7002
 1005MOL0     C32554   6.474   1.623  -0.454  0.3283 -0.0618  0.1079
 1005MOL0     C32555   6.335   1.639  -0.485  0.0847  0.1776 -0.2561
 1005MOL0     C32556   6.248   1.536  -0.452  0.9432 -0.2039  1.0306
 1005MOL0     C32557   6.099   1.567  -0.468 -0.0213  0.1962 -0.4336
 1005MOL0     O32558   6.013   1.481  -0.400  0.0610  0.6722  0.4900
 1005MOL0     C32559   5.874   1.472  -0.411  0.4448  0.9011  0.0847
 1005MOL0     C32560   5.792   1.539  -0.510 -0.7363  0.2312  0.0063
 1005MOL0     C32561   5.659   1.513  -0.528  0.5509  0.3562 -0.2603
 1005MOL0     C32562   5.599   1.410  -0.447 -0.2284 -0.9081 -0.2251
 1005MOL0     O32563   5.466   1.378  -0.473 -0.1289 -0.0822  1.0289
 1005MOL0     C32564   5.445   1.242  -0.508 -0.6809  0.5767 -0.2668
 1005MOL0     C32565   5.300   1.222  -0.559 -0.3805  0.2010 -0.7176
 1005MOL0     C32566   5.264   1.281  -0.692 -0.3351  0.5208  0.5493
 1005MOL0     C32567   5.113   1.309  -0.693  0.0599  1.0579  0.3262
 1005MOL0     C32568   5.024   1.181  -0.692 -0.8786  0.2782  0.0445
 1005MOL0     C32569   5.067   1.071  -0.799 -0.7331 -1.3630 -0.3314
 1005MOL0     C32570   4.950   0.978  -0.839  0.8054  1.0983  0.9971
 1005MOL0     C32571   4.888   0.897  -0.727 -0.4987  0.1944 -0.3703
 1005MOL0    Cl32572   5.018   0.796  -0.643  0.4072  0.0132 -0.0648
 1005MOL0     C32573   5.674   1.352  -0.344 -0.3515 -0.6588 -0.1534
 1005MOL0     C32574   5.816   1.372  -0.328  0.9494 -0.2368  0.0840
 1005MOL0     O32575   6.067   1.660  -0.539  0.0997  0.1328 -0.4823
 1005MOL0     C32576   6.300   1.424  -0.390  1.1911 -0.1375 -0.9956
 1005MOL0     C32577   6.434   1.413  -0.364 -0.1560  0.2168  0.2648
 1005MOL0     N32578   7.061   1.884  -0.125  0.2276 -0.1535  0.0080
 1005MOL0     N32579   7.188   1.872  -0.139  0.2876  0.2153  0.0423
 1005MOL0     C32580   8.519   1.810  -0.092  0.5933 -0.7912 -0.0410
 1005MOL0     C32581   8.639   1.871  -0.110 -0.5681 -0.0096 -0.1224
 1005MOL0     C32582   8.983   2.134  -0.122 -0.7200  1.0852 -0.1493
 1005MOL0     C32583   9.070   2.160  -0.019  0.4242 -0.3479  0.0853
 1005MOL0     C32584   9.189   2.215  -0.047 -0.6529  0.1719 -0.4739
 1005MOL0     C32585   9.242   2.240  -0.176 -0.3440  0.1928 -0.2835
 1005MOL0     O32586   9.358   2.292  -0.214  0.0348  0.1678 -0.6996
 1005MOL0     C32587   9.449   2.304  -0.102 -0.9741  0.8407 -0.2400
 1005MOL0     C32588   9.599   2.327  -0.151  0.9013  0.4195  0.5201
 1005MOL0     C32589   9.688   2.315  -0.033 -0.5614  0.7032 -0.4914
 1005MOL0     C32590   9.839   2.335  -0.073  0.5875  0.2720  0.6525
 1005MOL0     C32591   9.888   2.232  -0.153 -1.1200  0.3910  0.5616
 1005MOL0     C32592   9.944   2.139  -0.206 -0.8542 -0.3583  0.0455
 1005MOL0     C32593   9.157   2.207  -0.280  0.5495  0.0590  0.0346
 1005MOL0     C32594   9.030   2.146  -0.254 -0.6710  0.7827  0.2282
 1005MOL0     H32595   8.549   2.185  -0.178 -0.9029  0.1316  0.6158
 1005MOL0     H32596   8.329   2.075  -0.168 -0.1856 -0.9925 -1.0487
 1005MOL0     H32597   8.113   1.906  -0.209 -1.6054 -0.9790  0.4749
 1005MOL0     H32598   8.157   1.965  -0.040 -4.2721  1.4677 -0.4945
 1005MOL0     H32599   8.062   1.771   0.063  0.1533  2.9581  0.6818
 1005MOL0     H32600   8.078   1.676  -0.084 -4.2422 -0.4549 -1.8981
 1005MOL0     H32601   7.882   1.810  -0.166  1.0811 -1.9012 -0.1883
 1005MOL0     H32602   7.873   1.898  -0.010 -0.6993 -1.6523  2.3046
 1005MOL0     H32603   7.827   1.604  -0.079  0.6530 -1.4450  1.8142
 1005MOL0     H32604   7.848   1.671   0.087  1.3439 -1.6813 -0.5616
 1005MOL0     H32605   7.629   1.787  -0.108 -1.9593  2.0781  0.4187
 1005MOL0     H32606   7.667   1.821   0.056  1.7193  1.4160 -1.9325
 1005MOL0     H32607   7.607   1.584   0.129 -1.9331 -0.3959 -0.1840
 1005MOL0     H32608   7.580   1.533  -0.034 -0.1269 -0.6157  0.8777
 1005MOL0     H32609   7.381   1.596   0.113  2.6349 -4.1261 -2.8242
 1005MOL0     H32610   7.429   1.760   0.101  1.2902 -0.7245  1.0723
 1005MOL0     H32611   7.355   1.589  -0.148 -0.6448  0.5509 -0.7377
 1005MOL0     H32612   7.422   1.755  -0.155 -1.6616  0.6250 -2.0107
 1005MOL0     H32613   7.096   1.577  -0.016  0.7913  0.4678 -0.0409
 1005MOL0     H32614   6.804   1.830  -0.082  3.1477  0.6905  0.0035
 1005MOL0     H32615   6.842   1.734   0.057  1.8371  1.0387  0.9875
 1005MOL0     H32616   6.706   1.578  -0.097  1.3857 -1.9459  0.3101
 1005MOL0     H32617   6.877   1.552  -0.146 -0.4183 -0.0702 -1.1440
 1005MOL0     H32618   6.656   1.729  -0.257 -1.5020 -1.3204 -1.2927
 1005MOL0     H32619   6.829   1.767  -0.300  0.6658  0.3327 -2.6287
 1005MOL0     H32620   6.850   1.542  -0.410 -1.3047 -0.4610 -2.2770
 1005MOL0     H32621   6.718   1.635  -0.488 -1.0037 -1.5096 -0.5051
 1005MOL0     H32622   6.534   1.710  -0.479  0.0167 -0.7853 -3.8259
 1005MOL0     H32623   6.291   1.725  -0.534  2.4854 -0.7373 -4.5457
 1005MOL0     H32624   5.838   1.616  -0.571  0.0112 -0.2378 -0.0318
 1005MOL0     H32625   5.606   1.556  -0.612 -1.9691 -2.3565 -0.2538
 1005MOL0     H32626   5.474   1.170  -0.430 -2.1659  0.3800  0.1436
 1005MOL0     H32627   5.514   1.212  -0.587 -1.0381 -0.7206 -0.1210
 1005MOL0     H32628   5.237   1.259  -0.478  1.2471 -1.5045  1.4414
 1005MOL0     H32629   5.282   1.115  -0.568 -0.1560  0.3152 -2.9956
 1005MOL0     H32630   5.289   1.215  -0.776  0.3291  0.0285  1.1304
 1005MOL0     H32631   5.323   1.373  -0.702 -0.5660  0.6334  0.1723
 1005MOL0     H32632   5.098   1.377  -0.609  2.8349  0.1387  1.6958
 1005MOL0     H32633   5.084   1.367  -0.781  1.2281  0.9787 -0.1262
 1005MOL0     H32634   4.928   1.220  -0.728 -0.2013  1.4155 -0.5883
 1005MOL0     H32635   5.017   1.154  -0.586 -3.6088  3.0099  0.6948
 1005MOL0     H32636   5.158   1.030  -0.755  0.2749  0.7464 -0.3219
 1005MOL0     H32637   5.095   1.123  -0.891 -1.1106  0.8011  0.7257
 1005MOL0     H32638   4.876   1.044  -0.885  0.1379 -1.4246 -1.8576
 1005MOL0     H32639   4.984   0.904  -0.912 -0.2850  1.1570  0.4133
 1005MOL0     H32640   4.814   0.824  -0.762  1.7617 -3.0058  0.9736
 1005MOL0     H32641   4.842   0.967  -0.658  0.6244 -0.9160  1.5914
 1005MOL0     H32642   5.621   1.276  -0.288 -2.3370  0.8145  0.0934
 1005MOL0     H32643   5.866   1.307  -0.258  1.3296 -0.5556 -0.4754
 1005MOL0     H32644   6.228   1.354  -0.348  2.4618 -0.0693  1.4748
 1005MOL0     H32645   6.467   1.325  -0.310  0.7673 -0.5933 -1.5164
 1005MOL0     H32646   8.514   1.708  -0.055  3.2695 -0.6791  0.8554
 1005MOL0     H32647   8.726   1.812  -0.085 -0.8561 -0.1966  0.4782
 1005MOL0     H32648   9.044   2.130   0.082 -0.8401 -0.9524 -0.3933
 1005MOL0     H32649   9.254   2.231   0.039  2.6028  0.6928 -2.8141
 1005MOL0     H32650   9.450   2.220  -0.033 -0.9954 -0.8685 -2.2130
 1005MOL0     H32651   9.416   2.386  -0.038  1.8157  3.1890 -1.5801
 1005MOL0     H32652   9.635   2.261  -0.231  0.0178 -1.2728  1.4500
 1005MOL0     H32653   9.612   2.429  -0.187 -0.3412  0.6787  0.7727
 1005MOL0     H32654   9.676   2.212   0.003  1.1282  1.3209  2.1712
 1005MOL0     H32655   9.654   2.376   0.052  0.9326  0.5855  0.2382
 1005MOL0     H32656   9.858   2.428  -0.126 -0.0535  0.4430  0.7082
 1005MOL0     H32657   9.897   2.336   0.020  0.4469  3.0452  0.7931
 1005MOL0     H32658   9.976   2.048  -0.254 -1.4485 -2.9171  4.0611
 1005MOL0     H32659   9.181   2.227  -0.384 -1.7589 -0.3045 -0.6350
 1005MOL0     H32660   8.974   2.102  -0.336 -1.1449  1.4358  0.2002
 1006MOL0     O32661   8.653   7.142   2.675 -0.1223  1.0224 -1.0101
 1006MOL0     C32662   8.682   7.026   2.714  0.1266  0.4699  0.4208
 1006MOL0     O32663   8.601   6.952   2.789 -0.6445  0.4140 -0.2323
 1006MOL0     C32664   8.482   6.999   2.834 -0.2939 -0.7059 -1.0291
 1006MOL0     C32665   8.477   7.111   2.923  0.5747  0.8184  0.6342
 1006MOL0     C32666   8.362   7.167   2.970 -0.3352 -0.5844  0.5780
 1006MOL0     C32667   8.240   7.111   2.919  0.4318  0.7007 -0.6582
 1006MOL0     O32668   8.115   7.161   2.942  0.4863 -0.4280  0.4016
 1006MOL0     C32669   8.118   7.306   2.987  0.0761  0.5088  1.1712
 1006MOL0     C32670   7.974   7.338   3.009  0.2528 -0.6414 -0.6381
 1006MOL0     C32671   7.979   7.463   3.108  0.9292 -0.0484  0.5827
 1006MOL0     C32672   7.997   7.605   3.043 -0.0490 -0.0055  0.6436
 1006MOL0     C32673   8.007   7.717   3.145 -0.6178 -0.7593  0.8028
 1006MOL0     C32674   7.878   7.748   3.216  0.7194 -0.8167 -0.3103
 1006MOL0     C32675   7.863   7.878   3.299  1.0224  0.7385 -0.4794
 1006MOL0     C32676   7.871   8.006   3.203  0.6882 -0.5260  0.3500
 1006MOL0     N32677   7.825   8.124   3.268  0.0466  0.5606 -0.2008
 1006MOL0     C32678   7.844   8.154   3.401  0.6936 -0.0778 -0.1092
 1006MOL0     C32679   7.796   8.279   3.415  0.2845 -0.0985 -0.1484
 1006MOL0     C32680   7.805   8.364   3.529  0.2810  0.0437  0.7790
 1006MOL0     C32681   7.667   8.392   3.596 -0.5561  0.2236 -0.7348
 1006MOL0     C32682   7.595   8.263   3.611 -0.8105  0.2942 -0.7069
 1006MOL0     C32683   7.469   8.271   3.701 -0.3215 -0.0017  0.6135
 1006MOL0     O32684   7.374   8.365   3.636  0.0902  0.1486  0.3286
 1006MOL0     C32685   7.247   8.378   3.692  0.3127 -0.8078 -0.1656
 1006MOL0     C32686   7.186   8.506   3.671 -0.6077  0.3086  0.3331
 1006MOL0     C32687   7.053   8.534   3.709 -0.1399 -0.2120 -0.4577
 1006MOL0     C32688   6.993   8.431   3.785  0.5294  0.0357 -0.6433
 1006MOL0     C32689   6.851   8.451   3.823 -0.3890 -0.1087 -0.4494
 1006MOL0     O32690   6.791   8.567   3.774  0.4301  0.0893 -0.3479
 1006MOL0     C32691   6.680   8.599   3.846 -0.2691 -1.1195 -0.3872
 1006MOL0     C32692   6.552   8.538   3.816 -1.2253 -0.5721  0.2630
 1006MOL0     C32693   6.445   8.569   3.899  1.1560 -0.3386  0.9830
 1006MOL0     C32694   6.454   8.647   4.014 -0.6073 -0.0583  0.0775
 1006MOL0     O32695   6.335   8.677   4.083 -0.1783  0.3127 -0.0661
 1006MOL0     C32696   6.351   8.745   4.204  0.5732 -0.0332  0.9799
 1006MOL0     C32697   6.203   8.771   4.256  0.9129  0.3283 -0.1320
 1006MOL0     C32698   6.129   8.641   4.290 -0.4889 -1.1161 -1.1405
 1006MOL0     C32699   5.979   8.658   4.282  0.2650 -0.2756 -0.2531
 1006MOL0     C32700   5.911   8.537   4.343  0.2064 -0.0382 -0.3099
 1006MOL0     C32701   5.762   8.545   4.330  0.1071 -0.0429 -0.6705
 1006MOL0     C32702   5.684   8.411   4.325  0.1832  0.0746  0.4603
 1006MOL0     C32703   5.542   8.429   4.278  0.2432  0.9637 -0.4940
 1006MOL0    Cl32704   5.460   8.277   4.288  0.1389 -0.2075  0.5189
 1006MOL0     C32705   6.579   8.700   4.042 -0.2004 -0.9398  0.6679
 1006MOL0     C32706   6.687   8.686   3.955 -0.0831 -0.0571  0.4598
 1006MOL0     O32707   6.807   8.379   3.907  0.0907  0.3211  0.5953
 1006MOL0     C32708   7.059   8.314   3.823 -0.0538  1.3371 -0.2143
 1006MOL0     C32709   7.182   8.280   3.770 -0.3028 -0.5727 -0.3246
 1006MOL0     N32710   7.730   8.316   3.293  0.7039 -0.2445  0.7967
 1006MOL0     N32711   7.748   8.224   3.207 -0.9846  0.3770 -0.4915
 1006MOL0     C32712   8.240   7.007   2.823 -0.3616  0.0838 -0.2111
 1006MOL0     C32713   8.357   6.954   2.781 -0.6209 -0.3672  0.4453
 1006MOL0     C32714   8.823   6.980   2.703 -0.3972 -0.0019 -0.0539
 1006MOL0     C32715   8.915   7.043   2.616 -0.0513 -0.0422 -0.6084
 1006MOL0     C32716   9.046   7.009   2.606 -0.4721 -0.2698  0.3941
 1006MOL0     C32717   9.101   6.899   2.681  0.5406 -0.6039 -0.3013
 1006MOL0     O32718   9.228   6.865   2.672  0.6229 -0.1147 -0.0941
 1006MOL0     C32719   9.315   6.873   2.555 -0.0547 -0.7614 -0.1868
 1006MOL0     C32720   9.425   6.774   2.566 -0.8100  0.4879  0.1574
 1006MOL0     C32721   9.522   6.805   2.680 -0.2717 -0.0158  0.7378
 1006MOL0     C32722   9.652   6.726   2.680 -0.1167  0.5770 -0.1489
 1006MOL0     C32723   9.741   6.752   2.567 -0.5003  0.3551  0.8827
 1006MOL0     C32724   9.816   6.775   2.473  0.8957 -0.3152  0.8158
 1006MOL0     C32725   9.012   6.832   2.762 -0.5663 -0.2906 -0.8641
 1006MOL0     C32726   8.877   6.872   2.781 -0.4996 -0.0051  0.2024
 1006MOL0     H32727   8.571   7.155   2.955  0.2063  1.9497  0.2210
 1006MOL0     H32728   8.362   7.258   3.029 -4.6719 -0.2901  0.4375
 1006MOL0     H32729   8.143   7.374   2.904 -2.4839  0.5511  0.3503
 1006MOL0     H32730   8.186   7.317   3.072  2.9657 -1.3809 -0.7022
 1006MOL0     H32731   7.932   7.245   3.049  0.3901 -0.4296  0.0063
 1006MOL0     H32732   7.924   7.370   2.917 -0.7721  2.4457  0.8347
 1006MOL0     H32733   8.051   7.445   3.189  1.3092  2.7886  0.9750
 1006MOL0     H32734   7.874   7.474   3.140 -0.2871  0.5216 -3.1572
 1006MOL0     H32735   8.088   7.600   2.982 -1.7610  2.4954 -2.4639
 1006MOL0     H32736   7.908   7.617   2.980  0.3028 -0.3128  0.0775
 1006MOL0     H32737   8.018   7.802   3.077  0.6272 -1.9992 -0.6151
 1006MOL0     H32738   8.091   7.702   3.214 -1.0111  0.7867  1.6717
 1006MOL0     H32739   7.845   7.673   3.288 -1.0885  1.3100  1.2314
 1006MOL0     H32740   7.801   7.754   3.139  0.2739 -0.3004  0.1622
 1006MOL0     H32741   7.768   7.876   3.353  1.3284  1.0169  0.0904
 1006MOL0     H32742   7.941   7.884   3.376  0.5119 -0.7792  0.1877
 1006MOL0     H32743   7.807   8.007   3.114  2.1201 -0.2339 -0.7036
 1006MOL0     H32744   7.973   8.023   3.170 -0.4159  0.3363 -3.0558
 1006MOL0     H32745   7.896   8.090   3.471 -0.7517 -0.6491  0.4659
 1006MOL0     H32746   7.868   8.453   3.515 -0.6390  0.6709  0.5344
 1006MOL0     H32747   7.855   8.309   3.609 -2.4123  2.1109  4.1801
 1006MOL0     H32748   7.616   8.458   3.525 -3.5931 -0.8304  0.2910
 1006MOL0     H32749   7.674   8.447   3.691  0.7932 -0.0800 -0.6412
 1006MOL0     H32750   7.557   8.225   3.516 -2.3887  3.1295 -1.2969
 1006MOL0     H32751   7.661   8.181   3.641 -3.3960 -1.5796  0.1873
 1006MOL0     H32752   7.500   8.303   3.802 -1.2749  2.4815  0.1892
 1006MOL0     H32753   7.419   8.174   3.706 -1.6924  0.5861 -0.9220
 1006MOL0     H32754   7.234   8.574   3.601  0.1678 -0.5799 -0.0160
 1006MOL0     H32755   7.010   8.632   3.691 -0.7366  0.0720  2.1195
 1006MOL0     H32756   6.542   8.468   3.734 -0.2800  0.5916 -0.8926
 1006MOL0     H32757   6.351   8.530   3.863  0.7038 -0.4721  2.2418
 1006MOL0     H32758   6.381   8.850   4.194  0.1448 -0.1087 -2.6185
 1006MOL0     H32759   6.420   8.688   4.266  0.0611 -1.6116  0.1696
 1006MOL0     H32760   6.147   8.825   4.179  2.7832  0.4814 -1.4599
 1006MOL0     H32761   6.219   8.820   4.352 -2.6439 -1.0154  1.3278
 1006MOL0     H32762   6.167   8.612   4.388 -0.4791  0.2853 -0.6996
 1006MOL0     H32763   6.153   8.564   4.216 -4.9006 -0.4961 -3.5670
 1006MOL0     H32764   5.949   8.747   4.338  0.2385  1.4448 -2.7896
 1006MOL0     H32765   5.956   8.666   4.175 -2.6212 -0.4588  0.2767
 1006MOL0     H32766   5.935   8.531   4.449 -1.4441  1.2490  0.1724
 1006MOL0     H32767   5.955   8.449   4.294  1.1904  0.7486 -0.8843
 1006MOL0     H32768   5.736   8.601   4.240 -1.2346 -1.8311 -1.4650
 1006MOL0     H32769   5.731   8.598   4.421  1.1267 -1.1483  0.3590
 1006MOL0     H32770   5.727   8.337   4.257 -0.2329 -1.6108  1.9547
 1006MOL0     H32771   5.685   8.371   4.427 -0.9062  0.3267  0.5886
 1006MOL0     H32772   5.550   8.462   4.174  0.8752 -1.7919 -1.3889
 1006MOL0     H32773   5.494   8.511   4.332  2.8365  1.5501  1.0954
 1006MOL0     H32774   6.600   8.765   4.126  2.1135  0.5165 -0.9115
 1006MOL0     H32775   6.782   8.738   3.969  0.4000 -1.0240  0.9351
 1006MOL0     H32776   7.001   8.240   3.877 -1.3586  0.6371 -2.4453
 1006MOL0     H32777   7.232   8.189   3.802  0.4216  0.2930  1.0912
 1006MOL0     H32778   8.151   6.960   2.784 -1.1951  3.4717 -2.9270
 1006MOL0     H32779   8.351   6.864   2.719  3.1176 -1.9601  2.1291
 1006MOL0     H32780   8.871   7.122   2.555 -0.3153  0.3389  0.0668
 1006MOL0     H32781   9.109   7.069   2.540 -2.6207  1.4652 -0.2061
 1006MOL0     H32782   9.361   6.973   2.558 -0.5408 -0.5270 -0.4896
 1006MOL0     H32783   9.262   6.852   2.462  2.3486  1.4675 -2.2203
 1006MOL0     H32784   9.394   6.670   2.581 -0.2480  0.2319 -0.3894
 1006MOL0     H32785   9.477   6.786   2.470 -0.1923  1.1570  0.5691
 1006MOL0     H32786   9.473   6.785   2.776  0.4609  2.0721  1.6101
 1006MOL0     H32787   9.550   6.911   2.680  0.9767 -0.3341  0.5182
 1006MOL0     H32788   9.701   6.766   2.769  1.1602  0.4876 -0.7809
 1006MOL0     H32789   9.637   6.619   2.694 -1.9596  0.9849  1.3802
 1006MOL0     H32790   9.883   6.793   2.391 -1.2397 -0.8084 -1.1388
 1006MOL0     H32791   9.043   6.750   2.826 -0.8257  0.0448 -0.3021
 1006MOL0     H32792   8.813   6.824   2.854 -3.6267  2.9895 -0.3182
 1007MOL0     O32793   8.060  10.545  10.376 -0.1465  0.2235  0.1931
 1007MOL0     C32794   8.083  10.602  10.270 -0.6216 -0.2576 -0.1736
 1007MOL0     O32795   8.191  10.579  10.181  0.4823  0.8105 -0.4813
 1007MOL0     C32796   8.275  10.477  10.229 -0.0622  0.0616 -0.0942
 1007MOL0     C32797   8.402  10.518  10.273  0.2114 -1.0934 -0.5441
 1007MOL0     C32798   8.493  10.428  10.326 -0.8391 -0.5582  0.3149
 1007MOL0     C32799   8.466  10.293  10.342  1.0973  0.0853 -0.1480
 1007MOL0     O32800   8.565  10.205  10.383  0.1744  0.0877  0.3041
 1007MOL0     C32801   8.531  10.085  10.458  0.1883  0.5123 -0.2593
 1007MOL0     C32802   8.649   9.989  10.488 -0.9841 -0.5974 -1.0420
 1007MOL0     C32803   8.747   9.957  10.376  0.4075 -0.0700 -0.1988
 1007MOL0     C32804   8.881   9.891  10.398  0.2140  0.1572 -1.0939
 1007MOL0     C32805   8.977   9.900  10.280  0.2158  0.4606 -0.0580
 1007MOL0     C32806   9.118   9.883  10.331 -0.0931  0.2903 -0.2854
 1007MOL0     C32807   9.151   9.744  10.406 -0.3120  0.0122 -0.2361
 1007MOL0     C32808   9.305   9.714  10.431  0.0171  0.7322 -0.1992
 1007MOL0     N32809   9.350   9.771  10.566 -0.2336 -0.1826  0.2476
 1007MOL0     C32810   9.372   9.716  10.689  0.3450 -0.2848  0.1738
 1007MOL0     C32811   9.395   9.819  10.772 -0.0617 -0.9438 -0.7119
 1007MOL0     C32812   9.423   9.809  10.928 -0.1084 -0.1148  0.2402
 1007MOL0     C32813   9.512   9.699  10.984 -0.1440 -0.2349 -0.5528
 1007MOL0     C32814   9.418   9.576  11.015 -0.3384  0.2725 -0.7586
 1007MOL0     C32815   9.419   9.527  11.164  0.2635 -0.0871 -0.4895
 1007MOL0     O32816   9.400   9.639  11.253  0.1343 -0.2279  0.1729
 1007MOL0     C32817   9.275   9.685  11.265 -0.0653 -0.1018 -0.1544
 1007MOL0     C32818   9.158   9.617  11.217  0.4987  0.9786 -0.4325
 1007MOL0     C32819   9.033   9.659  11.254  0.5293 -0.6942 -0.0012
 1007MOL0     C32820   9.014   9.782  11.328  0.1552  0.8640 -0.3699
 1007MOL0     C32821   8.885   9.837  11.364  0.0041  0.1830 -0.7759
 1007MOL0     O32822   8.791   9.748  11.364 -0.3134  0.2474  0.3436
 1007MOL0     C32823   8.660   9.785  11.385 -0.6367  0.0315  0.3966
 1007MOL0     C32824   8.593   9.669  11.411 -0.1027  0.0851 -0.6123
 1007MOL0     C32825   8.463   9.680  11.449  0.6664  0.2551  0.8131
 1007MOL0     C32826   8.393   9.802  11.460  0.2126 -0.2452 -0.2415
 1007MOL0     O32827   8.268   9.824  11.515 -0.5375  0.1067 -0.1420
 1007MOL0     C32828   8.217   9.718  11.597  1.0744  0.2354 -0.6750
 1007MOL0     C32829   8.068   9.755  11.636 -0.3060 -0.9634  0.4470
 1007MOL0     C32830   7.973   9.785  11.523  0.3986  0.2586  0.0042
 1007MOL0     C32831   7.826   9.773  11.578  0.9423 -1.2951  0.3305
 1007MOL0     C32832   7.712   9.762  11.462  0.2075 -0.3041 -0.1901
 1007MOL0     C32833   7.685   9.902  11.410 -1.0623 -1.0721  0.0457
 1007MOL0     C32834   7.550   9.900  11.335 -0.3179  0.4492 -0.5498
 1007MOL0     C32835   7.552   9.837  11.198 -0.3716 -0.1642  0.6169
 1007MOL0    Cl32836   7.383   9.846  11.142 -0.5237 -0.0715 -0.3672
 1007MOL0     C32837   8.462   9.914  11.420  0.0186  0.0443 -0.1229
 1007MOL0     C32838   8.599   9.908  11.381  0.2743  0.3725  0.0833
 1007MOL0     O32839   8.886   9.949  11.423  0.1749  0.3471 -0.0289
 1007MOL0     C32840   9.131   9.862  11.341  0.1408 -0.0572  0.6341
 1007MOL0     C32841   9.254   9.815  11.306 -0.3376  0.0052  0.3422
 1007MOL0     N32842   9.389   9.942  10.702 -0.0722 -0.5009  0.4208
 1007MOL0     N32843   9.358   9.908  10.578 -0.0298  0.5161 -0.9644
 1007MOL0     C32844   8.342  10.249  10.291 -0.4067 -0.1044 -0.3582
 1007MOL0     C32845   8.244  10.346  10.241  0.1336 -0.1480 -0.2586
 1007MOL0     C32846   7.980  10.687  10.224  0.4875 -0.0042 -0.1576
 1007MOL0     C32847   7.878  10.729  10.311 -0.2527 -0.3286 -0.0604
 1007MOL0     C32848   7.770  10.793  10.256  0.8243 -0.6734 -0.6113
 1007MOL0     C32849   7.757  10.825  10.118  0.3608 -0.4621 -0.1174
 1007MOL0     O32850   7.651  10.893  10.060 -0.9862 -0.3885 -0.5779
 1007MOL0     C32851   7.537  10.920  10.141  0.4412  0.1731 -0.2134
 1007MOL0     C32852   7.446  11.024  10.084 -0.5615 -0.0570  1.5393
 1007MOL0     C32853   7.359  10.962   9.977  0.7851  0.5234  0.8342
 1007MOL0     C32854   7.231  11.041   9.933  0.2493  0.2424  0.3171
 1007MOL0     C32855   7.278  11.159   9.860  0.2773  0.8095  0.2741
 1007MOL0     C32856   7.317  11.261   9.807 -0.0444  0.0845  0.2597
 1007MOL0     C32857   7.860  10.792  10.035 -0.3787  0.4238  1.0026
 1007MOL0     C32858   7.968  10.722  10.085 -0.4608 -0.0288 -0.0944
 1007MOL0     H32859   8.427  10.622  10.258 -1.7860 -0.8136 -2.3475
 1007MOL0     H32860   8.590  10.458  10.366 -1.7886  1.6030  1.1503
 1007MOL0     H32861   8.465  10.020  10.400  3.0787 -1.3055 -1.7717
 1007MOL0     H32862   8.477  10.101  10.552 -2.3160 -0.7743 -1.3698
 1007MOL0     H32863   8.603   9.892  10.512 -0.8858 -0.3033  0.3917
 1007MOL0     H32864   8.700  10.028  10.576  2.6637  0.3878 -3.3895
 1007MOL0     H32865   8.767  10.047  10.317  2.6961 -1.1802 -1.2301
 1007MOL0     H32866   8.695   9.891  10.307  1.0115 -0.4333 -0.3164
 1007MOL0     H32867   8.930   9.942  10.481 -0.4135 -0.8163 -0.0803
 1007MOL0     H32868   8.870   9.793  10.445 -1.3252  2.1223  3.0747
 1007MOL0     H32869   8.966  10.001  10.241 -1.1099  0.5415  0.4938
 1007MOL0     H32870   8.945   9.824  10.208 -0.4268 -1.0131  1.7065
 1007MOL0     H32871   9.148   9.964  10.398  0.6351  2.4833 -3.0460
 1007MOL0     H32872   9.174   9.894  10.238 -1.8725  1.4582 -1.2736
 1007MOL0     H32873   9.104   9.743  10.505  3.5040  3.4791  1.9196
 1007MOL0     H32874   9.112   9.669  10.336 -2.9939 -0.4828  1.6202
 1007MOL0     H32875   9.361   9.768  10.355  1.6256 -2.3536 -1.3915
 1007MOL0     H32876   9.331   9.608  10.425 -1.3255  0.1854  2.3302
 1007MOL0     H32877   9.362   9.611  10.718 -0.5543 -0.4887 -0.8198
 1007MOL0     H32878   9.325   9.801  10.977 -1.4641 -0.0155 -2.2868
 1007MOL0     H32879   9.447   9.908  10.969 -0.5742  0.6900 -1.3368
 1007MOL0     H32880   9.551   9.741  11.077 -1.9243 -2.4613  1.3083
 1007MOL0     H32881   9.589   9.682  10.908  0.7912  2.2005 -0.2560
 1007MOL0     H32882   9.314   9.590  10.988 -0.4025  2.1857  0.3194
 1007MOL0     H32883   9.462   9.491  10.962 -2.4287 -1.2224 -0.2150
 1007MOL0     H32884   9.520   9.489  11.181  0.0343 -0.0626  1.0983
 1007MOL0     H32885   9.348   9.446  11.184  0.0498 -0.0251 -1.0094
 1007MOL0     H32886   9.167   9.522  11.164  2.5338  0.4362  0.7733
 1007MOL0     H32887   8.945   9.597  11.235  1.3822 -1.7978 -0.4946
 1007MOL0     H32888   8.642   9.574  11.428 -1.1015 -0.3535 -0.0635
 1007MOL0     H32889   8.405   9.594  11.478 -4.0841  2.6990 -0.4278
 1007MOL0     H32890   8.269   9.724  11.694 -2.1736  1.9296  1.1478
 1007MOL0     H32891   8.205   9.618  11.556 -0.0359 -0.4666  1.2405
 1007MOL0     H32892   8.067   9.847  11.696  0.7932 -1.8943  1.9418
 1007MOL0     H32893   8.024   9.675  11.695 -1.5925 -1.0499 -0.5677
 1007MOL0     H32894   7.988   9.696  11.462 -0.2225 -2.4480  3.4386
 1007MOL0     H32895   7.982   9.876  11.463 -2.4058  0.4095 -0.3070
 1007MOL0     H32896   7.825   9.682  11.638  1.4968 -0.1840  2.1166
 1007MOL0     H32897   7.797   9.852  11.648 -1.1263 -1.3878 -0.3509
 1007MOL0     H32898   7.626   9.716  11.512 -1.0480  0.7973 -1.2659
 1007MOL0     H32899   7.750   9.696  11.383 -0.0262 -1.7135  0.8385
 1007MOL0     H32900   7.765   9.926  11.339 -0.3029 -4.4251 -0.4516
 1007MOL0     H32901   7.689   9.979  11.487 -2.6642  0.7535 -1.5983
 1007MOL0     H32902   7.464   9.860  11.390  1.0490 -2.3833 -0.2896
 1007MOL0     H32903   7.520  10.002  11.310  0.6024  0.7703 -0.4067
 1007MOL0     H32904   7.579   9.732  11.211  0.6901 -0.5806 -3.6329
 1007MOL0     H32905   7.620   9.882  11.126 -1.7951  1.6953  0.3497
 1007MOL0     H32906   8.405  10.005  11.436 -1.6202 -1.3787  2.7228
 1007MOL0     H32907   8.659   9.994  11.353 -1.3460  2.0229  1.4488
 1007MOL0     H32908   9.121   9.968  11.365  0.5216  0.1209  0.0173
 1007MOL0     H32909   9.339   9.881  11.315 -0.9088  0.8812 -0.4662
 1007MOL0     H32910   8.319  10.145  10.315 -1.1148  0.1325  0.0176
 1007MOL0     H32911   8.146  10.308  10.215 -1.0491  2.5150  0.0246
 1007MOL0     H32912   7.875  10.705  10.417 -1.0266  1.0467  0.2621
 1007MOL0     H32913   7.687  10.811  10.323 -1.1980 -2.3370 -2.4933
 1007MOL0     H32914   7.562  10.964  10.238 -1.1513 -2.7339  1.6643
 1007MOL0     H32915   7.481  10.832  10.173 -0.0482  0.8288  0.7629
 1007MOL0     H32916   7.392  11.093  10.148  2.5167  3.7478  0.3856
 1007MOL0     H32917   7.520  11.084  10.030 -1.4887 -1.2603 -1.2873
 1007MOL0     H32918   7.328  10.866  10.019  1.1090 -0.8411 -1.8370
 1007MOL0     H32919   7.406  10.942   9.880  0.0184  3.3567 -0.2167
 1007MOL0     H32920   7.162  10.976   9.879 -0.2199 -1.0274  2.3304
 1007MOL0     H32921   7.177  11.073  10.023 -1.5854 -1.5519 -0.0869
 1007MOL0     H32922   7.364  11.348   9.767  0.3788  0.6197  1.8445
 1007MOL0     H32923   7.858  10.821   9.931  1.9030 -1.4965  0.3430
 1007MOL0     H32924   8.056  10.697  10.025  0.3096 -0.8182  1.3045
 1008MOL0     O32925   6.724  10.856   8.953  0.4001 -0.2359 -0.1719
 1008MOL0     C32926   6.691  10.781   9.044  0.1432  0.0484  0.9788
 1008MOL0     O32927   6.569  10.738   9.064 -0.8574 -0.0739 -0.0524
 1008MOL0     C32928   6.465  10.746   8.976 -0.3315  0.4104 -0.1572
 1008MOL0     C32929   6.445  10.846   8.873  0.1044 -0.8595 -0.7273
 1008MOL0     C32930   6.326  10.859   8.806 -0.1303  0.5100  0.5300
 1008MOL0     C32931   6.221  10.761   8.815 -0.5674 -0.7590 -0.7866
 1008MOL0     O32932   6.119  10.766   8.723  0.2104 -0.2406 -0.0461
 1008MOL0     C32933   6.000  10.840   8.762  0.2005 -0.1414 -0.2240
 1008MOL0     C32934   5.918  10.756   8.867  0.5822  0.6566 -1.0962
 1008MOL0     C32935   5.872  10.615   8.821  0.7192  0.5750  0.4978
 1008MOL0     C32936   5.767  10.557   8.915  0.1344  0.3916  0.5189
 1008MOL0     C32937   5.688  10.451   8.842  0.1714  0.0123 -0.1935
 1008MOL0     C32938   5.583  10.389   8.941  0.2519  0.2106  0.5734
 1008MOL0     C32939   5.524  10.257   8.896 -0.0229  0.1736  0.3029
 1008MOL0     C32940   5.444  10.257   8.764 -0.5142  0.4579 -1.5466
 1008MOL0     N32941   5.326  10.345   8.784  0.5307 -0.5750  0.3921
 1008MOL0     C32942   5.288  10.440   8.693 -0.4789 -0.0493 -0.2039
 1008MOL0     C32943   5.172  10.488   8.739 -1.2334  0.6679  1.0165
 1008MOL0     C32944   5.103  10.618   8.692 -0.2852 -0.0675  0.4469
 1008MOL0     C32945   4.990  10.589   8.597 -0.0250 -0.0880  0.4842
 1008MOL0     C32946   4.896  10.711   8.589  0.2883  0.7924  0.8932
 1008MOL0     C32947   4.768  10.690   8.509 -0.1305  0.2814 -0.0257
 1008MOL0     O32948   4.692  10.810   8.533  0.0291 -0.1155 -0.0753
 1008MOL0     C32949   4.567  10.813   8.472  0.3089  0.1104 -0.5159
 1008MOL0     C32950   4.489  10.927   8.512  0.4488  0.6784  0.8032
 1008MOL0     C32951   4.365  10.948   8.448 -0.3099 -0.4468 -0.6000
 1008MOL0     C32952   4.312  10.852   8.367 -0.3519  0.1820  0.1555
 1008MOL0     C32953   4.188  10.880   8.294  0.8816 -0.4868 -0.6052
 1008MOL0     O32954   4.151  11.013   8.289 -0.0965  0.1828 -0.6532
 1008MOL0     C32955   4.025  11.063   8.251 -0.5592  0.4997 -0.5628
 1008MOL0     C32956   4.026  11.198   8.243 -0.6843 -0.3022 -0.5285
 1008MOL0     C32957   3.904  11.278   8.218  0.9434  0.5828  1.2303
 1008MOL0     C32958   3.777  11.208   8.213  0.6299 -0.1413 -0.9261
 1008MOL0     O32959   3.670  11.285   8.191  0.4574 -0.1883  0.2366
 1008MOL0     C32960   3.549  11.236   8.237  0.5326 -0.0491 -0.0706
 1008MOL0     C32961   3.434  11.306   8.163  0.0648  0.0352  0.4520
 1008MOL0     C32962   3.305  11.285   8.237  0.4915 -0.0009 -0.7270
 1008MOL0     C32963   3.196  11.373   8.176 -0.6682  0.1816 -0.7862
 1008MOL0     C32964   3.057  11.330   8.224  0.7363  0.0510 -0.2578
 1008MOL0     C32965   2.950  11.412   8.147 -0.0642 -0.6767  0.9099
 1008MOL0     C32966   2.813  11.384   8.196  0.3795 -0.1996 -0.0243
 1008MOL0     C32967   2.719  11.477   8.117 -0.0189 -0.2106 -0.1097
 1008MOL0    Cl32968   2.767  11.647   8.157  0.5075 -0.7527  0.1905
 1008MOL0     C32969   3.782  11.067   8.220  1.4278  0.0792  1.2692
 1008MOL0     C32970   3.907  10.995   8.230  0.1759  1.0254  0.0760
 1008MOL0     O32971   4.121  10.791   8.249 -0.1974 -0.0187 -0.8702
 1008MOL0     C32972   4.384  10.734   8.340 -0.4437 -0.1307 -0.3162
 1008MOL0     C32973   4.516  10.712   8.381  0.4598 -0.5035  0.6903
 1008MOL0     N32974   5.129  10.402   8.834  0.2248 -0.6451  1.0198
 1008MOL0     N32975   5.224  10.321   8.866  0.9385 -0.0173  0.7402
 1008MOL0     C32976   6.238  10.662   8.916 -0.9098 -0.0008  0.6842
 1008MOL0     C32977   6.357  10.648   8.991  0.6847  0.0273 -0.3103
 1008MOL0     C32978   6.789  10.757   9.154 -0.2147  0.3651 -1.1919
 1008MOL0     C32979   6.918  10.817   9.159  0.3912 -1.2826  0.8778
 1008MOL0     C32980   6.998  10.804   9.265 -0.0980  0.4750  0.5914
 1008MOL0     C32981   6.957  10.731   9.375 -0.6432  0.4907  0.0481
 1008MOL0     O32982   7.052  10.723   9.470  0.2121 -0.0065  0.6787
 1008MOL0     C32983   7.067  10.599   9.544 -0.9768 -0.0631  0.8892
 1008MOL0     C32984   7.088  10.626   9.692  0.1813  0.9181 -0.3858
 1008MOL0     C32985   7.220  10.692   9.731  0.4244 -0.0767  1.1674
 1008MOL0     C32986   7.326  10.587   9.704  0.1035  0.2328  0.1611
 1008MOL0     C32987   7.449  10.639   9.766  0.4630  0.5898  0.7441
 1008MOL0     C32988   7.557  10.668   9.817 -0.3009  0.5346  0.4883
 1008MOL0     C32989   6.838  10.665   9.376 -0.0663  1.0369 -0.2211
 1008MOL0     C32990   6.752  10.679   9.270 -0.1030  0.2135 -0.0984
 1008MOL0     H32991   6.518  10.922   8.851  0.2590 -0.5100  0.8789
 1008MOL0     H32992   6.326  10.947   8.742 -0.2776  0.7541  0.8599
 1008MOL0     H32993   5.937  10.857   8.674  2.3009 -1.9895 -2.2205
 1008MOL0     H32994   6.024  10.936   8.808  2.0770 -1.5950  2.1057
 1008MOL0     H32995   5.830  10.812   8.898  1.3655  1.0965  0.4710
 1008MOL0     H32996   5.969  10.744   8.963  2.7139 -2.2964 -2.4493
 1008MOL0     H32997   5.949  10.537   8.821 -1.7003 -1.9694 -0.4275
 1008MOL0     H32998   5.831  10.619   8.720  1.9265 -0.0639 -0.0391
 1008MOL0     H32999   5.813  10.514   9.005  3.9405  0.4330 -1.2060
 1008MOL0     H33000   5.712  10.646   8.947  0.4295  1.4205 -1.6661
 1008MOL0     H33001   5.752  10.364   8.824 -0.9073 -1.0510  0.9093
 1008MOL0     H33002   5.632  10.485   8.755 -3.0683 -1.1629  1.2695
 1008MOL0     H33003   5.502  10.462   8.936  2.1425  2.3667 -3.2527
 1008MOL0     H33004   5.614  10.377   9.046  0.2754 -0.4185  0.4934
 1008MOL0     H33005   5.603  10.182   8.885 -0.8502 -0.6001 -0.5344
 1008MOL0     H33006   5.459  10.217   8.975  1.3279 -1.0203  0.8563
 1008MOL0     H33007   5.413  10.153   8.752  0.3240  0.1167 -0.8953
 1008MOL0     H33008   5.512  10.288   8.684 -0.8069  0.4466 -1.8035
 1008MOL0     H33009   5.359  10.457   8.613  0.3549 -1.7845  0.1072
 1008MOL0     H33010   5.176  10.679   8.637  2.8141 -3.5959  0.2285
 1008MOL0     H33011   5.064  10.664   8.783 -1.1953 -1.8635  1.0124
 1008MOL0     H33012   4.928  10.511   8.642  0.7173 -0.8426  0.2274
 1008MOL0     H33013   5.024  10.558   8.498  1.3088  2.3198  0.1077
 1008MOL0     H33014   4.857  10.733   8.689 -1.0725  2.8066  0.0026
 1008MOL0     H33015   4.956  10.790   8.541 -0.7785  2.4395  2.1781
 1008MOL0     H33016   4.725  10.594   8.540 -0.3187 -0.3543 -2.0959
 1008MOL0     H33017   4.791  10.682   8.402  0.6121  1.6126  0.0180
 1008MOL0     H33018   4.527  10.992   8.590 -0.8064 -0.7247  2.7057
 1008MOL0     H33019   4.318  11.035   8.494  0.8041  0.0193 -0.3050
 1008MOL0     H33020   4.111  11.265   8.253 -0.3242 -0.6445 -1.2012
 1008MOL0     H33021   3.903  11.387   8.218  1.2073  0.6111 -0.0080
 1008MOL0     H33022   3.544  11.257   8.344 -0.4706 -0.7117  0.0204
 1008MOL0     H33023   3.535  11.132   8.205  0.6636 -0.0350 -0.1748
 1008MOL0     H33024   3.425  11.261   8.064  1.1795 -0.1373  0.4184
 1008MOL0     H33025   3.452  11.413   8.148 -3.4596  0.9013  1.4577
 1008MOL0     H33026   3.327  11.314   8.340 -0.3105 -1.7305 -0.0257
 1008MOL0     H33027   3.286  11.177   8.243 -0.7154  0.2445  0.3606
 1008MOL0     H33028   3.220  11.478   8.195  1.2962 -0.3325 -0.1525
 1008MOL0     H33029   3.197  11.356   8.068  1.1121 -0.2434 -0.7319
 1008MOL0     H33030   3.037  11.339   8.331  1.3428  0.6552 -0.1855
 1008MOL0     H33031   3.055  11.221   8.211  1.0771 -0.1394  1.1357
 1008MOL0     H33032   2.950  11.402   8.038 -1.1319  2.1873  0.5671
 1008MOL0     H33033   2.972  11.516   8.171 -0.9598 -0.2753  0.0738
 1008MOL0     H33034   2.775  11.286   8.167  1.6115 -0.0521 -2.4713
 1008MOL0     H33035   2.811  11.397   8.304  1.2207 -2.0791  0.2449
 1008MOL0     H33036   2.612  11.470   8.141 -0.7796  1.3595 -2.6697
 1008MOL0     H33037   2.723  11.458   8.010 -0.0326 -1.8450  0.1495
 1008MOL0     H33038   3.695  11.003   8.209  0.6494  1.5620 -2.9974
 1008MOL0     H33039   3.889  10.889   8.216  1.5712  0.6478  0.8821
 1008MOL0     H33040   4.334  10.662   8.276 -2.1854  0.6002  0.1571
 1008MOL0     H33041   4.564  10.621   8.346 -1.1563 -0.5583 -1.6550
 1008MOL0     H33042   6.172  10.576   8.910  1.9504 -2.3100 -3.2745
 1008MOL0     H33043   6.362  10.554   9.045 -1.7660 -1.5289 -2.4782
 1008MOL0     H33044   6.960  10.855   9.067 -1.5430 -2.1072 -0.4371
 1008MOL0     H33045   7.098  10.844   9.266 -0.0721  0.4693  2.9860
 1008MOL0     H33046   7.146  10.550   9.487  0.0135  2.9034 -0.5155
 1008MOL0     H33047   6.980  10.533   9.544 -1.5383  0.6643  0.8150
 1008MOL0     H33048   7.000  10.686   9.717 -0.0715 -0.1954  1.6075
 1008MOL0     H33049   7.079  10.526   9.735 -3.4904  0.6461 -1.4444
 1008MOL0     H33050   7.204  10.715   9.836  0.1056  2.2783  0.6587
 1008MOL0     H33051   7.237  10.776   9.662 -2.1453 -0.2590  0.1810
 1008MOL0     H33052   7.308  10.492   9.755  4.1764  0.2693  2.0702
 1008MOL0     H33053   7.335  10.577   9.595 -0.6475  2.6624 -0.2096
 1008MOL0     H33054   7.644  10.694   9.874  0.2711 -0.3614  0.0522
 1008MOL0     H33055   6.805  10.607   9.461  3.7710  1.9376  2.0985
 1008MOL0     H33056   6.650  10.645   9.258 -0.1577  0.6634 -1.0371
 1009MOL0     O33057   0.414   1.073   3.438  0.0805  0.2341  1.3469
 1009MOL0     C33058   0.368   1.182   3.470  0.5987  0.3108  0.7382
 1009MOL0     O33059   0.246   1.213   3.519 -0.1122 -0.3288 -0.3166
 1009MOL0     C33060   0.140   1.124   3.518 -0.2559  0.8047 -0.3755
 1009MOL0     C33061   0.103   1.042   3.413 -0.3560  0.4831 -0.1894
 1009MOL0     C33062  -0.008   0.955   3.426  0.0833 -0.0276  0.3840
 1009MOL0     C33063  -0.099   0.973   3.531  0.3942 -0.1249  0.5417
 1009MOL0     O33064  -0.205   0.885   3.522  1.1603  0.3721 -0.8491
 1009MOL0     C33065  -0.313   0.911   3.617  1.2969  0.8891  0.8217
 1009MOL0     C33066  -0.409   0.792   3.618 -0.1676 -0.2337  0.3941
 1009MOL0     C33067  -0.533   0.835   3.690  0.0178 -0.2199 -0.5989
 1009MOL0     C33068  -0.631   0.721   3.721  0.8666 -0.1463  0.1519
 1009MOL0     C33069  -0.758   0.781   3.777  0.5871  0.1663 -0.0471
 1009MOL0     C33070  -0.870   0.675   3.773 -0.6831  0.1709  0.1193
 1009MOL0     C33071  -1.001   0.729   3.842 -0.6124  0.4892 -0.3477
 1009MOL0     C33072  -1.119   0.633   3.851 -0.5262  0.5791 -0.2291
 1009MOL0     N33073  -1.195   0.678   3.961  0.6675 -0.2047 -0.3366
 1009MOL0     C33074  -1.293   0.775   3.945 -0.2466  0.4189 -0.3323
 1009MOL0     C33075  -1.365   0.774   4.067 -0.9683  0.4300  0.1371
 1009MOL0     C33076  -1.473   0.859   4.125 -0.1178 -0.8581 -0.8805
 1009MOL0     C33077  -1.511   0.982   4.035  0.0874  0.4287  0.4841
 1009MOL0     C33078  -1.649   0.978   3.976  0.3846  0.1241  0.3986
 1009MOL0     C33079  -1.685   1.126   3.921  0.3045 -0.0870 -1.1552
 1009MOL0     O33080  -1.688   1.227   4.024 -0.1576 -0.0339  0.6303
 1009MOL0     C33081  -1.816   1.248   4.083 -0.6161  0.5549 -0.1080
 1009MOL0     C33082  -1.894   1.352   4.035  0.0050  0.2041 -0.1488
 1009MOL0     C33083  -2.018   1.373   4.099 -0.2753  0.2607  1.3469
 1009MOL0     C33084  -2.072   1.281   4.201 -0.1948 -0.8897  0.1510
 1009MOL0     C33085  -2.209   1.300   4.259  0.8228 -0.2578 -0.2472
 1009MOL0     O33086  -2.301   1.383   4.188 -0.1187  0.3785  0.4201
 1009MOL0     C33087  -2.419   1.327   4.153  0.8891  0.0830 -0.2086
 1009MOL0     C33088  -2.512   1.429   4.112  0.3293  0.6307  0.1317
 1009MOL0     C33089  -2.630   1.393   4.050 -0.3380  0.0400 -0.1858
 1009MOL0     C33090  -2.661   1.256   4.036  0.0630 -0.7786 -0.0897
 1009MOL0     O33091  -2.766   1.218   3.952 -0.1180 -0.3825 -0.3958
 1009MOL0     C33092  -2.870   1.311   3.911 -0.0319 -0.0976 -0.1182
 1009MOL0     C33093  -2.976   1.241   3.833  0.4813  0.0541  1.2235
 1009MOL0     C33094  -3.068   1.346   3.770  0.0346  1.0669 -0.0606
 1009MOL0     C33095  -3.190   1.279   3.692 -1.3144 -0.6373 -0.3698
 1009MOL0     C33096  -3.308   1.383   3.687 -1.3027 -0.0980 -0.4640
 1009MOL0     C33097  -3.396   1.397   3.816 -0.5574  0.4134 -0.0253
 1009MOL0     C33098  -3.477   1.273   3.843 -0.3311 -0.1739 -0.7249
 1009MOL0     C33099  -3.541   1.189   3.734  0.0313 -0.3066 -0.3455
 1009MOL0    Cl33100  -3.636   1.283   3.611  0.1651  0.2488  0.0382
 1009MOL0     C33101  -2.570   1.162   4.084  1.0795  0.5718  0.8392
 1009MOL0     C33102  -2.449   1.190   4.135 -0.4248  0.8487  0.2896
 1009MOL0     O33103  -2.236   1.232   4.360 -0.5329 -0.3604 -0.2126
 1009MOL0     C33104  -1.989   1.174   4.245 -0.7115 -0.0852 -0.1651
 1009MOL0     C33105  -1.861   1.164   4.192 -0.2447  0.9616 -0.1878
 1009MOL0     N33106  -1.309   0.681   4.149  0.4224 -0.1424 -0.0509
 1009MOL0     N33107  -1.210   0.625   4.085 -0.6184  0.0099  0.6387
 1009MOL0     C33108  -0.069   1.066   3.636 -0.3941  1.1696  0.4743
 1009MOL0     C33109   0.062   1.120   3.635  0.7553 -0.0218 -0.7262
 1009MOL0     C33110   0.470   1.289   3.440  0.9430  0.0027  0.0512
 1009MOL0     C33111   0.417   1.423   3.431  0.1510 -0.0577 -1.1497
 1009MOL0     C33112   0.502   1.525   3.393 -0.9690  0.0679  0.0984
 1009MOL0     C33113   0.636   1.501   3.371 -0.6687 -0.1905  0.0253
 1009MOL0     O33114   0.719   1.602   3.337  0.1485 -0.7249  0.7214
 1009MOL0     C33115   0.679   1.693   3.232 -1.0858  0.6619  0.5247
 1009MOL0     C33116   0.735   1.832   3.249 -0.1102 -0.1958 -0.0947
 1009MOL0     C33117   0.872   1.831   3.314 -0.6675  0.3000 -0.8118
 1009MOL0     C33118   0.945   1.963   3.303  0.3362  0.3329  1.0351
 1009MOL0     C33119   1.000   1.985   3.160  0.0212 -0.6664  0.1507
 1009MOL0     C33120   1.055   1.998   3.049 -0.4259  0.4354  0.5645
 1009MOL0     C33121   0.689   1.370   3.382 -0.1974  0.4697 -0.7252
 1009MOL0     C33122   0.601   1.265   3.409 -0.5944 -0.5100  0.8125
 1009MOL0     H33123   0.165   1.031   3.325 -3.7357 -3.8352 -2.4047
 1009MOL0     H33124  -0.025   0.874   3.357 -0.1559  0.6466 -0.3640
 1009MOL0     H33125  -0.365   0.992   3.564  0.5103 -1.8108 -2.8724
 1009MOL0     H33126  -0.279   0.942   3.716  2.9664 -1.1110  0.9276
 1009MOL0     H33127  -0.363   0.707   3.670  0.3888  0.6317  1.3569
 1009MOL0     H33128  -0.428   0.754   3.517  1.6837 -3.7404  1.1891
 1009MOL0     H33129  -0.596   0.898   3.626 -1.5663 -1.6346 -0.5118
 1009MOL0     H33130  -0.516   0.887   3.785 -1.0755  1.0660 -1.0716
 1009MOL0     H33131  -0.653   0.677   3.623  0.7031  0.3936 -0.0570
 1009MOL0     H33132  -0.588   0.641   3.782  0.9558 -2.8140 -3.1692
 1009MOL0     H33133  -0.799   0.873   3.733 -3.7205 -1.5288 -0.0422
 1009MOL0     H33134  -0.737   0.810   3.880  0.8721 -1.8614  0.4976
 1009MOL0     H33135  -0.834   0.593   3.835 -1.5020 -1.8314 -1.9275
 1009MOL0     H33136  -0.905   0.639   3.676 -0.3848  0.3175 -0.0459
 1009MOL0     H33137  -0.977   0.749   3.946  2.1901 -1.7638 -0.4601
 1009MOL0     H33138  -1.043   0.822   3.802 -0.5714 -0.3311 -2.4712
 1009MOL0     H33139  -1.091   0.528   3.864  0.1459  0.3834 -2.7009
 1009MOL0     H33140  -1.175   0.615   3.758 -3.0598  2.0596  0.9043
 1009MOL0     H33141  -1.301   0.841   3.859 -1.2457 -1.1902 -1.5320
 1009MOL0     H33142  -1.433   0.905   4.216  1.0291 -1.6526 -0.9659
 1009MOL0     H33143  -1.558   0.795   4.154 -1.7477  2.3628  2.3456
 1009MOL0     H33144  -1.445   0.998   3.949 -1.5104  0.2418 -0.8315
 1009MOL0     H33145  -1.509   1.069   4.102  1.5964  2.5592 -2.1468
 1009MOL0     H33146  -1.643   0.918   3.885  0.0817  1.6798 -0.6944
 1009MOL0     H33147  -1.727   0.949   4.047  1.2963  1.9004  2.2337
 1009MOL0     H33148  -1.785   1.109   3.880 -0.8593  0.6191  1.1717
 1009MOL0     H33149  -1.624   1.152   3.834  1.2820  0.2099 -0.3974
 1009MOL0     H33150  -1.860   1.417   3.955  0.7150  1.5584  1.1960
 1009MOL0     H33151  -2.083   1.455   4.072  0.4965  0.0678 -1.4052
 1009MOL0     H33152  -2.492   1.535   4.120  1.5324  0.3821  0.5120
 1009MOL0     H33153  -2.694   1.467   4.004 -1.0127 -2.6645 -4.1172
 1009MOL0     H33154  -2.823   1.388   3.849  0.3652 -0.0656  0.2250
 1009MOL0     H33155  -2.908   1.355   4.003 -0.4025  2.0925 -1.2457
 1009MOL0     H33156  -3.028   1.173   3.901 -0.7877 -0.3799 -0.1289
 1009MOL0     H33157  -2.933   1.187   3.748  1.6464 -0.7104  2.2685
 1009MOL0     H33158  -3.013   1.419   3.711  3.0011  0.2831  1.5300
 1009MOL0     H33159  -3.106   1.403   3.856 -1.3191  2.3402 -1.4389
 1009MOL0     H33160  -3.161   1.253   3.590  0.7696 -1.3604  0.3498
 1009MOL0     H33161  -3.230   1.190   3.741 -2.3623 -0.9342 -1.7199
 1009MOL0     H33162  -3.370   1.369   3.598 -0.9273 -0.6338 -0.6455
 1009MOL0     H33163  -3.260   1.479   3.665  2.4551 -1.7990 -0.4397
 1009MOL0     H33164  -3.459   1.484   3.799 -1.1737  0.1809  1.0103
 1009MOL0     H33165  -3.334   1.416   3.904  1.4717  1.1862 -1.5531
 1009MOL0     H33166  -3.408   1.201   3.888  1.2365  0.0023 -2.6847
 1009MOL0     H33167  -3.562   1.308   3.902  0.3218  0.4047 -0.0957
 1009MOL0     H33168  -3.610   1.114   3.774 -1.9377  0.5486 -1.9542
 1009MOL0     H33169  -3.457   1.143   3.680  1.2139 -1.1082  2.0678
 1009MOL0     H33170  -2.594   1.059   4.061  0.4574  0.8589  0.1863
 1009MOL0     H33171  -2.380   1.108   4.153 -0.3484  0.7217 -0.5246
 1009MOL0     H33172  -2.020   1.110   4.326  1.4997 -2.1355 -0.8047
 1009MOL0     H33173  -1.808   1.074   4.222  0.3963  1.6583  0.8770
 1009MOL0     H33174  -0.146   1.094   3.707 -2.6167 -2.1576 -0.3776
 1009MOL0     H33175   0.088   1.192   3.712  0.3783 -2.1330  1.4682
 1009MOL0     H33176   0.319   1.445   3.469 -0.0389 -1.1751 -0.9485
 1009MOL0     H33177   0.458   1.624   3.380 -0.6605  0.2667  0.5582
 1009MOL0     H33178   0.570   1.700   3.240 -1.2193 -1.2991  0.9729
 1009MOL0     H33179   0.702   1.644   3.137 -0.3701 -0.3447  1.1992
 1009MOL0     H33180   0.735   1.873   3.148  0.4000  0.9439  0.3556
 1009MOL0     H33181   0.667   1.891   3.312 -0.5589  1.1136 -1.7434
 1009MOL0     H33182   0.932   1.748   3.275  0.6915 -1.0259  3.5156
 1009MOL0     H33183   0.859   1.802   3.419 -2.0695 -2.4140 -1.6432
 1009MOL0     H33184   0.870   2.039   3.327 -0.5398 -0.1141 -0.1963
 1009MOL0     H33185   1.018   1.971   3.385 -0.3798  0.2848  1.6900
 1009MOL0     H33186   1.114   2.020   2.962  0.5312  3.7273  1.8933
 1009MOL0     H33187   0.793   1.348   3.357  0.5139 -0.3972  2.4965
 1009MOL0     H33188   0.645   1.167   3.397 -0.1034 -0.2312  0.3089
 1010MOL0     O33189   6.336   0.862   4.260 -0.2935 -0.2056  0.1643
 1010MOL0     C33190   6.361   0.966   4.325 -0.0235  0.5020  0.0198
 1010MOL0     O33191   6.272   1.065   4.350  0.0322  0.7975  0.2283
 1010MOL0     C33192   6.141   1.032   4.309  0.0331 -0.3491 -0.1651
 1010MOL0     C33193   6.047   0.964   4.384  0.3923 -0.5134  0.0715
 1010MOL0     C33194   5.910   0.945   4.346  0.1253 -0.2840 -0.2738
 1010MOL0     C33195   5.873   0.986   4.215  0.0934  0.0200  0.4589
 1010MOL0     O33196   5.743   0.974   4.159 -0.9452 -0.4827  0.5233
 1010MOL0     C33197   5.628   0.991   4.250 -1.0515  0.5548 -0.3406
 1010MOL0     C33198   5.505   0.945   4.177  0.2831 -0.0428 -0.3592
 1010MOL0     C33199   5.392   0.984   4.274  0.0366 -0.9928  0.7926
 1010MOL0     C33200   5.250   0.925   4.238  0.3215 -0.3396  0.2559
 1010MOL0     C33201   5.140   0.970   4.330  0.5815  0.1609  0.3123
 1010MOL0     C33202   5.102   1.110   4.291 -0.0756 -0.7179 -0.4186
 1010MOL0     C33203   4.984   1.169   4.365 -0.3489 -0.1565  0.0092
 1010MOL0     C33204   4.840   1.125   4.326  0.2515 -0.4910  0.1738
 1010MOL0     N33205   4.734   1.180   4.417  0.3602  0.8210  0.4450
 1010MOL0     C33206   4.627   1.252   4.360 -0.9698  0.6416 -0.0155
 1010MOL0     C33207   4.554   1.271   4.474  0.7040  0.0917 -0.5699
 1010MOL0     C33208   4.415   1.329   4.494  0.0829  0.4066  0.2280
 1010MOL0     C33209   4.400   1.461   4.415  0.8155 -0.1723 -0.5749
 1010MOL0     C33210   4.290   1.553   4.474  0.3353  0.2619 -0.1547
 1010MOL0     C33211   4.154   1.489   4.471  0.0579 -0.3357  0.1583
 1010MOL0     O33212   4.071   1.568   4.553  0.3570  0.2468 -0.3390
 1010MOL0     C33213   3.995   1.662   4.494 -0.0905  1.2239  0.0862
 1010MOL0     C33214   3.880   1.623   4.426  0.0982  0.4781 -0.1080
 1010MOL0     C33215   3.805   1.724   4.356 -0.2104  0.6348  0.4889
 1010MOL0     C33216   3.855   1.858   4.345  0.9252 -0.2393  1.2355
 1010MOL0     C33217   3.780   1.957   4.264  0.3663 -0.1607 -0.7172
 1010MOL0     O33218   3.671   1.901   4.191  0.0056  0.2978 -0.3921
 1010MOL0     C33219   3.588   1.985   4.123  0.7832  0.1992  0.3442
 1010MOL0     C33220   3.621   2.075   4.029  0.6954 -0.0123  0.3433
 1010MOL0     C33221   3.528   2.155   3.966 -0.4703 -0.0580 -0.7054
 1010MOL0     C33222   3.396   2.151   4.001  0.4528 -0.0574 -0.5114
 1010MOL0     O33223   3.304   2.221   3.923  1.0989  0.0328 -0.6252
 1010MOL0     C33224   3.235   2.321   4.006  0.3380 -0.6019  0.6754
 1010MOL0     C33225   3.090   2.287   4.042  0.7306 -0.2419  0.5129
 1010MOL0     C33226   3.019   2.412   4.099  0.4337  0.2826  0.2673
 1010MOL0     C33227   2.887   2.366   4.154  0.9618 -0.0068  1.4629
 1010MOL0     C33228   2.830   2.471   4.254 -0.2948 -0.2796  1.2794
 1010MOL0     C33229   2.723   2.420   4.355  0.6225  0.3087 -0.2943
 1010MOL0     C33230   2.601   2.351   4.290  0.0700  0.7309  0.1838
 1010MOL0     C33231   2.469   2.372   4.362  1.3161 -0.2648 -0.3101
 1010MOL0    Cl33232   2.448   2.279   4.517 -0.0565 -0.0276  0.1811
 1010MOL0     C33233   3.360   2.069   4.099  1.0204  0.2877  0.0587
 1010MOL0     C33234   3.448   1.988   4.166 -0.3975  0.8672 -0.3181
 1010MOL0     O33235   3.800   2.075   4.281 -0.0419 -0.1463 -0.6286
 1010MOL0     C33236   3.969   1.889   4.418  0.2926 -0.9624  0.2595
 1010MOL0     C33237   4.034   1.795   4.496 -0.2967 -0.5301  0.3858
 1010MOL0     N33238   4.619   1.224   4.581  0.3743  0.2516  0.2730
 1010MOL0     N33239   4.720   1.164   4.548 -0.4672 -0.0872 -0.1997
 1010MOL0     C33240   5.971   1.049   4.134  0.1757 -0.0660  0.0775
 1010MOL0     C33241   6.102   1.071   4.178 -0.1915 -0.3907  0.3178
 1010MOL0     C33242   6.499   0.962   4.392 -0.0004 -0.8432  0.4325
 1010MOL0     C33243   6.552   0.850   4.455 -0.7788  0.9540 -0.2010
 1010MOL0     C33244   6.678   0.850   4.519  0.3296  0.7683 -0.1814
 1010MOL0     C33245   6.756   0.967   4.529  0.0512 -0.3296 -0.0479
 1010MOL0     O33246   6.879   0.962   4.589 -0.6456  0.2822 -0.0126
 1010MOL0     C33247   6.953   1.078   4.615 -0.0752  0.2169 -0.0354
 1010MOL0     C33248   7.064   1.032   4.699  0.0314  0.0869 -0.1626
 1010MOL0     C33249   7.161   1.137   4.760  0.1167  0.3328 -0.2681
 1010MOL0     C33250   7.122   1.186   4.900  1.7475 -0.2782 -0.1411
 1010MOL0     C33251   6.987   1.246   4.912 -0.0043  0.4534  0.2013
 1010MOL0     C33252   6.875   1.287   4.914  0.0579 -0.2896  0.1560
 1010MOL0     C33253   6.707   1.086   4.459  0.0599 -0.2693  0.9899
 1010MOL0     C33254   6.577   1.084   4.399 -0.0256 -0.0902  0.5140
 1010MOL0     H33255   6.076   0.925   4.481 -0.1757 -2.0447 -0.3461
 1010MOL0     H33256   5.850   0.911   4.429  3.1766  2.2928  3.3569
 1010MOL0     H33257   5.622   1.097   4.275  2.0446  0.7038  0.1825
 1010MOL0     H33258   5.640   0.933   4.342  1.2916 -0.3914 -1.1570
 1010MOL0     H33259   5.508   0.838   4.156  1.2939  0.1640 -1.3584
 1010MOL0     H33260   5.491   1.000   4.084 -0.4640 -0.9256 -0.7739
 1010MOL0     H33261   5.376   1.092   4.279  0.9187 -0.8757  1.0842
 1010MOL0     H33262   5.425   0.945   4.371  1.8693  3.5006  2.1989
 1010MOL0     H33263   5.229   0.942   4.132 -1.0666 -3.2162 -0.0203
 1010MOL0     H33264   5.250   0.816   4.249 -0.0502 -0.6776 -2.2877
 1010MOL0     H33265   5.170   0.957   4.435 -0.1373  0.3049  0.5417
 1010MOL0     H33266   5.058   0.901   4.312 -0.4615  1.5048 -0.2055
 1010MOL0     H33267   5.095   1.117   4.182  0.4297 -1.5139 -0.5105
 1010MOL0     H33268   5.188   1.170   4.320 -0.0650 -0.8943 -0.0852
 1010MOL0     H33269   4.982   1.142   4.470 -0.5406 -1.3136 -0.2807
 1010MOL0     H33270   4.984   1.278   4.353  3.2345 -0.2342 -2.4404
 1010MOL0     H33271   4.832   1.016   4.332 -1.4395 -0.4098 -0.0646
 1010MOL0     H33272   4.823   1.138   4.218  2.1269 -2.6349 -0.4594
 1010MOL0     H33273   4.604   1.278   4.257 -0.6795 -0.5949 -0.4095
 1010MOL0     H33274   4.375   1.331   4.596 -0.9105 -0.5845 -0.1275
 1010MOL0     H33275   4.354   1.246   4.457  0.3398  1.3962 -2.6156
 1010MOL0     H33276   4.377   1.445   4.310 -2.0468 -0.2108 -0.0061
 1010MOL0     H33277   4.493   1.519   4.416  0.7133  0.0421  1.4842
 1010MOL0     H33278   4.322   1.586   4.574  2.7636 -2.7772  0.2510
 1010MOL0     H33279   4.300   1.639   4.408  3.1215  0.4641  0.3888
 1010MOL0     H33280   4.147   1.390   4.517 -1.1780  0.7734  2.5214
 1010MOL0     H33281   4.120   1.486   4.367  0.0520 -1.8143  0.1827
 1010MOL0     H33282   3.853   1.518   4.431 -1.1913  0.8727  3.1967
 1010MOL0     H33283   3.721   1.690   4.296  0.5630 -3.9477  1.6161
 1010MOL0     H33284   3.725   2.087   4.001  0.4140  4.0111  0.3664
 1010MOL0     H33285   3.562   2.232   3.898  1.0668 -1.7226 -1.9239
 1010MOL0     H33286   3.229   2.412   3.945  0.0229  0.3997  2.1659
 1010MOL0     H33287   3.289   2.336   4.100  2.1148 -1.2881 -0.1974
 1010MOL0     H33288   3.089   2.206   4.115  1.1228  0.3277  1.1679
 1010MOL0     H33289   3.024   2.264   3.958  1.2165 -0.9210  0.3178
 1010MOL0     H33290   3.001   2.497   4.032  0.1301 -0.3618 -0.4861
 1010MOL0     H33291   3.078   2.450   4.183 -1.7581  3.5986  0.5061
 1010MOL0     H33292   2.821   2.333   4.073 -0.6478  1.1161  2.2772
 1010MOL0     H33293   2.907   2.274   4.209  1.6182 -0.7205  0.1031
 1010MOL0     H33294   2.792   2.558   4.198  0.8547 -1.2562 -1.1621
 1010MOL0     H33295   2.917   2.504   4.311  1.8298  1.0835 -2.3880
 1010MOL0     H33296   2.686   2.505   4.413 -0.0557  1.6405 -2.5478
 1010MOL0     H33297   2.772   2.345   4.417 -0.2671  0.1045  0.1903
 1010MOL0     H33298   2.575   2.391   4.191  0.6989 -0.0438 -0.3061
 1010MOL0     H33299   2.615   2.243   4.291 -2.3250  0.3570  2.5236
 1010MOL0     H33300   2.381   2.340   4.305 -0.3745 -3.1698  3.4841
 1010MOL0     H33301   2.457   2.480   4.375 -3.7636  0.2772 -5.2800
 1010MOL0     H33302   3.254   2.052   4.114  1.0728  0.2808  0.4176
 1010MOL0     H33303   3.412   1.924   4.245 -0.7201  2.6912  1.0712
 1010MOL0     H33304   4.007   1.991   4.409 -4.0138  0.6413 -3.7699
 1010MOL0     H33305   4.128   1.823   4.541  0.5995  1.0019 -2.2152
 1010MOL0     H33306   5.949   1.080   4.033 -1.7474 -0.8665  0.2023
 1010MOL0     H33307   6.183   1.119   4.123 -0.2550 -0.6351  0.0030
 1010MOL0     H33308   6.499   0.760   4.484  4.3917 -1.7250  2.4368
 1010MOL0     H33309   6.703   0.765   4.581  0.7294  0.8307 -0.2549
 1010MOL0     H33310   6.891   1.154   4.664  1.2658  1.9150 -0.8511
 1010MOL0     H33311   6.997   1.130   4.529  0.4618 -0.3456 -0.1096
 1010MOL0     H33312   7.009   0.972   4.772  0.6478 -2.0060 -1.3482
 1010MOL0     H33313   7.123   0.974   4.627 -2.4344 -2.8445 -0.0205
 1010MOL0     H33314   7.178   1.218   4.688  1.5164  1.2689  1.0642
 1010MOL0     H33315   7.262   1.095   4.766  0.4397  0.7387 -2.2082
 1010MOL0     H33316   7.122   1.093   4.957  1.7484 -1.4746 -2.0044
 1010MOL0     H33317   7.201   1.243   4.950  0.5203  0.4027  1.0805
 1010MOL0     H33318   6.786   1.346   4.918  2.0120  3.1902 -2.1487
 1010MOL0     H33319   6.760   1.179   4.450 -4.1420  2.2966 -0.5038
 1010MOL0     H33320   6.545   1.165   4.335  0.1067 -1.4325 -1.3249
 1011MOL0     O33321   6.375  10.753   0.130 -0.6718  0.0662  0.4017
 1011MOL0     C33322   6.458  10.723   0.042  0.2532  0.3540 -0.8606
 1011MOL0     O33323   6.444  10.739  -0.090  0.7779  0.2780  0.1406
 1011MOL0     C33324   6.314  10.774  -0.129  0.1136  0.6918 -0.6310
 1011MOL0     C33325   6.211  10.682  -0.166  0.8580  0.6491 -0.1046
 1011MOL0     C33326   6.079  10.724  -0.194  0.4563 -0.2841  0.6441
 1011MOL0     C33327   6.049  10.862  -0.193  0.4988  0.2863 -0.2332
 1011MOL0     O33328   5.919  10.887  -0.232  0.1810 -0.1336 -0.3689
 1011MOL0     C33329   5.879  11.014  -0.201 -0.0755 -1.2178  0.0446
 1011MOL0     C33330   5.738  11.034  -0.225  0.1980  0.0409  0.4015
 1011MOL0     C33331   5.709  11.182  -0.242 -0.3180 -0.2806 -1.0638
 1011MOL0     C33332   5.565  11.208  -0.278  0.4656 -0.2048  0.2825
 1011MOL0     C33333   5.530  11.359  -0.267  0.8153 -0.6413  0.1903
 1011MOL0     C33334   5.462  11.398  -0.131  0.0059 -0.8937 -1.0414
 1011MOL0     C33335   5.405  11.553  -0.135 -1.0752  1.3056 -0.1057
 1011MOL0     C33336   5.396  11.596   0.009  0.5194  0.0162 -0.6290
 1011MOL0     N33337   5.284  11.536   0.086 -0.2001  0.9821  0.3243
 1011MOL0     C33338   5.144  11.529   0.045 -0.3547 -0.2364 -0.6772
 1011MOL0     C33339   5.090  11.442   0.134  0.5994  0.2962  0.0408
 1011MOL0     C33340   4.944  11.410   0.135 -0.3795  0.2909  0.3319
 1011MOL0     C33341   4.914  11.285   0.032 -0.2256 -0.3413  0.2478
 1011MOL0     C33342   4.863  11.162   0.111  0.3959  0.6914 -1.0544
 1011MOL0     C33343   4.738  11.196   0.184  0.1736  0.2940 -0.5049
 1011MOL0     O33344   4.650  11.265   0.086 -1.3010  0.2776  0.2731
 1011MOL0     C33345   4.514  11.260   0.111  0.0207 -0.2425  0.1806
 1011MOL0     C33346   4.435  11.144   0.118 -0.1052  0.5034 -0.0906
 1011MOL0     C33347   4.294  11.158   0.133 -0.8038 -0.7039  0.5849
 1011MOL0     C33348   4.223  11.280   0.119 -0.3515  0.6719 -0.6953
 1011MOL0     C33349   4.074  11.278   0.114  0.6321 -0.1409  0.1368
 1011MOL0     O33350   4.002  11.168   0.154  0.2170 -0.6148 -0.5980
 1011MOL0     C33351   3.866  11.167   0.137  0.0257  0.8517  0.5040
 1011MOL0     C33352   3.797  11.167   0.011 -0.6531 -0.1521  1.1226
 1011MOL0     C33353   3.659  11.177   0.004  0.0073 -0.2490  0.5722
 1011MOL0     C33354   3.579  11.173   0.120 -0.5228 -0.2702 -1.0980
 1011MOL0     O33355   3.449  11.194   0.097 -0.0663 -0.2792 -0.4638
 1011MOL0     C33356   3.371  11.081   0.136  0.0117  0.3854  0.2262
 1011MOL0     C33357   3.237  11.128   0.185 -1.0729 -0.9853  0.8271
 1011MOL0     C33358   3.254  11.205   0.306  0.5872 -0.1192  0.7675
 1011MOL0     C33359   3.127  11.268   0.360 -0.4392 -0.4720 -0.4110
 1011MOL0     C33360   3.144  11.349   0.485  0.2657  0.4916 -0.4554
 1011MOL0     C33361   3.019  11.417   0.523  0.4873  0.7939 -1.0311
 1011MOL0     C33362   3.032  11.518   0.636  0.2526  0.7420  0.6972
 1011MOL0     C33363   3.082  11.453   0.763  0.1894  0.2343  0.1296
 1011MOL0    Cl33364   2.962  11.335   0.816 -0.2539  0.0048 -0.4407
 1011MOL0     C33365   3.645  11.175   0.249  0.3964  0.3904  0.5128
 1011MOL0     C33366   3.785  11.165   0.252 -0.4352 -0.3562 -0.2138
 1011MOL0     O33367   4.017  11.380   0.083 -0.8886  0.2779 -0.3585
 1011MOL0     C33368   4.302  11.392   0.121 -0.0637 -0.2113  0.0724
 1011MOL0     C33369   4.446  11.379   0.115  0.9473 -0.1656 -0.8376
 1011MOL0     N33370   5.178  11.393   0.227  0.1354 -0.7216 -0.3675
 1011MOL0     N33371   5.292  11.455   0.198 -0.3404  0.2387 -0.3623
 1011MOL0     C33372   6.148  10.959  -0.159 -0.0593  0.2110 -0.1000
 1011MOL0     C33373   6.274  10.911  -0.125 -0.8342  0.2010 -0.3095
 1011MOL0     C33374   6.602  10.694   0.085 -0.4117 -0.7749 -0.2129
 1011MOL0     C33375   6.706  10.688  -0.007 -0.0024  0.3635 -0.3642
 1011MOL0     C33376   6.843  10.673   0.029  0.2170 -0.6907  0.0798
 1011MOL0     C33377   6.872  10.664   0.165  0.7429  0.5488 -0.0918
 1011MOL0     O33378   7.002  10.647   0.207 -0.1713  0.0818  0.0260
 1011MOL0     C33379   7.111  10.675   0.115  0.4145 -0.4804 -0.2501
 1011MOL0     C33380   7.244  10.634   0.167  0.0764  0.3587  0.3202
 1011MOL0     C33381   7.271  10.710   0.301  0.2489 -0.0215  0.1692
 1011MOL0     C33382   7.412  10.677   0.350 -0.2023  0.6004 -0.3114
 1011MOL0     C33383   7.436  10.740   0.473  0.2944  0.6168  0.2465
 1011MOL0     C33384   7.461  10.787   0.579  0.0963 -0.0523 -0.1563
 1011MOL0     C33385   6.771  10.673   0.266 -0.3379 -0.7063  0.4713
 1011MOL0     C33386   6.639  10.696   0.222 -0.2478  0.5081  0.6608
 1011MOL0     H33387   6.249  10.581  -0.171  1.9769  0.8968  2.3050
 1011MOL0     H33388   5.996  10.664  -0.229  2.0634 -4.2978  3.0857
 1011MOL0     H33389   5.928  11.100  -0.247 -2.4184  1.0380  1.4727
 1011MOL0     H33390   5.895  11.039  -0.096  0.1011  2.1995 -0.6641
 1011MOL0     H33391   5.673  10.993  -0.147  1.9709 -1.2530  1.2542
 1011MOL0     H33392   5.721  10.987  -0.323  1.0549  0.9267 -0.1956
 1011MOL0     H33393   5.774  11.231  -0.315 -0.2758  0.5496 -0.4769
 1011MOL0     H33394   5.726  11.237  -0.149 -1.4355 -1.7335  0.0499
 1011MOL0     H33395   5.560  11.167  -0.379  0.9557  1.6041 -0.5102
 1011MOL0     H33396   5.495  11.148  -0.219 -1.8323  1.1879 -0.8921
 1011MOL0     H33397   5.467  11.377  -0.355  2.4059  2.4575 -0.4643
 1011MOL0     H33398   5.625  11.412  -0.277  0.4540  0.0360  0.2532
 1011MOL0     H33399   5.536  11.390  -0.051 -0.8351  1.0494  0.0033
 1011MOL0     H33400   5.371  11.344  -0.100 -2.5912  3.0220 -1.1459
 1011MOL0     H33401   5.468  11.622  -0.192 -1.0873  3.4059  2.2641
 1011MOL0     H33402   5.306  11.564  -0.179 -0.6561  1.7427 -0.9662
 1011MOL0     H33403   5.383  11.705  -0.001  0.0076 -0.1314 -1.6488
 1011MOL0     H33404   5.490  11.583   0.063 -1.1344  0.2472  2.5524
 1011MOL0     H33405   5.099  11.590  -0.032 -1.7376 -0.2456  0.1055
 1011MOL0     H33406   4.892  11.500   0.100 -0.8266  0.9641  2.5851
 1011MOL0     H33407   4.917  11.385   0.238  3.9536 -3.1740  0.9264
 1011MOL0     H33408   5.007  11.268  -0.023 -0.9291 -0.6500 -0.8783
 1011MOL0     H33409   4.853  11.318  -0.053 -0.5790 -0.5886  0.4012
 1011MOL0     H33410   4.861  11.081   0.038  0.6069  1.6520 -2.1721
 1011MOL0     H33411   4.947  11.131   0.174  0.7748 -1.1507 -2.3822
 1011MOL0     H33412   4.763  11.272   0.258 -0.5723  0.2500 -0.1973
 1011MOL0     H33413   4.690  11.111   0.234  2.2147 -1.5362 -1.4802
 1011MOL0     H33414   4.485  11.048   0.125  0.6001  0.8285 -0.4620
 1011MOL0     H33415   4.232  11.069   0.127  1.2900 -2.1059 -2.3780
 1011MOL0     H33416   3.852  11.160  -0.083 -0.0170  1.0143  1.3994
 1011MOL0     H33417   3.605  11.170  -0.089 -0.8186  1.6029  0.8580
 1011MOL0     H33418   3.418  11.018   0.212 -0.5660  0.8760  1.0135
 1011MOL0     H33419   3.363  11.037   0.036 -0.8329  4.9319 -1.9859
 1011MOL0     H33420   3.176  11.040   0.207  1.0826 -3.6631 -2.7690
 1011MOL0     H33421   3.190  11.180   0.100  1.2815 -0.2893 -0.1298
 1011MOL0     H33422   3.321  11.290   0.288 -1.6556  1.5865  0.0304
 1011MOL0     H33423   3.314  11.153   0.382  1.5869  0.2798  0.2644
 1011MOL0     H33424   3.115  11.332   0.272  2.1959 -0.3305 -0.7369
 1011MOL0     H33425   3.035  11.208   0.355 -0.2612 -0.9150  1.1013
 1011MOL0     H33426   3.225  11.423   0.489  1.7554 -1.1169  2.7012
 1011MOL0     H33427   3.178  11.279   0.562  2.0399  3.3787  1.6321
 1011MOL0     H33428   2.942  11.343   0.546 -1.3829  2.3516 -1.9063
 1011MOL0     H33429   2.985  11.469   0.432  1.6710  1.2743 -1.2217
 1011MOL0     H33430   3.104  11.589   0.594 -0.0555 -1.0522 -3.3514
 1011MOL0     H33431   2.942  11.577   0.654 -0.3792  0.5855 -1.6215
 1011MOL0     H33432   3.096  11.524   0.845  0.6274 -0.6431  0.8428
 1011MOL0     H33433   3.174  11.393   0.761  1.2587  1.5905  2.9248
 1011MOL0     H33434   3.596  11.180   0.345  0.5183 -1.4240  0.6923
 1011MOL0     H33435   3.849  11.170   0.339  0.5143  1.8976 -0.9631
 1011MOL0     H33436   4.256  11.488   0.104 -0.1453  0.4306  3.2404
 1011MOL0     H33437   4.495  11.476   0.123 -1.2673  0.8272  3.1142
 1011MOL0     H33438   6.129  11.065  -0.151 -0.6282 -0.0156  2.5309
 1011MOL0     H33439   6.342  10.987  -0.087  0.0966 -0.9493  0.4001
 1011MOL0     H33440   6.684  10.694  -0.113  2.4924 -0.1073 -0.9862
 1011MOL0     H33441   6.916  10.677  -0.051  1.3677 -0.6128  1.0982
 1011MOL0     H33442   7.110  10.779   0.083  1.8558 -0.7513 -1.2937
 1011MOL0     H33443   7.091  10.612   0.027 -1.5348 -1.6809  0.9661
 1011MOL0     H33444   7.252  10.528   0.192 -0.3107  0.0831 -0.6697
 1011MOL0     H33445   7.319  10.663   0.093  0.7827 -0.9083  0.5167
 1011MOL0     H33446   7.195  10.698   0.379  0.0000  2.2499  0.3403
 1011MOL0     H33447   7.271  10.813   0.264  2.6375 -0.2052 -0.4973
 1011MOL0     H33448   7.405  10.568   0.357  2.0368  0.2925 -1.8546
 1011MOL0     H33449   7.494  10.686   0.278  1.8501 -4.3773  0.9634
 1011MOL0     H33450   7.470  10.847   0.668 -1.6063  0.4914 -0.3158
 1011MOL0     H33451   6.800  10.661   0.370 -0.7616  0.5502  0.7614
 1011MOL0     H33452   6.550  10.702   0.283 -2.8955 -0.2414 -2.8215
 1012MOL0     O33453   2.754   2.918  10.659  0.5910  0.3390  0.4529
 1012MOL0     C33454   2.762   2.800  10.697 -0.1240 -0.2305  0.6023
 1012MOL0     O33455   2.657   2.710  10.701 -0.0636  0.3672  0.7672
 1012MOL0     C33456   2.524   2.759  10.673  1.2617 -0.3063  0.0800
 1012MOL0     C33457   2.445   2.682  10.586 -0.1911 -1.1409 -0.0730
 1012MOL0     C33458   2.312   2.715  10.569  1.1274 -0.4259 -1.1701
 1012MOL0     C33459   2.249   2.820  10.641  0.7759 -0.1199 -0.2712
 1012MOL0     O33460   2.115   2.830  10.610 -0.2584 -0.5656  0.3555
 1012MOL0     C33461   2.034   2.926  10.684 -0.7884 -0.5302  0.5314
 1012MOL0     C33462   1.893   2.946  10.632  0.6487 -0.8197  0.6575
 1012MOL0     C33463   1.796   2.826  10.634 -0.4251  0.7631 -0.5110
 1012MOL0     C33464   1.653   2.872  10.616  0.7093 -0.2900  0.6879
 1012MOL0     C33465   1.547   2.764  10.581 -0.0592  0.2889  0.6006
 1012MOL0     C33466   1.413   2.827  10.563  0.1991 -0.6751  0.1483
 1012MOL0     C33467   1.316   2.725  10.525 -0.0389 -1.3618  0.9886
 1012MOL0     C33468   1.210   2.775  10.434 -0.1212 -0.1738 -0.7500
 1012MOL0     N33469   1.094   2.855  10.505 -0.0900  0.6273  0.7586
 1012MOL0     C33470   0.999   2.788  10.589 -0.1179 -1.1547  0.3306
 1012MOL0     C33471   0.886   2.871  10.575 -0.2416 -0.7656 -0.7215
 1012MOL0     C33472   0.741   2.859  10.633 -0.4593  0.0617  0.0029
 1012MOL0     C33473   0.705   2.995  10.704  0.3493  0.4752  0.1450
 1012MOL0     C33474   0.787   3.032  10.827 -0.3635 -0.3676  0.5507
 1012MOL0     C33475   0.757   2.944  10.951 -0.1354  0.2486  0.0719
 1012MOL0     O33476   0.783   2.806  10.931  0.1933 -0.3289  0.8291
 1012MOL0     C33477   0.918   2.768  10.919  0.1724  0.0397 -0.3900
 1012MOL0     C33478   0.932   2.638  10.863 -0.0264  0.3566 -0.3937
 1012MOL0     C33479   1.050   2.574  10.847  0.6085 -0.6933 -0.2189
 1012MOL0     C33480   1.174   2.635  10.886 -0.5268  0.1516 -0.3116
 1012MOL0     C33481   1.296   2.559  10.872  0.2817  0.2195 -0.0496
 1012MOL0     O33482   1.299   2.436  10.833 -0.6775 -0.0738  0.0854
 1012MOL0     C33483   1.423   2.384  10.806  0.7679  1.1948  0.0580
 1012MOL0     C33484   1.504   2.346  10.910  0.0825 -0.4088  0.4132
 1012MOL0     C33485   1.631   2.296  10.884 -0.6492 -1.3199 -1.4686
 1012MOL0     C33486   1.683   2.283  10.761 -0.0451 -0.3398 -1.1680
 1012MOL0     O33487   1.806   2.235  10.733 -0.0067  0.4272 -0.0407
 1012MOL0     C33488   1.913   2.329  10.766  0.2191  0.5356  0.8786
 1012MOL0     C33489   2.028   2.270  10.849 -0.0355  0.1481 -0.6394
 1012MOL0     C33490   2.094   2.382  10.946 -0.9542  1.5698 -0.4992
 1012MOL0     C33491   2.166   2.499  10.883  0.5837 -1.1195  0.2347
 1012MOL0     C33492   2.251   2.563  10.999 -0.6812  0.4395  0.6386
 1012MOL0     C33493   2.167   2.666  11.071  0.8906 -0.2453  0.2987
 1012MOL0     C33494   2.276   2.761  11.129  0.3770 -0.0012 -0.9593
 1012MOL0     C33495   2.234   2.886  11.206 -0.1974  0.3689 -0.9839
 1012MOL0    Cl33496   2.203   3.000  11.080  0.2393 -0.2746 -0.5994
 1012MOL0     C33497   1.602   2.316  10.657 -0.6661 -0.4183 -0.0113
 1012MOL0     C33498   1.475   2.369  10.675 -0.1520 -0.7457  0.7874
 1012MOL0     O33499   1.396   2.625  10.910 -0.0008  0.7251  0.3548
 1012MOL0     C33500   1.155   2.766  10.945 -0.2135 -0.1713  0.5003
 1012MOL0     C33501   1.038   2.832  10.959 -0.7204  0.9456 -0.1640
 1012MOL0     N33502   0.917   2.971  10.482  0.4237  0.7954 -0.5269
 1012MOL0     N33503   1.032   2.959  10.437 -1.0393  0.3466  0.3189
 1012MOL0     C33504   2.329   2.902  10.723 -0.1304  0.5801 -0.9110
 1012MOL0     C33505   2.462   2.869  10.747  0.4332  0.2371  0.2653
 1012MOL0     C33506   2.894   2.747  10.725 -0.0307  0.7538 -0.9229
 1012MOL0     C33507   2.913   2.622  10.769  0.4277  0.1468 -0.6933
 1012MOL0     C33508   3.035   2.566  10.809 -0.3586 -0.2883  0.5338
 1012MOL0     C33509   3.155   2.640  10.797  0.2153 -0.0303 -0.0507
 1012MOL0     O33510   3.282   2.602  10.821 -0.1651  0.3741 -0.0812
 1012MOL0     C33511   3.321   2.464  10.793 -0.1447 -0.6591 -0.9177
 1012MOL0     C33512   3.476   2.448  10.812  0.6624 -0.3090  0.4778
 1012MOL0     C33513   3.532   2.493  10.953 -0.1471  0.4395  0.0007
 1012MOL0     C33514   3.681   2.489  10.957 -0.6550  0.8240 -0.7263
 1012MOL0     C33515   3.737   2.354  10.933 -0.2986  0.1084  0.5499
 1012MOL0     C33516   3.769   2.249  10.899  0.0996  0.3693  0.5558
 1012MOL0     C33517   3.138   2.780  10.756  0.2913  1.0183  0.7973
 1012MOL0     C33518   3.007   2.826  10.725 -0.1378 -0.7765  0.3336
 1012MOL0     H33519   2.493   2.597  10.539 -0.3461  0.5591 -3.6500
 1012MOL0     H33520   2.246   2.662  10.502 -1.7974  0.2355  1.0039
 1012MOL0     H33521   2.072   3.027  10.671 -1.4932 -0.2991  0.2325
 1012MOL0     H33522   2.043   2.908  10.792  3.5110  1.6526  0.7353
 1012MOL0     H33523   1.896   2.982  10.529  3.6252 -0.5798  0.7256
 1012MOL0     H33524   1.848   3.018  10.700 -1.1125 -0.2285 -1.0629
 1012MOL0     H33525   1.802   2.766  10.725 -2.7460  3.2115  1.4138
 1012MOL0     H33526   1.819   2.761  10.549  1.8691  0.7061  0.0849
 1012MOL0     H33527   1.607   2.903  10.710 -0.4864  0.6503 -0.1789
 1012MOL0     H33528   1.660   2.955  10.545  0.9066 -1.8951 -1.2661
 1012MOL0     H33529   1.535   2.698  10.667 -1.3061  0.7316  0.7848
 1012MOL0     H33530   1.580   2.714  10.490 -1.3275  2.0152 -0.8753
 1012MOL0     H33531   1.427   2.905  10.487 -0.4517 -2.7720 -2.2704
 1012MOL0     H33532   1.369   2.876  10.650  0.1250 -0.5123  0.0228
 1012MOL0     H33533   1.362   2.639  10.475  0.7300 -0.3601 -0.0820
 1012MOL0     H33534   1.257   2.691  10.611 -1.9563  0.0584  0.3003
 1012MOL0     H33535   1.163   2.695  10.377 -0.3634  0.2033 -1.0773
 1012MOL0     H33536   1.256   2.838  10.358 -1.4190  1.2813 -0.3849
 1012MOL0     H33537   1.012   2.695  10.644 -1.1735 -0.2772  2.1836
 1012MOL0     H33538   0.727   2.773  10.699 -1.9756 -0.8051 -1.3626
 1012MOL0     H33539   0.669   2.843  10.552  2.3845  0.9455 -2.9106
 1012MOL0     H33540   0.599   2.987  10.729  0.3661 -1.1530 -0.1807
 1012MOL0     H33541   0.701   3.077  10.632 -1.8487  0.1626 -0.1855
 1012MOL0     H33542   0.888   3.018  10.788 -1.3925 -1.7403 -1.8064
 1012MOL0     H33543   0.763   3.137  10.849 -0.2890  0.1263 -1.5761
 1012MOL0     H33544   0.656   2.948  10.993  1.2890 -0.0055  3.8925
 1012MOL0     H33545   0.807   2.986  11.038  0.1525  0.7875 -0.3448
 1012MOL0     H33546   0.845   2.585  10.825  1.1976 -2.3508  0.3003
 1012MOL0     H33547   1.056   2.479  10.794  0.1244 -0.5146 -0.6031
 1012MOL0     H33548   1.477   2.361  11.014  0.1139 -2.0623  0.6946
 1012MOL0     H33549   1.696   2.282  10.970 -0.2318 -0.1479 -1.5790
 1012MOL0     H33550   1.867   2.406  10.829 -2.0499  0.9223 -1.1206
 1012MOL0     H33551   1.947   2.394  10.686  0.1774  1.1188  1.3288
 1012MOL0     H33552   2.109   2.227  10.790 -0.6490  0.2565 -1.5860
 1012MOL0     H33553   1.987   2.188  10.910  0.6026  0.7256  0.6166
 1012MOL0     H33554   2.168   2.319  10.996 -2.4292  0.1765  0.0109
 1012MOL0     H33555   2.022   2.418  11.021 -0.9757  1.4838 -0.4786
 1012MOL0     H33556   2.240   2.449  10.820  4.2815  0.1938  3.1420
 1012MOL0     H33557   2.105   2.565  10.821  0.6946 -0.5008  0.7662
 1012MOL0     H33558   2.341   2.603  10.950  0.8329 -4.6944 -1.5226
 1012MOL0     H33559   2.273   2.483  11.070  2.7731 -0.4456 -1.2188
 1012MOL0     H33560   2.103   2.621  11.147  1.0528 -0.0588  0.5464
 1012MOL0     H33561   2.099   2.719  11.003 -1.5893  0.3355  3.0412
 1012MOL0     H33562   2.321   2.692  11.199  1.3451 -2.9221 -4.1738
 1012MOL0     H33563   2.343   2.800  11.052  1.3667 -0.7538 -0.4912
 1012MOL0     H33564   2.316   2.921  11.268  1.3591 -0.8089 -2.2931
 1012MOL0     H33565   2.144   2.864  11.264  1.2153 -3.1124  0.1445
 1012MOL0     H33566   1.629   2.299  10.553  1.1204 -1.3565  0.5656
 1012MOL0     H33567   1.408   2.392  10.593  1.4123  1.7071  0.1013
 1012MOL0     H33568   1.246   2.822  10.964 -0.7106  1.5155 -1.7373
 1012MOL0     H33569   1.030   2.934  10.995 -0.2684  1.1383 -0.5926
 1012MOL0     H33570   2.293   2.987  10.779 -1.4359 -1.4822  1.5954
 1012MOL0     H33571   2.526   2.919  10.819  0.1339 -0.2816  0.9049
 1012MOL0     H33572   2.820   2.568  10.761  0.7115 -0.6739  1.1624
 1012MOL0     H33573   3.044   2.465  10.847 -2.1057 -0.1920  1.2910
 1012MOL0     H33574   3.302   2.447  10.687  0.0657  2.3065 -1.5196
 1012MOL0     H33575   3.264   2.391  10.852  1.0834 -0.4142  0.6446
 1012MOL0     H33576   3.500   2.343  10.789  0.4465 -0.3307  0.3534
 1012MOL0     H33577   3.514   2.517  10.736  1.2452  0.3564  1.3476
 1012MOL0     H33578   3.497   2.421  11.028  3.5665 -1.9813 -0.3543
 1012MOL0     H33579   3.498   2.590  10.992 -0.2036  1.9145 -3.3541
 1012MOL0     H33580   3.726   2.554  10.881  1.2770 -2.5961 -2.7546
 1012MOL0     H33581   3.720   2.522  11.053  2.1505  0.2677 -1.5892
 1012MOL0     H33582   3.800   2.150  10.873  1.2814  0.3494  1.8841
 1012MOL0     H33583   3.223   2.844  10.734 -0.6784  1.5921 -1.5822
 1012MOL0     H33584   2.996   2.932  10.702  1.0842 -0.5290  0.7769
 1013MOL0     O33585   4.058   1.085   4.670 -0.3511  0.3644 -0.0145
 1013MOL0     C33586   4.054   1.061   4.787 -0.2029 -0.0565 -0.3587
 1013MOL0     O33587   3.939   1.026   4.859  0.4979  0.2015 -0.6983
 1013MOL0     C33588   3.825   1.013   4.788  0.4822 -0.2683  0.8971
 1013MOL0     C33589   3.774   1.126   4.744  0.9640  0.7457  0.2204
 1013MOL0     C33590   3.649   1.130   4.673  0.6569 -0.0505  0.6947
 1013MOL0     C33591   3.582   1.005   4.642 -0.9949  0.2878 -0.6389
 1013MOL0     O33592   3.468   1.009   4.564  0.5235  0.0259 -0.0475
 1013MOL0     C33593   3.360   0.932   4.624 -0.4474 -0.2349  0.3683
 1013MOL0     C33594   3.236   0.964   4.549 -0.3185  0.1915  0.8988
 1013MOL0     C33595   3.105   0.944   4.631 -0.3390 -0.4478 -0.8709
 1013MOL0     C33596   2.989   1.034   4.576  0.2563  0.2971 -0.6814
 1013MOL0     C33597   2.860   1.016   4.659 -0.2569  0.1805  0.1335
 1013MOL0     C33598   2.821   0.871   4.714 -0.0341 -0.3962  0.2597
 1013MOL0     C33599   2.706   0.880   4.820  0.4107  0.6793  0.0790
 1013MOL0     C33600   2.588   0.955   4.764  0.6874 -0.5712  0.7832
 1013MOL0     N33601   2.473   0.925   4.840 -0.2367 -0.2909 -0.7628
 1013MOL0     C33602   2.442   0.961   4.969  0.1169  0.7429  0.8547
 1013MOL0     C33603   2.327   0.909   4.990  0.6221 -0.2912 -0.0930
 1013MOL0     C33604   2.270   0.922   5.130 -0.7480 -0.0014  0.0845
 1013MOL0     C33605   2.138   0.839   5.150 -1.0829  0.1990  0.0305
 1013MOL0     C33606   2.015   0.916   5.086 -0.4845 -0.1240 -0.9307
 1013MOL0     C33607   1.884   0.837   5.112 -0.3219 -0.6836  0.2215
 1013MOL0     O33608   1.902   0.701   5.054 -0.1647 -0.7373 -0.0831
 1013MOL0     C33609   1.782   0.635   5.049  0.0046  0.5682  0.0796
 1013MOL0     C33610   1.654   0.688   5.040  0.7062 -0.6720  0.8787
 1013MOL0     C33611   1.543   0.603   5.030  0.1352 -0.6433 -0.5598
 1013MOL0     C33612   1.561   0.461   5.043 -0.3501  0.4640 -0.3807
 1013MOL0     C33613   1.450   0.367   5.035 -0.6888  0.0805  0.8277
 1013MOL0     O33614   1.330   0.421   5.013  0.5090 -0.1940 -0.3882
 1013MOL0     C33615   1.220   0.339   4.994 -0.2719 -0.7809 -0.4303
 1013MOL0     C33616   1.207   0.278   4.874 -0.0445  0.2209 -0.2399
 1013MOL0     C33617   1.092   0.197   4.855  0.3701  0.6924  0.8640
 1013MOL0     C33618   0.992   0.179   4.945  0.5776  0.4973  0.0343
 1013MOL0     O33619   0.865   0.129   4.923  0.1362 -0.3219 -0.2155
 1013MOL0     C33620   0.868  -0.002   4.849 -0.0980 -0.8305 -0.4126
 1013MOL0     C33621   0.737  -0.072   4.882 -0.9291  0.3506  0.6477
 1013MOL0     C33622   0.761  -0.225   4.877  0.8463 -0.9596 -0.3905
 1013MOL0     C33623   0.666  -0.292   4.775  0.0327  1.0568  0.3124
 1013MOL0     C33624   0.704  -0.280   4.630 -0.0602  0.0292 -0.0490
 1013MOL0     C33625   0.610  -0.368   4.536 -0.1466 -0.3898 -0.8205
 1013MOL0     C33626   0.616  -0.367   4.380 -0.5096  0.6886 -0.6010
 1013MOL0     C33627   0.528  -0.487   4.321 -1.3692 -0.2569  0.1994
 1013MOL0    Cl33628   0.359  -0.433   4.328  0.0970  0.3708  0.0495
 1013MOL0     C33629   1.014   0.240   5.069  0.4398  0.2716  0.4024
 1013MOL0     C33630   1.133   0.311   5.102 -0.5367  0.6035 -0.1620
 1013MOL0     O33631   1.472   0.246   5.045  0.2812  0.0130 -0.0232
 1013MOL0     C33632   1.689   0.410   5.066  0.2533 -0.1388 -1.5073
 1013MOL0     C33633   1.796   0.498   5.068 -0.1181  0.4851  0.7952
 1013MOL0     N33634   2.280   0.844   4.875  0.6170  0.0003 -0.2701
 1013MOL0     N33635   2.372   0.848   4.788 -0.6933  0.4958  0.0365
 1013MOL0     C33636   3.653   0.886   4.678 -0.5860  0.9307 -0.2412
 1013MOL0     C33637   3.770   0.889   4.757  0.1140  0.9823 -0.4230
 1013MOL0     C33638   4.184   1.074   4.862 -0.3642  0.0130 -0.0524
 1013MOL0     C33639   4.197   1.049   4.998 -0.4834  0.4161 -0.4317
 1013MOL0     C33640   4.326   1.057   5.057  0.1842 -0.4978  0.2372
 1013MOL0     C33641   4.439   1.102   4.995 -0.8593  1.2059 -0.2049
 1013MOL0     O33642   4.560   1.087   5.050  0.4891 -0.8142  0.7730
 1013MOL0     C33643   4.675   1.091   4.974 -0.4286 -0.3075  1.0066
 1013MOL0     C33644   4.797   1.119   5.060  0.0279  0.2865  0.1370
 1013MOL0     C33645   4.803   1.256   5.125  0.0481  0.3897 -0.2287
 1013MOL0     C33646   4.909   1.257   5.240  0.5909 -0.0385  0.0293
 1013MOL0     C33647   5.045   1.228   5.190 -0.0692 -0.0445  0.5476
 1013MOL0     C33648   5.152   1.209   5.128  0.0553 -0.9323  0.0742
 1013MOL0     C33649   4.422   1.125   4.859  0.2554 -1.1235  0.6018
 1013MOL0     C33650   4.308   1.101   4.792 -0.3691  0.1150 -0.3018
 1013MOL0     H33651   3.827   1.219   4.762  0.0679  1.7250 -1.7995
 1013MOL0     H33652   3.598   1.223   4.649 -2.8557 -2.0620 -0.3671
 1013MOL0     H33653   3.342   0.964   4.727 -3.1968  0.6968 -0.3304
 1013MOL0     H33654   3.380   0.825   4.635 -2.1894 -0.7192 -0.8300
 1013MOL0     H33655   3.236   0.912   4.453  0.0441  0.8528  0.5399
 1013MOL0     H33656   3.246   1.071   4.531  1.3469  0.3904  2.7132
 1013MOL0     H33657   3.126   0.972   4.734 -1.8968 -1.6354 -0.2011
 1013MOL0     H33658   3.083   0.837   4.637 -2.5564  0.0487  1.5977
 1013MOL0     H33659   3.027   1.136   4.587 -0.0045  0.4231 -0.9408
 1013MOL0     H33660   2.967   1.008   4.472 -1.7992 -0.7792 -0.0391
 1013MOL0     H33661   2.774   1.041   4.595 -1.0982 -0.6105  0.9279
 1013MOL0     H33662   2.872   1.088   4.740  2.0321 -0.2154  0.1951
 1013MOL0     H33663   2.901   0.831   4.777 -2.3140 -0.4100  3.3654
 1013MOL0     H33664   2.791   0.805   4.631 -2.2573  2.4911 -1.4189
 1013MOL0     H33665   2.684   0.777   4.849  1.7737 -0.7538 -3.4511
 1013MOL0     H33666   2.734   0.927   4.915 -1.1874  1.2053  0.3363
 1013MOL0     H33667   2.573   0.931   4.658  0.2378  0.4013  0.6101
 1013MOL0     H33668   2.596   1.063   4.775 -1.7593 -0.3598  1.0936
 1013MOL0     H33669   2.512   0.998   5.043  1.2152  0.7320 -0.1535
 1013MOL0     H33670   2.245   1.028   5.146 -4.1337 -0.9109  1.7623
 1013MOL0     H33671   2.335   0.897   5.214  0.2188 -2.2200 -1.2295
 1013MOL0     H33672   2.128   0.835   5.259 -0.6493 -1.2864  0.0369
 1013MOL0     H33673   2.150   0.736   5.116  2.2798 -0.1612  1.9327
 1013MOL0     H33674   2.005   1.017   5.127 -3.4188 -0.3176 -0.9634
 1013MOL0     H33675   2.043   0.927   4.981  4.3946 -1.1354  0.0350
 1013MOL0     H33676   1.812   0.902   5.061  0.1665  0.6369  1.1569
 1013MOL0     H33677   1.859   0.836   5.219  1.6223  0.7427  0.7349
 1013MOL0     H33678   1.640   0.791   5.007 -1.5010 -0.8641  1.0777
 1013MOL0     H33679   1.448   0.655   5.040  0.3190 -0.7167  2.4342
 1013MOL0     H33680   1.286   0.278   4.800  1.3416  1.1474  1.1654
 1013MOL0     H33681   1.083   0.141   4.762  0.8956 -1.4622  2.0500
 1013MOL0     H33682   0.953  -0.061   4.884 -0.6898 -3.2079 -2.6771
 1013MOL0     H33683   0.874   0.021   4.743  0.4543 -2.1572 -0.6797
 1013MOL0     H33684   0.655  -0.046   4.814 -0.2526 -2.3892 -1.4242
 1013MOL0     H33685   0.693  -0.039   4.977 -2.5619  1.0474 -0.3104
 1013MOL0     H33686   0.743  -0.262   4.979  0.2392  1.5074  0.4646
 1013MOL0     H33687   0.864  -0.246   4.847  0.9991  0.4295 -0.8800
 1013MOL0     H33688   0.658  -0.398   4.802  2.0493  0.9694  0.7183
 1013MOL0     H33689   0.567  -0.249   4.794  0.0417  1.2535 -0.0708
 1013MOL0     H33690   0.808  -0.288   4.599 -0.5835  0.2128 -1.9814
 1013MOL0     H33691   0.695  -0.174   4.605  2.6810  0.4103  0.3237
 1013MOL0     H33692   0.508  -0.339   4.563 -0.1236  0.4462 -1.5923
 1013MOL0     H33693   0.630  -0.466   4.582  1.1147 -0.2003 -0.9210
 1013MOL0     H33694   0.582  -0.269   4.345  1.0649  1.2866 -0.5673
 1013MOL0     H33695   0.723  -0.375   4.355 -0.4536 -1.0776  0.0539
 1013MOL0     H33696   0.551  -0.582   4.370 -0.5032  0.1047  0.5149
 1013MOL0     H33697   0.550  -0.498   4.215  3.6781  1.0423  0.8503
 1013MOL0     H33698   0.932   0.221   5.139  1.2511 -0.7387  1.0976
 1013MOL0     H33699   1.154   0.361   5.196 -0.1104 -0.4592  0.3179
 1013MOL0     H33700   1.708   0.303   5.076 -1.6684 -0.6511 -2.7320
 1013MOL0     H33701   1.884   0.439   5.091 -1.7524 -1.5862  2.0551
 1013MOL0     H33702   3.629   0.791   4.633  0.6022  0.0531  0.9071
 1013MOL0     H33703   3.829   0.803   4.788  1.5316  1.7264 -0.9567
 1013MOL0     H33704   4.109   1.025   5.057 -1.2587  0.2272 -1.6441
 1013MOL0     H33705   4.338   1.042   5.164 -2.4305  3.2920  1.2575
 1013MOL0     H33706   4.675   1.164   4.893  1.2114 -1.1673  0.1871
 1013MOL0     H33707   4.680   0.996   4.920  0.6443  1.7936 -2.9564
 1013MOL0     H33708   4.800   1.049   5.144  0.6783  3.3799  2.9012
 1013MOL0     H33709   4.876   1.101   4.986 -1.2980 -1.0139 -1.0405
 1013MOL0     H33710   4.705   1.265   5.172  1.1088 -1.8083  2.7420
 1013MOL0     H33711   4.829   1.335   5.054  1.0307 -0.0419 -0.3686
 1013MOL0     H33712   4.907   1.350   5.299  0.1359  0.9440 -1.4771
 1013MOL0     H33713   4.887   1.175   5.309  0.6798 -0.9917 -1.0602
 1013MOL0     H33714   5.249   1.211   5.082  0.2662  0.9279  0.4937
 1013MOL0     H33715   4.496   1.151   4.784  0.4505 -0.5839  0.9753
 1013MOL0     H33716   4.295   1.121   4.686 -1.5066  1.7126  0.1017
 1014MOL0     O33717  10.588   9.817   1.122 -0.2032  0.1487  0.0221
 1014MOL0     C33718  10.627   9.790   1.009 -0.0055  0.4980 -0.3666
 1014MOL0     O33719  10.560   9.811   0.893 -0.3781 -0.5830  0.2500
 1014MOL0     C33720  10.431   9.854   0.906 -0.2329  0.8504 -0.2593
 1014MOL0     C33721  10.333   9.756   0.882 -1.0617  0.4742  0.2602
 1014MOL0     C33722  10.198   9.791   0.880 -0.2139 -0.1842  0.4957
 1014MOL0     C33723  10.160   9.921   0.916 -0.0801  0.0714 -0.4737
 1014MOL0     O33724  10.019   9.952   0.910 -0.4308 -0.3729 -0.6564
 1014MOL0     C33725   9.953   9.919   1.037  0.7765 -0.5503  0.4420
 1014MOL0     C33726   9.798   9.948   1.008  1.4142 -0.2512  0.5548
 1014MOL0     C33727   9.709   9.887   1.119  0.3305 -0.3997 -0.0312
 1014MOL0     C33728   9.574   9.860   1.066  0.2669 -0.4689 -0.3238
 1014MOL0     C33729   9.496   9.760   1.160 -0.4466 -0.7732  0.5274
 1014MOL0     C33730   9.355   9.731   1.108  0.3509 -0.5875  0.6562
 1014MOL0     C33731   9.276   9.653   1.203  0.7245  0.0964 -0.0278
 1014MOL0     C33732   9.148   9.638   1.126  0.2956 -0.4644 -0.7203
 1014MOL0     N33733   9.039   9.593   1.220  0.0738  0.5568  0.3809
 1014MOL0     C33734   8.936   9.664   1.270  0.7970  0.0853 -0.0790
 1014MOL0     C33735   8.872   9.577   1.356  0.5334 -0.6928  0.0260
 1014MOL0     C33736   8.737   9.601   1.427  0.5054 -0.5708 -0.8228
 1014MOL0     C33737   8.627   9.494   1.407  0.4336  0.7402  0.9912
 1014MOL0     C33738   8.598   9.470   1.261  0.4088 -1.4410  0.1104
 1014MOL0     C33739   8.459   9.412   1.224 -0.6869  0.1322 -0.2651
 1014MOL0     O33740   8.360   9.503   1.277 -0.1365 -0.0992  0.9555
 1014MOL0     C33741   8.232   9.469   1.276  1.0220 -0.6535  0.3532
 1014MOL0     C33742   8.175   9.379   1.180  0.3145 -0.8625 -0.0674
 1014MOL0     C33743   8.040   9.374   1.180  0.5156  0.3147 -0.0442
 1014MOL0     C33744   7.951   9.419   1.278 -0.3545  0.9214  0.5250
 1014MOL0     C33745   7.806   9.391   1.268 -1.2154  0.3593  0.1387
 1014MOL0     O33746   7.724   9.475   1.339 -0.9024  0.1518  0.1256
 1014MOL0     C33747   7.603   9.429   1.382  0.8465 -0.5387  0.2412
 1014MOL0     C33748   7.515   9.542   1.391  0.4503  0.8148 -0.5610
 1014MOL0     C33749   7.378   9.511   1.422 -0.1081 -1.2690 -0.2407
 1014MOL0     C33750   7.337   9.384   1.453  0.3846 -0.0410 -0.1713
 1014MOL0     O33751   7.203   9.358   1.480  0.8473 -0.5315 -0.2311
 1014MOL0     C33752   7.165   9.282   1.597  0.0951 -0.6141  0.7182
 1014MOL0     C33753   7.199   9.368   1.724  0.1230  0.3827  0.9397
 1014MOL0     C33754   7.120   9.488   1.741  0.3456 -0.0477  0.6397
 1014MOL0     C33755   6.972   9.452   1.765  0.3633 -0.2223  0.5526
 1014MOL0     C33756   6.880   9.573   1.793 -0.6069  0.6767  0.8356
 1014MOL0     C33757   6.741   9.538   1.836 -0.0761 -1.0639  0.4702
 1014MOL0     C33758   6.657   9.664   1.847  0.6466  0.5051 -0.3775
 1014MOL0     C33759   6.509   9.638   1.883 -0.5067  0.3754  0.8923
 1014MOL0    Cl33760   6.493   9.571   2.033 -0.0752 -0.0324 -0.3224
 1014MOL0     C33761   7.432   9.283   1.443  0.8094  0.7786 -0.7414
 1014MOL0     C33762   7.562   9.300   1.404 -0.5918  0.4660 -0.5832
 1014MOL0     O33763   7.776   9.299   1.195 -0.6680  0.7127 -0.3734
 1014MOL0     C33764   8.009   9.507   1.371 -0.3570  0.7876  0.0113
 1014MOL0     C33765   8.143   9.537   1.368  0.7906  0.1155 -0.3890
 1014MOL0     N33766   8.956   9.472   1.376 -0.8566  0.3328 -0.3148
 1014MOL0     N33767   9.051   9.480   1.294  0.8790 -0.2186 -0.4223
 1014MOL0     C33768  10.255  10.020   0.946 -0.4277 -0.4820  0.4697
 1014MOL0     C33769  10.392   9.979   0.956  0.5575  0.2604 -0.1254
 1014MOL0     C33770  10.759   9.725   0.991 -0.5046 -0.3359  0.1718
 1014MOL0     C33771  10.836   9.669   1.095  0.1915  0.2414 -0.9077
 1014MOL0     C33772  10.974   9.625   1.081  0.3064  0.3348  0.1734
 1014MOL0     C33773  11.031   9.628   0.957  0.1211 -0.5743  0.3248
 1014MOL0     O33774  11.162   9.600   0.927  0.3260  0.6690 -0.5553
 1014MOL0     C33775  11.243   9.511   1.010 -0.0605 -0.7053 -0.1963
 1014MOL0     C33776  11.376   9.579   1.040 -0.5695 -0.7114 -0.9091
 1014MOL0     C33777  11.462   9.601   0.909  0.2676  0.6072 -1.4001
 1014MOL0     C33778  11.579   9.683   0.939 -0.4323 -0.1714  0.0142
 1014MOL0     C33779  11.669   9.610   1.032 -0.0817  0.6862 -0.1551
 1014MOL0     C33780  11.744   9.536   1.091 -1.0522  0.1738  0.0030
 1014MOL0     C33781  10.955   9.683   0.848  0.7036  0.9179 -0.4568
 1014MOL0     C33782  10.823   9.721   0.868  0.0662 -0.1775  0.7228
 1014MOL0     H33783  10.369   9.657   0.857  1.0233  1.2231  0.0113
 1014MOL0     H33784  10.123   9.713   0.875  1.8417 -2.2639  0.4054
 1014MOL0     H33785   9.984   9.983   1.120  1.1479 -1.1174  0.7533
 1014MOL0     H33786   9.960   9.812   1.061 -1.2059 -0.5090  1.3885
 1014MOL0     H33787   9.777   9.894   0.915  2.6832 -2.1929  1.3480
 1014MOL0     H33788   9.779  10.055   0.996  1.6587 -0.0033  2.1444
 1014MOL0     H33789   9.703   9.952   1.206  0.3130 -1.8060  1.0597
 1014MOL0     H33790   9.764   9.800   1.156  0.6980  0.1878  0.8316
 1014MOL0     H33791   9.523   9.957   1.061  0.8173 -0.1128  0.6465
 1014MOL0     H33792   9.574   9.822   0.963  4.4895 -0.0425 -0.6576
 1014MOL0     H33793   9.479   9.800   1.260 -0.5341 -2.1149  1.0686
 1014MOL0     H33794   9.556   9.670   1.175 -1.0301 -1.1319  0.6992
 1014MOL0     H33795   9.359   9.680   1.011  1.4469 -1.3677  1.1012
 1014MOL0     H33796   9.317   9.831   1.087 -0.6674 -0.8023  1.4137
 1014MOL0     H33797   9.321   9.557   1.228  2.4038  0.4354 -1.5104
 1014MOL0     H33798   9.257   9.719   1.289 -0.1872  0.3906 -0.4481
 1014MOL0     H33799   9.164   9.573   1.039  1.3433 -0.0392 -0.8664
 1014MOL0     H33800   9.111   9.734   1.088 -1.5483 -1.3114 -1.1980
 1014MOL0     H33801   8.907   9.763   1.236 -0.3122 -0.8356 -1.9901
 1014MOL0     H33802   8.694   9.696   1.394 -0.5804 -0.9552 -0.5753
 1014MOL0     H33803   8.762   9.612   1.533 -0.6998 -1.1080 -0.4657
 1014MOL0     H33804   8.539   9.523   1.464  0.2214 -1.0633  1.6524
 1014MOL0     H33805   8.657   9.398   1.449 -1.0422  0.2543  0.9688
 1014MOL0     H33806   8.611   9.566   1.210 -1.7150 -1.8489 -1.3705
 1014MOL0     H33807   8.675   9.402   1.223  1.0600 -0.7648  0.2026
 1014MOL0     H33808   8.452   9.312   1.268 -0.2393 -0.3039 -1.1652
 1014MOL0     H33809   8.456   9.408   1.115  0.0496  1.5244 -0.3653
 1014MOL0     H33810   8.248   9.338   1.111  1.9715  0.8598  0.5720
 1014MOL0     H33811   7.995   9.314   1.101 -2.4279  0.0597  1.6583
 1014MOL0     H33812   7.548   9.644   1.373  1.4300  0.2685 -2.0812
 1014MOL0     H33813   7.293   9.577   1.427 -1.8186 -3.4302  3.6354
 1014MOL0     H33814   7.212   9.184   1.602 -0.8195 -1.0171  1.6856
 1014MOL0     H33815   7.058   9.263   1.587 -0.3174  1.3368  0.9546
 1014MOL0     H33816   7.303   9.402   1.710 -0.6128  1.7028 -2.0374
 1014MOL0     H33817   7.201   9.298   1.808  0.4486 -0.2816  0.3830
 1014MOL0     H33818   7.140   9.555   1.657 -0.8712  0.9106  1.0879
 1014MOL0     H33819   7.158   9.533   1.833 -0.1116  0.7716  0.4362
 1014MOL0     H33820   6.921   9.396   1.686  0.5706 -1.0162  0.9724
 1014MOL0     H33821   6.970   9.386   1.852  1.2892  0.0891  0.8161
 1014MOL0     H33822   6.878   9.628   1.699  2.9737 -2.5361 -1.4300
 1014MOL0     H33823   6.921   9.635   1.873  2.4909  0.5701 -0.5538
 1014MOL0     H33824   6.737   9.465   1.918  1.9078 -3.4666 -1.4028
 1014MOL0     H33825   6.696   9.480   1.755 -1.7067 -0.6422  1.0301
 1014MOL0     H33826   6.700   9.732   1.921  1.3836  0.7972 -1.0588
 1014MOL0     H33827   6.664   9.718   1.752 -1.2865  1.7805  0.1550
 1014MOL0     H33828   6.472   9.571   1.805 -1.0471  3.7794 -2.0376
 1014MOL0     H33829   6.453   9.732   1.883 -0.2200  0.5612 -0.4596
 1014MOL0     H33830   7.392   9.184   1.464 -2.0888  2.2914  1.4850
 1014MOL0     H33831   7.642   9.227   1.413  0.1116  1.4425  2.1917
 1014MOL0     H33832   7.950   9.544   1.455  1.7942  1.0095  1.4988
 1014MOL0     H33833   8.192   9.604   1.437  1.2124 -1.5072  0.9633
 1014MOL0     H33834  10.220  10.115   0.983  2.6263  0.5481  1.0106
 1014MOL0     H33835  10.459  10.056   0.991  1.8055 -1.2371  0.9348
 1014MOL0     H33836  10.782   9.685   1.188 -2.2615  0.2283 -2.2360
 1014MOL0     H33837  11.029   9.582   1.165 -0.7687 -1.1019  0.1736
 1014MOL0     H33838  11.237   9.420   0.950  0.2110 -1.6892  1.2372
 1014MOL0     H33839  11.208   9.487   1.111  1.7024  0.8093  0.8309
 1014MOL0     H33840  11.346   9.668   1.095 -1.1744 -1.0007 -0.7565
 1014MOL0     H33841  11.432   9.519   1.112  3.6209  3.2158 -0.5175
 1014MOL0     H33842  11.401   9.649   0.832 -1.1320  1.8590  0.4071
 1014MOL0     H33843  11.487   9.501   0.870 -0.2277 -0.4949  0.9270
 1014MOL0     H33844  11.634   9.694   0.845 -1.1549  1.3189 -0.2635
 1014MOL0     H33845  11.543   9.779   0.979  0.4283 -0.2233  0.9446
 1014MOL0     H33846  11.806   9.465   1.141  0.5436  3.0337  2.4462
 1014MOL0     H33847  11.002   9.693   0.751  0.3580  0.7876 -0.6390
 1014MOL0     H33848  10.776   9.744   0.773 -0.9247 -0.4126  1.1435
 1015MOL0     O33849   5.774   8.067  10.769  0.7520 -0.1457  0.4148
 1015MOL0     C33850   5.866   7.990  10.746  1.0737 -0.5547 -0.2896
 1015MOL0     O33851   5.869   7.897  10.650 -0.0100  0.1804  0.1556
 1015MOL0     C33852   5.783   7.887  10.551  0.5069  0.3661 -0.4426
 1015MOL0     C33853   5.744   7.996  10.473  0.4725 -0.3574 -0.0781
 1015MOL0     C33854   5.666   7.979  10.360  0.7427  0.6959  1.1289
 1015MOL0     C33855   5.619   7.851  10.325  0.3878  0.0058  0.3564
 1015MOL0     O33856   5.559   7.816  10.201 -0.1465 -0.4350 -0.5700
 1015MOL0     C33857   5.441   7.884  10.159  0.4287  0.9967  0.5034
 1015MOL0     C33858   5.331   7.782  10.155 -0.3753 -0.7396  0.5998
 1015MOL0     C33859   5.195   7.837  10.113  0.2289 -0.6803  0.8644
 1015MOL0     C33860   5.104   7.719  10.116 -0.9447 -0.1376  0.0665
 1015MOL0     C33861   4.972   7.777  10.094  0.6008  0.2119 -0.6327
 1015MOL0     C33862   4.854   7.681  10.047  0.2074  0.0648 -0.1096
 1015MOL0     C33863   4.783   7.606  10.162  0.2551 -0.1991 -0.3177
 1015MOL0     C33864   4.864   7.476  10.187  0.1989  0.7305  0.3585
 1015MOL0     N33865   4.843   7.383  10.075 -0.0536  0.3934  0.0184
 1015MOL0     C33866   4.728   7.329  10.019  0.1685 -0.3850  0.4299
 1015MOL0     C33867   4.771   7.243   9.927 -0.8148  0.0984  0.4149
 1015MOL0     C33868   4.666   7.163   9.854 -0.2173  0.0891  0.6069
 1015MOL0     C33869   4.696   7.163   9.703 -0.1212  0.1079 -0.0767
 1015MOL0     C33870   4.602   7.072   9.622 -0.2285 -0.4045  0.3501
 1015MOL0     C33871   4.617   6.920   9.637  0.5331 -0.1308  0.0255
 1015MOL0     O33872   4.704   6.862   9.544 -0.5936  1.1708 -0.1362
 1015MOL0     C33873   4.665   6.818   9.414 -0.0202 -0.5589 -0.5751
 1015MOL0     C33874   4.747   6.741   9.340  0.4796 -0.7035  0.3734
 1015MOL0     C33875   4.715   6.694   9.216 -0.5261 -0.4042 -0.2858
 1015MOL0     C33876   4.582   6.712   9.163  0.0319 -1.0080 -0.4499
 1015MOL0     C33877   4.551   6.658   9.030  0.2503 -0.5526  0.2596
 1015MOL0     O33878   4.418   6.677   8.985 -0.5268 -0.4151 -0.4356
 1015MOL0     C33879   4.379   6.591   8.882 -0.5766 -0.1878 -0.1789
 1015MOL0     C33880   4.299   6.482   8.903  0.6856 -0.4457 -0.3735
 1015MOL0     C33881   4.268   6.400   8.791 -0.4942 -0.2203 -0.5776
 1015MOL0     C33882   4.301   6.434   8.662 -0.1111  0.9315 -0.2425
 1015MOL0     O33883   4.262   6.352   8.555 -0.5687 -1.2728 -0.2209
 1015MOL0     C33884   4.344   6.354   8.437 -0.0762  0.9874  0.2838
 1015MOL0     C33885   4.308   6.236   8.344 -0.1404 -0.8063 -0.8095
 1015MOL0     C33886   4.339   6.089   8.384  0.1973 -0.3479 -0.5804
 1015MOL0     C33887   4.266   5.981   8.304 -0.0982 -1.1314  0.5308
 1015MOL0     C33888   4.229   5.858   8.399  0.0690 -0.0609  0.2209
 1015MOL0     C33889   4.143   5.753   8.337  0.7146 -0.7665 -0.2029
 1015MOL0     C33890   4.002   5.807   8.291  0.0392  0.0421 -0.1379
 1015MOL0     C33891   3.914   5.689   8.237 -0.1848 -0.3052  0.3694
 1015MOL0    Cl33892   3.801   5.736   8.116 -0.0639 -0.2303 -0.4204
 1015MOL0     C33893   4.377   6.552   8.643 -0.5077  0.6953 -0.0867
 1015MOL0     C33894   4.419   6.622   8.753  0.2345 -0.4142 -0.4765
 1015MOL0     O33895   4.637   6.592   8.963  0.8902 -0.4218 -0.3035
 1015MOL0     C33896   4.495   6.796   9.244 -1.1339 -0.2706 -0.1427
 1015MOL0     C33897   4.533   6.845   9.365 -0.5591 -0.0602 -0.2736
 1015MOL0     N33898   4.913   7.241   9.920  0.4115 -0.3640 -0.9731
 1015MOL0     N33899   4.950   7.334  10.004  0.1927  0.2768  0.1155
 1015MOL0     C33900   5.641   7.742  10.410 -0.8380 -0.1432 -0.4615
 1015MOL0     C33901   5.734   7.759  10.515 -0.9975  0.0106  0.2390
 1015MOL0     C33902   5.984   7.992  10.838 -0.1383 -0.2449 -0.4402
 1015MOL0     C33903   6.117   7.977  10.788  0.2374 -0.1159  0.7041
 1015MOL0     C33904   6.224   7.972  10.876  0.2979  0.1548  0.2994
 1015MOL0     C33905   6.197   7.988  11.019  0.2355  0.0352 -1.1612
 1015MOL0     O33906   6.291   8.014  11.113 -0.2909  0.3437  0.0554
 1015MOL0     C33907   6.418   7.950  11.088 -0.2525 -0.0227 -0.1462
 1015MOL0     C33908   6.507   7.977  11.209 -0.1214  0.6337 -0.4165
 1015MOL0     C33909   6.645   7.905  11.211 -0.5303 -0.7762  0.4060
 1015MOL0     C33910   6.671   7.791  11.122  0.0283  0.1430 -0.6847
 1015MOL0     C33911   6.690   7.817  10.980  0.6017 -0.5352  0.0999
 1015MOL0     C33912   6.714   7.836  10.857  0.3504 -0.3982  0.3751
 1015MOL0     C33913   6.066   8.005  11.065  0.8123 -0.2530  0.7742
 1015MOL0     C33914   5.964   8.019  10.974 -0.0132  0.4271 -0.9493
 1015MOL0     H33915   5.796   8.090  10.486  2.9627 -1.3374 -2.2134
 1015MOL0     H33916   5.647   8.073  10.309  0.2543  0.5216  0.9782
 1015MOL0     H33917   5.456   7.921  10.057  1.6488  0.7291  0.5821
 1015MOL0     H33918   5.414   7.965  10.228  0.8770  0.1946  1.6491
 1015MOL0     H33919   5.333   7.737  10.255  0.6233 -1.0313  0.4637
 1015MOL0     H33920   5.363   7.698  10.091  0.1243 -0.9067  1.0607
 1015MOL0     H33921   5.200   7.870  10.009  2.5721 -1.8265  0.5428
 1015MOL0     H33922   5.158   7.920  10.174 -1.1779 -2.0503  1.9658
 1015MOL0     H33923   5.122   7.652  10.032  0.2073 -1.1685  1.0854
 1015MOL0     H33924   5.120   7.653  10.202 -1.0398 -0.9809 -0.5487
 1015MOL0     H33925   4.974   7.858  10.022  0.4094 -1.1066 -2.1847
 1015MOL0     H33926   4.948   7.824  10.190  0.1003 -1.2271 -0.0140
 1015MOL0     H33927   4.887   7.604   9.976 -3.1063 -3.2229  1.5878
 1015MOL0     H33928   4.785   7.743   9.990 -0.6377 -0.7419  0.0149
 1015MOL0     H33929   4.784   7.668  10.252 -2.7014 -1.2855  0.5547
 1015MOL0     H33930   4.680   7.584  10.133 -0.0956  1.1272 -0.1307
 1015MOL0     H33931   4.835   7.421  10.276  0.0064  0.0109 -0.1415
 1015MOL0     H33932   4.966   7.517  10.198  0.4145  2.1294 -4.4625
 1015MOL0     H33933   4.624   7.340  10.048  0.3305  0.1397  0.8268
 1015MOL0     H33934   4.563   7.195   9.871 -0.8340 -0.9415 -0.9409
 1015MOL0     H33935   4.670   7.057   9.882 -2.2366 -0.2380 -0.1694
 1015MOL0     H33936   4.801   7.137   9.690 -0.5969 -1.0406 -2.1099
 1015MOL0     H33937   4.671   7.262   9.663  0.4035  1.1342  2.0034
 1015MOL0     H33938   4.500   7.099   9.651 -0.7031 -1.2337 -0.5231
 1015MOL0     H33939   4.611   7.092   9.515  0.7036 -1.9682  0.1186
 1015MOL0     H33940   4.517   6.878   9.627  1.4377 -3.4292  2.8085
 1015MOL0     H33941   4.656   6.896   9.737  2.2613  2.1628 -0.0031
 1015MOL0     H33942   4.847   6.714   9.372  1.4230  2.1862  0.1321
 1015MOL0     H33943   4.791   6.633   9.168  0.3122 -0.2278  0.7757
 1015MOL0     H33944   4.264   6.465   9.004  2.1002 -0.2640  0.1802
 1015MOL0     H33945   4.200   6.315   8.797  0.8515 -1.3583 -0.8851
 1015MOL0     H33946   4.451   6.351   8.454 -0.3628 -0.0161  2.1450
 1015MOL0     H33947   4.332   6.449   8.384  1.5032  0.7339 -0.5806
 1015MOL0     H33948   4.360   6.246   8.248  3.2268 -0.6990  0.8700
 1015MOL0     H33949   4.200   6.253   8.337  0.0447  1.1043  0.1465
 1015MOL0     H33950   4.305   6.071   8.486  0.9389  1.9955  0.1380
 1015MOL0     H33951   4.447   6.075   8.382  0.3485  0.5746  0.3678
 1015MOL0     H33952   4.175   6.022   8.258  0.6995 -3.1169 -3.2316
 1015MOL0     H33953   4.320   5.947   8.216 -1.3849  1.9539 -1.6462
 1015MOL0     H33954   4.184   5.903   8.488  0.9730 -1.3897  1.3941
 1015MOL0     H33955   4.321   5.802   8.418 -0.6097 -1.0348  0.7820
 1015MOL0     H33956   4.128   5.670   8.407 -1.9772  0.4033  0.7565
 1015MOL0     H33957   4.199   5.702   8.259  1.7593  1.7225 -1.1751
 1015MOL0     H33958   3.962   5.866   8.374  0.4985  0.7640 -0.4176
 1015MOL0     H33959   4.009   5.873   8.204 -2.5292  1.2722  0.4837
 1015MOL0     H33960   3.863   5.651   8.326  3.0045  2.8963  3.9532
 1015MOL0     H33961   3.968   5.605   8.193 -1.5179 -1.0032 -0.0188
 1015MOL0     H33962   4.391   6.588   8.542 -1.3077 -2.3346 -1.4025
 1015MOL0     H33963   4.481   6.711   8.745 -1.3219  1.1378  3.0439
 1015MOL0     H33964   4.401   6.837   9.209 -0.5328  0.7507 -0.5915
 1015MOL0     H33965   4.453   6.891   9.421 -0.2431 -0.4835  0.5435
 1015MOL0     H33966   5.611   7.639  10.391 -0.5442  0.0146 -1.9205
 1015MOL0     H33967   5.754   7.681  10.588 -0.7810  0.7809  1.0299
 1015MOL0     H33968   6.138   7.979  10.681  0.3861  1.3308  0.7382
 1015MOL0     H33969   6.322   7.963  10.831  0.5325 -0.2241  0.8665
 1015MOL0     H33970   6.477   7.986  11.003  3.0961 -1.9333  1.1777
 1015MOL0     H33971   6.407   7.842  11.083 -1.7836 -0.0562  2.4104
 1015MOL0     H33972   6.531   8.083  11.223  6.5352 -0.2752 -1.7124
 1015MOL0     H33973   6.448   7.935  11.291  1.8671 -0.1397  0.6668
 1015MOL0     H33974   6.645   7.872  11.315 -4.1181  1.6146  1.3600
 1015MOL0     H33975   6.727   7.978  11.207 -0.4093 -0.8180  1.5712
 1015MOL0     H33976   6.770   7.774  11.167  0.8287  2.6235 -1.3360
 1015MOL0     H33977   6.602   7.711  11.152  0.5444  0.1462  0.6019
 1015MOL0     H33978   6.756   7.830  10.759  1.4328  3.9059  0.3799
 1015MOL0     H33979   6.041   8.024  11.169  1.7167  2.4560  0.5674
 1015MOL0     H33980   5.861   8.037  11.003  0.0137 -0.3337 -0.3440
 1016MOL0     O33981   3.682   0.176  10.951  0.3648 -0.5257 -0.1489
 1016MOL0     C33982   3.727   0.289  10.897 -0.4517 -0.3564  0.2266
 1016MOL0     O33983   3.661   0.366  10.820 -0.6712 -0.5351  0.6593
 1016MOL0     C33984   3.534   0.329  10.790 -1.1147  0.9173  0.0391
 1016MOL0     C33985   3.521   0.218  10.707 -0.7695 -0.4366 -0.3057
 1016MOL0     C33986   3.391   0.170  10.674  0.3287  0.4563  0.2369
 1016MOL0     C33987   3.274   0.235  10.716  0.2357 -0.2589  0.7099
 1016MOL0     O33988   3.143   0.199  10.687 -0.1513 -0.6636  0.5574
 1016MOL0     C33989   3.117   0.073  10.611 -0.1365  0.7940  0.2742
 1016MOL0     C33990   2.964   0.055  10.603  0.3365 -1.0512 -0.0485
 1016MOL0     C33991   2.912   0.158  10.503  0.2333  0.0978  0.4723
 1016MOL0     C33992   2.758   0.175  10.480  0.6102 -0.3748  0.6124
 1016MOL0     C33993   2.721   0.260  10.357  0.2143  0.4529  0.4871
 1016MOL0     C33994   2.581   0.297  10.358 -0.2500  0.2335  0.7006
 1016MOL0     C33995   2.538   0.348  10.216 -0.4675  0.8379 -0.3945
 1016MOL0     C33996   2.401   0.414  10.201 -0.2802  0.0611  0.1167
 1016MOL0     N33997   2.293   0.323  10.247 -0.0907  0.9894 -0.2017
 1016MOL0     C33998   2.256   0.293  10.378  0.7643 -0.5682 -0.1181
 1016MOL0     C33999   2.137   0.227  10.370 -0.0438  0.5292  0.0208
 1016MOL0     C34000   2.047   0.194  10.486  0.1844  0.0332 -0.1404
 1016MOL0     C34001   1.981   0.312  10.557  0.5957 -0.4495  0.3904
 1016MOL0     C34002   1.931   0.417  10.453  0.2380 -0.5893 -0.5143
 1016MOL0     C34003   1.787   0.394  10.430 -0.2413 -0.0423 -0.1906
 1016MOL0     O34004   1.718   0.399  10.556 -0.2283  0.1717  1.2631
 1016MOL0     C34005   1.594   0.454  10.576 -0.0317  0.8409  0.2746
 1016MOL0     C34006   1.542   0.466  10.708  0.2187  0.4671 -0.9120
 1016MOL0     C34007   1.411   0.515  10.730  0.3646  0.2526  0.4306
 1016MOL0     C34008   1.337   0.564  10.617 -0.8104  0.7253 -0.3800
 1016MOL0     C34009   1.193   0.594  10.627  0.2111 -0.5086  0.6414
 1016MOL0     O34010   1.130   0.593  10.757 -0.7808  0.3953 -0.3183
 1016MOL0     C34011   0.993   0.610  10.764  0.3997 -0.8634 -0.2139
 1016MOL0     C34012   0.905   0.532  10.682 -0.3026 -0.1058 -0.5346
 1016MOL0     C34013   0.768   0.536  10.719 -0.1837  0.3901 -0.4388
 1016MOL0     C34014   0.728   0.613  10.826  1.4067 -0.2419 -0.3149
 1016MOL0     O34015   0.595   0.614  10.870 -0.5922  0.0862  0.1658
 1016MOL0     C34016   0.480   0.627  10.774  0.3971 -0.5752  0.0258
 1016MOL0     C34017   0.416   0.490  10.760 -0.4414 -0.4811 -0.1041
 1016MOL0     C34018   0.348   0.438  10.880 -0.2087 -0.3055 -0.2512
 1016MOL0     C34019   0.236   0.531  10.915  0.3373 -0.4898  0.4866
 1016MOL0     C34020   0.173   0.469  11.039 -0.0435  0.8958 -0.1491
 1016MOL0     C34021   0.092   0.341  10.999  0.2787 -0.0010 -0.3051
 1016MOL0     C34022   0.009   0.310  11.124 -0.0847  0.4795 -0.6754
 1016MOL0     C34023  -0.083   0.185  11.116  0.0765 -0.0541  0.8605
 1016MOL0    Cl34024  -0.154   0.150  11.272  0.0700  0.1485 -0.2473
 1016MOL0     C34025   0.820   0.690  10.906 -0.8424 -0.6361  0.2859
 1016MOL0     C34026   0.948   0.699  10.867 -0.1067 -0.7370 -0.2374
 1016MOL0     O34027   1.139   0.623  10.519 -0.4613  0.8352 -0.5785
 1016MOL0     C34028   1.398   0.557  10.487  0.0081 -0.4806  0.2236
 1016MOL0     C34029   1.516   0.487  10.466 -0.8080 -0.3785  0.0372
 1016MOL0     N34030   2.106   0.219  10.235 -0.7209  0.0219 -0.2863
 1016MOL0     N34031   2.195   0.266  10.163 -0.7268 -0.0318  0.2177
 1016MOL0     C34032   3.289   0.358  10.797 -0.1139  0.9145  0.7230
 1016MOL0     C34033   3.422   0.400  10.827 -0.4262  0.2412 -0.4857
 1016MOL0     C34034   3.866   0.320  10.928 -0.8294 -0.9083  0.0308
 1016MOL0     C34035   3.940   0.415  10.853  0.1410 -0.1407  1.0570
 1016MOL0     C34036   4.076   0.450  10.875  0.2833 -0.4314 -0.2455
 1016MOL0     C34037   4.143   0.377  10.975  0.0295 -0.1760 -0.4366
 1016MOL0     O34038   4.277   0.417  11.011  0.3325  0.6264 -0.0518
 1016MOL0     C34039   4.323   0.383  11.140 -0.0627 -0.8184  0.1246
 1016MOL0     C34040   4.451   0.452  11.180 -0.3720  0.2646  0.2486
 1016MOL0     C34041   4.575   0.371  11.140 -1.2323 -0.8799  0.2578
 1016MOL0     C34042   4.700   0.433  11.208 -0.5479  0.2435  0.0410
 1016MOL0     C34043   4.744   0.572  11.167 -0.4489  0.0389 -0.2741
 1016MOL0     C34044   4.780   0.689  11.154  0.7847  0.2504 -0.0936
 1016MOL0     C34045   4.068   0.288  11.059  0.8162 -0.3239  1.0139
 1016MOL0     C34046   3.929   0.259  11.038 -0.0979  0.0125  0.8863
 1016MOL0     H34047   3.611   0.165  10.678 -1.7089 -1.0948 -2.1790
 1016MOL0     H34048   3.381   0.072  10.630 -2.7025 -0.0829  1.8679
 1016MOL0     H34049   3.157  -0.006  10.674 -1.0594  0.4552  0.4509
 1016MOL0     H34050   3.166   0.067  10.514  4.5765 -0.9184  2.4555
 1016MOL0     H34051   2.917   0.075  10.700 -0.3534 -0.3150 -0.5219
 1016MOL0     H34052   2.959  -0.052  10.581 -0.5174 -1.7400  3.0082
 1016MOL0     H34053   2.963   0.155  10.407  3.9583 -1.5259  2.2951
 1016MOL0     H34054   2.944   0.250  10.554  1.5026 -0.8966  1.5647
 1016MOL0     H34055   2.704   0.081  10.467 -2.2379  1.4454 -2.0414
 1016MOL0     H34056   2.726   0.221  10.574  0.3268  1.0170 -0.1321
 1016MOL0     H34057   2.745   0.205  10.266 -2.1432  0.6496 -0.3331
 1016MOL0     H34058   2.775   0.355  10.362  0.9952  0.4100 -3.8478
 1016MOL0     H34059   2.577   0.375  10.436  1.3333  1.1845 -0.0979
 1016MOL0     H34060   2.520   0.212  10.386  2.4550 -1.6986  1.1624
 1016MOL0     H34061   2.612   0.419  10.177  0.1471  0.0010 -0.7588
 1016MOL0     H34062   2.537   0.261  10.151 -0.4597  1.1456 -0.8107
 1016MOL0     H34063   2.401   0.415  10.091  1.9960 -3.0591 -0.0444
 1016MOL0     H34064   2.400   0.519  10.232  1.8639  0.5649 -1.2707
 1016MOL0     H34065   2.302   0.329  10.469 -0.7586 -0.7036  0.7467
 1016MOL0     H34066   2.109   0.135  10.554 -0.0227 -1.1361 -0.9240
 1016MOL0     H34067   1.974   0.127  10.439 -1.3506  3.2443 -2.7828
 1016MOL0     H34068   2.054   0.358  10.625 -0.6838  1.4238  0.5971
 1016MOL0     H34069   1.899   0.280  10.621  1.1089  0.8792  1.7866
 1016MOL0     H34070   1.934   0.509  10.510 -0.0982 -3.2893  4.3926
 1016MOL0     H34071   1.985   0.425  10.358  0.0348 -0.6460 -0.6361
 1016MOL0     H34072   1.780   0.291  10.393  2.0984 -0.6683  0.9165
 1016MOL0     H34073   1.743   0.455  10.351  0.4066  2.1772  1.0862
 1016MOL0     H34074   1.599   0.443  10.798 -0.1385  1.3840 -0.4328
 1016MOL0     H34075   1.365   0.508  10.828 -0.1269 -1.3099  0.1222
 1016MOL0     H34076   0.932   0.459  10.607  0.1759  0.1932 -0.6594
 1016MOL0     H34077   0.700   0.480  10.655  0.8005  2.4314 -3.4994
 1016MOL0     H34078   0.506   0.674  10.679 -0.1233  3.8812  1.8710
 1016MOL0     H34079   0.411   0.699  10.820 -0.9439 -1.1614 -1.0121
 1016MOL0     H34080   0.498   0.420  10.741  1.5740  1.4741  1.0789
 1016MOL0     H34081   0.349   0.494  10.674  0.5426  1.7786 -0.8349
 1016MOL0     H34082   0.424   0.426  10.958  0.5617  0.3768 -0.8829
 1016MOL0     H34083   0.311   0.341  10.845  0.5099 -0.8556  0.4676
 1016MOL0     H34084   0.272   0.631  10.940  1.2391 -0.3062 -1.3445
 1016MOL0     H34085   0.171   0.539  10.827  2.3995  0.6347 -1.0024
 1016MOL0     H34086   0.120   0.548  11.093  4.1863  1.8344  3.1503
 1016MOL0     H34087   0.254   0.452  11.110  1.9015  1.1786 -2.2063
 1016MOL0     H34088   0.146   0.251  10.969 -1.1812 -1.7590  1.9524
 1016MOL0     H34089   0.020   0.369  10.921  0.4560  0.2483 -0.3774
 1016MOL0     H34090   0.081   0.295  11.204  0.0381  2.2117 -0.4363
 1016MOL0     H34091  -0.062   0.389  11.150 -3.0727 -2.2785  0.1694
 1016MOL0     H34092  -0.020   0.105  11.075 -0.6664  0.7577 -2.1123
 1016MOL0     H34093  -0.155   0.211  11.039  0.4958  1.0775  0.8410
 1016MOL0     H34094   0.775   0.730  10.996  1.7819  2.1969  0.5001
 1016MOL0     H34095   1.011   0.771  10.919 -1.5322 -0.3040  0.9267
 1016MOL0     H34096   1.353   0.601  10.399  0.6877  1.1283  0.6408
 1016MOL0     H34097   1.551   0.476  10.364  0.9240  3.2297  0.0614
 1016MOL0     H34098   3.200   0.407  10.833 -0.2633  1.3737 -0.2296
 1016MOL0     H34099   3.435   0.489  10.888 -2.6387 -1.8138  3.4048
 1016MOL0     H34100   3.891   0.482  10.783 -0.5832  1.7091  3.1938
 1016MOL0     H34101   4.127   0.537  10.835  2.2269 -0.8253  1.2244
 1016MOL0     H34102   4.333   0.275  11.155 -0.0673 -0.5990  1.9695
 1016MOL0     H34103   4.249   0.436  11.201  1.8715  1.3818  0.6685
 1016MOL0     H34104   4.459   0.556  11.146  1.2358  0.1792  0.3055
 1016MOL0     H34105   4.443   0.460  11.289 -0.1032  0.4217  0.2562
 1016MOL0     H34106   4.586   0.378  11.032 -0.4355  1.2483  0.4245
 1016MOL0     H34107   4.566   0.267  11.175 -1.5200 -0.3601  1.8144
 1016MOL0     H34108   4.683   0.427  11.316 -0.8979 -0.8489 -0.0616
 1016MOL0     H34109   4.785   0.369  11.187  0.1301  1.3642 -0.7730
 1016MOL0     H34110   4.803   0.792  11.166  2.3603 -0.1194  0.2131
 1016MOL0     H34111   4.120   0.252  11.147  0.5163  0.9892  1.7587
 1016MOL0     H34112   3.885   0.189  11.107 -0.2912 -0.3004  0.4524
 1017MOL0     O34113   4.055   7.607   6.319  0.0159 -1.0898 -0.7072
 1017MOL0     C34114   4.101   7.491   6.305  0.1783 -0.0089 -0.8740
 1017MOL0     O34115   4.019   7.375   6.328  0.5886 -0.8043 -0.6991
 1017MOL0     C34116   3.895   7.398   6.375  0.5694  0.1409 -1.0351
 1017MOL0     C34117   3.800   7.431   6.288  0.8341  0.2229  0.5277
 1017MOL0     C34118   3.665   7.435   6.321 -0.1368  0.0235 -0.2701
 1017MOL0     C34119   3.621   7.410   6.452  0.8336  0.6955 -0.1687
 1017MOL0     O34120   3.484   7.407   6.490 -0.0897  0.3024 -0.0318
 1017MOL0     C34121   3.392   7.363   6.384 -0.4243  0.3269  0.0408
 1017MOL0     C34122   3.407   7.213   6.347  0.0305  0.3399  0.6225
 1017MOL0     C34123   3.369   7.119   6.470 -0.6187  0.2102 -0.0686
 1017MOL0     C34124   3.229   7.143   6.518  0.1158 -0.0407 -0.0944
 1017MOL0     C34125   3.194   7.049   6.640  0.4118 -0.7496 -0.3612
 1017MOL0     C34126   3.075   7.104   6.717  0.5221 -0.7153  0.2393
 1017MOL0     C34127   3.023   7.006   6.829  0.6306  0.3959 -0.3344
 1017MOL0     C34128   2.948   6.881   6.775  0.1481 -0.1761  1.1910
 1017MOL0     N34129   2.840   6.911   6.685 -0.3733  0.1043 -0.0082
 1017MOL0     C34130   2.723   6.954   6.719  0.4929  0.6502 -0.3266
 1017MOL0     C34131   2.655   6.972   6.603 -0.1596  0.1220  0.1625
 1017MOL0     C34132   2.511   7.002   6.600  0.5984  0.3063 -0.8031
 1017MOL0     C34133   2.465   7.023   6.456 -0.4984  0.7615 -0.4260
 1017MOL0     C34134   2.313   7.039   6.440  0.7366 -0.5877 -0.8381
 1017MOL0     C34135   2.251   6.940   6.345  0.3951 -0.4571  0.1995
 1017MOL0     O34136   2.108   6.959   6.346  0.2862 -0.3607  0.8942
 1017MOL0     C34137   2.036   6.913   6.233  0.2360  1.1288 -0.8901
 1017MOL0     C34138   2.086   6.840   6.133  0.5604  0.4489  1.0296
 1017MOL0     C34139   2.007   6.798   6.032 -0.8845  0.7247  0.4892
 1017MOL0     C34140   1.869   6.812   6.034  0.7028 -0.3990  0.9481
 1017MOL0     C34141   1.780   6.747   5.938 -0.5867  0.5817  0.4390
 1017MOL0     O34142   1.648   6.755   5.957  0.3999 -0.6276 -0.7483
 1017MOL0     C34143   1.544   6.697   5.888  0.4711  0.2175 -0.7948
 1017MOL0     C34144   1.410   6.747   5.896  0.7151  0.0931 -0.5345
 1017MOL0     C34145   1.309   6.687   5.817 -0.2596 -0.1193 -0.0996
 1017MOL0     C34146   1.321   6.567   5.759  1.3801 -0.4543  0.0270
 1017MOL0     O34147   1.217   6.510   5.688  0.6794  0.6205  0.3677
 1017MOL0     C34148   1.203   6.375   5.698 -0.2459  0.1866 -0.8339
 1017MOL0     C34149   1.055   6.340   5.732 -0.1411 -0.4392 -0.3484
 1017MOL0     C34150   1.030   6.379   5.879 -0.5831 -0.2918  0.8099
 1017MOL0     C34151   0.879   6.385   5.916 -0.7247  0.6206 -0.5814
 1017MOL0     C34152   0.808   6.241   5.922  0.2663  0.3369 -0.0791
 1017MOL0     C34153   0.801   6.191   6.063 -0.9220  0.5229 -1.1234
 1017MOL0     C34154   0.701   6.265   6.154  0.4757  0.0776  0.0847
 1017MOL0     C34155   0.641   6.174   6.267  0.5702 -0.0412 -0.6444
 1017MOL0    Cl34156   0.784   6.146   6.376 -0.5599  0.1028 -0.1394
 1017MOL0     C34157   1.453   6.512   5.754 -0.3604 -0.8078 -0.2815
 1017MOL0     C34158   1.558   6.568   5.829  0.1015 -0.2821  0.1965
 1017MOL0     O34159   1.840   6.684   5.851  0.4330  0.0263 -0.2805
 1017MOL0     C34160   1.817   6.881   6.142  0.0190 -0.2208  0.1680
 1017MOL0     C34161   1.900   6.938   6.237 -0.6244 -0.5629  0.4892
 1017MOL0     N34162   2.743   6.936   6.500 -0.6037  0.0399  0.3906
 1017MOL0     N34163   2.857   6.907   6.553 -0.2998  0.1324  0.8054
 1017MOL0     C34164   3.717   7.374   6.543  0.7800  0.1652 -0.0851
 1017MOL0     C34165   3.853   7.373   6.503 -0.3202 -0.5789  0.5734
 1017MOL0     C34166   4.245   7.474   6.271  0.8008 -0.6734 -0.0719
 1017MOL0     C34167   4.336   7.579   6.280 -0.4723  0.0897  0.8220
 1017MOL0     C34168   4.472   7.558   6.240 -0.2574 -0.0998 -0.9469
 1017MOL0     C34169   4.507   7.429   6.194 -0.5926 -0.1806  0.2556
 1017MOL0     O34170   4.627   7.389   6.152  0.0056  0.3020  0.3680
 1017MOL0     C34171   4.723   7.498   6.123  0.9056 -0.2306 -0.3329
 1017MOL0     C34172   4.698   7.584   5.987 -0.4931  0.3168 -0.8423
 1017MOL0     C34173   4.668   7.502   5.862 -0.7659 -0.3076 -0.5371
 1017MOL0     C34174   4.787   7.416   5.808 -0.3028  0.3591 -0.3982
 1017MOL0     C34175   4.880   7.496   5.732 -0.5544 -0.1542  0.1088
 1017MOL0     C34176   4.961   7.563   5.665  0.1194 -0.5539  0.8098
 1017MOL0     C34177   4.418   7.328   6.211 -0.4386  0.2977 -1.2847
 1017MOL0     C34178   4.285   7.352   6.239 -0.1300 -0.5861 -0.2762
 1017MOL0     H34179   3.830   7.453   6.187  0.7024 -0.0710  0.4230
 1017MOL0     H34180   3.597   7.459   6.240 -0.7348  2.2525  0.8209
 1017MOL0     H34181   3.413   7.424   6.295 -0.9565  1.8924  0.9541
 1017MOL0     H34182   3.287   7.389   6.399  0.6629  6.3184 -0.1649
 1017MOL0     H34183   3.511   7.206   6.313  0.2583  1.5430  1.0187
 1017MOL0     H34184   3.331   7.187   6.274 -2.0988 -0.9999  3.1502
 1017MOL0     H34185   3.434   7.134   6.557 -0.9011  2.6997 -0.2193
 1017MOL0     H34186   3.391   7.014   6.447  0.9724  0.7916 -1.4221
 1017MOL0     H34187   3.225   7.244   6.560  0.1498 -0.3203  0.6026
 1017MOL0     H34188   3.175   7.128   6.425  2.4182 -1.5334 -1.2867
 1017MOL0     H34189   3.277   7.041   6.711 -0.5380  0.8269  0.9735
 1017MOL0     H34190   3.164   6.947   6.614 -2.9511  0.3982 -1.4588
 1017MOL0     H34191   2.988   7.114   6.651  0.4775  1.4701  0.5669
 1017MOL0     H34192   3.090   7.202   6.762 -2.7579 -0.5272  1.2438
 1017MOL0     H34193   3.099   6.968   6.898  0.9952  0.4381 -0.7111
 1017MOL0     H34194   2.947   7.064   6.883 -0.1583  1.7631 -2.7865
 1017MOL0     H34195   2.921   6.824   6.865 -1.7070  1.6887  1.9016
 1017MOL0     H34196   3.019   6.821   6.717  0.1053  1.7477 -0.9619
 1017MOL0     H34197   2.692   6.972   6.821  0.9867 -0.7592  0.0886
 1017MOL0     H34198   2.480   7.086   6.664 -1.7027 -2.1590  1.5811
 1017MOL0     H34199   2.464   6.908   6.630  2.9579 -0.3086  1.2865
 1017MOL0     H34200   2.491   6.931   6.404 -2.1534  0.3082 -0.4911
 1017MOL0     H34201   2.524   7.107   6.417  3.0423 -0.9370  0.7924
 1017MOL0     H34202   2.264   7.025   6.537  2.4148  0.6036  0.2472
 1017MOL0     H34203   2.301   7.143   6.410 -0.8479 -0.9280 -1.4545
 1017MOL0     H34204   2.273   6.837   6.374 -0.2835 -1.1424 -1.5768
 1017MOL0     H34205   2.287   6.952   6.242 -4.4280  1.0559 -1.5849
 1017MOL0     H34206   2.191   6.812   6.130  0.0236 -1.7327 -1.3010
 1017MOL0     H34207   2.048   6.736   5.952 -1.7930  1.4132 -0.5382
 1017MOL0     H34208   1.388   6.840   5.948  3.0463 -0.3947  1.5524
 1017MOL0     H34209   1.211   6.730   5.836 -0.3633 -1.3613  2.8809
 1017MOL0     H34210   1.271   6.339   5.777  1.2441  3.3122 -0.5272
 1017MOL0     H34211   1.226   6.329   5.602 -3.6327  0.7706 -2.0798
 1017MOL0     H34212   1.048   6.231   5.721 -2.8972 -0.6187  1.9296
 1017MOL0     H34213   0.978   6.389   5.672 -1.7548 -0.0016  1.9210
 1017MOL0     H34214   1.080   6.475   5.894  1.1964 -0.9370 -0.6227
 1017MOL0     H34215   1.069   6.310   5.954 -2.8388 -1.2998  1.1367
 1017MOL0     H34216   0.864   6.428   6.015  0.5837  1.2077 -0.6282
 1017MOL0     H34217   0.829   6.454   5.847 -0.0985  1.6100 -0.0522
 1017MOL0     H34218   0.861   6.176   5.851  6.3293  2.3014  1.9942
 1017MOL0     H34219   0.702   6.253   5.898  0.0705 -2.2842 -0.8614
 1017MOL0     H34220   0.901   6.200   6.107 -1.7372 -1.5341  1.3612
 1017MOL0     H34221   0.770   6.086   6.057  2.7018 -0.7378 -0.1331
 1017MOL0     H34222   0.752   6.351   6.199  1.8116 -0.5455 -0.1887
 1017MOL0     H34223   0.616   6.303   6.097 -0.0859 -2.4352 -0.9002
 1017MOL0     H34224   0.608   6.073   6.243  0.3314 -0.6645  1.9380
 1017MOL0     H34225   0.564   6.222   6.328  0.7730 -0.5512  0.0291
 1017MOL0     H34226   1.467   6.416   5.707 -0.1942  0.0064 -1.9457
 1017MOL0     H34227   1.654   6.517   5.832  0.9747  1.3353  0.4536
 1017MOL0     H34228   1.713   6.908   6.152  0.0166  0.7745 -2.0258
 1017MOL0     H34229   1.849   6.980   6.323 -2.7719 -1.7184 -0.1489
 1017MOL0     H34230   3.698   7.349   6.647  0.3042  3.0537  0.6107
 1017MOL0     H34231   3.926   7.327   6.570 -0.7978 -0.8658  0.9043
 1017MOL0     H34232   4.308   7.682   6.300 -1.7605 -0.1493  0.3500
 1017MOL0     H34233   4.538   7.644   6.247  0.4369 -0.7559  1.1964
 1017MOL0     H34234   4.819   7.449   6.105  1.1180 -1.1321  2.6774
 1017MOL0     H34235   4.738   7.561   6.212  0.3614 -1.5611  0.7401
 1017MOL0     H34236   4.611   7.649   6.003 -0.3166  0.2419  0.6226
 1017MOL0     H34237   4.787   7.646   5.973 -1.3828  2.7282  2.6759
 1017MOL0     H34238   4.635   7.571   5.783  0.5804  0.8841 -0.1178
 1017MOL0     H34239   4.586   7.439   5.896  0.9784 -0.6027  3.6280
 1017MOL0     H34240   4.838   7.383   5.899  0.0951  2.0676  0.0315
 1017MOL0     H34241   4.767   7.319   5.760  1.7024  0.5987 -1.8561
 1017MOL0     H34242   5.034   7.620   5.611  0.0362 -1.5462 -0.3929
 1017MOL0     H34243   4.445   7.225   6.190 -0.0024  0.6546 -2.5847
 1017MOL0     H34244   4.219   7.265   6.240 -2.6235  1.1791  1.6235
 1018MOL0     O34245   9.936   2.452   3.538 -0.0963  0.2282  0.1019
 1018MOL0     C34246   9.948   2.337   3.508 -0.1938  0.6663 -0.4742
 1018MOL0     O34247   9.846   2.254   3.488 -0.1437  0.1962 -0.2678
 1018MOL0     C34248   9.723   2.267   3.542 -0.0490 -0.1131  0.7393
 1018MOL0     C34249   9.640   2.166   3.491  0.4318  0.4893  0.1241
 1018MOL0     C34250   9.508   2.150   3.517  0.3051 -0.2192 -0.3906
 1018MOL0     C34251   9.443   2.244   3.595 -0.5325  0.0531  0.0931
 1018MOL0     O34252   9.309   2.250   3.619 -0.1976  0.0246 -0.6915
 1018MOL0     C34253   9.230   2.134   3.609  0.9111  0.2114 -0.1263
 1018MOL0     C34254   9.092   2.163   3.647  0.0972  0.2622  0.6600
 1018MOL0     C34255   9.078   2.143   3.794 -0.7652 -0.4831  0.0164
 1018MOL0     C34256   8.958   2.221   3.849 -0.0198  0.6001 -0.0354
 1018MOL0     C34257   8.963   2.238   4.000 -0.1351  0.6853  0.6725
 1018MOL0     C34258   8.864   2.345   4.058  0.2739  0.0635  0.5135
 1018MOL0     C34259   8.720   2.312   4.007  0.6240  0.5972  0.6125
 1018MOL0     C34260   8.662   2.179   4.064 -0.3944  0.0286  0.1365
 1018MOL0     N34261   8.519   2.158   4.035 -0.3228  0.9768 -0.6896
 1018MOL0     C34262   8.423   2.176   4.127 -0.7186  0.2179  0.4354
 1018MOL0     C34263   8.310   2.146   4.051 -0.1098 -0.2484 -0.6377
 1018MOL0     C34264   8.166   2.171   4.091  0.0204  0.1588 -0.2620
 1018MOL0     C34265   8.134   2.313   4.133  0.0411  0.3115  0.1328
 1018MOL0     C34266   7.980   2.334   4.139 -0.0755 -0.9397  0.3374
 1018MOL0     C34267   7.894   2.237   4.219 -0.9820 -0.1130 -0.0355
 1018MOL0     O34268   7.761   2.290   4.234  1.1337 -0.0827 -0.3788
 1018MOL0     C34269   7.651   2.212   4.205 -0.9386 -0.2599 -0.4777
 1018MOL0     C34270   7.649   2.075   4.229  1.1990  0.7369  0.1301
 1018MOL0     C34271   7.538   1.989   4.198 -0.4741 -0.7212 -0.2581
 1018MOL0     C34272   7.424   2.050   4.133  0.0054 -0.6964 -0.4491
 1018MOL0     C34273   7.313   1.969   4.086  0.1201  0.2955  0.7380
 1018MOL0     O34274   7.206   2.035   4.020 -0.3817 -0.8629  0.6285
 1018MOL0     C34275   7.085   1.987   3.981 -0.1527  0.1362 -0.0622
 1018MOL0     C34276   7.092   1.872   3.916  0.2954  0.4688  0.4260
 1018MOL0     C34277   6.977   1.802   3.882 -0.1220  0.6574 -0.2331
 1018MOL0     C34278   6.857   1.860   3.896 -0.7437 -0.0659  0.6948
 1018MOL0     O34279   6.750   1.786   3.861 -0.0722  0.3682  0.5098
 1018MOL0     C34280   6.615   1.832   3.868 -0.4857  0.0748 -0.4711
 1018MOL0     C34281   6.558   1.796   3.999 -0.0475  0.1325 -0.9377
 1018MOL0     C34282   6.442   1.888   4.045  0.3071 -0.2545 -0.2482
 1018MOL0     C34283   6.392   1.828   4.179  0.3297 -0.3971  1.0323
 1018MOL0     C34284   6.243   1.849   4.214 -0.0667 -0.2404  0.1595
 1018MOL0     C34285   6.143   1.766   4.118 -0.6298 -0.4332  0.1440
 1018MOL0     C34286   6.009   1.849   4.121  0.1796  0.8100 -0.0718
 1018MOL0     C34287   5.919   1.809   4.007  0.2104 -0.0635  0.5701
 1018MOL0    Cl34288   5.768   1.901   4.027  0.0273  0.2290 -0.1022
 1018MOL0     C34289   6.843   1.992   3.945  0.4279  0.2787 -0.3346
 1018MOL0     C34290   6.957   2.058   3.988  0.1221 -0.3626 -0.3616
 1018MOL0     O34291   7.310   1.853   4.111 -0.2704  0.2270 -0.2545
 1018MOL0     C34292   7.419   2.188   4.119  0.0755 -0.4827  0.9405
 1018MOL0     C34293   7.529   2.268   4.154  0.3989 -0.7501 -0.7466
 1018MOL0     N34294   8.349   2.097   3.931  0.3888  0.0991 -0.0856
 1018MOL0     N34295   8.476   2.102   3.921 -0.3205 -0.1917  0.8122
 1018MOL0     C34296   9.517   2.364   3.628  0.2455  0.6189 -0.1256
 1018MOL0     C34297   9.650   2.370   3.605  0.5204  0.2217 -1.4035
 1018MOL0     C34298  10.083   2.272   3.505  0.0700  0.1860 -0.9618
 1018MOL0     C34299  10.105   2.137   3.474  0.1311 -0.9467  0.3569
 1018MOL0     C34300  10.232   2.090   3.487  0.2187 -0.1259  0.2784
 1018MOL0     C34301  10.341   2.167   3.515  0.2733 -0.4619  0.3708
 1018MOL0     O34302  10.460   2.107   3.524 -0.1682 -0.8058 -0.3065
 1018MOL0     C34303  10.573   2.168   3.448  2.1176 -0.1043 -0.0062
 1018MOL0     C34304  10.646   2.278   3.531  0.2153  0.0462 -0.1454
 1018MOL0     C34305  10.783   2.304   3.463  0.3337 -0.4373  0.5934
 1018MOL0     C34306  10.864   2.407   3.540  0.7203 -0.6463 -0.1544
 1018MOL0     C34307  11.005   2.409   3.495 -0.0929 -0.3047  0.3177
 1018MOL0     C34308  11.108   2.417   3.434  0.3854 -0.3830 -0.3387
 1018MOL0     C34309  10.319   2.307   3.541 -0.1855  1.3874  0.3825
 1018MOL0     C34310  10.195   2.352   3.548  0.8611 -0.2601  0.2496
 1018MOL0     H34311   9.680   2.086   3.430 -0.0934 -0.5273  1.0740
 1018MOL0     H34312   9.440   2.076   3.476 -4.3031  1.9200  2.5791
 1018MOL0     H34313   9.277   2.055   3.669 -0.2101 -2.9100 -3.0118
 1018MOL0     H34314   9.226   2.108   3.503 -0.2461 -3.0487  0.5821
 1018MOL0     H34315   9.020   2.095   3.601  2.0814 -1.6755  0.2485
 1018MOL0     H34316   9.066   2.263   3.610  1.6104 -0.1409 -1.6865
 1018MOL0     H34317   9.167   2.189   3.837 -0.1999 -1.6900  0.1685
 1018MOL0     H34318   9.074   2.038   3.823 -2.0810 -0.2715  0.6813
 1018MOL0     H34319   8.960   2.325   3.815 -0.0619  0.6945  0.2478
 1018MOL0     H34320   8.866   2.172   3.816 -0.0497  1.4266 -1.2292
 1018MOL0     H34321   9.067   2.266   4.020 -0.8441  3.3270  1.1197
 1018MOL0     H34322   8.939   2.143   4.050 -0.6158  0.4856  0.0661
 1018MOL0     H34323   8.901   2.441   4.021  1.9858 -0.0820  1.7272
 1018MOL0     H34324   8.869   2.336   4.167  1.3783  0.0888  0.4693
 1018MOL0     H34325   8.657   2.392   4.047 -1.1975 -1.8581  3.0524
 1018MOL0     H34326   8.723   2.331   3.899 -0.7478 -0.5253  0.3382
 1018MOL0     H34327   8.686   2.175   4.171 -0.6482 -0.2422  0.1847
 1018MOL0     H34328   8.719   2.100   4.014 -0.3339  1.0101 -1.4184
 1018MOL0     H34329   8.417   2.208   4.231 -0.1441  0.9526  0.2524
 1018MOL0     H34330   8.143   2.096   4.168 -5.8173 -0.1890 -1.8504
 1018MOL0     H34331   8.100   2.141   4.009  0.2364 -0.8159 -0.0908
 1018MOL0     H34332   8.173   2.386   4.060 -2.4574  2.1586  0.5111
 1018MOL0     H34333   8.169   2.326   4.235  0.2378 -1.1229  0.2648
 1018MOL0     H34334   7.976   2.434   4.183 -1.0701 -1.4408  1.4228
 1018MOL0     H34335   7.937   2.340   4.038  1.2118 -1.9992 -0.3120
 1018MOL0     H34336   7.938   2.212   4.316 -1.9538  0.9336  0.6958
 1018MOL0     H34337   7.904   2.145   4.160 -2.0772  0.6283 -1.4561
 1018MOL0     H34338   7.735   2.034   4.280  0.0071 -3.2806 -0.6878
 1018MOL0     H34339   7.549   1.882   4.209 -0.2001 -0.8817 -1.8715
 1018MOL0     H34340   7.182   1.817   3.891  0.6311  1.1539  0.1229
 1018MOL0     H34341   6.973   1.706   3.831 -2.2104  1.0919 -0.9672
 1018MOL0     H34342   6.559   1.782   3.788 -1.3308  0.9309 -0.4246
 1018MOL0     H34343   6.608   1.939   3.852 -1.5484 -0.1409 -1.5771
 1018MOL0     H34344   6.634   1.792   4.077 -0.8712 -2.0138 -0.1796
 1018MOL0     H34345   6.524   1.693   3.989  1.1812 -0.6458  1.9047
 1018MOL0     H34346   6.360   1.892   3.972 -2.0218  3.2637  2.2549
 1018MOL0     H34347   6.470   1.993   4.056 -1.6092  0.1384  1.3248
 1018MOL0     H34348   6.391   1.719   4.181 -0.3856 -0.3986  0.7793
 1018MOL0     H34349   6.457   1.857   4.263  1.6384 -0.1051 -0.0463
 1018MOL0     H34350   6.220   1.956   4.211  1.0636  0.0094 -3.1557
 1018MOL0     H34351   6.217   1.824   4.317 -4.4059  0.6276 -0.5477
 1018MOL0     H34352   6.123   1.661   4.141 -1.8320 -0.7744 -2.1921
 1018MOL0     H34353   6.187   1.766   4.018 -3.4371 -1.2579 -1.1888
 1018MOL0     H34354   5.963   1.838   4.219 -0.0501 -1.6894 -0.3988
 1018MOL0     H34355   6.031   1.956   4.115  0.6951  0.7026 -0.1207
 1018MOL0     H34356   5.914   1.700   4.010 -0.8855 -0.0149  2.9824
 1018MOL0     H34357   5.952   1.844   3.909 -0.3582 -0.6046  0.1767
 1018MOL0     H34358   6.745   2.036   3.960  0.4109  0.8630 -1.8898
 1018MOL0     H34359   6.953   2.145   4.054 -0.8028 -2.2414  2.2186
 1018MOL0     H34360   7.325   2.229   4.085  0.7086 -1.3718 -2.1821
 1018MOL0     H34361   7.533   2.377   4.150  1.4502 -0.8129 -2.4870
 1018MOL0     H34362   9.465   2.442   3.683 -1.3432 -1.8026  2.0692
 1018MOL0     H34363   9.695   2.458   3.650 -2.0117 -0.4100  2.8306
 1018MOL0     H34364  10.022   2.076   3.438 -0.4517  0.0980 -0.1157
 1018MOL0     H34365  10.245   1.989   3.450 -2.0547 -0.6639  0.7994
 1018MOL0     H34366  10.539   2.208   3.352 -2.4193 -1.7524  0.6626
 1018MOL0     H34367  10.639   2.086   3.418 -1.4979 -2.4920 -2.1585
 1018MOL0     H34368  10.591   2.373   3.535  0.4686  0.1709  2.7707
 1018MOL0     H34369  10.668   2.237   3.630 -1.6814  1.6195  0.9951
 1018MOL0     H34370  10.759   2.340   3.362 -0.8131 -1.8511  0.3317
 1018MOL0     H34371  10.846   2.216   3.470  1.4898  0.4557  2.2013
 1018MOL0     H34372  10.808   2.500   3.526 -1.2110 -1.0760  3.5718
 1018MOL0     H34373  10.855   2.387   3.647  0.4408  3.6950  0.8188
 1018MOL0     H34374  11.202   2.424   3.383  0.0103  1.3803 -0.8321
 1018MOL0     H34375  10.394   2.385   3.551 -0.3409  1.3279  2.4598
 1018MOL0     H34376  10.168   2.450   3.586 -1.6561 -0.0020 -1.9294
 1019MOL0     O34377   4.194   8.636   8.904 -0.1459  0.3169 -0.3481
 1019MOL0     C34378   4.186   8.513   8.920 -0.0762 -0.2280  0.4963
 1019MOL0     O34379   4.196   8.451   9.031  0.0621 -0.9644  0.2220
 1019MOL0     C34380   4.237   8.507   9.153 -0.4135  0.6390  0.2275
 1019MOL0     C34381   4.178   8.463   9.274  0.1605 -0.1545 -0.3601
 1019MOL0     C34382   4.209   8.517   9.398  0.0937 -0.8879 -0.0762
 1019MOL0     C34383   4.302   8.620   9.409 -0.0604 -1.2058  0.4259
 1019MOL0     O34384   4.328   8.667   9.541  0.2140 -0.6050  0.5338
 1019MOL0     C34385   4.457   8.730   9.574  0.5910 -0.2803 -0.0442
 1019MOL0     C34386   4.433   8.772   9.726 -0.5020 -0.6314  0.0028
 1019MOL0     C34387   4.559   8.830   9.790 -0.1909  0.0394  0.6874
 1019MOL0     C34388   4.533   8.872   9.930  0.4082  0.2007 -0.9551
 1019MOL0     C34389   4.411   8.965   9.958 -0.2592 -0.9042 -0.0868
 1019MOL0     C34390   4.443   9.111   9.918  0.6472 -0.7078  0.2348
 1019MOL0     C34391   4.325   9.213   9.925 -0.0002  0.3556 -0.0714
 1019MOL0     C34392   4.206   9.191   9.832  0.7569 -0.7341 -0.3441
 1019MOL0     N34393   4.247   9.236   9.692  0.2219  1.1184 -0.1904
 1019MOL0     C34394   4.277   9.364   9.647 -0.1884 -0.9778  0.4559
 1019MOL0     C34395   4.329   9.344   9.521 -0.1342  0.0105 -0.0728
 1019MOL0     C34396   4.375   9.450   9.429  0.4215 -0.1241 -0.1633
 1019MOL0     C34397   4.258   9.534   9.373 -0.3103  0.1706 -0.4956
 1019MOL0     C34398   4.149   9.443   9.316 -0.3289 -0.2380 -0.1341
 1019MOL0     C34399   4.022   9.521   9.279  0.6772  0.6948 -0.1749
 1019MOL0     O34400   3.923   9.430   9.225 -0.4181  0.1364  0.1356
 1019MOL0     C34401   3.802   9.488   9.180 -0.2747 -0.5211 -0.0972
 1019MOL0     C34402   3.769   9.620   9.160 -0.2526 -0.0802 -0.5513
 1019MOL0     C34403   3.643   9.663   9.121  0.3994  0.3088  0.1426
 1019MOL0     C34404   3.540   9.568   9.087  0.0711 -0.9411  0.7433
 1019MOL0     C34405   3.405   9.609   9.045  1.1805 -0.1064 -0.1769
 1019MOL0     O34406   3.366   9.733   9.063  0.1202  0.3427 -0.1380
 1019MOL0     C34407   3.237   9.764   9.060 -1.1812 -0.1805 -0.4794
 1019MOL0     C34408   3.178   9.811   9.179 -0.4254  0.7629  0.6037
 1019MOL0     C34409   3.038   9.842   9.168  0.3483  0.4385  0.0563
 1019MOL0     C34410   2.964   9.816   9.058  0.4442 -0.1972  0.2334
 1019MOL0     O34411   2.827   9.837   9.065  0.0645  0.1199  0.7958
 1019MOL0     C34412   2.745   9.772   8.965  0.6298 -0.5302 -0.6160
 1019MOL0     C34413   2.604   9.785   8.991  0.2360  0.5149 -0.3223
 1019MOL0     C34414   2.553   9.726   9.129  0.2525 -0.0398  0.3944
 1019MOL0     C34415   2.400   9.742   9.129 -0.3731 -0.3868  0.1674
 1019MOL0     C34416   2.331   9.666   9.242 -0.3607  1.1921 -0.0777
 1019MOL0     C34417   2.375   9.668   9.387 -0.1523  0.6404  0.4022
 1019MOL0     C34418   2.391   9.802   9.459 -0.0179 -0.7086 -0.1504
 1019MOL0     C34419   2.383   9.792   9.618 -0.0172  0.1907  1.3564
 1019MOL0    Cl34420   2.394   9.948   9.700  0.2779 -0.1815 -0.4293
 1019MOL0     C34421   3.026   9.775   8.945  0.0412  0.2631 -0.5147
 1019MOL0     C34422   3.164   9.755   8.940 -0.6214  0.6840 -0.9802
 1019MOL0     O34423   3.338   9.523   8.989  0.0183  0.2882  0.7463
 1019MOL0     C34424   3.576   9.432   9.093  0.0015 -1.3757 -0.2698
 1019MOL0     C34425   3.703   9.399   9.140 -1.1202 -0.6911  0.8737
 1019MOL0     N34426   4.319   9.208   9.489  0.0245  0.5520  0.3160
 1019MOL0     N34427   4.275   9.146   9.592 -0.7279 -0.3916  0.0096
 1019MOL0     C34428   4.359   8.674   9.293  0.3137 -0.9299  0.8504
 1019MOL0     C34429   4.341   8.609   9.167  0.9128 -0.5312  0.5809
 1019MOL0     C34430   4.165   8.433   8.796 -0.2404 -1.0652  0.2980
 1019MOL0     C34431   4.102   8.302   8.788 -0.2984  0.5720 -0.0832
 1019MOL0     C34432   4.071   8.258   8.655 -0.2880 -0.6618 -0.2767
 1019MOL0     C34433   4.099   8.329   8.538  0.6995  0.0555  0.1770
 1019MOL0     O34434   4.044   8.295   8.416 -0.7148 -0.0134 -0.5657
 1019MOL0     C34435   4.000   8.166   8.380 -0.0380 -0.4233 -0.1147
 1019MOL0     C34436   3.854   8.145   8.425 -0.5818  1.2280  0.0255
 1019MOL0     C34437   3.779   8.024   8.351  1.0182 -0.2631  0.1386
 1019MOL0     C34438   3.821   7.892   8.411  0.4252 -0.6948  0.5960
 1019MOL0     C34439   3.731   7.786   8.343 -0.8882 -0.0166 -0.6937
 1019MOL0     C34440   3.677   7.680   8.324  0.3877 -0.5466  0.0326
 1019MOL0     C34441   4.173   8.443   8.552  0.0259 -0.5302 -0.0774
 1019MOL0     C34442   4.205   8.490   8.677  1.1453  0.5723  0.0656
 1019MOL0     H34443   4.111   8.379   9.259  2.3583 -1.7113 -2.1225
 1019MOL0     H34444   4.156   8.471   9.481  0.3988 -0.0610  0.5855
 1019MOL0     H34445   4.474   8.815   9.507 -0.0195  0.2010  0.4120
 1019MOL0     H34446   4.537   8.661   9.545 -0.9706 -2.0141 -0.4291
 1019MOL0     H34447   4.398   8.685   9.781  0.7969 -2.4871 -1.9338
 1019MOL0     H34448   4.350   8.843   9.724  2.3193  3.0066 -0.5134
 1019MOL0     H34449   4.596   8.907   9.722  1.4434 -0.0672  1.4068
 1019MOL0     H34450   4.636   8.752   9.792 -0.5032 -0.3961 -1.7623
 1019MOL0     H34451   4.520   8.777   9.981  1.1349 -0.5343 -2.0929
 1019MOL0     H34452   4.628   8.915   9.962  0.3854  0.2950 -1.0129
 1019MOL0     H34453   4.391   8.975  10.065 -2.3903 -1.3030 -0.4017
 1019MOL0     H34454   4.324   8.925   9.906 -0.3150 -0.5023 -0.3095
 1019MOL0     H34455   4.480   9.112   9.815  1.7556 -1.2347  0.6148
 1019MOL0     H34456   4.518   9.155   9.985 -0.0102  0.9721 -0.0866
 1019MOL0     H34457   4.282   9.217  10.025  0.5070  0.9881  0.1273
 1019MOL0     H34458   4.378   9.307   9.907  0.5756  0.3588  1.5073
 1019MOL0     H34459   4.120   9.252   9.859 -0.0159 -1.4817 -1.0558
 1019MOL0     H34460   4.189   9.083   9.836 -1.4868 -0.3677  1.5253
 1019MOL0     H34461   4.268   9.464   9.687 -0.1453 -0.3239 -1.0805
 1019MOL0     H34462   4.431   9.413   9.342 -0.5535 -0.5324 -0.6329
 1019MOL0     H34463   4.436   9.528   9.475 -2.7211  2.4997 -0.0745
 1019MOL0     H34464   4.304   9.601   9.299  3.1118 -1.8834 -0.4720
 1019MOL0     H34465   4.215   9.584   9.461  1.4747 -0.5211  0.8484
 1019MOL0     H34466   4.184   9.396   9.224 -2.3610  1.8675 -2.1424
 1019MOL0     H34467   4.123   9.359   9.381  1.1337 -0.3643  0.3153
 1019MOL0     H34468   4.049   9.605   9.214 -0.5600  3.7466  2.9462
 1019MOL0     H34469   3.984   9.561   9.373 -3.1934  1.3060 -1.7955
 1019MOL0     H34470   3.835   9.706   9.172 -0.2752  0.8009 -4.9465
 1019MOL0     H34471   3.618   9.767   9.137 -2.4989  0.0336 -1.9084
 1019MOL0     H34472   3.230   9.831   9.272 -0.7501 -0.8695  1.1696
 1019MOL0     H34473   2.974   9.869   9.252  0.0666 -1.1513  0.3711
 1019MOL0     H34474   2.763   9.664   8.971  1.0509 -0.5580 -2.1575
 1019MOL0     H34475   2.775   9.804   8.866 -0.0631 -1.3943 -1.1262
 1019MOL0     H34476   2.547   9.742   8.909  0.4585 -1.5436  0.5510
 1019MOL0     H34477   2.589   9.894   8.992 -1.5475  0.3200 -1.3739
 1019MOL0     H34478   2.600   9.775   9.214  1.7908 -0.2027 -0.3139
 1019MOL0     H34479   2.585   9.621   9.126 -0.5856 -0.3064  0.3540
 1019MOL0     H34480   2.377   9.848   9.143 -0.7887 -0.3250 -0.9139
 1019MOL0     H34481   2.355   9.703   9.037 -0.6238  3.4559 -1.5222
 1019MOL0     H34482   2.342   9.560   9.218 -1.9443  0.5833  1.6452
 1019MOL0     H34483   2.229   9.704   9.253 -0.6287  0.8462 -1.2942
 1019MOL0     H34484   2.468   9.610   9.394 -2.3850 -3.2856  0.1710
 1019MOL0     H34485   2.293   9.615   9.437 -0.8958  0.2797 -1.1587
 1019MOL0     H34486   2.484   9.851   9.428 -1.1043  0.6086 -1.5148
 1019MOL0     H34487   2.310   9.864   9.420  2.0840  3.6181  1.5965
 1019MOL0     H34488   2.447   9.721   9.670 -0.1021  0.1366  1.3865
 1019MOL0     H34489   2.281   9.757   9.637 -0.1433 -0.8475 -0.9237
 1019MOL0     H34490   2.973   9.763   8.851 -1.8057  0.4937  0.4524
 1019MOL0     H34491   3.211   9.724   8.848 -1.4458 -1.5642 -0.7160
 1019MOL0     H34492   3.515   9.351   9.054 -1.0499 -1.8860  2.2526
 1019MOL0     H34493   3.729   9.293   9.136 -3.2438 -1.2059 -0.7726
 1019MOL0     H34494   4.427   8.759   9.289  0.4200 -1.0514 -2.5843
 1019MOL0     H34495   4.385   8.655   9.079  0.4739  0.4188  0.8405
 1019MOL0     H34496   4.080   8.234   8.870  0.0392  0.9968  0.3619
 1019MOL0     H34497   4.023   8.162   8.640  0.0084 -1.0086  0.8895
 1019MOL0     H34498   4.077   8.101   8.424 -0.9021  0.0384  2.2732
 1019MOL0     H34499   3.990   8.164   8.272  0.2892 -0.7040 -0.1406
 1019MOL0     H34500   3.849   8.135   8.534 -2.1517  0.1345 -0.1153
 1019MOL0     H34501   3.791   8.225   8.385 -0.2191  1.6005  0.1927
 1019MOL0     H34502   3.781   8.033   8.242  0.9955 -0.9295  0.0817
 1019MOL0     H34503   3.674   8.036   8.378  1.0161  1.8316 -0.6046
 1019MOL0     H34504   3.927   7.875   8.386 -0.0274 -0.2213 -1.9949
 1019MOL0     H34505   3.803   7.892   8.518  2.9175 -0.1972  1.0830
 1019MOL0     H34506   3.640   7.581   8.309  1.0892 -0.9139  0.6943
 1019MOL0     H34507   4.197   8.512   8.472  0.2413  0.7913  1.0883
 1019MOL0     H34508   4.264   8.581   8.675 -0.9513  2.0033 -0.6401
 1020MOL0     O34509  10.078   0.634  10.417  0.3938  0.5114  0.2662
 1020MOL0     C34510  10.202   0.639  10.395  0.2473  0.2584 -0.5364
 1020MOL0     O34511  10.267   0.593  10.277 -0.3058  0.1869  0.9194
 1020MOL0     C34512  10.186   0.522  10.197  0.9169 -0.5483  0.0229
 1020MOL0     C34513  10.158   0.575  10.073  0.2500  0.7350  0.3196
 1020MOL0     C34514  10.069   0.511   9.988 -0.4786  0.3705  0.6207
 1020MOL0     C34515  10.009   0.386  10.025 -0.7104  0.4630  0.2017
 1020MOL0     O34516   9.919   0.316   9.952  0.1956 -0.5678  0.5103
 1020MOL0     C34517   9.782   0.366   9.967 -0.2476 -0.7216  0.3823
 1020MOL0     C34518   9.702   0.295  10.079 -0.4533  0.1286 -1.2216
 1020MOL0     C34519   9.552   0.327  10.051  0.4394  0.9962 -0.3866
 1020MOL0     C34520   9.499   0.204   9.985 -0.7076 -0.3112  0.4717
 1020MOL0     C34521   9.358   0.227   9.948 -0.2505 -0.0412  0.0620
 1020MOL0     C34522   9.293   0.099   9.894  0.0451 -0.0665 -0.3793
 1020MOL0     C34523   9.148   0.110   9.854  1.3208 -0.2229  0.0325
 1020MOL0     C34524   9.074  -0.030   9.865  0.2756  0.3533 -0.6426
 1020MOL0     N34525   8.933  -0.022   9.836  0.5682 -1.0203  0.5659
 1020MOL0     C34526   8.871   0.045   9.734 -0.6009  0.6810  0.3297
 1020MOL0     C34527   8.734   0.044   9.763 -0.3196 -0.0005  0.1743
 1020MOL0     C34528   8.623   0.089   9.677 -0.2029  0.8996  0.6898
 1020MOL0     C34529   8.507  -0.008   9.660 -0.8220  0.4225  0.3331
 1020MOL0     C34530   8.390   0.073   9.586 -0.2168  1.0701 -0.1363
 1020MOL0     C34531   8.290  -0.029   9.526  0.2524 -0.0198  0.1644
 1020MOL0     O34532   8.178   0.049   9.479 -0.4106  0.8678  0.2098
 1020MOL0     C34533   8.099  -0.000   9.376 -0.0252 -0.0407 -0.0200
 1020MOL0     C34534   7.979   0.066   9.357 -0.4261 -0.6526 -0.0925
 1020MOL0     C34535   7.888   0.037   9.249 -0.4766 -0.5534 -0.6281
 1020MOL0     C34536   7.926  -0.069   9.161  0.2084  0.4868 -0.0192
 1020MOL0     C34537   7.822  -0.109   9.063  0.2929  0.5093 -0.0533
 1020MOL0     O34538   7.712  -0.031   9.042  0.2469 -0.8644 -0.5226
 1020MOL0     C34539   7.609  -0.092   8.976 -0.8395  0.9268  0.4503
 1020MOL0     C34540   7.612  -0.103   8.838  0.5303 -0.9112  0.8881
 1020MOL0     C34541   7.501  -0.162   8.770  1.2286 -0.0377  0.0493
 1020MOL0     C34542   7.404  -0.235   8.842  0.5246 -0.4910  0.2061
 1020MOL0     O34543   7.300  -0.294   8.786  0.1448 -0.0127  0.0823
 1020MOL0     C34544   7.301  -0.313   8.644 -0.3614 -0.7120  0.7350
 1020MOL0     C34545   7.193  -0.406   8.595 -0.2542 -0.8609 -0.4071
 1020MOL0     C34546   7.050  -0.358   8.614  0.2130  0.5132 -0.0912
 1020MOL0     C34547   6.945  -0.460   8.574  0.3925 -0.3111  0.5761
 1020MOL0     C34548   6.807  -0.387   8.558  0.0065  0.2608 -0.0044
 1020MOL0     C34549   6.700  -0.489   8.521 -0.5098  0.9180  0.0795
 1020MOL0     C34550   6.686  -0.583   8.643 -0.2968  0.9152 -0.3022
 1020MOL0     C34551   6.554  -0.647   8.651 -0.5079 -0.4607 -0.0316
 1020MOL0    Cl34552   6.536  -0.757   8.513 -0.3807  0.4295  0.2159
 1020MOL0     C34553   7.408  -0.227   8.976 -0.1418  0.0858 -0.5800
 1020MOL0     C34554   7.507  -0.160   9.037  0.7117  0.5295  0.0095
 1020MOL0     O34555   7.855  -0.203   8.996  0.3933  0.2716  0.5538
 1020MOL0     C34556   8.056  -0.134   9.178 -0.3347  0.1406  0.4863
 1020MOL0     C34557   8.138  -0.102   9.284 -0.3229 -0.3825  0.5293
 1020MOL0     N34558   8.720  -0.011   9.890 -0.9967  0.0236 -0.1499
 1020MOL0     N34559   8.836  -0.055   9.926  0.3766  0.1036  0.6293
 1020MOL0     C34560  10.028   0.340  10.157 -0.3574 -0.3907  0.0482
 1020MOL0     C34561  10.121   0.412  10.238 -0.4704  0.4121 -0.1879
 1020MOL0     C34562  10.289   0.701  10.493  0.0013  0.3654 -0.6220
 1020MOL0     C34563  10.428   0.722  10.458 -0.1262 -0.2531 -0.2431
 1020MOL0     C34564  10.518   0.769  10.559  1.2017 -0.4956  1.4882
 1020MOL0     C34565  10.471   0.769  10.696  0.2759  0.0603 -0.2294
 1020MOL0     O34566  10.549   0.825  10.792 -0.1509  0.7481  0.4764
 1020MOL0     C34567  10.688   0.837  10.768  0.2766 -0.1038 -0.8728
 1020MOL0     C34568  10.758   0.854  10.899 -1.2277 -0.0549  0.8553
 1020MOL0     C34569  10.718   0.747  11.000 -0.6964  0.3727  0.2009
 1020MOL0     C34570  10.817   0.745  11.118  0.5833 -0.0019  0.0075
 1020MOL0     C34571  10.951   0.697  11.077  0.5868  0.0308 -0.9746
 1020MOL0     C34572  11.071   0.668  11.066 -0.4589 -0.5043  0.0929
 1020MOL0     C34573  10.332   0.750  10.724 -0.8553  0.9687  0.6306
 1020MOL0     C34574  10.244   0.717  10.624  0.1892  1.2024  0.1147
 1020MOL0     H34575  10.210   0.666  10.045  0.6325  0.2463 -0.6048
 1020MOL0     H34576  10.056   0.560   9.892 -0.8142  1.0992  1.0288
 1020MOL0     H34577   9.735   0.361   9.868  0.5682 -0.5357 -0.0233
 1020MOL0     H34578   9.791   0.474   9.983  0.5948 -1.1444  3.2579
 1020MOL0     H34579   9.738   0.337  10.173  1.1437 -1.8862 -0.8580
 1020MOL0     H34580   9.738   0.192  10.085  1.8124  0.9081  4.9329
 1020MOL0     H34581   9.549   0.419   9.992  0.6387  0.8149 -0.6792
 1020MOL0     H34582   9.493   0.345  10.142 -0.1086 -1.8069 -0.0907
 1020MOL0     H34583   9.554   0.181   9.893 -0.7682  2.7572 -0.4447
 1020MOL0     H34584   9.511   0.126  10.060  0.7730 -0.8007 -0.2472
 1020MOL0     H34585   9.366   0.304   9.870  1.2261 -0.0086  0.2228
 1020MOL0     H34586   9.303   0.268  10.033  1.2335  0.6877  0.6947
 1020MOL0     H34587   9.292   0.022   9.972  1.5980 -1.9399 -2.1188
 1020MOL0     H34588   9.350   0.060   9.810  1.0928  0.4289  0.0814
 1020MOL0     H34589   9.098   0.173   9.928 -0.3747 -0.4809 -0.8496
 1020MOL0     H34590   9.138   0.153   9.754  0.1001  1.3246  0.7636
 1020MOL0     H34591   9.084  -0.073   9.966 -0.0208  0.2615 -0.6521
 1020MOL0     H34592   9.127  -0.091   9.792 -1.1945 -0.2193 -1.2745
 1020MOL0     H34593   8.905   0.098   9.646  1.1322  0.4985  0.8667
 1020MOL0     H34594   8.664   0.112   9.578 -0.2064 -0.0745  0.4514
 1020MOL0     H34595   8.582   0.182   9.718 -0.1290  0.9408  0.6682
 1020MOL0     H34596   8.459  -0.036   9.754 -0.5010  2.0558  1.0149
 1020MOL0     H34597   8.537  -0.103   9.614 -2.4490 -0.0768  0.2436
 1020MOL0     H34598   8.347   0.141   9.660 -0.1548 -2.3542  3.4085
 1020MOL0     H34599   8.431   0.135   9.506 -1.2646  0.1324 -1.4713
 1020MOL0     H34600   8.270  -0.102   9.606  2.2949  0.4508  1.1659
 1020MOL0     H34601   8.336  -0.096   9.453 -4.0408  1.2519 -4.2732
 1020MOL0     H34602   7.945   0.137   9.431 -1.1771 -0.9562 -0.1327
 1020MOL0     H34603   7.794   0.090   9.244  0.5737  1.6113  1.0250
 1020MOL0     H34604   7.691  -0.054   8.783 -0.4788  0.1297  0.3098
 1020MOL0     H34605   7.511  -0.181   8.664 -2.5131  1.4757 -0.7094
 1020MOL0     H34606   7.396  -0.362   8.619 -0.1062  0.2179 -0.1494
 1020MOL0     H34607   7.288  -0.225   8.581  3.3860 -0.8335 -0.5000
 1020MOL0     H34608   7.213  -0.500   8.647  3.5109 -0.8595 -1.5269
 1020MOL0     H34609   7.220  -0.424   8.490 -3.4645  0.0988 -1.5246
 1020MOL0     H34610   7.041  -0.266   8.555 -2.2231 -1.3629 -2.9540
 1020MOL0     H34611   7.030  -0.326   8.717 -1.1436  2.0892 -0.7807
 1020MOL0     H34612   6.972  -0.519   8.486 -1.8454  1.1519 -1.1894
 1020MOL0     H34613   6.943  -0.522   8.664 -0.6428  1.5445  1.9043
 1020MOL0     H34614   6.809  -0.317   8.473 -0.5322  1.2812  0.8076
 1020MOL0     H34615   6.790  -0.327   8.647 -0.5391  0.1784 -0.0542
 1020MOL0     H34616   6.725  -0.558   8.440 -2.0247  0.5486 -0.1039
 1020MOL0     H34617   6.601  -0.453   8.492 -1.8197 -1.9336  0.6145
 1020MOL0     H34618   6.761  -0.661   8.626  2.3999  3.1505  0.6614
 1020MOL0     H34619   6.710  -0.534   8.737  0.5906 -0.9354  0.4795
 1020MOL0     H34620   6.477  -0.569   8.652 -0.1860  0.0418  4.2514
 1020MOL0     H34621   6.546  -0.706   8.742  0.3194  3.3243  2.7589
 1020MOL0     H34622   7.328  -0.265   9.039 -1.1889  0.9752 -1.3242
 1020MOL0     H34623   7.505  -0.163   9.146 -0.4715 -0.8880 -0.0332
 1020MOL0     H34624   8.073  -0.207   9.100  0.3594  2.9818 -2.2392
 1020MOL0     H34625   8.234  -0.154   9.292  0.2016 -0.0558 -2.5524
 1020MOL0     H34626   9.972   0.256  10.195  1.1894 -1.8956 -0.8645
 1020MOL0     H34627  10.138   0.377  10.339 -0.8392 -2.0026 -0.9191
 1020MOL0     H34628  10.465   0.713  10.356 -0.3595  0.7671 -0.4298
 1020MOL0     H34629  10.612   0.803  10.517 -0.2954  0.3076 -1.5672
 1020MOL0     H34630  10.708   0.920  10.700 -1.6244  0.6690 -0.5473
 1020MOL0     H34631  10.722   0.740  10.731  0.7518  0.0412 -0.8271
 1020MOL0     H34632  10.866   0.845  10.881 -1.8000 -1.3425 -2.8101
 1020MOL0     H34633  10.733   0.951  10.942  0.9278  1.7528 -1.6331
 1020MOL0     H34634  10.722   0.647  10.956 -2.6028  0.2735  0.1952
 1020MOL0     H34635  10.617   0.766  11.036 -1.0032  2.1075 -1.4287
 1020MOL0     H34636  10.827   0.845  11.160  1.0373  0.0745 -0.2757
 1020MOL0     H34637  10.766   0.676  11.186 -3.5346  1.4140 -1.3382
 1020MOL0     H34638  11.165   0.627  11.033 -0.5458 -1.8587  1.4016
 1020MOL0     H34639  10.298   0.771  10.825  1.1453  1.2695  1.2911
 1020MOL0     H34640  10.140   0.706  10.654  0.2747  4.1217  1.8855
 1021MOL0     O34641   6.618   4.123   1.642 -0.0620  0.2604 -0.6745
 1021MOL0     C34642   6.676   4.094   1.750 -0.3511  0.1037  0.0247
 1021MOL0     O34643   6.617   4.085   1.862  0.4537  0.3270 -0.1679
 1021MOL0     C34644   6.478   4.086   1.878  0.6933 -0.2095  0.7025
 1021MOL0     C34645   6.414   3.962   1.854 -0.7779 -0.4978 -0.7417
 1021MOL0     C34646   6.272   3.963   1.843 -0.2244  1.3447 -0.4977
 1021MOL0     C34647   6.188   4.077   1.867  0.3670 -0.6877  0.4656
 1021MOL0     O34648   6.051   4.062   1.825  0.0750 -0.3630  0.0716
 1021MOL0     C34649   5.994   4.161   1.734  0.7556 -0.0888 -0.7445
 1021MOL0     C34650   5.850   4.184   1.772 -1.0872 -0.2148  1.0281
 1021MOL0     C34651   5.789   4.262   1.652 -0.9003 -0.1521 -0.1764
 1021MOL0     C34652   5.637   4.262   1.644 -0.4806 -0.5015  0.4161
 1021MOL0     C34653   5.586   4.367   1.547 -0.7408  0.0155 -0.1050
 1021MOL0     C34654   5.429   4.365   1.532 -1.5219  0.0980  0.8858
 1021MOL0     C34655   5.400   4.491   1.446  0.4044 -0.5034 -0.8732
 1021MOL0     C34656   5.252   4.514   1.421 -0.4952 -0.8131  0.4077
 1021MOL0     N34657   5.250   4.648   1.345 -0.1004  0.0903 -0.5000
 1021MOL0     C34658   5.164   4.753   1.369  0.5075  0.2725  1.2263
 1021MOL0     C34659   5.167   4.828   1.251 -0.4882 -0.3401 -0.7134
 1021MOL0     C34660   5.071   4.947   1.235  0.2093  0.6275  0.1389
 1021MOL0     C34661   4.929   4.895   1.212  0.0037 -0.4095  0.1876
 1021MOL0     C34662   4.906   4.856   1.068 -0.2175  0.0791  0.3657
 1021MOL0     C34663   4.956   4.709   1.023 -0.3215 -0.1093 -0.3085
 1021MOL0     O34664   4.903   4.665   0.897 -0.4660 -0.3854  0.3107
 1021MOL0     C34665   4.784   4.602   0.885  0.3809  0.0026 -0.7008
 1021MOL0     C34666   4.754   4.565   0.755  0.1999  0.7597  0.3348
 1021MOL0     C34667   4.630   4.511   0.724  0.4841 -0.3867  0.1893
 1021MOL0     C34668   4.542   4.482   0.827  0.3722  0.0980 -0.7503
 1021MOL0     C34669   4.420   4.407   0.805  0.9738 -0.3975  0.5741
 1021MOL0     O34670   4.342   4.372   0.919  0.2195 -0.1686  1.3725
 1021MOL0     C34671   4.213   4.355   0.881  1.3737  0.6853  0.5950
 1021MOL0     C34672   4.160   4.226   0.858 -0.0048  0.2067  0.5972
 1021MOL0     C34673   4.017   4.217   0.839  0.5880  0.6336  0.1643
 1021MOL0     C34674   3.935   4.336   0.847 -0.3813  0.0470  0.3038
 1021MOL0     O34675   3.801   4.304   0.845  0.4151 -0.1259 -0.4205
 1021MOL0     C34676   3.709   4.393   0.780  0.5596 -0.1799 -0.4316
 1021MOL0     C34677   3.577   4.317   0.762  0.6610 -0.7025 -0.2059
 1021MOL0     C34678   3.479   4.383   0.663  0.2994 -0.1319 -0.7800
 1021MOL0     C34679   3.381   4.272   0.625  0.2188 -0.7664 -0.1554
 1021MOL0     C34680   3.280   4.325   0.521  0.7947  0.0047 -0.7626
 1021MOL0     C34681   3.166   4.396   0.592  0.9711 -0.1106 -0.1127
 1021MOL0     C34682   3.126   4.520   0.522 -0.2400  0.6473 -0.2410
 1021MOL0     C34683   3.017   4.582   0.605 -0.2103  0.6673  1.1059
 1021MOL0    Cl34684   2.963   4.736   0.544  0.0845  0.0599  0.2624
 1021MOL0     C34685   3.986   4.462   0.874 -0.0550  1.3090  0.1982
 1021MOL0     C34686   4.128   4.468   0.891 -0.4640  0.1305 -0.4565
 1021MOL0     O34687   4.384   4.398   0.680 -0.2086  0.4067 -0.3167
 1021MOL0     C34688   4.560   4.529   0.962  0.1291 -0.2168  0.8390
 1021MOL0     C34689   4.681   4.595   0.985  0.1629  0.4242  0.7184
 1021MOL0     N34690   5.256   4.764   1.167  0.1004 -0.0641 -0.9608
 1021MOL0     N34691   5.301   4.655   1.221 -0.0568  0.1529 -0.2845
 1021MOL0     C34692   6.261   4.191   1.898  0.2498  0.1282 -0.0314
 1021MOL0     C34693   6.399   4.199   1.908  0.0614  0.1664  0.6744
 1021MOL0     C34694   6.820   4.043   1.750  0.0524 -0.0903  0.6683
 1021MOL0     C34695   6.904   4.047   1.641  0.4250 -0.5733 -0.2463
 1021MOL0     C34696   7.039   4.014   1.650  0.8222 -0.0332  0.6260
 1021MOL0     C34697   7.094   3.972   1.768  0.3046  0.6065 -0.2747
 1021MOL0     O34698   7.217   3.912   1.781 -1.0519 -0.6330 -0.0459
 1021MOL0     C34699   7.306   3.918   1.665 -0.4317 -0.1022  0.9349
 1021MOL0     C34700   7.439   3.847   1.698  0.7252 -0.5104 -0.2154
 1021MOL0     C34701   7.534   3.933   1.783  0.3647  0.1477 -0.5557
 1021MOL0     C34702   7.660   3.852   1.814 -0.6979  0.2299  0.3572
 1021MOL0     C34703   7.740   3.934   1.911 -0.1092 -0.1337 -0.2801
 1021MOL0     C34704   7.798   4.007   1.998  0.6397 -0.4617  0.3861
 1021MOL0     C34705   7.008   3.958   1.878 -0.1677 -0.4719 -0.2983
 1021MOL0     C34706   6.874   3.990   1.870  0.6987  0.0377 -0.2049
 1021MOL0     H34707   6.470   3.871   1.835 -1.0353 -1.2206  1.6709
 1021MOL0     H34708   6.250   3.860   1.818  0.7235  1.2495 -1.0042
 1021MOL0     H34709   6.016   4.130   1.631  3.0757  0.2299 -0.3996
 1021MOL0     H34710   6.048   4.255   1.749  1.3979 -0.3113 -1.6065
 1021MOL0     H34711   5.843   4.239   1.866 -0.2854  1.0356  0.3839
 1021MOL0     H34712   5.799   4.088   1.788  1.3000 -1.5916  0.8709
 1021MOL0     H34713   5.816   4.220   1.555 -1.5244 -1.4583  0.1977
 1021MOL0     H34714   5.835   4.362   1.658 -1.3363  0.1021 -0.9936
 1021MOL0     H34715   5.610   4.158   1.624 -0.1296 -0.1278 -2.4294
 1021MOL0     H34716   5.605   4.298   1.742  1.5670 -5.1907  3.1315
 1021MOL0     H34717   5.624   4.335   1.449 -1.2034 -1.3283  0.1394
 1021MOL0     H34718   5.619   4.466   1.581  0.9315 -0.9261  1.1706
 1021MOL0     H34719   5.387   4.367   1.632  0.1046 -0.0555  1.6056
 1021MOL0     H34720   5.395   4.277   1.476 -1.3913 -0.2349  1.3292
 1021MOL0     H34721   5.447   4.572   1.501  1.1498 -1.0940 -0.6271
 1021MOL0     H34722   5.441   4.484   1.345 -0.9252 -0.5503 -1.4324
 1021MOL0     H34723   5.191   4.522   1.512  1.2871  0.5279  1.5577
 1021MOL0     H34724   5.214   4.435   1.356 -3.5758  0.9093 -0.0495
 1021MOL0     H34725   5.113   4.777   1.461 -2.5753  0.4694 -0.3991
 1021MOL0     H34726   5.115   5.006   1.155  3.2048  0.0570  1.2366
 1021MOL0     H34727   5.071   5.015   1.321 -1.4151 -1.6244  2.0558
 1021MOL0     H34728   4.869   4.983   1.236 -0.6538 -1.0409  0.9115
 1021MOL0     H34729   4.899   4.818   1.284 -0.0915  0.3365  0.9587
 1021MOL0     H34730   4.798   4.864   1.058 -0.3170 -1.1663  0.2800
 1021MOL0     H34731   4.954   4.923   0.996 -2.4641  1.0811 -0.2824
 1021MOL0     H34732   4.929   4.627   1.090 -0.6979  0.3131  0.0586
 1021MOL0     H34733   5.064   4.716   1.011 -0.0880  0.0045  1.5970
 1021MOL0     H34734   4.830   4.565   0.677 -1.6608 -0.1709 -1.5715
 1021MOL0     H34735   4.618   4.475   0.622  4.1161  0.4343 -0.6710
 1021MOL0     H34736   4.221   4.137   0.858  1.3389  1.0941 -0.9011
 1021MOL0     H34737   3.968   4.121   0.823  4.0738 -1.1036 -1.3164
 1021MOL0     H34738   3.759   4.417   0.685 -0.1613 -2.6661 -1.5338
 1021MOL0     H34739   3.687   4.477   0.846  1.0608 -0.8726  0.6464
 1021MOL0     H34740   3.535   4.322   0.863 -0.6815  0.4343 -0.7902
 1021MOL0     H34741   3.607   4.221   0.718  1.2160  0.0936 -1.6487
 1021MOL0     H34742   3.531   4.421   0.575 -1.5836 -1.0636 -2.3899
 1021MOL0     H34743   3.419   4.460   0.714  0.7992 -1.2468  1.6287
 1021MOL0     H34744   3.448   4.206   0.570 -1.0287  0.6105 -3.6405
 1021MOL0     H34745   3.333   4.224   0.710  0.1538  0.3001  0.4243
 1021MOL0     H34746   3.244   4.253   0.448 -1.0736 -0.4937  0.5955
 1021MOL0     H34747   3.334   4.403   0.465  3.5988 -0.3340  1.2314
 1021MOL0     H34748   3.198   4.429   0.691  0.6828  0.6237 -0.2522
 1021MOL0     H34749   3.074   4.336   0.599  0.5307  0.5896  0.3204
 1021MOL0     H34750   3.218   4.579   0.519 -0.3644  0.8619  0.1278
 1021MOL0     H34751   3.095   4.510   0.417  0.2161  0.2963 -0.3439
 1021MOL0     H34752   3.063   4.604   0.702  3.1119  2.4320 -0.6767
 1021MOL0     H34753   2.938   4.509   0.625  0.5683  0.3798  3.4291
 1021MOL0     H34754   3.915   4.542   0.888  0.8876  1.8492  2.3070
 1021MOL0     H34755   4.166   4.566   0.919  0.2079  0.2476 -1.7307
 1021MOL0     H34756   4.483   4.533   1.038 -0.8923  1.8257 -0.2262
 1021MOL0     H34757   4.708   4.624   1.086  4.3005 -2.6849  0.8036
 1021MOL0     H34758   6.204   4.275   1.939 -0.2841 -0.1507 -0.1883
 1021MOL0     H34759   6.449   4.295   1.907  1.0196 -0.3093 -1.1843
 1021MOL0     H34760   6.860   4.085   1.549 -1.2719  0.7126  1.0452
 1021MOL0     H34761   7.102   4.010   1.562  0.5583  0.2833  0.4239
 1021MOL0     H34762   7.324   4.018   1.626  1.9047 -0.4005  1.1439
 1021MOL0     H34763   7.271   3.864   1.577 -0.4513  1.3482  0.0167
 1021MOL0     H34764   7.411   3.751   1.742  0.6693 -1.0121 -1.3104
 1021MOL0     H34765   7.489   3.822   1.603  2.3173 -1.3440  0.7901
 1021MOL0     H34766   7.487   3.959   1.878 -0.8383 -1.1049 -0.7610
 1021MOL0     H34767   7.556   4.028   1.734 -1.1406  2.6130  3.1317
 1021MOL0     H34768   7.634   3.754   1.857  1.3531 -0.1116  0.9248
 1021MOL0     H34769   7.721   3.844   1.724  3.4654  2.1165  2.7294
 1021MOL0     H34770   7.853   4.080   2.054  1.7807  0.7331 -2.1160
 1021MOL0     H34771   7.042   3.918   1.973  1.4517 -0.5727 -0.8840
 1021MOL0     H34772   6.808   3.979   1.955  1.3752  0.7937  0.4371
 1022MOL0     O34773   1.275   1.357   0.440  0.2082  1.2989 -0.0336
 1022MOL0     C34774   1.348   1.455   0.441  0.1333  0.9038  0.2993
 1022MOL0     O34775   1.305   1.576   0.464  0.2157  0.4225 -0.4537
 1022MOL0     C34776   1.179   1.604   0.486  0.5337  0.1366 -0.7374
 1022MOL0     C34777   1.157   1.714   0.565  1.2381  0.8980  0.1824
 1022MOL0     C34778   1.027   1.747   0.597 -0.9241 -0.0981  0.0342
 1022MOL0     C34779   0.917   1.678   0.558 -0.6835 -0.7627 -0.3572
 1022MOL0     O34780   0.807   1.738   0.609  0.0879  0.1242  0.6640
 1022MOL0     C34781   0.689   1.713   0.528  0.2277  0.1387  0.8268
 1022MOL0     C34782   0.561   1.793   0.558  0.0380 -0.1551  0.2270
 1022MOL0     C34783   0.530   1.788   0.710 -0.1283 -0.0670  0.3398
 1022MOL0     C34784   0.400   1.866   0.756  0.3009 -0.1954 -0.5355
 1022MOL0     C34785   0.267   1.806   0.706  0.3070  0.4758  0.5171
 1022MOL0     C34786   0.147   1.879   0.782  0.4708  0.4660 -0.4875
 1022MOL0     C34787   0.013   1.859   0.715  0.3640 -0.1227 -0.1391
 1022MOL0     C34788  -0.082   1.959   0.762 -0.1260 -0.4318 -0.4719
 1022MOL0     N34789  -0.221   1.957   0.710  0.2666  0.2714 -0.4413
 1022MOL0     C34790  -0.313   1.853   0.722 -0.3503 -0.2567 -0.1807
 1022MOL0     C34791  -0.410   1.880   0.630 -0.8701 -0.2645 -0.3605
 1022MOL0     C34792  -0.543   1.809   0.600  0.2646  0.2792  0.2538
 1022MOL0     C34793  -0.544   1.654   0.594 -0.0179  0.3837  0.6025
 1022MOL0     C34794  -0.683   1.608   0.550  0.3060  0.8571  0.3330
 1022MOL0     C34795  -0.752   1.494   0.631  0.0910  0.0827 -0.8659
 1022MOL0     O34796  -0.794   1.539   0.768  0.3292  0.1279  0.2555
 1022MOL0     C34797  -0.925   1.573   0.777  0.0618 -0.3119 -0.0265
 1022MOL0     C34798  -1.015   1.471   0.812  0.2676  0.4168  0.0559
 1022MOL0     C34799  -1.159   1.499   0.825 -0.8516 -0.7899  0.3861
 1022MOL0     C34800  -1.207   1.626   0.807  0.2795 -0.6803 -1.4813
 1022MOL0     C34801  -1.350   1.665   0.831  0.0498 -0.2201  0.4159
 1022MOL0     O34802  -1.427   1.566   0.890  0.5050 -0.2952 -0.2098
 1022MOL0     C34803  -1.556   1.596   0.934  0.3513 -0.0701 -0.7677
 1022MOL0     C34804  -1.562   1.607   1.075  0.3448 -0.1557  0.5063
 1022MOL0     C34805  -1.689   1.608   1.128  0.4773  0.2231 -1.4798
 1022MOL0     C34806  -1.800   1.629   1.056  0.3848 -0.5127  0.4629
 1022MOL0     O34807  -1.918   1.632   1.120 -0.1479 -1.2356  0.1007
 1022MOL0     C34808  -2.022   1.716   1.067  0.1931  0.9570 -0.7103
 1022MOL0     C34809  -2.116   1.755   1.182 -0.5116 -0.2125 -0.3108
 1022MOL0     C34810  -2.037   1.779   1.309 -0.9647 -0.5247 -0.3635
 1022MOL0     C34811  -2.137   1.823   1.415 -0.6617  0.2615 -0.0250
 1022MOL0     C34812  -2.069   1.855   1.551 -0.3480  0.4947  0.8269
 1022MOL0     C34813  -2.161   1.893   1.666 -0.2788 -0.2771 -0.3190
 1022MOL0     C34814  -2.082   1.913   1.803 -0.0884  0.2148 -0.4126
 1022MOL0     C34815  -2.067   2.055   1.843  0.0952 -1.4238  0.6740
 1022MOL0    Cl34816  -2.003   2.074   2.009 -0.0213 -0.1434  0.1546
 1022MOL0     C34817  -1.786   1.638   0.919 -0.0229 -0.6142 -0.5642
 1022MOL0     C34818  -1.664   1.619   0.852  0.1861  0.5665  0.5779
 1022MOL0     O34819  -1.393   1.766   0.776 -1.2228 -0.1993 -0.7176
 1022MOL0     C34820  -1.124   1.730   0.777 -0.3879 -0.3268  0.5104
 1022MOL0     C34821  -0.983   1.703   0.757 -0.0896  0.2717  0.4741
 1022MOL0     N34822  -0.379   2.001   0.562 -0.7420 -0.2521 -1.0900
 1022MOL0     N34823  -0.262   2.044   0.614  0.6702  0.4474  0.2479
 1022MOL0     C34824   0.937   1.569   0.476  0.1646 -0.4565 -0.3453
 1022MOL0     C34825   1.064   1.535   0.434  0.8586 -0.7367 -0.3554
 1022MOL0     C34826   1.495   1.440   0.416  0.1872 -0.3585  0.7010
 1022MOL0     C34827   1.542   1.336   0.335 -0.3268  0.2702  0.6078
 1022MOL0     C34828   1.670   1.332   0.287  0.0640  0.2771  0.0850
 1022MOL0     C34829   1.773   1.415   0.327 -0.6276 -0.7340 -0.0464
 1022MOL0     O34830   1.903   1.404   0.285 -0.2988  0.2026 -0.2461
 1022MOL0     C34831   1.956   1.275   0.266 -0.5734  0.4661  0.2168
 1022MOL0     C34832   2.104   1.283   0.211  0.3368 -0.6424 -0.4281
 1022MOL0     C34833   2.181   1.341   0.336  0.0514  0.3160  0.5952
 1022MOL0     C34834   2.326   1.389   0.311  0.2427  1.1047 -0.0732
 1022MOL0     C34835   2.418   1.281   0.259  0.3982 -0.2057 -0.3235
 1022MOL0     C34836   2.476   1.186   0.206  0.4004 -0.4213 -0.2956
 1022MOL0     C34837   1.732   1.523   0.407 -0.2632  0.2633 -0.4140
 1022MOL0     C34838   1.597   1.543   0.451  0.1605 -0.4692 -0.0053
 1022MOL0     H34839   1.243   1.767   0.605  1.6630 -0.1411  0.6743
 1022MOL0     H34840   1.024   1.831   0.666  0.3124 -0.7174  0.8978
 1022MOL0     H34841   0.659   1.609   0.542 -1.0478  0.2757 -0.6079
 1022MOL0     H34842   0.703   1.732   0.421 -0.8759  3.3711  1.1216
 1022MOL0     H34843   0.475   1.755   0.502  1.6002 -2.5344 -0.7053
 1022MOL0     H34844   0.572   1.898   0.532 -2.6768 -0.1018 -1.0854
 1022MOL0     H34845   0.621   1.812   0.766  3.3380 -0.8316 -4.2747
 1022MOL0     H34846   0.511   1.683   0.735 -0.0707  0.2813  1.9471
 1022MOL0     H34847   0.399   1.871   0.865 -3.4621  0.3907 -0.4881
 1022MOL0     H34848   0.413   1.971   0.730  1.8441 -0.3057 -0.3089
 1022MOL0     H34849   0.263   1.697   0.702  2.7877  0.2913  1.1359
 1022MOL0     H34850   0.253   1.837   0.602  0.0025  1.2309  0.7723
 1022MOL0     H34851   0.177   1.985   0.784  0.0016  0.6773  3.5239
 1022MOL0     H34852   0.141   1.848   0.886  0.0700 -0.9735 -0.9174
 1022MOL0     H34853   0.002   1.866   0.606  0.2468 -1.6671 -0.2522
 1022MOL0     H34854  -0.025   1.759   0.738  0.8708 -0.8684 -2.2875
 1022MOL0     H34855  -0.053   2.061   0.736  0.7380 -0.6135 -0.2379
 1022MOL0     H34856  -0.082   1.944   0.870  2.5923 -2.7215 -0.6733
 1022MOL0     H34857  -0.305   1.774   0.797 -0.4334  0.6576  0.8063
 1022MOL0     H34858  -0.584   1.864   0.514 -1.9944 -0.2410  0.9340
 1022MOL0     H34859  -0.614   1.828   0.680  0.8395 -1.0813  1.1288
 1022MOL0     H34860  -0.517   1.597   0.683  0.4068 -0.2024  0.1090
 1022MOL0     H34861  -0.468   1.628   0.519 -0.1729  2.6657 -0.4220
 1022MOL0     H34862  -0.757   1.688   0.544 -0.7131 -0.0144  1.1245
 1022MOL0     H34863  -0.663   1.568   0.450  0.1686  0.6356  0.3940
 1022MOL0     H34864  -0.697   1.400   0.642 -3.9022 -2.2122  2.2923
 1022MOL0     H34865  -0.846   1.465   0.585 -0.9191  0.4262  0.8814
 1022MOL0     H34866  -0.982   1.370   0.836 -1.1510 -0.3810 -1.1744
 1022MOL0     H34867  -1.232   1.421   0.841 -3.7983  1.6830 -0.1502
 1022MOL0     H34868  -1.471   1.604   1.134  0.6777 -0.3720 -0.0089
 1022MOL0     H34869  -1.691   1.616   1.236  2.4810 -0.1690 -1.3695
 1022MOL0     H34870  -2.066   1.659   0.985  1.8668 -2.4444  0.5734
 1022MOL0     H34871  -1.974   1.808   1.033  0.0644  1.2758 -0.0575
 1022MOL0     H34872  -2.186   1.673   1.201 -0.0046 -0.7532 -0.7495
 1022MOL0     H34873  -2.174   1.846   1.165  2.2910  2.1737  1.6799
 1022MOL0     H34874  -1.964   1.860   1.299 -0.3097 -1.0163  0.3161
 1022MOL0     H34875  -1.984   1.692   1.349  0.5734 -0.2744 -1.7864
 1022MOL0     H34876  -2.172   1.913   1.364  3.2207  1.6132 -0.6526
 1022MOL0     H34877  -2.206   1.740   1.434  1.8853 -2.2239 -0.8364
 1022MOL0     H34878  -1.999   1.934   1.522  0.7934 -0.8947 -0.3642
 1022MOL0     H34879  -2.007   1.769   1.579 -0.9812  0.1557  1.2083
 1022MOL0     H34880  -2.225   1.806   1.683 -0.6173 -0.1385 -0.8496
 1022MOL0     H34881  -2.228   1.976   1.644  0.9136  1.3593  1.7962
 1022MOL0     H34882  -2.143   1.883   1.889 -1.0068  0.5061 -0.9412
 1022MOL0     H34883  -1.980   1.876   1.801  0.7110  2.0080  2.0184
 1022MOL0     H34884  -2.158   2.115   1.837  1.7107  1.4405  2.5211
 1022MOL0     H34885  -1.995   2.097   1.771 -1.1489  1.0336  0.7574
 1022MOL0     H34886  -1.868   1.674   0.859 -3.4148  0.7103  4.2090
 1022MOL0     H34887  -1.654   1.635   0.745  2.1603  2.8339  1.0044
 1022MOL0     H34888  -1.161   1.832   0.766  1.2795  0.2614 -0.0081
 1022MOL0     H34889  -0.939   1.790   0.709  0.3422 -1.4081 -2.4523
 1022MOL0     H34890   0.854   1.520   0.427  0.1121 -0.3979 -0.3148
 1022MOL0     H34891   1.079   1.452   0.366 -1.2240 -1.4106 -0.0608
 1022MOL0     H34892   1.481   1.250   0.311  0.6598  0.3504 -2.6241
 1022MOL0     H34893   1.696   1.249   0.222  1.8140 -0.8473  2.0982
 1022MOL0     H34894   1.903   1.215   0.192  0.1177 -0.7629  0.6824
 1022MOL0     H34895   1.951   1.214   0.357 -1.6274 -1.6410 -1.1787
 1022MOL0     H34896   2.130   1.179   0.188 -2.6586 -1.2292 -1.5265
 1022MOL0     H34897   2.113   1.341   0.119 -1.2264 -1.9863 -1.4710
 1022MOL0     H34898   2.184   1.259   0.408 -0.4640 -2.1531 -2.0076
 1022MOL0     H34899   2.132   1.432   0.372 -1.0958 -0.0738  0.0530
 1022MOL0     H34900   2.322   1.475   0.244 -0.5497  1.6284  0.6345
 1022MOL0     H34901   2.354   1.410   0.415  1.5043  0.2310 -0.2128
 1022MOL0     H34902   2.529   1.112   0.150 -1.0133  0.7475 -3.4630
 1022MOL0     H34903   1.798   1.605   0.433 -0.1623  0.3829 -1.0432
 1022MOL0     H34904   1.589   1.639   0.501 -0.7486  1.4266 -3.4163
 1023MOL0     O34905   8.646   7.801   5.885 -0.2367 -0.6553  1.1292
 1023MOL0     C34906   8.765   7.775   5.897 -0.2405  0.0313  0.0797
 1023MOL0     O34907   8.817   7.655   5.872 -0.0516  0.0328  0.2072
 1023MOL0     C34908   8.753   7.543   5.824  0.0662  0.7141  0.9267
 1023MOL0     C34909   8.829   7.432   5.764  1.0489 -0.5442  0.2903
 1023MOL0     C34910   8.766   7.315   5.717  0.0111 -0.9358 -0.0665
 1023MOL0     C34911   8.627   7.296   5.720 -0.5811  0.0541 -0.6020
 1023MOL0     O34912   8.586   7.173   5.681 -0.3129  0.1071  0.2215
 1023MOL0     C34913   8.451   7.154   5.644 -0.6096 -0.1226 -0.1590
 1023MOL0     C34914   8.451   7.049   5.535 -0.5426 -0.2264 -0.1043
 1023MOL0     C34915   8.323   6.972   5.515 -0.5044 -0.1763 -0.2605
 1023MOL0     C34916   8.205   7.068   5.521  0.0846 -0.2948  0.4679
 1023MOL0     C34917   8.091   6.989   5.448 -0.2542 -0.4376 -1.2842
 1023MOL0     C34918   7.959   7.062   5.428 -0.5569  0.6320  0.7491
 1023MOL0     C34919   7.855   6.954   5.390 -0.4933 -1.0485 -0.0956
 1023MOL0     C34920   7.715   7.000   5.443 -0.5040 -0.0428 -0.4119
 1023MOL0     N34921   7.658   7.102   5.359  0.6722 -0.1466  0.8910
 1023MOL0     C34922   7.686   7.237   5.349 -0.5857  0.0812  0.2900
 1023MOL0     C34923   7.625   7.263   5.235  1.1140  0.1146 -0.0446
 1023MOL0     C34924   7.637   7.404   5.167 -0.1376  0.5556 -0.7313
 1023MOL0     C34925   7.587   7.409   5.027  0.0221 -0.1987 -0.3764
 1023MOL0     C34926   7.629   7.533   4.950 -0.2435  0.0222 -0.3262
 1023MOL0     C34927   7.757   7.502   4.875  0.2201  0.1358  0.8235
 1023MOL0     O34928   7.792   7.624   4.814 -0.2684 -0.0287  0.4384
 1023MOL0     C34929   7.914   7.623   4.745  0.5377 -0.3143  0.2960
 1023MOL0     C34930   7.964   7.752   4.734 -0.1657  0.2348  0.5785
 1023MOL0     C34931   8.080   7.780   4.663  0.3869  0.4105  1.1297
 1023MOL0     C34932   8.158   7.670   4.610  0.3906  0.5085 -0.5553
 1023MOL0     C34933   8.283   7.702   4.544  0.1404  0.4999  0.1462
 1023MOL0     O34934   8.380   7.602   4.542 -0.4424  0.3075  0.2297
 1023MOL0     C34935   8.493   7.626   4.467  1.0086  0.6879  0.1623
 1023MOL0     C34936   8.474   7.626   4.326  0.2866  0.1420 -0.7007
 1023MOL0     C34937   8.581   7.662   4.240 -0.2003  0.1967  0.4852
 1023MOL0     C34938   8.713   7.675   4.297 -0.7773 -0.0175  0.5487
 1023MOL0     O34939   8.823   7.730   4.231  0.2790  0.2602 -0.0172
 1023MOL0     C34940   8.817   7.717   4.088 -0.2419 -0.4173 -0.9476
 1023MOL0     C34941   8.962   7.723   4.050 -0.3247 -0.1454 -0.2907
 1023MOL0     C34942   8.969   7.670   3.908 -0.2362 -0.3864 -0.2170
 1023MOL0     C34943   9.112   7.672   3.839  0.5951  0.0489 -0.6543
 1023MOL0     C34944   9.125   7.612   3.697  0.1014 -0.4148 -0.7959
 1023MOL0     C34945   9.236   7.666   3.614 -0.1427  0.0147  0.1187
 1023MOL0     C34946   9.381   7.670   3.664 -0.2479  0.5958  0.1059
 1023MOL0     C34947   9.448   7.541   3.672 -0.1464 -0.6461  1.0666
 1023MOL0    Cl34948   9.488   7.479   3.510  0.0866  0.1617  0.8078
 1023MOL0     C34949   8.725   7.651   4.431 -0.2805 -0.6057 -0.1379
 1023MOL0     C34950   8.615   7.644   4.517  0.1905  0.2447  0.0476
 1023MOL0     O34951   8.295   7.807   4.488 -0.0325 -0.7910 -0.4357
 1023MOL0     C34952   8.119   7.538   4.630 -0.9705 -0.7100  0.5600
 1023MOL0     C34953   7.995   7.518   4.701 -1.6635 -0.3151 -0.3756
 1023MOL0     N34954   7.545   7.161   5.181 -0.6166  0.3880  0.2710
 1023MOL0     N34955   7.580   7.065   5.259 -0.0213  0.2652  0.8429
 1023MOL0     C34956   8.554   7.395   5.787  0.4142  0.0705  1.1320
 1023MOL0     C34957   8.608   7.509   5.834  0.1133 -0.5847  0.2297
 1023MOL0     C34958   8.857   7.869   5.952 -0.0420  0.5394  0.2285
 1023MOL0     C34959   8.811   7.990   6.011  0.9161 -0.1157 -0.7131
 1023MOL0     C34960   8.896   8.089   6.061  0.9487 -0.0698 -0.2395
 1023MOL0     C34961   9.038   8.077   6.045 -0.7254 -0.2143  0.5745
 1023MOL0     O34962   9.132   8.168   6.077  0.3355 -0.2558 -0.6591
 1023MOL0     C34963   9.081   8.261   6.180 -0.2152  0.3301 -0.2186
 1023MOL0     C34964   9.209   8.328   6.229  0.2678 -0.2155 -0.4938
 1023MOL0     C34965   9.184   8.430   6.340 -0.0429  0.7154  0.2345
 1023MOL0     C34966   9.308   8.511   6.366  0.1704  0.1176  0.3333
 1023MOL0     C34967   9.311   8.567   6.501 -0.6884  0.0767 -0.7944
 1023MOL0     C34968   9.294   8.609   6.619 -0.4577  0.2187 -0.7728
 1023MOL0     C34969   9.085   7.965   5.985 -0.0535 -0.0049  0.4178
 1023MOL0     C34970   8.999   7.863   5.940 -0.7674 -0.4517  0.6889
 1023MOL0     H34971   8.937   7.442   5.762  1.0005  0.2824  1.2168
 1023MOL0     H34972   8.838   7.237   5.695  1.0850  0.4376 -1.7523
 1023MOL0     H34973   8.397   7.246   5.619  1.7689  0.3369 -4.4736
 1023MOL0     H34974   8.403   7.105   5.729 -0.5032 -1.0551 -0.6198
 1023MOL0     H34975   8.534   6.978   5.538  0.4613  0.8469 -1.0603
 1023MOL0     H34976   8.469   7.104   5.442  1.2200 -0.1599  0.2332
 1023MOL0     H34977   8.317   6.895   5.593  0.3677 -1.6733 -1.6231
 1023MOL0     H34978   8.336   6.926   5.417  0.1224 -0.9870  0.1921
 1023MOL0     H34979   8.167   7.105   5.617 -0.1314  1.6871 -0.3246
 1023MOL0     H34980   8.231   7.165   5.477 -6.4445  1.6212 -0.1068
 1023MOL0     H34981   8.071   6.911   5.521 -3.4827  2.5248  1.3964
 1023MOL0     H34982   8.114   6.953   5.347  3.5974 -1.7396 -0.0891
 1023MOL0     H34983   7.972   7.140   5.352  0.4106 -0.5343 -0.3387
 1023MOL0     H34984   7.936   7.120   5.518  2.1663  2.2641  0.5110
 1023MOL0     H34985   7.849   6.943   5.281  0.5342 -0.0235 -0.2663
 1023MOL0     H34986   7.886   6.858   5.432  1.3531 -1.5331 -2.3524
 1023MOL0     H34987   7.714   7.035   5.546 -0.8144 -0.6791 -0.1965
 1023MOL0     H34988   7.648   6.915   5.424 -1.9429  0.9697  0.0142
 1023MOL0     H34989   7.742   7.305   5.413  0.8524 -0.7331 -0.0445
 1023MOL0     H34990   7.744   7.426   5.172 -0.1309  0.3459  0.5239
 1023MOL0     H34991   7.584   7.478   5.227  1.3062 -0.8279  2.4997
 1023MOL0     H34992   7.479   7.425   5.031  0.1603  1.2095 -1.7556
 1023MOL0     H34993   7.606   7.311   4.983 -0.3178 -0.8418  0.8534
 1023MOL0     H34994   7.551   7.565   4.881 -2.3248  2.8462  3.0195
 1023MOL0     H34995   7.651   7.616   5.018 -1.2381  0.0902 -0.0763
 1023MOL0     H34996   7.732   7.427   4.799 -2.8537  1.6716  0.1345
 1023MOL0     H34997   7.834   7.459   4.939  0.6799 -0.1130  0.1234
 1023MOL0     H34998   7.903   7.828   4.782 -1.3144  0.2852 -0.8908
 1023MOL0     H34999   8.104   7.885   4.653 -2.3993  0.9725 -0.8863
 1023MOL0     H35000   8.373   7.615   4.288 -0.4569  1.1055  0.8936
 1023MOL0     H35001   8.568   7.689   4.135 -1.2810  0.5704  0.7021
 1023MOL0     H35002   8.762   7.800   4.043 -2.3785 -1.4235 -0.3336
 1023MOL0     H35003   8.768   7.623   4.061  0.1421 -1.9915  3.1315
 1023MOL0     H35004   9.028   7.658   4.109  1.0368 -0.4115 -2.0476
 1023MOL0     H35005   9.003   7.824   4.056 -0.1117  0.0049 -3.1301
 1023MOL0     H35006   8.910   7.729   3.837  1.5616 -0.0374 -1.4958
 1023MOL0     H35007   8.930   7.570   3.927  3.0387 -1.2953  2.9521
 1023MOL0     H35008   9.127   7.780   3.832 -0.3189  0.3765  1.6525
 1023MOL0     H35009   9.198   7.637   3.897  1.5996 -0.7591 -2.5505
 1023MOL0     H35010   9.033   7.625   3.641  0.4153  1.5986 -0.9221
 1023MOL0     H35011   9.133   7.505   3.718 -2.3723 -0.6160 -0.5902
 1023MOL0     H35012   9.197   7.763   3.580 -1.3182 -0.3933  0.2628
 1023MOL0     H35013   9.243   7.611   3.519  2.2011  1.8581 -0.8769
 1023MOL0     H35014   9.434   7.741   3.601 -3.7501  0.6014 -3.2185
 1023MOL0     H35015   9.377   7.712   3.765  2.6727  0.8821  0.1652
 1023MOL0     H35016   9.375   7.477   3.723 -1.1323  1.3962  2.3849
 1023MOL0     H35017   9.546   7.542   3.719  1.8441 -4.1744 -2.4515
 1023MOL0     H35018   8.828   7.644   4.466  0.6007 -3.4032 -2.8308
 1023MOL0     H35019   8.636   7.637   4.624  0.8264 -2.1360 -0.1839
 1023MOL0     H35020   8.173   7.447   4.603 -1.1388 -1.2396  1.9169
 1023MOL0     H35021   7.961   7.417   4.722 -2.3210 -0.0777 -0.2796
 1023MOL0     H35022   8.446   7.384   5.783  0.2622  1.4283  1.3017
 1023MOL0     H35023   8.542   7.588   5.867  1.3707  1.5637 -2.0069
 1023MOL0     H35024   8.705   8.005   6.029  0.9513 -0.3320 -0.3223
 1023MOL0     H35025   8.844   8.169   6.114 -1.1526 -2.4415  1.4938
 1023MOL0     H35026   9.037   8.205   6.263 -1.6990  0.5566 -0.8118
 1023MOL0     H35027   9.011   8.333   6.137  0.9940  0.1452 -2.6970
 1023MOL0     H35028   9.273   8.249   6.270  1.0306  0.9989  0.7398
 1023MOL0     H35029   9.270   8.362   6.144  2.5738 -1.0846  0.7144
 1023MOL0     H35030   9.149   8.375   6.428 -0.8826  1.0804  0.1414
 1023MOL0     H35031   9.101   8.492   6.305  1.1348  1.2853 -1.7179
 1023MOL0     H35032   9.403   8.460   6.347 -0.8223 -2.0578  0.9142
 1023MOL0     H35033   9.300   8.597   6.299  0.7747 -1.3774 -1.7878
 1023MOL0     H35034   9.271   8.654   6.714  1.3105  2.0760 -1.1460
 1023MOL0     H35035   9.192   7.954   5.978  0.0634  0.1800  1.6291
 1023MOL0     H35036   9.038   7.773   5.892 -1.1910 -0.5740  0.5682
 1024MOL0     O35037   3.482   1.584   0.674 -0.4751 -0.7426 -0.2464
 1024MOL0     C35038   3.417   1.686   0.691  0.3424 -0.0662 -0.8744
 1024MOL0     O35039   3.468   1.795   0.765  0.1187  0.1589  0.2793
 1024MOL0     C35040   3.600   1.793   0.799  0.4651  1.2051 -0.3588
 1024MOL0     C35041   3.643   1.794   0.931 -0.9539 -0.2809  0.5641
 1024MOL0     C35042   3.779   1.799   0.958 -0.2322  0.5630 -0.5978
 1024MOL0     C35043   3.876   1.812   0.857  0.0370  0.2456  0.0431
 1024MOL0     O35044   4.010   1.821   0.875 -0.0269  0.0365  0.3438
 1024MOL0     C35045   4.055   1.802   1.010  0.5518  0.0789  0.3537
 1024MOL0     C35046   4.201   1.842   1.010 -0.3559 -0.6769  1.4023
 1024MOL0     C35047   4.276   1.780   1.125 -0.2756  0.1341 -0.0900
 1024MOL0     C35048   4.426   1.805   1.106  0.5447 -0.1052 -0.4307
 1024MOL0     C35049   4.497   1.743   1.223 -0.2122 -1.0209  0.4797
 1024MOL0     C35050   4.475   1.833   1.347 -0.4316 -0.5888 -0.0744
 1024MOL0     C35051   4.573   1.817   1.458 -1.0620  0.7541 -0.7276
 1024MOL0     C35052   4.527   1.700   1.554  0.5815 -0.8344  0.4314
 1024MOL0     N35053   4.513   1.571   1.489 -0.3074  0.6229 -0.0348
 1024MOL0     C35054   4.411   1.481   1.495  0.0231  0.0212  0.3120
 1024MOL0     C35055   4.456   1.369   1.427 -0.0118  0.0352 -1.4180
 1024MOL0     C35056   4.373   1.248   1.415  0.2071  1.1730  0.3428
 1024MOL0     C35057   4.325   1.218   1.266 -0.4293 -0.1765 -0.1970
 1024MOL0     C35058   4.243   1.334   1.203 -0.6621 -0.2402  0.2348
 1024MOL0     C35059   4.218   1.307   1.063 -0.0350 -0.4630 -0.7314
 1024MOL0     O35060   4.120   1.396   0.994  0.5016  0.1942  0.0104
 1024MOL0     C35061   3.983   1.371   1.001  0.4364  0.0779 -0.4096
 1024MOL0     C35062   3.891   1.430   0.913  0.3643 -0.4014 -0.9811
 1024MOL0     C35063   3.752   1.404   0.910  0.2901  0.4446  0.2401
 1024MOL0     C35064   3.700   1.296   0.994  0.3056  0.7789 -0.3793
 1024MOL0     C35065   3.553   1.257   0.986 -0.3075 -0.5872 -0.6162
 1024MOL0     O35066   3.487   1.309   0.880 -0.6292 -0.1079 -1.1266
 1024MOL0     C35067   3.351   1.296   0.865  0.5009  0.0999  0.3049
 1024MOL0     C35068   3.304   1.233   0.749 -0.0503 -0.4987  0.5063
 1024MOL0     C35069   3.163   1.228   0.724 -0.7135 -0.6804  0.0528
 1024MOL0     C35070   3.065   1.269   0.814  0.3977 -0.3082  0.3764
 1024MOL0     O35071   2.930   1.263   0.772 -0.2741 -0.4007  0.1573
 1024MOL0     C35072   2.843   1.380   0.788  0.1357 -0.1468 -0.5510
 1024MOL0     C35073   2.707   1.351   0.733  0.6692 -0.6068  0.2725
 1024MOL0     C35074   2.603   1.446   0.796 -0.2400  0.0575 -0.8723
 1024MOL0     C35075   2.473   1.391   0.754  0.3148 -0.3881  0.0527
 1024MOL0     C35076   2.348   1.476   0.791 -0.8807  0.2996 -0.6321
 1024MOL0     C35077   2.213   1.423   0.745  0.4023 -0.4341 -0.1725
 1024MOL0     C35078   2.093   1.473   0.829 -0.2588 -1.0936  0.4336
 1024MOL0     C35079   1.964   1.482   0.731  0.0360 -0.0060 -0.1571
 1024MOL0    Cl35080   1.963   1.636   0.654  0.1497  0.1554 -0.2088
 1024MOL0     C35081   3.116   1.332   0.931 -0.1219 -0.2153 -0.0824
 1024MOL0     C35082   3.252   1.342   0.953  0.3952  0.3241 -0.2320
 1024MOL0     O35083   3.510   1.179   1.070 -0.0058  0.5031 -0.2364
 1024MOL0     C35084   3.793   1.244   1.089 -0.5787 -0.0976 -0.2278
 1024MOL0     C35085   3.932   1.281   1.093 -0.7985 -0.2795  0.4446
 1024MOL0     N35086   4.595   1.395   1.398  0.4055 -0.0854 -0.2594
 1024MOL0     N35087   4.613   1.516   1.436  0.1042 -0.6431  0.1324
 1024MOL0     C35088   3.831   1.819   0.724  0.2123  0.0679 -0.1428
 1024MOL0     C35089   3.695   1.806   0.692 -0.3123  0.0529  0.0549
 1024MOL0     C35090   3.281   1.709   0.636 -0.7071  0.7156 -0.0361
 1024MOL0     C35091   3.212   1.600   0.581 -0.3910 -0.0978 -0.3592
 1024MOL0     C35092   3.086   1.613   0.522  0.0950 -0.0953  0.0282
 1024MOL0     C35093   3.021   1.738   0.521 -0.9113 -0.1177 -0.1568
 1024MOL0     O35094   2.900   1.753   0.459 -0.2612  0.4135 -0.3220
 1024MOL0     C35095   2.793   1.793   0.548 -0.2375 -0.2561  0.0394
 1024MOL0     C35096   2.655   1.733   0.518  0.3999  1.1515  0.6030
 1024MOL0     C35097   2.622   1.769   0.370 -0.1173 -0.2752  0.6690
 1024MOL0     C35098   2.491   1.840   0.349 -0.7377 -0.9486 -0.0288
 1024MOL0     C35099   2.367   1.770   0.397  0.3445 -0.1677  0.8327
 1024MOL0     C35100   2.270   1.715   0.425 -0.2928  0.0476 -0.1846
 1024MOL0     C35101   3.084   1.842   0.591  0.2388  0.3058 -0.3400
 1024MOL0     C35102   3.208   1.834   0.646 -1.1702  1.2638  0.7825
 1024MOL0     H35103   3.569   1.783   1.009 -0.4716  1.9214  1.4167
 1024MOL0     H35104   3.800   1.789   1.064 -1.9784  0.1122 -0.2669
 1024MOL0     H35105   4.042   1.696   1.034 -1.4923  0.7660  2.5144
 1024MOL0     H35106   4.001   1.858   1.086 -3.3314 -2.0886 -0.5442
 1024MOL0     H35107   4.204   1.952   1.007  0.8986 -0.7197 -1.1146
 1024MOL0     H35108   4.249   1.810   0.917 -2.3820 -2.0655  0.7888
 1024MOL0     H35109   4.254   1.673   1.136  3.4280 -0.7185  0.3361
 1024MOL0     H35110   4.239   1.821   1.219  2.9171 -1.5517  2.0974
 1024MOL0     H35111   4.456   1.762   1.010 -0.6565 -1.5014 -0.2107
 1024MOL0     H35112   4.452   1.912   1.109  0.9610 -0.2217  0.3138
 1024MOL0     H35113   4.604   1.748   1.202  0.0976 -1.9750  1.7033
 1024MOL0     H35114   4.478   1.637   1.243 -1.3623 -0.8771  0.2177
 1024MOL0     H35115   4.377   1.811   1.389 -0.0969  0.6054  1.4197
 1024MOL0     H35116   4.479   1.938   1.315  1.5181 -0.1336  1.4741
 1024MOL0     H35117   4.674   1.796   1.420 -0.8362 -2.4383  1.2723
 1024MOL0     H35118   4.581   1.903   1.525 -0.4772  1.0139 -1.1174
 1024MOL0     H35119   4.427   1.727   1.590 -0.0859 -0.9066 -1.2453
 1024MOL0     H35120   4.594   1.692   1.639  0.0487 -1.2087  0.8273
 1024MOL0     H35121   4.320   1.506   1.550 -0.2441  2.0133 -0.9428
 1024MOL0     H35122   4.283   1.257   1.478 -1.4115  0.3345 -1.7214
 1024MOL0     H35123   4.427   1.159   1.447 -3.4941 -2.2433 -1.9473
 1024MOL0     H35124   4.263   1.128   1.260 -1.1433  0.3519 -1.0973
 1024MOL0     H35125   4.417   1.206   1.208  0.1679  0.9535  0.4769
 1024MOL0     H35126   4.144   1.336   1.251 -1.9302  2.9232 -2.1718
 1024MOL0     H35127   4.292   1.431   1.214  2.5003 -1.4581 -1.6328
 1024MOL0     H35128   4.199   1.203   1.035  1.0545 -0.9279  0.1616
 1024MOL0     H35129   4.314   1.322   1.011  1.3236 -5.2430 -0.0169
 1024MOL0     H35130   3.922   1.511   0.849  0.1236 -0.1402 -0.7707
 1024MOL0     H35131   3.682   1.460   0.848  1.1607  3.5213  1.8137
 1024MOL0     H35132   3.382   1.218   0.675 -0.4614  1.9577 -0.5236
 1024MOL0     H35133   3.121   1.209   0.626 -2.4139 -3.3838  1.1708
 1024MOL0     H35134   2.876   1.476   0.747 -2.6898  0.2357 -2.1970
 1024MOL0     H35135   2.839   1.401   0.896 -1.1462 -2.7450 -0.0088
 1024MOL0     H35136   2.684   1.253   0.776  0.2748  0.5402  2.8861
 1024MOL0     H35137   2.723   1.363   0.625  1.9189  1.4191  0.6476
 1024MOL0     H35138   2.619   1.550   0.767  0.8870  0.4587  1.0328
 1024MOL0     H35139   2.602   1.432   0.904 -2.7134 -1.0221 -0.9660
 1024MOL0     H35140   2.480   1.377   0.646 -1.3536 -3.9214  0.2638
 1024MOL0     H35141   2.447   1.291   0.790 -3.6963 -0.4611 -2.3278
 1024MOL0     H35142   2.366   1.576   0.749  2.0736 -0.8378 -2.4133
 1024MOL0     H35143   2.340   1.486   0.899  0.0274 -4.1958  0.0282
 1024MOL0     H35144   2.211   1.315   0.759  2.5066 -0.9074 -2.5821
 1024MOL0     H35145   2.197   1.441   0.638 -0.0260  5.3239  0.5524
 1024MOL0     H35146   2.079   1.412   0.919  1.7257  0.4236  1.8658
 1024MOL0     H35147   2.126   1.573   0.858 -0.5751  1.0086 -5.1931
 1024MOL0     H35148   1.882   1.457   0.798  1.0475 -1.9422  0.4456
 1024MOL0     H35149   1.984   1.401   0.660 -1.3246 -0.2032 -0.3422
 1024MOL0     H35150   3.045   1.381   0.997  0.1625 -0.3962  0.3669
 1024MOL0     H35151   3.292   1.393   1.040 -0.0831  2.0768 -0.9753
 1024MOL0     H35152   3.762   1.163   1.154 -0.0773 -0.0265  0.1043
 1024MOL0     H35153   3.984   1.221   1.167  1.0305 -0.5036 -0.9484
 1024MOL0     H35154   3.911   1.806   0.652  1.7945 -0.1169  1.5709
 1024MOL0     H35155   3.662   1.808   0.588 -0.6938  2.4533  0.1560
 1024MOL0     H35156   3.280   1.515   0.577  0.6332  0.5731  1.4552
 1024MOL0     H35157   3.041   1.531   0.465 -0.4548 -0.2564  0.6857
 1024MOL0     H35158   2.787   1.901   0.538 -1.2395 -0.3233 -0.1553
 1024MOL0     H35159   2.816   1.764   0.651 -0.5568 -1.7388 -0.2744
 1024MOL0     H35160   2.658   1.625   0.533  0.1634  1.3935  2.5958
 1024MOL0     H35161   2.584   1.773   0.590 -0.9656  1.4878 -0.8695
 1024MOL0     H35162   2.608   1.683   0.305 -1.0871  0.5596 -0.2791
 1024MOL0     H35163   2.700   1.824   0.316 -0.8991  0.6013  0.3945
 1024MOL0     H35164   2.505   1.932   0.406 -2.4868 -0.8641  0.3302
 1024MOL0     H35165   2.488   1.865   0.243  3.1059  0.1434 -0.0050
 1024MOL0     H35166   2.184   1.655   0.442 -0.5827  0.6003  0.3341
 1024MOL0     H35167   3.023   1.932   0.593  0.6680  0.5980 -0.1628
 1024MOL0     H35168   3.266   1.920   0.679 -1.9931  1.8436  0.7285
  11.26910  11.26910  11.26910
